/*--------------------------------*- C++ -*----------------------------------*\
| =========                 |                                                 |
| \\      /  F ield         | OpenFOAM: The Open Source CFD Toolbox           |
|  \\    /   O peration     | Version:  v1806                                 |
|   \\  /    A nd           | Web:      www.OpenFOAM.com                      |
|    \\/     M anipulation  |                                                 |
\*---------------------------------------------------------------------------*/
FoamFile
{
    version     2.0;
    format      ascii;
    class       volVectorField;
    location    "643";
    object      Ua;
}
// * * * * * * * * * * * * * * * * * * * * * * * * * * * * * * * * * * * * * //

dimensions      [0 1 -1 0 0 0 0];


internalField   nonuniform List<vector> 
6400
(
(3.72451439017e-05 4.84266995361e-05 0)
(0.000100543275237 3.63881120057e-05 0)
(0.000146456745125 2.95450472807e-05 0)
(0.000196043505233 2.67053519948e-05 0)
(0.000233697725902 1.86890539474e-05 0)
(0.000262424969204 1.25298613295e-05 0)
(0.000280786405102 1.04775568865e-05 0)
(0.000297640568564 1.45765200598e-05 0)
(0.000334633279025 1.97731389329e-05 0)
(0.000373114595612 1.98823966841e-05 0)
(0.000395555600486 1.87280138943e-05 0)
(0.000432740999661 2.01905123842e-05 0)
(0.000468948008577 1.99105284275e-05 0)
(0.000501806804047 1.86350519098e-05 0)
(0.000530880141306 1.84342509859e-05 0)
(0.000562192653971 2.03704229797e-05 0)
(0.000598981856745 2.1443752583e-05 0)
(0.000634158275679 2.08123695534e-05 0)
(0.00066574020903 1.96762534446e-05 0)
(0.000698194172419 1.98435241756e-05 0)
(0.000736841771819 2.33297781539e-05 0)
(0.000781334282014 2.6806929301e-05 0)
(0.000828039682077 2.78629201359e-05 0)
(0.000873043531509 2.77947513589e-05 0)
(0.000917148240354 2.71852043569e-05 0)
(0.000961167435753 2.65010672179e-05 0)
(0.00100615301812 2.65925965074e-05 0)
(0.00105066077487 2.65071336903e-05 0)
(0.0010934570798 2.60115163834e-05 0)
(0.00113474007991 2.56715281183e-05 0)
(0.0011745463198 2.60028461241e-05 0)
(0.00121576312741 2.61311848475e-05 0)
(0.00125843944388 2.59371821571e-05 0)
(0.00130052165367 2.67778483397e-05 0)
(0.00134335074927 2.75020795702e-05 0)
(0.00139053835855 2.8118146654e-05 0)
(0.00143663386264 2.89186402482e-05 0)
(0.00147555015688 2.85410977776e-05 0)
(0.0015204473123 2.76880729957e-05 0)
(0.00156975716846 2.74779820646e-05 0)
(0.00161379018842 2.88137135175e-05 0)
(0.00164985216261 2.81690904192e-05 0)
(0.00168320590729 2.40378455338e-05 0)
(0.00171518043049 2.11009807807e-05 0)
(0.00174370062361 1.9767127566e-05 0)
(0.00176931045292 1.83019977109e-05 0)
(0.00179169167465 1.67178216151e-05 0)
(0.00180995963591 1.46294525131e-05 0)
(0.00182419123777 1.25929031475e-05 0)
(0.00183434059677 1.24702023748e-05 0)
(0.00184310772797 1.46200868502e-05 0)
(0.00185649166903 1.38497197518e-05 0)
(0.00186146354233 5.96782425793e-06 0)
(0.00186241266464 1.59329856081e-06 0)
(0.00184947874459 -2.49395537151e-06 0)
(0.00180989079963 -1.02932190632e-05 0)
(0.00176771566128 -8.86432303895e-06 0)
(0.00174873447656 -2.92518743457e-06 0)
(0.0017392654754 -5.43615571356e-06 0)
(0.00169135610482 -7.72467968214e-06 0)
(0.00165773714387 1.74257675275e-06 0)
(0.00161845390744 -4.5605821134e-06 0)
(0.00170992342434 -4.11317500742e-05 0)
(0.00156514827704 -7.99385347514e-05 0)
(0.00125436197598 -6.98098897168e-05 0)
(0.00111437525284 -4.866424645e-05 0)
(0.00103515906907 -4.7234902819e-05 0)
(0.000972870622087 -4.68113128422e-05 0)
(0.000907383838911 -4.81455917814e-05 0)
(0.000815430493526 -5.09080114625e-05 0)
(0.000718871287704 -5.1621299438e-05 0)
(0.000610299830844 -4.93392430467e-05 0)
(0.000508469414398 -4.78889010154e-05 0)
(0.00043934574814 -5.00903692894e-05 0)
(0.000321861230762 -3.9103226451e-05 0)
(0.000275762679958 -3.37445315783e-05 0)
(0.000178978932245 -2.05620100627e-05 0)
(0.000182309927178 -2.75739402403e-05 0)
(7.77131593404e-05 -1.90825889037e-05 0)
(5.79476522409e-05 -3.50126211626e-05 0)
(1.44161041139e-05 6.82731632082e-05 0)
(6.15206825183e-05 7.57693619667e-05 0)
(0.000106634749167 6.82373327883e-05 0)
(0.000136595830021 5.54909510797e-05 0)
(0.000195810850366 5.49857466234e-05 0)
(0.000249048415078 4.06435401099e-05 0)
(0.000282539879845 2.9256607075e-05 0)
(0.000309054587864 3.80712747762e-05 0)
(0.000338434990315 4.84175734523e-05 0)
(0.000371220063285 4.9101357136e-05 0)
(0.000403586506477 4.79256373087e-05 0)
(0.000434991900318 4.84049796719e-05 0)
(0.000466161849209 4.66994909503e-05 0)
(0.000496745383209 4.42389646382e-05 0)
(0.000528724724637 4.45746863457e-05 0)
(0.000561981561994 5.15024330744e-05 0)
(0.000596928084351 5.5588820965e-05 0)
(0.000629598400223 4.93490049695e-05 0)
(0.000649043723806 4.47120051978e-05 0)
(0.000684739164498 4.78191145952e-05 0)
(0.000728769672979 5.75793770659e-05 0)
(0.000776412080622 6.80518125824e-05 0)
(0.000826883723004 7.04803621441e-05 0)
(0.000873640259046 6.72355567625e-05 0)
(0.000912447583393 6.47825711599e-05 0)
(0.000959044740807 6.44864729376e-05 0)
(0.00100532608484 6.38476541718e-05 0)
(0.00104860800293 6.24067922451e-05 0)
(0.00109077911886 6.09185140998e-05 0)
(0.00113265400474 5.99953818934e-05 0)
(0.00117370536956 6.02359947673e-05 0)
(0.00121150494796 5.99933438131e-05 0)
(0.00125405797203 5.87593040032e-05 0)
(0.00129568192762 6.1231128157e-05 0)
(0.00133711731132 6.44450784993e-05 0)
(0.0013888646446 6.42862843492e-05 0)
(0.00143276059863 6.52014313719e-05 0)
(0.0014719557041 6.58739144805e-05 0)
(0.00152014359308 6.40769533262e-05 0)
(0.00157548999492 6.08237418891e-05 0)
(0.00162084921527 5.48740834311e-05 0)
(0.00162829017419 4.76741048375e-05 0)
(0.00164628496633 4.32319305447e-05 0)
(0.0016813378901 4.08182476278e-05 0)
(0.00171190226167 3.82328936437e-05 0)
(0.00174229476578 3.4756129971e-05 0)
(0.00177121370746 3.00774858099e-05 0)
(0.00179405906508 2.43901445204e-05 0)
(0.00181685143649 1.83477381037e-05 0)
(0.00183421008536 1.29322578525e-05 0)
(0.00183897461369 9.1575923263e-06 0)
(0.00182355041655 5.61025805884e-06 0)
(0.00181369818097 9.73854168117e-07 0)
(0.00186174972052 -9.84761360093e-06 0)
(0.00184030789729 -2.97160943005e-05 0)
(0.00181449712159 -4.34125313876e-05 0)
(0.00181691696165 -4.14019806931e-05 0)
(0.00180278237076 -3.62897218441e-05 0)
(0.00177895277545 -4.28494713559e-05 0)
(0.00175810029944 -5.13989002563e-05 0)
(0.00174025543727 -5.75033329235e-05 0)
(0.0015977202204 -6.94604515535e-05 0)
(0.00168246379853 -0.000159853669627 0)
(0.00152593701269 -0.000259705559948 0)
(0.00126448348002 -0.000247278952182 0)
(0.00105229418581 -0.000175906403571 0)
(0.00094387705175 -0.000129092503137 0)
(0.000925768630389 -0.000119253868703 0)
(0.000866549343502 -0.000131038500608 0)
(0.000795992063993 -0.000150551997628 0)
(0.000692812079457 -0.000159163935935 0)
(0.000581914106745 -0.000151891944156 0)
(0.000469515270879 -0.000129625358391 0)
(0.000415289346247 -0.000122767856338 0)
(0.000347788149792 -0.000111130594105 0)
(0.000289168788256 -9.86522866001e-05 0)
(0.000231380784314 -8.22643867293e-05 0)
(0.000179888629098 -8.21198307739e-05 0)
(0.000110256373844 -8.54518131187e-05 0)
(5.03931401257e-05 -0.000137167578399 0)
(2.00785912513e-05 0.000118037615599 0)
(5.78476818613e-05 0.000126395164335 0)
(8.97075867758e-05 0.000118031209786 7.22744439938e-29)
(0.000149662360844 0.000118911400114 -6.65415289035e-29)
(0.000205649565637 0.000117702844528 -5.81806723621e-29)
(0.000242518797075 9.75107507673e-05 5.28929577485e-29)
(0.000270830627121 6.09210990098e-05 -5.28806538057e-29)
(0.000298009480678 6.72009897351e-05 5.10166809117e-29)
(0.000328493513175 8.10450412277e-05 0)
(0.000362597095961 8.4370351701e-05 0)
(0.000396850465015 8.26001306021e-05 0)
(0.000428959622907 8.00612123633e-05 0)
(0.000459752429497 7.72128988646e-05 0)
(0.000489623000827 7.66074031008e-05 0)
(0.000521775796868 7.92265526401e-05 0)
(0.000555361401809 8.00880903702e-05 0)
(0.000539149180292 7.15565185352e-05 0)
(0.000544460420423 6.69571753359e-05 0)
(0.000579699313178 7.52528959081e-05 0)
(0.000634902943139 9.54175254716e-05 0)
(0.000722338733908 0.000116771464708 0)
(0.000780243833308 0.000122757311979 0)
(0.000817891505817 0.000118822255987 0)
(0.000864031393592 0.000114345799909 0)
(0.000911831269274 0.000112099027064 0)
(0.000955645630915 0.000111059939354 0)
(0.000998835765803 0.000109063764679 0)
(0.00104232493933 0.000106804573181 0)
(0.00108497557418 0.000104939863813 0)
(0.00112636641021 0.000103812806028 9.34091601876e-29)
(0.00116896657683 0.000103063797648 -9.03230550965e-29)
(0.00120398422231 0.000102213540477 0)
(0.00124530791158 0.000101993992877 0)
(0.0012952765728 0.000103796166325 0)
(0.00132329407413 0.000109816706818 0)
(0.00137574743 0.000114601895526 0)
(0.00143445394427 0.000113478298776 0)
(0.00146463947027 0.000113348907728 0)
(0.00151501505234 0.000115313967554 0)
(0.00157240201008 0.000109430315557 0)
(0.00161821083549 9.32271150732e-05 0)
(0.00165257818551 7.93983276795e-05 0)
(0.00168447595172 7.56799928382e-05 0)
(0.00171611939008 7.40906940807e-05 0)
(0.0017448632477 7.01671870621e-05 0)
(0.00177035102274 6.45157600503e-05 0)
(0.00179280841571 5.69055988364e-05 0)
(0.00181219807932 4.82104075209e-05 0)
(0.00182865535768 3.84611478685e-05 0)
(0.00184177561626 2.68217060785e-05 0)
(0.00185103747179 1.49093662345e-05 0)
(0.00185664758268 7.84934474297e-06 0)
(0.00185939282509 6.22590306155e-06 0)
(0.00184956042399 -9.4961023015e-06 0)
(0.00182763899229 -3.45777781849e-05 0)
(0.00182627134475 -4.64491243349e-05 0)
(0.00182005812542 -4.93888307956e-05 0)
(0.00180102732315 -5.38616993289e-05 0)
(0.00177578561864 -6.24929633666e-05 0)
(0.00174747758561 -7.72135677124e-05 0)
(0.00170217909151 -0.000108422417761 0)
(0.00165344894944 -0.000157690799319 0)
(0.00160833633417 -0.000314052779415 0)
(0.00136384129529 -0.000439628990315 0)
(0.00107637473119 -0.000367357281479 0)
(0.000982854180174 -0.00027552758788 0)
(0.000937133057574 -0.000217393837668 0)
(0.000864070563356 -0.000195635147448 0)
(0.000791666530998 -0.000213436588018 0)
(0.000708691181754 -0.000240309962089 0)
(0.000610525943318 -0.000246326338014 0)
(0.000521955169738 -0.000227551638777 0)
(0.000465757882849 -0.00020546432165 0)
(0.000411859560686 -0.000193963499334 0)
(0.000343362961879 -0.000182823067163 0)
(0.000274466622284 -0.000164074044202 0)
(0.000211332670779 -0.000143854541027 0)
(0.000160046433681 -0.000149867746199 0)
(0.000109914941559 -0.000190421926068 0)
(2.7846486968e-05 -0.000187212657166 0)
(1.8696379043e-05 0.000172191082114 0)
(2.82444172352e-05 0.000120011852899 0)
(7.13448169901e-05 0.000175405224811 0)
(0.000125996647539 0.000175081959414 0)
(0.00017687423391 0.000152453284026 0)
(0.000109699388198 6.61162904131e-05 0)
(0.000139837966572 7.03367473539e-05 0)
(0.000252497377039 0.000123122235201 0)
(0.000306215131046 0.000129646183944 0)
(0.000346660610174 0.000122980799105 0)
(0.000385010937534 0.000118072750586 0)
(0.000419457391794 0.000112293879699 0)
(0.000451054538894 0.000107795200523 0)
(0.000477719740219 0.000101447831809 0)
(0.000475472680068 8.9079857958e-05 0)
(0.000472461733807 8.00529574369e-05 0)
(0.000490026396175 8.22993711535e-05 0)
(0.000534951926553 0.000102928652539 0)
(0.000612166887543 0.000136869001322 0)
(0.000684804807202 0.00016707924496 0)
(0.000726065770138 0.000174328096348 0)
(0.000768873532724 0.000169379816761 0)
(0.000814954646746 0.000164306251978 0)
(0.000859575155994 0.000160498645156 0)
(0.000903166274856 0.000156873535082 0)
(0.000946098924928 0.000153796299751 0)
(0.000988781265934 0.00015142096349 0)
(0.00103367060317 0.000149268117022 0)
(0.00107505496117 0.000146800961183 0)
(0.00111970079314 0.000145331109579 0)
(0.00115626851865 0.000143493704944 0)
(0.0012008730806 0.000142236223341 0)
(0.00123059572475 0.000139752759097 0)
(0.00127683921328 0.000145198091117 0)
(0.00133538902945 0.00015570657958 0)
(0.00136860710305 0.000162146920427 0)
(0.001426364481 0.000164003984491 0)
(0.00148470699743 0.000163772681398 0)
(0.00153020446291 0.000162584802757 0)
(0.00157310972107 0.000152626870557 0)
(0.00161428258356 0.000134520964211 0)
(0.00165137986814 0.000117961719558 0)
(0.00168556180986 0.000108624293553 0)
(0.00171749054844 0.00010261534485 0)
(0.0017462315871 9.57308848141e-05 0)
(0.0017716913758 8.71061253719e-05 -8.03302105655e-29)
(0.00179405560213 7.67860604627e-05 8.08017089633e-29)
(0.00181332441565 6.51251555467e-05 0)
(0.00182948478975 5.21802049651e-05 0)
(0.00184230218799 3.80096906793e-05 0)
(0.00185133115825 2.40045673334e-05 0)
(0.0018558524288 1.17163031266e-05 0)
(0.00185492253886 -1.80868884343e-06 0)
(0.00184708435847 -2.19797883573e-05 0)
(0.00183617511898 -4.187570883e-05 0)
(0.00182674054413 -5.50969606998e-05 0)
(0.0018138453779 -6.62755233782e-05 0)
(0.00179234999893 -7.87711069216e-05 -1.56980451158e-28)
(0.00176164312721 -9.58224839556e-05 1.82593224359e-28)
(0.00171862346681 -0.00012429031488 0)
(0.00165356147618 -0.000176378870566 0)
(0.00156122093418 -0.000280557736167 0)
(0.00142685721076 -0.000469577432488 0)
(0.00127963832534 -0.000608976916347 0)
(0.00113870639521 -0.000545330295534 0)
(0.000936248713665 -0.000361990093512 0)
(0.000844002120998 -0.000284129047588 0)
(0.000780920085749 -0.000272384963407 0)
(0.00071519141547 -0.000293285234417 0)
(0.00065583986325 -0.000329473121064 0)
(0.000581120932309 -0.00033789000316 0)
(0.000505863420331 -0.000311864971926 0)
(0.000432992434091 -0.000280617968334 0)
(0.000345443645484 -0.000252460722668 0)
(0.000281167697671 -0.000240848796139 0)
(0.000221778631183 -0.000233174812028 0)
(0.00015781173989 -0.000208791945474 0)
(9.13230281514e-05 -0.000167630500886 0)
(6.65890950205e-05 -0.000211009853205 0)
(2.20787150614e-05 -0.000242697237481 0)
(1.708923965e-06 0.000173539543191 0)
(1.47369198922e-05 0.000145186169749 0)
(6.1286995639e-05 0.000225287811334 0)
(0.000104734576192 0.000211766315616 0)
(0.000118219161439 0.000148988050198 0)
(9.78828970388e-05 8.96565159938e-05 0)
(0.000167199725319 0.000143398426768 0)
(0.000245043527159 0.000192362160071 0)
(0.000281644164507 0.000179173940747 0)
(0.000325274498589 0.000165167135698 0)
(0.000366303863426 0.000158344086306 0)
(0.000402824988476 0.000148566998632 0)
(0.000419240817846 0.00012683574934 0)
(0.000404523810728 0.000100385874071 0)
(0.000424165145971 9.64752874956e-05 0)
(0.000462831169056 0.000109307358189 0)
(0.000520034410548 0.000135913250326 0)
(0.000586082098877 0.000171657256058 0)
(0.000638767829264 0.000198910258123 0)
(0.00067172828499 0.000208234959647 0)
(0.000713323041897 0.000213505037606 0)
(0.000760124637898 0.000214706159681 0)
(0.000804311067751 0.000210341979578 0)
(0.000848130923673 0.000204681731046 0)
(0.000891109428476 0.000199899754807 0)
(0.000933208151884 0.000196816319892 0)
(0.000978180965435 0.000194652471468 0)
(0.0010184791358 0.000191620402888 0)
(0.00106599044327 0.000189540718294 0)
(0.0011014942197 0.000185797813706 0)
(0.00115054153494 0.000184725085497 8.96025271424e-29)
(0.00117190121321 0.00018017216714 -8.53796793056e-29)
(0.0012277092386 0.000184905250945 0)
(0.00128387894647 0.00019312261734 0)
(0.00132169899082 0.000202670830689 0)
(0.00138431065731 0.000215097734789 0)
(0.00143691872562 0.00021946090486 0)
(0.0014848319002 0.000214066437963 0)
(0.00152934483181 0.000204954933951 0)
(0.00157174695586 0.000191942724808 0)
(0.00161274234561 0.000174216552922 0)
(0.00165118514528 0.000156588714694 0)
(0.00168668861314 0.000143281728751 0)
(0.00171915210476 0.000132880226941 0)
(0.0017481858157 0.000122425455659 0)
(0.00177383012804 0.000110640649017 0)
(0.00179622579616 9.73040764767e-05 0)
(0.00181536241789 8.25339217378e-05 0)
(0.00183112048197 6.63576069987e-05 0)
(0.00184323336919 4.89272118014e-05 0)
(0.00185123816836 3.09772737438e-05 0)
(0.00185437181019 1.2894264894e-05 0)
(0.00185184983316 -6.89920351561e-06 0)
(0.00184370526683 -2.95214101509e-05 0)
(0.00183254774333 -5.10853010163e-05 0)
(0.00181992919426 -6.94139013816e-05 0)
(0.0018018054393 -8.81152477772e-05 0)
(0.00177272098376 -0.000111442249391 0)
(0.00172808560133 -0.000144887120891 0)
(0.00166119876247 -0.000198391015012 0)
(0.00156415655039 -0.000286269832982 0)
(0.00144045279919 -0.000422105179893 0)
(0.001294942953 -0.000592754133746 0)
(0.00121600700608 -0.00071793258462 0)
(0.00112982461935 -0.000682351092493 0)
(0.000950505773224 -0.000512093781652 0)
(0.000823797461478 -0.00040494461787 0)
(0.000721351560658 -0.000362700316987 0)
(0.000638737853318 -0.00036590452728 0)
(0.000576451286528 -0.000394979509717 0)
(0.000517459526083 -0.000413751318139 0)
(0.0004438604867 -0.000390845575404 0)
(0.000352916521524 -0.000340206295913 0)
(0.000290193755951 -0.000318744839975 0)
(0.000230779079858 -0.000312241755938 0)
(0.000171030509882 -0.000300549109794 0)
(0.000113947775186 -0.000249132321144 0)
(7.27690851634e-05 -0.000212715392485 0)
(4.57796872629e-05 -0.000262150664248 0)
(1.12996856926e-05 -0.000269725840971 0)
(-7.17159005492e-07 0.000162556164966 0)
(1.63297418867e-05 0.000174342045049 0)
(5.8747038993e-05 0.000255317651558 0)
(8.47294574835e-05 0.000222534661032 0)
(6.71727705511e-05 0.000119853851813 0)
(9.49655817716e-05 0.000126097324108 0)
(0.000193637896022 0.00021972065485 0)
(0.000227085867279 0.000230489118259 0)
(0.000260124944716 0.00021870756559 0)
(0.000299926794508 0.000208406041381 0)
(0.000341060781275 0.000192217480208 0)
(0.000335678722107 0.000153446244161 0)
(0.000318851495056 0.000115355097004 0)
(0.000350670579969 0.000115629890726 0)
(0.000393731903663 0.000135060527388 0)
(0.000463065975749 0.000169298280646 0)
(0.000532576337738 0.000202236380459 0)
(0.000584403168118 0.000222772731611 0)
(0.00061161076394 0.000231016995125 0)
(0.000655061199428 0.000246443343588 0)
(0.000703443929966 0.000258714416914 0)
(0.000746585795506 0.00025928150192 0)
(0.00078945647938 0.000254411098747 0)
(0.000832135747301 0.000248472401869 0)
(0.000877310718098 0.000243890255645 0)
(0.000919445359099 0.000239038178638 0)
(0.000955259147697 0.000236280001867 0)
(0.00100812814441 0.000236068751181 0)
(0.00103866844597 0.000229476597118 0)
(0.00109458806145 0.000227118273412 0)
(0.0011082774694 0.000219344430643 0)
(0.00117227126756 0.000226613977411 0)
(0.00119430227897 0.000229599127114 0)
(0.0012656068946 0.000245038677525 0)
(0.00133519918241 0.000261950162864 0)
(0.00138891099904 0.000271065070971 0)
(0.00143691015362 0.000268501917196 0)
(0.00148299119971 0.000259675726599 0)
(0.00152742986967 0.000247774759807 0)
(0.0015704574201 0.000232763282699 0)
(0.00161198045303 0.000214397431587 0)
(0.00165131872152 0.000195354464361 0)
(0.00168780957468 0.000178573997846 0)
(0.00172096331948 0.00016390410385 0)
(0.00175052478821 0.000149556634453 0)
(0.00177651562158 0.000134301807196 0)
(0.00179903583444 0.000117677795204 0)
(0.00181799529582 9.95557443218e-05 0)
(0.00183314612391 7.98535454589e-05 0)
(0.00184416026153 5.86279502376e-05 0)
(0.0018505832975 3.61813714422e-05 0)
(0.00185179890033 1.25878227195e-05 0)
(0.00184739016614 -1.25702378558e-05 0)
(0.00183780127463 -3.8809079602e-05 0)
(0.0018243130804 -6.42363594509e-05 0)
(0.00180625344948 -8.95502428922e-05 0)
(0.00177889874839 -0.000119353441858 0)
(0.00173598140958 -0.000159505700145 0)
(0.00167168969313 -0.000217133305598 0)
(0.00158028689513 -0.000300300806225 0)
(0.00146335182242 -0.000414820952483 0)
(0.00133495501869 -0.000553045071196 0)
(0.00117154062346 -0.000669840068793 0)
(0.00116717243774 -0.000826803730932 0)
(0.00101415588389 -0.000774920639303 0)
(0.000861566164666 -0.000617074428913 0)
(0.000761697158909 -0.000522102341002 0)
(0.000655242365167 -0.000463083220825 0)
(0.000559091802745 -0.000440740765878 0)
(0.000500439360723 -0.00047042061103 0)
(0.000443617195067 -0.000495015960602 0)
(0.000360348462402 -0.000444114216347 0)
(0.000294946341214 -0.000398695057961 0)
(0.000241790120476 -0.000386692103166 0)
(0.000180497099764 -0.000376268715053 0)
(0.000132298585799 -0.000353303327461 0)
(8.625293162e-05 -0.000279255836107 0)
(5.39252674208e-05 -0.000247172186143 0)
(3.11690317624e-05 -0.000291337928826 0)
(8.4009006682e-06 -0.000288829083187 0)
(4.94644778333e-06 0.000175219830775 0)
(3.37165257479e-05 0.00022153573808 0)
(7.20108756535e-05 0.000275354541493 0)
(8.10857761473e-05 0.000264379882259 0)
(6.0099445186e-05 0.000150684577317 0)
(0.000126892782955 0.000211828144011 0)
(0.000187717062045 0.000261670260196 0)
(0.000209042180553 0.00025897978484 0)
(0.000239457206411 0.000250517202389 0)
(0.000265948085591 0.000240095501209 0)
(0.000312349767534 0.00021817626888 -2.41065958418e-28)
(0.000261414273544 0.000140000243506 1.55884954004e-28)
(0.00030107216356 0.000140497769406 0)
(0.000332605625278 0.000157050885991 0)
(0.000395701952478 0.000196675207288 0)
(0.000470307395836 0.000240994906029 0)
(0.00052302757693 0.000257846726784 0)
(0.000542652513857 0.000253413777953 0)
(0.000588444274765 0.00027037509659 0)
(0.000642778004715 0.00029414674636 0)
(0.000685127145393 0.000302822489438 0)
(0.000728531351183 0.000302541327314 0)
(0.000772323998326 0.000298526194776 0)
(0.000815832631374 0.000292057317595 0)
(0.000855369280029 0.000284212783527 0)
(0.000892265860146 0.000278261194644 0)
(0.000943116793456 0.000278606831922 0)
(0.000967771501615 0.000275010941419 0)
(0.00103129089726 0.000273749920905 0)
(0.00104037211618 0.000257026841477 0)
(0.00110915330279 0.000264496954005 0)
(0.00113319069739 0.000270191206496 -8.41113582753e-29)
(0.0012034506978 0.000286928258372 8.51799885815e-29)
(0.00126301841471 0.000308135384156 0)
(0.00133566654025 0.00032442096848 0)
(0.00138711292494 0.000323920190631 0)
(0.00143359362455 0.000315881205218 0)
(0.00147964749682 0.000304797859704 0)
(0.0015251273252 0.00029127154529 0)
(0.00156928504279 0.000274786006036 0)
(0.00161166210122 0.000255287115231 0)
(0.00165188395538 0.000234493612581 0)
(0.00168927789072 0.000214503580455 0)
(0.00172322370841 0.000195759252963 0)
(0.00175344128578 0.0001773540074 0)
(0.00177990101458 0.00015830738741 0)
(0.00180257746155 0.000138011303322 0)
(0.00182123315327 0.000116103690341 0)
(0.0018354959371 9.23547211676e-05 0)
(0.00184499102291 6.67076227285e-05 0)
(0.0018493048363 3.92770668028e-05 0)
(0.0018479756217 1.02070894124e-05 0)
(0.00184079206071 -2.02715465551e-05 0)
(0.00182797831802 -5.15344248777e-05 0)
(0.0018094282473 -8.35653121716e-05 0)
(0.00178271560286 -0.000119350233532 0)
(0.00174235247261 -0.000164786092486 0)
(0.0016825019847 -0.000225896790243 0)
(0.00160074279134 -0.000307392662164 0)
(0.00150109697076 -0.000411390473049 0)
(0.00139077678813 -0.000534597234808 0)
(0.0012781966197 -0.000664542760117 0)
(0.00118317409212 -0.000793020733313 0)
(0.001113689806 -0.00092200136981 0)
(0.000974903556761 -0.000897490037141 0)
(0.000763987234303 -0.000704017263385 0)
(0.00069013285735 -0.000627879830145 0)
(0.000596089027815 -0.000578067588716 0)
(0.000497110823677 -0.000546464392329 0)
(0.000423860770069 -0.000556283148066 0)
(0.000361732026134 -0.000546767169565 0)
(0.000298002043937 -0.000488167774537 0)
(0.000250222358965 -0.000463378997318 0)
(0.000192062185958 -0.000449748169228 0)
(0.000138177932521 -0.000432790754686 0)
(9.7471758138e-05 -0.000378176902497 0)
(6.537126975e-05 -0.000319147167891 0)
(3.07575863819e-05 -0.000276686341268 0)
(1.36526876468e-05 -0.000306383604736 0)
(4.71305087781e-06 -0.000308011318099 0)
(1.03039477887e-05 0.000201245055923 0)
(4.50054962908e-05 0.00026305460794 0)
(7.66743627292e-05 0.000285301406882 0)
(5.10183004384e-05 0.000187914912644 0)
(5.98350629727e-05 0.000183674204291 0)
(0.000136266819735 0.000278881884013 0)
(0.000165507972881 0.000287966321365 0)
(0.000191781830285 0.000285948407602 0)
(0.000210785232859 0.000274802320338 0)
(0.000243374967675 0.000266017833897 0)
(0.000211702426227 0.000181714380689 0)
(0.000242646521653 0.000164437024274 0)
(0.000280430600047 0.000175805796407 0)
(0.000319205125681 0.000205092508811 0)
(0.000401402559555 0.000266683083354 0)
(0.00045868416146 0.00029505531595 0)
(0.000473586028858 0.000283178487913 0)
(0.000513519526858 0.000292507466196 0)
(0.000573189097283 0.000322617703616 0)
(0.000621427771936 0.000340765904561 0)
(0.000662488659366 0.000345353462382 0)
(0.000704376604285 0.000344836415451 0)
(0.000749925473329 0.000343044481696 0)
(0.000793082296059 0.00033615195823 0)
(0.000838300755808 0.000325539851416 0)
(0.000866970167608 0.000319723796734 0)
(0.000924308602105 0.000321603170078 0)
(0.000955667428581 0.000314676098164 0)
(0.000980779277984 0.000304731314228 0)
(0.00102956134713 0.000305326521847 0)
(0.00110556162524 0.000318093299048 0)
(0.00113579283621 0.000320935325778 0)
(0.00118523599102 0.000344259308501 0)
(0.00127465173481 0.000375921168616 0)
(0.00132988471915 0.000382964281419 0)
(0.00137985125656 0.000375008282495 0)
(0.00142818631931 0.000363634439037 0)
(0.0014756074199 0.000350958963397 0)
(0.00152244982443 0.000336119912294 0)
(0.00156803505955 0.000318193194164 0)
(0.00161163565723 0.000297159237662 0)
(0.00165288351021 0.000274278104337 0)
(0.00169126738358 0.000251146414109 0)
(0.00172615601971 0.000228449742545 0)
(0.00175717851471 0.000205867596634 -7.77623413205e-29)
(0.00178419975673 0.000182693367999 7.75220029936e-29)
(0.00180701516342 0.000158236315713 0)
(0.0018252030697 0.000131945154657 0)
(0.00183826887956 0.000103474578099 0)
(0.00184579952786 7.2705130194e-05 0)
(0.001847387919 3.97091506051e-05 0)
(0.00184263942662 4.70313919878e-06 0)
(0.00183131210157 -3.19650496838e-05 0)
(0.00181307892665 -7.02971106085e-05 0)
(0.0017865604323 -0.000112040720956 0)
(0.00174818317679 -0.000161829289326 0)
(0.00169281079143 -0.000225536961608 0)
(0.00161850706654 -0.000305822531087 0)
(0.00153113232114 -0.000402220582568 0)
(0.0014394001589 -0.000514043008374 0)
(0.00134500074448 -0.000636707354667 0)
(0.001251760437 -0.000759697433216 0)
(0.00117004822673 -0.000879437829829 0)
(0.00108699278892 -0.000998822486922 0)
(0.00106861013195 -0.00110986292042 0)
(0.00076733372504 -0.000860912488972 0)
(0.000602059113162 -0.000732002893004 0)
(0.000503761365781 -0.00067828119997 0)
(0.000402413753026 -0.000632990818289 0)
(0.000334089174552 -0.000614980558875 0)
(0.000289837021448 -0.000578846550789 0)
(0.000248970155219 -0.000536492111951 0)
(0.000202510433405 -0.00052342049697 0)
(0.000146223742185 -0.000507855054913 0)
(9.99800892678e-05 -0.000475463596133 0)
(6.3343763766e-05 -0.000407535874275 0)
(3.30196852487e-05 -0.000357188844531 0)
(1.64483148194e-06 -0.000309876107666 0)
(-1.17153628364e-05 -0.000311371004163 0)
(-5.31747612889e-06 -0.000315328854553 0)
(1.36216241413e-05 0.00023235558033 0)
(4.78118633772e-05 0.000293746198087 0)
(6.0039461026e-05 0.000293033199412 0)
(4.54046404958e-05 0.000203987827561 0)
(7.77513725912e-05 0.000234396209478 0)
(0.000131380035251 0.0003089389094 0)
(0.000144369286968 0.00031164706273 0)
(0.000174838277865 0.000310157967363 0)
(0.00017492626781 0.000277707004029 0)
(0.000222964547365 0.000298361487691 0)
(0.000190163832332 0.000202291685821 0)
(0.000229761031251 0.000198721682852 0)
(0.00026226026131 0.000215544506415 0)
(0.000321122754045 0.000269802661422 0)
(0.000388940128241 0.000325901714477 0)
(0.000430057547639 0.000334226243373 0)
(0.000443797238657 0.00031915887161 0)
(0.000493646161486 0.000342533764738 0)
(0.000548247846692 0.000372372878872 0)
(0.000593925111517 0.00038573114787 0)
(0.000637795280785 0.000388722480948 0)
(0.000678144366145 0.000386630486683 0)
(0.000722441235229 0.000384960068111 0)
(0.000758729861383 0.000376662518884 0)
(0.00079354150757 0.000360760225987 0)
(0.000851957331361 0.00036249990028 0)
(0.000863186059498 0.000354571252314 0)
(0.000946815226196 0.000361722942934 0)
(0.000957299860357 0.000351217934637 0)
(0.0010398355889 0.000365690265159 0)
(0.00105415855395 0.000358901965706 0)
(0.00114254179495 0.00038332136307 0)
(0.00120615228139 0.000414560269188 -8.86673013302e-29)
(0.00126629731605 0.00043607280137 8.84786595014e-29)
(0.00131984325955 0.000436030704568 0)
(0.0013710400171 0.000425994552228 0)
(0.00142152354829 0.000413138000228 0)
(0.00147089713822 0.000398943578446 0)
(0.00151936418186 0.000382648580695 0)
(0.0015665439951 0.000363171927433 0)
(0.00161171350468 0.000340316165284 0)
(0.00165434386074 0.000315052260245 0)
(0.00169394135599 0.00028871499744 0)
(0.0017299614455 0.000262086990603 0)
(0.00176198967246 0.00023517932388 0)
(0.00178968684274 0.000207480982196 0)
(0.00181261287413 0.000178262533712 0)
(0.00183017179972 0.000146850540199 0)
(0.00184175846204 0.000112835054001 0)
(0.00184686832599 7.60895526483e-05 0)
(0.00184504211541 3.66539999518e-05 0)
(0.0018358183246 -5.31021998829e-06 0)
(0.00181871757898 -4.97823302336e-05 0)
(0.00179275985146 -9.77054170997e-05 0)
(0.00175563584525 -0.000152128320936 0)
(0.00170367012862 -0.000217962313031 0)
(0.00163389289414 -0.000298765891711 0)
(0.00155151468827 -0.000390205212331 0)
(0.00147081841793 -0.000490003954842 0)
(0.00139523034376 -0.000604012777747 0)
(0.00131158848627 -0.000729823581581 0)
(0.0012170729307 -0.000847612891581 0)
(0.00113419263874 -0.000952286504047 0)
(0.00107066089895 -0.00105916652827 0)
(0.00105048417304 -0.00118081533695 0)
(0.000934622279525 -0.00116369984296 0)
(0.000569380369703 -0.000863272772883 0)
(0.000400623073067 -0.000793958286781 0)
(0.000309704324003 -0.000729249908939 0)
(0.000251666021898 -0.000662268879903 0)
(0.000224577588831 -0.000600601430155 0)
(0.000201262221881 -0.000581461916701 0)
(0.000158051109049 -0.000578770234961 0)
(0.000105866065291 -0.000559706013754 0)
(5.97488040973e-05 -0.000511530451585 0)
(1.93749438445e-05 -0.000447406972907 0)
(-1.62419865896e-05 -0.000390405654226 0)
(-4.03736901019e-05 -0.00033893804072 0)
(-4.16559664097e-05 -0.000307755561446 0)
(-1.75270882283e-05 -0.000293939393171 0)
(1.53745593859e-05 0.000268278008721 0)
(4.99472729092e-05 0.000314304430296 0)
(5.09838412028e-05 0.000290384726411 0)
(4.24414265154e-05 0.000218239373661 0)
(9.03790102057e-05 0.000301216031229 0)