/*--------------------------------*- C++ -*----------------------------------*\
| =========                 |                                                 |
| \\      /  F ield         | OpenFOAM: The Open Source CFD Toolbox           |
|  \\    /   O peration     | Version:  v1806                                 |
|   \\  /    A nd           | Web:      www.OpenFOAM.com                      |
|    \\/     M anipulation  |                                                 |
\*---------------------------------------------------------------------------*/
FoamFile
{
    version     2.0;
    format      ascii;
    class       surfaceScalarField;
    location    "14";
    object      phi;
}
// * * * * * * * * * * * * * * * * * * * * * * * * * * * * * * * * * * * * * //

dimensions      [0 3 -1 0 0 0 0];
oriented        oriented;


internalField   nonuniform List<scalar> 
12640
(
3.26108798461e-07
-3.21140864548e-07
6.38084284553e-07
-3.00910680452e-07
9.25573407586e-07
-2.76432488591e-07
1.17756402002e-06
-2.38340955332e-07
1.23749041001e-06
-4.86743435878e-08
1.00208073335e-06
2.43436614048e-07
6.93500470589e-07
3.16722523195e-07
6.62561805296e-07
4.01786000524e-08
9.39156608259e-07
-2.64851703557e-07
1.11220516879e-06
-1.58322648983e-07
1.11843757226e-06
7.54580077673e-09
1.35959075647e-06
-2.2607864625e-07
1.76401620255e-06
-3.84843416425e-07
2.05139058414e-06
-2.68989466472e-07
2.24028535523e-06
-1.71260943975e-07
3.06171822459e-06
-8.0445131826e-07
4.85748226105e-06
-1.77495894278e-06
7.51288401904e-06
-2.62983206041e-06
1.02966882803e-05
-2.75721348971e-06
1.25881607493e-05
-2.26785052989e-06
1.4665657522e-05
-2.058136404e-06
1.67137562016e-05
-2.03085879708e-06
1.87842625002e-05
-2.05602131914e-06
2.08943132926e-05
-2.0964338174e-06
2.30449604055e-05
-2.13885424701e-06
2.52360435359e-05
-2.17955545082e-06
2.74619380291e-05
-2.21574061292e-06
2.97192771905e-05
-2.24719174124e-06
3.20005890174e-05
-2.27229149136e-06
3.43009087774e-05
-2.29118616837e-06
3.66113520812e-05
-2.30227385475e-06
3.89252830392e-05
-2.3055897104e-06
4.12321120877e-05
-2.29933057577e-06
4.35231019969e-05
-2.28329320943e-06
4.57854293508e-05
-2.25537930119e-06
4.80076269758e-05
-2.21504745072e-06
5.01738893115e-05
-2.15979105972e-06
5.22691272543e-05
-2.08857943354e-06
5.42734595223e-05
-1.9983030575e-06
5.61668154795e-05
-1.88716988277e-06
5.79235062944e-05
-1.75110048644e-06
5.95162334567e-05
-1.58702407671e-06
6.09105628455e-05
-1.38920046284e-06
6.20681406951e-05
-1.15238129302e-06
6.29410506681e-05
-8.68322034715e-07
6.34756892796e-05
-5.29919335945e-07
6.36128777464e-05
-1.33062416559e-07
6.32972308028e-05
3.19885537665e-07
6.24273944618e-05
8.71941072324e-07
6.07632049904e-05
1.6648263749e-06
5.76953929934e-05
3.06578265129e-06
5.13457211258e-05
6.34388078389e-06
4.15084190479e-05
9.8316771526e-06
3.1249580291e-05
1.0254780364e-05
2.30640717012e-05
8.18418289501e-06
1.73689572947e-05
5.69502680506e-06
1.35031174257e-05
3.86843725124e-06
1.05619349566e-05
2.943830004e-06
7.78898784591e-06
2.77540086111e-06
5.05339285986e-06
2.73809806716e-06
2.9277644675e-06
2.12748651692e-06
2.32156237588e-06
6.084320266e-07
6.69779353198e-06
-4.37348420461e-06
1.54681206176e-05
-8.7751778174e-06
2.71195237372e-05
-1.16553258683e-05
3.66676364474e-05
-9.5531351591e-06
3.89824822193e-05
-2.3223164798e-06
3.55396604468e-05
3.43484769713e-06
3.45147204041e-05
1.0132824067e-06
3.44658244525e-05
2.01855651333e-08
2.89823296564e-05
5.44313358658e-06
2.39702945285e-05
4.98226903584e-06
2.00073036397e-05
3.93536274506e-06
1.6088239494e-05
3.89132542121e-06
1.34461154493e-05
2.61797106123e-06
1.12040268727e-05
2.22018673229e-06
9.51926318549e-06
1.66701671628e-06
6.71434140808e-06
2.78057011343e-06
3.67246961712e-06
2.99022792335e-06
3.65274450387e-06
1.47699277504e-07
-4.58674787535e-07
3.57362249435e-07
-5.02306777335e-07
5.3392217244e-07
-4.42865199246e-07
6.80647615743e-07
-3.7720518508e-07
9.66895476911e-07
-3.26993834018e-07
1.2310642434e-06
-1.16400297515e-08
1.41754321619e-06
1.40492384891e-07
1.6242704163e-06
-1.52640406823e-07
1.92209583393e-06
-5.42277680754e-07
2.31356761427e-06
-5.26101608357e-07
2.89066585668e-06
-5.44662891031e-07
4.11890521616e-06
-1.42468213594e-06
5.95745358609e-06
-2.19314558268e-06
8.14746851258e-06
-2.42794049868e-06
1.06612814584e-05
-2.65696970902e-06
1.29726928449e-05
-3.08792211947e-06
1.48683767929e-05
-3.64926215135e-06
1.64547236239e-05
-4.1963139294e-06
1.81975596417e-05
-4.48369194955e-06
2.04739676196e-05
-4.52752519266e-06
2.29988879812e-05
-4.56967381751e-06
2.56324608983e-05
-4.65055673646e-06
2.8337910803e-05
-4.75063874535e-06
3.11061123206e-05
-4.85288832182e-06
3.39270700778e-05
-4.95071801533e-06
3.67968519502e-05
-5.03902121566e-06
3.97063154163e-05
-5.11729809068e-06
4.26514843341e-05
-5.18306715362e-06
4.56230264863e-05
-5.23680462977e-06
4.86166030691e-05
-5.27625843234e-06
5.16224439653e-05
-5.30177710444e-06
5.4635539972e-05
-5.31082685883e-06
5.76453331223e-05
-5.30335862806e-06
6.06457421658e-05
-5.27639669443e-06
6.36249914732e-05
-5.22936005995e-06
6.6575452286e-05
-5.1587023536e-06
6.9483624635e-05
-5.06315250458e-06
7.23397684106e-05
-4.93840020761e-06
7.51280454505e-05
-4.78222139235e-06
7.78358933724e-05
-4.58919425764e-06
8.04443265886e-05
-4.35564939156e-06
8.29369522641e-05
-4.07437620952e-06
8.52903770054e-05
-3.7392598887e-06
8.74824835791e-05
-3.33983894071e-06
8.9482107437e-05
-2.86516470768e-06
9.12532637351e-05
-2.29710908393e-06
9.27316138604e-05
-1.60925557446e-06
9.38102700627e-05
-7.5555641484e-07
9.43656880996e-05
3.17757827448e-07
9.43222679973e-05
1.70983463065e-06
9.37700084815e-05
3.61783268584e-06
9.39254298016e-05
6.18959018549e-06
9.52479124127e-05
8.50975207869e-06
9.62047521819e-05
9.29960794704e-06
9.56433913441e-05
8.74656558387e-06
9.34606887952e-05
7.88011995807e-06
8.990098856e-05
7.42932020405e-06
8.52185686512e-05
7.6285691471e-06
7.96601715203e-05
8.33522110575e-06
7.33308421848e-05
9.06906442565e-06
6.62282268135e-05
9.23057030022e-06
5.87107628498e-05
8.12586814898e-06
4.90266895406e-05
5.30525165012e-06
4.13555840057e-05
-1.10908792808e-06
3.8324574343e-05
-8.63363611194e-06
3.50694642292e-05
-6.30451991981e-06
4.05424215177e-05
-7.80022478497e-06
5.2632325604e-05
-8.66277842628e-06
5.25894322397e-05
1.03852920638e-06
4.27123915771e-05
9.87417229692e-06
3.13672682309e-05
1.67589598369e-05
2.06989023926e-05
1.56257727882e-05
1.57868783962e-05
8.81957946795e-06
1.68057059763e-05
2.84153288644e-06
1.81355227609e-05
1.25918062621e-06
1.77083252441e-05
2.62036622788e-06
1.54871816386e-05
3.85432661885e-06
1.12800757209e-05
6.95908366765e-06
4.34885851159e-06
9.89371894858e-06
7.94296742705e-06
2.36497978049e-07
-6.95920101512e-07
3.34454698124e-07
-5.893725825e-07
6.82725546337e-07
-7.80773253464e-07
1.19540285306e-06
-8.79757159701e-07
1.52696105429e-06
-6.49949581672e-07
1.26695149321e-06
2.55465736465e-07
1.145248361e-06
2.73733812024e-07
1.51122575649e-06
-5.00245794074e-07
2.07607048462e-06
-1.08403618468e-06
2.73455022044e-06
-1.15874669572e-06
4.14979028796e-06
-1.92909750353e-06
6.0865781956e-06
-3.32754259503e-06
7.89242045166e-06
-3.97034103288e-06
9.94997650629e-06
-4.46105996828e-06
1.21889996581e-05
-4.87447969872e-06
1.44432779737e-05
-5.32466122366e-06
1.66154816807e-05
-5.8062644923e-06
1.86979988342e-05
-6.26569079888e-06
2.08410006482e-05
-6.61383393607e-06
2.31731922198e-05
-6.84769862658e-06
2.56533806977e-05
-7.03771053479e-06
2.82313562039e-05
-7.21741272718e-06
3.08829169789e-05
-7.39111859697e-06
3.35962471839e-05
-7.55624124284e-06
3.63647831238e-05
-7.70925997706e-06
3.9182842365e-05
-7.84811509846e-06
4.20454971359e-05
-7.97087462704e-06
4.49470977554e-05
-8.07653836433e-06
4.78822239606e-05
-8.16361326255e-06
5.08445245178e-05
-8.23112832656e-06
5.38277787128e-05
-8.27735977031e-06
5.68247330802e-05
-8.30095015055e-06
5.98281612104e-05
-8.29967978954e-06
6.28296742493e-05
-8.27160918159e-06
6.58207676936e-05
-8.2138574649e-06
6.87916111024e-05
-8.1237347708e-06
7.17320798379e-05
-7.9975117812e-06
7.46305295424e-05
-7.83151793236e-06
7.74748093429e-05
-7.62088401336e-06
8.02510221766e-05
-7.36057033265e-06
8.29445076085e-05
-7.04404390012e-06
8.55385915036e-05
-6.6641582314e-06
8.80155032986e-05
-6.2116643679e-06
9.03550961812e-05
-5.67572017751e-06
9.25356408744e-05
-5.04186143257e-06
9.45329379503e-05
-4.29132468855e-06
9.63240091704e-05
-3.39708345645e-06
9.78917333525e-05
-2.32086930372e-06
9.92191733113e-05
-1.00725415779e-06
0.000100339226673
5.91694785001e-07
0.000101476980656
2.48286309122e-06
0.000103082950137
4.58669859337e-06
0.000105074146246
6.52230417519e-06
0.000106562314826
7.81453672571e-06
0.000106808192732
8.50329192984e-06
0.000105655312681
9.03422754632e-06
0.000103269596496
9.81581595449e-06
9.98785735233e-05
1.10192965155e-05
9.56458763141e-05
1.25670440963e-05
9.05607900703e-05
1.41523004922e-05
8.45853942934e-05
1.52029826383e-05
7.80802838009e-05
1.46247188422e-05
7.32066202738e-05
1.01706987001e-05
6.81338108457e-05
3.95334844163e-06
5.8851868249e-05
6.38440497608e-07
5.43544745976e-05
-1.81491581854e-06
4.88233232931e-05
-2.27444822398e-06
4.12253587788e-05
-1.06967600651e-06
3.97309402953e-05
2.52719122503e-06
4.10948027871e-05
8.49615452437e-06
4.38330170155e-05
1.39993342241e-05
4.71377181037e-05
1.22865176527e-05
4.83477756656e-05
7.56482330867e-06
4.20404180873e-05
9.10085390077e-06
3.16792606239e-05
1.15829969773e-05
2.50626340819e-05
9.20413823892e-06
2.29002622201e-05
5.99743733091e-06
2.37305030877e-05
6.09775113541e-06
1.51787231433e-05
1.83088463498e-05
2.3118323196e-05
1.81247741707e-07
-8.63214242288e-07
1.77137792784e-07
-5.80280439462e-07
7.8326723855e-07
-1.37491261142e-06
1.13559736752e-06
-1.22257268064e-06
5.85459395691e-07
-9.42130112219e-08
3.60425641234e-08
8.08405142502e-07
2.681559252e-07
4.77305580659e-08
9.2684318874e-07
-1.14183178795e-06
1.59795154183e-06
-1.73143251219e-06
2.68242131177e-06
-2.21855980423e-06
4.9433622639e-06
-4.15877126633e-06
7.12470155423e-06
-5.47969759263e-06
9.11168694843e-06
-5.93404472063e-06
1.11315801275e-05
-6.46082412493e-06
1.32382897456e-05
-6.96376307723e-06
1.53853866072e-05
-7.45652240245e-06
1.7532993739e-05
-7.94117738197e-06
1.96771537918e-05
-8.39833595354e-06
2.18708579646e-05
-8.79663195593e-06
2.4165530979e-05
-9.13123404883e-06
2.65625946715e-05
-9.42392508489e-06
2.90474943219e-05
-9.69141192553e-06
3.16072513332e-05
-9.94055009726e-06
3.42335180357e-05
-1.01723046928e-05
3.69198241048e-05
-1.03860263315e-05
3.96612964542e-05
-1.05801793422e-05
4.24527397736e-05
-1.07535555943e-05
4.52894092922e-05
-1.09045379165e-05
4.81656839459e-05
-1.10318230183e-05
5.10761262663e-05
-1.1133556158e-05
5.40142701245e-05
-1.12080549941e-05
5.69737187238e-05
-1.12529664515e-05
5.99469453677e-05
-1.12660077174e-05
6.29263802776e-05
-1.12441377699e-05
6.5903212573e-05
-1.11842935224e-05
6.88684564714e-05
-1.10825631126e-05
7.18117601469e-05
-1.09348977684e-05
7.47224504584e-05
-1.07362737906e-05
7.75883616378e-05
-1.04813562747e-05
8.03968611405e-05
-1.0163628243e-05
8.31337244087e-05
-9.77596395274e-06
8.57841662183e-05
-9.30967936827e-06
8.83318466005e-05
-8.75492548758e-06
9.07600417455e-05
-8.09955050639e-06
9.30511658756e-05
-7.32911772231e-06
9.51890230169e-05
-6.42536337096e-06
9.71610742273e-05
-5.36573906468e-06
9.89657487484e-05
-4.12214786202e-06
0.00010062445943
-2.66305464764e-06
0.000102180641762
-9.61356175948e-07
0.000103718634524
9.48259809186e-07
0.000105375769332
2.93368716607e-06
0.000107068024488
4.83399492722e-06
0.000108366266541
6.51974724151e-06
0.000108855471275
8.0160657293e-06
0.000108367734149
9.5226192118e-06
0.000106928037807
1.12544719391e-05
0.000104619922013
1.3325288833e-05
0.000101475723868
1.57078399489e-05
9.73947349016e-05
1.82286685227e-05
9.20540100946e-05
2.0536739629e-05
8.4515943244e-05
2.21544884004e-05
7.17720592209e-05
2.29051138071e-05
5.74877094216e-05
1.82274609195e-05
4.65383836157e-05
1.15777394508e-05
3.82130076785e-05
6.50185449556e-06
3.30265508102e-05
2.90447281508e-06
2.91180511012e-05
2.83277817391e-06
2.68300675089e-05
4.80853606358e-06
2.74055238738e-05
7.91551175742e-06
3.03429286757e-05
1.10484742149e-05
3.01282460654e-05
1.24797443204e-05
2.50272816704e-05
1.26382988155e-05
2.0222380551e-05
1.38799755857e-05
1.77417068968e-05
1.40370644802e-05
1.4543634804e-05
1.23751876452e-05
1.12942711181e-05
9.21539170558e-06
8.96179345673e-06
8.39969128168e-06
1.02424935149e-05
1.70295019277e-05
3.33070147984e-05
9.01514169211e-09
-8.73489426374e-07
1.77834866502e-07
-7.4116878221e-07
7.5230150708e-07
-1.94407902439e-06
7.22681485442e-07
-1.19040601686e-06
-3.18831723098e-08
6.6399551035e-07
1.76278772529e-07
6.0467187868e-07
8.17906373329e-07
-5.81189826045e-07
1.47694195651e-06
-1.77716513881e-06
2.0616069164e-06
-2.29040247163e-06
4.25620233572e-06
-4.38198934973e-06
6.49751243421e-06
-6.36927281104e-06
8.16258423453e-06
-7.12137668049e-06
1.00024582458e-05
-7.75436262852e-06
1.19199553636e-05
-8.36103274209e-06
1.39077811877e-05
-8.93590739991e-06
1.59494855521e-05
-9.48436718659e-06
1.80302869738e-05
-1.00095346351e-05
2.01490982293e-05
-1.05057893443e-05
2.23256672976e-05
-1.09621948504e-05
2.45810517376e-05
-1.13758751237e-05
2.6921261992e-05
-1.1753387972e-05
2.93425037004e-05
-1.21021903237e-05
3.18387635033e-05
-1.24264820738e-05
3.44041422341e-05
-1.27277795167e-05
3.70336635967e-05
-1.30058590707e-05
3.97225527635e-05
-1.32598427586e-05
4.24663441266e-05
-1.34883388703e-05
4.52602099485e-05
-1.36898449882e-05
4.80992562592e-05
-1.38625036782e-05
5.09779872977e-05
-1.40043423834e-05
5.38906801684e-05
-1.41129675755e-05
5.68308896765e-05
-1.41857872675e-05
5.97918356225e-05
-1.42197048878e-05
6.27659177253e-05
-1.42113378593e-05
6.57450967869e-05
-1.41567132605e-05
6.87204164603e-05
-1.40514732214e-05
7.16823769157e-05
-1.3890564635e-05
7.46204719841e-05
-1.36684174427e-05
7.75235644145e-05
-1.33786160101e-05
8.0379459706e-05
-1.30140303824e-05
8.31753101714e-05
-1.25664491641e-05
8.58972898484e-05
-1.20266324329e-05
8.85311264064e-05
-1.13838782762e-05
9.10620852098e-05
-1.06259642161e-05
9.34760043121e-05
-9.7386492742e-06
9.57603323192e-05
-8.70560792554e-06
9.79069102916e-05
-7.50829084381e-06
9.9915591831e-05
-6.1270706533e-06
0.000101800439016
-4.5441367395e-06
0.000103594195535
-2.75141461156e-06
0.000105311063083
-7.647325496e-07
0.00010693219112
1.31630320475e-06
0.00010839955145
3.37012442638e-06
0.000109524203181
5.397675846e-06
0.000110070813956
7.47087538008e-06
0.000109898969011
9.69437710825e-06
0.00010896601437
1.21859947719e-05
0.000107266653506
1.50218256219e-05
0.000104765170653
1.82051944277e-05
0.000101328628934
2.16595374567e-05
9.66203780913e-05
2.5238280935e-05
8.99591442886e-05
2.88069233056e-05
8.04492192688e-05
3.24027457772e-05
6.75473035153e-05
3.11160118337e-05
5.62787443146e-05
2.28347251286e-05
4.58959251909e-05
1.68724713099e-05
3.73120844127e-05
1.14789483611e-05
3.13993459639e-05
8.73887046809e-06
2.79910247595e-05
8.21328662128e-06
2.63385821224e-05
9.560272061e-06
2.48208526344e-05
1.25602699179e-05
2.2667799409e-05
1.46203614273e-05
1.95552837226e-05
1.57369298303e-05
1.68123252467e-05
1.66029930825e-05
1.42297114473e-05
1.65913282172e-05
1.14158447293e-05
1.51594732314e-05
9.89306369558e-06
1.07287427767e-05
8.48742127195e-06
9.79926233308e-06
6.93466979123e-06
1.84986751535e-05
4.02508671112e-05
8.63507199293e-09
-8.74633819495e-07
2.86148306081e-07
-1.01709303061e-06
4.66209689326e-07
-2.11862441699e-06
2.47359642851e-07
-9.68825780988e-07
-1.35954921682e-07
1.05009164222e-06
4.425281524e-07
3.33620858321e-08
1.25305328298e-06
-1.37279345481e-06
1.61702577427e-06
-2.11818989992e-06
3.10347643723e-06
-3.74839352015e-06
5.5541030096e-06
-6.79907040173e-06
7.1221249328e-06
-7.91285511344e-06
8.78027382778e-06
-8.76002889086e-06
1.05404317854e-05
-9.49745342343e-06
1.23748530351e-05
-1.01797535432e-05
1.42758869387e-05
-1.08223470507e-05
1.62384011544e-05
-1.14333548567e-05
1.82580882078e-05
-1.20168225155e-05
2.03356719465e-05
-1.25718033011e-05
2.24790606816e-05
-1.30945425185e-05
2.46973022093e-05
-1.35833241706e-05
2.69943751216e-05
-1.403989329e-05
2.93695706269e-05
-1.44669968767e-05
3.18197970969e-05
-1.48665956244e-05
3.43412457202e-05
-1.52393629845e-05
3.69299259053e-05
-1.55850070106e-05
3.95818588866e-05
-1.59025194199e-05
4.22929158627e-05
-1.6190481134e-05
4.50588022575e-05
-1.64470851837e-05
4.78748733028e-05
-1.66702538331e-05
5.07361501417e-05
-1.68575460565e-05
5.36371695841e-05
-1.70062151105e-05
5.65720208577e-05
-1.71130917093e-05
5.95342121497e-05
-1.71746267283e-05
6.25167105913e-05
-1.7186772498e-05
6.55118182855e-05
-1.71450148258e-05
6.85112109343e-05
-1.70442527042e-05
7.15058273859e-05
-1.68788131229e-05
7.44859130806e-05
-1.6642323579e-05
7.74409383421e-05
-1.63277000194e-05
8.03596664621e-05
-1.59270046865e-05
8.32301364787e-05
-1.54313973625e-05
8.60398128438e-05
-1.48309750574e-05
8.87757305863e-05
-1.41146911784e-05
9.14248879737e-05
-1.32702090878e-05
9.39748061871e-05
-1.22838827804e-05
9.64145549081e-05
-1.11408439889e-05
9.87361401085e-05
-9.82553950644e-06
0.000100936310619
-8.32299511324e-06
0.000103017815882
-6.62156566364e-06
0.000104987910205
-4.71753150808e-06
0.000106848720973
-2.62171218511e-06
0.000108540956592
-3.72280242061e-07
0.000109975001723
1.93904974085e-06
0.000111077170751
4.29743817892e-06
0.000111719248338
6.82957082835e-06
0.000111788902947
9.62429732189e-06
0.000111218873835
1.27543680821e-05
0.000109961867852
1.62759079088e-05
0.000107949951509
2.02130159642e-05
0.000105048625443
2.45556533714e-05
0.000100987121403
2.92930887337e-05
9.52818912655e-05
3.45033264409e-05
8.71718592991e-05
4.05019832062e-05
7.29041688645e-05
4.53718015804e-05
5.73488374519e-05
3.83778470722e-05
4.61722124629e-05
2.80388581912e-05
3.6160197944e-05
2.14812434327e-05
2.97729761066e-05
1.51182304069e-05
2.63650316795e-05
1.1613842903e-05
2.47518752549e-05
1.11734841982e-05
2.18075372288e-05
1.55013632075e-05
1.99352681647e-05
1.64885770057e-05
1.76069976718e-05
1.80544415737e-05
1.51789147604e-05
1.90138044154e-05
1.24729802956e-05
1.92766696255e-05
1.0809377516e-05
1.6808406578e-05
8.8659341148e-06
1.26508237442e-05
7.84095041868e-06
1.07854629881e-05
7.67748473462e-06
1.86864092771e-05
4.78760784555e-05
1.08824366516e-07
-9.81153182437e-07
6.09371512519e-07
-1.51178952048e-06
7.66443323568e-07
-2.27612050821e-06
-1.11305116103e-08
-1.8828899797e-07
1.6792949843e-07
8.74670953252e-07
9.8663932438e-07
-7.73824700997e-07
1.29302251268e-06
-1.65812827398e-06
1.74327723065e-06
-2.54252011615e-06
4.19337611535e-06
-6.16766667486e-06
5.89899658495e-06
-8.47817805289e-06
7.4956698032e-06
-9.48935456226e-06
9.13030718977e-06
-1.03776743832e-05
1.08301166474e-05
-1.118176151e-05
1.25957030058e-05
-1.19307268038e-05
1.44275910959e-05
-1.26403657414e-05
1.63262244487e-05
-1.33189284169e-05
1.82917442504e-05
-1.39700579901e-05
2.03255445677e-05
-1.45939998187e-05
2.24312774948e-05
-1.51891509169e-05
2.4612932047e-05
-1.57542219116e-05
2.68726374598e-05
-1.62891076534e-05
2.92101948193e-05
-1.67943386e-05
3.16238444771e-05
-1.72702774094e-05
3.41109259145e-05
-1.77167664002e-05
3.66683808842e-05
-1.81330478728e-05
3.92928447967e-05
-1.8517869083e-05
4.19807483704e-05
-1.88695343311e-05
4.47282057461e-05
-1.91859840422e-05
4.75310392312e-05
-1.94647795369e-05
5.03846504373e-05
-1.97031234906e-05
5.32840456675e-05
-1.98978091931e-05
5.62237184695e-05
-2.00452165107e-05
5.91976782991e-05
-2.01412532047e-05
6.21993446009e-05
-2.01813388307e-05
6.52215751906e-05
-2.01603456074e-05
6.82565739182e-05
-2.00725696186e-05
7.12959214645e-05
-1.99116705707e-05
7.43305061013e-05
-1.96706260558e-05
7.7350568945e-05
-1.93416681597e-05
8.03456784958e-05
-1.89162183024e-05
8.33048176097e-05
-1.83848236875e-05
8.62164475457e-05
-1.77370821355e-05
8.9068702532e-05
-1.69616050829e-05
9.18496367529e-05
-1.60459897914e-05
9.45476443772e-05
-1.49769209681e-05
9.71519994145e-05
-1.3740403285e-05
9.96534853123e-05
-1.23223679481e-05
0.000102044754501
-1.07097497761e-05
0.000104319888325
-8.89229946493e-06
0.000106471688834
-6.86507378135e-06
0.00010848493301
-4.6309074599e-06
0.000110316028559
-2.19992574236e-06
0.00011186708185
3.90504165648e-07
0.000113072080782
3.09400470144e-06
0.000113891205511
6.01100000236e-06
0.000114234658406
9.28042448689e-06
0.000114029160871
1.29584517835e-05
0.000113211612689
1.70912144571e-05
0.000111707766373
2.17136422131e-05
0.000109411086952
2.68484572326e-05
0.000106161613688
3.25380232347e-05
0.000101746276885
3.89138278782e-05
9.59430689064e-05
4.62979884302e-05
8.64633503532e-05
5.48416247312e-05
6.89524668369e-05
5.58793193322e-05
5.36591653922e-05
4.33203330013e-05
4.31746415135e-05
3.1955211343e-05
3.35579232413e-05
2.47254187793e-05
2.69431167032e-05
1.82247568249e-05
2.34460791031e-05
1.46665425628e-05
2.14124531758e-05
1.7535774775e-05
1.93978380124e-05
1.85005569207e-05
1.71844970738e-05
2.02606046134e-05
1.46220895104e-05
2.15631691238e-05
1.16902051473e-05
2.21921082145e-05
1.05876874429e-05
1.7889694548e-05
8.2569247407e-06
1.4969382704e-05
6.9255670329e-06
1.2122835761e-05
8.45743464431e-06
1.70608854717e-05
5.63555968853e-05
1.83539634285e-07
-1.15941970312e-06
8.29650672107e-07
-2.15356869412e-06
7.56497937208e-07
-2.1966871305e-06
-2.87262953021e-07
8.57302353837e-07
3.65781870022e-07
2.2709285144e-07
9.33035328088e-07
-1.32559089834e-06
8.53859332534e-07
-1.56245192003e-06
2.27978037122e-06
-3.94364546056e-06
4.71858118541e-06
-8.57360146659e-06
6.19247723513e-06
-9.92960520772e-06
7.7220173141e-06
-1.10013768533e-05
9.30217150715e-06
-1.19424107751e-05
1.09406940797e-05
-1.28058241994e-05
1.26433287501e-05
-1.36195384622e-05
1.44143970319e-05
-1.43981891782e-05
1.62567875317e-05
-1.51486762827e-05
1.81722774964e-05
-1.58735224947e-05
2.01624454187e-05
-1.65727094514e-05
2.2229259989e-05
-1.72449758611e-05
2.43745962407e-05
-1.78889463665e-05
2.65994479339e-05
-1.85036617285e-05
2.89036162344e-05
-1.90884929923e-05
3.12858944312e-05
-1.96428104753e-05
3.37443544448e-05
-2.01657464009e-05
3.62765946972e-05
-2.06560700361e-05
3.88798513151e-05
-2.11121678424e-05
4.15510538202e-05
-2.15320339241e-05
4.42868049464e-05
-2.19132831106e-05
4.70833674264e-05
-2.22531316158e-05
4.99366106761e-05
-2.25483932723e-05
5.28419903587e-05
-2.27954398407e-05
5.57944902153e-05
-2.29901887668e-05
5.87886090234e-05
-2.31280507751e-05
6.18183014801e-05
-2.32039171619e-05
6.48769765489e-05
-2.32120967409e-05
6.79574391898e-05
-2.31463048746e-05
7.10519060522e-05
-2.29995882419e-05
7.41519548385e-05
-2.27643160455e-05
7.72485690139e-05
-2.24320921799e-05
8.03321089363e-05
-2.19937524787e-05
8.33924049454e-05
-2.14392717627e-05
8.64187767221e-05
-2.07577842479e-05
8.94002077415e-05
-1.9937517369e-05
9.23254495524e-05
-1.89658916035e-05
9.5183294921e-05
-1.78295779227e-05
9.79627318603e-05
-1.65148277525e-05
0.000100653112279
-1.50078756974e-05
0.000103243837776
-1.32957637981e-05
0.000105723404585
-1.1367299081e-05
0.000108076942379
-9.21423052662e-06
0.000110281850708
-6.83176535126e-06
0.000112303278537
-4.21786871661e-06
0.000114064302887
-1.3676773138e-06
0.000115478843162
1.68122648892e-06
0.00011654338843
4.94706246341e-06
0.000117210198228
8.61330388587e-06
0.000117408004573
1.27597586713e-05
0.000117070683032
1.74269746963e-05
0.000116130629661
2.26517537512e-05
0.000114512872711
2.84638015878e-05
0.000112147501886
3.49011746012e-05
0.000109014858668
4.20439507304e-05
0.000105269073432
5.00413139701e-05
0.000101137646313
5.89698109526e-05
9.01721480128e-05
6.68350837021e-05
6.86578568715e-05
6.48243486937e-05
4.83588274682e-05
5.22425143523e-05
3.71156335652e-05
3.5958910457e-05
2.59776805662e-05
2.93530727241e-05
2.20159230506e-05
1.86266280989e-05
2.08095181019e-05
1.87416307525e-05
1.93145511111e-05
1.9993903824e-05
1.71377989955e-05
2.24323989115e-05
1.44426241915e-05
2.42491797433e-05
1.27603928506e-05
2.38619829296e-05
1.06050277141e-05
2.00323187005e-05
8.06259137231e-06
1.7493776525e-05
5.41781277704e-06
1.4721323805e-05
5.5792822904e-06
1.69401830485e-05
6.18746081854e-05
2.01418487889e-07
-1.35265025575e-06
8.24399628854e-07
-2.77217074193e-06
3.17355648066e-07
-1.68839293332e-06
-5.62084914078e-08
1.23350173505e-06
8.38551945811e-07
-6.61862116718e-07
3.92126322046e-07
-8.70857618293e-07
6.61111957723e-07
-1.8106516631e-06
2.96998041565e-06
-6.22581122733e-06
4.77110894985e-06
-1.03492887367e-05
6.30483637736e-06
-1.14445380003e-05
7.80489860034e-06
-1.2485715267e-05
9.33198618704e-06
-1.34551030819e-05
1.09106465578e-05
-1.43707844591e-05
1.25534924289e-05
-1.52492110896e-05
1.42676643475e-05
-1.60997014165e-05
1.60572781825e-05
-1.69261511094e-05
1.79247041617e-05
-1.7729328439e-05
1.98714996118e-05
-1.85083624926e-05
2.1898925973e-05
-1.926168416e-05
2.40079580636e-05
-1.9987621262e-05
2.61990342479e-05
-2.06846997287e-05
2.84719155761e-05
-2.13516188723e-05
3.08257037781e-05
-2.19871112453e-05
3.32589586699e-05
-2.25897645558e-05
3.57698009936e-05
-2.31579233163e-05
3.83559913664e-05
-2.36896045444e-05
4.10149516506e-05
-2.41824758856e-05
4.37437740632e-05
-2.46338093456e-05
4.65391918394e-05
-2.50404763776e-05
4.9397564274e-05
-2.5398900078e-05
5.23148307127e-05
-2.57050507487e-05
5.52864955998e-05
-2.59543896121e-05
5.83075774114e-05
-2.61418658266e-05
6.13726023673e-05
-2.62618513988e-05
6.44755515412e-05
-2.63081417007e-05
6.76098684139e-05
-2.62738806597e-05
7.07684079124e-05
-2.61515660189e-05
7.39434650077e-05
-2.59329644857e-05
7.71267324857e-05
-2.5609125015e-05
8.03093604342e-05
-2.51702881908e-05
8.34819315656e-05
-2.46059180813e-05
8.66345624004e-05
-2.39046220114e-05
8.97569041642e-05
-2.30542297706e-05
9.28382822664e-05
-2.20417675541e-05
9.58676896092e-05
-2.08536498892e-05
9.88338683315e-05
-1.94757956448e-05
0.00010172507198
-1.78940346914e-05
0.000104528662558
-1.60944439013e-05
0.000107230015513
-1.4063914097e-05
0.000109810744157
-1.17903971791e-05
0.000112246010065
-9.26273976866e-06
0.000114501427349
-6.4693612219e-06
0.00011653068279
-3.39390221634e-06
0.000118247153103
-3.33942268845e-08
0.0001196161541
3.57888923849e-06
0.000120654590156
7.57496564415e-06
0.000121298446328
1.21153287862e-05
0.000121483536992
1.72410269204e-05
0.000121147865562
2.29861886438e-05
0.000120232039098
2.93783527793e-05
0.000118698325734
3.6433935812e-05
0.000116571615636
4.41707315591e-05
0.000114015563293
5.25983039926e-05
0.000111373065886
6.16113622744e-05
0.000107895046764
7.03095941205e-05
9.73712727501e-05
7.53381467196e-05
7.19028742259e-05
7.76981268161e-05
4.43864313087e-05
6.34619087438e-05
2.88525884975e-05
4.48787949704e-05
2.33299914249e-05
2.41428240314e-05
2.13015249724e-05
2.07676018625e-05
1.95602377755e-05
2.17332994534e-05
1.72761315695e-05
2.4712024876e-05
1.41084307641e-05
2.74115955178e-05
1.30107860132e-05
2.49473000733e-05
1.02427232166e-05
2.27827985492e-05
7.1628822211e-06
2.05564910219e-05
2.65191762355e-06
1.92407093653e-05
-3.01991868744e-06
2.25299706127e-05
5.88784922919e-05
2.70774985505e-07
-1.61906449678e-06
7.67040517573e-07
-3.25371617685e-06
1.09144512989e-07
-1.02733815652e-06
4.55412265856e-07
8.87925648285e-07
6.95453181241e-07
-8.98277156186e-07
-1.26616959081e-07
-3.78537664145e-08
6.45702446513e-07
-2.57176217198e-06
3.51281384699e-06
-9.06259282197e-06
4.94633019775e-06
-1.17596914888e-05
6.36373311005e-06
-1.28448955716e-05
7.78897932738e-06
-1.38963619362e-05
9.24940235771e-06
-1.49019273112e-05
1.07649616641e-05
-1.5873306312e-05
1.23482838496e-05
-1.68199813648e-05
1.40068385168e-05
-1.77461716354e-05
1.5744876447e-05
-1.86525762302e-05
1.75648074516e-05
-1.95380931381e-05
1.94680593596e-05
-2.04008743113e-05
2.14555850293e-05
-2.12388455919e-05
2.35279886493e-05
-2.20500040421e-05
2.56855100327e-05
-2.28324965391e-05
2.79279429516e-05
-2.35846054095e-05
3.02546495627e-05
-2.43046177178e-05
3.26645683287e-05
-2.49907257407e-05
3.51562816578e-05
-2.56408987888e-05
3.77280207275e-05
-2.62528292915e-05
4.03777047835e-05
-2.68238488133e-05
4.31029077065e-05
-2.73509116046e-05
4.59008716996e-05
-2.78305287627e-05
4.87684513139e-05
-2.82587668088e-05
5.17021210376e-05
-2.86311824021e-05
5.46979097765e-05
-2.89428276475e-05
5.77514134535e-05
-2.91881793637e-05
6.0857725226e-05
-2.93611501466e-05
6.40114588367e-05
-2.94550098752e-05
6.7206677268e-05
-2.94624031209e-05
7.04369318568e-05
-2.93752618193e-05
7.36951927911e-05
-2.91848311441e-05
7.69739094253e-05
-2.88815750949e-05
8.02649457339e-05
-2.84552170902e-05
8.35596646911e-05
-2.78946461034e-05
8.68488666336e-05
-2.71879866025e-05
9.01228910153e-05
-2.63225241633e-05
9.33715340872e-05
-2.52848334722e-05
9.65841159178e-05
-2.40607585838e-05
9.97492748609e-05
-2.26356373278e-05
0.000102854813791
-2.09943627417e-05
0.000105887093852
-1.91216835538e-05
0.000108830302132
-1.70022199081e-05
0.000111665123212
-1.46205186272e-05
0.000114367357487
-1.1960462514e-05
0.000116906281355
-9.00420589651e-06
0.00011924599198
-5.7301510526e-06
0.000121322947246
-2.1076509075e-06
0.000123065936805
1.83750903383e-06
0.000124513130124
6.12819050305e-06
0.000125638501693
1.09898336737e-05
0.000126379263826
1.64997956688e-05
0.000126673541202
2.2691404877e-05
0.000126460309108
2.95910275363e-05
0.000125690263791
3.7203748145e-05
0.000124343296775
4.5518280026e-05
0.000122443589125
5.44995836284e-05
0.000120016794324
6.40400004672e-05
0.000116556597151
7.37693153257e-05
0.000109310070537
8.25806903769e-05
9.65469181691e-05
9.04511704527e-05
6.63965678819e-05
9.35994038276e-05
3.37673898212e-05
7.7494338698e-05
2.44340229526e-05
3.3469124703e-05
2.16663083572e-05
2.35297256342e-05
1.97380520784e-05
2.36580119444e-05
1.78135507588e-05
2.66352268266e-05
1.47941894916e-05
3.04244536128e-05
1.23709875821e-05
2.73623268663e-05
9.24293956796e-06
2.58975130294e-05
5.54540541099e-06
2.42287098475e-05
9.16769169555e-08
2.46482266395e-05
-8.67347535895e-06
3.13306717708e-05
5.01624970977e-05
3.81489039313e-07
-1.98877404121e-06
6.03554492894e-07
-3.47753184442e-06
2.38615698176e-07
-6.61793273663e-07
1.18269891857e-06
-5.48961565973e-08