/*--------------------------------*- C++ -*----------------------------------*\
| =========                 |                                                 |
| \\      /  F ield         | OpenFOAM: The Open Source CFD Toolbox           |
|  \\    /   O peration     | Version:  v1806                                 |
|   \\  /    A nd           | Web:      www.OpenFOAM.com                      |
|    \\/     M anipulation  |                                                 |
\*---------------------------------------------------------------------------*/
FoamFile
{
    version     2.0;
    format      ascii;
    class       surfaceScalarField;
    location    "83";
    object      phia;
}
// * * * * * * * * * * * * * * * * * * * * * * * * * * * * * * * * * * * * * //

dimensions      [0 3 -1 0 0 0 0];
oriented        oriented;


internalField   nonuniform List<scalar> 
12640
(
4.73024975585e-07
-4.78879592554e-07
9.31565639306e-07
-4.69790694129e-07
1.36591247237e-06
-4.44613021038e-07
1.74390144977e-06
-3.89073782923e-07
2.00811776855e-06
-2.72739630466e-07
2.12715095277e-06
-1.24314906679e-07
2.16454274309e-06
-4.21484088459e-08
2.30939612403e-06
-1.49268274885e-07
2.58336867553e-06
-2.79520822552e-07
2.83566302033e-06
-2.58084334459e-07
3.06605695969e-06
-2.36557846482e-07
3.35344962563e-06
-2.93733272204e-07
3.61511592141e-06
-2.68286068343e-07
3.8078976568e-06
-1.98981960989e-07
3.96177002519e-06
-1.5903494905e-07
4.1665235181e-06
-2.07867510265e-07
4.38723073333e-06
-2.23566586268e-07
4.54621201355e-06
-1.61175363681e-07
4.62003018337e-06
-7.75004156982e-08
4.63482102936e-06
-2.00545262037e-08
4.71101931669e-06
-8.26360109221e-08
4.89390870766e-06
-1.89480412689e-07
5.12850720355e-06
-2.41652849943e-07
5.38735379451e-06
-2.65458218003e-07
5.63354910911e-06
-2.52402242699e-07
5.85194811319e-06
-2.24080915912e-07
6.07475545317e-06
-2.28413111498e-07
6.28425020087e-06
-2.14599444508e-07
6.45773929915e-06
-1.786899536e-07
6.5995494088e-06
-1.46476707994e-07
6.75577720094e-06
-1.61230243398e-07
6.91261210162e-06
-1.61361186492e-07
7.02056146614e-06
-1.11740016285e-07
7.1391916054e-06
-1.22451398625e-07
7.2422408547e-06
-1.07971659925e-07
7.32259592242e-06
-8.45573467265e-08
7.43686145954e-06
-1.19276589541e-07
7.53573871079e-06
-1.0565337427e-07
7.6103801677e-06
-8.2762716063e-08
7.76981544288e-06
-1.68671371285e-07
8.28348753908e-06
-5.23477658951e-07
8.89485720153e-06
-6.19823004031e-07
9.21037619916e-06
-3.22910806862e-07
9.36937790053e-06
-1.66695287016e-07
9.45364089475e-06
-9.17088209656e-08
9.45428267643e-06
-8.30989210522e-09
9.37523771873e-06
7.12145086726e-08
9.20612569424e-06
1.60757108536e-07
8.9977879995e-06
1.99913587082e-07
8.92875385849e-06
6.07531101874e-08
9.19004497345e-06
-2.71120166763e-07
9.49147175212e-06
-3.10210016314e-07
9.13321783228e-06
3.50182645892e-07
8.43869469792e-06
6.8451278335e-07
7.57665849635e-06
8.5316191862e-07
6.35791879084e-06
1.21047372609e-06
5.35446877902e-06
9.92669394446e-07
4.8389628465e-06
5.02302631014e-07
4.40453121965e-06
4.19763423966e-07
4.00044143363e-06
3.87478919891e-07
3.89378780501e-06
8.83477497122e-08
3.813741247e-06
6.29104073195e-08
3.42580326354e-06
3.71061071241e-07
3.11458274524e-06
3.00870597945e-07
2.88299010822e-06
2.25278769413e-07
2.71284363063e-06
1.65944561651e-07
2.54311759264e-06
1.66041770485e-07
2.3629882136e-06
1.76397116889e-07
2.16692615455e-06
1.91965277741e-07
1.94807555419e-06
2.14503456282e-07
1.71849515533e-06
2.25069999522e-07
1.4927013492e-06
2.21419585829e-07
1.27407939484e-06
2.14576718715e-07
1.03944146716e-06
2.30746734206e-07
8.32613818704e-07
2.03290158052e-07
6.47952021958e-07
1.81029824833e-07
5.13842730073e-07
1.30530188761e-07
3.60484929095e-07
1.49838050419e-07
2.17628213491e-07
1.37485578546e-07
2.14015523426e-07
2.32211618601e-07
-7.23571255644e-07
5.31505492728e-07
-7.78429380437e-07
8.33565668395e-07
-7.56958136549e-07
1.17055397773e-06
-7.34140474834e-07
1.66357793383e-06
-7.72168054997e-07
2.0900484395e-06
-5.57098482906e-07
2.34241096031e-06
-2.99207042233e-07
2.55347444748e-06
-3.66881623781e-07
2.76918784494e-06
-5.01834431546e-07
3.02216954729e-06
-5.18624253247e-07
3.27607907196e-06
-4.97388434118e-07
3.46582226519e-06
-4.90669070178e-07
3.63842406818e-06
-4.46395633653e-07
3.82130572189e-06
-3.86526318193e-07
4.0063645166e-06
-3.4677820702e-07
4.22178126063e-06
-4.26477756876e-07
4.37719936935e-06
-3.80684092731e-07
4.33856891563e-06
-1.26546705396e-07
4.27814439355e-06
-2.1531492252e-08
4.32785363295e-06
-7.59505540146e-08
4.49295944678e-06
-2.54788382264e-07
4.81926728467e-06
-5.24195133302e-07
5.16978794956e-06
-5.99194973304e-07
5.39644391633e-06
-4.99498625781e-07
5.61117116046e-06
-4.73195593186e-07
5.89082370216e-06
-5.1022885225e-07
6.12406007349e-06
-4.66905947923e-07
6.30022920736e-06
-3.96616234195e-07
6.45519630662e-06
-3.38366747593e-07
6.59344367808e-06
-2.90134255499e-07
6.6948191899e-06
-2.66898403733e-07
6.77603727453e-06
-2.46370023906e-07
6.81271592307e-06
-1.52158887435e-07
6.86426657673e-06
-1.78285442548e-07
7.0206730638e-06
-2.67462564128e-07
7.08561739119e-06
-1.55344416137e-07
7.14527309865e-06
-1.85435609424e-07
7.35203786892e-06
-3.19680814923e-07
7.63446592421e-06
-3.73318258032e-07
7.83148511998e-06
-3.75364847553e-07
7.33549069258e-06
-3.56022141883e-08
6.56598174087e-06
1.43106241513e-07
6.36823359048e-06
-1.31168954274e-07
6.45910306857e-06
-2.64382593421e-07
6.66087371244e-06
-3.00285925609e-07
6.95702659532e-06
-3.12076498675e-07
7.27994337903e-06
-2.59345039934e-07
7.6220623552e-06
-1.89807625648e-07
7.9138136226e-06
-1.00411042928e-07
7.8832542727e-06
8.24454683225e-08
7.35611392781e-06
2.48369106331e-07
6.81497083774e-06
2.23175618711e-07
7.42825623409e-06
-2.72039513468e-07
8.05970778736e-06
4.19665122653e-08
7.94625566911e-06
9.55966044085e-07
8.05489759052e-06
1.08871682132e-06
8.09504509847e-06
9.36218606599e-07
7.69933634789e-06
8.79556940208e-07
7.20360746736e-06
8.94948883076e-07
6.58019897369e-06
9.88066990433e-07
5.33226839467e-06
1.31569306959e-06
4.23491970138e-06
1.1429386263e-06
3.59843752538e-06
9.90472905883e-07
3.19056009069e-06
6.98601489639e-07
2.86533782745e-06
5.44796589201e-07
2.58238139482e-06
4.44771517607e-07
2.41014417586e-06
3.34800606026e-07
2.28108562994e-06
3.01717250837e-07
2.11607266553e-06
3.52985257468e-07
1.90345573474e-06
4.22660587957e-07
1.65965415622e-06
4.64338297652e-07
1.41408500614e-06
4.62699832443e-07
1.20745324321e-06
4.17115336846e-07
1.04919119839e-06
3.84795358815e-07
8.91832111178e-07
3.5644089187e-07
7.42676271578e-07
3.26151075221e-07
5.80419948042e-07
2.88498962419e-07
4.29609932024e-07
2.96029154909e-07
2.25823877138e-07
3.36252765061e-07
4.35723978193e-07
3.22128127461e-07
-1.04462797562e-06
4.35072734483e-07
-9.01239523758e-07
8.71707137231e-07
-1.20325130034e-06
1.43237988559e-06
-1.30243806655e-06
1.91454612455e-06
-1.25998534864e-06
2.10728151031e-06
-7.54927260269e-07
2.19334217032e-06
-3.92711824148e-07
2.42441748739e-06
-6.06606362748e-07
2.70432742214e-06
-7.90826130197e-07
2.98396595765e-06
-8.07063990404e-07
3.24372817037e-06
-7.64708703495e-07
3.45068532664e-06
-7.02616795107e-07
3.62493856131e-06
-6.23642048222e-07
3.80095331484e-06
-5.6452801716e-07
3.8813711555e-06
-4.29026957513e-07
3.59775365295e-06
-1.44987497141e-07
3.17148576807e-06
4.19637232003e-08
3.05649543529e-06
-1.56041953843e-08
3.22671966201e-06
-1.97107010288e-07
3.75951840477e-06
-6.15710262954e-07
4.43336710769e-06
-9.36638395867e-07
4.82542274688e-06
-9.23753796822e-07
5.0567965305e-06
-8.37879267295e-07
5.38334323509e-06
-8.32669247109e-07
5.69637735415e-06
-7.92731017165e-07
5.90752388728e-06
-7.27076050437e-07
6.07699607328e-06
-6.42064870487e-07
6.23652522921e-06
-5.61152632512e-07
6.36571947948e-06
-4.72676785847e-07
6.48996229476e-06
-4.18741461771e-07
6.55060365804e-06
-3.31156142171e-07
6.57564060175e-06
-2.75377789091e-07
6.65603360474e-06
-2.35148637613e-07
6.53580162267e-06
-6.12215259918e-08
6.46154313469e-06
-1.98757326774e-07
6.71952515228e-06
-4.19406762572e-07
6.79880814854e-06
-2.72070410398e-07
6.89117661554e-06
-4.20234080145e-07
7.42059919966e-06
-9.11632921035e-07
8.05479032574e-06
-1.01804213335e-06
8.65066952209e-06
-6.39846124599e-07
9.10324336431e-06
-3.17727065808e-07
9.30436291287e-06
-3.41089617009e-07
9.4309656458e-06
-3.99791164503e-07
9.53206806632e-06
-4.10673824605e-07
9.59586226287e-06
-3.85190734557e-07
9.64360116951e-06
-3.16838902304e-07
9.6701234198e-06
-2.26026927746e-07
9.67090978575e-06
-1.10923057361e-07
9.69786703871e-06
4.62478793282e-08
9.74270831993e-06
1.93853556083e-07
9.66791842927e-06
2.87618486505e-07
9.01665445836e-06
3.68450227274e-07
8.27819267087e-06
7.69649323409e-07
8.23551565545e-06
9.8657445747e-07
8.32204519226e-06
9.87840534806e-07
8.06944263302e-06
1.17231321389e-06
7.57934122308e-06
1.35152955314e-06
6.99531516775e-06
1.45938275235e-06
6.36838858086e-06
1.59494797626e-06
5.87109834956e-06
1.79289721519e-06
5.10515245848e-06
1.88937600733e-06
3.9717497295e-06
2.10789622683e-06
3.05310289254e-06
1.60835871199e-06
2.64572318116e-06
9.46863875842e-07
2.50747886554e-06
5.79206437538e-07
2.35543915943e-06
4.83416309341e-07
2.16504048804e-06
4.88719257248e-07
1.95799786942e-06
5.56244019868e-07
1.73026080636e-06
6.4620529762e-07
1.51340008719e-06
6.7691725661e-07
1.34592902327e-06
6.25950737054e-07
1.20235216956e-06
5.56419319742e-07
1.05287557382e-06
5.30104122831e-07
8.75925524145e-07
5.29350981996e-07
6.94611714379e-07
5.0333159501e-07
5.35275347216e-07
4.44028343918e-07
4.07573270973e-07
4.20084313119e-07
1.76910119424e-07
5.6129115334e-07
6.11261147949e-07
2.09787832744e-07
-1.26808399388e-06
2.42147943336e-07
-9.38912441656e-07
8.05184798401e-07
-1.77466161172e-06
1.22269967631e-06
-1.72609668319e-06
1.11254286578e-06
-1.15434283515e-06
8.38174423906e-07
-4.83567491491e-07
1.20031427523e-06
-7.60643488007e-07
1.95109593429e-06
-1.36814522841e-06
2.51162652053e-06
-1.36193887477e-06
2.87954880248e-06
-1.18357408431e-06
3.19195755394e-06
-1.08266851352e-06
3.43175989602e-06
-9.44866753165e-07
3.52649857676e-06
-7.19095364194e-07
3.31121499185e-06
-3.49432274948e-07
2.91478266474e-06
-3.43876442743e-08
2.73349432832e-06
3.20784930376e-08
2.84986574199e-06
-7.95528550581e-08
3.24886468091e-06
-4.20979033854e-07
3.92368695614e-06
-8.79546817923e-07
4.43746151023e-06
-1.13718368601e-06
4.65887743364e-06
-1.16544744034e-06
4.90684028556e-06
-1.17920086951e-06
5.21032223478e-06
-1.14837534866e-06
5.45262150406e-06
-1.08151873431e-06
5.65357227521e-06
-9.99310069385e-07
5.82148480734e-06
-9.00565720807e-07
5.991852659e-06
-8.17182312589e-07
6.13124471266e-06
-7.05698181812e-07
6.2692575947e-06
-6.14971177989e-07
6.33827802738e-06
-4.91438359072e-07
6.4215243932e-06
-4.17856393562e-07
6.40863257728e-06
-2.64547681161e-07
6.24933364742e-06
-7.93383652644e-08
6.42073750351e-06
-2.3758703976e-07
6.51403602454e-06
-2.97933621709e-07
6.59249732236e-06
-5.05558453592e-07
7.24055604614e-06
-9.29398484367e-07
7.95054868442e-06
-1.13990681036e-06
8.260729315e-06
-1.23045340601e-06
8.40072058492e-06
-1.16649499559e-06
8.66043312987e-06
-9.08220324183e-07
8.99797232084e-06
-6.64295597729e-07
9.23415415504e-06
-5.86111327753e-07
9.39383301032e-06
-5.68465468465e-07
9.51245600129e-06
-5.38231091864e-07
9.5993408202e-06
-4.81290492197e-07
9.66746556057e-06
-3.9426630839e-07
9.71494307323e-06
-2.83083550389e-07
9.73979668669e-06
-1.45242133577e-07
9.75038477219e-06
2.6147543855e-08
9.71690981674e-06
2.1780441375e-07
9.56817455808e-06
4.26508309622e-07
9.25165496497e-06
6.74511306527e-07
9.01184386653e-06
9.9792325781e-07
8.77406314557e-06
1.21173777027e-06
8.38170433852e-06
1.36609473203e-06
7.89786300759e-06
1.6405131194e-06
7.30155004904e-06
1.93091155942e-06
6.60700636246e-06
2.13597783946e-06
5.9060372239e-06
2.27738560848e-06
5.27508428961e-06
2.40657416904e-06
4.59675588537e-06
2.55123254471e-06
3.91306554031e-06
2.77805902738e-06
3.15761047832e-06
2.35519436564e-06
2.69576998115e-06
1.40336654458e-06
2.39947376426e-06
8.71876887782e-07
2.19076458791e-06
6.8909264312e-07
2.01254447928e-06
6.63734057323e-07
1.84011725331e-06
7.25047962648e-07
1.6583275013e-06
8.23976232194e-07
1.46852179129e-06
8.62483679282e-07
1.28346148513e-06
8.06833456905e-07
1.09288847801e-06
7.43227229863e-07
9.02442391541e-07
7.17015273357e-07
7.25216114281e-07
7.03045006222e-07
5.39262914773e-07
6.85879949392e-07
3.67456783821e-07
6.12775278581e-07
2.49250937616e-07
5.35578307112e-07
1.28383868363e-07
6.80331963346e-07
7.37555295912e-07
5.19988452434e-09
-1.27145652257e-06
2.31403886435e-07
-1.17060385255e-06
7.02202668135e-07
-2.24931920009e-06
8.99339484121e-07
-1.92437296383e-06
7.09488359549e-07
-9.67718543483e-07
8.80951958826e-07
-6.59950502143e-07
1.49280401984e-06
-1.38167976649e-06
2.01674510219e-06
-1.90203066725e-06
2.37976491937e-06
-1.73445150307e-06
2.72955352903e-06
-1.53933402458e-06
3.04778346471e-06
-1.40300122922e-06
3.07985325804e-06
-9.77564769083e-07
2.79340704044e-06
-4.32612909267e-07
2.58372768849e-06
-1.41782421967e-07
2.6647971586e-06
-1.20338909251e-07
2.9589351635e-06
-2.68257059133e-07
3.4739841127e-06
-6.02085546291e-07
4.04698913154e-06
-1.0024303276e-06
4.3223985967e-06
-1.16275258219e-06
4.41243421014e-06
-1.2345201901e-06
4.64902949048e-06
-1.40927964789e-06
4.93776794064e-06
-1.47508804281e-06
5.18830267999e-06
-1.40537382614e-06
5.38977127172e-06
-1.28849588711e-06
5.56598507808e-06
-1.18086318113e-06
5.74821382684e-06
-1.08713319885e-06
5.86375815243e-06
-9.37847705777e-07
6.00546862938e-06
-8.51411470173e-07
6.07552649916e-06
-6.88423057181e-07
6.16553377317e-06
-5.84405986071e-07
6.14176235545e-06
-3.9650985872e-07
6.17862492127e-06
-3.04665363653e-07
6.44779695626e-06
-3.52893768505e-07
6.43367552936e-06
-2.30030489563e-07
6.67024412008e-06
-5.42830500176e-07
7.26242583481e-06
-1.10736027667e-06
7.72645302835e-06
-1.40296848896e-06
8.06206794609e-06
-1.48430151321e-06
8.27105940261e-06
-1.44785930229e-06
8.43473126691e-06
-1.33855064817e-06
8.6683604072e-06
-1.15056301639e-06
8.95037364929e-06
-9.55172492118e-07
9.18851609402e-06
-8.33243479683e-07
9.36967726319e-06
-7.58513199123e-07
9.5105737176e-06
-6.88060742595e-07
9.62297581942e-06
-6.02648689627e-07
9.71414947812e-06
-4.94601866068e-07
9.78303772289e-06
-3.61225092194e-07
9.82304705772e-06
-1.94621077629e-07
9.82501594734e-06
1.48995177105e-08
9.76489703517e-06
2.68545953724e-07
9.61547525235e-06
5.66208936932e-07
9.38001233993e-06
8.9965414815e-07
9.12491875989e-06
1.24185901943e-06
8.79598146052e-06
1.52848248527e-06
8.32698031266e-06
1.82189692028e-06
7.73386092021e-06
2.21933881404e-06
7.00389709644e-06
2.64496000237e-06
6.1796406074e-06
2.94317102058e-06
5.39882202923e-06
3.04169793136e-06
4.74198323783e-06
3.04742405868e-06
4.22392472175e-06
3.05551952306e-06
3.90831068325e-06
3.08301426833e-06
3.16804716415e-06
3.08694108368e-06
2.77848543905e-06
1.78752903931e-06
2.44761318121e-06
1.19917501599e-06
2.13901777224e-06
9.94526225181e-07
1.88901333103e-06
9.10627950998e-07
1.69141023376e-06
9.1930328486e-07
1.51033926802e-06
1.00134315933e-06
1.31676996014e-06
1.05223428329e-06
1.12301465159e-06
9.97123091563e-07
9.39954409085e-07
9.23170393708e-07
7.61947608329e-07
8.91951502406e-07
5.83514571109e-07
8.78370940176e-07
4.13652425533e-07
8.52795537915e-07
3.03953629455e-07
7.20426674319e-07
1.9565011576e-07
6.4227410022e-07
8.11088624734e-08
7.91506255647e-07
8.18190166821e-07
-5.260547209e-09
-1.27435756867e-06
3.42005462043e-07
-1.52041382515e-06
5.56639967125e-07
-2.46637069273e-06
6.14801117048e-07
-1.98552138165e-06
5.38318395361e-07
-8.9410086089e-07
1.06311415838e-06
-1.19123309837e-06
1.73549897819e-06
-2.06345314522e-06
2.00996600792e-06
-2.18632461737e-06
2.26669235267e-06
-1.99610690213e-06
2.46961474719e-06
-1.74524802738e-06
2.44934509565e-06
-1.38372864921e-06
2.13956848129e-06
-6.67732376415e-07
2.06405330886e-06
-3.59106621103e-07
2.24839345553e-06
-3.30564555487e-07
2.59986097743e-06
-4.78219701475e-07
3.18971668552e-06
-8.66538941203e-07
3.81534823842e-06
-1.23648590672e-06
4.03557680972e-06
-1.22998174413e-06
4.07917773895e-06
-1.21329809458e-06
4.36715311417e-06
-1.52973305912e-06
4.68026383541e-06
-1.72956634785e-06
4.90303268601e-06
-1.70423140216e-06
5.10501828663e-06
-1.61309653964e-06
5.31710997596e-06
-1.50593369293e-06
5.50370491179e-06
-1.37164997312e-06
5.5393925298e-06
-1.12729097708e-06
5.67751517484e-06
-1.07952597631e-06
5.73884856313e-06
-9.1611609831e-07
5.82438091256e-06
-7.77270491005e-07
5.75215243378e-06
-5.14771373229e-07
5.73370892122e-06
-3.80658908541e-07
5.82696450884e-06
-4.02157463924e-07
5.87349726537e-06
-4.05323947508e-07
6.38460437531e-06
-7.491707729e-07
7.0468353635e-06
-1.21513509866e-06
7.52484319465e-06
-1.59511489704e-06
7.83362003008e-06
-1.72061372599e-06
8.05404544016e-06
-1.7129293856e-06
8.24228855029e-06
-1.64401748799e-06
8.43531237052e-06
-1.53973587778e-06
8.66457021832e-06
-1.38841909791e-06
8.9196383424e-06
-1.21916981258e-06
9.1547033054e-06
-1.07725517305e-06
9.35131116775e-06
-9.6401151797e-07
9.51415378e-06
-8.59720834557e-07
9.65091617288e-06
-7.4827507573e-07
9.76608059644e-06
-6.18705265981e-07
9.85543042847e-06
-4.59644476463e-07
9.90838735504e-06
-2.56690445055e-07
9.91181331252e-06
2.29935023176e-09
9.84993842445e-06
3.21150617716e-07
9.7121346387e-06
6.94417377224e-07
9.50037502041e-06
1.10117388985e-06
9.22027991534e-06
1.51099705296e-06
8.82502312631e-06
1.912171224e-06
8.26933762127e-06
2.3655367695e-06
7.56129781081e-06
2.914332274e-06
6.73341793667e-06
3.45863523022e-06
5.83701520099e-06
3.8234532404e-06
5.01971915564e-06
3.84215510829e-06
4.38353660028e-06
3.66872098112e-06
3.85141348978e-06
3.57591572315e-06
3.60311131779e-06
3.32170469631e-06
3.1414103564e-06
3.53965681176e-06
2.60987174806e-06
2.31434906769e-06
2.32131522487e-06
1.48447305319e-06
2.02229111826e-06
1.29067451738e-06
1.75113853287e-06
1.17866166122e-06
1.53628553043e-06
1.13103023503e-06
1.339618771e-06
1.1947451451e-06
1.13991015556e-06
1.24873888539e-06
9.70439833592e-07
1.16376228226e-06
7.98910124717e-07
1.09194267953e-06
6.26316153859e-07
1.06172936957e-06
4.63927747178e-07
1.03800293899e-06
3.47970530171e-07
9.66473966262e-07
2.47213856366e-07
8.19137360609e-07
1.49168769279e-07
7.38114706281e-07
7.04533373803e-08
8.69402032671e-07
8.86948960337e-07
1.18330423284e-07
-1.39299273283e-06
5.82783553147e-07
-1.98841788212e-06
7.51950756802e-07
-2.63487118217e-06
5.44691772485e-07
-1.78025389201e-06
6.83059579975e-07
-1.03716721947e-06
1.3852597891e-06
-1.90195770905e-06
1.76818630474e-06
-2.45637941313e-06
1.96144994025e-06
-2.38394634734e-06
2.05270855323e-06
-2.0922839421e-06
2.23247350735e-06
-1.9242940571e-06
2.040614869e-06
-1.19190849999e-06
1.88604720491e-06
-5.14476837571e-07
2.04073781715e-06
-5.17649557292e-07
2.29584898765e-06
-5.9233048107e-07
2.81173424544e-06
-1.00252800302e-06
3.46195068767e-06
-1.5249334991e-06
3.66715377146e-06
-1.44859936371e-06
3.66906016406e-06
-1.23843764032e-06
3.99915495322e-06
-1.55063618801e-06
4.3783858409e-06
-1.91629986272e-06
4.6346141704e-06
-1.99222724995e-06
4.84395362028e-06
-1.91956247901e-06
5.04161307855e-06
-1.81644230741e-06
5.16627431092e-06
-1.63469165391e-06
5.20939267748e-06
-1.41872472376e-06
5.29227617379e-06
-1.21374048017e-06
5.30965000815e-06
-1.1005269743e-06
5.40518627167e-06
-1.01507203814e-06
5.39665748406e-06
-7.71375404286e-07
5.32407153916e-06
-4.44788002598e-07
5.45611057079e-06
-5.16761170935e-07
5.65026243731e-06
-6.01201529786e-07
5.98504153972e-06
-7.47408790971e-07
6.54944247405e-06
-1.32290658309e-06
7.22103896745e-06
-1.89639982666e-06
7.58760003841e-06
-1.97054345259e-06
7.81174767759e-06
-1.95288829167e-06
8.00597210197e-06
-1.91491950597e-06
8.20703546867e-06
-1.8529038609e-06
8.41874080075e-06
-1.75957326478e-06
8.64954188904e-06
-1.62771942735e-06
8.89440010465e-06
-1.47275738188e-06
9.12881047578e-06
-1.32047318304e-06
9.33792564085e-06
-1.1819013942e-06
9.52128014283e-06
-1.05183294961e-06
9.68284835359e-06
-9.18620669194e-07
9.82268171398e-06
-7.6738904673e-07
9.93310118945e-06
-5.78952393356e-07
1.00016687235e-05
-3.3422047699e-07
1.00157453168e-05
-2.07845069061e-08
9.96403451412e-06
3.63689504828e-07
9.83865760329e-06
8.10265030996e-07
9.63224676115e-06
1.29758886017e-06
9.32613648615e-06
1.80668138963e-06
8.87783946892e-06
2.35010536294e-06
8.2542275152e-06
2.97882536633e-06
7.45966466806e-06
3.69780067733e-06
6.5256915729e-06
4.37722010862e-06
5.55464539215e-06
4.77657177071e-06
4.79905593449e-06
4.58040976416e-06
4.43223946173e-06
4.02080970704e-06
4.3281116782e-06
3.66802907881e-06
3.96898790929e-06
3.6705501789e-06
3.46379072894e-06
4.03766618744e-06
2.50912687938e-06
3.26466899266e-06
2.1707621369e-06
1.81995069079e-06
1.91526908333e-06
1.54302960282e-06
1.64901709873e-06
1.44197086053e-06
1.39502145392e-06
1.38202524051e-06
1.16522827337e-06
1.42171421142e-06
9.92041216431e-07
1.41933900711e-06
8.36519807715e-07
1.31674364392e-06
6.63343583289e-07
1.26248269127e-06
5.01695640303e-07
1.22071647924e-06
3.70536649369e-07
1.16671926155e-06
2.96808286268e-07
1.0379518363e-06
1.9463211477e-07
9.19572157532e-07
1.005273769e-07
8.30954466829e-07
5.57759069673e-08
9.10982104293e-07
9.42476801999e-07
2.35718726299e-07
-1.63671878746e-06
7.00117107318e-07
-2.45537289715e-06
7.07788169239e-07
-2.64718178458e-06
3.72630544066e-07
-1.44775270927e-06
8.22927500555e-07
-1.49280930716e-06
1.46062009602e-06
-2.54864918419e-06
1.6766102343e-06
-2.67765920015e-06
1.88144245401e-06
-2.5940224767e-06
1.77340327621e-06
-1.98260360047e-06
1.77083405541e-06
-1.92364886499e-06
1.56979091938e-06
-9.91315624334e-07
1.8089553802e-06
-7.56982585239e-07
2.02258649033e-06
-7.36938264411e-07
2.4167497171e-06
-9.93387904113e-07
3.02237337515e-06
-1.6168160923e-06
3.30383732465e-06
-1.81397818736e-06
3.28962494943e-06
-1.43997423567e-06
3.59548343744e-06
-1.5506718209e-06
4.02404241288e-06
-1.98669995067e-06
4.30640028655e-06
-2.20559837756e-06
4.51430377544e-06
-2.20646379375e-06
4.70958862057e-06
-2.12087404308e-06
4.93367972999e-06
-2.04472425677e-06
5.12735543082e-06
-1.83230729096e-06
5.10827629123e-06
-1.40314960037e-06
5.21881657588e-06
-1.32729343923e-06
5.23047376609e-06
-1.11542738086e-06
5.11741807852e-06
-9.05087576192e-07
5.09221362865e-06
-7.49330109247e-07
5.48451640021e-06
-8.40555581772e-07
5.67898608138e-06
-7.15596354761e-07
5.67576769316e-06
-6.04640584441e-07
6.21695920539e-06
-1.29687614544e-06
6.94199568861e-06
-2.05750482082e-06
7.28523238675e-06
-2.24847796095e-06
7.5300453188e-06
-2.22341142302e-06
7.74013485186e-06
-2.17062881338e-06
7.94571055551e-06
-2.1280197824e-06
8.16262452797e-06
-2.07750096437e-06
8.38950344847e-06
-1.99447078019e-06
8.62522586405e-06
-1.87181966086e-06
8.86732489789e-06
-1.72345635618e-06
9.10496428688e-06
-1.56678906799e-06
9.32718985497e-06
-1.41279154201e-06
9.5310570216e-06
-1.26435334382e-06
9.7174708509e-06
-1.11369483867e-06
9.88260129994e-06
-9.4120114911e-07
1.00158534947e-05
-7.20936015599e-07
1.01045313504e-05
-4.31645865419e-07
1.01374563712e-05
-6.25781322017e-08
1.01046667277e-05
3.87424208382e-07
9.99569893922e-06
9.0982576072e-07
9.79417655454e-06
1.48943589598e-06
9.47140395411e-06
2.11980574577e-06
8.99099584813e-06
2.82162463317e-06
8.3307614077e-06
3.63030141361e-06
7.48578669414e-06
4.53081923772e-06
6.45522286196e-06
5.39229256936e-06
5.29189267078e-06
5.91966449341e-06
4.5494538131e-06
5.30256983914e-06
4.43110347237e-06
4.12430978081e-06
4.45119569866e-06
3.63748681728e-06
4.34049479019e-06
3.77332703829e-06
4.21161553509e-06
4.16024978228e-06
3.21321262336e-06
4.25757097098e-06
2.18834361967e-06
2.8414912696e-06
1.76356839048e-06
1.96510119427e-06
1.45978167006e-06
1.74280111531e-06
1.19556397878e-06
1.64369476088e-06
9.99941744971e-07
1.6149181717e-06
8.59842426223e-07
1.55701648006e-06
6.96199761661e-07
1.47785945721e-06
5.26768048192e-07
1.42929975357e-06
3.84921812295e-07
1.36003026036e-06
2.92953578435e-07
1.25635022408e-06
2.21398891087e-07
1.10756626884e-06
1.34851016028e-07
1.00410184614e-06
4.28771775672e-08
9.20644750973e-07
1.82377965618e-08
9.35208700877e-07
9.59094124373e-07
3.3461893265e-07
-1.97301021889e-06
7.02386173752e-07
-2.82648073277e-06
5.37665296855e-07
-2.48279727141e-06
5.19092189968e-07
-1.43232183448e-06
1.11441856934e-06
-2.09384205385e-06
1.36543476625e-06
-2.80586925326e-06
1.55741697995e-06
-2.87284369073e-06
1.716519293e-06
-2.75391990559e-06
1.67946325154e-06
-1.94756177526e-06
1.66882738691e-06
-1.91307466327e-06
1.64861291029e-06
-9.73870515442e-07
1.84266577451e-06
-9.54989133481e-07
2.09835270121e-06
-9.99327592711e-07
2.600229713e-06
-1.50418143057e-06
3.15294897086e-06
-2.17619222815e-06
3.20170372083e-06
-1.86807815588e-06
3.27540364133e-06
-1.51942900083e-06
3.61722607312e-06
-1.8997588833e-06
3.96845379979e-06
-2.34528418504e-06
4.20709342278e-06
-2.45122821094e-06
4.38641128573e-06
-2.39267104317e-06
4.50765831957e-06
-2.2464471727e-06
4.60001797709e-06
-2.14067919245e-06
4.68098750382e-06
-1.91592671137e-06
4.7453383891e-06
-1.46968504498e-06
4.81622744937e-06
-1.4013260125e-06
4.98572940591e-06
-1.28782131512e-06
5.18539118674e-06
-1.10809772785e-06
5.37503043886e-06
-9.41682420711e-07
5.4715310188e-06
-9.40804602925e-07
5.67936025765e-06
-9.29256325847e-07
6.24118996095e-06
-1.17481703555e-06
6.71127000258e-06
-1.77667467718e-06
7.0206176012e-06
-2.37606442755e-06
7.24064277303e-06
-2.47647618677e-06
7.44758878329e-06
-2.43777051892e-06
7.66094567636e-06
-2.39126865604e-06
7.87772841905e-06
-2.35222218944e-06
8.10391695207e-06
-2.31138208951e-06
8.34153138228e-06
-2.24009421628e-06
8.58667393297e-06
-2.12520624715e-06
8.83416953295e-06
-1.97934329656e-06
9.07909807334e-06
-1.82015115578e-06
9.31635601929e-06
-1.65850413292e-06
9.54191212091e-06
-1.49837066096e-06
9.75273024139e-06
-1.33300660532e-06
9.94300153586e-06
-1.13999949284e-06
1.01018053171e-05
-8.88258050954e-07
1.02166951418e-05
-5.55138884897e-07
1.02774030002e-05
-1.31953184095e-07
1.02739961034e-05
3.81898325523e-07
1.01923471903e-05
9.82475358855e-07
1.00082881267e-05
1.66438191609e-06
9.68847062539e-06
2.43162647804e-06
9.20244313129e-06
3.30060592079e-06
8.53409222811e-06
4.29116463549e-06
7.6575675834e-06
5.39556006809e-06
6.48603543665e-06
6.54226045331e-06
4.94256075045e-06
7.43904377236e-06
4.32262297735e-06
5.9015749421e-06
4.52508839209e-06
3.90879344285e-06
4.63670120729e-06
3.51766132938e-06
4.6110484126e-06
3.79282948549e-06
4.52961100494e-06
4.23558129154e-06
4.1025183963e-06
4.67981791039e-06
2.71923996638e-06
4.22062644954e-06
1.59990256421e-06
3.08097437633e-06
1.26612880058e-06
2.07421883795e-06
1.03465221843e-06
1.87276194739e-06
8.64553663327e-07
1.78275672355e-06
7.19077814643e-07
1.70012612275e-06
5.47611223848e-07
1.64674658188e-06
3.87515996136e-07
1.58676122797e-06
2.6695893841e-07
1.4781577936e-06
1.91574504288e-07
1.32961768378e-06
1.14291015695e-07
1.18275532248e-06
4.58914850104e-08
1.07082429981e-06
-1.9327755447e-08
9.84789369928e-07
-2.82726809321e-08
9.4120419567e-07
9.3078004759e-07
4.25258610752e-07
-2.40790017742e-06
7.41083539689e-07
-3.14880855622e-06
4.90695934905e-07
-2.23607705637e-06
6.65909009501e-07
-1.61021698509e-06
1.20597976189e-06
-2.63809617784e-06
1.21684352084e-06
-2.81810159436e-06
1.39996786009e-06
-3.06013597477e-06
1.36709754519e-06
-2.721052905e-06
1.50019884797e-06
-2.08240286485e-06
1.38617562579e-06
-1.80155579363e-06
1.58485650279e-06
-1.17540041362e-06
1.8363743046e-06
-1.21275537968e-06
2.13506754648e-06
-1.30417781627e-06
2.62723426279e-06
-2.00309016236e-06
2.88755904112e-06
-2.44365298001e-06
2.83075680813e-06
-1.81578606678e-06
3.12708401715e-06
-1.82158125055e-06
3.52295193638e-06
-2.30280546335e-06
3.83537235653e-06
-2.6651106094e-06
4.09089713387e-06
-2.71385764916e-06
4.2870805097e-06
-2.59320998799e-06
4.46757176993e-06
-2.43152382291e-06
4.50637342431e-06
-2.1824562479e-06
4.50556366437e-06
-1.91724842111e-06
4.71491763865e-06
-1.68176265164e-06
4.72100145902e-06
-1.41010236953e-06
4.62073967652e-06
-1.18994067108e-06
4.62167406948e-06
-1.11146358095e-06
4.89445846567e-06
-1.21805548274e-06
5.29300022585e-06
-1.34400590193e-06
5.65445766649e-06
-1.29737046414e-06
6.0461212427e-06
-1.57531570938e-06
6.6686815963e-06
-2.40958318898e-06
6.95746498178e-06
-2.67320490159e-06
7.1525580305e-06
-2.67885575217e-06
7.35980307615e-06
-2.65206464539e-06
7.57983132488e-06
-2.61848294913e-06
7.8038099024e-06
-2.58358092562e-06
8.034151246e-06
-2.54935459554e-06
8.27743118085e-06
-2.49122580579e-06
8.53140447572e-06
-2.3872186036e-06
8.78918414876e-06
-2.24524635266e-06
9.04618614321e-06
-2.08532011286e-06
9.30013245291e-06
-1.92062444839e-06
9.54851097138e-06
-1.75497917502e-06
9.78592662787e-06
-1.5786731149e-06
1.00028301249e-05
-1.36513391095e-06
1.018884353e-05
-1.08251838428e-06
1.03354122119e-05
-7.09913322414e-07
1.04342746199e-05
-2.39201228163e-07
1.04752129494e-05
3.3252463597e-07
1.04404311912e-05
1.00869593499e-06
1.02974616266e-05
1.79929430703e-06
1.00043821351e-05
2.7180203766e-06
9.53562839251e-06
3.76398523603e-06
8.88469788738e-06
4.93423975039e-06
8.00534608589e-06
6.25748787763e-06
6.72398492982e-06
7.80115518039e-06
4.07167565171e-06
1.00543374819e-05
4.35268971707e-06
5.59755434061e-06
4.87429930494e-06
3.37819070994e-06
4.97031889709e-06
3.41642665533e-06
4.87503566329e-06
3.88357515372e-06
4.73119668652e-06
4.37473278543e-06
4.66981365044e-06
4.73578307826e-06
3.95062406635e-06
4.93414649774e-06
2.3129732272e-06
4.71472675019e-06
1.08739068894e-06
3.29672123888e-06
8.62856534412e-07
2.09539199017e-06
7.15857285229e-07
1.92776486747e-06
5.58390642717e-07
1.85472667694e-06
3.90074976333e-07
1.81241448443e-06
2.43812982875e-07
1.73057369051e-06
1.39092876163e-07
1.58071051061e-06
5.78881818757e-08
1.4087797453e-06
-1.55766003468e-08
1.25447856546e-06
-6.12053679319e-08
1.11461603972e-06
-7.82709828492e-08
9.99784202456e-07
-5.56301982707e-08
9.18554391432e-07
8.73879052762e-07
4.22209881758e-07
-2.83059634196e-06
6.35304436336e-07
-3.36132869762e-06
5.11266973453e-07
-2.11282506589e-06
8.8402119665e-07
-1.98494206714e-06
9.96911315491e-07