/*--------------------------------*- C++ -*----------------------------------*\
| =========                 |                                                 |
| \\      /  F ield         | OpenFOAM: The Open Source CFD Toolbox           |
|  \\    /   O peration     | Version:  v1806                                 |
|   \\  /    A nd           | Web:      www.OpenFOAM.com                      |
|    \\/     M anipulation  |                                                 |
\*---------------------------------------------------------------------------*/
FoamFile
{
    version     2.0;
    format      ascii;
    class       surfaceScalarField;
    location    "745";
    object      phia;
}
// * * * * * * * * * * * * * * * * * * * * * * * * * * * * * * * * * * * * * //

dimensions      [0 3 -1 0 0 0 0];
oriented        oriented;


internalField   nonuniform List<scalar> 
12640
(
6.28085118943e-08
-6.13045516028e-08
1.18646193638e-07
-5.44725896883e-08
1.6689222533e-07
-4.71912227469e-08
2.07988924582e-07
-4.01724535161e-08
2.39953433367e-07
-3.11658140688e-08
2.62724624741e-07
-2.21172854455e-08
2.82014576846e-07
-1.87118890273e-08
3.09324039971e-07
-2.67841563723e-08
3.45091662032e-07
-3.52585158456e-08
3.8075814431e-07
-3.51981404497e-08
4.15420474889e-07
-3.42284053975e-08
4.52151576871e-07
-3.63343675548e-08
4.88298972306e-07
-3.57735607805e-08
5.22748753528e-07
-3.41110893156e-08
5.57772347404e-07
-3.47137499259e-08
5.97164073773e-07
-3.91320514339e-08
6.38896188953e-07
-4.14859222305e-08
6.79193009384e-07
-4.00691327922e-08
7.17675080053e-07
-3.82332042055e-08
7.57653105284e-07
-3.97216505927e-08
8.04621631488e-07
-4.67014743369e-08
8.58107569302e-07
-5.32364063383e-08
9.13301992421e-07
-5.49531556499e-08
9.67869930498e-07
-5.43558357365e-08
1.02121180635e-06
-5.31404232415e-08
1.07372764929e-06
-5.23395628384e-08
1.12643998448e-06
-5.25410958442e-08
1.17894511151e-06
-5.23572532621e-08
1.23069975838e-06
-5.16097117614e-08
1.28205834827e-06
-5.12359812006e-08
1.33412901099e-06
-5.19487537528e-08
1.38641699671e-06
-5.21876496972e-08
1.43837288349e-06
-5.18579691062e-08
1.49199276841e-06
-5.35355053818e-08
1.54713119123e-06
-5.50421127875e-08
1.60300074304e-06
-5.57894798845e-08
1.65976401509e-06
-5.66721605424e-08
1.71573086928e-06
-5.58835296093e-08
1.76968272532e-06
-5.38569361798e-08
1.82198926762e-06
-5.2231387794e-08
1.87423331636e-06
-5.21644101408e-08
1.92358862081e-06
-4.92993812639e-08
1.96608346674e-06
-4.24325700978e-08
2.0037391574e-06
-3.76115091923e-08
2.03868496459e-06
-3.48908128195e-08
2.07051414487e-06
-3.17957177032e-08
2.09878682291e-06
-2.82269381378e-08
2.12257560394e-06
-2.37631258409e-08
2.14184348793e-06
-1.92261779389e-08
2.1592716567e-06
-1.74034285259e-08
2.1781987309e-06
-1.88722240796e-08
2.19451389362e-06
-1.62699296154e-08
2.19874451842e-06
-4.15852320091e-09
2.1940793741e-06
4.74069391536e-09
2.17987712318e-06
1.43205369561e-08
2.15259497563e-06
2.74219645449e-08
2.12678958406e-06
2.60332312382e-08
2.10887996458e-06
1.82206867644e-08
2.08585510252e-06
2.34660418702e-08
2.05826359009e-06
2.81890520873e-08
2.04159184365e-06
1.74725498088e-08
2.01635140358e-06
2.62289043437e-08
1.93169266507e-06
8.57760388272e-08
1.76754714582e-06
1.6502749283e-07
1.60325296828e-06
1.64908028526e-07
1.48431025166e-06
1.1935567981e-07
1.37532682752e-06
1.09382403955e-07
1.26532651466e-06
1.10452386637e-07
1.14826054076e-06
1.17599297868e-07
1.01860779319e-06
1.3024019316e-07
8.84083465375e-07
1.35144778296e-07
7.54490744844e-07
1.30201800008e-07
6.33011279215e-07
1.22039146799e-07
5.06621857092e-07
1.26922337996e-07
3.98992664518e-07
1.08102700258e-07
3.06080534877e-07
9.33985263267e-08
2.40276578158e-07
6.63161947601e-08
1.67165506269e-07
7.3644911259e-08
1.01402214756e-07
6.62909725446e-08
1.01961889126e-07
3.35110927653e-08
-9.37020221558e-08
7.72674105769e-08
-9.71489761192e-08
1.19607504277e-07
-8.85920259049e-08
1.62846773293e-07
-8.26328938475e-08
2.15680786296e-07
-8.33038106939e-08
2.56722116876e-07
-6.24764294436e-08
2.84361497182e-07
-4.57447631713e-08
3.13694131783e-07
-5.55111576365e-08
3.4647762763e-07
-6.75018742128e-08
3.82119149648e-07
-7.03214581651e-08
4.17876211211e-07
-6.95398097715e-08
4.51192822511e-07
-6.92220404488e-08
4.84187293178e-07
-6.8408449031e-08
5.18336484833e-07
-6.79232630629e-08
5.54301077399e-07
-7.0407527085e-08
5.94782558029e-07
-7.93344092578e-08
6.35145322488e-07
-8.161778466e-08
6.69047984043e-07
-7.37057745153e-08
7.03559604591e-07
-7.24971717712e-08
7.46163355382e-07
-8.20377433855e-08
7.97447235779e-07
-9.77195907971e-08
8.54979493497e-07
-1.10485965501e-07
9.1210126446e-07
-1.118475417e-07
9.65076552445e-07
-1.07093030116e-07
1.01725235705e-06
-1.0513047076e-07
1.07107758087e-06
-1.05962820966e-07
1.1240891311e-06
-1.05399517437e-07
1.17600788149e-06
-1.04102351584e-07
1.22774816682e-06
-1.03224588434e-07
1.27954484306e-06
-1.02884919903e-07
1.33103746755e-06
-1.03343430654e-07
1.38232257299e-06
-1.03353228799e-07
1.43328230015e-06
-1.02739803753e-07
1.48657501893e-06
-1.06717275611e-07
1.54344636869e-06
-1.11848289847e-07
1.59997126694e-06
-1.12201546116e-07
1.65627572581e-06
-1.12906120229e-07
1.71423506378e-06
-1.13731921054e-07
1.77258666605e-06
-1.12146658401e-07
1.82683825855e-06
-1.06379947654e-07
1.86786703798e-06
-9.31502956165e-08
1.89984034574e-06
-8.1191835835e-08
1.93577269604e-06
-7.83391792064e-08
1.97532190231e-06
-7.70902257615e-08
2.01390493202e-06
-7.3457514615e-08
2.05057359576e-06
-6.84051523604e-08
2.08388325957e-06
-6.15326615071e-08
2.11383977925e-06
-5.36724550349e-08
2.1396562216e-06
-4.50449710759e-08
2.1568935947e-06
-3.45959959614e-08
2.16165657587e-06
-2.36318141915e-08
2.1630424976e-06
-1.76004212603e-08
2.17792147143e-06
-1.90054996497e-08
2.18878240193e-06
-6.02754417112e-09
2.18161878665e-06
2.15757424584e-08
2.17436052401e-06
3.48575263555e-08
2.16588500294e-06
3.47246346656e-08
2.14871682715e-06
3.57305403354e-08
2.13078788808e-06
4.18442225404e-08
2.10867462827e-06
5.09437077842e-08
2.05685519241e-06
7.0023956244e-08
1.99641448976e-06
8.75781871089e-08
1.90263012341e-06
1.80549388255e-07
1.74528447601e-06
3.23263519168e-07
1.55834680089e-06
3.52366772101e-07
1.38510437329e-06
2.93004016405e-07
1.2808782668e-06
2.13980685667e-07
1.2056945212e-06
1.86081486209e-07
1.11127268501e-06
2.12532067441e-07
9.88655999341e-07
2.53454790561e-07
8.47979425016e-07
2.76434395929e-07
7.0867841215e-07
2.70086511708e-07
5.94003741477e-07
2.37269977089e-07
5.08480404962e-07
2.13014510196e-07
4.25791836469e-07
1.91351474448e-07
3.49413365556e-07
1.703371067e-07
2.69425393874e-07
1.46874368008e-07
1.97990898283e-07
1.4567463778e-07
1.03849310806e-07
1.61265300747e-07
2.06153889645e-07
4.12069234538e-08
-1.34284038387e-07
6.34672425847e-08
-1.18506817296e-07
1.12607912e-07
-1.36837562968e-07
1.68779608159e-07
-1.38018678184e-07
2.21213623968e-07
-1.35058014486e-07
2.5004649661e-07
-9.07370085918e-08
2.68458960338e-07
-6.35388327426e-08
3.0021444236e-07
-8.66018978309e-08
3.36817568034e-07
-1.03486109325e-07
3.73643241116e-07
-1.06605006566e-07
4.09773075218e-07
-1.05189722714e-07
4.4355713125e-07
-1.02610723872e-07
4.76277247482e-07
-1.00794973988e-07
5.10793674178e-07
-1.02150134028e-07
5.44004965378e-07
-1.03345241757e-07
5.62220341014e-07
-9.72975375703e-08
5.70809590111e-07
-8.99510241023e-08
5.95754206166e-07
-9.83992193861e-08
6.46060564523e-07
-1.22526995788e-07
7.18396168586e-07
-1.54092165651e-07
7.92704329648e-07
-1.71742959524e-07
8.51474078791e-07
-1.69000365222e-07
9.03484679478e-07
-1.63613263666e-07
9.57979530523e-07
-1.61374975695e-07
1.01255603011e-06
-1.59501444326e-07
1.06485822948e-06
-1.58087739477e-07
1.11659470383e-06
-1.56961993744e-07
1.16863988016e-06
-1.55999970511e-07
1.22056764432e-06
-1.55007384079e-07
1.27269069437e-06
-1.54890607909e-07
1.3237082079e-06
-1.54246826955e-07
1.37482214586e-06
-1.54372457774e-07
1.42750137909e-06
-1.55326423209e-07
1.47799038166e-06
-1.57127561943e-07
1.53243520237e-06
-1.66194733132e-07
1.59431565802e-06
-1.74000723186e-07
1.65254114366e-06
-1.71038771907e-07
1.70863219659e-06
-1.69746406501e-07
1.76834912224e-06
-1.71777630944e-07
1.82548459313e-06
-1.63456887986e-07
1.87749149424e-06
-1.45093021929e-07
1.92489819656e-06
-1.28558690284e-07
1.96683696424e-06
-1.20227657417e-07
2.00487732869e-06
-1.15105286315e-07
2.04010872906e-06
-1.08655050827e-07
2.07209514961e-06
-1.00383284576e-07
2.10097427592e-06
-9.03941101219e-08
2.12646848021e-06
-7.91714360154e-08
2.14817526235e-06
-6.67443561443e-08
2.16654602531e-06
-5.2978064358e-08
2.18238518908e-06
-3.94636611668e-08
2.19351009203e-06
-2.87219990593e-08
2.19232752488e-06
-1.77906741919e-08
2.18409447583e-06
2.2508812617e-09
2.18173776883e-06
2.40335589196e-08
2.179509474e-06
3.7233617284e-08
2.1682281191e-06
4.62404405032e-08
2.14903997066e-06
5.52433299278e-08
2.12499388876e-06
6.63424879764e-08
2.09387106114e-06
8.26242991067e-08
2.05432650034e-06
1.10264470693e-07
1.96629512895e-06
1.76414173564e-07
1.78720310871e-06
3.60465049788e-07
1.55901127414e-06
5.52114236137e-07
1.39078831074e-06
5.21101583142e-07
1.3165300331e-06
3.6765069345e-07
1.23027746586e-06
3.00609958767e-07
1.12215261082e-06
2.9461296109e-07
1.00571283587e-06
3.29451453155e-07
8.78622964478e-07
3.81093083258e-07
7.58115689039e-07
3.97523148972e-07
6.65157967259e-07
3.63625905286e-07
5.85834128786e-07
3.17180249881e-07
5.06091270452e-07
2.93314613811e-07
4.13800023233e-07
2.84172417506e-07
3.21305835365e-07
2.6336956686e-07
2.42972093827e-07
2.2576994643e-07
1.84057083569e-07
2.0515971877e-07
7.93653269439e-08
2.66409487922e-07
2.85840879792e-07
2.85611473344e-08
-1.61887597337e-07
3.93098543155e-08
-1.2863374673e-07
9.28991119518e-08
-1.89640695396e-07
1.38307676125e-07
-1.82713961492e-07
1.45294247032e-07
-1.41491788845e-07
1.32376919642e-07
-7.74911619631e-08
1.83452873813e-07
-1.14116276291e-07
2.62056383174e-07
-1.64493478937e-07
3.16792187511e-07
-1.57572089006e-07
3.58510392026e-07
-1.47762260002e-07
3.97166141076e-07
-1.43394565513e-07
4.32806122028e-07
-1.37891551729e-07
4.63502323839e-07
-1.3118959915e-07
4.79591438111e-07
-1.17977423337e-07
4.84215860008e-07
-1.07713631634e-07
4.98726980355e-07
-1.11531915802e-07
5.38733861293e-07
-1.29675083983e-07
6.03399771491e-07
-1.62768015401e-07
6.78491678187e-07
-1.97322443399e-07
7.40462115738e-07
-2.15774764117e-07
7.8959710771e-07
-2.20610656465e-07
8.41567474612e-07
-2.20713401191e-07
8.95931355707e-07
-2.17744988376e-07
9.48933999843e-07
-2.14160241488e-07
1.00110559469e-06
-2.11481762324e-07
1.05291448495e-06
-2.09715574714e-07
1.10525681855e-06
-2.09146262593e-07
1.1575874439e-06
-2.08178410795e-07
1.21013948893e-06
-2.07430369953e-07
1.2616630889e-06
-2.06296090966e-07
1.31411848216e-06
-2.06603833711e-07
1.36411797678e-06
-2.04282829339e-07
1.41312125278e-06
-2.04244823684e-07
1.47203597311e-06
-2.15950552916e-07
1.53137315367e-06
-2.2545074842e-07
1.59003301479e-06
-2.32572696017e-07
1.6567022037e-06
-2.37630909834e-07
1.72088061631e-06
-2.33849030807e-07
1.77531802239e-06
-2.26158464868e-07
1.82551260901e-06
-2.13594179105e-07
1.87556235658e-06
-1.95100924375e-07
1.92390236516e-06
-1.7685725132e-07
1.96758008525e-06
-1.63884543823e-07
2.00660080039e-06
-1.5410825655e-07
2.04196197368e-06
-1.44018929286e-07
2.07396374316e-06
-1.323895237e-07
2.10270016027e-06
-1.19152692923e-07
2.12803852112e-06
-1.04530389675e-07
2.14983582639e-06
-8.85765347383e-08
2.16825428982e-06
-7.14265870039e-08
2.18282903552e-06
-5.40767972945e-08
2.19130332319e-06
-3.72230585946e-08
2.1920558713e-06
-1.85587271648e-08
2.18979746269e-06
4.53506256147e-09
2.18670709442e-06
2.71927230737e-08
2.17896301899e-06
4.51168569395e-08
2.16430202445e-06
6.11132484462e-08
2.14149374865e-06
7.83585685235e-08
2.10816229425e-06
1.00074490355e-07
2.0579000231e-06
1.33381046242e-07
1.97427162393e-06
1.94443452577e-07
1.83360115287e-06
3.17707986451e-07
1.67448578149e-06
5.20252077952e-07
1.53343644915e-06
6.93812468207e-07
1.37274709005e-06
6.82290262132e-07
1.22671834554e-06
5.14049826875e-07
1.11613497619e-06
4.1152474933e-07
1.02090853469e-06
3.90212963124e-07
9.29761733417e-07
4.21053337685e-07
8.32984318625e-07
4.78411413289e-07
7.28113493089e-07
5.02975295776e-07
6.24902328721e-07
4.67414589667e-07
5.23172848511e-07
4.19414224703e-07
4.24417066142e-07
3.92524595781e-07
3.33446159713e-07
3.7560077449e-07
2.40186184067e-07
3.57094469151e-07
1.59217764516e-07
3.0711374548e-07
1.07103506868e-07
2.57550946488e-07
5.51680996705e-08
3.18810406698e-07
3.411043513e-07
5.21724063631e-09
-1.66844338404e-07
3.2953123455e-08
-1.55887846026e-07
7.44877237178e-08
-2.3056987586e-07
1.07180648244e-07
-2.14903033885e-07
1.0324885917e-07
-1.37144518362e-07
1.32813712459e-07
-1.06643271391e-07
1.96671291392e-07
-1.77364809364e-07
2.45391464123e-07
-2.12563895124e-07
2.90216963528e-07
-2.01771698472e-07
3.34274506089e-07
-1.91305521132e-07
3.77190102438e-07
-1.85911734211e-07
4.05886775433e-07
-1.66265555434e-07
4.12819153625e-07
-1.37862275536e-07
4.20012591926e-07
-1.24901505207e-07
4.50197640512e-07
-1.37590990456e-07
5.03277580042e-07
-1.64285943497e-07
5.70560060037e-07
-1.96624504412e-07
6.34368436086e-07
-2.26254923925e-07
6.82505269982e-07
-2.45161444085e-07
7.2580440276e-07
-2.58798024831e-07
7.75600968118e-07
-2.70143894366e-07
8.28620779224e-07
-2.73487513147e-07
8.81659156161e-07
-2.70554923007e-07
9.33837592038e-07
-2.66134341312e-07
9.85607689563e-07
-2.63062772304e-07
1.03796529712e-06
-2.61906304935e-07
1.08983046585e-06
-2.60851150177e-07
1.14287697164e-06
-2.61086795019e-07
1.19454014896e-06
-2.58972569408e-07
1.24662525541e-06
-2.5827917945e-07
1.29541210932e-06
-2.55298864542e-07
1.3490087502e-06
-2.57792283353e-07
1.41011973491e-06
-2.65268507659e-07
1.46786765415e-06
-2.73612414913e-07
1.53085015894e-06
-2.88346755561e-07
1.59898855843e-06
-3.00636292326e-07
1.66150593471e-06
-3.00081632952e-07
1.71950005431e-06
-2.91791015671e-07
1.77344884173e-06
-2.800597793e-07
1.82467673501e-06
-2.64786301389e-07
1.87511550524e-06
-2.45509262756e-07
1.92386998768e-06
-2.25596565594e-07
1.96861147572e-06
-2.08620241058e-07
2.00864482689e-06
-1.94154665258e-07
2.04453858778e-06
-1.79936761904e-07
2.07675247811e-06
-1.64644963536e-07
2.10547196119e-06
-1.47921449781e-07
2.13064997429e-06
-1.29771891044e-07
2.15218849688e-06
-1.10183819494e-07
2.16994631182e-06
-8.92647746288e-08
2.18322405368e-06
-6.74364518396e-08
2.19064842006e-06
-4.47256579338e-08
2.19209497238e-06
-2.00604216301e-08
2.18996510409e-06
6.64627944857e-09
2.18469274357e-06
3.25049310692e-08
2.17346897422e-06
5.64444178262e-08
2.15310576207e-06
8.16554141646e-08
2.11935575561e-06
1.12365693662e-07
2.06544946354e-06
1.54313452051e-07
1.98133862857e-06
2.17877693702e-07
1.85745855823e-06
3.18778666769e-07
1.70695168019e-06
4.68730269621e-07
1.58237969227e-06
6.45367869915e-07
1.47620968151e-06
8.00514334289e-07
1.36393858844e-06
7.95031800277e-07
1.21915771636e-06
6.59189727205e-07
1.0667494373e-06
5.64261988372e-07
9.38663024569e-07
5.18659023519e-07
8.36607767996e-07
5.23523217989e-07
7.41611975915e-07
5.73889441933e-07
6.36797930418e-07
6.08318629825e-07
5.34674691662e-07
5.70004668896e-07
4.40967051901e-07
5.13522729987e-07
3.48446490186e-07
4.85432288697e-07
2.56637162124e-07
4.67798335575e-07
1.73512570322e-07
4.40576009388e-07
1.24366914666e-07
3.56555627476e-07
7.71146829371e-08
3.0509623592e-07
3.0342107197e-08
3.65724616782e-07
3.71644129906e-07
1.72557118315e-09
-1.68032617387e-07
3.78947999068e-08
-1.91626194085e-07
5.95321812744e-08
-2.51721928951e-07
7.48263810551e-08
-2.29719266175e-07
7.42601972883e-08
-1.3624589371e-07
1.37548698786e-07
-1.69442966367e-07
1.97117489307e-07
-2.36314967006e-07
2.27923422541e-07
-2.4274773828e-07
2.64900381709e-07
-2.38224456606e-07
3.03066728256e-07
-2.29015798987e-07
3.2982232256e-07
-2.12295269801e-07
3.27263676878e-07
-1.63451943392e-07
3.36649665506e-07
-1.46981368049e-07
3.73398189147e-07
-1.61339548501e-07
4.30903266471e-07
-1.94744853769e-07
5.03297655283e-07
-2.36307796407e-07
5.69848023963e-07
-2.62824051374e-07
6.1647969951e-07
-2.72576999094e-07
6.57831469373e-07
-2.86228271076e-07
7.08053629663e-07
-3.08748126473e-07
7.60041608785e-07
-3.21875653361e-07
8.10858175958e-07
-3.24065721613e-07
8.6246886783e-07
-3.2194773134e-07
9.15102824784e-07
-3.18566916498e-07
9.67224571409e-07
-3.15005950184e-07
1.01645426691e-06
-3.10971373894e-07
1.06959281649e-06
-3.13846088289e-07
1.1215608874e-06
-3.12927068422e-07
1.17427803727e-06
-3.11576952629e-07
1.22089732796e-06
-3.0480173777e-07
1.27234958661e-06
-3.0666496745e-07
1.32875144698e-06
-3.14108782805e-07
1.3877306511e-06
-3.24161270574e-07
1.46135851954e-06
-3.47155234976e-07
1.53536968443e-06
-3.62282050507e-07
1.60031805394e-06
-3.65523023531e-07
1.65982197093e-06
-3.59539103534e-07
1.71661128886e-06
-3.48544690296e-07
1.77112077117e-06
-3.34544803523e-07
1.82371044843e-06
-3.17359230701e-07
1.87499969091e-06
-2.9679255437e-07
1.92430099849e-06
-2.74903755103e-07
1.9699206002e-06
-2.5426338508e-07
2.0109733438e-06
-2.35247937826e-07
2.04761121475e-06
-2.1663384293e-07
2.08020878043e-06
-1.97316862685e-07
2.10896745119e-06
-1.76771867509e-07
2.13386916826e-06
-1.54779862541e-07
2.15477313237e-06
-1.31210035249e-07
2.17141951982e-06
-1.06045768737e-07
2.18323200261e-06
-7.93895783931e-08
2.18954091553e-06
-5.11692874853e-08
2.1905381394e-06
-2.11645078907e-08
2.18706270182e-06
1.00593472304e-08
2.17809321093e-06
4.14723666095e-08
2.16010136651e-06
7.44938634418e-08
2.12815738373e-06
1.13723764546e-07
2.07564697253e-06
1.65065044505e-07
1.99458048529e-06
2.35628917493e-07
1.87973888542e-06
3.33024134191e-07
1.73655644657e-06
4.62314128205e-07
1.58921057788e-06
6.16475471533e-07
1.48061466383e-06
7.54428332941e-07
1.37145039061e-06
9.10194934274e-07
1.23961517521e-06
9.27281242707e-07
1.12122480038e-06
7.77897613686e-07
9.84597819353e-07
7.01197252887e-07
8.51817227835e-07
6.5176704689e-07
7.42468098573e-07
6.33248326614e-07
6.40165090392e-07
6.7663802525e-07
5.37221171421e-07
7.11699384399e-07
4.5321735786e-07
6.5438610426e-07
3.64451656659e-07
6.02630533366e-07
2.73399925778e-07
5.76828763849e-07
1.89579989584e-07
5.51958866675e-07
1.34711786993e-07
4.95752494775e-07
9.00537738902e-08
4.0143983795e-07
4.87921156431e-08
3.46515828043e-07
2.12348991277e-08
3.93643459643e-07
3.92906217764e-07
1.32504224063e-08
-1.81100501981e-07
5.22871589336e-08
-2.30276223006e-07
6.87190176643e-08
-2.67763996981e-07
5.79195777254e-08
-2.1852498421e-07
8.31703451766e-08
-1.61087961315e-07
1.49120329871e-07
-2.3482547225e-07
1.81142175554e-07
-2.67735281944e-07
2.07181654946e-07
-2.68281389343e-07
2.34239364907e-07
-2.64785758335e-07
2.71720919771e-07
-2.66124590212e-07
2.7429032938e-07
-2.1456447086e-07
2.78488549868e-07
-1.67384103967e-07
3.12782947088e-07
-1.80962256412e-07
3.60135363323e-07
-2.08327193532e-07
4.2846987732e-07
-2.62683556027e-07
4.96073509926e-07
-3.03537905159e-07
5.41214560956e-07
-3.07635931209e-07
5.80656201716e-07
-3.1171820214e-07
6.33366983237e-07
-3.38650487549e-07
6.87526472119e-07
-3.6263684615e-07
7.38027436352e-07
-3.72127375856e-07
7.88673000563e-07
-3.7448264546e-07
8.40659217561e-07
-3.73719106461e-07
8.91099093845e-07
-3.68817355495e-07
9.40060279948e-07
-3.6379790564e-07
9.90391471053e-07
-3.61148918952e-07
1.04056026959e-06
-3.63876689144e-07
1.09373036242e-06
-3.65975931877e-07
1.14274436533e-06
-3.60488675054e-07
1.19066487604e-06
-3.52633273898e-07
1.24982625077e-06
-3.65738249875e-07
1.312514246e-06
-3.76714690981e-07
1.38480472086e-06
-3.9636909836e-07
1.45900520281e-06
-4.21280973543e-07
1.53170687775e-06
-4.34925205466e-07
1.59590956152e-06
-4.29684397926e-07
1.65523658134e-06
-4.18838772769e-07
1.71264889769e-06
-4.05942615656e-07
1.76853983365e-06
-3.90432066057e-07
1.82271200489e-06
-3.71539290106e-07
1.87516107559e-06
-3.49261924367e-07
1.92528145208e-06
-3.25060463402e-07
1.97181816497e-06
-3.00854318424e-07
2.01389074442e-06
-2.7739492622e-07
2.05136483557e-06
-2.54202069798e-07
2.08442035542e-06
-2.30488852988e-07
2.11316962861e-06
-2.05660058927e-07
2.13755328218e-06
-1.79326586345e-07
2.15741097049e-06
-1.51253518313e-07
2.17250847508e-06
-1.21345288467e-07
2.18249302292e-06
-8.95846091117e-08
2.18706113346e-06
-5.59305554066e-08
2.18616145325e-06
-2.04307233933e-08
2.17929025699e-06
1.68212804465e-08
2.16390957329e-06
5.67954721854e-08
2.13515476771e-06
1.03245159934e-07
2.08683568585e-06
1.62086577497e-07
2.01312514797e-06
2.38890714899e-07
1.9116589948e-06
3.37271377239e-07
1.78740556044e-06
4.57522000933e-07
1.65787426034e-06
5.92148896138e-07
1.5467707287e-06
7.27965049888e-07
1.434479152e-06
8.67170666841e-07
1.31992990191e-06
1.02517441333e-06
1.14936864021e-06
1.09820539615e-06
1.01593328155e-06
9.11637220836e-07
9.07600194593e-07
8.0982454047e-07
7.83789998341e-07
7.75894911958e-07
6.57961920155e-07
7.59441762541e-07
5.43102556359e-07
7.91879201168e-07
4.59007364376e-07
7.96168802847e-07
3.80894305873e-07
7.32829965619e-07
2.89474155368e-07
6.94382526243e-07
2.03066894376e-07
6.63564748971e-07
1.34630426102e-07
6.20707079644e-07
9.9691347398e-08
5.30946034644e-07
5.3589253704e-08
4.47775101344e-07
1.61948071345e-08
3.84177154771e-07
8.56613390705e-09
4.01322746104e-07
4.01661377828e-07
2.37032667061e-08
-2.04239686548e-07
5.43848932229e-08
-2.6054884524e-07
6.15484164805e-08
-2.74489797287e-07
4.02476181372e-08
-1.96900344297e-07
8.71118339138e-08
-2.07520527718e-07
1.36057261559e-07
-2.83198198392e-07
1.6031730139e-07
-2.9149858298e-07
1.86140306674e-07
-2.93624724001e-07
1.96799769405e-07
-2.75090405206e-07
2.17376323987e-07
-2.86323588157e-07
2.13895574707e-07
-2.10822928672e-07
2.50499403867e-07
-2.03674433039e-07
2.90492550027e-07
-2.20601206426e-07
3.50130151088e-07
-2.67577178082e-07
4.16855577943e-07
-3.29002351501e-07
4.62963529531e-07
-3.49280339989e-07
4.98578268326e-07
-3.42938147198e-07
5.50738415468e-07
-3.63579184917e-07
6.08174262188e-07
-3.95797383437e-07
6.59870702687e-07
-4.1406695647e-07
7.09515170059e-07
-4.21527925999e-07
7.59746649265e-07
-4.24484697306e-07
8.12989022534e-07
-4.26760971145e-07
8.65666520248e-07
-4.21318094411e-07
9.11973318726e-07
-4.09939600059e-07
9.65663590136e-07
-4.14696193173e-07
1.01447398119e-06
-4.12559240458e-07
1.06111220926e-06
-4.12502039067e-07
1.10948403268e-06
-4.08763349592e-07
1.17897670353e-06
-4.2203503259e-07
1.24081518463e-06
-4.27494831475e-07
1.30185423717e-06
-4.37670613458e-07
1.37757961504e-06
-4.72021936839e-07
1.45677899542e-06
-5.00422301711e-07
1.52418706841e-06
-5.02293556037e-07
1.58733567359e-06
-4.92811031505e-07
1.64842391791e-06
-4.79920858917e-07
1.70781633231e-06
-4.65343675334e-07
1.76561433626e-06
-4.48252584921e-07
1.82162419724e-06
-4.27585770178e-07
1.87556351299e-06
-4.03252570301e-07
1.92683851657e-06
-3.76404376247e-07
1.97448310025e-06
-3.48587521191e-07
2.01766801647e-06
-3.20690231411e-07
2.05604449895e-06
-2.92713770801e-07
2.08955821631e-06
-2.64166680922e-07
2.11815391717e-06
-2.34451448687e-07
2.14168916373e-06
-2.03092716255e-07
2.16001027608e-06
-1.69833933378e-07
2.17297826429e-06
-1.34596186351e-07
2.18044080985e-06
-9.73230961915e-08
2.18216565123e-06
-5.7922151573e-08
2.1776063536e-06
-1.60845554547e-08
2.16496922013e-06
2.93068847167e-08
2.14026947735e-06
8.13648849896e-08
2.09777929559e-06
1.45642144232e-07
2.03260684014e-06
2.27246844127e-07
1.94423752603e-06
3.27264397618e-07
1.83691823111e-06
4.44700181275e-07
1.71798233433e-06
5.76623032755e-07
1.60284641393e-06
7.07539960828e-07
1.50194354959e-06
8.29202887187e-07
1.41108220025e-06
9.58427632442e-07
1.34182548904e-06
1.09485388198e-06
1.19683594385e-06
1.24361608554e-06
9.5612124028e-07
1.152686624e-06
8.02541938674e-07
9.63664671881e-07
6.7482481991e-07
9.03883051533e-07
5.5077422712e-07
8.83769920605e-07
4.56514066248e-07
8.864736067e-07
3.88395860134e-07
8.64610702604e-07
3.02727956964e-07
8.18833626166e-07
2.14217034395e-07
7.83230334609e-07
1.3700215782e-07
7.41104640711e-07
8.59176988002e-08
6.7209040932e-07
4.72506122381e-08
5.69865435233e-07
7.24020381367e-09
4.88000479514e-07
-2.517958686e-08
4.16719210989e-07
-1.75893988035e-08
3.94095160077e-07
3.84085340827e-07
2.83616608519e-08
-2.32401674018e-07
4.77823404695e-08
-2.79575585562e-07
4.29763170244e-08
-2.6936580214e-07
4.67721415007e-08
-2.00352053078e-07
9.58883941547e-08
-2.56185545449e-07
1.15679151125e-07
-3.02509405197e-07
1.36959812502e-07
-3.12353568227e-07
1.61204616861e-07
-3.17495166921e-07
1.68840463075e-07
-2.82360954027e-07
1.81748845627e-07
-2.98907303573e-07
1.96532541618e-07
-2.25298454335e-07
2.30015119626e-07
-2.36824074419e-07
2.72805706325e-07
-2.63002374115e-07
3.36750352719e-07
-3.31099293466e-07
3.92634862859e-07
-3.84503948293e-07
4.25785579899e-07
-3.82096507229e-07
4.65954950079e-07
-3.82795498037e-07
5.20541428578e-07
-4.17860667614e-07
5.7545792989e-07
-4.50426833666e-07
6.27149230041e-07
-4.65490738016e-07
6.77469686379e-07
-4.71596822184e-07
7.25934139225e-07
-4.7273351905e-07
7.74956290977e-07
-4.75598047446e-07
8.25590085973e-07
-4.71783282069e-07
8.7198174773e-07
-4.56186682853e-07
9.22860137106e-07
-4.65438740552e-07
9.7731645415e-07
-4.66894126271e-07
1.03519402331e-06
-4.70276085186e-07
1.09564568199e-06
-4.69125812353e-07
1.15445806283e-06
-4.8076201409e-07
1.219273898e-06
-4.92224708958e-07
1.30134648287e-06
-5.19665820885e-07
1.37836791365e-06
-5.48980149265e-07
1.44646272414e-06
-5.68475726293e-07
1.51221586293e-06
-5.68028192652e-07
1.57682566034e-06
-5.5742135896e-07
1.64023165943e-06
-5.43344540055e-07
1.70206054665e-06
-5.27206447111e-07
1.76215547086e-06
-5.08397934829e-07
1.82032741376e-06
-4.85824108932e-07
1.87617070377e-06
-4.59179876393e-07
1.92903346756e-06
-4.29369759151e-07
1.9780886636e-06
-3.97766409527e-07
2.02256889558e-06
-3.65319656786e-07
2.06194766241e-06
-3.32274698166e-07
2.09589327361e-06
-2.98332217444e-07
2.12412847265e-06
-2.62953604883e-07
2.14640868757e-06
-2.25680984467e-07
2.1625839943e-06
-1.86356585008e-07
2.17263606143e-06
-1.44999640301e-07
2.17652898404e-06
-1.0157568421e-07
2.17398877496e-06
-5.56883353844e-08
2.1638707322e-06
-6.20518167596e-09
2.14326382177e-06
4.96839161561e-08
2.1072893201e-06
1.17148312552e-07
2.05059565677e-06
2.02185886193e-07
1.97242675093e-06
3.05222686224e-07
1.87998290881e-06
4.19666716118e-07
1.77774614442e-06
5.46910692842e-07
1.66066337196e-06
6.93812806895e-07
1.5421723884e-06
8.26235951218e-07
1.44619986037e-06
9.25478059524e-07
1.37631137579e-06
1.02870706888e-06
1.32539362591e-06
1.14622293954e-06
1.2767832184e-06
1.29268321808e-06
1.03675070025e-06
1.39308862001e-06
7.19069456916e-07
1.28162139945e-06
5.73910520137e-07
1.04923936482e-06
4.66309968886e-07
9.9161699425e-07
3.85137536842e-07
9.67902524053e-07
3.09564012301e-07
9.4050667283e-07
2.17002860301e-07
9.11741277303e-07
1.40427949685e-07
8.60150900242e-07
7.35538429145e-08
8.08316545217e-07
2.37672999803e-08
7.22142244435e-07
-2.61477683653e-08
6.20009137894e-07
-6.086360206e-08
5.22934186932e-07
-7.56022061414e-08
4.31740454555e-07
-4.9765150692e-08
3.68275516082e-07
3.34500530095e-07
2.97619158406e-08
-2.61513400874e-07
4.54664392409e-08
-2.9480795958e-07
3.19560532625e-08
-2.5546908155e-07
4.99720823054e-08
-2.18032461021e-07
8.81827834083e-08
-2.93967321696e-07
9.52473083704e-08
-3.09196934415e-07
1.11098220314e-07
-3.27787598497e-07
1.23800548325e-07
-3.2987593789e-07
1.43745948477e-07
-3.01993847859e-07
1.39868420982e-07
-2.9469971012e-07
1.69079316664e-07
-2.54198145237e-07
2.0711206958e-07
-2.74486632715e-07
2.50887847172e-07
-3.06402608028e-07
3.06902049489e-07
-3.86709297928e-07
3.48350008859e-07
-4.25575142076e-07
3.75376070139e-07
-4.08806181891e-07
4.24818836793e-07
-4.31927028147e-07
4.81843334694e-07
-4.74578452987e-07
5.35805246011e-07
-5.040999189e-07
5.88919251116e-07
-5.18338351887e-07
6.41655039961e-07
-5.24103473347e-07
6.92392458151e-07
-5.23264316761e-07
7.3742099241e-07
-5.20436095879e-07
7.84938089659e-07
-5.1914392941e-07
8.38768373834e-07
-5.09878190535e-07
8.86044877434e-07
-5.12583861771e-07
9.36010375027e-07
-5.1675438044e-07
9.84638936481e-07
-5.18813105238e-07
1.05403819347e-06
-5.3843469297e-07
1.12625828802e-06
-5.52899207516e-07
1.20311079808e-06
-5.68996142154e-07
1.27988940911e-06
-5.96372048084e-07
1.36151244877e-06
-6.30552387517e-07
1.43224790747e-06
-6.39189645091e-07
1.4986016788e-06
-6.34383874114e-07
1.56487082056e-06
-6.23712365351e-07
1.63078104244e-06
-6.09295611087e-07
1.69536112222e-06
-5.91847185813e-07
1.75812300746e-06
-5.71239200723e-07
1.81881118404e-06
-5.46610921831e-07
1.87697625425e-06
-5.17462095613e-07
1.93190889283e-06
-4.84439552568e-07
1.98279505813e-06
-4.48813999587e-07
2.0288603058e-06
-4.11579180207e-07
2.06941820699e-06
-3.73065964975e-07
2.10382664746e-06
-3.33028029982e-07
2.13150931426e-06
-2.9097406348e-07
2.15205889013e-06
-2.46625804366e-07
2.16535432962e-06
-2.00065339969e-07
2.17146218784e-06
-1.51548308719e-07
2.17049404967e-06
-1.00995805535e-07
2.1620742607e-06
-4.76034226073e-08
2.14463806115e-06
1.0967203671e-08
2.11468385849e-06
7.93798387767e-08
2.06729142492e-06
1.64226580069e-07
1.99829520463e-06
2.70867214293e-07
1.91259912552e-06
3.90763045709e-07
1.82540398424e-06
5.06532790449e-07
1.73379031525e-06
6.38449911253e-07
1.60129101962e-06
8.26306906363e-07
1.45679391923e-06
9.70974694671e-07
1.36077209251e-06
1.02191078496e-06
1.30430537896e-06
1.08566851333e-06
1.27642966969e-06
1.17465304303e-06
1.27513700067e-06
1.29452863428e-06
1.21039786464e-06
1.45833037201e-06
8.69143128975e-07
1.62326763286e-06
4.90683140668e-07
1.42794096374e-06
3.78910701513e-07
1.10354065097e-06
3.0642834957e-07
1.0406316324e-06
2.15228227191e-07
1.03201802029e-06
1.17900729146e-07
1.00944937668e-06
7.32080015392e-08
9.05244301475e-07
1.34627252692e-08
8.68374054483e-07
-5.40204066076e-08
7.89868569646e-07
-1.16459829207e-07
6.82660466491e-07
-1.46071379275e-07
5.52679038427e-07
-1.30909332115e-07
4.16668139667e-07
-7.79901318513e-08
3.15705245182e-07
2.56504973712e-07
2.44086853826e-08
-2.85777111708e-07
3.65046324764e-08
-3.06636937625e-07
2.84533469036e-08
-2.47159186456e-07