/*--------------------------------*- C++ -*----------------------------------*\
| =========                 |                                                 |
| \\      /  F ield         | OpenFOAM: The Open Source CFD Toolbox           |
|  \\    /   O peration     | Version:  v1806                                 |
|   \\  /    A nd           | Web:      www.OpenFOAM.com                      |
|    \\/     M anipulation  |                                                 |
\*---------------------------------------------------------------------------*/
FoamFile
{
    version     2.0;
    format      ascii;
    class       volScalarField;
    location    "821";
    object      alphak;
}
// * * * * * * * * * * * * * * * * * * * * * * * * * * * * * * * * * * * * * //

dimensions      [0 0 -1 0 0 0 0];


internalField   nonuniform List<scalar> 
6400
(
0.904957041134
1.46796561638
2.34231369945
2.95924444709
3.54718810316
4.1295558405
4.84050728291
5.63184962387
6.15348637588
6.92180946767
8.23267228553
9.2092686459
10.0471418172
10.9686045195
12.0724593659
13.2362113336
14.309430484
15.3233563005
16.1853777095
16.7434991967
17.1079118526
17.6297225847
18.501479654
19.6889572913
20.9719391467
22.1486670339
23.1602697603
24.111151562
25.0969129762
26.1328762168
27.1637550367
28.0098722287
28.5945236407
29.0279436771
29.3585443589
29.6000122783
30.0042772495
30.5991806749
30.9082184286
31.0163971091
31.4658539482
32.3722164081
33.2662005323
33.7979632922
34.0021787657
33.9735588488
33.7766972626
33.4516773451
33.0114197604
32.4749028165
31.768599804
30.6955048083
29.2389249891
27.4851102944
25.8373584555
24.305630691
22.3067615528
19.6415226841
16.8595217016
14.4237856104
11.9646001019
9.39793836065
7.05485506367
6.60494431735
9.36551658855
13.799099726
16.5267621608
16.0448809394
13.9112408034
12.2263908789
11.3529132716
11.6246685684
12.2728839204
12.228081194
14.4303280965
13.9201903165
15.8912471672
9.7862521308
12.8528031982
4.79939543696
3.17483742609
2.56729027176
3.21548124694
4.50060388918
4.51812580824
4.53602584325
4.84459717464
5.37354393748
6.10892635714
7.03438531426
8.13444379259
9.23498002626
10.2222991536
11.1729204054
12.148609494
13.2565504036
14.4246732745
15.537735147
16.6399323348
17.0393857866
17.2363409
17.7436131225
18.6023059392
19.7817399678
21.1691439309
22.2980117506
23.2841666027
24.2677041188
25.2656968819
26.2737683616
27.2801398063
28.2009582489
28.7793094331
29.2049718424
29.5623335901
29.7355528924
30.1778108309
30.7975665511
31.0727046528
31.0712983183
31.4964916908
32.8195359452
33.9474850524
34.3992486223
34.5533070399
34.4657679262
34.1957707326
33.8202765014
33.2538760797
32.5824203068
31.9290274372
31.2647693651
29.9606350411
27.7076506979
26.1487551577
24.4445038363
22.0162191426
19.4109886451
16.8129141802
14.227080993
11.7788282435
9.67766319248
7.42758668212
7.11786476487
9.66486933764
14.8741059714
18.3368469609
16.8705806254
14.5661471828
12.5611102316
11.8672048109
12.3566587713
13.5758883207
13.0475279606
12.9828446298
12.5348167303
11.4096695919
9.62168549748
8.1227140068
4.20286022008
3.31751108289
2.95295753649
3.48174836459
3.84427822425
4.48424360571
4.98938664992
5.02677318302
5.26288346639
6.00360946503
7.00599981329
8.11767626199
9.23748924494
10.2674800828
11.2182234347
12.0497596153
13.0628887352
15.5932031951
17.6023070951
18.1767025222
17.8606341477
17.0424584758
17.4554097073
18.7074797623
19.9335636416
21.1099563142
22.292685091
23.3702698
24.3557946062
25.334285832
26.3357210919
27.3137280185
28.3111355184
28.8807091484
29.1128595341
29.7250032608
29.9179010947
30.1103825869
30.8784535219
31.208359102
31.2751728921
31.7150686483
32.5961928496
33.4622023835
33.9940325887
34.2231978454
34.2348633989
34.0713381832
33.7523080725
33.2809983245
32.6766852247
31.9359468117
30.9460895325
29.5839423228
28.0673040279
26.4802122729
24.3778021286
21.9397515209
19.3906386288
16.8141626651
14.2859771965
11.9016939575
9.61532124026
8.00310059036
8.4993631967
12.0322857528
15.9307366589
17.7947464945
17.7050784244
16.0125454454
14.2976569626
13.6188760104
13.5605439034
12.9247343872
12.3800934273
12.4443147117
12.1958419031
11.2934626309
9.71062487342
7.27560911014
7.48863278763
3.41797486504
5.59577651551
3.88013059099
4.05822180806
4.79629471285
11.9689563823
10.4037717792
5.75852436229
5.95889812858
6.9925762225
8.13589805971
9.27764061106
10.282443361
11.233203455
12.9042837066
14.9696316086
16.7041653805
17.3334790645
16.6982678625
16.3283931737
16.8797567561
17.6850961932
18.7061018334
19.9226388558
21.1835982887
22.3928312106
23.4939226825
24.4628158227
25.4537949825
26.3970187498
27.4736447949
28.3067817423
29.1024312969
29.3129491735
29.3646798639
29.980263483
30.2608480284
30.566250532
31.0424460265
31.4790512843
32.0172603762
32.7650734009
33.5154535314
34.0430178476
34.3098288046
34.3567105413
34.2198919713
33.9206601252
33.4678773907
32.8669231258
32.0983804791
31.0977269234
29.8209130415
28.321426742
26.5649089385
24.4299698726
21.9920084944
19.4351892268
16.8784518997
14.4177141345
12.1685841616
10.3501223384
9.56490898134
10.1072322974
11.9602511917
16.4316643951
19.5287506482
19.5005405818
17.7254969961
15.2987031358
13.6573620734
12.8661970758
13.0790890646
14.584826106
14.5891535542
13.32615604
13.2523529802
16.6066903821
12.9773021373
10.9690804182
5.85108919266
7.69864664868
4.75129122973
5.07358742046
6.79847484412
11.8693461504
8.5085577823
6.30992579127
6.48761635674
7.20702771566
8.27067257617
9.42280202367
10.8729053862
13.0645735379
14.1613496629
14.723793564
15.0352027718
15.2174067517
15.6257148416
16.3663231012
16.9984053853
17.7426625227
18.7953950383
20.0134705335
21.2835231265
22.5165227251
23.5960279388
24.663833362
25.5524023618
26.6335200602
27.5126780213
28.7930462468
29.0461771604
29.0228720193
29.4259983416
29.6271085116
30.0791956378
30.639823356
31.1928864514
31.7145648562
32.2857925266
32.9619391384
33.6333363638
34.1460393812
34.4380440268
34.5167880098
34.4073552959
34.1308298208
33.698129396
33.1081062262
32.3383953869
31.3470707569
30.1047113351
28.6004492026
26.77439197
24.5821709834
22.130675539
19.5963508969
17.1204782198
14.8411541813
12.94806956
11.7384974672
11.5139880679
11.6081015559
12.6040597557
16.2406580072
19.7408591113
20.8735128373
19.5810850386
16.7387864091
14.1891568542
13.8334517904
16.1470342025
17.0571365678
16.0599637871
15.1899113518
17.9235340999
20.9832629476
16.2436764126
15.3513550563
10.1248950928
9.31537572719
5.92603449375
6.41156923248
12.1616819511
11.6694941041
7.11149658736
6.94947205252
7.13894874267
7.56290079752
8.49468067248
11.0264747293
14.1199081351
14.6719776643
14.5098488701
13.9446557817
13.9742410085
14.6227776741
15.6957778489
16.3204628945
16.9116276616
17.81115023
18.9262751187
20.1660601219
21.3747977472
22.613009331
23.8908958164
24.759805715
25.9639260506
26.6861844686
28.1577037793
28.620568308
29.5161642212
29.180022484
28.9824904745
29.4250743365
30.1040138681
30.7778908764
31.3912575456
31.9632742099
32.5547056548
33.1938635655
33.8144332677
34.3105219619
34.6173991307
34.7226854658
34.6400755215
34.3889477017
33.9810867201
33.4127052485
32.6612498549
31.6911141782
30.4650853273
28.9402947443
27.0654693029
24.8532322026
22.4371464601
19.998337717
17.7025152115
15.7287725461
14.2852839233
13.6232728038
13.7568508875
13.0288530852
14.6470947871
18.3805580253
21.2436793941
22.2673878403
21.179317689
17.7158282936
15.4231387258
17.1715724361
19.3703608289
18.848517402
17.8829015072
17.9949960383
22.6661654385
24.2915342025
19.2281761443
19.0322500043
12.2714997516
9.28942743017
7.1966937328
6.74691503823
12.150090279
8.76964437982
7.43680247548
7.58065489943
7.75050629806
8.47921821422
9.06218162553
13.7213414312
14.5289658209
14.6912299871
13.6509768753
13.0661977441
13.6276685498
15.0154198177
15.6293053291
16.0561299308
16.9159011662
17.9107326437
19.0292917011
20.2653213304
21.6204196535
22.9172306957
23.9104982326
25.3964489923
26.0577524487
27.6125588167
27.9555795892
29.107219361
29.087338398
28.9866837941
28.8659305388
29.4079151052
30.2017144884
30.9528009516
31.6120788031
32.2222922644
32.8339975319
33.4585860825
34.0504104248
34.5340275629
34.8506352842
34.9779902304
34.9221293669
34.7006781584
34.3253366515
33.7904423833
33.0714051607
32.1294076493
30.9161949995
29.380309795
27.4959870622
25.3225245807
23.0173363711
20.7665508345
18.7331520191
17.0709395658
15.9623595809
15.460267408
15.0964470728
15.0509597808
16.6614942086
21.2477197589
22.8976239741
22.8168521495
21.5211014471
19.1158713099
18.6876774356
21.1212878685
21.4837263646
20.6362749332
20.0614854717
22.1110368728
24.9461533386
26.4717110079
21.837921604
20.6936424249
12.0498398726
9.0727791641
8.38171061732
12.3882793931
12.320391546
8.00347480688
8.13000455014
8.30989946602
8.4089860524
9.02001647013
13.4261265942
14.4097367463
14.6178663382
14.3034211833
12.650401996
12.7232723553
14.3033676455
15.1105897992
15.3038848545
15.9297339186
16.9376185732
18.0534624621
19.2070796423
20.4892593492
21.7055005122
23.2026548019
23.9726786756
25.4099501483
27.0432710373
27.7511478944
27.7051668776
28.6697436168
29.113383526
28.5970137346
28.8790312022
29.5585782415
30.3616394354
31.1430894802
31.8465569584
32.4956928795
33.1308728648
33.7569107856
34.3370554192
34.8144252188
35.1391093949
35.2864953913
35.2590454473
35.0731016716
34.7394090652
34.2499447334
33.5763406503
32.6734664359
31.486504459
29.9718875329
28.1386983295
26.0855549558
23.9775436954
21.9650416233
20.1467300157
18.6473930081
17.6513483501
17.1675299196
17.0294834693
17.2992189253
17.3198800354
21.9611166703
25.0324222517
24.5624415959
23.6616248556
22.4727323628
23.0147783449
24.1567824391
23.3455306136
22.6164723409
22.8421642495
25.2912259958
26.0562428566
26.7204663753
23.831472334
21.6809630182
11.4137367833
9.1069472112
9.06896078247
13.4022337059
11.4413882763
8.72151607682
8.88458793635
9.19807085338
10.2764133516
9.17803854196
14.1935962107
14.9621416726
14.6812058879
13.2195352841
12.3834062163
12.8524014528
14.3519360361
14.8604669522
15.1989762093
15.935099808
16.9267086447
18.1038576909
19.3459349792
20.9809383161
22.3709990329
23.1719047273
25.0876903757
25.3451674696
27.1776369324
27.3495699325
28.5869042196
28.1519056488
28.2261403711
28.5384303381
29.0540858235
29.7617610535
30.555506118
31.3513013916
32.0952853165
32.7875545197
33.4519538609
34.0900833093
34.6716445479
35.1503975403
35.4844060403
35.6524343378
35.6573092296
35.5142121356
35.2320888514
34.8006901162
34.1879426015
33.3438456665
32.2146627548
30.77681797
29.0766739381
27.2348191109
25.378671864
23.549451555
21.7733331485
20.2976502111
19.4617567136
19.2962261418
19.4630410461
19.5744642246
19.4084323314
20.1366694999
25.6593469004
26.8473343879
26.3823580982
26.5700190771
27.2056029824
26.5264672825
25.2927549089
24.9853509559
26.0202963904
27.3617963563
27.3457650189
26.834547128
25.8652772379
24.5152344073
10.9964799321
9.63114640636
10.2177405834
13.5109422609
9.7167932417
9.75208089514
9.64459486116
9.93245412358
12.80826136
11.6384952263
15.0275616115
15.2638532044
14.7979892317
12.659666976
12.4536009335
13.9909796892
14.5552705621
14.6386252416
15.1566244679
16.0586703739
17.0374342029
18.1592566299
19.2616723914
21.0975748965
23.2427037401
23.120543732
25.0229047418
26.4694461355
27.3809589628
28.2432555512
28.034497611
28.3164125682
27.9959439169
28.4727207714
29.2204957774
29.9873470177
30.7777222542
31.5803080659
32.3586292765
33.0977039964
33.8005997815
34.4611033568
35.0538308932
35.5414449155
35.8892904226
36.0812455823
36.1237673397
36.0321401792
35.8127800912
35.4536728231
34.9217377137
34.1671122191
33.145977728
31.8625667288
30.3930270888
28.8393238619
27.2059015654
25.3681308751
23.4856457872
22.1948873765
21.8656192742
22.1909022674
22.5112881336
22.4455790971
21.9647184793
20.5504355663
19.8020951946
28.9132996758
31.2267397026
31.6341481612
30.9128144932
28.9811867687
27.6545051397
27.7161307594
28.931986806
29.4792550268
29.4697018011
29.3614378309
29.8176232994
30.0676786425
11.098048176
10.5387218162
13.5237758612
13.7685319927
9.95452791492
10.5454802076
10.4049501193
10.8383415361
12.445982493
15.0100176158
15.9078540638
15.5865433164
15.102436374
12.7709515528
12.6264094759
14.4632629331
14.6758039854
14.6279809004
15.1681163889
16.164960161
17.347677073
18.495622017
19.4073977405
20.7234849914
23.3814621419
24.7134340688
24.7272507563
26.5493786654
26.485343835
28.2389898876
28.850073055
28.297231052
27.9881068701
28.5791048324
29.4123113409
30.2218533854
31.0234415711
31.8348479952
32.6394606731
33.4250335667
34.1766941705
34.8714170862
35.4847996373
35.9886470375
36.356598255
36.5791901787
36.6670959992
36.6359273476
36.4906939321
36.2199923039
35.7941602056
35.1712386207
34.3272672944
33.2965420182
32.1571923561
30.9077785775
29.3345672275
27.3081574144
25.5113271788
24.8812670663
25.4394922642
26.2704191357
26.6493198365
26.3736557344
25.440494007
23.6425244732
21.1594651419
21.0584589052
32.9462039335
37.4775599287
35.5278213693
32.3058760461
30.7134834825
30.7127085819
31.5182566217
32.2665363601
33.0622815934
33.9265066255
34.7033133603
35.4699458849
11.5557979632
11.4608636296
15.1963086676
14.5744707143
12.8144312442
11.8052328425
11.3987027802
12.2766114613
12.0444254284
15.9874304039
16.6183683935
15.9918132388
15.2846210555
13.4682198741
13.3813249553
14.900722355
14.7286266436
14.7239585224
15.2691785937
16.1858290389
17.4574588479
18.9287528578
20.6579229549
20.8090600867
22.8844413683
25.0393650561
24.6508699172
26.7448218747
27.8274012374
27.5875705859
28.1139423478
27.8545127996
28.2517492192
28.8811336124
29.6584326554
30.4767301708
31.2957261991
32.1218852636
32.9448425579
33.7673217552
34.5755111446
35.3221592871
35.967457999
36.4940649184
36.890052163
37.1532317991
37.2966490229
37.3353976225
37.2750159802
37.1089373454
36.8176654718
36.3792977405
35.8009570245
35.133201701
34.3837797739
33.3215337854
31.6571514333
29.6926878115
28.3880899844
29.0034655752
31.2254868748
32.5287564202
32.9571905038
32.5913023743
31.4729269518
29.2974083515
26.0018441456
21.4090153059
28.5472316406
38.7063106585
40.9147986335
37.0283194672
34.975572364
34.3633391252
34.8121265943
35.8900061686
37.7958816405
39.1768852947
39.3516850144
39.7085101507
12.2239870667
12.150442579
15.0070677733
15.1341743036
15.1828735792
13.0085859882
12.5196259993
15.041293815
12.5105915494
16.8555115253
17.1621152246
16.4038881254
15.4577081374
14.1414983293
15.78532063
15.9314438639
14.9647421196
14.9588072567
15.5057756542
16.3006842895
17.3913522676
18.9097203123
21.8151480047
22.8181630193
22.4115893268
25.0522029851
26.1727852652
26.337247233
27.7647244332
28.4495347682
28.3849416154
27.8973661226
28.4422581835
29.1906861239
29.9583490876
30.7650326119
31.5880151205
32.4394948867
33.2954482752
34.1428770723
34.9938671501
35.8025875565
36.5004507972
37.0620976299
37.4948339048
37.8107256097
38.0225124483
38.1409249353
38.1733314036
38.1241708978
37.9956079038
37.8032161043
37.5912644139
37.3789262467
36.9678430421
35.8866209328
34.6479327464
33.9432469704
32.8050691645
34.8769433649
35.3983231831
34.4982870626
32.5915289618
30.4215742264
27.0374747823
22.9836531885
19.4539998743
10.8768795099
10.0368121884
29.7833290354
37.9195858195
36.7121334738
32.5896676566
31.9179991567
32.9012264782
38.0068015246
42.6592382177
44.6426964719
44.9027067647
45.2280169348
12.9441451434
12.8904915539
12.5404584957
15.5070119466
15.7711657901
13.8467245469
13.520612857
16.0796498306
13.2366050804
17.7635164591
17.6588405968
16.8288259935
15.7271325895
14.5016207133
16.9215689316
16.5751233919
15.4605991451
15.3769640234
15.8536644023
16.5857373667
17.4463683672
18.7650996029
22.261377344
23.8666911876
22.7331561618
25.0110996467
26.6404457926
25.9380978248
27.3625330037
28.0696386678
27.690993717
28.2169560916
28.8550007902
29.5509310492
30.2904239806
31.1011398234
31.9294596953
32.7744128923
33.6661768026
34.5662973836
35.4561752438
36.3149576516
37.0739942905
37.6897743981
38.1758284533
38.5605670761
38.8554448601
39.061005638
39.1889413534
39.2620425869
39.3164295201
39.4337751236
39.6859797763
39.9570888677
39.628728073
38.5720175388
39.055202887
32.8301304292
26.5642482434
16.8002531943
1.47172444608e-05
2.98874083995e-09
1.03515689166e-11
1.05614767846e-12
8.38115722114e-14
2.36080289313e-14
2.77884263649e-13
2.83929098916e-12
3.20727899522e-11
8.37711665147e-11
1.39108551305e-07
3.65153139978e-05
0.0333208009614
16.5643989601
40.1195986842
42.604364734
44.3142351589
49.1572980509
51.6659298162
52.0316231881
13.8411778195
13.940346068
16.1605001446
16.2012931139
16.2781845997
14.5627047999
14.5866039975
16.9864317655
14.2904497058
18.5645222806
18.1409757754
17.2794867431
16.0773633294
14.9235625398
17.2358194362
16.8495339409
15.9475743974
15.8583698317
16.2490692125
16.9003460212
17.6783423077
18.7365218598
21.725443323
24.6492374718
24.8994034081
24.4387797181
26.8109094024
27.8114956596
26.4637272877
26.8298502737
27.6215174858
28.433044638
29.196533371
29.9253185927
30.6759103486
31.4670474536
32.3044910929
33.172901074
34.0666625725
35.012339004
35.9651737076
36.8767316525
37.6912317796
38.3699835267
38.9316616844
39.4086348433
39.8049585576
40.1084025844
40.324685741
40.5008654132
40.7491760554
41.2332978335
42.0058595292
42.6250984995
41.9088648365
39.0200483106
25.6003175121
3.51033933209e-15
3.86100924265e-18
7.23801207476e-20
1.22689264775e-21
3.54970483708e-24
1.00874862903e-26
1.74612478388e-31
1.36582398659e-31
3.31590656266e-31
2.23518318922e-30
1.04694732664e-29
3.86742865065e-29
2.45769046917e-28
1.92431677425e-28
1.66944942483e-26
9.50195670531e-24
9.55149403724e-22
7.24797048239e-20
1.66903246188e-17
2.80950683903e-13
46.3374040883
56.3304696428
54.356174912
14.6873274304
14.8818587406
17.7960498868
16.9354105135
16.4840868728
15.2745083583
15.6126568394
17.7718592103
17.7513100968
19.5644859879
18.6943354535
17.8271929397
16.5173352682
15.4835445243
17.5689758139
17.0507986521
16.4018879651
16.3426981658
16.6551346215
17.2177841074
17.9510393367
18.933847128
21.2432987671
24.8785560726
26.2076147307
24.2437410656
26.2793784389
27.8896130722
27.9892954432
27.1853852739
27.6663364575
28.6231302122
29.5303948671
30.3350710147
31.063092706
31.8633280764
32.7048472526
33.5996343521
34.5230022337
35.4957161454
36.5096517877
37.4916871343
38.3605836626
39.0936093352
39.7460401424
40.367580792
40.9131457304
41.3075750621
41.5491751707
41.7989733066
42.2695583756
43.1374628792
44.4291723601
45.0596758545
35.996565398
12.5670470207
1.94118490679e-21
7.86086208656e-24
2.27323406524e-25
3.3094120969e-27
2.6888273942e-30
4.48656618171e-33
3.16260109181e-34
0
0
0
0
0
0
0
0
4.39863878423e-38
1.48356979964e-35
2.21910419943e-33
1.28745319167e-30
1.79825614601e-27
9.73801663007e-23
1.47883538232e-18
1.1529567086e-11
61.7414906262
15.3760924545
15.5923123689
19.8994541263
17.5127943447
16.4528248795
15.8980341125
16.3543636756
17.906017702
19.3306169472
20.7022492415
19.401080327
18.5102581351
17.2056189519
16.3248013098
18.106812017
17.3978395221
16.9259301314
16.8691409664
17.097951976
17.5712713189
18.2281254864
19.1364203905
21.0346446412
24.7275226002
27.1633337444
26.5553404473
25.7676037373
27.233508707
27.7954777231
27.2741756025
28.0680222888
29.0398558755
29.9931300618
30.7921887775
31.5448720294
32.2988252621
33.1546121287
34.0581093067
35.0182740067
36.0289533302
37.0877374269
38.1447169757
39.1035932061
39.8944884338
40.637324469
41.4298988913
42.1573029812
42.6315240202
42.8715756305
43.1733775457
43.850016959
45.0595759184
46.496535848
35.5444595816
1.25956579876
2.81039075615e-24
9.21685801248e-28
3.72691671994e-29
5.08153875509e-31
1.39349602821e-33
0
0
0
0
0
0
0
0
0
0
0
0
0
5.66764557106e-37
5.63203845455e-36
1.23466485796e-34
5.98671916642e-33
3.32456252621e-29
2.76724485721e-20
5.33431113201e-25
15.9058044225
16.1137732061
21.9135987078
17.9541497638
16.640978044
16.4656119937
17.1509193901
17.3829957255
20.2634913266
21.5152268261
20.0778538698
19.2037320374
18.0809779608
18.1358694853
18.8601118974
17.9835341853
17.6407982699
17.5840627887
17.6473456993
18.0092410116
18.5565805456
19.3812356982
21.0033163182
24.5456891352
27.5421059661
28.1496014562
25.7186035947
26.2805022493
26.7254186666
27.349525334
28.3462764032
29.4797095671
30.4489415535
31.2960979784
32.0762119494
32.8852303359
33.6698734032
34.578487012
35.5574120233
36.5919700563
37.7266848399
38.8726853501
39.9105075052
40.7155443182
41.4970587436
42.7892534669
44.3560113624
45.0240500213
44.6125598485
44.7692636091
45.5698387452
46.9015704423
34.7381653421
1.48720852334e-18
2.24141806134e-23
1.00553538374e-34
1.01610596207e-31
1.65800490889e-33
0
0
0
0
0
0
0
0
0
0
0
0
0
0
0
0
0
0
8.75633471816e-36
5.92964524308e-35
1.09347574495e-32
97.7385467036
16.3508120986
16.5253322469
21.7788726625
17.4745479415
16.880695314
16.9500401895
18.0477941092
17.4453415284
21.0578644622
22.2627187548
20.7109551913
19.8390198429
18.7628797209
20.2657447185
19.8899765044
18.7669643088
18.4614682572
18.6306592514
18.4157277744
18.614259284
18.9825728963
19.673460136
21.1085583962
24.3524158554
27.3808760863
29.2057713401
28.1594032195
27.4505577079
27.4716768477
27.5352238468
28.5868832462
30.0223551701
30.8840430743
31.8125465661
32.8010060818
33.4840899441
34.272314056
35.194011662
36.20037344
37.2558657177
38.3817595469
39.6000929314
40.7782604823
41.894763942
43.1083876954
44.7297361185
46.1639689323
46.5686759721
46.7464693717
47.1307946278
47.8483188484
38.2508544477
6.76324406776e-18
6.17349126032e-23
8.11395828445e-27
1.1020310568e-28
0
0
0
0
0
0
0
0
0
0
0
0
0
0
0
0
0
0
0
0
0
0
2.69431007687e-35
1.96106334826e-24
16.8463670392
16.9965464573
21.4445618247
17.199079632
17.183179247
17.3402130128
18.8178867871
17.9304164295
21.7596162741
22.9936663478
21.3309360242
20.4617061125
19.3242560191
21.0368086319
20.8367630935
19.6068348357
19.265110721
19.5282155126
19.330262106
19.4340053252
19.6008878441
20.0250603103
21.3727746895
24.293533701
27.0631388003
29.4740016501
29.30849391
28.0407081232
27.0906312458
27.973529986
29.0143498749
30.421115963
31.6176858647
32.68732345
33.6068027766
34.1963151052
34.9594139049
35.8948793989
36.92709005
38.0270474501
39.1796016244
40.4851410341
41.9424869253
43.543878083
44.7678482516
45.6378544173
46.8106293191
47.8637053667
49.4776999397
50.7967439499
43.099240346
6.16263056849e-17
8.18279689344e-23
1.41108137123e-26
2.89420055942e-29
7.00741628471e-31
2.35215178765e-33
0
0
0
0
0
0
0
0
0
0
0
0
0
0
0
0
0
0
0
0
0
4.52787870158e-36
5.99079708922e-36
17.5719662284
17.7215471197
21.1586508178
17.4954049448
17.7299436306
17.8202744088
18.8660816284
18.6451373984
22.2778715199
23.6871927577
21.9758498925
21.1223593185
19.9875985337
21.7262552674
21.6771403751
20.5143833667
20.1109543522
20.3933517376
20.2214515836
20.3926651562
20.4765377406
20.5305407406
21.8294306882
24.4380672873
26.8907683466
29.507613731
29.8424175832
28.841178572
27.61103125
28.1656320446
29.5298243968
30.5978418564
31.6969213259
32.9536698476
34.4845821971
35.2039683192
35.8887778286
36.7081067392
37.7104832707
38.885660904
40.1499150963
41.5878464693
43.5718798433
45.3360094721
45.9914624059
46.7620366395
48.4800730663
51.8117407924
56.5551410772
47.2198254569
1.7606827462e-17
2.92480317563e-24
1.21035194954e-28
3.96834682033e-32
2.48992481293e-34
5.04687581163e-34
7.7501179958e-35
0
0
0
0
0
0
0
0
0
0
0
0
0
0
0
0
0
0
0
0
0
3.34668803326e-37
1.51963269731e-36
18.6686974387
18.7818849072
21.4782283048
18.415150469
18.8552732931
18.6600294861
19.2031604498
19.918286518
22.3754244457
24.2163742598
22.6743256945
21.8438690715
20.7477816442
22.5101895174
22.5398663321
21.5694259391
21.1227731328
21.3907278628
21.1182941446
21.4402515357
21.6448828233
21.2465073185
22.3700788739
24.7917955697
26.9211104121
29.3414882458
30.0653913714
29.5250151428
29.4659066297
28.9789914837
29.8649545953
31.2629576196
32.8957391485
33.5281381825
34.7914362306
36.1920045792
36.9421435518
37.8118717254
38.7281758393
39.8334258067
41.2312533616
43.2879903736
45.8037030315
46.9317257165
47.1988025916
48.6160328982
52.8364975007
59.7349265203
53.5250102003
25.874729539
4.43123469152e-26
4.1371617943e-31
2.83078248196e-33
0
0
0
0
0
0
0
0
0
0
0
0
0
0
0
0
0
0
0
0
0
0
0
0
0
0
0
20.2014787358
20.0964662631
22.308855227
20.2434500472
20.7476339749
19.8953552048
20.1370985016
21.7530880168
22.6249111618
24.8407552106
23.4765728525
22.6357917495
21.5794370069
23.3287976463
23.3969754202
22.7265085551
22.5833711527
22.6873884777
22.1072419709
22.5728266406
23.0937146199
22.2527071752
22.8023552828
25.2388983334
27.1622082031
29.2039181817
30.1976820044
29.69424545
30.6218491938
30.5100369442
30.8477392536
31.0376812212
32.7049963197
34.6423456859
35.7196639421
36.9500297315
37.9948359135
38.9088646785
39.9466427841
41.0756893333
42.8228052202
45.7723376712
48.0142017505
48.6886975076
49.5144418663
52.8434558173
59.9396654241
56.5472173857
32.534781539
3.95451060824e-28
6.91331920743e-31
3.165520718e-33
0
0
0
0
0
0
0
0
0
0
0
0
0
0
0
0
0
0
0
0
0
0
0
0
0
0
0
0
21.8163533373
21.3251254509
23.1930105931
22.6577041369
22.4109694816
21.3104209507
21.1514144238
22.858402425
21.9540484873
25.3292487601
24.36474632
23.4892133286
22.4709027936
24.1520259142
24.1894417829
23.6922468774
24.5646361036
24.2372812699
23.2058440886
23.8037663047
24.3924432523
23.5258644841
22.9908818109
25.2225564352
27.3177811851
29.0959581395
30.2254689462
29.7470473456
31.0010847091
31.7598547916
32.2121564615
31.7869333945
32.8561031757
34.6009767783
36.598044354
38.1379531968
39.2708699757
40.1683536758
41.1950389278
42.6674029764
45.426362891
48.5930269115
50.4248318971
51.5144550231
53.8605943169
58.6881702414
55.8355159762
31.8277123455
1.06478623694e-27
1.54150272756e-30
5.39863993371e-33
0
0
0
0
0
0
0
0
0
0
0
0
0
0
0
0
0
0
0
0
0
0
0
0
0
0
0
0
0
22.6025438717
22.1633796005
23.7412672854
23.6728063722
23.4350928393
22.6291216993
22.2921214904
24.1815655961
22.9694936688
25.9461893064
25.2606256399
24.376136695
23.4162480041
24.9926460564
24.9763482715
24.4881454262
25.5147709363
25.3230689836
24.2456604127
24.9872343878
25.1150893743
24.3199295328
23.9295915595
24.1579891605
26.7502641648
28.5293682581
29.9480910832
29.647550369
31.0220776972
32.2771557016
33.3300756824
33.5055341368
33.2589324313
34.6368917049
36.8054434737
38.9880706895
40.6594697865
41.8118385403
42.8291972355
45.1812126684
48.6676858824
51.5487794631
53.2149523239
55.1890799835
59.0906236584
55.8129730621
30.8275246027
18.0100986019
5.06710149445e-30
1.44313673848e-32
0
0
0
0
0
0
0
0
0
0
0
0
0
0
0
0
0
0
0
0
0
0
0
0
0
0
0
0
0
0
22.6554622323
22.6533110104
24.0457776632
23.8560372582
24.0569760965
23.6311806566
23.2693122447
25.4795977909
24.5844043716
26.7206502811
26.2024778294
25.2807733571
24.4104032492
25.8658764762
25.8174771695
25.3944900023
26.2959685572
26.2529358371
25.3083279602
25.9697114576
25.0204895714
25.0344995808
24.9033470691
25.1492040515
25.940672076
27.0313807059
28.9965945304
29.3000622187
30.5458616702
32.2392323795
33.7326934443
34.8094600735
34.7270259076
35.390147208
37.0042041511
39.1891626544
41.5722596489
43.5231012852
45.1836306488
48.4312498266
51.9717600804
54.415405214
55.8248147532
57.7827379307
53.5423330756
35.5362121274
38.1482069509
1.76008593445e-29
3.94275714174e-32
0
0
0
0
0
0
0
0
0
0
0
0
0
0
0
0
0
0
0
0
0
0
0
0
0
0
0
0
0
0
0
22.8375817772
22.9662128533
24.2804984776
22.9770394289
24.2898606702
24.1539769311
23.8979831348
26.0543928701
25.3858731744
27.4844358014
27.158511937
26.1693201508
25.4581964606
26.7588770463
26.6891123754
26.425307548
27.1740151835
27.2914051817
26.4986180238
27.3293405794
26.3153332027
26.5746045115
26.1161848264
26.4180645192
27.6352156579
28.2616297354
28.506921452
28.8602618479
29.9876649325
32.0470000255
33.6033359776
34.9703288386
35.9122731373
36.4262866797
38.1865159008
39.8684475604
42.2982534116
45.0908455164
48.0701895193
51.938721462
55.1531568467
56.9249700911
56.7495158206
54.1599110534
52.6921367538
32.7022440504
1.47693424377e-28
3.36231307645e-31
0
0
0
0
0
0
0
0
0
0
0
0
0
0
0
0
0
0
0
0
0
0
0
0
0
0
0
0
0
0
0
0
23.4419151084
23.5358007718
24.5194465999
23.2972876595
24.4753964389
24.4067731971
24.3051514602
26.2124935216
25.9103089066
28.0265901537
28.0690028418
26.9812241014
26.544248257
27.6208657502
27.5054126349
27.4122968149
28.0138881661
28.4051571155
27.735207226
28.7155559202
28.0332061749
28.532263175
28.3953109076
27.4149541214
28.4034386453
29.3026366882
29.5158975775
28.514667249
29.3427107826
31.7801363479
33.5780697545
34.5412216173
35.6474425647
36.6378511119
38.5051322254
40.4725500729
43.1147974084
46.6562194057
51.1374038413
55.5663468915
58.1379015357
58.5954822686
56.6356556055
51.7011778003
33.0263915317
41.2421159945
2.34299193356e-30
9.50088438162e-33
0
0
0
0
0
0
0
0
0
0
0
0
0
0
0
0
0
0
0
0
0
0
0
0
0
0
0
0
0
0
0
0
24.2148197572
25.2175486918
24.8863828159
24.1359855104
24.9091497532
24.6951872226
24.6736063142
26.3185215072
26.3654901299
28.2161916142
28.9237617379
27.6754392398
27.4814166066
28.3003229406
28.2403097393
28.1356439804
28.3217018142
29.3956599937
29.0107386567
29.9101600377
29.8649984788
29.8271278688
29.7498060551
29.4127736405
28.7637761598
29.4249407696
30.305842999
27.9083686151
28.6146649401
30.9247415326
33.4254817471
34.8373487637
36.0411197941
36.4383500452
38.1871710054
40.5599430285
43.5576041005
48.0921554807
54.2138562928
59.0928734246
60.6977745947
57.418191887
55.6978296872
57.0829773211
38.5752120992
1.58810118627e-29
4.0532162079e-32
0
0
0
0
0
0
0
0
0
0
0
0
0
0
0
0
0
0
0
0
0
0
0
0
0
0
0
0
0
0
0
0
0
24.7501382777
25.7984633498
25.4509781504
24.8591813127
25.4650139881
25.1238489077
25.082223348
26.4748522378
26.78435432
28.1272281545
29.6505533488
28.3021307096
28.0068162927
28.8183355547
28.9910592909
28.7477726416
28.5324341676
30.0763120326
30.2828582193
30.9297524273
31.1163992832
31.3604318737
30.366336811
30.3987456783
29.9315120185
30.8708116561
31.4628063456
29.2438968904
27.8679459916
29.6360842267
32.4146325545
34.6876031451
36.0735774928
36.6932856515
37.5401347688
39.9827996522
43.2894445142
49.1251386604
57.1415569598
62.6714931526