/*--------------------------------*- C++ -*----------------------------------*\
| =========                 |                                                 |
| \\      /  F ield         | OpenFOAM: The Open Source CFD Toolbox           |
|  \\    /   O peration     | Version:  v1806                                 |
|   \\  /    A nd           | Web:      www.OpenFOAM.com                      |
|    \\/     M anipulation  |                                                 |
\*---------------------------------------------------------------------------*/
FoamFile
{
    version     2.0;
    format      ascii;
    class       volVectorField;
    location    "560";
    object      U;
}
// * * * * * * * * * * * * * * * * * * * * * * * * * * * * * * * * * * * * * //

dimensions      [0 1 -1 0 0 0 0];


internalField   nonuniform List<vector> 
6400
(
(-0.000102574931542 -0.000135275063375 0)
(-0.000274383951594 -0.000100399460859 0)
(-0.00039901652189 -7.93657058191e-05 0)
(-0.000533689692104 -6.88437921164e-05 0)
(-0.000631529478741 -4.2999409439e-05 0)
(-0.000701973614244 -2.32898119735e-05 0)
(-0.000739582865289 -1.59079475078e-05 0)
(-0.0007699994245 -2.58026998903e-05 0)
(-0.00085362828562 -3.70360466133e-05 0)
(-0.000936416094407 -3.46813507347e-05 0)
(-0.000972256475772 -3.09523752071e-05 0)
(-0.00104714969716 -3.27908266914e-05 0)
(-0.00111401859891 -2.92224265246e-05 0)
(-0.00116754333498 -2.32467393439e-05 0)
(-0.00120663060238 -2.05146017168e-05 0)
(-0.00124743903887 -2.32509066812e-05 0)
(-0.00129826417756 -2.39038089284e-05 0)
(-0.00134145533601 -2.03833345558e-05 0)
(-0.00137241384387 -1.54770041175e-05 0)
(-0.00140092478341 -1.32011813481e-05 0)
(-0.00143840384611 -1.8262457036e-05 0)
(-0.00148506913963 -2.37945499758e-05 0)
(-0.00153451337343 -2.47620217674e-05 0)
(-0.0015789744645 -2.37322785231e-05 0)
(-0.00162035453094 -2.14699604247e-05 0)
(-0.00165955169822 -1.8792622817e-05 0)
(-0.00169815336514 -1.74968809757e-05 0)
(-0.00173311971242 -1.57680370368e-05 0)
(-0.00176220067338 -1.33800711182e-05 0)
(-0.00178613519692 -1.15010721098e-05 0)
(-0.00180531840804 -1.1021107135e-05 0)
(-0.00182523288421 -1.00287631718e-05 0)
(-0.00184520611827 -8.11770830688e-06 0)
(-0.00186125427767 -7.93339175887e-06 0)
(-0.00187606341748 -7.68194684951e-06 0)
(-0.001895926565 -7.27591813686e-06 0)
(-0.00191240186237 -7.64695160958e-06 0)
(-0.0019167200543 -6.7694622811e-06 0)
(-0.00193045182971 -4.84347574956e-06 0)
(-0.00194952415184 -3.85489988717e-06 0)
(-0.00196029777135 -5.95320472839e-06 0)
(-0.0019608484657 -5.41191595e-06 0)
(-0.00195864318888 6.76140026068e-07 0)
(-0.00195388526566 5.06324678958e-06 0)
(-0.00194350947576 7.21595020523e-06 0)
(-0.00192860820284 9.64404236673e-06 0)
(-0.00190860908594 1.222403119e-05 0)
(-0.00188230812509 1.54557710074e-05 0)
(-0.00184975406912 1.85844931464e-05 0)
(-0.00181088677052 1.92462811952e-05 0)
(-0.00176922367306 1.74590731218e-05 0)
(-0.00173214764123 2.02279248495e-05 0)
(-0.00168092746758 3.20622102885e-05 0)
(-0.00162006724668 3.92836972676e-05 0)
(-0.00153962577774 4.54971502326e-05 0)
(-0.00142798979682 5.51270061813e-05 0)
(-0.00131046334458 5.54821875759e-05 0)
(-0.00120812095657 5.41282135296e-05 0)
(-0.00110415858035 6.26039771539e-05 0)
(-0.000955098544724 6.91956333712e-05 0)
(-0.000808711273242 6.99973739334e-05 0)
(-0.000644455749932 8.80608703733e-05 0)
(-0.000488966550021 0.00013161147999 0)
(-0.000181641205855 0.000114249779942 0)
(8.43382355363e-06 6.72583387569e-05 0)
(0.000103497972563 4.43189744018e-05 0)
(0.00016998754149 3.2571814492e-05 0)
(0.000226423656519 2.51143894142e-05 0)
(0.000276067728249 1.89829138534e-05 0)
(0.00030892151933 1.1478790405e-05 0)
(0.000326415204904 3.23217882811e-06 0)
(0.000319941870292 -5.0266632149e-06 0)
(0.000296114658365 -1.29852034023e-05 0)
(0.000276608513467 -2.13002643644e-05 0)
(0.000214893924329 -2.04622813185e-05 0)
(0.000191222189467 -2.00390737247e-05 0)
(0.000127534134673 -1.30819600496e-05 0)
(0.000132109403491 -1.88359502511e-05 0)
(5.68653076355e-05 -1.35621905893e-05 0)
(4.22661559702e-05 -2.54199636953e-05 0)
(-3.8789381817e-05 -0.000190548759747 0)
(-0.000164723348848 -0.000211949008471 0)
(-0.000286520770219 -0.000189889754219 0)
(-0.000365373747907 -0.000151896059999 0)
(-0.000525586340336 -0.000147699257735 0)
(-0.000668612288437 -0.000104112736425 0)
(-0.000751682425838 -6.64437903616e-05 0)
(-0.000808813150891 -8.41527760413e-05 0)
(-0.000869534176756 -0.000107235660076 0)
(-0.000937099080933 -0.000104268131889 0)
(-0.00100087565346 -9.66781901566e-05 0)
(-0.00105913568495 -9.3207812835e-05 0)
(-0.00111313971181 -8.24359054065e-05 0)
(-0.00116132008856 -6.91206718517e-05 0)
(-0.00120822856557 -6.30677031805e-05 0)
(-0.00125312653814 -7.37687800266e-05 0)
(-0.00129885421045 -7.7164715762e-05 0)
(-0.00133598626518 -5.53248855574e-05 0)
(-0.00133778248934 -3.92603482896e-05 0)
(-0.00137403321047 -4.04806294585e-05 0)
(-0.00142316995365 -5.71931672401e-05 0)
(-0.00147700334825 -7.65828719528e-05 0)
(-0.00153576203165 -7.88941790314e-05 0)
(-0.00158466464394 -6.95005053284e-05 0)
(-0.00161473508448 -6.22285505258e-05 0)
(-0.00165968282657 -5.8325521853e-05 0)
(-0.00170085932797 -5.31733191948e-05 0)
(-0.00173331879155 -4.65090778328e-05 0)
(-0.0017611510719 -4.00098442754e-05 0)
(-0.0017860476965 -3.4828003741e-05 0)
(-0.00180729328914 -3.21463967284e-05 0)
(-0.00182051287496 -2.86910845632e-05 0)
(-0.00184022205061 -2.27931815805e-05 0)
(-0.00185495824447 -2.32171933929e-05 0)
(-0.00186684146501 -2.52279977487e-05 0)
(-0.00189458588542 -2.18477006704e-05 0)
(-0.00190673510459 -2.20036487104e-05 0)
(-0.00191151955514 -2.27460165981e-05 0)
(-0.00193064055005 -1.90181964263e-05 0)
(-0.00195934929904 -1.29539303063e-05 0)
(-0.00197196915996 -4.16089506015e-06 0)
(-0.001926524855 3.98587285795e-06 0)
(-0.00190183268939 8.88845271377e-06 0)
(-0.00190222708068 1.25219621288e-05 0)
(-0.00189541640205 1.67457681068e-05 0)
(-0.00188845761997 2.24807552612e-05 0)
(-0.00187882191025 3.00731241483e-05 0)
(-0.00185985924017 3.90460818573e-05 0)
(-0.00183977490975 4.88655585464e-05 0)
(-0.00181067171645 5.81029470582e-05 0)
(-0.00176371954417 6.51367896468e-05 0)
(-0.00169062516384 7.16612295066e-05 0)
(-0.00162207526092 8.13830910399e-05 0)
(-0.00161962869983 0.000103065891046 0)
(-0.00152956240037 0.000130246968871 0)
(-0.00143417323218 0.000150560198782 0)
(-0.00136081245126 0.000160015039319 0)
(-0.00125837265322 0.000168734758128 0)
(-0.0011371035782 0.000190514906493 0)
(-0.00100621865764 0.000218544992352 0)
(-0.000861664237656 0.000250000521465 0)
(-0.000616916376112 0.000271182734418 0)
(-0.000464359997879 0.000381627306757 0)
(-0.000182652743383 0.000348342132009 0)
(2.03953493115e-06 0.000221788751341 0)
(9.98141621635e-05 0.000130842543452 0)
(0.000165058077194 9.27483943001e-05 0)
(0.00023290555287 7.86622022664e-05 0)
(0.00028416402403 5.99992555418e-05 0)
(0.00032196867812 3.55075675549e-05 0)
(0.000333447299979 6.19715610347e-06 0)
(0.000321286023766 -2.0873069804e-05 0)
(0.000287185440298 -3.70057745165e-05 0)
(0.000272901088794 -5.16319716268e-05 0)
(0.000240148026009 -5.83491074462e-05 0)
(0.000206077285205 -5.92493331709e-05 0)
(0.000168481230046 -5.33781908435e-05 0)
(0.000132774525926 -5.6968101192e-05 0)
(8.18854144911e-05 -6.13170732194e-05 0)
(3.78281649618e-05 -0.000100006376594 0)
(-5.73139466729e-05 -0.000328963866724 0)
(-0.000158716137189 -0.000354762651538 0)
(-0.000245430618129 -0.000326644008394 -9.13566592142e-29)
(-0.000411589596125 -0.00032634077993 8.48130840145e-29)
(-0.00056451326109 -0.000318083834083 7.47741577614e-29)
(-0.000661565836844 -0.000254466856255 -6.81846080853e-29)
(-0.000730872221953 -0.000137154776277 6.84606581711e-29)
(-0.000790577216202 -0.000143983885204 -6.64348087562e-29)
(-0.000853939021708 -0.000174287833939 0)
(-0.000925734710596 -0.000175987979994 0)
(-0.000995596539355 -0.00016378145066 0)
(-0.00105674439685 -0.000148671995751 0)
(-0.00111083210311 -0.000130917796499 0)
(-0.00115772123643 -0.000117615732753 0)
(-0.00120528660561 -0.000109798026749 0)
(-0.00125027331934 -9.72995545458e-05 0)
(-0.00116872968505 -7.326106882e-05 0)
(-0.00114523131832 -5.85840244192e-05 0)
(-0.00118607467492 -6.9260874924e-05 0)
(-0.00126604343582 -0.000103594531442 0)
(-0.00141531714954 -0.000136525153653 0)
(-0.0014939427392 -0.000141492792106 0)
(-0.00152530557354 -0.00012943021652 0)
(-0.00157435450639 -0.000115496780381 0)
(-0.0016239775377 -0.000105510070758 0)
(-0.00166258861303 -9.77807601069e-05 0)
(-0.00169753538989 -8.74015867522e-05 0)
(-0.00173041229502 -7.63593758119e-05 0)
(-0.00175895054745 -6.64208118473e-05 0)
(-0.00178249714891 -5.84642925918e-05 -1.27304600123e-28)
(-0.00180636730891 -5.14657962385e-05 1.23256806244e-28)
(-0.00181391588593 -4.5254884682e-05 0)
(-0.00183095547166 -3.83034951649e-05 0)
(-0.00186019162748 -3.34420638666e-05 0)
(-0.00184663799498 -3.96846095263e-05 0)
(-0.00187524780443 -4.25084601814e-05 0)
(-0.0019127434061 -3.6688113885e-05 0)
(-0.00190100975931 -3.7232114857e-05 0)
(-0.00192402326723 -3.92615875433e-05 0)
(-0.00195684695079 -2.79159405858e-05 0)
(-0.00197144084886 -2.95219311363e-06 0)
(-0.00196936991389 1.56389474187e-05 0)
(-0.00196399409032 1.89004898604e-05 0)
(-0.00195793701123 2.07500187696e-05 0)
(-0.00194752369982 2.69333006571e-05 0)
(-0.00193236460418 3.59396895169e-05 0)
(-0.00191265633958 4.80307262599e-05 0)
(-0.00188817187396 6.19495577088e-05 0)
(-0.0018588705303 7.76880016642e-05 0)
(-0.00182412797912 9.63274763306e-05 0)
(-0.00178317152556 0.000115808959831 0)
(-0.00173538529028 0.000130591359726 0)
(-0.00168004368418 0.000140781252052 0)
(-0.001606363715 0.000167996016474 0)
(-0.00151667699408 0.000205121962691 0)
(-0.00144451883372 0.000232683208964 0)
(-0.00135658223229 0.000255937112791 0)
(-0.00124565999116 0.000284384013073 0)
(-0.00111775662785 0.000320614194927 0)
(-0.000974277910922 0.000367012899639 0)
(-0.000806688810953 0.000429506694549 0)
(-0.000620591238484 0.000514579878501 0)
(-0.00042564429943 0.000631205917638 0)
(-0.000182841044559 0.000533217718909 0)
(-4.96417490672e-06 0.000329653491897 0)
(0.000105910566749 0.00022415986094 0)
(0.000190738598468 0.000172138677033 0)
(0.000251918027157 0.000134190495799 0)
(0.00029724349309 9.60866443502e-05 0)
(0.000325233070577 5.16028384893e-05 0)
(0.000330951289876 5.6314082131e-06 0)
(0.000322539588117 -3.12550403331e-05 0)
(0.00031577205217 -5.74908442445e-05 0)
(0.00029527959717 -8.2781898147e-05 0)
(0.000253266271469 -0.000100034126809 0)
(0.000206158889549 -0.000101847064499 0)
(0.000160957178002 -9.60468312324e-05 0)
(0.000122601132754 -0.000105838385835 0)
(8.40237984911e-05 -0.000138583296637 0)
(2.16454625268e-05 -0.000137858048398 0)
(-5.73021097726e-05 -0.000487001785263 0)
(-7.77835978717e-05 -0.000334728778705 0)
(-0.000201067610649 -0.000490544663637 0)
(-0.000356066761106 -0.000484491159463 0)
(-0.00049198193375 -0.000410471466353 0)
(-0.000296272620376 -0.000165417255869 0)
(-0.000374387325957 -0.000165504347806 0)
(-0.000676144972916 -0.000283980802667 0)
(-0.000809131003041 -0.000289238897464 0)
(-0.000900298319185 -0.000261066392027 0)
(-0.000982898457948 -0.000237534055649 0)
(-0.00105179400049 -0.000210834499072 0)
(-0.00110961453598 -0.000183340756429 0)
(-0.00114933691973 -0.000146372731373 0)
(-0.00110752700621 -9.96447857375e-05 0)
(-0.00106511686422 -6.88812231162e-05 0)
(-0.00107120453777 -6.71449369958e-05 0)
(-0.0011366940225 -0.000104376902239 0)
(-0.0012719716765 -0.000163214184355 0)
(-0.00139309435472 -0.000213207253222 0)
(-0.00143758637718 -0.000217582363292 0)
(-0.00148446419339 -0.000197025740963 0)
(-0.00153558949911 -0.000178128500215 0)
(-0.00158062363449 -0.00016320961088 0)
(-0.00162117612186 -0.000148358584796 0)
(-0.00165806507308 -0.000133934388801 0)
(-0.00169181810106 -0.0001203093878 0)
(-0.00172743648221 -0.000106498896314 0)
(-0.00175303124711 -9.30129965099e-05 0)
(-0.00178278335227 -8.13160063135e-05 0)
(-0.00179416724099 -7.08673387833e-05 0)
(-0.00181964223711 -6.0084319457e-05 0)
(-0.00181428771305 -4.86479877466e-05 0)
(-0.00183556791805 -4.76697148658e-05 0)
(-0.00187521577493 -5.52043225589e-05 0)
(-0.00186776398053 -6.27584773797e-05 0)
(-0.00190367248362 -6.17325418825e-05 0)
(-0.00193936471822 -5.85131102806e-05 0)
(-0.00195283882826 -5.58634355953e-05 0)
(-0.00196226240431 -3.94537108423e-05 0)
(-0.00196949567996 -1.20875782394e-05 0)
(-0.0019710593005 1.05309225805e-05 0)
(-0.00196845346283 2.21554813484e-05 0)
(-0.00196250519508 3.02556196603e-05 0)
(-0.0019519898186 4.06390723689e-05 0)
(-0.0019368021827 5.41006409546e-05 1.12447565506e-28)
(-0.00191705415592 7.04417191621e-05 -1.13225986953e-28)
(-0.00189255960206 8.91349174767e-05 0)
(-0.00186308420284 0.000110174445519 0)
(-0.00182808520418 0.000133525185594 0)
(-0.00178662021679 0.000157675011216 0)
(-0.00173711302099 0.000181402253839 0)
(-0.0016777891739 0.00020884454509 0)
(-0.00160677925064 0.000245845916645 0)
(-0.00152721489305 0.000284245415216 0)
(-0.00144139530905 0.000320724569584 0)
(-0.00134215322123 0.000362250898076 0)
(-0.00122327564292 0.000410411724604 2.23357074104e-28)
(-0.00108371932507 0.000467488363116 -2.61357197736e-28)
(-0.000922265015987 0.000537750140457 0)
(-0.000737319257157 0.000622505820891 0)
(-0.000539113339703 0.000717101745608 0)
(-0.000362392396371 0.000780591382749 0)
(-0.000193240453874 0.000713660403765 0)
(-4.38044824045e-06 0.000518814611693 0)
(0.000127589182397 0.000326199752939 0)
(0.000210899969434 0.000238039045952 0)
(0.000277859375704 0.000185373699055 0)
(0.00032658004903 0.000131132494546 0)
(0.000362737840553 7.03788045386e-05 0)
(0.000377391482569 8.7969678333e-06 0)
(0.000372136615902 -4.31485228539e-05 0)
(0.000341458756837 -8.9556783019e-05 0)
(0.000278881316129 -0.000123185150882 0)
(0.000228075066284 -0.000143636559927 0)
(0.000180561858681 -0.000153589157568 0)
(0.000128635312694 -0.000146037916936 0)
(7.36845547595e-05 -0.000122010203103 0)
(5.28356665874e-05 -0.000156134167861 0)
(1.76786692943e-05 -0.000180260854449 0)
(-8.00200857157e-06 -0.00049297567521 0)
(-4.18033073913e-05 -0.000407323269884 0)
(-0.000180529258858 -0.000638452661416 0)
(-0.000305146218286 -0.00058921049846 0)
(-0.000339547030837 -0.000395602985435 0)
(-0.00027491593914 -0.000222668867745 0)
(-0.000461030463384 -0.000353637571233 0)
(-0.00067322932765 -0.00046857718033 0)
(-0.000762140062247 -0.000412803278968 0)
(-0.000866409999121 -0.000358304526739 0)
(-0.000957201122635 -0.000325540290931 0)
(-0.0010339556417 -0.000282420801836 0)
(-0.00105256688334 -0.000201795310848 0)
(-0.000986343279179 -0.000118612935758 0)
(-0.00100792863806 -8.83554349121e-05 0)
(-0.00106678111136 -0.000100551570101 0)
(-0.0011633002862 -0.000148085860482 0)
(-0.0012767164946 -0.000215137444445 0)
(-0.00135513498235 -0.000260089905135 0)
(-0.00138377219778 -0.00026475557703 0)
(-0.00143097149819 -0.000259886483943 0)
(-0.001486743592 -0.000248414506846 0)
(-0.00153358765013 -0.000228320986203 0)
(-0.00157734211169 -0.000206764451064 0)
(-0.00161673761133 -0.000187099592665 0)
(-0.00165169926473 -0.000170252672687 0)
(-0.00169016572512 -0.000153581828646 0)
(-0.00171573423868 -0.000136411985142 0)
(-0.00175382231163 -0.00011958561959 0)
(-0.00176459302413 -0.000102666358838 0)
(-0.00180035511165 -8.82574740689e-05 -1.22127958373e-28)
(-0.0017803097306 -7.39758848197e-05 1.15959301025e-28)
(-0.00182268827339 -6.77946598207e-05 0)
(-0.00185956850828 -6.68519521141e-05 0)
(-0.00185941642608 -7.52476833091e-05 0)
(-0.00190301621922 -8.80484936875e-05 0)
(-0.00192762641992 -9.15822209344e-05 0)
(-0.00194533529267 -8.11273444497e-05 0)
(-0.00195737883704 -6.53036159283e-05 0)
(-0.00196587216229 -4.40980462865e-05 0)
(-0.00197243982034 -1.74635572458e-05 0)
(-0.00197541289643 6.96729481737e-06 0)
(-0.0019741311221 2.44876861609e-05 0)
(-0.00196853035618 3.8654231594e-05 0)
(-0.00195819521459 5.39139308194e-05 0)
(-0.00194318329018 7.18525583975e-05 0)
(-0.00192354166505 9.2664498272e-05 0)
(-0.00189906094202 0.000116182963894 0)
(-0.00186935388417 0.000142467003313 0)
(-0.00183377144651 0.000171521875741 0)
(-0.0017912618186 0.000202849374025 0)
(-0.0017402305081 0.000236619794681 0)
(-0.00167903785762 0.000275138045834 0)
(-0.00160680543954 0.000319795636751 0)
(-0.00152460571032 0.000367625791043 0)
(-0.00143164449 0.000419543219837 0)
(-0.00132204344077 0.000479934341063 0)
(-0.0011901093036 0.000550638988834 0)
(-0.00103343302062 0.000632823193928 0)
(-0.000852854213461 0.00072615857832 0)
(-0.00065627163105 0.000822295393794 0)
(-0.000466447105557 0.000900610272428 0)
(-0.000312382236142 0.000920496100197 0)
(-0.000165784781282 0.000883730233044 0)
(2.12869944105e-05 0.000705339226497 0)
(0.000159283359394 0.00046113847087 0)
(0.000252822701891 0.000327394853963 0)
(0.000323209811711 0.000244637274581 0)
(0.000373217780985 0.000169776423233 0)
(0.000411281895785 9.22980807952e-05 0)
(0.000433037448089 9.58846405358e-06 0)
(0.000408506840086 -7.67726250576e-05 0)
(0.000331333838862 -0.000141252906332 0)
(0.000269895945437 -0.00018088011754 0)
(0.000212307945304 -0.000204774439673 0)
(0.00015450235733 -0.000212313761812 0)
(9.9154746565e-05 -0.000183305175478 0)
(6.12289346539e-05 -0.000159130644549 0)
(3.80101772464e-05 -0.000196501441826 0)
(9.67454936479e-06 -0.000202254489326 0)
(-3.63398625802e-07 -0.000463534791825 0)
(-4.96038938896e-05 -0.000494375842171 0)
(-0.000180836727122 -0.000730375895653 0)
(-0.000257548050052 -0.000617317415798 0)
(-0.000202523851498 -0.000316141536452 0)
(-0.000278071589629 -0.000321350616595 0)
(-0.000557769220248 -0.000562270880005 0)
(-0.000644670391645 -0.000571204137729 0)
(-0.000728475991799 -0.000512783154189 0)
(-0.000825944095473 -0.000459719274736 0)
(-0.000919344150956 -0.000395139534998 0)
(-0.000880840214048 -0.000276999454889 0)
(-0.000818368197608 -0.000163301907664 0)
(-0.000879893373005 -0.000135104095714 0)
(-0.000956922781702 -0.00015319145047 0)
(-0.00109059175342 -0.000207434408384 0)
(-0.00121909882977 -0.000265007206872 0)
(-0.0013015564977 -0.000293379452378 0)
(-0.00131936953597 -0.000293341683914 0)
(-0.00137402567627 -0.000306181154754 0)
(-0.00143617129925 -0.000313372087493 0)
(-0.00148351657224 -0.000298625964822 0)
(-0.00152805027026 -0.000274805236382 0)
(-0.00156951990417 -0.000250245279074 0)
(-0.00161416275031 -0.000227364727275 0)
(-0.00164928005733 -0.000203731636164 0)
(-0.00166751043642 -0.000184980083396 0)
(-0.00171938279739 -0.000167517004528 0)
(-0.00172186292306 -0.000143353491177 0)
(-0.00177459869145 -0.000121048672509 0)
(-0.00173980511591 -9.86764891818e-05 0)
(-0.00179993472252 -9.46174552255e-05 0)
(-0.00177578464117 -9.11732994052e-05 0)
(-0.00183925994527 -9.68429478098e-05 0)
(-0.00189389777351 -0.00010937927993 0)
(-0.00191954902076 -0.000118633440599 0)
(-0.0019366065883 -0.000111432205961 0)
(-0.00195075506974 -9.51269311318e-05 0)
(-0.00196200941217 -7.46982675309e-05 0)
(-0.0019708946442 -5.05052016698e-05 0)
(-0.00197759161677 -2.30145590983e-05 0)
(-0.00198119721526 3.61757999798e-06 0)
(-0.00198074614502 2.61960664985e-05 0)
(-0.00197567030171 4.62000173856e-05 0)
(-0.00196577905893 6.66663713694e-05 0)
(-0.00195112216629 8.9342867212e-05 0)
(-0.00193172487585 0.000114836798251 0)
(-0.00190728997357 0.000143352132227 0)
(-0.00187726871627 0.000175154306659 0)
(-0.0018409126988 0.000210511848301 0)
(-0.00179714011596 0.000249622051526 0)
(-0.00174445579546 0.000293128901835 0)
(-0.00168134908164 0.000342277095738 0)
(-0.00160677517538 0.000397516002474 0)
(-0.00151988886422 0.000458762931435 0)
(-0.0014177493835 0.000528938622023 0)
(-0.00129466124973 0.000611879815762 0)
(-0.00114613031225 0.000708252272583 0)
(-0.000972424579442 0.000814891815364 0)
(-0.000779850551978 0.000921571957947 0)
(-0.000585698052826 0.00101036795708 0)
(-0.000412714436578 0.00105277875171 0)
(-0.000254296258126 0.00101215999916 0)
(-0.00012396759753 0.00106803057504 0)
(5.34621846547e-05 0.000843839149143 0)
(0.000184929659014 0.000573761208425 0)
(0.000292920282879 0.000417217525393 0)
(0.000382050283978 0.000309834484074 0)
(0.000442372457443 0.000213350840758 0)
(0.00049556484668 0.000115640841656 0)
(0.000505827762261 -1.28344733291e-05 0)
(0.000423361519415 -0.000135635803612 0)
(0.00033752876326 -0.00020905434419 0)
(0.000268992522562 -0.000253757913091 0)
(0.000193253528399 -0.000274257473728 0)
(0.000131683187636 -0.000269521082222 0)
(7.86193630581e-05 -0.000215806643187 0)
(4.65782649668e-05 -0.00018980472102 0)
(2.60397910625e-05 -0.000221174790831 0)
(7.13115583125e-06 -0.000217998632261 0)
(-1.76776622479e-05 -0.000504505748466 0)
(-0.000106047074364 -0.000639024002618 0)
(-0.000230348780703 -0.000798144933183 0)
(-0.000267526201789 -0.000746563878764 0)
(-0.0001936646808 -0.000399319683735 0)
(-0.000390355428113 -0.000557523702131 0)
(-0.000565639665975 -0.000683595572273 0)
(-0.000620534122818 -0.000647797557252 0)
(-0.000701303616479 -0.000593299072689 0)
(-0.000760420140077 -0.000535578580044 0)
(-0.000883943787658 -0.000443126532 3.12609520907e-28)
(-0.000718437233089 -0.000230641056782 -1.97060621062e-28)
(-0.000811284665995 -0.000201102347016 0)
(-0.000864243765548 -0.000211053772543 0)
(-0.000991507190178 -0.000268791975598 0)
(-0.00114002539447 -0.000342528775286 0)
(-0.00123138833827 -0.000358568767727 0)
(-0.00123521764 -0.000328953028941 0)
(-0.00130103622104 -0.00034028759337 0)
(-0.00138021329033 -0.000367106707114 0)
(-0.00142739756933 -0.000365858105484 0)
(-0.00147646692489 -0.000346414065122 0)
(-0.00152338946436 -0.000320992115885 0)
(-0.00156702283108 -0.000292535845388 0)
(-0.00159946677256 -0.000261986131197 0)
(-0.00162367463815 -0.000232842857565 0)
(-0.00167377270837 -0.000214118446454 0)
(-0.00166477017895 -0.000194001237894 0)
(-0.00173666834645 -0.000168705824082 0)
(-0.00169528901124 -0.000127861275022 0)
(-0.00176738615271 -0.000118797020753 0)
(-0.00174637692617 -0.000118925954563 1.13843332375e-28)
(-0.00181112103092 -0.000124248600663 -1.16278649945e-28)
(-0.0018473954078 -0.000141472193459 0)
(-0.00190726414765 -0.000151682970816 0)
(-0.00192885409283 -0.000143542716641 0)
(-0.00194288016595 -0.000127519360889 0)
(-0.00195594595516 -0.000107530409982 0)
(-0.00196779136771 -8.43276153747e-05 0)
(-0.00197743368271 -5.78753447204e-05 0)
(-0.00198447237628 -2.87873500562e-05 0)
(-0.00198853231223 4.05283473284e-07 0)
(-0.00198869176258 2.75183198882e-05 0)
(-0.00198421278931 5.29898889735e-05 0)
(-0.00197488328685 7.87504884729e-05 0)
(-0.00196072772648 0.000106402045891 0)
(-0.00194166227151 0.000136851078837 0)
(-0.00191725573545 0.000170666624397 0)
(-0.00188684563719 0.000208387448572 0)
(-0.00184964618309 0.000250588775689 0)
(-0.00180459353892 0.000297921574251 0)
(-0.00175023531199 0.000351267475421 0)
(-0.00168492897792 0.000411667062486 0)
(-0.00160687478338 0.0004801469806 0)
(-0.00151350335089 0.000558726867373 0)
(-0.00140045163808 0.000651216815492 0)
(-0.00126252565087 0.000759881535086 0)
(-0.0010976431128 0.000881347269535 0)
(-0.000910813820643 0.00100485561288 0)
(-0.000715419811317 0.00111362201389 0)
(-0.000529182839539 0.00118442280324 0)
(-0.000367724011184 0.00120283185791 0)
(-0.000223094352331 0.00120648210599 0)
(-0.000102343817128 0.00118764554039 0)
(6.10074819343e-05 0.000985294539794 0)
(0.000217257068672 0.000686524530347 0)
(0.00036029804982 0.000539443681722 0)
(0.000483566970123 0.000411847236361 0)
(0.000566648361316 0.00027816840467 0)
(0.000610586220469 0.000120496094267 0)
(0.000567891566379 -7.18183102763e-05 0)
(0.000454057210992 -0.000215761042542 0)
(0.000363345390452 -0.000301323493651 0)
(0.000263877628377 -0.000344852276393 0)
(0.000172246159326 -0.000354185678559 0)
(0.000103009522107 -0.000312450106698 0)
(5.89973563987e-05 -0.00025799654569 0)
(2.49215126463e-05 -0.000216784252137 0)
(9.61634815527e-06 -0.000234015637364 0)
(3.28994210951e-06 -0.000232593234942 0)
(-3.53462094423e-05 -0.000587905468794 0)
(-0.000146913227387 -0.000773916705584 0)
(-0.000255129003086 -0.000835481892302 0)
(-0.000176763674884 -0.000526216162929 0)
(-0.000204565219153 -0.000497511991065 0)
(-0.000443551136877 -0.000756389497513 0)
(-0.000525611731699 -0.000760271306895 0)
(-0.000600928462839 -0.000723809331507 0)
(-0.000654353797565 -0.000653447011588 0)
(-0.00073711925399 -0.00059068883145 0)
(-0.000626356960032 -0.000360006401526 0)
(-0.0007106011639 -0.000275757062745 0)
(-0.000792542897706 -0.000271002337266 0)
(-0.000863437123852 -0.000306546329435 0)
(-0.00104560527668 -0.000405561187799 0)
(-0.00115401922827 -0.000440358314514 0)
(-0.00114900455814 -0.000392225334013 0)
(-0.00120858483593 -0.000381474311169 0)
(-0.00130736980889 -0.000414408857428 0)
(-0.0013711954856 -0.00042713798881 0)
(-0.00141605379861 -0.000414835136313 0)
(-0.0014613802963 -0.000393116526574 0)
(-0.00151245002965 -0.000369032647493 0)
(-0.00155578790239 -0.000336747291895 0)
(-0.0016031661124 -0.000294889312081 0)
(-0.00160731285892 -0.000265378190282 0)
(-0.00167272299791 -0.00024205535464 0)
(-0.0016764331706 -0.00021253510227 0)
(-0.0016685316634 -0.000182220693785 0)
(-0.00170458867536 -0.000160502205644 0)
(-0.00178856358177 -0.00015181309581 0)
(-0.00177699537755 -0.000142515719004 0)
(-0.0017960989274 -0.000165816062429 0)
(-0.00188643571428 -0.000189661228285 0)
(-0.00191274064812 -0.000186440856754 0)
(-0.00193244206565 -0.00016569717967 0)
(-0.001948473005 -0.000143159596942 0)
(-0.00196219815498 -0.000120164196521 0)
(-0.00197469316456 -9.47912425299e-05 0)
(-0.00198519503971 -6.61939007807e-05 0)
(-0.00199286235126 -3.49764211115e-05 0)
(-0.00199737032058 -2.91303809235e-06 0)
(-0.00199810580839 2.84519565641e-05 0)
(-0.00199432252018 5.9078957986e-05 0)
(-0.00198568665407 9.01254892902e-05 1.08979879943e-28)
(-0.00197213869859 0.000122953603655 -1.08700420495e-28)
(-0.00195345115342 0.000158672901933 0)
(-0.00192905929992 0.000198162737468 0)
(-0.00189824196785 0.000242215167018 0)
(-0.00186023319729 0.00029168142406 0)
(-0.00181399490291 0.00034759457274 0)
(-0.00175803330138 0.000411245698868 0)
(-0.00169037282174 0.000484251955898 0)
(-0.00160825151436 0.000568874891302 0)
(-0.00150762271179 0.000668533167308 0)
(-0.00138334629682 0.000786557521394 0)
(-0.00123147685386 0.000921818461167 0)
(-0.0010528991046 0.00106552280418 0)
(-0.000856205474742 0.00120061400809 0)
(-0.000655342017545 0.00130672307842 0)
(-0.000466860296932 0.00135961962622 0)
(-0.000307439673974 0.0013573914234 0)
(-0.0001803244475 0.001326406956 0)
(-8.3921785034e-05 0.0012796147808 0)
(4.94103683555e-05 0.00124049640912 0)
(0.000248962196513 0.000852890498389 0)
(0.000437259829682 0.000686036396053 0)
(0.000603566830863 0.000531116185304 0)
(0.000699998435465 0.000332321382827 0)
(0.000723128867784 9.15595907405e-05 0)
(0.000642542908706 -0.000156994186022 0)
(0.00051583003899 -0.000326145625218 0)
(0.000389421989691 -0.000424926560485 0)
(0.000251493682505 -0.00046133406553 0)
(0.000139721863569 -0.000440425933631 0)
(6.40026505029e-05 -0.000364000936314 0)
(2.07959109937e-05 -0.000299159699355 0)
(-7.19917663025e-06 -0.000244228801687 0)
(-1.51437142542e-05 -0.000236187554763 0)
(-5.83673771691e-06 -0.00023558070119 0)
(-4.87586946288e-05 -0.000691784867286 0)
(-0.000164930084434 -0.000882296503516 0)
(-0.000219218462091 -0.000867244063824 0)
(-0.000170943916081 -0.000577270925919 0)
(-0.00027586794355 -0.000652370675406 0)
(-0.000452156991891 -0.000856054185679 0)
(-0.000489959330382 -0.000832034670195 0)
(-0.000583111026677 -0.000795623718236 0)
(-0.000576011208795 -0.000666892893629 0)
(-0.00074075744759 -0.000663595908841 0)
(-0.000607966926562 -0.000398157162235 0)
(-0.000715621263678 -0.000354914986506 0)
(-0.000783347216683 -0.000355890532644 0)
(-0.0009143848666 -0.000437229250439 0)
(-0.0010600114632 -0.000526281208663 0)
(-0.00113578229248 -0.000505241764029 0)
(-0.00112972120886 -0.000439463871916 0)
(-0.00121207005046 -0.000455993036276 0)
(-0.00129609778281 -0.000486064839967 0)
(-0.00135477042903 -0.00048443818873 0)
(-0.00140760037602 -0.000464667572888 0)
(-0.00144892408961 -0.000437362827984 0)
(-0.00149674028033 -0.000411192564892 0)
(-0.00152275706849 -0.000377154703303 0)
(-0.00154898247676 -0.000323549514287 0)
(-0.00162163001778 -0.000295231733728 0)
(-0.0015825550439 -0.000266997686542 0)
(-0.00170260783921 -0.000241103909742 0)
(-0.00165767393288 -0.000210379440817 0)
(-0.00176033011524 -0.000204173619185 0)
(-0.00171863651495 -0.000179749821187 0)
(-0.0018199444183 -0.000183076384376 0)
(-0.001859364693 -0.000210494436519 1.22158100518e-28)
(-0.00189220223224 -0.000227656141303 -1.22655930157e-28)
(-0.0019162211048 -0.00021220323414 0)
(-0.00193660198104 -0.000186405510626 0)
(-0.00195454026884 -0.000160039397706 0)
(-0.00196955380521 -0.000133953178079 0)
(-0.00198271992783 -0.000106222571827 0)
(-0.00199394586791 -7.54428964473e-05 0)
(-0.00200245506038 -4.17966417118e-05 0)
(-0.00200769179455 -6.61088832418e-06 0)
(-0.00200910857444 2.88794775018e-05 0)
(-0.00200611471162 6.44280820243e-05 0)
(-0.00199834187248 0.000100738093357 0)
(-0.00198552114553 0.000138950989481 0)
(-0.00196724275363 0.000180276802483 0)
(-0.00194287896633 0.000225823292685 0)
(-0.00191172314429 0.000276582935478 0)
(-0.00187305009447 0.000333642827066 0)
(-0.00182587188159 0.000398461633383 0)
(-0.00176865968442 0.000473055201386 0)
(-0.00169906283172 0.000560195040441 0)
(-0.00161336244388 0.000663606710963 0)
(-0.00150631345433 0.000787323907225 0)
(-0.00137238388581 0.000932769720215 0)
(-0.00120895057037 0.00109426191022 0)
(-0.00101768571614 0.00126000283693 0)
(-0.0008068214509 0.00140879439447 0)
(-0.000589998601248 0.00151508536396 0)
(-0.000391330653539 0.00154271285313 0)
(-0.000237704474924 0.00149391548972 0)
(-0.000130249229495 0.00142626341117 0)
(-3.89649021e-05 0.00138036743165 0)
(5.79704292098e-05 0.00134299085989 0)
(0.000271582626665 0.0011655018145 0)
(0.000511708477572 0.000822623271902 0)
(0.000758642910011 0.000690621995684 0)
(0.000886499523742 0.000395593243148 0)