/*--------------------------------*- C++ -*----------------------------------*\
| =========                 |                                                 |
| \\      /  F ield         | OpenFOAM: The Open Source CFD Toolbox           |
|  \\    /   O peration     | Version:  v1806                                 |
|   \\  /    A nd           | Web:      www.OpenFOAM.com                      |
|    \\/     M anipulation  |                                                 |
\*---------------------------------------------------------------------------*/
FoamFile
{
    version     2.0;
    format      ascii;
    class       volVectorField;
    location    "443";
    object      Ua;
}
// * * * * * * * * * * * * * * * * * * * * * * * * * * * * * * * * * * * * * //

dimensions      [0 1 -1 0 0 0 0];


internalField   nonuniform List<vector> 
6400
(
(5.98320334766e-05 8.26057383216e-05 0)
(0.000164679229757 6.40382408434e-05 0)
(0.000241602604715 5.2923108023e-05 0)
(0.000327832911072 4.82160077519e-05 0)
(0.000391149495376 3.21462048926e-05 0)
(0.0004369951483 1.90518609419e-05 0)
(0.000460374071175 1.4091553902e-05 0)
(0.000478815949523 2.14288138334e-05 0)
(0.000538018110929 3.11322780803e-05 0)
(0.000600147815947 3.06356939807e-05 0)
(0.000625379327861 2.77895291268e-05 0)
(0.000683520531454 3.06658174613e-05 0)
(0.000737122157667 2.93494467625e-05 0)
(0.000782497308003 2.56412121528e-05 0)
(0.000817515985713 2.39435733116e-05 0)
(0.000855302103982 2.67925680255e-05 0)
(0.000903132706301 2.80839812793e-05 0)
(0.000945667093285 2.59540202811e-05 0)
(0.0009784956464 2.22780453193e-05 0)
(0.00100939753482 2.06426756177e-05 0)
(0.00104916109439 2.60108960252e-05 0)
(0.0010994633085 3.22604839291e-05 0)
(0.00115474050554 3.43619504794e-05 0)
(0.00120691291347 3.45045121011e-05 0)
(0.00125754791757 3.31556830316e-05 0)
(0.0013069863509 3.12670926473e-05 0)
(0.00135744416634 3.10326995558e-05 0)
(0.00140615184033 3.03501389689e-05 0)
(0.00145044776098 2.8746007009e-05 0)
(0.00149093865882 2.74717793353e-05 0)
(0.00152762180442 2.77415140309e-05 0)
(0.00156674270503 2.75626808137e-05 0)
(0.00160740707736 2.6411623689e-05 0)
(0.00164532744971 2.73779011876e-05 0)
(0.00168312780838 2.79776919405e-05 0)
(0.00172896995338 2.87471796751e-05 0)
(0.00177395390404 3.05345148892e-05 0)
(0.00180352833636 2.99670010734e-05 0)
(0.00184668380263 2.87065911119e-05 0)
(0.00189980588011 2.97198341819e-05 0)
(0.00194747361521 3.56849699628e-05 0)
(0.00198538533273 3.6578118062e-05 0)
(0.00202016943603 2.77810817124e-05 0)
(0.00205106659793 2.18548525133e-05 0)
(0.00207524364283 1.96414913688e-05 0)
(0.00209549255127 1.72310913633e-05 0)
(0.00211121828627 1.49085344855e-05 0)
(0.00212076407462 1.16931373418e-05 0)
(0.00212468959303 8.91643004832e-06 0)
(0.00212387440606 1.08184392119e-05 0)
(0.00212471968449 1.79245938747e-05 0)
(0.00214385688568 1.7729893066e-05 0)
(0.00214024025519 -1.26743063432e-06 0)
(0.00212758841215 -1.00749515456e-05 0)
(0.00209174333968 -1.73696113588e-05 0)
(0.00200066011863 -3.41943897993e-05 0)
(0.00190614173855 -2.98273496653e-05 0)
(0.00185958804645 -1.63940468365e-05 0)
(0.00184316933435 -2.25733803724e-05 0)
(0.00173868002021 -2.75930379195e-05 0)
(0.00168635394308 -7.02190455105e-06 0)
(0.00161218671424 -2.1488453167e-05 0)
(0.0017532338822 -9.16634800921e-05 0)
(0.00139805945652 -0.00010162459404 0)
(0.00113579275058 -6.84968151386e-05 0)
(0.00102055562106 -4.54143390651e-05 0)
(0.00094929327538 -4.31957591778e-05 0)
(0.000893186427383 -4.26190124412e-05 0)
(0.000833645759799 -4.36153410767e-05 0)
(0.000751267920855 -4.59673973109e-05 0)
(0.000664188778042 -4.66699863137e-05 0)
(0.000566265753683 -4.4879985093e-05 0)
(0.000473177817663 -4.38550524737e-05 0)
(0.000408191063221 -4.59434177836e-05 0)
(0.000300135286041 -3.62537957121e-05 0)
(0.000255738792749 -3.13931942442e-05 0)
(0.000165951530433 -1.92173880155e-05 0)
(0.000167874260482 -2.54531832298e-05 0)
(7.14923214843e-05 -1.74068131504e-05 0)
(5.2863892069e-05 -3.20751293636e-05 0)
(2.26057626191e-05 0.00011415342019 0)
(9.73915979395e-05 0.00012869505848 0)
(0.000170182446618 0.000117728180363 0)
(0.000217118149516 9.44397630108e-05 0)
(0.000316983668045 9.3527968536e-05 0)
(0.000411259724631 6.74174646157e-05 0)
(0.000467948682847 4.36414037969e-05 0)
(0.00050819065238 5.78574318949e-05 0)
(0.000551733230175 7.60600903294e-05 0)
(0.000600805908995 7.53657411474e-05 0)
(0.000648397275448 7.17729978785e-05 0)
(0.00069303255276 7.18293432301e-05 0)
(0.000735723213962 6.63101978709e-05 0)
(0.000775828762707 5.85190402123e-05 0)
(0.000817159381815 5.58636927795e-05 0)
(0.000859084136301 6.69567578876e-05 0)
(0.000902658320212 7.1861218797e-05 0)
(0.000939638621631 5.48987122208e-05 0)
(0.000944798185611 4.23109059484e-05 0)
(0.000981638772669 4.42755320682e-05 0)
(0.00103164992628 6.04816129768e-05 0)
(0.00108934963532 8.07214981264e-05 0)
(0.00115459606564 8.60006213455e-05 0)
(0.00121190816971 7.93565987842e-05 0)
(0.00124999232091 7.41035850391e-05 0)
(0.00130585640025 7.26933323025e-05 0)
(0.00135924732472 7.00337692588e-05 0)
(0.00140502503793 6.55888402074e-05 0)
(0.00144769253781 6.10985427987e-05 0)
(0.00148893832364 5.77571736875e-05 0)
(0.00152826329244 5.71343605861e-05 0)
(0.00155894743767 5.5608765757e-05 0)
(0.00159889478953 5.11692142673e-05 0)
(0.00163493092614 5.45487183273e-05 0)
(0.00166851052015 5.94817763485e-05 0)
(0.00172519704063 5.75110694417e-05 0)
(0.0017634702657 6.03942183438e-05 0)
(0.0017941081479 6.37968822043e-05 0)
(0.00184504973488 6.20042866237e-05 0)
(0.00191190096394 5.87740998958e-05 0)
(0.00196276600182 5.12126760468e-05 0)
(0.00192290375871 4.12267565886e-05 0)
(0.00192005027835 3.6233329353e-05 0)
(0.0019565433708 3.44363534958e-05 0)
(0.00198455248434 3.22830286403e-05 0)
(0.00201712751081 2.86120610157e-05 0)
(0.00205052364053 2.26854113449e-05 0)
(0.00207283548841 1.49383708557e-05 0)
(0.002099118676 6.72111829884e-06 0)
(0.00211547381929 1.45904909328e-07 0)
(0.00210639695039 -2.48977166447e-06 0)
(0.00205595531887 -5.38847390278e-06 0)
(0.00201337016638 -1.12242900709e-05 0)
(0.00212555290564 -3.08936906606e-05 0)
(0.00207029027747 -6.93846711619e-05 0)
(0.00201824038354 -9.41409582268e-05 0)
(0.00203549860457 -8.69688156722e-05 0)
(0.0020082626766 -7.19685495723e-05 0)
(0.00196411363188 -8.33641078255e-05 0)
(0.00192634319281 -0.000100272700504 0)
(0.00191770433453 -0.000114482077365 0)
(0.00157419970027 -0.000125093203186 0)
(0.00172709541094 -0.000258317714691 0)
(0.00139326840618 -0.000298125802784 0)
(0.00115084585368 -0.000232362490732 0)
(0.000968660093173 -0.000158563360074 0)
(0.000871685320126 -0.000116015369117 0)
(0.000853555710665 -0.000106972852118 0)
(0.000799732920007 -0.000117167742988 0)
(0.000734848562559 -0.000134160688265 0)
(0.000642070581334 -0.000142464683033 0)
(0.00054150302616 -0.000137472891913 0)
(0.000438637519458 -0.000119214707203 0)
(0.000386377077609 -0.000113685200542 0)
(0.000322775294411 -0.000103411683477 0)
(0.000267177203191 -9.19534401264e-05 0)
(0.000212899956455 -7.65267962542e-05 0)
(0.000164650097608 -7.5698207733e-05 0)
(0.000100731088384 -7.80909485773e-05 0)
(4.58996037474e-05 -0.000124532367727 0)
(3.32798809494e-05 0.000197994572216 0)
(9.39028565108e-05 0.000215421270534 0)
(0.000144407827054 0.000202706527728 7.68032141603e-29)
(0.000248729606016 0.000207478631904 -7.25111808161e-29)
(0.000347621135544 0.000206835971992 -6.50266335321e-29)
(0.000407399470863 0.000168270835088 5.96335580436e-29)
(0.000449863420838 9.50575787591e-05 -6.02970582209e-29)
(0.000491495659586 0.000103752105397 5.92113421733e-29)
(0.000537554641688 0.000126184977928 0)
(0.000589621067456 0.000129997364186 0)
(0.000641306403295 0.000124232304157 0)
(0.000687535463675 0.000116869161359 0)
(0.000729922882388 0.000107911066147 0)
(0.000768840003862 0.000102548324707 0)
(0.000809436707709 0.000101057228351 0)
(0.000851256066523 9.44863609106e-05 0)
(0.00078561216244 7.39150446267e-05 0)
(0.000771540536568 6.2153525536e-05 0)
(0.000808685043076 7.23012574073e-05 0)
(0.000879132325905 0.000104800444884 0)
(0.00101937181986 0.000142340879349 0)
(0.001103385057 0.000153701547718 0)
(0.00114061024511 0.000145673952583 0)
(0.00119745443944 0.000136068220061 0)
(0.00125670561114 0.000130403640628 0)
(0.00130573144492 0.000126574907945 0)
(0.00135205152688 0.000119892388219 0)
(0.00139797178944 0.00011257814812 0)
(0.0014411972358 0.000106172814466 0)
(0.00148044431496 0.000101504361628 1.19354124248e-28)
(0.00152289239779 9.7551110297e-05 -1.15767987982e-28)
(0.00154690313964 9.39478261265e-05 0)
(0.0015823726388 9.05058261984e-05 0)
(0.0016371430951 8.96605516983e-05 0)
(0.00163710780904 0.000100205370281 0)
(0.00169365156447 0.000108769921747 0)
(0.00176760625549 0.000106665580819 0)
(0.001773323263 0.000110475372858 0)
(0.00183160240564 0.000120164348799 0)
(0.00190665041642 0.000113531860864 0)
(0.00195974236128 8.45057513631e-05 0)
(0.00199215102427 6.21589858619e-05 0)
(0.00202167533996 6.28209358555e-05 0)
(0.00205073863116 6.61754599687e-05 0)
(0.00207509030592 6.41309026898e-05 0)
(0.00209515487617 5.89252112031e-05 0)
(0.00211157880362 4.96567137879e-05 0)
(0.00212445838259 3.83547436756e-05 0)
(0.0021340941553 2.49816200989e-05 0)
(0.00214015868713 7.39123135147e-06 0)
(0.00214258396318 -1.10164756995e-05 0)
(0.00214088299359 -1.9271504078e-05 0)
(0.00213299918115 -1.3049200454e-05 0)
(0.00209851233452 -3.85266090605e-05 0)
(0.00204325652034 -8.37747769202e-05 0)
(0.00204476263689 -0.000101045367593 0)
(0.00203182297937 -0.000102646313214 0)
(0.00199144429584 -0.000109026829681 0)
(0.00194001456996 -0.00012434887823 0)
(0.00188402898793 -0.000154154757249 0)
(0.00180311415855 -0.000222417959297 0)
(0.00170618310301 -0.000300285865181 0)
(0.0016523084967 -0.000491043957381 0)
(0.0012754478127 -0.000513014931763 0)
(0.000987244546182 -0.000355452094704 0)
(0.00090761219863 -0.000251590845307 0)
(0.000865740655005 -0.000196056847991 0)
(0.000800587204133 -0.000175969359539 0)
(0.000735887324062 -0.000191631164444 0)
(0.000661034885379 -0.000215871404225 0)
(0.000571700689113 -0.000222743381287 0)
(0.000489382829342 -0.000208166448976 0)
(0.0004348488765 -0.000190102599057 0)
(0.000382317765661 -0.000180678452405 0)
(0.000317205501733 -0.00017054260287 0)
(0.000252223377967 -0.000152989070156 0)
(0.000193032191733 -0.000133733465458 0)
(0.000145160537778 -0.00013767093683 0)
(9.87962759034e-05 -0.000172326045765 0)
(2.50047906822e-05 -0.000169066367476 0)
(3.20420482762e-05 0.000295343298251 0)
(4.35813065254e-05 0.000198372230018 0)
(0.000117224909043 0.000306117959521 0)
(0.000215735479176 0.000308806431652 0)
(0.000298864997588 0.00026344672343 0)
(0.000171046709085 0.000103191242499 0)
(0.000214538849394 0.000106455299203 0)
(0.000404446403738 0.000196167153514 0)
(0.000502031287709 0.000208347064766 0)
(0.000566558988829 0.000192185692361 0)
(0.000627160216665 0.000179374945034 0)
(0.000678552018446 0.000164531624453 0)
(0.00072256397823 0.000150355203777 0)
(0.000754487602424 0.000128593767404 0)
(0.000721264567251 9.51545859227e-05 0)
(0.000691746881453 7.19631321905e-05 0)
(0.00070209064022 7.12083373508e-05 0)
(0.000759062680379 0.000103377034185 0)
(0.0008761118131 0.000158811843282 0)
(0.000993106584403 0.000213293221804 0)
(0.00104066381625 0.00022474861265 0)
(0.00109057048666 0.000212580959597 0)
(0.00114727663479 0.000201044297408 0)
(0.00119974872952 0.000192176614475 0)
(0.00124882433885 0.000182633938707 0)
(0.001295512707 0.000173220170532 0)
(0.00134016023029 0.000164722508021 0)
(0.0013890698316 0.000156405720011 0)
(0.00142815738918 0.000147777147222 0)
(0.00147524412055 0.000141112207156 0)
(0.00150154147022 0.000134114066929 0)
(0.00154834088725 0.000127678136852 0)
(0.0015560578497 0.000118550884302 0)
(0.00159747749303 0.00012423465978 0)
(0.00166951201451 0.000141413982815 0)
(0.00167883624461 0.000155257596334 0)
(0.00174985911719 0.000161874488759 0)
(0.0018258818848 0.00016704995468 0)
(0.00187219580839 0.000172617611082 0)
(0.00191294286277 0.000159389198871 0)
(0.00195313316784 0.000129480336163 0)
(0.0019890307636 0.00010401055811 0)
(0.00202150080276 9.39198387933e-05 0)
(0.00205068562172 8.98833535719e-05 0)
(0.00207510763575 8.3933524043e-05 0)
(0.00209522696521 7.48822139047e-05 -1.10585055235e-28)
(0.00211164271122 6.27236215055e-05 1.11414966239e-28)
(0.00212448764701 4.81367350267e-05 0)
(0.00213381492644 3.11658771338e-05 0)
(0.00213937296136 1.17545620255e-05 0)
(0.0021404921415 -7.58341954751e-06 0)
(0.00213512334643 -2.39017048485e-05 0)
(0.00212025089334 -4.24452734341e-05 0)
(0.00209381731404 -7.41699669834e-05 0)
(0.00206461433964 -0.000104135440915 0)
(0.00203938213706 -0.000122187621728 0)
(0.00200669351484 -0.000140515126787 0)
(0.00195697431756 -0.000163011490002 -2.22966258772e-28)
(0.00188942757075 -0.000194627298061 2.59195417709e-28)
(0.00180072684391 -0.000246569178157 0)
(0.00168237872055 -0.000330345870795 0)
(0.00153956435006 -0.000457157857451 0)
(0.00140554761202 -0.000656232953708 0)
(0.00123197177328 -0.000718579790633 0)
(0.00105006587467 -0.000540911419417 0)
(0.000862776527642 -0.00033281013707 0)
(0.00078335541434 -0.000256598005971 0)
(0.000727698551966 -0.000244314051295 0)
(0.000669517169248 -0.000263094261149 0)
(0.000615376129373 -0.000296258424687 0)
(0.000546234177234 -0.000306210699384 0)
(0.000475271056763 -0.000286650196415 0)
(0.000405166166652 -0.000261670990901 0)
(0.000321769107261 -0.000237275744121 0)
(0.000259456796657 -0.000226005119597 0)
(0.000202506227045 -0.000217721390145 0)
(0.000142470146093 -0.000193674975244 0)
(8.16639276038e-05 -0.000153766474398 0)
(5.89264466632e-05 -0.000190772101831 0)
(1.94999086281e-05 -0.000217800557856 0)
(1.62630120771e-06 0.000293215259465 0)
(2.15434158777e-05 0.000241619830713 0)
(0.000105263894508 0.000400712607888 0)
(0.000182425631802 0.000371831512702 0)
(0.000194209464713 0.000244913713679 0)
(0.000154346361395 0.000138696812383 0)
(0.000266400034595 0.000227968289067 0)
(0.00040952194302 0.000321332897473 0)
(0.000467490778013 0.000292707391998 0)
(0.000537794752247 0.00026118396209 0)
(0.000602637418128 0.000244015316456 0)
(0.000657650462166 0.000218580189311 0)
(0.000667917811616 0.000164504221853 0)
(0.000617880848958 0.000106210610885 0)
(0.000636796921813 8.88889455374e-05 0)
(0.000685907087016 0.000102741916788 0)
(0.000768217784627 0.000144038780403 0)
(0.000871020601272 0.000205995877685 0)
(0.000948709031593 0.000253530745626 0)
(0.000979137624534 0.000264448397181 0)
(0.00102776162143 0.000269146532406 0)
(0.00108704740946 0.000268323745558 0)
(0.00113905403564 0.00025712809611 0)
(0.00118941941857 0.000243179906567 0)
(0.00123694644213 0.000230321376482 0)
(0.00128127032468 0.000220029028238 0)
(0.00133129213958 0.000210445546117 0)
(0.00136788314298 0.00019938982616 0)
(0.00142188717134 0.000190105777172 0)
(0.00144483334546 0.000178128668676 0)
(0.00150238823268 0.000170568048369 1.14179324609e-28)
(0.00149269092482 0.000157438992921 -1.07328808576e-28)
(0.00155913551986 0.00015981784326 0)
(0.00162208258437 0.000169135803604 0)
(0.00163946574495 0.000185557336017 0)
(0.0017216605692 0.000213020408357 0)
(0.00177961487377 0.000228251126141 0)
(0.00182932782849 0.000224001434948 0)
(0.00187239324352 0.000212697320893 0)
(0.00191192316186 0.000194573211337 0)
(0.00195107907829 0.000168235964696 0)
(0.00198813725005 0.000143246236381 0)
(0.00202173829475 0.000127235832485 0)
(0.00205119934924 0.000116649584477 0)
(0.00207590952045 0.000105935073578 0)
(0.0020963056498 9.29691563296e-05 0)
(0.0021128284937 7.73268705491e-05 0)
(0.00212555266603 5.91640007458e-05 0)
(0.00213429404485 3.84078488267e-05 0)
(0.00213857008899 1.51211257557e-05 0)
(0.00213744356978 -9.59030911794e-06 0)
(0.00212907507714 -3.51050873261e-05 0)
(0.00211149768907 -6.4037815846e-05 0)
(0.00208472531832 -9.84503830054e-05 0)
(0.00205320644043 -0.000131283624253 0)
(0.00201831028157 -0.000160371957434 0)
(0.00197170631829 -0.00019350775013 0)
(0.00190396028075 -0.000236326414638 0)
(0.00180944234988 -0.00029411523168 0)
(0.00168520994955 -0.000374439077068 0)
(0.00153541068014 -0.000482469179651 0)
(0.00138262208401 -0.000619846131429 0)
(0.00124493681425 -0.000776661256664 0)
(0.00117310416958 -0.000844469492961 0)
(0.00104584941933 -0.000690183693629 0)
(0.000872942967431 -0.000473219917825 0)
(0.000764238259823 -0.000363880980054 0)
(0.000675065956761 -0.000323483994381 0)
(0.000603259438548 -0.000327541495559 0)
(0.000547927654886 -0.000356429011143 0)
(0.000492695710271 -0.000377380772337 0)
(0.000421357421949 -0.000362529292736 0)
(0.000332906272284 -0.000320869102097 0)
(0.000269867384521 -0.000301626880152 0)
(0.000211041838679 -0.000294342465582 0)
(0.000153182595425 -0.000280981153712 0)
(0.00010003597864 -0.000230550072609 0)
(6.29382299615e-05 -0.000194069616285 0)
(3.8850593087e-05 -0.000235545603512 0)
(9.44465449261e-06 -0.000240856718589 0)
(-1.75656503043e-06 0.000273048908393 0)
(2.65738964641e-05 0.000293326918323 0)
(0.000105657028558 0.000455558410538 0)
(0.000148118683722 0.000381768141009 0)
(0.00011095795841 0.000191121963727 0)
(0.000153832110575 0.000197904346275 0)
(0.000330421993106 0.000367818960851 0)
(0.000390070220285 0.000386979219665 0)
(0.000441025101987 0.000357196924003 0)
(0.000503373219723 0.000330554261985 0)
(0.000567040589959 0.000292466925372 0)
(0.000533398300133 0.000208463235609 0)
(0.000490541138698 0.000131826137696 0)
(0.00053429333278 0.000119768893396 0)
(0.000592497215 0.000140949756908 0)
(0.000698085187068 0.000191511776803 0)
(0.00081003055068 0.000247883593346 0)
(0.000887660506364 0.000281156817049 0)
(0.000906081009513 0.000286274037977 0)
(0.000960490949715 0.000307820179613 0)
(0.00102505565428 0.000326367853546 0)
(0.00107592455289 0.000322612377479 0)
(0.00112518132143 0.000308917427909 0)
(0.0011726394989 0.000293389873448 0)
(0.00122512885463 0.000279830349948 0)
(0.00126950173568 0.000264152835273 0)
(0.00129636907618 0.00025239684103 0)
(0.00136341691801 0.000245111026483 0)
(0.00137416522538 0.000226343389139 0)
(0.00144778756918 0.000214689960739 0)
(0.00141865085777 0.000193826045036 0)
(0.00150750438873 0.000200753534861 0)
(0.00149288098051 0.00020125518459 0)
(0.00158597796558 0.000222946523518 0)
(0.00167725520994 0.000254619923147 0)
(0.00173676546619 0.000278190771068 0)
(0.00178467069183 0.000279319917009 0)
(0.00182906929589 0.000268738123664 0)
(0.00187077706624 0.000252945775749 0)
(0.00191095427591 0.000232443042733 0)
(0.00195019097447 0.00020696073341 0)
(0.00198761307642 0.000181398513596 0)
(0.00202182455876 0.000160758065784 0)
(0.0020517143483 0.000144211375096 0)
(0.00207694265948 0.000128392685641 0)
(0.00209774827538 0.000111170191252 0)
(0.00211446419326 9.16841178357e-05 0)
(0.00212697411839 6.95832011886e-05 0)
(0.00213479776679 4.45129052706e-05 0)
(0.00213726612292 1.62911822163e-05 0)
(0.00213340738837 -1.48390377227e-05 0)
(0.00212177924607 -4.89064734765e-05 0)
(0.00210117575086 -8.66243512039e-05 0)
(0.00207180420779 -0.000127313376183 0)
(0.00203489197398 -0.000168279542027 0)
(0.00198803220339 -0.000211922197398 0)
(0.00192283207335 -0.000265749540259 0)
(0.00183097181188 -0.000335233191927 0)
(0.00171002292834 -0.000422539254203 0)
(0.00156282681157 -0.000525805320496 0)
(0.00140607180226 -0.000641759957491 0)
(0.00126379191296 -0.000758523794906 0)
(0.00108304177369 -0.000821365454836 0)
(0.00112353944168 -0.000966719092321 0)
(0.000930556642079 -0.000786565561702 0)
(0.000788948068542 -0.000570593990954 0)
(0.000706910765816 -0.000466777152961 0)
(0.000616917701203 -0.000409783632582 0)
(0.000535634905195 -0.000392388177157 0)
(0.000485796657705 -0.000424485702183 0)
(0.00043173400708 -0.000454808305474 0)
(0.000348148892882 -0.000418331202185 0)
(0.000279617084732 -0.000380799934409 0)
(0.000223257953495 -0.000369627181946 0)
(0.000161164535645 -0.000356992231701 0)
(0.00011347651894 -0.000330544407391 0)
(7.16688058877e-05 -0.000257584739455 0)
(4.32545062583e-05 -0.000224249961654 0)
(2.38706269621e-05 -0.00025992775195 0)
(6.30976779456e-06 -0.000255834276537 0)
(8.69875670842e-06 0.000295750991887 0)
(6.09520860262e-05 0.000381394493434 0)
(0.000136627934724 0.000494057187395 0)
(0.000150814127956 0.000462401920866 0)
(0.000102301221719 0.000239595032638 0)
(0.000219469335836 0.000347206321911 0)
(0.000336490080839 0.000447274476868 0)
(0.000368997493468 0.000434250005576 0)
(0.000417390531657 0.000407295689967 0)
(0.000451664582113 0.000376399438196 0)
(0.000529638499172 0.000323418886244 -2.75684207956e-28)
(0.000414575334361 0.000173182299561 1.64961882672e-28)
(0.000477668630069 0.000162256179516 0)
(0.000516484049901 0.000177368122205 0)
(0.000610323084847 0.000232596863594 0)
(0.000733002508447 0.000306361104452 0)
(0.000815089497302 0.000332381676804 0)
(0.000818336325009 0.000311578243764 0)
(0.00087836970162 0.000333028022226 0)
(0.000957005908073 0.000371660446892 0)
(0.00100724323256 0.000381584030982 0)
(0.00105913800368 0.000374181057704 0)
(0.00111007416056 0.000360386631707 0)
(0.00115925616043 0.000342515511397 0)
(0.00119875653584 0.000321291350745 0)
(0.00122925001815 0.000301364311932 0)
(0.0012921058626 0.00029424201267 0)
(0.00129062491578 0.000280087490692 0)
(0.00138144834899 0.000268905265752 0)
(0.00134307373658 0.000229259204601 0)
(0.00144001748698 0.000235026645786 0)
(0.00143218970633 0.000240589043163 -1.0421394194e-28)
(0.00152576098689 0.000262489908622 1.08326086111e-28)
(0.00158739962846 0.000299067020886 0)
(0.00168815373486 0.000332186053096 0)
(0.00174002266419 0.000335219224172 0)
(0.00178340115821 0.000325594227637 0)
(0.00182632417105 0.000311238330146 0)
(0.00186895212288 0.000293416802303 0)
(0.00191027251469 0.000271600771271 0)
(0.00194991445626 0.00024580955792 0)
(0.00198765657737 0.000218967182486 0)
(0.00202230038467 0.000194429853792 0)
(0.00205269913019 0.000172575000863 0)
(0.0020785033195 0.000151625894227 0)
(0.00209983278647 0.000129821221322 0)
(0.00211676179909 0.000106002414041 0)
(0.00212887539774 7.93363234842e-05 0)
(0.00213544496952 4.91326272141e-05 0)
(0.00213571275654 1.49511993751e-05 0)
(0.00212879146786 -2.33537699007e-05 0)
(0.0021135623714 -6.58262768074e-05 0)
(0.00208912498377 -0.000112360318111 0)
(0.00205497053395 -0.000162426155458 0)
(0.00200969877054 -0.000216765785815 0)
(0.00194835131401 -0.000280389232457 0)
(0.00186287556065 -0.00035987777523 0)
(0.00174838754467 -0.00045683862194 0)
(0.00160945191226 -0.000565850814132 0)
(0.00146189112303 -0.000677692364564 0)
(0.00132169963466 -0.000783222121555 0)
(0.00119902271716 -0.000875624860201 0)
(0.00110564028847 -0.00096492311476 0)
(0.00105880238792 -0.00105081121753 0)
(0.000894926812604 -0.000907587747777 0)
(0.000692051372571 -0.000644364178902 0)
(0.000640610196326 -0.000554348387866 0)
(0.000567097252192 -0.000504202275376 0)
(0.000487942590389 -0.000480877720432 0)
(0.000426912675892 -0.000501661071707 0)
(0.000364979971391 -0.000509635897423 0)
(0.000294294344975 -0.00046866040208 0)
(0.00023808289474 -0.000450053017796 0)
(0.000173561286694 -0.000435788206181 0)
(0.000116069180962 -0.000413503254652 0)
(7.59702872104e-05 -0.000354290410501 0)
(4.7423025004e-05 -0.000292563708524 0)
(1.88328508915e-05 -0.000248845125922 0)
(5.79559783084e-06 -0.000270404545076 0)
(2.00708112727e-06 -0.000269406376767 0)
(1.87576994795e-05 0.000343236246638 0)
(8.61915183313e-05 0.000464844622056 0)
(0.000151479118882 0.000511639830599 0)
(9.37420647918e-05 0.000310200292963 0)
(0.000105741673993 0.000296718529561 0)
(0.000252739470742 0.000478545315099 0)
(0.000305916728042 0.0004932374851 0)
(0.000350857118415 0.000480284356833 0)
(0.000376781678603 0.000441400348172 0)
(0.000427669554065 0.000411583609823 0)
(0.000350111496903 0.000250151182759 0)
(0.000400687376891 0.000204678807564 0)
(0.000456788138402 0.00021162781372 0)
(0.000507394219948 0.000247713540728 0)
(0.000643276525225 0.000343648806047 0)
(0.000737756939392 0.000390132897234 0)
(0.00073400562452 0.000355282436641 0)
(0.00078362802348 0.000359076978301 0)
(0.000873720932319 0.000406420065866 0)
(0.000937677110426 0.000432767965617 0)
(0.00098470490721 0.000432989731079 0)
(0.0010326754024 0.00042387991491 0)
(0.00108786238557 0.000413068770936 0)
(0.00113591749403 0.000392722164288 0)
(0.00118876933634 0.00036303439464 0)
(0.00119979196115 0.000342995803411 0)
(0.00127563651918 0.000334920358569 0)
(0.00129006490701 0.000313400298382 0)
(0.00129411642714 0.000287792778735 0)
(0.00134293569391 0.000279031315458 0)
(0.00145106865027 0.000290854262288 0)
(0.00145462112033 0.00028812187142 0)
(0.00149624787159 0.000327157189306 0)
(0.00163050151265 0.000384668772278 0)
(0.00168583952335 0.000399079182285 0)
(0.00173401698365 0.000386952076241 0)
(0.00177927658246 0.000370955667489 0)
(0.00182315356364 0.00035428635376 0)
(0.00186690928565 0.000335147292209 0)
(0.00190955400451 0.000312068869537 0)
(0.00195006168036 0.000285138448644 0)
(0.00198822445437 0.000256412730262 0)
(0.00202336067811 0.000228295947926 0)
(0.0020544362149 0.000201615031345 0)
(0.00208096770189 0.000175607348371 -1.06850304932e-28)
(0.00210291638516 0.000148925563359 1.06576281033e-28)
(0.0021200379014 0.000120191125082 0)
(0.0021315869121 8.81668936233e-05 0)
(0.00213663050914 5.19092009654e-05 0)
(0.00213439190298 1.08340906502e-05 0)
(0.00212407028663 -3.53329117079e-05 0)
(0.00210475407449 -8.66873634134e-05 0)
(0.00207554320839 -0.000143281262959 0)
(0.00203498875878 -0.000206017856759 0)
(0.00197958859059 -0.000278277379464 0)
(0.00190304115691 -0.000365989499997 0)
(0.00179914943381 -0.00047235630268 0)
(0.00166871647831 -0.000592165820268 0)
(0.00152436050003 -0.000712228685187 0)
(0.00138387015327 -0.00081936598213 0)
(0.00125694018006 -0.000905133441618 0)
(0.00115283056204 -0.000973698037119 0)
(0.00107621082077 -0.00103871312593 0)
(0.00101400720499 -0.00110785704782 0)
(0.00101268490683 -0.00115097384575 0)
(0.00069014615628 -0.000784276798117 0)
(0.000560132226173 -0.000635144553439 0)
(0.000490682365694 -0.000579660510689 0)
(0.000415651949319 -0.000549478530858 0)
(0.000360892363011 -0.000555881406847 0)
(0.000310975529602 -0.000551144086358 0)
(0.000254697009811 -0.000528765385158 0)
(0.000192506891231 -0.000520883014001 0)
(0.000123985772155 -0.000500833783543 0)
(7.11127941632e-05 -0.000458151707267 0)
(3.57804534009e-05 -0.000381198738589 0)
(1.02976668284e-05 -0.000324117644124 0)
(-1.27452691428e-05 -0.00027459980498 0)
(-1.96466865805e-05 -0.000270152246819 0)
(-7.82184262279e-06 -0.000270376622328 0)
(2.61918220718e-05 0.000403067914898 0)
(9.72163151953e-05 0.000531390346426 0)
(0.000123738008066 0.000524265940799 0)
(8.77239772159e-05 0.000339011788357 0)
(0.000147530753951 0.00039052859137 0)
(0.000257355402212 0.000539901477337 0)
(0.00027643280209 0.000535380132389 0)
(0.000333158416051 0.000522299658926 0)
(0.000318783985085 0.000438616634294 0)
(0.000415242948385 0.00046125272751 0)
(0.000329534719823 0.000275786448404 0)
(0.00039735898221 0.00025745877032 0)
(0.000441963538003 0.000270172025101 0)
(0.000532875354478 0.000347890066029 0)
(0.000648850610863 0.000441533475751 0)
(0.000709571866296 0.000442879647119 0)
(0.000702967122077 0.000396668848003 0)
(0.000774211799926 0.000428546249686 0)
(0.0008525464815 0.000474991339866 0)
(0.00090953492782 0.000489500709702 0)
(0.000962455958457 0.00048494998021 0)
(0.00100566441841 0.000471488112524 0)
(0.00105734689499 0.0004594886056 0)
(0.00109074183498 0.000435862230071 0)
(0.00111784496575 0.000393596766175 0)
(0.00119898995051 0.000385338170076 0)
(0.00116915649047 0.00036181186298 0)
(0.00130320302542 0.000359626146238 0)
(0.00126691986164 0.000332250550003 0)
(0.00139436973738 0.000348196167781 0)
(0.00135972571654 0.000326760424732 0)
(0.00149083847545 0.000357808147683 0)
(0.00156079730615 0.000412153357829 -1.15790126315e-28)
(0.00162709639093 0.000453003031472 1.17741074454e-28)
(0.00167843496171 0.000452449958244 0)
(0.00172667018884 0.000436365064681 0)
(0.00177413466634 0.000417857174659 0)
(0.00181980036647 0.000399046316289 0)
(0.00186469909992 0.0003783437332 0)
(0.00190851895775 0.000353850182682 0)
(0.00195025318664 0.00032528914211 0)
(0.00198933498428 0.000294227353694 0)
(0.00202520854144 0.000262614497688 0)
(0.00205715207791 0.000231421717123 0)
(0.00208468597587 0.000200413094762 0)
(0.00210742628319 0.000168512067051 0)
(0.00212474449185 0.000134192675834 0)
(0.0021356380358 9.5926469395e-05 0)
(0.00213903488147 5.26150672305e-05 0)
(0.00213407265818 3.68445607972e-06 0)
(0.00212002045881 -5.12058629244e-05 0)
(0.0020961392366 -0.000112338831455 0)
(0.00206151754573 -0.00018064552837 0)
(0.00201389413711 -0.00025885507388 0)
(0.00194838580001 -0.000352299596235 0)
(0.00185827998396 -0.000465818693684 0)
(0.00174024041772 -0.00059689788434 0)
(0.00160084551851 -0.000733217228108 0)
(0.0014567886996 -0.000857934299867 0)
(0.00132077950288 -0.000957415121856 0)
(0.00119673538513 -0.00102183950783 0)
(0.0010919021636 -0.00105975297075 0)
(0.00101721160822 -0.00109904713118 0)
(0.000967840844679 -0.0011482307434 0)
(0.000972639252727 -0.00120286727368 0)
(0.000851871904174 -0.00107725430957 0)
(0.000524467064081 -0.000733460510851 0)
(0.000408165776556 -0.000658316064134 0)
(0.000353989424855 -0.000619408269599 0)
(0.00031173831954 -0.00059940334275 0)
(0.000271517539855 -0.000591619889402 0)
(0.000218710093617 -0.000596871497953 0)
(0.000146532287794 -0.000596106322012 0)
(7.3634668366e-05 -0.000564751967258 0)
(1.8600497584e-05 -0.000497590642279 0)
(-1.88377504601e-05 -0.000415395495169 0)
(-4.45538655011e-05 -0.000347669944955 0)
(-5.70699007655e-05 -0.000293069659417 0)
(-4.93435920225e-05 -0.000259131831755 0)
(-1.95674086724e-05 -0.00024393986872 0)
(3.17839394095e-05 0.000476857332301 0)
(0.00010725834595 0.00057946938004 0)
(0.000111084026691 0.00051701918602 0)
(8.74086365213e-05 0.000363774731936 0)
(0.000187781852977 0.00052409633675 0)
(0.000226979852057 0.000554355451256 0)
(0.00025044692438 0.000572032604467 0)