/*--------------------------------*- C++ -*----------------------------------*\
| =========                 |                                                 |
| \\      /  F ield         | OpenFOAM: The Open Source CFD Toolbox           |
|  \\    /   O peration     | Version:  v1806                                 |
|   \\  /    A nd           | Web:      www.OpenFOAM.com                      |
|    \\/     M anipulation  |                                                 |
\*---------------------------------------------------------------------------*/
FoamFile
{
    version     2.0;
    format      ascii;
    class       volScalarField;
    location    "76";
    object      alpha;
}
// * * * * * * * * * * * * * * * * * * * * * * * * * * * * * * * * * * * * * //

dimensions      [0 0 -1 0 0 0 0];


internalField   nonuniform List<scalar> 
6400
(
0.808397511279
1.17400604655
1.76483088488
1.91206137998
2.07908732488
2.31317402522
2.85960948571
3.52398874875
3.48047942793
3.5746375491
4.6688964414
4.91966407374
5.05842893224
5.36332463813
6.01720002763
6.66792377455
7.01630122066
7.390803297
7.80319513318
7.97347610247
7.79819083672
7.55383744548
7.5056203527
7.7944537601
8.16055115633
8.43209460994
8.48186398078
8.48409194841
8.63036441432
8.92397747114
9.32538927239
9.44655927804
9.28194995302
9.07908306171
8.82507562757
8.27360949809
7.85889635561
8.25894957969
7.87549738595
7.01804305217
6.42927729089
6.35076656424
6.41156553019
6.40987128217
6.39247974794
6.30412666535
6.26499694144
6.36606264103
6.57120844459
6.7433130384
6.73959617376
5.20971125636
4.72866665705
4.31108190584
4.72559907036
6.56054333919
7.44282452856
6.6725633904
5.34433324185
5.3235802915
4.72717097318
3.99792120328
3.18267775799
5.26162120219
9.46757556873
14.4754258556
17.506814854
17.2413846961
15.2483399697
13.5565369962
12.5779741903
12.6295767478
13.0316526094
12.8230917204
14.7560931388
14.1563335901
15.9875650646
9.88299237872
12.8703071528
4.81167894456
3.0509014007
2.32821061098
2.82080920785
3.9873761459
3.511951258
2.90618369362
2.75045545043
2.90070927046
3.19223318343
3.60154775569
4.16577975117
4.72996844206
5.19298866729
5.63432486094
6.04763210476
6.55122404262
7.08217062803
7.70454138995
8.96340194216
8.86703737819
8.33703087624
7.90240285791
7.5673171527
7.687134924
8.53152226091
8.54577559718
8.4778835826
8.61229420601
8.83201535809
9.09722708934
9.38585819501
9.90889118482
9.78175277738
9.66806680057
9.63556502983
8.58945826859
8.57274505552
8.8992527419
8.20051772902
6.71578386019
5.98083707219
10.1736694512
11.8294640797
11.7820781703
11.6337278972
11.0444283209
10.1877846478
9.57424603025
8.58957581189
7.8772816848
8.21506673699
9.67605114931
10.2524484927
4.67472997407
5.4865772728
5.69322207424
3.31694580645
2.76649422266
2.47138884248
2.14372208522
1.94798228426
4.17093680764
3.11590939988
5.33904343439
9.46078718545
15.3696762705
19.1391548612
17.976480467
15.8171992853
13.8545616104
13.0372485871
13.3095371205
14.2610252066
13.6156935544
13.3925138557
12.8173695482
11.5850427943
9.72982020626
8.17444760288
4.25849616163
2.95121410449
2.44468699239
2.90898594785
2.85360233174
2.90842930386
3.12942752768
3.03042538133
2.88469521596
3.14249488954
3.59288615727
4.13116429569
4.7154538774
5.23708656116
5.70031902421
6.0088087174
6.4810662253
10.3085616511
12.58891056
12.7394152805
11.4841735236
8.33063462265
7.1332340929
7.91247654078
8.10212503003
8.12217072124
8.40162212514
8.65380601283
8.80703769015
9.01211604375
9.37175356035
9.54121401999
10.367312799
10.4380499648
9.47072396108
10.8995148222
10.0154890806
8.39400608017
9.92176772919
8.91292385768
6.94611573275
5.89974274986
6.08020170976
6.38057379164
6.47668115569
6.46107844823
6.38312146583
6.26424648965
6.11452390287
5.93181072936
5.72242230106
5.46355076093
5.1261803705
4.83906359605
5.43648845708
6.19737562511
4.42323252541
3.26325553405
2.82182907695
2.55082689258
2.35107538048
2.31030441366
2.25107428609
2.39195162868
5.84805797781
11.364137705
16.1686352194
18.532437245
18.6808781353
17.0851378924
15.364754097
14.5843994571
14.3912899441
13.6589107896
12.9983011611
12.9018163127
12.4979971541
11.4758290222
9.83786676815
7.39859661066
7.57672594009
2.60644810533
5.22197833243
2.87052902124
2.68792087279
3.29303094014
11.6093307016
9.88982259141
3.92841149217
3.19456901516
3.64804717227
4.15198667995
4.72767896777
5.23869204219
5.89182672455
8.28303877063
10.825426751
12.489738089
12.4343522123
10.1195733494
7.5959596986
7.37511260316
7.42713685749
7.47675586048
7.77921814401
8.20191880661
8.61378996796
8.96929241407
9.02113542401
9.42798788743
9.43898942323
10.341123896
10.178662999
11.3984719492
11.0105235652
9.33869843413
10.516669821
9.14003588349
7.24701007338
6.64232543159
6.38424578974
6.24896730775
6.3172367212
6.4602884547
6.53297883826
6.52872251573
6.45986175344
6.33840946762
6.1775976794
5.98622610406
5.77212714415
5.53930152551
5.31239438509
5.16082041157
5.05281512267
4.74119272276
4.11677681113
3.42535120782
2.96565058245
2.76361762097
2.70318257192
2.72014206341
2.76351264039
3.12592439437
5.91220780126
10.3346894641
16.3679496371
20.0356778701
20.2701284871
18.6079951255
16.2415926633
14.5848108188
13.7165784647
13.8026744904
15.117267028
14.9940752522
13.623300259
13.437520585
16.6993046377
13.0936150415
11.103753454
5.0658780747
7.16487238336
3.09464158608
3.43083604872
5.90930617672
11.4834217499
7.40434264792
3.75068253779
3.61912174673
3.85066721266
4.309326135
4.96034828843
6.62066851525
9.62119060136
10.554761186
10.5739998091
9.82264870409
8.36629441089
7.29639532555
7.67549686397
7.54705497614
7.25754811941
7.47696741243
7.88582728501
8.38969590312
8.9178656056
9.08820451286
9.70132757184
9.48431242935
10.5425893002
10.0995352944
12.2884518451
11.0706525617
9.70501926619
10.4354362673
8.42838090067
7.49555121653
6.91542075821
6.64990787073
6.5393815107
6.45441559312
6.45894181949
6.53032451938
6.58217292342
6.58020712375
6.5111042624
6.38432570868
6.21622717601
6.02404933135
5.82301160127
5.62110284897
5.43297657259
5.26998287926
5.07323770172
4.70507478288
4.12635098835
3.52079417139
3.11949658542
3.01008202191
3.07033217338
3.18693747031
3.36634623754
3.98376512209
5.79993650448
9.8372407726
15.6009119154
19.9563016602
21.4159902567
20.2423116946
17.4613302576
14.9537716932
14.5833153325
16.7690053645
17.5839392777
16.4925229118
15.5249748235
18.1208035212
21.1021599739
16.3939670233
15.4933545002
9.44488128712
8.52483811011
3.80954259715
4.85673618924
11.7216190428
11.1063102733
4.82890689912
4.05222879098
4.08913928094
4.16115813279
4.73214540317
8.12982041024
11.8515717472
12.0409134954
11.2933246641
9.44605147777
7.7630314856
7.03853058097
8.05360913658
7.76362473692
7.13953119454
7.24089798116
7.62420797884
8.16931932424
8.49253758079
9.0610863665
10.1886334134
9.61537095137
11.2070027202
10.2025860421
13.1372422172
11.4583504909
13.3640450979
10.9895119388
8.51603601711
7.43693928948
7.06902311561
6.88928254537
6.7894330406
6.69461702481
6.62329601821
6.60675032326
6.6342878831
6.66469932109
6.65121729481
6.57716042049
6.44216713696
6.2687867414
6.08530160324
5.90771149827
5.73703234819
5.56931224535
5.38409282719
5.12032313346
4.70856253081
4.17403176261
3.67273013722
3.34453693854
3.19295681234
3.30512570861
3.51346724985
4.08886528645
6.3123288359
5.01783922456
10.775171418
17.026151648
20.9648100176
22.4694573238
21.5514466589
18.1627884288
15.9821789862
17.8050437154
19.9905613546
19.4207156707
18.3711023745
18.3855608064
22.8742896688
24.418735411
19.3692490674
19.148766762
11.4715604716
7.91087036904
4.63332522887
4.50474216173
11.5442570776
7.23345678711
4.40016595664
4.4568193035
4.52752837659
5.29862627304
5.53969648946
11.9383902198
12.2656285845
12.0804225056
9.97526165607
7.58525867524
6.787013179
8.51705225493
8.20280281034
7.09091998048
7.11469646352
7.33247509155
7.71972797435
8.2586544043
9.15016119042
10.2405341055
10.0033760872
12.106039752
10.728917462
13.9033130663
12.0820805105
13.9240552657
11.8111817006
10.6268739574
7.57864440907
7.01291722139
7.00407948188
7.01026394621
6.93258096405
6.83696605752
6.7799242309
6.7551150058
6.75963937102
6.76974639621
6.74351162215
6.65765251326
6.51334351172
6.34129888819
6.17562366513
6.02715592942
5.88490748105
5.72773090917
5.51754098871
5.20489137262
4.76985331557
4.27168929189
3.83149279442
3.52887295309
3.37809134245
3.36424893611
3.62907360392
4.28167751967
4.57646647638
5.16573611858
11.1834382578
19.1187182526
21.9593259359
22.5005683756
21.4739938144
19.2165811975
19.0834969823
21.7346896548
22.1651119012
21.2774247605
20.6319269642
22.5066182937
25.1613744553
26.5795807208
21.9156976538
20.7327186935
10.9656110547
6.95989557182
5.60868164993
11.4337154765
11.4310053892
5.22455896452
4.86288909821
4.89731462503
5.27209143723
5.80057019139
11.7860663026
12.6041259996
12.3689843144
11.5335004956
8.04251675349
6.54441579196
8.62851163299
8.84402281689
7.39829536643
6.82773454637
7.16997143679
7.64931036592
7.96520563382
8.64289160657
9.12261826871
10.9339054828
10.1994615666
11.849404582
13.7795398215
13.7434042338
11.2317047139
12.6685528835
12.5024192612
8.17920355613
7.28103877816
7.06853397884
7.09643351482
7.13325159145
7.07256987392
6.97934511432
6.92792506366
6.91024575656
6.90477113802
6.89547306908
6.85271380558
6.7523161133
6.60167825446
6.4389352134
6.298988596
6.1826671629
6.06622050286
5.91366263576
5.67714385713
5.32408835341
4.87330830927
4.39435940157
3.9595389689
3.59300803094
3.30848530564
3.26237860259
3.71295956921
4.27975610789
4.91252537795
5.77571160408
7.33211793332
18.4098486242
23.1488373863
23.468962136
23.016536024
22.2283281965
23.31225352
24.7897420593
24.0928890154
23.3613929183
23.4839013586
25.6818191998
26.2306508972
26.7578118951
23.7716875647
21.5305581358
9.9056613945
6.27694188931
6.26980826697
12.2872002683
9.84811464254
5.22914388743
5.37171798351
5.49314361927
7.59763933852
5.61695235827
12.5588635464
12.9501651397
12.3080811461
9.70372153256
6.92639583218
6.63150108999
8.81459873453
8.19717122144
7.03590050527
6.84844851312
7.12291743205
7.86105459526
8.40738482694
9.81733494886
11.2629655917
10.513136646
13.6414611534
10.9484144194
14.3067993572
11.45312944
14.2938187125
10.701202185
9.20797788557
7.73540289966
7.32675991812
7.23183121289
7.21851586568
7.24170431445
7.20771354258
7.13851556219
7.09121260426
7.07374121731
7.06478505932
7.0408952479
6.9758747334
6.86034999034
6.71171793734
6.56812715397
6.45838723715
6.37524076176
6.28216599802
6.12832062172
5.8604922177
5.46531615654
4.99168583491
4.50375711901
4.01789345227
3.48594236663
2.93796536321
2.82362165942
3.5293223942
4.68257632463
5.73597630251
6.49314370324
7.12439103688
12.7526398166
22.7359801781
24.5835821336
24.9646996022
26.0118304378
27.392708223
27.159252342
26.1387395179
25.8773360091
26.7310105113
27.7429853225
27.4229381241
26.6898737315
25.5336661746
24.0161301547
8.85561367604
6.18908180343
7.55351178917
12.2409266472
6.78566609817
6.29335447536
5.8658122015
6.14443711028
10.4917595847
8.83580727332
13.38138903
13.0929391757
12.2178350918
8.39129886718
6.5847953347
9.00572777367
9.12206717838
7.69696385505
6.90581006349
7.05484136438
7.2231271484
7.91017314522
8.29143063667
10.0169447459
13.009046755
10.1494502414
13.439020005
14.5124858718
14.4932564108
14.6562478781
11.9156743349
12.0214412798
8.2344919299
7.55719675205
7.48704901214
7.39945791453
7.34620305294
7.34004985263
7.32802020342
7.30003915847
7.27439688109
7.25772423671
7.24108670651
7.2036341493
7.119680123
6.98656748784
6.84189895514
6.72851155966
6.65785235843
6.60832730723
6.53464990065
6.37133897319
6.05950449875
5.609885943
5.09813684954
4.56875290751
3.94457577915
3.08938369946
2.12101147472
2.11576044781
3.57822607998
5.2408288325
6.54043474564
7.55194433061
8.41961003452
8.59041214906
11.7268640135
26.0399810201
29.1372095508
30.6712891956
30.8844715041
29.5826880702
28.6675167702
28.8512499923
29.7997848003
29.8769795403
29.3856167675
28.8698226997
29.0270351884
29.0897629194
8.21139470612
6.63833987665
11.5172386514
12.0161756604
6.10807423963
6.95155999841
6.29244310589
7.35904147542
9.43588287965
12.8064591639
13.9784870333
13.1515705269
12.2043907261
7.80914352243
6.58033408789
9.69684026402
9.00026959989
7.44193339826
6.87148108846
7.1988109447
7.83100045084
8.1479937926
8.4784487681
9.49756190762
13.0497371449
14.3267015643
12.154279973
14.7224260696
11.4703911654
14.7378832438
14.5802553638
11.7234516621
7.8399123848
7.70111635248
7.68689152663
7.58640073471
7.50265280168
7.46699886492
7.44657674518
7.45850288311
7.47362834372
7.46171190261
7.43637693427
7.38574760313
7.28275023951
7.13632860782
7.00109177334
6.92149671199
6.89359139774
6.88008855733
6.82346557382
6.63945228034
6.26539202966
5.74357926194
5.16761666967
4.54085115187
3.64074987735
2.24687692714
0.478372133538
1.6378640732
4.19321294607
6.25616630291
7.72919058818
8.79382677137
9.54164038885
9.84332129443
9.62099306598
13.7792758761
30.4404784127
36.1416658958
35.0970072292
32.8505226355
32.0390219639
32.3581613688
32.8328385397
32.7850907516
32.7137399769
32.8904705284
33.2274210299
33.7807820679
7.97285401438
7.25768915493
13.0133906957
12.2509132138
9.74102819969
8.02193130712
6.87257388034
9.00973136937
8.27917645581
13.7151643003
14.3691298111
13.2476076111
11.8921909317
7.88096119675
7.39743235579
10.2765203998
8.7905475436
7.31926789485
6.95263075076
7.21508885968
8.09575184796
8.50541175487
11.004338567
9.62103358322
12.3189039905
14.6650687418
11.4444926361
15.05218359
15.381705389
12.6002557996
12.60763612
8.81754815496
8.29984901012
8.02783674845
7.91585923026
7.8240015284
7.71451386406
7.64297006174
7.56598033701
7.57448925716
7.66290998886
7.70766548903
7.66873989917
7.59027539838
7.46899702804
7.31561646957
7.19455916844
7.14881225623
7.16229775407
7.18470078407
7.13697995614
6.91644953248
6.47407401188
5.86052291913
5.1686220329
4.34342147897
2.8651963067
0.223223311582
0.12702066341
1.84003995313
5.37656143484
7.7515097029
9.31109270567
10.4098620762
11.0999271479
11.295217156
11.1815942754
10.4344897966
25.4487703926
36.7025304832
39.8724129716
37.2528426724
36.5418080561
36.7436861139
36.9199602426
36.6766816028
37.0377626515
37.3631939603
36.8965684966
36.9124764535
8.18410947894
7.74915755292
12.5238968644
12.4094884103
12.2897370516
8.72670609019
7.59714942967
12.3301034031
8.09894612137
14.5526787625
14.6656515719
13.3677509812
11.6171794732
8.08830521702
11.2608235841
11.4182718761
8.68476920253
7.34480225889
7.16945624631
7.39332886993
8.06673356598
8.41220194613
12.7818087501
14.0000821895
11.2770365227
14.7874684509
15.5520197456
14.3404475218
15.3824285932
15.2162780827
13.4789130812
8.61768612354
8.58121170642
8.38513171628
8.18537662549
8.04738557215
7.89520636066
7.86931085368
7.81897472325
7.72919653544
7.80293138966
7.92947657603
7.94090139714
7.83923501398
7.68620884798
7.5279760253
7.42674411482
7.41300138505
7.45977363249
7.50541598976
7.45039976388
7.18244980684
6.69175479819
5.94967642587
5.05424286506
3.89106844928
1.66530655564
0
0
3.03077099669
7.02690518521
9.73557468208
11.3615244915
12.4816313689
13.0316320908
12.9004962641
12.5477282691
12.260318624
20.8298831733
33.5765097674
40.6656240937
42.3162608728
40.7834473482
41.124802765
41.1321345277
41.2333200239
41.6989610758
41.7617466737
41.2218615172
41.1274223742
8.44029004145
8.19617138599
8.04698780652
12.5658959313
12.5597801289
9.02955037763
8.30571497677
13.0435526198
8.30260464182
15.363506915
14.9029902813
13.4923941725
11.4801569797
8.12522440892
12.5129730872
11.5525259177
8.68968563419
7.52229284537
7.43759483686
7.77300364212
8.1527269158
8.3792868106
13.5167973868
14.8343238873
11.3215736509
14.974275126
16.0227084078
12.7506620774
15.0207764706
14.2666778912
9.47282530109
9.02170674403
8.97729627098
8.7283895655
8.43743478825
8.37046330606
8.20618644445
8.00181794953
8.01711613057
8.01004048894
8.01665444132
8.13705282789
8.20481647247
8.12426308068
7.94863811628
7.77938927091
7.69090476961
7.69399092204
7.77643095111
7.85214208855
7.71924780054
7.4125216278
6.90366112229
6.01000178604
4.8272913403
3.31641277839
0.0133202283373
0
0
4.96721249288
9.25898311351
12.3616401354
13.5752704447
13.5268029167
12.1342759972
10.8635253857
10.0870168264
9.67760467155
8.1906833951
12.7866635127
41.0485096154
43.8668719447
46.1155083505
45.041266517
44.2970893889
45.8391621857
46.1642720804
46.0997267791
46.6311447716
46.9105865167
8.84609004737
8.84909272573
13.1175252279
12.9558542757
12.6872703908
9.21944695092
9.18652533306
13.5017211093
9.00221193758
16.0133894101
15.0919824602
13.6072849746
11.3715639802
8.30139189006
12.6247913018
11.2823684798
8.72048624192
7.74692181523
7.69248901922
7.98857913052
8.36280245137
8.59445421262
12.4335778162
15.5286485799
15.751938546
13.7290794767
16.1061510972
16.719340984
11.9378845617
10.2943995344
9.21003323237
9.20363012375
9.1229349298
8.96329370468
8.84714003426
8.648450046
8.47893856875
8.36408391169
8.18787443241
8.23360158515
8.30896792601
8.40866511862
8.48081257236
8.42033138092
8.2481106375
8.04925349088
7.95284606013
8.05730241918
8.23837808627
8.21811248153
7.9069360216
7.59351908654
7.14603192606
6.01260588675
4.13291371916
2.31499090156
0
0
1.12921005539
7.23974964822
11.8072537551
12.952448112
10.5063825717
5.95509005971
0.825582189136
0.443094538122
0.249467934474
0.266781775566
0.316498474244
0.416317555868
1.49556511946
35.2373835394
49.7008429507
50.6176828846
47.672774039
50.040724202
51.1774560882
52.3283095274
53.7599076244
53.9864653885
9.16703194768
9.32322669436
14.5696677855
13.2229757085
12.2093294991
9.46270150521
10.1167577581
13.7376840048
13.7761635714
16.7274102534
15.2782672959
13.7601887902
11.2441398802
8.64041805797
12.7214880564
10.9775249078
8.80828894361
8.00491503232
7.90871993469
8.1438778032
8.51513691136
9.00188375803
11.4104995417
15.7358591258
17.1130648094
12.4155483071
15.752830126
16.3788172061
15.4992324715
11.4589167834
9.51908877928
9.43791084281
9.44911562542
9.46415206068
9.05250949205
8.95702901555
8.70790868512
8.63303831125
8.49065594921
8.47231366938
8.60603261819
8.73112880661
8.7498453648
8.67793569427
8.56375121701
8.5485538914
8.60765924963
8.83432944429
8.85007414943
8.67731090132
8.48096133342
8.09272063776
7.77549903125
6.76996111146
2.87872983301
0
0
0
3.12311473993
7.92807025446
7.7454944021
0
0
0
0
0
0
0
0
0
0
0.000540317167907
0.182237794885
26.3401059553
54.368426332
55.2807821253
56.3453233169
60.5802064776
62.1403473376
62.0797854416
9.40080784628
9.59470309038
16.9467050822
13.3282911822
11.2871607228
9.7160198355
10.7408938053
13.2882677955
15.3073249509
17.5365893635
15.5711339364
13.9899833603
11.2753465981
9.34682252157
13.0340682296
10.8516998393
9.01910635397
8.34720238166
8.17059145849
8.33538102493
8.64617513172
9.11604868013
10.9174071672
15.5977327567
18.0014243873
16.9962474533
14.9040452645
15.7032704337
14.6122506344
9.80463009056
10.0036522413
10.0406883433
10.3404704001
9.96951521053
9.6192534508
9.18921919806
9.13844658228
8.88309448704
8.81225110378
8.77986171743
8.8503420029
9.04641392133
9.31910540368
9.27987002979
9.14845888785
9.19742155353
9.59292688809
10.1131589357
10.3341226849
10.465614257
10.5709933275
10.7127369169
10.5889503442
9.97531092729
7.78477294162
0
0
0
2.63955893436
0.0131664317458
0
0
0
0
0
0
0
0
0
0
0
0
0
0.00696198609131
0.0691824725006
1.51662969407
47.1925636749
63.5639541733
66.7786438962
66.5048934711
9.55279661064
9.73435326688
19.1754961563
13.3252289057
10.7346036503
9.98920985138
11.5722112728
11.7582463827
16.2842920615
18.0970552341
15.8671538756
14.2320019041
11.5369861149
11.787236946
13.438219368
10.9941397133
9.46110816368
8.9446305005
8.54410822521
8.62656447839
8.84563298562
9.24268081826
10.7221163518
15.4741202788
18.3087638926
18.6145524112
12.9964654791
13.3483091529
11.1380917593
9.96485603475
10.1111583249
10.7362734575
10.9075907652
10.3808622041
10.0036682091
10.1489730638
9.4864348014
9.23729082084
9.09427891768
9.01551946951
9.36171150228
9.61555821977
9.83202860257
9.81087162534
10.3093674005
13.6424495711
17.5098272217
18.689224357
16.2205878087
16.0407927963
16.4427745724
17.3624634815
18.3628233573
19.1382371423
19.942056248
1.2351731011
0
0
0
0
0
0
0
0
0
0
0
0
0
0
0
0
0
0
0
0
0.107560502424
0.72838195669
53.1337188956
64.2325353421
9.7415170511
9.90208245874
18.7735755284
11.9087171029
10.4270736221
10.1992365614
12.4777105319
11.1064125366
17.066857625
18.6568720046
16.1753757408
14.476978244
11.7080442152
14.5432513625
14.0455189371
11.3507823451
10.008782024
10.1819056565
9.14661647129
9.09928986797
9.16808682969
9.36321278864
10.7353380126
15.3394948443
18.1386994115
19.7213624595
17.5109162401
15.9428223757
13.9809893833
10.4535457772
10.5475030431
11.9074431278
10.9468444529
10.6892812362
11.4603002079
10.5714210083
9.99558170468
9.73104913932
9.60624290215
9.57230249106
9.56399566092
10.0322372679
10.7682472173
12.8277962848
15.7737479414
19.1799886302
21.3822493603
21.1824753292
21.6189924501
23.6638243482
26.4929181645
30.7923525611
33.3379662097
35.2305868988
36.5072114776
32.1485382718
0
0
0
0
0
0
0
0
0
0
0
0
0
0
0
0
0
0
0
0
0
0
0.330961931999
98.3446868144
10.0581663646
10.2183439742
18.1089510253
10.7951757342
10.432077233
10.3393996262
13.1822192131
11.1945772022
17.6457800231
19.2003099246
16.4939505065
14.7544529655
11.8783430765
15.0310664004
14.5760783884
11.775213911
10.5391816804
10.9315961412
9.9031529868
9.81320930497
9.76252152797
9.4353750135
10.9626125311
15.3156139946
17.8171568064
20.1152257184
18.803199788
15.9042984506
11.1362091415
11.0413568616
11.5209828812
12.8058990732
12.8443176628
12.6028594365
12.2714460508
10.9550900048
10.5152341867
10.4039008327
10.2565143237
10.2738543677
10.3369877905
11.0385934629
12.876586397
16.6011062664
18.7439580681
18.8710766361
20.0185062299
21.149197857
25.9135979745
31.1700332175
38.6104699972
43.880727471
44.9429587758
45.7407322003
45.6461849175
48.880941798
24.7195079486
0
0
0
0
0
0
0
0
0
0
0
0
0
0
0
0
0
0
0
0
0
0.0556192657927
0.0735893687918
10.6576407837
10.823387782
17.2839477371
10.5301469267
10.8434105923
10.5961758656
12.5472936582
11.8255939425
17.9250307684
19.6852220996
16.8488157986
15.090598469
12.2172941694
15.5127917822
15.0966733243
12.3810802252
11.1914026061
11.7064489585
10.6082370253
10.6914037515
10.7508537271
9.73588155724
11.4548341829
15.4290691659
17.6597396721
20.2131680187
19.1703307869
15.8055805489
11.0491634151
11.185951337
12.6554342286
11.9820159454
11.7041322718
12.0364419603
13.3275695132
11.9404903565
11.5568536825
10.9695447189
10.8480599599
11.1201383617
11.4351769163
12.2158294101
16.5375357727
20.0452384081
19.9090210633
19.9617721602
21.8227572132
27.8525051927
35.2634180045
41.6362445158
46.6610252211
43.0794500914
33.8141317378
18.8561921712
3.05855786123
6.19944891836
0.952004020299
0
0
0
0
0
0
0
0
0
0
0
0
0
0
0
0
0
0
0
0
0
0.00411098316706
0.0186667665964
11.6633881833
11.7240366177
17.001121844
11.1577850257
12.0135177782
11.2314235898
12.1703653901
13.4057584865
17.442070498
19.9192401936
17.2783259114
15.5138820164
12.6988722757
16.0572699872
15.6533119396
13.2038521028
12.117629478
12.7094978673
11.3028930007
11.7112143139
12.1745361045
10.419549006
11.9025937116
15.6593049293
17.6695935211
19.9286684043
19.3091575323
15.8529505011
14.652631877
12.3081533211
13.3229445494
13.929318264
14.9114182992
12.428140444
12.5573788784
13.4328943778
12.3841341037
12.3740663736
11.9287628495
11.8892787686
12.3548608415
16.2140815652
21.5573121515
22.4932739659
21.660323304
23.4783815172
30.6137148016
39.7922482304
45.9392740966
44.4749332524
35.0219987549
8.81531155001
0.24328315322
0
0
0
0
0
0
0
0
0
0
0
0
0
0
0
0
0
0
0
0
0
0
0
0
0
0
0
13.2038860706
12.8228112934
17.1971992192
13.1979210601
14.2030163643
12.2967473186
12.7115634471
15.7954639417
17.1511654269
20.2673141614
17.8615156695
16.0456742061
13.315886854
16.6304441965
16.2056437959
14.1508065927
13.7597805181
14.1021558909
12.0691622602
12.9137233515
13.9885363948
11.6012284238
12.0773791983
15.9156828722
17.8356865273
19.5950780024
19.468984374
15.6304411007
15.8634283799
14.2077355061
14.8080348584
12.3362743039
12.8296115974
14.5031584436
13.4741690237
13.5304783421
13.3851244317
13.1902710017
13.3163838475
13.1812466764
15.6666910727
22.2207099061
25.4188472114
25.2805823705
25.9843629717
31.4773345922
41.1716470622
46.9088846602
35.3454181393
13.0632432755
13.3351438946
0.0640509829611
0
0
0
0
0
0
0
0
0
0
0
0
0
0
0
0
0
0
0
0
0
0
0
0
0
0
0
0
14.9122765376
13.8169812461
17.5016157393
16.2019764511
15.8183150213
13.6485938311
13.3345001143
16.7983705297
15.1706728036
20.4577511673
18.5935131003
16.6811432899
14.0633335328
17.2203014514
16.7180473134
14.9180222694
16.4573154132
15.7948696823
12.9732896284
14.3779095745
15.3828728431
13.179561645
11.5780081362
15.743979059
17.8790504048
19.2750537652
19.4356455848
15.5514342339
15.9959833332
15.6285496772
15.7754756765
12.9451482747
13.7729656612
13.3680866578
14.5033389937
14.9477244959
14.7125177142
14.3885546584
14.2646580062
15.7445095495
22.1026447835
27.5465706632
29.3122410799
29.9060570637
32.847441656
39.6612211706
42.3173760997
23.2998403952
16.4396162844
16.5870566986
1.06611466736
0
0
0
0
0
0
0
0
0
0
0
0
0
0
0
0
0
0
0
0
0
0
0
0
0
0
0
0
0
15.5213034616
14.500257323
17.5939886681
16.9810060815
16.6177312877
14.9961650547
14.3043084502
18.0823711673
15.9477591615
20.7778805912
19.3264189082
17.3718775554
14.9284028199
17.8458764977
17.2691539889
15.5889983369
17.2592699484
16.6588140066
13.9002540954
15.902944029
15.8674543657
13.5329135216
12.8612720712
13.0745733332
17.350690964
18.6414278282
19.0991331242
15.4656491261
15.9238184075
15.9631302084
16.4567768139
15.6722539654
12.8437149606
13.093922064
14.6758451042
15.8726895005
16.1475211653
16.3281436066
16.3244764942
21.6614054981
28.3668755229
32.1918612282
33.3660774546
34.6459160895
38.217113541
36.310817348
17.034101512
20.1888287531
19.135570235
12.6972864625
0
0
0
0
0
0
0
0
0
0
0
0
0
0
0
0
0
0
0
0
0
0
0
0
0
0
0
0
0
0
15.2360775531
14.9961569709
17.6575877619
16.9256274894
17.1357186571
16.0676335877
15.1711163621
19.3225935651
17.6543934854
21.2088832718
20.1039360105
18.0948786628
15.8958605915
18.5186589582
17.8976988921
16.4423851906
17.8705136117
17.422667633
14.9672800701
16.7656023747
14.3192342109
14.0241098579
13.7448380124
14.3672294546
15.4448578253
16.1354535718
18.1182420327
15.4181941722
14.8828636256
15.7715675269
16.7582871956
16.9857965814
14.7347341001
13.801971674
14.2184138673
15.3654541211
16.8257052649
18.3271628383
20.6494323458
27.7781459784
33.3355401228
35.9776004552
36.2455187773
36.2397228779
30.2238967641
19.3841844905
20.28331088
20.8329842682
16.5676493164
0
0
0
0
0
0
0
0
0
0
0
0
0
0
0
0
0
0
0
0
0
0
0
0
0
0
0
0
0
0
0
15.2740115719
15.36007306
17.7780732809
15.0242021491
17.2603815157
16.576937737
15.7364702807
19.6633806563
18.239603706
21.701145066
20.9546583305
18.8358511149
16.9842382403
19.2254162652
18.5757229867
17.4440559618
18.4711973302
18.3003357574
16.1433340406
17.9946698316
15.5719454991
15.9850726613
14.9514138175
15.549625783
17.7086906317
18.3162513026
17.6804140713
15.3584153456
13.927825734
15.7046883981
16.7738858977
17.120859571
16.8842768111
14.8896418384
16.7322614504
16.3224297876
17.5093409956
20.4594492378
25.7364465846
32.9532348081
37.2758893589
38.4861672558
35.7672768106
26.5736253812
22.7975340406
22.6721031345
23.2577197609
22.8210913004
0
0
0
0
0
0
0
0
0
0
0
0
0
0
0
0
0
0
0
0
0
0
0
0
0
0
0
0
0
0
0
0
15.8645157986
15.9533964653
17.800284229
15.2790131475
17.3146937044
16.7390821362
16.1235517946
19.5507235957
18.6783265373
22.0167933155
21.8412099332
19.5553286108
18.2015480235
19.9303170883
19.2403922093
18.4358274699
19.0167028042
19.2868718919
17.3867035626
19.1919580945
17.372374726
18.3474440298
17.9899053872
16.0336176527
18.0284464277
19.231571873
19.4510842381
15.3009470997
12.7499365613
15.6441690234
16.9031538732
16.0046757529
15.8591097153
15.171057594
16.3786949418
16.6081041822
18.3857528047
22.7349969466
30.4872180214
37.6199616455
40.5780177071
39.0407031345
27.7676219215
23.9108867396
24.8151230467
24.1758927266
24.9601871884
16.9668040263
0
0
0
0
0
0
0
0
0
0
0
0
0
0
0
0
0
0
0
0
0
0
0
0
0
0
0
0
0
0
0
0
16.6330491549
18.3874341707
17.8903800193
16.2600994749
17.6798364151
16.9430598712
16.4944751892
19.4184854577
19.1144661093
21.912186291
22.7571817387
20.2366998702
19.2789591231
20.4057909035
19.9039387388
19.1092606985
18.7581509142
20.2164298305
18.8023088789
20.2216138613
19.6311794108
19.4668527307
19.1680297077
18.7490940024
17.5485132066
18.5993816214
20.3398075268
13.8580728908
12.2130560046
14.5447029221
16.8585707874
16.9957894259
17.6093480309
15.1972264837
16.0760793924
16.994306919
18.863943946
24.7875874134
34.7938166377
41.8196153691
43.3313510396
34.2670810029
26.0978303138
27.6014807699
27.0836193843
24.1024708005
22.2149038345
0
0
0
0
0
0
0
0
0
0
0
0
0
0
0
0
0
0
0
0
0
0
0
0
0
0
0
0
0
0
0
0
0
17.1594124578
18.9442393067
18.4119345992
17.1119700546
18.2609876088
17.3893979708
16.9389537828
19.3861011911
19.5737378384
21.4812879131
23.5956598278
20.9755349956
19.8228406095
20.7722202541
20.7257669909
19.7054616183
18.5272306595
20.8566135701
20.4167560253
21.0982768555
20.8528088562
20.9470960966
18.7791850282
18.8774289476
18.3171553048
20.5641703039
21.6023552809
17.3057641197
11.742279307
13.228394624
16.2811010271
17.4467005508
17.2327299639
15.9228474985
15.4908089597
17.3571219108
18.9118122255
26.3938820587
38.6190338534
45.9643320897
42.5516340204
27.1809835379
28.1341085888
30.351156574
29.0502984142
25.3220757705
9.95268597254
0
0
0
0
0
0
0
0
0
0
0
0
0
0
0
0
0
0
0
0
0
0
0
0
0
0
0
0
0
0
0
0
0
17.5612297042
19.181712436
18.8972796644
17.6406402641
18.8650594769
18.0497586955
17.4777296428
19.5520708495
20.1247362381
20.5886945677
24.1281816093
21.852268338
20.1943530947
20.346754144
21.6354098305
20.5101701801
18.9175693582
21.391491971
21.135400386
21.7732602373
21.7230710492
21.9803076666
21.9234505429
21.8793821253
21.365052473
20.7496273102
22.57837319
19.3122209719
11.5591767769
12.2445839571
13.6004675866
16.163209042
17.4619218185