/*--------------------------------*- C++ -*----------------------------------*\
| =========                 |                                                 |
| \\      /  F ield         | OpenFOAM: The Open Source CFD Toolbox           |
|  \\    /   O peration     | Version:  v1806                                 |
|   \\  /    A nd           | Web:      www.OpenFOAM.com                      |
|    \\/     M anipulation  |                                                 |
\*---------------------------------------------------------------------------*/
FoamFile
{
    version     2.0;
    format      ascii;
    class       volScalarField;
    location    "399";
    object      alpha;
}
// * * * * * * * * * * * * * * * * * * * * * * * * * * * * * * * * * * * * * //

dimensions      [0 0 -1 0 0 0 0];


internalField   nonuniform List<scalar> 
6400
(
0.855655339948
1.32101480661
2.05620454214
2.45559415866
2.84481860445
3.25733392862
3.86283898016
4.55810380877
4.8122734598
5.2795981416
6.43495833781
7.08906261361
7.60493985331
8.23502267802
9.09350052456
9.98415574562
10.7102125518
11.3968913844
11.9845349431
12.2661004384
12.27497549
12.3538105413
12.7367580268
13.4485803412
14.2584127013
14.9581891277
15.4735636924
15.9360022738
16.4661256616
17.0771956523
17.7148586323
18.1452405304
18.2963085618
18.3202375804
18.2396573739
17.9945000233
17.9343153182
18.2101247786
18.0763046288
17.6560445797
17.6695720377
18.2766108626
18.915284123
19.2281676256
19.2911061484
19.1834522399
18.9779923374
18.732446845
18.457539564
18.1706332318
17.7446903221
16.8656874624
15.7999656682
14.5506006985
13.6593521052
13.2906807502
12.4627269678
10.6822821573
8.72323060479
7.57224801967
6.26037073222
4.89058178644
3.43648448543
4.91449407542
9.01464308136
13.9942552753
17.0181531846
16.7568185348
14.7911787945
13.1699059302
12.2822121501
12.4377344707
12.9273404986
12.7783730345
14.7551841899
14.1757781029
16.004618512
9.90964606579
12.8765812302
4.81641104806
3.11002243864
2.44314482857
3.01088323604
4.22824669331
3.99793691449
3.73132207349
3.83296822343
4.18001266583
4.69919797187
5.37503057016
6.21661467569
7.05517445891
7.77850005686
8.46864481289
9.16385418017
9.97114378362
10.8163194529
11.645060371
12.6545901409
12.7374136012
12.5040904454
12.5150437646
12.8181091736
13.4911421348
14.5006979245
15.1063181896
15.5744780199
16.0946187727
16.6512945387
17.2267872104
17.8181663503
18.3946376225
18.545459877
18.5761465399
18.5561568357
18.150923319
18.1823827611
18.4766365929
18.2411147874
17.5843983536
17.5466821247
19.2209169804
20.4166105248
20.5905234052
20.5614809954
20.28700065
19.8598637399
19.4561440806
18.8678162089
18.2974747642
18.0014767574
18.0661289483
17.4024429579
14.775968664
14.0975389275
13.3094796659
11.4373044771
9.72961865206
8.19034425492
6.68958159093
5.39055874294
5.31463519329
3.80158920054
5.21537140907
9.10218028993
14.9741291577
18.7424147283
17.5456249054
15.4081670085
13.4976366107
12.770655515
13.1400975945
14.1771921314
13.5833839075
13.4005315886
12.848551381
11.6239099206
9.76616145955
8.19564666469
4.28284941277
3.12628913678
2.69427087834
3.19308141639
3.36531931374
3.75020461973
4.10849897069
4.05298326306
4.10648472662
4.61578744174
5.35656864107
6.19703367713
7.05508395377
7.82986276356
8.53025681613
9.08283436903
9.80524454102
12.6891775311
14.7530449547
15.0423657734
14.1863917365
12.3279853807
12.0757451918
12.9851514377
13.7180221561
14.3629049413
15.0768143624
15.6971213644
16.2213803885
16.755942177
17.3413175677
17.8800834096
18.5934239289
18.768726457
18.4449859708
18.9639649648
18.5735249039
18.0498651276
18.6982467135
18.4647980656
17.8255888792
17.7903296202
18.415816504
19.0679604991
19.3958418265
19.4832284489
19.4199229261
19.2444643149
18.9780836656
18.6227052868
18.2042737686
17.7278840347
17.0882096294
16.1687946634
15.3275546594
14.5976974869
13.0556787808
11.3516118727
9.77977291487
8.30725718195
6.95825200962
5.87254428229
4.8660795869
4.20940890881
6.2754854183
11.2808437299
15.902238257
18.1885482765
18.3347557214
16.767948161
15.100963989
14.3935336535
14.2735139591
13.6035671987
12.9938214154
12.9306693763
12.5467057308
11.5305573558
9.89110475109
7.45952856492
7.62599490162
3.00873450019
5.39443553435
3.39505230825
3.43038304529
4.08034090738
11.7675242809
10.1087977895
4.7972545031
4.61365758837
5.37114332849
6.22207408244
7.09254959803
7.84336721628
8.60045716721
10.4350571775
12.6445156168
14.291397459
14.525370419
13.0549083357
11.8041933729
11.9474815108
12.3418624236
12.8900575113
13.6458055843
14.4569394198
15.2229166472
15.8845768309
16.3733193203
16.9551265442
17.4249339159
18.194324519
18.5586345345
19.2013069121
18.9505157562
18.2918154662
18.7294540976
18.3158270975
17.8989772972
17.9205165182
17.9638924668
18.1384093596
18.587596005
19.0880071674
19.4103590733
19.5370123491
19.5099506771
19.3622499
19.1159355671
18.7810322507
18.3679499333
17.867920742
17.2361562951
16.4467822744
15.5636200349
14.4977956959
13.0901442671
11.4958397007
9.95836687323
8.57142842976
7.38996543478
6.47136285363
5.82430380013
5.77157075691
7.22909284774
10.6019916583
16.2623914385
19.8307297617
20.0455221202
18.4016571815
16.0682342063
14.4673113629
13.6666024911
13.803759417
15.1418288071
15.0372481675
13.6830719899
13.5013423581
16.7452294017
13.1680958894
11.2027466675
5.4412256775
7.41388172633
3.99500198591
4.31280854465
6.33019077809
11.6514632032
7.9112082455
5.09556502329
5.11964684262
5.59563827012
6.37306955392
7.26539725557
8.6953729295
11.1713942691
12.1590282149
12.4124581709
12.1741115359
11.6136338985
11.4098533619
11.863314122
12.0894161144
12.3518067487
12.9706703079
13.7547782809
14.596913222
15.4111728286
16.017639201
16.7058410481
17.0747503027
17.878615527
18.2081908219
19.4949040493
19.0885719264
18.4168753255
18.5557969601
17.9580931186
17.8252670175
17.8960739257
18.0299826214
18.1769174883
18.3956948335
18.7576654829
19.1636406975
19.4675544199
19.6175253214
19.6204906062
19.499309195
19.2758830939
18.9641010291
18.5688205262
18.0787188169
17.4694427337
16.7253387823
15.8325751951
14.7028946495
13.288215574
11.7502480851
10.3058082094
9.07495528682
8.11622230217
7.46479145994
7.17982502276
7.50886339831
8.20631618012
10.6685543352
15.7481281726
19.9090932423
21.3326782128
20.175723601
17.4322733559
14.9772167526
14.6340628599
16.8088907651
17.630784617
16.5575769131
15.606354546
18.2025952669
21.1811416585
16.5274477341
15.647555809
9.76488481442
8.89950035993
4.96190056856
5.64475752705
11.9194542305
11.3563773701
6.00532664883
5.61645996376
5.70246584232
5.93498682604
6.65689404571
9.45736926466
12.8332449037
13.1829878423
12.6888014814
11.4667045478
10.7354824628
10.8114889218
11.6879870683
11.8593947751
11.9236831312
12.4081421781
13.12183164
13.9596734839
14.7128173847
15.5467264111
16.5352169333
16.7945311028
17.8287563423
17.8824175504
19.5172517826
19.1616696666
20.0803277353
18.8182894074
17.7103195235
17.5476887855
17.7458930297
17.9831262802
18.1939899969
18.3901875443
18.6297974185
18.9495456261
19.2968115434
19.5792107991
19.7391917179
19.7647160007
19.6678287447
19.4699054171
19.1876483717
18.8238712871
18.3658112831
17.7911335342
17.0716302196
16.1621129811
15.0041279766
13.6251201269
12.196937168
10.9083573862
9.86213984293
9.11798761486
8.7000123279
8.77046212292
9.69940954787
8.98093989195
12.2700165095
17.5335552455
21.1644646749
22.5812584647
21.6718554929
18.3438348776
16.1869267051
17.9245961982
20.0664365879
19.5088272262
18.4735059382
18.5123494272
22.9988231656
24.5520651434
19.5859789465
19.3851595329
11.8484268815
8.59041967859
6.03765208187
5.68273014952
11.8121697593
7.97324483022
6.05822741222
6.14956494912
6.23773503386
6.91337248005
7.30351963371
12.7064082567
13.2697343548
13.2170317503
11.6053499411
10.2069265786
10.2156411237
11.5573491513
11.7011428186
11.4928574091
11.9360065096
12.5239816039
13.2375960726
14.0729645215
15.0921370106
16.0976608541
16.5351346072
17.9559493706
17.8288541587
19.6397257059
19.1011417578
20.2272456251
19.3003976562
18.5147952977
17.4090994468
17.4222373345
17.7872119504
18.1202231313
18.3724313264
18.5994020385
18.8569562243
19.1592043488
19.47325003
19.73809528
19.9020936124
19.9441888578
19.8707914853
19.7035520919
19.4603051386
19.141432411
18.7298017564
18.1960263641
17.4988381523
16.5900657677
15.4508172887
14.1587473566
12.8844369432
11.7780248564
10.8970064018
10.2528180085
9.95037746679
10.0694787042
10.1369163254
10.4252684413
13.5799621856
20.0288030392
22.519442436
22.930794751
21.8966357647
19.6684239102
19.4214572637
21.9144774269
22.3131082499
21.4330362768
20.8044414108
22.7036208855
25.382333336
26.8001367337
22.2470170315
21.1136113587
11.4810047938
8.05079197649
7.11689040088
11.8751026574
11.8307980874
6.69046429087
6.64685226875
6.75406532298
6.89357383437
7.42425475299
12.5077869671
13.4004452081
13.3687405699
12.7451717798
10.2069907841
9.65656896347
11.2878464376
11.7515956631
11.2446304478
11.3485874132
11.9876669499
12.7367728298
13.4641828319
14.3705898839
15.1779354462
16.543446435
16.6566425315
17.9321503866
19.5018157739
19.7310060551
18.6821222984
19.5327944486
19.4767732317
17.6463066392
17.3402680719
17.5452247292
17.9082415949
18.2663047286
18.5555345177
18.8119100267
19.0867923807
19.3877137008
19.6862664376
19.9389460841
20.1041432901
20.1599267975
20.1117456366
19.9820876757
19.7882268681
19.5266441764
19.1738117381
18.6909573544
18.0294494812
17.153566934
16.0843602831
14.9283085741
13.8290690416
12.861424149
12.0081629773
11.3182570086
11.0135878291
11.1313897998
11.4874785461
12.1730224724
12.7582024287
20.0680415974
24.2340777491
24.3522654898
23.8094717714
22.9186092066
23.7657362799
25.0848138809
24.3635166753
23.6258507332
23.7708869381
26.0004135059
26.610269084
27.1433413033
24.2730326188
22.1458656719
10.6363914417
7.79688778046
7.76127831224
12.8042864121
10.6085066733
7.14085470236
7.28206762604
7.50933658266
8.91834332628
7.44623701999
13.2814188579
13.8665585204
13.372413429
11.3126699455
9.65883247169
9.78818792836
11.3969434734
11.3859466298
11.0912641888
11.378554483
11.984550408
12.8460771146
13.7009637553
15.0963906169
16.2966404683
16.4464368936
18.5527248505
17.6999332864
19.7796202116
18.8266044056
20.2754579106
18.6006142745
17.8995299842
17.4985424648
17.4857938465
17.723799528
18.0614518295
18.4209489616
18.7431436688
19.0343842097
19.3294219107
19.6358935046
19.9306682556
20.1778247489
20.3436119749
20.4126745379
20.3940020311
20.3100420267
20.1755833617
19.9831475655
19.7025795438
19.2867224592
18.6859547124
17.8845780918
16.9362819057
15.9494577022
14.9999861247
14.0426715075
13.0126560025
12.1669069338
11.9903652436
12.5473456799
13.3516546795
14.0194008152
14.4094921645
16.7909189966
24.3920109213
26.1325287437
26.2401071712
26.9512384824
28.0249016233
27.6575986961
26.5935437862
26.305945374
27.1784996256
28.2537465991
28.0229889337
27.3622344848
26.3243536029
24.9484404922
9.92730049077
8.08762065964
8.9322777587
12.8228805164
8.3020965912
8.14616366555
7.9208823512
8.17111014671
11.6018638071
10.1990403613
14.1114620338
14.0902892642
13.3821804036
10.4359222244
9.61286516381
11.3583503191
11.6540640668
11.0822432115
11.0469350397
11.552684804
12.1161575243
12.9202488144
13.6304088921
15.2758309644
17.5394124744
16.3375585426
18.4777327386
19.644279489
20.0329879245
20.4363629444
19.1694626763
19.0259534735
17.4838209008
17.3677583512
17.6340145769
17.9176900823
18.2356075358
18.5864095234
18.9331267926
19.263984887
19.5886223102
19.9077520105
20.2047254088
20.4514799558
20.6207666858
20.7043413103
20.7191533112
20.6892940178
20.6246862611
20.5130641889
20.3198707315
19.9928012266
19.4864605961
18.8073880538
18.0276813792
17.2175241174
16.3141116733
15.1098986504
13.7209165098
12.9127066875
13.3028872588
14.5301629739
15.668898434
16.412524544
16.7657712914
16.2251937053
16.9031912391
27.9303020983
30.8049338778
31.9134121272
31.8121232688
30.3798745189
29.3790802534
29.5093293841
30.4709940124
30.6463565778
30.2923142977
29.9342644622
30.2318874974
30.3940333082
9.70836412851
8.80951419852
12.5028901052
12.8512493601
8.19083735166
8.85606467881
8.54207470646
9.14585445897
10.9227118838
13.8479464031
14.8612817637
14.2845437507
13.5321744202
10.2889575979
9.72710898652
11.9231377276
11.7039845708
11.0124310203
11.0683260385
11.701750107
12.5338623663
13.273282237
13.825496338
14.8670587447
17.7016452715
18.8403293451
17.9111638186
19.7978237502
18.4843535572
20.4778787506
20.5800887768
18.9085329914
17.3963384655
17.4646288685
17.8151647099
18.1218177657
18.4318181803
18.7726087153
19.1288941974
19.4969613833
19.8625419944
20.2039634295
20.5086148425
20.7587773958
20.9347271594
21.0369391031
21.0903546559
21.1205957001
21.1336799507
21.1137908382
21.0241468352
20.8117803455
20.4415123218
19.9403614152
19.3708027691
18.6853607037
17.5544141164
15.7970991678
14.3054881861
14.0796018128
15.4671046619
17.409916556
18.7906678041
19.5446835595
19.627784458
18.8876733933
17.6331832468
19.0551403206
32.4478660338
37.6788745706
36.4299043504
34.038607005
33.0858032962
33.3172532917
33.8057597375
33.8855633424
34.0375684396
34.475422344
35.0291515503
35.6704372934
9.88380757307
9.5924279633
14.0930045398
13.4052138108
11.3080246989
10.0183100481
9.36816287563
10.6405012456
10.2028305868
14.7886491713
15.4223874969
14.5402717032
13.4850353887
10.7739555922
10.4900093127
12.4122969729
11.6644522525
11.0538583535
11.1828097422
11.7462502382
12.7081649076
13.7289653074
15.5176612899
15.0168566542
17.1427649513
19.233988166
17.6881117282
20.1008939903
20.7191860155
19.3611957129
19.3814848725
17.8781799046
17.7043089303
17.7921409721
18.050796837
18.3518814133
18.6589035636
18.9920637461
19.3394998466
19.7246845927
20.1406412474
20.5268964818
20.8463355245
21.0997409107
21.2856650714
21.4123786439
21.5095667615
21.6032119478
21.6974333418
21.7756684897
21.8020652221
21.732668556
21.5525868445
21.2929057997
20.9403969324
20.1626110297
18.3890247559
16.2650020137
15.2609101886
16.1307877214
18.8294387551
21.362043005
22.9106602937
23.8139809855
23.8119676909
22.7726347354
21.0366603716
18.8960278452
28.4376047152
38.7464516357
41.6307406745
38.9555308915
38.0292451074
38.0821498255
38.2256777024
38.1685678489
38.9127981889
39.6585218796
39.573895597
39.7598122202
10.3658233354
10.1770602434
13.7445110007
13.780273645
13.748522372
11.0306801472
10.3281564988
13.6313364803
10.4136492695
15.6335467551
15.8467694698
14.8091011181
13.4503360822
11.2802425751
13.4104494873
13.4937817297
11.7725851063
11.2315026605
11.42857263
11.8992714188
12.6737884296
13.6957226096
16.9457131001
17.8960128647
16.506812715
19.3266469037
20.143611982
19.589857126
20.6904606588
20.8074424021
19.8332365902
17.864600728
17.8971816971
18.1177741032
18.3386960903
18.607786143
18.894788477
19.2409364817
19.6053499961
19.978693218
20.4126686137
20.8539275277
21.2147870723
21.4797721126
21.6761365171
21.8321476576
21.9780503999
22.1350663678
22.3059595104
22.4773333218
22.6230945712
22.7266057644
22.8016169638
22.8379885312
22.612706468
21.332061182
18.8213627655
17.0042736344
17.1191355922
19.7570060593
23.9361604776
26.9823833569
28.4818687435
29.519721137
28.8132416966
26.930358771
24.5240143204
21.3083587037
24.2507117455
35.7478911618
42.9613141428
44.3977106431
42.8352773041
42.9907009755
42.8406148301
43.1546151539
44.3134026987
45.0373741811
45.0063070071
45.1738130474
10.907320834
10.7951969679
10.4751733837
14.0354226575
14.1890189226
11.6678666777
11.2021813151
14.5236534429
10.9369834428
16.4859094155
16.2168984777
15.0886436023
13.5372679379
11.5093609764
14.5913043098
13.9380504803
12.0963324692
11.5732586372
11.7573452358
12.2242587707
12.7655031344
13.6016560954
17.5177249848
18.9421631788
16.8123264843
19.4150652599
20.6800274018
18.8374893913
20.3142558399
20.2207457262
18.2842392535
18.2193598191
18.3413564181
18.4862836073
18.6524044631
18.9202909337
19.1925083928
19.4841555661
19.8713086917
20.2861533467
20.7227029744
21.1870607654
21.594266832
21.8919716776
22.1098500861
22.3003299415
22.4964807869
22.7085269254
22.942007071
23.1883773188
23.4336975759
23.7351689426
24.1351356807
24.501342811
24.1241537943
21.8235624768
19.6407837535
19.6017974583
21.3908920644
24.8591851918
27.5688033986
27.3150977214
23.8805219529
19.8349990917
15.2003116163
13.5560972864
15.3382649819
17.1666703142
17.4099404047
17.5079976083
42.5574115567
46.252402222
46.1846626886
43.6106246135
43.5593090959
46.5668116173
49.261484064
50.7462114454
51.7005694517
52.1994651223
11.6232921852
11.6980424977
14.6353923956
14.587464592
14.5310540748
12.1963320726
12.1821026616
15.2497374592
11.8579332367
17.2029846103
16.5562038414
15.3816410618
13.6947462369
11.8351597064
14.8099016813
13.9954539279
12.4224827345
11.9628892517
12.1027845289
12.5141579364
13.0139238254
13.6624018663
16.7903592113
19.7456264491
19.8343971261
18.6331578929
20.887286686
21.5350823908
18.7158524059
18.1927850899
18.179109365
18.4281589189
18.654818536
18.8337479447
19.0288903789
19.2450683072
19.5096945734
19.8151515392
20.1511016994
20.5919628711
21.0733678384
21.5562443654
21.9892614207
22.3233587864
22.5827465173
22.8171301825
23.061438301
23.327706568
23.5992383504
23.8550370349
24.152557948
24.6573837608
25.4204504794
26.0226147111
24.8660896574
22.0018846062
19.7776191455
18.2249692381
15.0713204857
1.47665935086
0.025030387931
7.24191226312e-05
2.05799338318e-07
3.56234759387e-12
2.78647885717e-12
6.76492990308e-12
4.56009761127e-11
2.13592426177e-10
7.89011488485e-10
5.01404470639e-09
3.92588507642e-09
3.40591875021e-07
0.000193853686281
0.0194864319638
1.47869101033
41.0870083324
50.7778110865
55.5531385449
59.5813032381
59.5027624475
12.2804927358
12.4661535663
16.197727906
15.1268145511
14.4634657859
12.7437791585
13.1472850436
15.8200652525
15.8027647103
18.0732229687
16.9370969126
15.7525161226
13.9141347914
12.31012102
15.038820509
14.0034345537
12.7513430472
12.363724975
12.4409275911
12.7790183535
13.2604456506
13.9390209318
16.154708101
19.9971831383
21.2359854448
18.1326537487
20.4343243465
21.5097772628
20.9342737891
18.7544725337
18.2945893857
18.6433335506
18.9946046489
19.2513221958
19.3646368955
19.5919073536
19.8330545816
20.1499982649
20.4946207428
20.9218278099
21.4402444363
21.9648271206
22.4091901737
22.7557137326
23.06849423
23.4107908425
23.7495503833
24.0366769429
24.2194961934
24.4068122177
24.74122967
25.3494343193
26.4322248734
26.8801814422
23.6702084009
16.7274629519
0.039602985112
0.000160372977912
4.6377269124e-06
6.75168025179e-08
5.48559752801e-11
9.15324516878e-14
6.45216452672e-15
0
0
0
0
0
0
0
0
8.97386053618e-19
3.0266973786e-16
4.52729414207e-14
2.62659107865e-11
3.66870312708e-08
0.00198669650826
27.6566822595
51.3376160322
63.3313322334
12.8078409997
13.0169771275
18.4115026865
15.512010013
14.1027114884
13.2345287654
13.8219731095
15.7148165002
17.3759289994
19.0808396035
17.4655218194
16.2450707048
14.3707194488
13.0952551165
15.4768151778
14.1746601668
13.1703961666
12.8210561209
12.8186037211
13.0782383335
13.4946199562
14.1296213416
15.8819710892
19.8600106296
22.2201633983
21.2854607337
19.8223513835
20.8442465114
20.5126904876
18.473583407
18.7552225074
19.1497537247
19.5637904221
19.7239357167
19.84923712
19.9604729383
20.2217623429
20.5011331829
20.8648875302
21.297621705
21.8140594866
22.3814223073
22.9082861914
23.2730720514
23.6255308317
24.0770570757
24.5257693488
24.8002320531
24.8734421765
24.979126517
25.253339253
25.7019620917
26.2957148218
25.7201430605
13.4072528429
5.73360440239e-05
1.88037259805e-08
7.6034501843e-10
1.03670754372e-11
2.84293383209e-14
0
0
0
0
0
0
0
0
0
0
0
0
0
1.15628182758e-17
1.14901745983e-16
2.51889522821e-15
1.2213774648e-13
6.78258932308e-10
0.564558051619
1.0882767716e-05
13.2122374578
13.4084361672
20.52285415
15.7850282174
14.0424789375
13.6987010502
14.610730817
14.8210787431
18.3242472797
19.7929572245
17.9841684816
16.7541389678
15.0397224527
15.0992882684
16.0898650059
14.5956780847
13.7939237301
13.4883789685
13.3047824465
13.4662540398
13.7824550535
14.3472188502
15.8223359498
19.7244973563
22.616379493
22.9564335442
19.2199214549
19.4457415754
18.7997089792
18.5809402165
19.0168739875
19.6633137077
20.0575642116
20.2212212987
20.3496468271
20.5862095848
20.6633862257
20.9205039232
21.2628544908
21.6751558982
22.2638085462
22.8844415386
23.4349840382
23.745847395
24.118385877
25.5137996172
27.5056564797
28.0721435609
26.6727607644
26.4116977943
26.5235843459
26.5149543841
25.9756244614
12.5790065221
0.000457281765391
2.05143789716e-15
2.07300340876e-12
3.38257027924e-14
0
0
0
0
0
0
0
0
0
0
0
0
0
0
0
0
0
0
1.78641917246e-16
1.20973355737e-15
2.23084897766e-13
91.8751371665
13.5831394804
13.7472442271
20.2697816389
14.9815563286
14.1149546563
14.0937465342
15.509771694
14.6458542906
19.1109632221
20.4689177553
18.4889186969
17.2347731862
15.5431779189
17.4600926124
16.9723324629
15.2250770757
14.5195802093
14.5764224929
14.0174741009
14.0260464258
14.171851875
14.5923884997
15.91450012
19.5722781013
22.4700984293
24.0748290828
22.3770841908
21.0995811406
20.1502222242
18.8822576094
19.3337952387
20.3922817766
20.4365901471
20.6969233872
21.2067096127
21.1303939839
21.2085033876
21.4534730477
21.7951142333
22.190273928
22.6690109534
23.3334514736
24.0443416544
24.9638491779
26.2433563669
28.1425604782
29.5871218757
29.3759769116
29.2571608014
30.1423198829
31.41041218
32.6551561774
20.9271253936
0.00125948167851
1.65536507117e-07
2.2483030536e-09
0
0
0
0
0
0
0
0
0
0
0
0
0
0
0
0
0
0
0
0
0
0
5.49678299516e-16
4.00085341242e-05
14.0431090964
14.1895382927
19.8032662922
14.4586860743
14.3327933676
14.4067934597
16.2662810555
15.0124743864
19.7635704289
21.1315695303
18.9990068218
17.7329164931
15.9728005611
18.1314444649
17.7839287082
15.9307227639
15.2293484564
15.4223882147
14.8829858742
14.813660416
14.777167637
14.8633428352
16.1727784918
19.5432339905
22.1778899355
24.4218295903
23.6108740134
21.4600100516
19.1053800731
19.4160523448
19.9274477454
20.9381517936
21.4718190119
21.8232132755
22.0319862094
21.7618091156
21.8240615294
22.0873768241
22.423982731
22.8359298332
23.2970446389
24.0325770299
25.1769318097
26.9905840218
28.1689850664
28.3502791291
29.0100294712
29.5503452554
32.1648109944
35.6722666662
40.8056280181
34.2673812843
0.00166940914496
2.8788104802e-07
5.90458854614e-10
1.42961446808e-11
4.79873050226e-14
0
0
0
0
0
0
0
0
0
0
0
0
0
0
0
0
0
0
0
0
0
9.237528696e-17
1.22220942015e-16
14.7607242696
14.9097398089
19.3203142303
14.623275143
14.8518635219
14.8280642884
16.1078742585
15.7088525735
20.1919662609
21.7546233738
19.5494902432
18.2896820649
16.5418413854
18.7555746993
18.528479974
16.7547862728
16.0169066186
16.2553812192
15.717810526
15.7523920195
15.6877360218
15.3056336439
16.6350624524
19.6891040915
22.0379217237
24.5204470769
24.1109631862
21.9942038451
19.4680551099
19.6000763573
20.6511455272
20.9178374179
21.2697424617
21.891802519
22.9813312253
22.7785821621
22.744088701
22.803988924
23.0857998693
23.5849909941
24.1639475031
25.0126055408
27.2195892901
29.2900450247
29.2844107592
29.2674369476
30.430246197
34.3265734961
39.2855986735
44.8761820826
35.2219420098
5.96702231788e-05
2.46929337179e-09
8.09600257527e-13
5.07980743881e-15
1.02963580095e-14
1.58113637979e-15
0
0
0
0
0
0
0
0
0
0
0
0
0
0
0
0
0
0
0
0
0
6.8277285637e-18
3.10027091581e-17
15.8707371596
15.9670314796
19.4513566412
15.5059160839
16.0174757603
15.6330206165
16.2584954384
17.0885517389
20.0803954811
22.1847660883
20.1721237415
18.9276692665
17.2303903656
19.4683163736
19.3048169724
17.7602854047
17.0147642816
17.2581470031
16.5569263315
16.7991003855
16.9492757392
16.0090312015
17.1414947243
20.0049307405
22.079599123
24.3386703354
24.3222578658
22.5006947249
21.7860718051
20.4937033416
21.0986842869
21.9558731819
23.0331643381
22.4272919307
22.9943031103
23.8536653502
23.7325555058
23.9255937825
24.0527323441
24.4012164845
25.1189117024
27.197209737
30.4132099429
31.2343348811
30.7099951023
31.9149055227
37.1306120845
44.2789992753
49.773235488
12.920657782
9.04036091058e-07
8.44040958551e-12
5.77520647805e-14
0
0
0
0
0
0
0
0
0
0
0
0
0
0
0
0
0
0
0
0
0
0
0
0
0
0
0
17.4558187775
17.27399537
20.1130203015
17.4464964835
18.0450121396
16.8626883316
17.1159873316
19.1276222163
20.1585500221
22.730215809
20.927319207
19.6596913238
18.0173834317
20.2175908383
20.0757331581
18.8805352178
18.5527788818
18.5990034268
17.4849769297
17.9611294233
18.544647878
17.0744297492
17.4957699887
20.3928680453
22.3056484476
24.1494594149
24.4913888313
22.5486096881
22.9760051925
22.1510272367
22.2580366924
21.4098999605
22.403936288
23.8392072838
23.9317226763
24.424831227
24.7265753933
24.9070511335
25.2501422461
25.5957350097
27.047068352
30.8927088762
33.3872765133
33.4998651963
34.1268343194
38.5251652244
46.8790747622
51.2964745234
0.183276727101
8.06777469756e-09
1.41041730073e-11
6.45812098723e-14
0
0
0
0
0
0
0
0
0
0
0
0
0
0
0
0
0
0
0
0
0
0
0
0
0
0
0
0
19.1559034864
18.4985671606
20.8630231988
20.0922131507
19.7618266144
18.3221358663
18.0792001462
20.2454484243
19.0915062698
23.1315693583
21.7991672435
20.478544241
18.8952606161
20.9836773986
20.7909912827
19.8054016299
20.7953637179
20.2344416708
18.5459664099
19.2825110161
19.9164011547
18.4777617359
17.5098417425
20.3334551973
22.4544285826
23.9937199097
24.5314856448
22.5870211735
23.2901483035
23.4565981613
23.5434511528
22.1436146893
22.7298477041
23.5463503719
24.8671832243
25.6527024645
25.9731388254
26.0838417793
26.3622679002
27.3631543054
30.9104946321
34.8951262162
36.5686817809
37.2961047895
40.0810775869
46.4255464408
47.0265311319
0.00849725344392
2.17231822386e-08
3.14488894674e-11
1.10140077934e-13
0
0
0
0
0
0
0
0
0
0
0
0
0
0
0
0
0
0
0
0
0
0
0
0
0
0
0
0
0
19.9591936032
19.363825582
21.3289255365
21.1078424257
20.7974862555
19.7267842061
19.2517853012
21.628845825
20.0933981247
23.6678133315
22.679687299
21.3484864591
19.8580428308
21.7864329362
21.529811105
20.5854916114
21.7352948364
21.304169782
19.5978937529
20.6132395336
20.6074935164
19.2179623789
18.6047569508
18.7885068624
21.9422865646
23.4771715785
24.3009865553
22.548101337
23.3253894402
23.9545122658
24.563799252
24.1351599682
22.8341334036
23.5117750536
25.0486607728
26.5025039149
27.3371127737
27.748267337
28.0338128918
30.9150008436
35.550101307
38.7940171157
40.0727764009
41.5729547626
45.4481202118
42.3634901971
0.0301625879691
1.14760412639e-07
1.03376213334e-10
2.9442080746e-13
0
0
0
0
0
0
0
0
0
0
0
0
0
0
0
0
0
0
0
0
0
0
0
0
0
0
0
0
0
0
20.0036145087
19.9356004407
21.6318543935
21.2924483517
21.4726622844
20.8337079466
20.2881598263
22.9884262581
21.8181580065
24.3790430743
23.6215594314
22.2552167449
20.899507923
22.6404733832
22.3462779894
21.515538432
22.5082180297
22.2432963116
20.7288686233
21.6204619751
20.1304313419
19.9310788727
19.6368479857
19.9396755239
20.8153482224
21.7175626701
23.4451056241
22.3969387088
22.7780008966
23.9511708304
24.990959114
25.5042636732
24.4283391008
24.2681606336
25.1006138425
26.4953663258
28.1281703855
29.4826881553
30.9191724589
35.4027092297
39.8165299234
42.2496683162
42.8708752362
43.4323549603
39.2207578847
16.1920837033
7.78355822904e-07
3.59083036417e-10
8.04379592269e-13
0
0
0
0
0
0
0
0
0
0
0
0
0
0
0
0
0
0
0
0
0
0
0
0
0
0
0
0
0
0
0
20.2549847306
20.35942269
21.9241192186
20.2497969342
21.7615914607
21.4473751795
20.9981740816
23.5750137248
22.6525017812
25.1326507707
24.6187618833
23.1746531462
22.0302054834
23.5335363319
23.2123433509
22.5872736596
23.3518854877
23.2944794636
21.9807616632
23.0130011047
21.4762443702
21.6467208702
20.8857779721
21.2078350272
22.7443986396
23.3389248174
23.079890525
22.189542335
22.2336574977
23.9031563649
25.0006543438
25.7289927363
25.9341021625
25.3584880464
26.6441773079
27.2403107367
28.7884613933
31.1483970443
34.6091217347
39.8136995456
43.5299816026
44.8462067797
43.1850210067
38.004560437
29.8481385344
2.94546038465e-05
3.01315988306e-09
6.85960591608e-12
0
0
0
0
0
0
0
0
0
0
0
0
0
0
0
0
0
0
0
0
0
0
0
0
0
0
0
0
0
0
0
0
20.9908402272
21.0645393416
22.2240510819
20.6789385136
22.0139846176
21.7856927143
21.5136592544
23.7532238171
23.2569466066
25.695611197
25.615661005
24.0524581764
23.2420770927
24.4246066657
24.0527015475
23.634129892
24.1615395016
24.4381640511
23.2814160564
24.4014774655
23.2663968591
23.7929016574
23.4707715519
22.0859597105
23.3808602233
24.4077920762
24.4720287712
22.0698413667
21.6058541922
23.8199544927
25.1624066156
25.2494263227
25.5930156744
25.6769324563
26.8523928575
27.7937657398
29.599162152
32.9046218108
38.431941845
44.0970840658
46.8023527104
45.885111539
39.2229095306
34.2050271887
0.0708022051287
3.42598464318e-08
4.78004307253e-11
1.93831809324e-13
0
0
0
0
0
0
0
0
0
0
0
0
0
0
0
0
0
0
0
0
0
0
0
0
0
0
0
0
0
0
0
0
21.9207295875
23.0686599356
22.6717610597
21.7043360849
22.5659235944
22.1876079609
22.0170623475
23.911894625
23.8212838609
25.9035755114
26.6007459693
24.8546098901
24.3252676261
25.1478080142
24.8648733312
24.4220477628
24.3745097615
25.4897421374
24.6717892585
25.6117125276
25.2923206825
25.0907334766
24.8586759835
24.4094236108
23.5586848615
24.385119352
25.4507200772
21.4507846771
21.1278368193
23.0771910167
25.2135503676
25.9120770161
26.5291277354
25.7194507876
26.6903584065
28.0546564284
30.0626233055
34.5416337237
42.134060359
48.0791612738
49.4460658262
43.1321633062
38.6829563228
32.4536316197
2.58416601488e-06
3.23995655519e-10
8.26914842451e-13
0
0
0
0
0
0
0
0
0
0
0
0
0
0
0
0
0
0
0
0
0
0
0
0
0
0
0
0
0
0
0
0
0
22.6324604323
23.8127623663
23.4006099365
22.6348779747
23.2956801056
22.7851533107
22.5954629692
24.1628030764
24.3799844711
25.8434637924
27.4915207099
25.6496821786
24.9794654883
25.7538876362
25.7734748049
25.147308092
24.554193867
26.2385160598
26.1331634244
26.668318543
26.625367887
26.7074431687
25.260492918
25.2123303439
24.6885064718
26.0973554533
26.825143767
23.626662628
20.7515707977
22.0593310111
24.5818947428
26.1895714645
26.7134631797
26.3674727248
26.3570471658
27.9954975165
30.0430632615
35.8268651695
45.5787639617
52.0295995509
49.5519524926
40.1068322896
36.1148979435
0.0810970065496
1.11084930343e-08
9.55314531033e-12