/*--------------------------------*- C++ -*----------------------------------*\
| =========                 |                                                 |
| \\      /  F ield         | OpenFOAM: The Open Source CFD Toolbox           |
|  \\    /   O peration     | Version:  v1806                                 |
|   \\  /    A nd           | Web:      www.OpenFOAM.com                      |
|    \\/     M anipulation  |                                                 |
\*---------------------------------------------------------------------------*/
FoamFile
{
    version     2.0;
    format      ascii;
    class       volVectorField;
    location    "399";
    object      Ua;
}
// * * * * * * * * * * * * * * * * * * * * * * * * * * * * * * * * * * * * * //

dimensions      [0 1 -1 0 0 0 0];


internalField   nonuniform List<vector> 
6400
(
(5.29305383346e-05 7.29913299694e-05 0)
(0.000146209591551 5.70346356322e-05 0)
(0.000214706283973 4.74672045612e-05 0)
(0.000292379719143 4.3489232679e-05 0)
(0.000349135020152 2.87544838088e-05 0)
(0.000389871477915 1.65728441871e-05 0)
(0.000409443761667 1.19112464642e-05 0)
(0.000424215162308 1.86870011369e-05 0)
(0.000477393567752 2.77450409145e-05 0)
(0.000533625761296 2.72895730849e-05 0)
(0.000554236153247 2.4613284252e-05 0)
(0.000606822367238 2.74699436818e-05 0)
(0.000654885147864 2.62529129782e-05 0)
(0.000695197468768 2.26870622227e-05 0)
(0.000725381869222 2.09606037793e-05 0)
(0.000758070452687 2.35823311228e-05 0)
(0.000800326504669 2.47551692315e-05 0)
(0.000837353658681 2.26930123496e-05 0)
(0.000864900703974 1.90467827602e-05 0)
(0.000890127275121 1.72095686733e-05 0)
(0.000923292163672 2.20949887133e-05 0)
(0.000966431319902 2.79955647899e-05 0)
(0.0010145742219 3.00849979417e-05 0)
(0.00105993506909 3.03778565276e-05 0)
(0.00110403550293 2.91559456464e-05 0)
(0.00114692413375 2.73335889505e-05 0)
(0.00119080767155 2.71345751075e-05 0)
(0.00123305670916 2.64849012713e-05 0)
(0.00127102577987 2.49128115836e-05 0)
(0.00130532396064 2.36498757325e-05 0)
(0.00133590316471 2.39131055916e-05 0)
(0.00136893202601 2.37368475996e-05 0)
(0.00140332962443 2.25515003853e-05 0)
(0.00143491167436 2.34206517021e-05 0)
(0.00146614843678 2.38705759701e-05 0)
(0.00150510748216 2.45558113904e-05 0)
(0.00154359540944 2.63402459099e-05 0)
(0.00156673888751 2.57944801119e-05 0)
(0.001603444215 2.46412425682e-05 0)
(0.00165005088702 2.59383395445e-05 0)
(0.0016925157699 3.24935266351e-05 0)
(0.00172671584088 3.37962860851e-05 0)
(0.00175805847181 2.49441938787e-05 0)
(0.00178506654255 1.90262963676e-05 0)
(0.00180531486021 1.68085082458e-05 0)
(0.00182182412423 1.43882245482e-05 0)
(0.00183393573643 1.20968582014e-05 0)
(0.00184000654999 8.94140578592e-06 0)
(0.00184062727475 6.27661359717e-06 0)
(0.0018368494542 8.33885631966e-06 0)
(0.00183500663955 1.55529503553e-05 0)
(0.00185252290801 1.53348202956e-05 0)
(0.0018458769525 -4.14232962436e-06 0)
(0.00182950541918 -1.29312292679e-05 0)
(0.00179076759585 -1.996507536e-05 0)
(0.00169823627426 -3.6328991274e-05 0)
(0.00160332760587 -3.18605725164e-05 0)
(0.00155359042277 -1.91531588872e-05 0)
(0.00153222857641 -2.5364853062e-05 0)
(0.00142715716659 -3.03827094714e-05 0)
(0.00137022220819 -1.346309896e-05 0)
(0.00129745486328 -2.825329781e-05 0)
(0.00137590235613 -8.82478905161e-05 0)
(0.00106921659018 -8.81131757171e-05 0)
(0.000862933702455 -5.82034975875e-05 0)
(0.00076591147471 -3.9185844534e-05 0)
(0.000704480313154 -3.67288623012e-05 0)
(0.000654809238104 -3.6041485527e-05 0)
(0.000602171495523 -3.67050060395e-05 0)
(0.000533139035973 -3.8164894295e-05 0)
(0.000461302231838 -3.80695112855e-05 0)
(0.000383937465531 -3.56850125425e-05 0)
(0.000312948956481 -3.3544252132e-05 0)
(0.000262788250845 -3.33943358225e-05 0)
(0.000188330742291 -2.54339243468e-05 0)
(0.000156214112449 -2.12473348445e-05 0)
(9.90902045166e-05 -1.27086966873e-05 0)
(9.80429038228e-05 -1.58579617461e-05 0)
(4.12256040995e-05 -1.03669900624e-05 0)
(3.03543379865e-05 -1.86994264176e-05 0)
(1.98913602224e-05 0.000100404360542 0)
(8.57869568283e-05 0.000113590902405 0)
(0.000149987826446 0.000104415501123 0)
(0.000191045833367 8.36558081897e-05 0)
(0.000280158508487 8.30109533128e-05 0)
(0.000365712203485 5.96534823644e-05 0)
(0.000417132210613 3.7745123017e-05 0)
(0.000452912481275 5.0664411547e-05 0)
(0.000491393224505 6.75006215902e-05 0)
(0.000534926829143 6.67806776429e-05 0)
(0.000577120783484 6.35359197544e-05 0)
(0.000616544009687 6.3816203104e-05 0)
(0.000654087414772 5.86378300528e-05 0)
(0.000689205323812 5.11733200566e-05 0)
(0.000725477412756 4.84237773176e-05 0)
(0.000762193518249 5.87142757064e-05 0)
(0.000800284588838 6.30384248749e-05 0)
(0.000831882412032 4.64227907485e-05 0)
(0.000832343580757 3.41862394901e-05 0)
(0.000863105630515 3.55249905893e-05 0)
(0.000905883206419 5.04968664499e-05 0)
(0.000956305303781 6.98320630165e-05 0)
(0.00101453666013 7.52217106674e-05 0)
(0.00106522294015 6.90856770319e-05 0)
(0.00109677915018 6.42166548826e-05 0)
(0.00114617682756 6.29853459104e-05 0)
(0.00119298597122 6.04483203904e-05 0)
(0.001232301497 5.61384492424e-05 0)
(0.00126861657022 5.17720823835e-05 0)
(0.00130354751821 4.84900799496e-05 0)
(0.0013367444204 4.78929431285e-05 0)
(0.00136122644961 4.64321398257e-05 0)
(0.00139483222665 4.19598139545e-05 0)
(0.00142438945355 4.51227315074e-05 0)
(0.00145120448695 4.97381005941e-05 0)
(0.00150114533624 4.75398121472e-05 0)
(0.0015325245596 5.05578433769e-05 0)
(0.00155688590329 5.42257388156e-05 0)
(0.00160145813139 5.27822000458e-05 0)
(0.00166184611702 5.02963693742e-05 0)
(0.00170762737621 4.37613662926e-05 0)
(0.0016605956163 3.46789895434e-05 0)
(0.00165389736581 3.02956110137e-05 0)
(0.00168614707589 2.88087181642e-05 0)
(0.00171012617925 2.69088168903e-05 0)
(0.0017393589711 2.35085106205e-05 0)
(0.00176989129478 1.78501858847e-05 0)
(0.0017894302079 1.03684684013e-05 0)
(0.00181326869587 2.39116176805e-06 0)
(0.00182703141811 -3.98228134178e-06 0)
(0.0018152009551 -6.40080998661e-06 0)
(0.00176260683819 -9.22075974793e-06 0)
(0.00171650525218 -1.51430894303e-05 0)
(0.00182780863447 -3.5222762427e-05 0)
(0.00176998318267 -7.28984448692e-05 0)
(0.00171764675375 -9.68469610027e-05 0)
(0.0017330114045 -9.09438676134e-05 0)
(0.00170167648762 -7.76115356717e-05 0)
(0.00165325224431 -8.99241411374e-05 0)
(0.00160906073398 -0.000108600662911 0)
(0.00158654017587 -0.000125506455855 0)
(0.00126737859797 -0.000134011672898 0)
(0.00136354415334 -0.000244473353006 0)
(0.00107081267024 -0.000257744121487 0)
(0.000875666484358 -0.000194845063618 0)
(0.000728981096795 -0.000133160771058 0)
(0.000648146267047 -9.89852111768e-05 0)
(0.000625551062519 -9.23144027109e-05 0)
(0.000576855971038 -9.97475545838e-05 0)
(0.00051993822749 -0.000111502523345 0)
(0.000444181224306 -0.000115379702175 0)
(0.000365108107765 -0.000108148563069 0)
(0.000287810068885 -9.11268865007e-05 0)
(0.000246068901671 -8.36294593974e-05 0)
(0.000199619457185 -7.3207743688e-05 0)
(0.000160563103127 -6.26194297509e-05 0)
(0.000124488312325 -5.02760592762e-05 0)
(9.40093090876e-05 -4.68542690761e-05 0)
(5.67377080093e-05 -4.62041292655e-05 0)
(2.55101082071e-05 -7.16845463573e-05 0)
(2.94698909227e-05 0.000174205671255 0)
(8.30187979648e-05 0.000190290364848 0)
(0.000127497745109 0.000179632718881 7.96647180773e-29)
(0.000221130950382 0.000185017821243 -7.56935709067e-29)
(0.000310460628852 0.000185388281393 -6.83424856579e-29)
(0.000363526510472 0.000150571570701 6.28065972136e-29)
(0.000400757253688 8.34285174133e-05 -6.36621143972e-29)
(0.000437839033629 9.13555477692e-05 6.28078999039e-29)
(0.000478694649366 0.000111722214804 0)
(0.000525035952128 0.000115283523858 0)
(0.000571080959217 0.000110049035817 0)
(0.000611970535175 0.00010335246735 0)
(0.000649263334572 9.50220105094e-05 0)
(0.000683284658644 8.99141430396e-05 0)
(0.000718601939241 8.79349427947e-05 0)
(0.000755023096545 8.07666819385e-05 0)
(0.000688360067892 6.10215598171e-05 0)
(0.000672621144831 4.9798672097e-05 0)
(0.00070353992798 5.85685420589e-05 0)
(0.000764796141449 8.8276229367e-05 0)
(0.000893627202244 0.000123569354926 0)
(0.000970510408244 0.000134896415185 0)
(0.00100123800997 0.000127585542056 0)
(0.00105159983647 0.00011870418853 0)
(0.00110428913383 0.000113514196256 0)
(0.00114682743356 0.000109950078209 0)
(0.00118661786405 0.000103449446408 0)
(0.00122601502364 9.63179264764e-05 0)
(0.00126279402572 9.00566583685e-05 0)
(0.00129556793253 8.5483472419e-05 1.28554236747e-28)
(0.00133182604673 8.15550900844e-05 -1.24759410193e-28)
(0.00134964326606 7.80351353645e-05 0)
(0.00137846214571 7.45075688773e-05 0)
(0.00142674062134 7.31402412086e-05 0)
(0.0014194647455 8.32288210378e-05 0)
(0.00146881460146 9.14431946918e-05 0)
(0.00153638032577 8.94645404178e-05 0)
(0.00153484400658 9.38921514638e-05 0)
(0.00158735498584 0.000104484861666 0)
(0.001656887305 9.91178889829e-05 0)
(0.00170531068627 7.13120881777e-05 0)
(0.00173376606608 5.02393106607e-05 0)
(0.00175960514913 5.21495426846e-05 0)
(0.00178475177169 5.61881213434e-05 0)
(0.00180531568955 5.47153805321e-05 0)
(0.00182188002177 5.00860340424e-05 0)
(0.00183504333981 4.13043644351e-05 0)
(0.0018448744581 3.04060319901e-05 0)
(0.00185160293094 1.73413924162e-05 0)
(0.0018549522575 -5.48310492533e-08 0)
(0.00185500776047 -1.83553630382e-05 0)
(0.00185106289818 -2.6789651938e-05 0)
(0.00184021838359 -2.05430177709e-05 0)
(0.00180257681764 -4.57146284154e-05 0)
(0.00174525979857 -8.98444109883e-05 0)
(0.00174517492389 -0.000107298943825 0)
(0.00172887479387 -0.000110751518177 0)
(0.00168489602733 -0.000119635855459 0)
(0.00162935707256 -0.000137686846511 0)
(0.00156792949224 -0.000170068339528 0)
(0.0014839595695 -0.000236189988778 0)
(0.00138535769493 -0.000308319799772 0)
(0.00131965877199 -0.000458421867123 0)
(0.000994376291513 -0.00044500019563 0)
(0.000757640467732 -0.000300981114529 0)
(0.000685086197001 -0.000213970685648 0)
(0.000643299631893 -0.000169370000447 0)
(0.000585799318493 -0.000152978263769 0)
(0.000529218675667 -0.000163573675998 0)
(0.000465541573739 -0.000179612087661 0)
(0.000392269851462 -0.000181013598265 0)
(0.000325408923728 -0.000165420529728 0)
(0.000279159106949 -0.000147447728718 0)
(0.000237115539361 -0.000134773206022 0)
(0.000190552718058 -0.000121276595911 0)
(0.000146358802821 -0.000104363535902 0)
(0.000107795312616 -8.74038362781e-05 0)
(7.86199326878e-05 -8.43372430729e-05 0)
(5.25454359468e-05 -9.97245368303e-05 0)
(1.29652230214e-05 -9.54292597935e-05 0)
(2.85210904066e-05 0.000261100011741 0)
(3.80254328058e-05 0.000173908260061 0)
(0.000103918370777 0.000272384411751 0)
(0.000193038383345 0.000276166147142 0)
(0.000266386406779 0.000234924465892 0)
(0.000149504593484 9.00556672545e-05 0)
(0.000186939173178 9.25806830358e-05 0)
(0.00035659436368 0.000173421650933 0)
(0.000446498419034 0.000185650296676 0)
(0.000504258982062 0.000170888442273 0)
(0.000558712257236 0.00015918529838 0)
(0.000604445476743 0.000145546039305 0)
(0.000643158276191 0.000132238503002 0)
(0.000670337012727 0.000111127987387 0)
(0.000634949656751 7.89241619785e-05 0)
(0.000604741572933 5.68035522736e-05 0)
(0.000611837027854 5.55691379598e-05 0)
(0.000661318591546 8.46699162293e-05 0)
(0.000766712885328 0.000135360957792 0)
(0.000874943963498 0.000186828793352 0)
(0.000916023209674 0.000197944792518 0)
(0.000959275634388 0.000186698948296 0)
(0.00100931918796 0.000176122458517 0)
(0.00105520750682 0.00016802791924 0)
(0.00109769806906 0.000159034727143 0)
(0.00113785086679 0.000149967614195 0)
(0.00117588891451 0.000141692490936 0)
(0.00121824885595 0.000133552536927 0)
(0.00125065888661 0.000125117412091 0)
(0.00129140586912 0.00011855398681 0)
(0.0013110933334 0.000111636224776 0)
(0.00135191328205 0.000105176448553 0)
(0.00135294559009 9.60042259006e-05 0)
(0.00138691495519 0.000100943221749 0)
(0.00145220380286 0.000117133051105 0)
(0.001453841281 0.000130835184668 0)
(0.00151828765363 0.00013795418419 0)
(0.00158874826983 0.000144260270599 0)
(0.00162929322493 0.000151355489134 0)
(0.00166419762129 0.000139767849565 0)
(0.0016991210546 0.000111647142751 0)
(0.00173061074017 8.78894666558e-05 0)
(0.00175911212682 7.91588944307e-05 0)
(0.00178448447339 7.6066477612e-05 0)
(0.0018053462387 7.09327667103e-05 0)
(0.00182221669304 6.26654263152e-05 -1.19728757598e-28)
(0.00183565452861 5.12039011147e-05 1.20628343656e-28)
(0.00184574143732 3.71915027821e-05 0)
(0.00185246140373 2.06646463425e-05 0)
(0.00185553020448 1.56632029978e-06 0)
(0.0018542694641 -1.76569441229e-05 0)
(0.00184653144734 -3.41425287951e-05 0)
(0.00182916950718 -5.27898221903e-05 0)
(0.00180047170424 -8.41115061728e-05 0)
(0.00176916314762 -0.00011344440286 0)
(0.00174118950576 -0.000131981544731 0)
(0.00170535832275 -0.000152360230777 0)
(0.00165263273993 -0.000177604101894 -2.38376943096e-28)
(0.00158241189704 -0.000211824949686 2.75656685923e-28)
(0.00149263136014 -0.000264084271436 0)
(0.00137840285091 -0.0003415202117 0)
(0.00124740265068 -0.000448571047738 0)
(0.00113115634831 -0.000603458145104 0)
(0.000971788008856 -0.000628320195644 0)
(0.000807882620687 -0.000462395933895 0)
(0.000652405071472 -0.000287615539336 0)
(0.000582159315276 -0.000224114533212 0)
(0.000530807885598 -0.000212921522106 0)
(0.00047827898539 -0.000225439368993 0)
(0.000428496947169 -0.000248050766891 0)
(0.000367860588344 -0.000251474934954 0)
(0.000307062571271 -0.000231053391028 0)
(0.000250963085535 -0.000204063978797 0)
(0.000191941787393 -0.000176141765741 0)
(0.000148477327471 -0.000159818665534 0)
(0.000109666368311 -0.000147200990701 0)
(7.21911320609e-05 -0.000124107072688 0)
(3.96329381962e-05 -9.19955354541e-05 0)
(2.81496119097e-05 -0.000108016884437 0)
(9.0937307952e-06 -0.000120290108811 0)
(1.24106047012e-06 0.000258074955767 0)
(1.85204296851e-05 0.000212042879793 0)
(9.3957987889e-05 0.000358271904615 0)
(0.000163291882491 0.000331847977835 0)
(0.000171217450717 0.000215408162655 0)
(0.000134899606187 0.000120700967859 0)
(0.000233598991888 0.000200285668032 0)
(0.000364444171556 0.000287128468776 0)
(0.000416050178796 0.000261454089624 0)
(0.000478900262722 0.000232629857318 0)
(0.000536949018694 0.000217050892295 0)
(0.000585765038488 0.000193248367614 0)
(0.000591741810347 0.000141842143871 0)
(0.000542394990079 8.74199417904e-05 0)
(0.000557948832675 7.05610989808e-05 0)
(0.000600581808299 8.2281873011e-05 0)
(0.000673874940699 0.000119548707733 0)
(0.000767538479179 0.000176954612587 0)
(0.000838449003557 0.00022167987227 0)
(0.000862791058364 0.000231480231299 0)
(0.000904885912172 0.000235874596115 0)
(0.000957474025662 0.000235525561121 0)
(0.00100280240303 0.000225227115618 0)
(0.00104652491418 0.000212162621236 0)
(0.00108746109944 0.000199971059116 0)
(0.00112519986809 0.000190077659955 0)
(0.00116865556072 0.000180677620084 0)
(0.0011983972689 0.000169839206393 0)
(0.00124592056716 0.000160742336567 0)
(0.00126196128908 0.000149021502987 0)
(0.00131350263405 0.00014144196395 1.22794163964e-28)
(0.0012975160198 0.000128495777418 -1.14852208764e-28)
(0.00135690999383 0.000130118141678 0)
(0.0014123195157 0.0001383766198 0)
(0.00142157229874 0.000154043254201 0)
(0.00149742247617 0.000181530974734 0)
(0.00154877139507 0.000197902411723 0)
(0.00159238194843 0.000195204968757 0)
(0.00162950969134 0.000185597184527 0)
(0.00166330861649 0.000169443226878 0)
(0.00169723178547 0.000145351586306 0)
(0.00172968166537 0.000122545477245 0)
(0.00175916345818 0.000108328956417 0)
(0.00178488244672 9.91285780072e-05 0)
(0.00180623691883 8.9598195879e-05 0)
(0.00182366253583 7.77046857527e-05 0)
(0.00183754207616 6.29909459846e-05 0)
(0.00184787600967 4.55661902254e-05 0)
(0.00185439143736 2.5336531378e-05 0)
(0.00185652117894 2.3512572351e-06 0)
(0.00185326296344 -2.23123002665e-05 0)
(0.00184272805552 -4.79841470579e-05 0)
(0.00182295919285 -7.69559830177e-05 0)
(0.00179407495936 -0.000111057648621 0)
(0.00176036525432 -0.000143659527646 0)
(0.00172300715771 -0.000173460106581 0)
(0.00167419800338 -0.000208223472263 0)
(0.00160543116409 -0.000252643669764 0)
(0.00151229990602 -0.000310188131683 0)
(0.00139409597991 -0.000385255225815 0)
(0.00125723367662 -0.000479186179014 0)
(0.00112224068593 -0.000591039151673 0)
(0.00100495589319 -0.000711086361936 0)
(0.00093168104978 -0.00074873778067 0)
(0.000807489652717 -0.000598284132987 0)
(0.000661143445345 -0.000409533677061 0)
(0.000567502389029 -0.000317146553073 0)
(0.000489831356701 -0.00028258308977 0)
(0.000426131300281 -0.000283144560278 0)
(0.000374230275388 -0.00030265814073 0)
(0.000321403494007 -0.000314275595202 0)
(0.000260807860191 -0.000293154809531 0)
(0.000196702042628 -0.000247920600254 0)
(0.000151279663526 -0.000221911952468 0)
(0.000109580079046 -0.00020662480503 0)
(7.13325828605e-05 -0.000187135571004 0)
(4.20687497717e-05 -0.000143860518806 0)
(2.47048883626e-05 -0.000112880577121 0)
(1.3524106883e-05 -0.000129870923911 0)
(2.58508971596e-06 -0.000129178457465 0)
(-1.65358614006e-06 0.000239852776824 0)
(2.32418290575e-05 0.000257903603571 0)
(9.47631337147e-05 0.000407301471095 0)
(0.000131913474988 0.000338305626378 0)
(9.75186209775e-05 0.000166825532737 0)
(0.000134770927354 0.000172617439115 0)
(0.000293892482749 0.000327038539042 0)
(0.00034848132297 0.000345957707094 0)
(0.000393223749986 0.00031861701893 0)
(0.000448405613919 0.000294207318162 0)
(0.000504750950125 0.000258935964987 0)
(0.000469576327112 0.000180431881302 0)
(0.000429229818241 0.000110145601832 0)
(0.00046751763478 9.80530022807e-05 0)
(0.000518321054764 0.000116002831488 0)
(0.000612777527847 0.000161328263538 0)
(0.000715133232757 0.000213729860094 0)
(0.000785914999218 0.000244933274318 0)
(0.000798427479896 0.000248551864769 0)
(0.000846246544012 0.000268473346734 0)
(0.000904161290097 0.000286317003994 0)
(0.000948416843162 0.00028293738941 0)
(0.000991058773218 0.000270117292097 0)
(0.00103183708861 0.000255510132598 0)
(0.00107767699294 0.00024268641541 0)
(0.00111548721375 0.00022745152947 0)
(0.00113555134267 0.000215852707255 0)
(0.00119598089118 0.000208610763974 0)
(0.00119959727912 0.000190296578564 0)
(0.00126695068308 0.000178854266884 0)
(0.00123132123418 0.000158441813199 0)
(0.00131353441164 0.000164508779815 0)
(0.00129192841563 0.000164574096706 0)
(0.00137622614038 0.000184519393163 0)
(0.00145968674513 0.000215488237137 0)
(0.00151256649007 0.000239872698089 0)
(0.00155405465546 0.000242472092768 0)
(0.0015921961173 0.000233743597802 0)
(0.0016278558564 0.000220006693436 0)
(0.00166231881816 0.000201858884709 0)
(0.00169629385464 0.000179009116886 0)
(0.0017290033883 0.000156065742311 0)
(0.00175904519755 0.000137729371869 0)
(0.0017852797489 0.000123111963701 0)
(0.0018073693291 0.000108958341549 0)
(0.00182552087077 9.31981298893e-05 0)
(0.00184000092005 7.49416981e-05 0)
(0.00185059846581 5.37819695203e-05 0)
(0.00185671562478 2.93240663907e-05 0)
(0.00185755677122 1.37253603078e-06 0)
(0.00185204000525 -2.98065344309e-05 0)
(0.00183865338525 -6.41032634938e-05 0)
(0.0018161861686 -0.000101951330425 0)
(0.00178488001846 -0.000142519289624 0)
(0.00174601624189 -0.000183362451833 0)
(0.00169756679517 -0.000227106919123 0)
(0.00163223913423 -0.000280822644037 0)
(0.0015432298899 -0.000348641403904 0)
(0.00142957206157 -0.000430810177261 0)
(0.00129488892153 -0.000523053347316 0)
(0.00115492888938 -0.000620585069957 0)
(0.00102976717348 -0.000711679299282 0)
(0.000872598739784 -0.000748363759164 0)
(0.000897424453864 -0.000866697259424 0)
(0.000722576176504 -0.000690086857154 0)
(0.00059981092866 -0.0004974055947 0)
(0.000525002892051 -0.000407301444114 0)
(0.000444432573114 -0.00035879840304 0)
(0.000371540721161 -0.00034250842193 0)
(0.00032084388357 -0.000365480765184 0)
(0.000268136465415 -0.000381411392428 0)
(0.000203955228869 -0.000336930735181 0)
(0.000153671670944 -0.000292500144185 0)
(0.000110663798556 -0.00027096762921 0)
(6.73501450978e-05 -0.00024845478809 0)
(3.7703998356e-05 -0.000215678381956 0)
(1.90862150133e-05 -0.000156101755886 0)
(7.73397019035e-06 -0.000126250215527 0)
(1.08187341372e-06 -0.000137862617364 0)
(-4.24864837116e-07 -0.000131429580804 0)
(7.66179952921e-06 0.000259849367541 0)
(5.43357371083e-05 0.000336887482145 0)
(0.000123460472644 0.000441851969624 0)
(0.000135466226448 0.000411451918366 0)
(8.99807052159e-05 0.000208777709133 0)
(0.000194401938664 0.000305605719221 0)
(0.00030196402826 0.000399631668306 0)
(0.000330365486078 0.000387737309827 0)
(0.000373041733236 0.000362487356569 0)
(0.000401637857893 0.000333322236825 0)
(0.0004713640194 0.000284221933018 -2.9119870531e-28)
(0.000363180518519 0.000146710746043 1.70804783069e-28)
(0.000419615188883 0.000135957335016 0)
(0.000452706740152 0.000148319310592 0)
(0.000535757617581 0.000197305398352 0)
(0.000647768962053 0.000265489935192 0)
(0.000722945514198 0.000290201643087 0)
(0.000720797274104 0.000269297058652 0)
(0.000773722881352 0.000288737403729 0)
(0.00084525161127 0.000325403335985 0)
(0.000888977267702 0.000334796719091 0)
(0.000934271235742 0.000327709222511 0)
(0.000978451098564 0.000314632957563 0)
(0.00102087891029 0.000297718473483 0)
(0.00105385448615 0.000277417548546 0)
(0.00107752426899 0.000257907743904 0)
(0.00113366667534 0.000250850433968 0)
(0.00112550576048 0.000236847342311 0)
(0.00120947587162 0.000225812257496 0)
(0.00116501650844 0.00018744542058 0)
(0.00125433142098 0.000192426341133 0)
(0.00124000118498 0.000197438958783 -1.10977898367e-28)
(0.00132524401525 0.000217325104843 1.16184636676e-28)
(0.00137761170708 0.000252462146604 0)
(0.00147135987848 0.000285693804992 0)
(0.00151610633441 0.000289990098069 0)
(0.00155295930797 0.000282205734726 0)
(0.00158947995325 0.000269981235178 0)
(0.00162594988475 0.00025456480476 0)
(0.0016614685309 0.000235495648644 0)
(0.0016957650964 0.000212745139655 0)
(0.00172872228804 0.000189000031372 0)
(0.00175918636389 0.000167348609542 0)
(0.00178603757375 0.000148059480333 0)
(0.00180894232476 0.000129377125154 0)
(0.00182799202711 0.000109551696723 0)
(0.00184319336743 8.7375784022e-05 0)
(0.00185402370887 6.19376430202e-05 0)
(0.00185960652268 3.24811817423e-05 0)
(0.00185900860427 -1.4575183055e-06 0)
(0.0018511599278 -3.99641944448e-05 0)
(0.00183478978917 -8.28954910979e-05 0)
(0.00180892134727 -0.000129818225241 0)
(0.00177313545025 -0.000179903321937 0)
(0.00172644594623 -0.000233614913007 0)
(0.00166502232653 -0.000295545616956 0)
(0.0015825706978 -0.00037138527681 0)
(0.00147583645048 -0.00046190637003 0)
(0.00134940903611 -0.000561252434649 0)
(0.00121663672118 -0.000659585287834 0)
(0.00109098736405 -0.000746394821181 0)
(0.00098163749929 -0.000815821835874 0)
(0.000897201401534 -0.000882942191013 0)
(0.000851298173541 -0.000944415254729 0)
(0.000701915217278 -0.000800311761011 0)
(0.000527810632996 -0.000566797951607 0)
(0.000474078969882 -0.000488754305168 0)
(0.000403015795638 -0.000445606749521 0)
(0.000328711854096 -0.000424262583543 0)
(0.000268721402474 -0.000435661866526 0)
(0.000213770119756 -0.0004279444547 0)
(0.000159920809447 -0.000376841913592 0)
(0.000114176516703 -0.000345914652007 0)
(6.4844192695e-05 -0.000318763213933 0)
(2.52489769423e-05 -0.000284373595387 0)
(4.80673730958e-06 -0.00022567900554 0)
(-5.39323588587e-06 -0.000171184521233 0)
(-1.35697605945e-05 -0.000134054927484 0)
(-1.38935607687e-05 -0.000135594841862 0)
(-4.67640904649e-06 -0.000129585178415 0)
(1.66133158319e-05 0.00030192037932 0)
(7.76586115184e-05 0.000412855434971 0)
(0.000137614972347 0.000456889602673 0)
(8.3261572291e-05 0.000271685642568 0)
(9.31411708274e-05 0.000259164377465 0)
(0.000226718995113 0.000425774525122 0)
(0.000275070317532 0.000440433614346 0)
(0.000315138615128 0.000428501761028 0)
(0.000336646040828 0.000391088601345 0)
(0.000381249568677 0.000363044837514 0)
(0.000307659431605 0.000215669843175 0)
(0.000352647540955 0.000173473149133 0)
(0.000402105451164 0.000178834098921 0)
(0.000445581171715 0.00021019866652 0)
(0.000568433629153 0.000297305298951 0)
(0.000655622512977 0.000341274454196 0)
(0.000647309656896 0.000307544153105 0)
(0.000690185930445 0.000310066256019 0)
(0.000772161687141 0.000354553544991 0)
(0.000829208543813 0.000379504313305 0)
(0.000869658063622 0.000379485675112 0)
(0.000910996041006 0.000370653492718 0)
(0.000959439772971 0.000360363926928 0)
(0.00100065879992 0.000340937476858 0)
(0.00104680010797 0.000312266062941 0)
(0.00105125351058 0.000292690698715 0)
(0.00111979559096 0.000284320043305 0)
(0.00112756829422 0.000263381006609 0)
(0.0011262510425 0.000238753402825 0)
(0.00116730413255 0.000229804311747 0)
(0.00126682158861 0.000240168456979 0)
(0.0012632866506 0.000236887853362 0)
(0.00129647085673 0.000273936470911 0)
(0.00142237637679 0.0003300061481 0)
(0.00146965815933 0.000345045709423 0)
(0.00151073951222 0.000334637909088 0)
(0.00154911951081 0.000320833589336 0)
(0.00158634210061 0.000306613678394 0)
(0.00162374650577 0.000290242322055 0)
(0.00166042306641 0.000270319751752 0)
(0.00169544738543 0.000246887623497 0)
(0.00172872740233 0.000221807726893 0)
(0.00175967123989 0.000197242690693 0)
(0.0017873111548 0.000173870658581 0)
(0.00181120539024 0.00015087330133 -1.15737092215e-28)
(0.00183131333395 0.000126854561654 1.15418124722e-28)
(0.00184733924967 0.00010034534973 0)
(0.00185842863684 6.99855451503e-05 0)
(0.00186347361587 3.47147910528e-05 0)
(0.00186145356886 -6.10975885342e-06 0)
(0.00185127521293 -5.27211277299e-05 0)
(0.0018317168158 -0.000104970464074 0)
(0.0018016804293 -0.00016244478601 0)
(0.00175984352445 -0.000225252066261 0)
(0.00170364167308 -0.000295700718597 0)
(0.00162872100284 -0.000378402824382 0)
(0.00153135789287 -0.000476013537568 0)
(0.00141345844463 -0.000584260647313 0)
(0.00128501939777 -0.000692596304638 0)
(0.00115889281535 -0.000787562206504 0)
(0.00104286075681 -0.000856845303685 0)
(0.000947589806903 -0.000905341226144 0)
(0.000877221607759 -0.000949511065945 0)
(0.000821121003879 -0.000996989952674 0)
(0.000806472054243 -0.00102038048909 0)
(0.000530753480899 -0.000693202063897 0)
(0.000412320075563 -0.000566837025606 0)
(0.000341386244044 -0.000519058842437 0)
(0.00026886179024 -0.000489884136022 0)
(0.000214395740017 -0.000485713269483 0)
(0.000169392789611 -0.000464514051312 0)
(0.000121708415006 -0.000427435770265 0)
(6.79980110039e-05 -0.000402330040565 0)
(1.52589953836e-05 -0.000365462101756 0)
(-1.95664973248e-05 -0.000310347625379 0)
(-3.38227974329e-05 -0.000235975688894 0)
(-4.12559803673e-05 -0.00018140799669 0)
(-4.19139507166e-05 -0.000138369423866 0)
(-3.3585870358e-05 -0.000123790119109 0)
(-1.22953751755e-05 -0.000116317012037 0)
(2.33990900377e-05 0.000355409894549 0)
(8.84627989566e-05 0.000474202624848 0)
(0.000112543116691 0.00046714347198 0)
(7.81440618958e-05 0.000297055926374 0)
(0.000131554526266 0.000343161342201 0)
(0.000232660763532 0.000482106066463 0)
(0.000248829315315 0.000477817801311 0)
(0.000300216391762 0.000465610649563 0)
(0.000283974003489 0.000386171209856 0)
(0.000372421460093 0.000406700002157 0)
(0.000290764301581 0.000237106034439 0)
(0.000351677765871 0.000219940257327 0)
(0.000390210808742 0.000230097227091 0)
(0.000470761997615 0.000299438339943 0)
(0.000577308403679 0.000386464962799 0)
(0.000631888725799 0.000387335062141 0)
(0.000620650027137 0.000342374891483 0)
(0.000684471129987 0.000371856540396 0)
(0.000755146732492 0.000415678006118 0)
(0.00080502865129 0.00042911759062 0)
(0.000851083219008 0.000424488294253 0)
(0.0008874586494 0.000411417704556 0)
(0.000932320074282 0.000399881357229 0)
(0.000959479851392 0.000377210621914 0)
(0.000979753992765 0.000336237670814 0)
(0.00105370387137 0.000328113935452 0)
(0.0010184272912 0.000305243138157 0)
(0.00114403324134 0.000302136726858 0)
(0.00110173387568 0.00027576411246 0)
(0.0012209386927 0.000290363928286 0)
(0.00117921905055 0.000269345971511 0)
(0.0013008708205 0.000297609695396 0)
(0.00136173011463 0.000349978737987 -1.25173348128e-28)
(0.00142013243838 0.00039033105364 1.27944166876e-28)
(0.00146342609786 0.00039075389802 0)
(0.00150413905013 0.000376711841585 0)
(0.00154436214288 0.000360706882077 0)
(0.00158303951563 0.000344694342754 0)
(0.00162128975115 0.000327154027864 0)
(0.00165888030578 0.000306262309719 0)
(0.00169491751326 0.000281719419376 0)
(0.00172896272157 0.000254937347165 0)
(0.00176058519693 0.000227646187892 0)
(0.0017891752159 0.000200639541266 0)
(0.00181433977455 0.000173563237154 0)
(0.00183573541235 0.000145231027421 0)
(0.00185272342181 0.000113964654335 0)
(0.00186421586323 7.80378586101e-05 0)
(0.00186894233208 3.61487744024e-05 0)
(0.00186572625776 -1.24474823816e-05 0)
(0.00185337231331 -6.81018814018e-05 0)
(0.00183058286918 -0.000130887099388 0)
(0.00179593020978 -0.000200964140977 0)
(0.00174721330753 -0.000279530800225 0)
(0.00168088080509 -0.000369411209649 0)
(0.00159338038176 -0.000473267698064 0)
(0.0014847033225 -0.000588926368327 0)
(0.00136213337371 -0.000708214762983 0)
(0.0012377707124 -0.000821385130224 0)
(0.00111667221954 -0.000913755757697 0)
(0.00100132185941 -0.000964945320257 0)
(0.000904116062182 -0.00098415555737 0)
(0.000835501529422 -0.00100547492285 0)
(0.000788282404914 -0.00103764883535 0)
(0.000782237064847 -0.0010720855695 0)
(0.000665161552578 -0.000952582764376 0)
(0.000386753740115 -0.000658387865004 0)
(0.000274572597838 -0.000597580474742 0)
(0.000216840804425 -0.000558464234391 0)
(0.000173022796919 -0.000528458968401 0)
(0.000133277785431 -0.000503890548984 0)
(8.175728603e-05 -0.000488255272873 0)
(1.73925561467e-05 -0.000463946393407 0)
(-3.92641268774e-05 -0.000410983330737 0)
(-7.27740126986e-05 -0.000330910152592 0)
(-8.65656547604e-05 -0.000247903288383 0)
(-8.98525489622e-05 -0.000183006436346 0)
(-7.98926788582e-05 -0.000132071632681 0)
(-5.58568198047e-05 -0.000100376033632 0)
(-2.03480141366e-05 -8.40643490895e-05 0)
(2.87506211309e-05 0.000422192887768 0)
(9.8395793802e-05 0.000518730278466 0)
(0.000101298038399 0.000459055606126 0)
(7.81903393246e-05 0.000318336538712 0)
(0.000169929367004 0.000464934903862 0)