/*--------------------------------*- C++ -*----------------------------------*\
| =========                 |                                                 |
| \\      /  F ield         | OpenFOAM: The Open Source CFD Toolbox           |
|  \\    /   O peration     | Version:  v1806                                 |
|   \\  /    A nd           | Web:      www.OpenFOAM.com                      |
|    \\/     M anipulation  |                                                 |
\*---------------------------------------------------------------------------*/
FoamFile
{
    version     2.0;
    format      ascii;
    class       volScalarField;
    location    "425";
    object      pa;
}
// * * * * * * * * * * * * * * * * * * * * * * * * * * * * * * * * * * * * * //

dimensions      [0 2 -2 0 0 0 0];


internalField   nonuniform List<scalar> 
6400
(
-0.123745550696
-0.123747152343
-0.123751627348
-0.123760251834
-0.123772812605
-0.123789206924
-0.123809493031
-0.123834452085
-0.123864458941
-0.123900011877
-0.123944822453
-0.124000961464
-0.124066594302
-0.1241419278
-0.124228492614
-0.124328140877
-0.124441933183
-0.124569863448
-0.124711051295
-0.124862312223
-0.125019593203
-0.12518347724
-0.125358810828
-0.125551140693
-0.125764435611
-0.12599902711
-0.126252632234
-0.126523709413
-0.126812553409
-0.127120323905
-0.1274481082
-0.127795100658
-0.128156750037
-0.128528408763
-0.128908535503
-0.129294410766
-0.129685925256
-0.130090126709
-0.130506349381
-0.130924948696
-0.13134743664
-0.131788906668
-0.132257914396
-0.132746931567
-0.1332462689
-0.133749906351
-0.134253268131
-0.134753425191
-0.135247803415
-0.135734401267
-0.13621215449
-0.136676100066
-0.137117542781
-0.137523562097
-0.137893703872
-0.138238329895
-0.138553278413
-0.138823378957
-0.139042182417
-0.139220155991
-0.139363988452
-0.139476912682
-0.139554868216
-0.139621633793
-0.139714083247
-0.139857413545
-0.14004156861
-0.140226536677
-0.14038231221
-0.140506221159
-0.140605778686
-0.140689564674
-0.14076312564
-0.140825319034
-0.140878184584
-0.140922068231
-0.140956995964
-0.140979188756
-0.140993024968
-0.140998789731
-0.123743251457
-0.123744948594
-0.123748951262
-0.123757383215
-0.123770882986
-0.123788197904
-0.123808757851
-0.123832641434
-0.123861415448
-0.123896887847
-0.1239414196
-0.123996701642
-0.124062379886
-0.124138218704
-0.124224787268
-0.124323317427
-0.124436461894
-0.124564702358
-0.124706765562
-0.124858549194
-0.125014300874
-0.125176356909
-0.125350944778
-0.125542834656
-0.125756140721
-0.125991130699
-0.126244655732
-0.126515877254
-0.126805222571
-0.127113316755
-0.127440705441
-0.127787637479
-0.128149915453
-0.128521244832
-0.128901298028
-0.129287170629
-0.129678040499
-0.130082394745
-0.130499444987
-0.130918009346
-0.131337705833
-0.131778097416
-0.132251027602
-0.132742910599
-0.133243340413
-0.133748242092
-0.134252808383
-0.134754541153
-0.135250205375
-0.135735705122
-0.136209916098
-0.136674119506
-0.137123918056
-0.137533073573
-0.137905064364
-0.138254765976
-0.138566761485
-0.138831091191
-0.139050058026
-0.139227659734
-0.139366551463
-0.139480240517
-0.139562842836
-0.139633236825
-0.139728079105
-0.139871837003
-0.140058343399
-0.140242787314
-0.140396940486
-0.140519931454
-0.140618768558
-0.140702231756
-0.140775956541
-0.140838516336
-0.14089011937
-0.140931929207
-0.140963727892
-0.140984693242
-0.140997811105
-0.141002154726
-0.123736817866
-0.12373961001
-0.123743108211
-0.12375079675
-0.123763813546
-0.123783178037
-0.123805544345
-0.123828565833
-0.123855638306
-0.123890064297
-0.123933906153
-0.123988503965
-0.124053942238
-0.12412984267
-0.124216051831
-0.12431173272
-0.124422645515
-0.124554239846
-0.124698260484
-0.124848917889
-0.125001422729
-0.125158774166
-0.125331672843
-0.125524881723
-0.12573818105
-0.125972161019
-0.126225968535
-0.126498001214
-0.126787893453
-0.127096309858
-0.127423559323
-0.127770472851
-0.128134091237
-0.128504098686
-0.128881838103
-0.129269290287
-0.129659360039
-0.13006136818
-0.130478744943
-0.130899621572
-0.131325421583
-0.131769750176
-0.132240080284
-0.132729767722
-0.133230167258
-0.133735838425
-0.134242456332
-0.134746680112
-0.135245235812
-0.135734983262
-0.136213856916
-0.136679078778
-0.137123022265
-0.137535950541
-0.137919769366
-0.138271543133
-0.13857986101
-0.138842226107
-0.139060623519
-0.13923836439
-0.139380773098
-0.139494198873
-0.13957939624
-0.139658624213
-0.139763802935
-0.139913393605
-0.140093181741
-0.140271314152
-0.140425212648
-0.14054893434
-0.140648381241
-0.140731520877
-0.140801991595
-0.140860429393
-0.140909322846
-0.140948334191
-0.140976548648
-0.140995176223
-0.141006590121
-0.14101059533
-0.123727893878
-0.123730679806
-0.123733443578
-0.123740455281
-0.123751789942
-0.123770802158
-0.123799346192
-0.123822246449
-0.123847099176
-0.123879755798
-0.123922513158
-0.123976476114
-0.124041693108
-0.12411679044
-0.124202201127
-0.124300591334
-0.124414081118
-0.124543220867
-0.124681278429
-0.124823065603
-0.124971391339
-0.125130603652
-0.125304481733
-0.12549705619
-0.125710213975
-0.125944350892
-0.126198655804
-0.126471415767
-0.126762070248
-0.127070778146
-0.127398670709
-0.127745744651
-0.128109277854
-0.128481782906
-0.128855697535
-0.129238242516
-0.129631425569
-0.130032249927
-0.130444845688
-0.130867941302
-0.13130112548
-0.131750938546
-0.132222189353
-0.132711588527
-0.133212716679
-0.133720139468
-0.134229431184
-0.134736935661
-0.13523929901
-0.135733360154
-0.136216177218
-0.136683859696
-0.137130279541
-0.137549191894
-0.137937694211
-0.138289843361
-0.138597836705
-0.138859730069
-0.139077906506
-0.139256535982
-0.139401307752
-0.139518435768
-0.139614974385
-0.139710652739
-0.139822783627
-0.139966649802
-0.140143441376
-0.140320036866
-0.140473474811
-0.140596960773
-0.140693979291
-0.140771437874
-0.140835730913
-0.140892164931
-0.140939795311
-0.140974627078
-0.140997596725
-0.141014127849
-0.141025290206
-0.141029843423
-0.123714017806
-0.123714363964
-0.12371775398
-0.123724810682
-0.123737192662
-0.123754587529
-0.123780125887
-0.123805571141
-0.123831952365
-0.123864713686
-0.123906493843
-0.123959873517
-0.12402495531
-0.124102739799
-0.124192359143
-0.124290613883
-0.124399306813
-0.124519058207
-0.124648441819
-0.124787044698
-0.124935231286
-0.125094234991
-0.125267973127
-0.125460440887
-0.125673411469
-0.125907648894
-0.126162148631
-0.12643570395
-0.126727218534
-0.127036918778
-0.127364969809
-0.127713757509
-0.128080214112
-0.128448199945
-0.128819660303
-0.129199027719
-0.129587172389
-0.129987979421
-0.130402158636
-0.130828697563
-0.131267731148
-0.13172270138
-0.132196417529
-0.132687086986
-0.13318996467
-0.133700036057
-0.134212830109
-0.134724503325
-0.13523160569
-0.135730847339
-0.136218779496
-0.136691127014
-0.137142473005
-0.137567259561
-0.13796017626
-0.138314146457
-0.138623002026
-0.138885720148
-0.13910532202
-0.139286870393
-0.139436766444
-0.139562377565
-0.139673992447
-0.139784696765
-0.139900274593
-0.14004231734
-0.140215118701
-0.140388809763
-0.140540797853
-0.140661762568
-0.140752725782
-0.140823244815
-0.140885727393
-0.140942389257
-0.140985691463
-0.141014444426
-0.14103377035
-0.141050288676
-0.14105967616
-0.141062504916
-0.123688335538
-0.123688065461
-0.123693969934
-0.123701046319
-0.123714331321
-0.123732580379
-0.123756111708
-0.123781785422
-0.123810281
-0.123843891278
-0.123884234617
-0.123937255934
-0.124006864817
-0.124088820746
-0.12417713605
-0.124270948211
-0.124372573972
-0.12448527232
-0.124610198539
-0.12474608151
-0.124891479895
-0.12504901085
-0.125222445937
-0.125414939132
-0.125627885858
-0.125861510826
-0.126116474989
-0.126390590685
-0.126683438401
-0.12699417958
-0.127324067392
-0.127672937354
-0.12803672054
-0.128407426446
-0.128773069072
-0.129145031246
-0.129531318225
-0.129933336745
-0.130350153305
-0.13078068994
-0.131225065993
-0.13168518411
-0.132162566004
-0.132655978834
-0.133161779843
-0.133675471699
-0.134192668938
-0.134709451268
-0.135222315138
-0.135727870379
-0.136222415462
-0.136701499356
-0.137159786758
-0.137591291084
-0.137989307795
-0.138346619729
-0.138658384856
-0.138924517557
-0.139148579481
-0.139336187207
-0.139494249938
-0.139631235885
-0.139760123105
-0.139880027774
-0.139999392567
-0.14014467684
-0.140317150865
-0.140485895951
-0.140631899892
-0.140745053733
-0.140827848967
-0.140895960481
-0.140960385581
-0.141013137368
-0.141049084691
-0.14107151243
-0.141088613898
-0.141101550423
-0.141107107638
-0.141109121226
-0.123649228467
-0.123651987548
-0.123662019314
-0.123672520886
-0.123683214448
-0.123701345192
-0.123725954183
-0.123752104023
-0.123781973372
-0.123816472557
-0.123858673784
-0.123912279185
-0.123985150541
-0.124065789524
-0.124150355029
-0.12423826512
-0.124334711017
-0.124444517909
-0.124566835552
-0.124697689848
-0.124839438804
-0.124995701524
-0.125168366946
-0.125360022662
-0.125572605301
-0.125807448061
-0.126060803445
-0.126335684537
-0.126630075643
-0.126944516009
-0.127275303786
-0.12762205388
-0.127984399678
-0.128347687012
-0.12871011877
-0.129079172835
-0.129465111799
-0.129868888512
-0.130288761679
-0.130723447812
-0.131172974993
-0.131638401063
-0.132120398419
-0.1326178629
-0.133127804043
-0.133646186763
-0.134168800496
-0.13469177203
-0.13521162299
-0.135724933895
-0.136227857609
-0.13671573454
-0.137182891766
-0.137622639123
-0.138027551942
-0.138390810409
-0.138708733046
-0.138981992512
-0.139214285363
-0.139410989491
-0.139579528871
-0.139729981276
-0.139870585947
-0.139998745366
-0.140133193389
-0.140282344774
-0.140452439626
-0.140611633986
-0.140745507939
-0.140848441156
-0.140927780646
-0.140999073814
-0.141062015445
-0.141106257162
-0.141133142935
-0.141148778248
-0.141161103673
-0.141166420723
-0.141165647358
-0.141165571163
-0.12360347059
-0.123609101362
-0.123620619969
-0.123635906239
-0.123647264214
-0.123665910223
-0.123689350347
-0.123716268663
-0.123747962064
-0.12378029777
-0.123826123064
-0.123885463743
-0.123956029843
-0.124033466817
-0.124112767163
-0.124194924535
-0.124289275664
-0.124397930886
-0.124515338018
-0.12464108491
-0.124779364393
-0.124933741054
-0.125105290926
-0.125296842068
-0.125509567141
-0.125743722181
-0.125998420396
-0.126269349791
-0.126567785002
-0.126887610991
-0.127217402268
-0.127557412092
-0.127915561225
-0.12827356019
-0.128631239859
-0.129001398165
-0.129388854444
-0.129794602668
-0.130217552102
-0.130656477384
-0.131111191165
-0.13158221635
-0.132069667993
-0.132572366505
-0.133087661708
-0.133611885529
-0.134141068924
-0.134671498367
-0.135199807289
-0.135722598237
-0.136235918201
-0.136734823219
-0.137213133784
-0.137663518301
-0.138078334789
-0.138451406564
-0.138779963642
-0.139064694491
-0.13930822327
-0.139514827091
-0.139692632931
-0.139852832929
-0.140003666965
-0.140150136117
-0.140297996674
-0.140455542848
-0.140618489482
-0.140765542565
-0.140886664992
-0.140982664769
-0.14106350173
-0.141136738434
-0.141192198667
-0.141225191155
-0.141240646417
-0.141246606138
-0.141246689822
-0.141240658041
-0.141230654707
-0.14122555423
-0.123553658563
-0.123561028776
-0.123572537253
-0.123584693755
-0.123599557934
-0.123622773038
-0.123645490842
-0.123672513864
-0.12370751011
-0.123741869937
-0.123784318071
-0.123847366159
-0.123918086588
-0.123990806795
-0.12406539498
-0.124145930637
-0.124237573059
-0.124342348108
-0.124454919647
-0.12457681658
-0.124711789034
-0.124863087595
-0.125031841807
-0.125221853088
-0.125438268706
-0.125670071582
-0.125925510203
-0.126200641961
-0.126496230521
-0.1268138121
-0.127145215221
-0.127488298142
-0.127831445312
-0.12818155076
-0.128539959094
-0.128912316564
-0.129301924406
-0.129709934534
-0.130136005409
-0.130579257684
-0.131039346744
-0.13151637242
-0.13201005353
-0.132519077897
-0.133040936404
-0.133572233064
-0.13410929608
-0.134648675908
-0.135187183262
-0.135721488043
-0.136247537945
-0.13676009592
-0.137252481304
-0.137716957297
-0.138145992667
-0.138534068807
-0.138878518922
-0.139178665231
-0.139434421203
-0.139648937086
-0.139833201847
-0.140002595115
-0.140167230879
-0.14033051312
-0.140491847368
-0.140662414186
-0.140825934502
-0.140955094192
-0.141063655845
-0.141156292302
-0.141240296126
-0.141310818333
-0.141355504882
-0.141374579474
-0.141374273079
-0.141362396798
-0.141342478008
-0.141319458479
-0.141297680254
-0.141285344882
-0.123499150075
-0.123507709875
-0.123520878579
-0.12353210876
-0.123547911374
-0.123570900096
-0.123593746661
-0.123619990405
-0.123653247295
-0.123695833444
-0.123739189074
-0.123800541443
-0.123870125242
-0.123938953296
-0.124008457257
-0.124088659037
-0.124180062313
-0.124279234559
-0.124385994399
-0.124504062526
-0.124636491156
-0.124785184422
-0.124951041319
-0.125136338072
-0.125354310398
-0.125590230353
-0.125837282146
-0.126115811554
-0.12641126424
-0.12673008804
-0.12706010049
-0.127397557234
-0.12773623438
-0.128079011879
-0.128436892781
-0.128811541618
-0.129203683226
-0.129614283552
-0.13004358685
-0.130491234649
-0.130956931393
-0.131440446315
-0.131941132522
-0.132457513566
-0.132987142011
-0.133526840981
-0.134073267746
-0.134623324179
-0.135174077699
-0.135722279827
-0.136263828377
-0.136793222429
-0.137303452056
-0.137786654642
-0.138235681282
-0.138645110666
-0.139010901855
-0.139328621024
-0.13959476476
-0.139814556431
-0.14000546173
-0.140187618805
-0.140368497928
-0.140546396229
-0.140720706345
-0.140893680008
-0.141053081294
-0.141186736287
-0.141284185317
-0.141374817917
-0.141461005374
-0.14152667369
-0.141559827218
-0.14156153551
-0.141537874983
-0.141496172915
-0.141448311531
-0.141401463218
-0.141363650682
-0.141342481463
-0.123437789176
-0.123445906759
-0.12345975102
-0.123473324131
-0.123493361037
-0.123512275042
-0.123534351357
-0.123560711358
-0.123588059437
-0.123633599929
-0.123682767432
-0.123742796117
-0.123810715783
-0.123878007787
-0.12394501164
-0.124022569083
-0.124112267958
-0.12420694287
-0.124308520101
-0.124421767324
-0.124551006612
-0.124698112839
-0.124864664492
-0.125045726084
-0.125254675611
-0.125497867086
-0.125747186056
-0.126020607195
-0.126313944208
-0.126621582821
-0.126954930237
-0.127290375924
-0.127623868261
-0.127964041081
-0.12832216598
-0.128698761669
-0.129093497349
-0.129507001138
-0.129939747814
-0.130391858049
-0.130863356692
-0.131353861729
-0.131862339711
-0.132387088351
-0.132925689839
-0.133475204193
-0.134032667559
-0.134595400871
-0.135160765357
-0.135725685759
-0.136286019115
-0.136836150886
-0.13736896034
-0.137876905802
-0.138353221362
-0.138791380314
-0.139182385049
-0.139516244639
-0.13979129969
-0.140018803554
-0.140221491286
-0.140422138846
-0.140620797055
-0.140809846465
-0.140986876531
-0.141151364208
-0.14130331208
-0.14144564463
-0.141545551846
-0.14164163202
-0.141731946421
-0.141796473022
-0.141819046421
-0.141797590938
-0.141737928538
-0.141650027172
-0.141564566683
-0.141484319677
-0.141422390241
-0.141388639388
-0.123367911089
-0.12337409702
-0.123384008275
-0.123401739855
-0.123426933799
-0.123444674976
-0.123466247337
-0.123494405901
-0.123519374352
-0.123560771464
-0.123613776814
-0.123673561128
-0.123739100385
-0.12380551788
-0.123874481415
-0.123950005942
-0.124035562656
-0.12412541917
-0.124222456268
-0.124330576358
-0.124454092369
-0.124596388919
-0.124766488816
-0.12495274513
-0.125151765807
-0.125389661172
-0.125642573827
-0.125907283884
-0.126205545497
-0.126513314323
-0.126834092193
-0.127160934633
-0.127491610236
-0.127834797777
-0.128194669168
-0.128573160113
-0.128970533894
-0.129387263224
-0.129823841607
-0.130280582619
-0.130757981218
-0.131255897091
-0.131772963082
-0.132307080982
-0.132855843821
-0.133416641874
-0.133986988942
-0.134564655037
-0.135147391741
-0.135732312303
-0.136315396001
-0.136890962491
-0.137452220046
-0.137992386486
-0.138505147667
-0.13897919211
-0.13939442153
-0.139741809653
-0.140033705207
-0.140281388814
-0.140504169268
-0.14072971541
-0.140947841235
-0.14114422173
-0.141314966867
-0.141462827197
-0.141597548697
-0.141724295125
-0.141845773364
-0.141952720782
-0.142068188779
-0.142144584974
-0.14216137915
-0.142107016168
-0.141991048037
-0.141822860041
-0.141689174224
-0.141559771407
-0.141459533083
-0.14140623875
-0.123289538015
-0.123293881429
-0.123298324545
-0.12331808812
-0.123342468446
-0.123363330901
-0.123386025752
-0.123415949873
-0.123443372998
-0.123481947618
-0.123534880815
-0.123593384523
-0.123655899847
-0.123718713178
-0.123789979767
-0.12386745132
-0.123949156564
-0.124034312892
-0.12412717826
-0.12423081863
-0.124347990299
-0.124481921084
-0.124647426638
-0.12484497472
-0.125043995385
-0.125266884101
-0.125524226122
-0.125787461715
-0.126072331988
-0.126379696413
-0.126696919713
-0.127018507953
-0.127345721682
-0.127690407503
-0.128052705939
-0.12843360701
-0.128833790416
-0.129253889275
-0.129694780654
-0.130156751293
-0.130640312623
-0.131145843868
-0.131672102279
-0.132216563961
-0.132776661087
-0.13335022056
-0.133935382844
-0.134530490179
-0.135133677246
-0.135742501636
-0.136353058431
-0.136959806532
-0.137556528237
-0.138137839102
-0.138697850522
-0.139213096691
-0.139644609137
-0.140006956176
-0.140342759813
-0.140636433805
-0.140882504474
-0.141137180436
-0.141378292898
-0.141580160171
-0.141728169831
-0.14183146758
-0.141924669206
-0.142022063561
-0.142136036962
-0.142257367337
-0.142440184715
-0.142569373531
-0.14259282418
-0.142495757644
-0.14230003401
-0.141989151917
-0.14181866657
-0.141615773045
-0.141453195655
-0.141370107966
-0.123203411089
-0.123208266728
-0.123215317165
-0.123228168098
-0.123248212923
-0.123270674224
-0.123294827087
-0.123324584508
-0.12335705498
-0.123394261631
-0.123446141648
-0.12350286675
-0.12356269751
-0.123621985584
-0.123690137417
-0.123769365895
-0.123849982436
-0.123932321615
-0.12402157831
-0.124121157238
-0.124233034707
-0.124358922009
-0.124515293463
-0.124715513095
-0.124922433034
-0.12513587073
-0.125389519817
-0.125655208363
-0.125928507634
-0.126227388215
-0.126535643567
-0.126852360304
-0.127182954408
-0.127530227366
-0.127895039762
-0.128278647941
-0.128682213189
-0.12910609833
-0.129551332675
-0.130019010814
-0.130509517634
-0.131023128848
-0.131558958996
-0.132114448595
-0.132686909266
-0.133274609245
-0.133876523833
-0.134491598996
-0.135118605659
-0.135755744539
-0.136399688065
-0.137044749365
-0.1376851573
-0.138316591913
-0.138936737059
-0.13949866334
-0.139929718279
-0.140320149758
-0.140796949909
-0.141258771259
-0.141490113035
-0.141782010823
-0.1420502291
-0.142248643962
-0.142331523469
-0.14239517234
-0.142518836664
-0.142638426592
-0.142750890723
-0.142853455189
-0.143316962795
-0.143589318444
-0.143611046601
-0.143394815825
-0.143039175044
-0.142129632046
-0.141958240463
-0.141628160548
-0.141362539503
-0.141239775501
-0.123107685561
-0.123113078626
-0.123124968056
-0.123131263555
-0.123146659622
-0.123168753489
-0.123193689741
-0.123224227012
-0.123262745421
-0.12329764065
-0.123347518194
-0.123402385291
-0.123460064578
-0.123517516688
-0.123582424349
-0.123659956691
-0.123738947906
-0.123819170722
-0.123905253763
-0.124000685601
-0.124107814661
-0.124227797313
-0.124372507439
-0.124564777929
-0.124783403662
-0.124995525694
-0.125233522831
-0.125506168151
-0.125781479022
-0.126060642443
-0.126358012691
-0.126671530002
-0.127003030451
-0.127352575071
-0.127720213881
-0.128106980907
-0.128514042264
-0.128942402668
-0.129392732898
-0.129866284576
-0.130364261002
-0.130886782352
-0.131432770036
-0.13199971252
-0.132585116181
-0.133188015785
-0.133808279226
-0.134445648239
-0.135099571571
-0.13576988168
-0.136454809849
-0.137148143958
-0.137841382208
-0.1385259357
-0.139222265245
-0.13985957993
-0.14028248847
-0.140645273112
-0.141127331231
-0.14098637329
-0.140724326165
-0.140520478169
-0.14028601855
-0.140047502175
-0.139817807993
-0.139572683544
-0.139287567743
-0.139074529799
-0.139035585907
-0.139135988733
-0.13923355122
-0.139589738892
-0.140014927462
-0.14025112057
-0.140357857484
-0.141121074952
-0.142376799707
-0.141821895461
-0.141135383483
-0.140960570456
-0.123000490236
-0.123005240027
-0.123015379552
-0.123021977619
-0.123035039524
-0.123056846716
-0.123081319995
-0.123110135494
-0.1231534195
-0.123190329005
-0.123238222913
-0.1232915862
-0.123347909332
-0.123404832693
-0.123467320809
-0.123541403786
-0.123617592836
-0.123695497073
-0.123778381715
-0.123869532668
-0.123971474306
-0.124086179246
-0.124221532267
-0.124401553994
-0.124622868792
-0.124842562248
-0.12506527854
-0.125324169463
-0.125602785089
-0.125879993218
-0.12616741008
-0.126475478325
-0.126806013809
-0.127157067977
-0.127527365253
-0.12791718893
-0.128328104067
-0.128761110052
-0.12921729552
-0.129697559527
-0.130203451422
-0.130735608326
-0.131292667868
-0.131871496095
-0.13246972064
-0.133087876458
-0.13372759786
-0.134388857098
-0.135071328572
-0.135778596948
-0.136515634035
-0.137273617178
-0.138032305018
-0.138743765501
-0.139541608427
-0.140455920495
-0.140210188145
-0.139974697288
-0.139967925931
-0.139810886189
-0.139305948369
-0.138563216501
-0.137625030315
-0.136567931469
-0.135466632639
-0.134386157364
-0.133379955877
-0.132566723303
-0.13208297492
-0.131988779665
-0.132213805161
-0.132813282114
-0.133702805175
-0.134707621764
-0.135793905311
-0.137067929275
-0.138198975842
-0.138941713708
-0.140226413528
-0.140393445308
-0.122883436225
-0.122887447524
-0.12289715399
-0.122902939151
-0.122915272414
-0.122936005594
-0.122959446835
-0.122984553301
-0.123025951069
-0.123068247569
-0.123116573756
-0.123169143343
-0.123224936868
-0.123283275824
-0.123343105959
-0.123413373899
-0.123486241939
-0.123561643812
-0.123641075392
-0.123727764015
-0.123824126063
-0.123932620468
-0.124059606558
-0.124225952542
-0.124439023977
-0.1246706976
-0.12489001488
-0.12513053393
-0.125396011269
-0.125669405641
-0.12595261584
-0.126259348285
-0.126589354205
-0.126941449132
-0.127314493257
-0.127707981031
-0.128122844937
-0.128560967938
-0.129023436316
-0.129511337386
-0.130026037477
-0.13056840053
-0.131137390209
-0.131729006457
-0.132339808123
-0.132972464266
-0.133631206104
-0.134315088551
-0.135022765973
-0.135767770775
-0.136573404713
-0.137427776058
-0.138268639684
-0.138849571503
-0.139739566286
-0.139669647539
-0.139388362161
-0.138996797999
-0.138525664927
-0.137981129943
-0.137130698142
-0.135981256804
-0.134575230086
-0.133006052824
-0.131363154244
-0.129734959174
-0.128202085464
-0.12686572772
-0.125841358841
-0.125232585536
-0.12508190539
-0.125375555219
-0.126073967485
-0.127122342544
-0.12853889073
-0.130492864506
-0.132932181783
-0.135286577758
-0.137478308894
-0.139982106822
-0.122758101626
-0.122760981997
-0.122767426029
-0.122773843205
-0.1227879373
-0.122807444266
-0.122830452347
-0.122852993306
-0.122891077852
-0.122934803767
-0.122982798243
-0.123034007232
-0.123088205687
-0.123148884064
-0.123207494317
-0.123273943622
-0.123343470805
-0.123416827862
-0.123492791143
-0.123574901398
-0.12366540669
-0.12376689166
-0.123885324045
-0.124038414827
-0.124238619962
-0.124472415434
-0.124700398534
-0.124929181343
-0.125177341515
-0.125438895908
-0.125716814633
-0.126021035629
-0.126349718201
-0.126702374802
-0.12707831732
-0.127476072897
-0.127896121349
-0.128339920552
-0.128809626288
-0.129305970222
-0.129830386673
-0.130384423822
-0.130966906661
-0.131572657296
-0.13219420833
-0.132835394909
-0.13350914387
-0.134214093301
-0.134937428457
-0.135707552678
-0.136606406725
-0.137642158588
-0.138836721244
-0.138809398332
-0.13858700243
-0.138347495221
-0.138067290307
-0.137477129584
-0.136622521681
-0.135557314208
-0.134234542325
-0.132696675733
-0.130977562259
-0.129149159445
-0.127279599606
-0.125435176155
-0.123675322944
-0.122062149209
-0.120665644977
-0.119580630745
-0.118917042193
-0.118693365687
-0.118908974415
-0.119572772635
-0.120805106964
-0.122885033832
-0.125768668756
-0.128689707647
-0.132516520853
-0.14292163071
-0.122626528087
-0.122628384299
-0.122631016902
-0.12263851361
-0.122653782923
-0.122671722932
-0.122693717709
-0.122716034201
-0.122749251976
-0.122791651186
-0.122837814375
-0.122886579263
-0.122937320219
-0.122996225916
-0.123056840191
-0.1231207884
-0.123186998282
-0.123258092825
-0.123331647667
-0.123409709019
-0.123494540393
-0.123588207102
-0.123697758966
-0.123837671045
-0.124020988844
-0.124243413834
-0.124478312543
-0.12470524905
-0.124941373899
-0.125192258799
-0.125460635433
-0.125759329298
-0.126086323077
-0.126437388587
-0.126816058543
-0.127218620885
-0.127643886243
-0.128094643673
-0.12857300088
-0.129079937309
-0.129615840404
-0.130182356977
-0.130779048951
-0.131401328823
-0.132041117371
-0.132697646722
-0.133376776241
-0.134067570978
-0.134765116687
-0.135509027507
-0.136496969305
-0.13781758478
-0.138373367822
-0.137834004509
-0.137099846583
-0.136831365616
-0.136222146186
-0.135251788424
-0.133970096235
-0.132424185662
-0.130644386231
-0.128691504185
-0.126594261882
-0.124392706333
-0.122124771342
-0.119834502714
-0.117571457622
-0.115393351951
-0.113368203388
-0.111592902749
-0.110191868169
-0.109220879452
-0.108648473256
-0.108480233131
-0.108878971039
-0.110266784517
-0.112762238258
-0.115081439369
-0.116253516775
-0.120556524153
-0.12248959114
-0.122490930482
-0.12249195843
-0.122500694598
-0.122514584123
-0.122529687099
-0.122548191501
-0.122571009309
-0.122599033354
-0.122638622083
-0.122682156827
-0.122728001958
-0.122775294497
-0.122829215882
-0.122890565433
-0.12295326662
-0.123016573774
-0.123084179946
-0.123155185481
-0.123230080225
-0.123310202981
-0.123395803644
-0.123495850007
-0.123622897061
-0.123788696951
-0.123994075782
-0.124222304713
-0.124449425782
-0.124675526987
-0.124916359248
-0.125179673422
-0.125469100597
-0.125791128065
-0.1261417548
-0.126523712362
-0.126931655831
-0.127362979227
-0.127821559692
-0.128309753728
-0.128828963087
-0.129379351306
-0.12996178808
-0.130578472332
-0.131227579952
-0.131897127296
-0.132569568085
-0.133240426149
-0.13389801005
-0.13452095829
-0.135078836564
-0.136089981836
-0.137393461057
-0.136409351227
-0.135596476634
-0.135342011763
-0.134796092729
-0.133733258145
-0.132294552863
-0.130539251853
-0.128521574391
-0.126277270683
-0.123849088547
-0.121254848229
-0.118516665778
-0.115660130892
-0.112722931589
-0.109753432046
-0.106807362023
-0.103943246858
-0.101232014762
-0.0987654301841
-0.0966019569262
-0.094622373503
-0.0927020444079
-0.0909200607853
-0.0897969785561
-0.0894817985868
-0.0863836669451
-0.0723147539695
-0.0545575730534
-0.122346262629
-0.12234733074
-0.12234800992
-0.122358191265
-0.122370106243
-0.122381863001
-0.122395755622
-0.122417724458
-0.122439392223
-0.122475260566
-0.122515908761
-0.122558564643
-0.122602674028
-0.122652490077
-0.122711138266
-0.122771999165
-0.122832679517
-0.122896332079
-0.12296301175
-0.123034278847
-0.123110360881
-0.123188240878
-0.123277689512
-0.123391944564
-0.123540590391
-0.123726747443
-0.123942426026
-0.124165453644
-0.124391448948
-0.124619586778
-0.124873789441
-0.125155914257
-0.125469278299
-0.125811403072
-0.126191926014
-0.126608313803
-0.127048692384
-0.127517333954
-0.128016416645
-0.128549059826
-0.129117171727
-0.129721676183
-0.130368489824
-0.131055759575
-0.131756551115
-0.13244811062
-0.133124449715
-0.133771672945
-0.134275055202
-0.134119731047
-0.13565674699
-0.134536833087
-0.133476236932
-0.133402582526
-0.133061721224
-0.132086260563
-0.130554770971
-0.128620474526
-0.126361700886
-0.123838460588
-0.121082473495
-0.118120705281
-0.114966124713
-0.111637614153
-0.108160344896
-0.104569202375
-0.1009043547
-0.0972047728462
-0.0934998690431
-0.0898107641483
-0.0861616448462
-0.0825513373294
-0.0787743428556
-0.0744783708653
-0.0695654260211
-0.0644415287851
-0.0586732380568
-0.0456180440347
-0.00956408680753
0.0437462930943
-0.122193524609
-0.122194288414
-0.122195686837
-0.122207430273
-0.122217511344
-0.122226143374
-0.122236713575
-0.122255565289
-0.122270455093
-0.122301647512
-0.122338902233
-0.122377931702
-0.122418443485
-0.122463854234
-0.12251819992
-0.122576222841
-0.122634808319
-0.122693991724
-0.12275491193
-0.122821158978
-0.122892756913
-0.122963577663
-0.123040997925
-0.123142105544
-0.123274258444
-0.123439851941
-0.123637806669
-0.123847154375
-0.124071703321
-0.124297930437
-0.124539681488
-0.124807384657
-0.125113635712
-0.125454746031
-0.125826427299
-0.126242574384
-0.12669310442
-0.127173896866
-0.127688132722
-0.1282370127
-0.12882477221
-0.129459865079
-0.130150754936
-0.13088280439
-0.131617404852
-0.132346049164
-0.133090277585
-0.133900116588
-0.13485634816
-0.133788875383
-0.132529090077
-0.131536632518
-0.131251762395
-0.131126094549
-0.13028606477
-0.12878949511
-0.126739871988
-0.124281403066
-0.121497507785
-0.11844897841
-0.115169681246
-0.111685984099
-0.108016434715
-0.10418394457
-0.100213969312
-0.0961329129448
-0.0919615088346
-0.0877074964973
-0.0833568197483
-0.0788655540949
-0.0741528217153
-0.0690861750097
-0.0634329929347
-0.0566991358433
-0.0486326654146
-0.039394793743
-0.0273614985777
-0.00324309628713
0.0496272837241
0.117366182161
-0.122027354829
-0.122027793861
-0.122029838952
-0.122042851779
-0.122050678362
-0.122057838758
-0.122065888296
-0.12207995081
-0.122089844406
-0.122117162139
-0.12215072414
-0.122185587015
-0.122221917929
-0.122262139243
-0.122310710236
-0.122363998806
-0.122420721312
-0.122475027272
-0.122529635404
-0.12258951536
-0.122654543143
-0.122719666635
-0.122784761732
-0.122870969633
-0.122987205074
-0.123132474185
-0.123309704768
-0.123500104324
-0.123709799577
-0.123936800622
-0.124176235009
-0.124431163614
-0.124716233437
-0.125048860526
-0.125422858613
-0.125836765828
-0.126292878279
-0.126785061643
-0.127315064749
-0.127884801124
-0.128500075375
-0.129176615777
-0.129919431763
-0.130696540743
-0.13147803885
-0.132280527468
-0.133115129741
-0.134280700629
-0.133473221579
-0.132234650539
-0.130683235841
-0.129777008914
-0.12935342838
-0.128600108861
-0.127109301997
-0.125003366493
-0.122381216412
-0.119378649524
-0.116075753936
-0.112533787908
-0.108792163228
-0.104882517486
-0.100828449978
-0.0966505457057
-0.0923623466733
-0.0879663082325
-0.0834472983221
-0.0787674174907
-0.0738613288004
-0.0686257627737
-0.0628936735204
-0.056406840167