/*--------------------------------*- C++ -*----------------------------------*\
| =========                 |                                                 |
| \\      /  F ield         | OpenFOAM: The Open Source CFD Toolbox           |
|  \\    /   O peration     | Version:  v1806                                 |
|   \\  /    A nd           | Web:      www.OpenFOAM.com                      |
|    \\/     M anipulation  |                                                 |
\*---------------------------------------------------------------------------*/
FoamFile
{
    version     2.0;
    format      ascii;
    class       volScalarField;
    location    "661";
    object      pa;
}
// * * * * * * * * * * * * * * * * * * * * * * * * * * * * * * * * * * * * * //

dimensions      [0 2 -2 0 0 0 0];


internalField   nonuniform List<scalar> 
6400
(
-0.122394509401
-0.122395448794
-0.122398096839
-0.12240328734
-0.122411043693
-0.122421403895
-0.122434440039
-0.122450630744
-0.12247046818
-0.122494626056
-0.122525321945
-0.122563934649
-0.122609895076
-0.122663551288
-0.122726052706
-0.122798885414
-0.122883285577
-0.122979800781
-0.123088206888
-0.123206907591
-0.123334110621
-0.123470963798
-0.123621272962
-0.12378921467
-0.123977843081
-0.124187930997
-0.124418621071
-0.124669420412
-0.124940966486
-0.125234487582
-0.125551157542
-0.125890812374
-0.126250791906
-0.126628214508
-0.127022092383
-0.127431189194
-0.127856180441
-0.128301541565
-0.128766742719
-0.129245751423
-0.129739493468
-0.130257555603
-0.13080523054
-0.131376882957
-0.131964273049
-0.132561447426
-0.13316370355
-0.133767279306
-0.134368599183
-0.13496444713
-0.135552090168
-0.136126372859
-0.136678411006
-0.137196737277
-0.137678493255
-0.138127426535
-0.138538073607
-0.138897993657
-0.139201343643
-0.139453786509
-0.139659984176
-0.139821276218
-0.139935228172
-0.140025985676
-0.140131158157
-0.140287706517
-0.140489388778
-0.140691472251
-0.140860314277
-0.140993615919
-0.14110043026
-0.141190787531
-0.141271080873
-0.141339675365
-0.141398637388
-0.141448209744
-0.141488062688
-0.141513558594
-0.141529541918
-0.141536246071
-0.12239322902
-0.122394231691
-0.122396626436
-0.122401676077
-0.122409857906
-0.122420621874
-0.122433715049
-0.122449251018
-0.122468339987
-0.122492305217
-0.122522711867
-0.122560757
-0.122606545039
-0.122660215498
-0.122722412486
-0.122794346308
-0.122878098117
-0.122974476366
-0.123082962082
-0.123201484888
-0.12332747481
-0.123463058158
-0.123612741817
-0.123780244815
-0.123968582546
-0.124178523382
-0.124408834497
-0.124659373085
-0.124930829015
-0.12522415652
-0.12554026555
-0.125879582105
-0.126239574888
-0.126616502331
-0.127010011816
-0.127418920128
-0.127843492801
-0.128288936954
-0.128754760519
-0.129234210398
-0.12972719214
-0.130245247065
-0.130795148251
-0.131368582419
-0.131956872198
-0.132555130212
-0.133158581629
-0.133763669423
-0.134366441353
-0.134962504106
-0.135548987866
-0.136124004626
-0.136680693959
-0.137201425726
-0.137684967599
-0.138136998468
-0.138546269737
-0.138903234894
-0.139206898438
-0.139459219946
-0.139662574863
-0.139824263591
-0.139941868301
-0.140036946552
-0.140146017683
-0.140303386674
-0.140507786483
-0.14070921561
-0.140876181159
-0.141008419762
-0.141114417018
-0.141204471016
-0.141285039302
-0.141354176953
-0.141411807486
-0.141459100901
-0.141495490635
-0.141519732815
-0.14153502449
-0.141540072743
-0.122389571682
-0.122391181132
-0.122393305358
-0.122397880782
-0.122405686456
-0.122417502422
-0.122431413325
-0.122446211999
-0.122464112953
-0.122487233418
-0.12251697121
-0.122554322478
-0.122599584427
-0.122652813178
-0.122714252833
-0.122784037161
-0.122865777863
-0.122962881021
-0.123071607531
-0.123188847231
-0.123312539127
-0.123445112779
-0.123593391773
-0.123760938408
-0.123948604843
-0.124157293921
-0.124386967793
-0.124637149295
-0.124908124639
-0.125200816619
-0.125516061773
-0.125854648071
-0.126214647673
-0.126590172844
-0.126981774212
-0.127390967976
-0.127814997812
-0.128259208014
-0.12872538231
-0.129206719303
-0.129703741676
-0.130224699634
-0.130774113078
-0.131347076752
-0.131936205741
-0.132535941245
-0.133141666806
-0.133749356849
-0.134355010831
-0.134954677812
-0.135544967982
-0.136121633325
-0.136676637041
-0.137200792728
-0.137692105114
-0.138146479036
-0.138554242742
-0.138910292843
-0.139213833189
-0.139466299534
-0.139671303111
-0.139832638776
-0.139954434912
-0.140059958243
-0.140182915214
-0.140348328855
-0.14054531566
-0.140739518593
-0.140906310649
-0.14103955947
-0.141146457607
-0.141236311838
-0.141313244805
-0.141377777583
-0.141432576083
-0.141476993986
-0.141509628104
-0.141531495198
-0.141544976809
-0.141549744233
-0.122384365752
-0.122385975553
-0.122387723002
-0.122391843075
-0.122398543313
-0.122409983594
-0.122427021315
-0.122441607163
-0.122457881766
-0.122479628255
-0.122508314282
-0.122544818634
-0.122589380261
-0.122641509954
-0.122701509265
-0.122771284765
-0.122852951608
-0.122947627231
-0.123052097779
-0.123163829412
-0.123284671829
-0.123417496993
-0.123565422013
-0.123731688227
-0.123918189163
-0.12412577719
-0.12435449198
-0.124603875481
-0.12487406158
-0.125165736596
-0.125480086347
-0.12581763016
-0.126176553765
-0.126552171137
-0.126940777657
-0.127346782189
-0.127772121805
-0.128215914979
-0.128680213091
-0.129163675043
-0.129665879285
-0.130191008754
-0.1307419645
-0.131315756852
-0.131906501838
-0.132508707068
-0.133117613406
-0.133728971111
-0.134338693658
-0.134942773255
-0.135537201332
-0.136116983212
-0.136675143708
-0.137204620813
-0.137700653427
-0.138156805239
-0.138565101383
-0.138921292066
-0.139224949488
-0.139477962578
-0.139684275754
-0.13984957158
-0.139984449945
-0.140109193674
-0.140243682525
-0.140405144629
-0.140599242851
-0.140792056117
-0.140958509788
-0.141091565426
-0.141195680541
-0.141279003065
-0.141348954333
-0.141411568551
-0.141465519955
-0.14150572823
-0.141532837094
-0.141552831566
-0.141566475621
-0.141572024484
-0.122376215387
-0.12237651522
-0.122378583565
-0.122382637304
-0.122389782343
-0.122399909585
-0.122415016879
-0.12243074183
-0.122447564514
-0.122468830799
-0.122496362216
-0.122531884029
-0.122575530983
-0.122627748668
-0.122688394318
-0.122756574628
-0.122834247395
-0.122922655799
-0.123021438051
-0.123130299156
-0.123249780108
-0.12338134372
-0.123528004081
-0.123692864791
-0.123877764565
-0.124083783648
-0.124310968975
-0.124559125144
-0.124828209922
-0.125118749624
-0.125431567166
-0.125768335534
-0.126127263269
-0.126499258056
-0.126885205492
-0.127288739665
-0.127711447435
-0.128155552495
-0.128621296995
-0.129107644341
-0.129614472931
-0.130143976991
-0.13069772891
-0.131273652126
-0.131867039945
-0.132472711694
-0.133085829335
-0.133701965638
-0.134316925338
-0.134926549923
-0.135526421654
-0.136111253805
-0.136674632578
-0.137209953702
-0.137710830018
-0.138169720758
-0.138579541396
-0.13893684333
-0.139241781152
-0.139497157031
-0.139708382854
-0.139883870071
-0.140037051278
-0.140180942066
-0.140323435621
-0.140485928389
-0.140676698426
-0.140866713462
-0.141031567737
-0.141161549924
-0.14125849587
-0.141333746089
-0.141401796899
-0.141465262029
-0.141515089619
-0.141549260052
-0.141573159232
-0.141594129332
-0.141606328974
-0.141610138054
-0.122361526032
-0.122361424766
-0.12236472118
-0.122368691216
-0.12237611246
-0.122386185557
-0.122400036754
-0.122415455845
-0.12243300765
-0.12245415232
-0.122480195726
-0.122514494842
-0.122558875481
-0.122611660421
-0.122670080172
-0.122734582207
-0.122807291835
-0.122890556893
-0.122985103931
-0.123090632092
-0.123207064463
-0.123336334213
-0.123481217231
-0.123644336775
-0.12382732065
-0.12403098591
-0.124256203123
-0.124502621271
-0.124770332008
-0.125059493057
-0.125370993667
-0.125705659447
-0.126061295684
-0.126433004283
-0.126814718274
-0.127213690851
-0.127635214214
-0.128080258417
-0.128548101985
-0.129037775131
-0.129549147248
-0.130083331258
-0.130640978245
-0.131220366867
-0.131817582863
-0.13242781922
-0.133046248846
-0.133668328114
-0.134289751567
-0.134906211671
-0.135513034923
-0.136104780674
-0.136675128737
-0.137217176971
-0.137723475949
-0.138186163633
-0.138598991639
-0.138959394483
-0.139268391533
-0.139530017307
-0.139751193357
-0.139941900962
-0.140116197376
-0.140274640603
-0.140425921247
-0.140595489007
-0.140788040722
-0.140973361329
-0.141131258762
-0.141251582882
-0.141338331053
-0.141410234874
-0.141480528708
-0.14154033792
-0.141583179211
-0.141611731406
-0.141634756866
-0.141653103772
-0.14166181291
-0.14166510646
-0.122339408597
-0.122340882033
-0.122346128306
-0.122351760534
-0.122357408362
-0.122367193937
-0.12238115729
-0.122396406317
-0.122414098771
-0.122434995284
-0.12246113453
-0.122494198521
-0.122538258299
-0.122588613936
-0.122643578214
-0.122703784578
-0.122772390884
-0.122852068002
-0.122942886679
-0.1230437386
-0.12315626893
-0.123282844371
-0.123425255421
-0.123585777147
-0.123766238767
-0.123967911681
-0.124189633408
-0.124433725901
-0.124699875315
-0.124988393818
-0.125297637407
-0.125628639719
-0.125981116811
-0.126347172612
-0.126726137203
-0.127122928659
-0.127543923458
-0.127990077269
-0.128460265607
-0.128953456015
-0.129469441195
-0.130008692452
-0.130571217985
-0.131155363609
-0.131757689617
-0.132373712262
-0.132998676426
-0.133627986628
-0.134257257261
-0.134882057605
-0.135497524375
-0.136098018803
-0.136676972146
-0.137226946499
-0.137739891068
-0.138208147004
-0.138626462936
-0.138993325981
-0.13931073321
-0.139583576482
-0.139819707607
-0.140029600909
-0.140221631698
-0.140395486888
-0.140565654536
-0.140744883896
-0.140937673452
-0.14111332095
-0.141256733613
-0.141363495175
-0.141444001031
-0.14151780735
-0.1415861995
-0.141637841697
-0.141672853594
-0.141696564842
-0.141716933661
-0.141728554911
-0.14173112761
-0.141732681574
-0.122313647406
-0.122316588899
-0.122322333133
-0.122330034822
-0.122335539912
-0.122345535083
-0.122358331887
-0.122373404761
-0.122391300807
-0.122410120622
-0.122436923283
-0.122470812728
-0.122512030323
-0.122558849481
-0.12260978513
-0.122665535132
-0.122730946143
-0.122807427713
-0.122893397219
-0.122989242194
-0.123097492986
-0.123220546363
-0.123359789752
-0.123517634404
-0.123695346363
-0.123893525581
-0.124112847433
-0.124351464421
-0.124616526402
-0.124904754956
-0.125211075638
-0.125535229491
-0.125882586507
-0.12624415339
-0.126619465232
-0.12701597563
-0.127437364748
-0.127884634612
-0.128357147796
-0.128853976667
-0.129374764762
-0.129919551614
-0.130487892725
-0.131078055462
-0.131686838818
-0.132309998298
-0.132942881838
-0.133580899689
-0.134219619141
-0.134854503401
-0.135480503218
-0.136091696588
-0.136681088474
-0.137240717957
-0.137762352176
-0.138238980728
-0.138666521161
-0.139044295188
-0.139374563299
-0.139662273115
-0.139915473954
-0.140143780289
-0.140354471676
-0.140553347729
-0.140743562205
-0.140937014058
-0.141125215625
-0.141288076546
-0.141415035743
-0.141509475176
-0.141586258237
-0.141658479527
-0.141718288247
-0.141760107571
-0.141786726346
-0.141804559779
-0.141815075607
-0.141816273357
-0.14180969119
-0.141805947976
-0.122285697827
-0.122289397351
-0.122294827814
-0.122300530258
-0.122307408831
-0.122319197076
-0.12233109501
-0.122345504102
-0.12236419791
-0.122382869039
-0.122406224969
-0.122440086541
-0.122479529241
-0.122522159346
-0.122569156245
-0.122622162664
-0.122683499347
-0.122755264113
-0.122836166297
-0.122927288942
-0.123030963071
-0.123149443374
-0.123284060063
-0.123437888662
-0.123614149237
-0.123807376877
-0.124023252779
-0.12426045688
-0.1245199759
-0.124803856638
-0.125107669927
-0.125430257541
-0.125766770582
-0.126121801673
-0.126495971188
-0.126892696564
-0.127314690513
-0.127763136002
-0.128237958006
-0.128738522314
-0.12926438351
-0.129815248129
-0.130390329607
-0.130987760693
-0.131604419673
-0.132236212472
-0.132878604055
-0.133527054479
-0.134177105695
-0.134824116155
-0.135462835271
-0.136087002475
-0.136689152117
-0.137260951413
-0.137794375098
-0.138283330492
-0.138724756971
-0.139117700752
-0.139463495428
-0.139767359371
-0.140038666764
-0.140287390985
-0.140521039968
-0.140745103918
-0.14095868103
-0.141170360011
-0.14136556671
-0.141509836135
-0.141618119752
-0.141699323964
-0.14176798879
-0.141829874626
-0.141878006738
-0.141909885558
-0.141927261674
-0.141933584252
-0.141927063904
-0.141911877663
-0.141893165295
-0.141881591441
-0.122255336407
-0.122259390566
-0.122265311093
-0.122269901588
-0.122276966423
-0.122287928436
-0.122299145879
-0.12231223286
-0.122329005466
-0.122350510163
-0.122372158324
-0.122403239408
-0.122440174455
-0.122479229196
-0.122521688858
-0.122572032801
-0.122630209889
-0.122696315277
-0.122771250954
-0.122857250547
-0.122956381134
-0.123070221257
-0.123199689796
-0.12334689417
-0.123519959883
-0.123711613085
-0.12391829673
-0.124152796782
-0.124407800054
-0.124688444953
-0.124987927368
-0.125304243192
-0.125635387523
-0.125983794422
-0.126355597794
-0.126752298344
-0.127174949566
-0.127624640341
-0.128101777965
-0.128606150201
-0.129137378227
-0.129694926196
-0.130277702334
-0.130883671561
-0.13150970986
-0.132151810708
-0.132805549122
-0.133466462002
-0.134130081226
-0.134791659359
-0.135445741785
-0.136085735129
-0.136703765591
-0.137291336251
-0.137840846768
-0.138347069312
-0.138807243733
-0.139217604838
-0.139578422471
-0.139899326005
-0.140193924342
-0.140469431024
-0.140728179378
-0.140975828372
-0.141213074732
-0.141438703721
-0.141638010098
-0.141793270204
-0.141879825309
-0.141939902878
-0.141986961119
-0.142029441787
-0.142067100238
-0.142091248061
-0.142098291693
-0.142085924313
-0.142055199316
-0.142015811037
-0.141980146169
-0.141958445563
-0.122221408368
-0.122225038526
-0.122230928513
-0.122235979604
-0.122244577153
-0.122252855433
-0.122262767667
-0.122274714255
-0.122287111196
-0.122308513907
-0.122330779789
-0.122359219758
-0.12239323701
-0.122429794841
-0.122468721202
-0.122514685487
-0.12256882374
-0.122629627861
-0.122698555227
-0.122778438747
-0.122872161301
-0.12298157839
-0.123107752394
-0.123247907358
-0.123411076081
-0.123601840256
-0.123804772057
-0.124031410125
-0.124280811412
-0.124550420672
-0.124847241371
-0.125159024107
-0.125484497759
-0.125828613271
-0.126198059037
-0.126594089124
-0.127017128715
-0.127468068476
-0.127947558787
-0.128455795614
-0.128992657978
-0.129557515309
-0.130148982934
-0.130764814708
-0.13140184176
-0.132056126997
-0.13272335549
-0.133399138929
-0.134079001265
-0.134758109374
-0.135430858036
-0.136090410859
-0.136728627763
-0.137336988444
-0.137908223228
-0.13843705442
-0.138920016642
-0.139346439169
-0.139719166331
-0.140061657302
-0.140394103385
-0.140708348018
-0.140989611118
-0.141256314096
-0.141509611859
-0.141744088488
-0.141948551094
-0.142121960331
-0.142207545358
-0.142241070332
-0.142240720609
-0.142252523643
-0.142287763605
-0.142310632248
-0.142307171874
-0.142270238557
-0.142205366014
-0.142129121697
-0.142066020483
-0.142028493407
-0.122183175968
-0.122185669371
-0.122189325255
-0.122195883776
-0.122205969555
-0.122212807698
-0.122221508166
-0.122232947562
-0.122242551588
-0.122259907168
-0.122281682514
-0.122307750037
-0.122338307979
-0.122372378526
-0.122409906299
-0.122451362474
-0.12249997583
-0.122554997028
-0.122617920376
-0.122691083688
-0.122777461826
-0.122880160397
-0.123004247405
-0.123142495788
-0.123294104782
-0.123476139731
-0.123676332331
-0.123892359359
-0.124138698057
-0.124403034336
-0.124687888395
-0.124991308963
-0.125311987141
-0.125654458317
-0.126022075111
-0.126416952681
-0.126840010589
-0.127292129122
-0.127774065667
-0.128286259001
-0.128828959733
-0.12940171184
-0.130002908004
-0.130630001824
-0.131279751904
-0.131948326066
-0.132631535507
-0.133325044274
-0.134024352414
-0.134724606385
-0.135420200661
-0.136104275906
-0.136768700705
-0.137404842408
-0.138004705289
-0.138560187743
-0.139070240644
-0.139509264558
-0.139887293234
-0.14025977249
-0.140663057372
-0.141035858489
-0.141324599292
-0.141602597173
-0.141869528182
-0.142116334821
-0.142324897622
-0.14248634088
-0.142592812726
-0.142596947347
-0.142517955149
-0.142481827397
-0.142547504014
-0.142585256011
-0.142573915354
-0.142504048226
-0.142386775368
-0.142246155844
-0.142136843631
-0.142070214825
-0.122140794638
-0.122142231394
-0.122143033882
-0.122149917564
-0.122158629032
-0.122165805976
-0.122173865741
-0.122184433762
-0.122193440758
-0.122207308106
-0.122226318756
-0.122249192904
-0.1222757387
-0.122305491203
-0.122341100121
-0.122379662264
-0.122423068355
-0.122472110758
-0.1225288675
-0.122595263203
-0.122673461319
-0.122766655542
-0.122883548393
-0.123022698336
-0.123168416671
-0.123335980031
-0.123532149008
-0.12374065357
-0.123973214389
-0.124231732299
-0.124509629661
-0.124805878875
-0.12512050916
-0.125460004072
-0.125825765692
-0.126219376284
-0.12664214772
-0.127095208407
-0.127579663387
-0.128096100976
-0.128644921234
-0.129226037931
-0.129837925829
-0.130477750912
-0.131142112297
-0.131827326477
-0.132529389992
-0.13324397384
-0.133966518788
-0.134692265466
-0.135415947062
-0.136131221312
-0.136830357216
-0.137503956133
-0.138140235706
-0.138720452683
-0.139273046934
-0.139724136093
-0.140083099202
-0.140490998339
-0.141059297622
-0.141619273115
-0.14183041458
-0.142112859542
-0.142402989449
-0.142679765675
-0.142900914607
-0.143015502781
-0.143100027085
-0.143157349198
-0.142869809282
-0.142648359933
-0.142818767639
-0.142907993237
-0.142905956003
-0.142797265761
-0.142600509969
-0.142348362669
-0.142170832212
-0.142049428221
-0.122094998276
-0.122096355853
-0.122097795022
-0.122101019387
-0.122106579978
-0.122113246443
-0.122120552629
-0.122129077001
-0.122138542564
-0.122149314054
-0.122164869955
-0.122184015153
-0.122206332173
-0.122231211803
-0.122261439894
-0.122296958161
-0.122336368749
-0.122380071496
-0.122430586003
-0.122490065787
-0.12256026608
-0.122643433086
-0.122749154988
-0.122884121838
-0.123029045527
-0.123183554795
-0.123370146208
-0.123574367902
-0.123792767085
-0.124039073274
-0.124307277356
-0.124596136689
-0.124907677453
-0.1252442243
-0.125607570526
-0.125999546982
-0.126421871141
-0.126875726529
-0.127362467489
-0.127883303983
-0.128438768108
-0.12902885783
-0.129652306588
-0.130306261376
-0.130987219873
-0.131691689422
-0.132415895338
-0.133155423004
-0.133905527982
-0.134661767665
-0.135419948757
-0.136175293169
-0.136921296731
-0.137646756535
-0.138328394517
-0.138912598434
-0.139582274989
-0.140092675961
-0.140290399453
-0.140664818756
-0.141554948321
-0.141491287386
-0.141447425624
-0.141540018182
-0.141657684078
-0.141795408235
-0.141937750092
-0.142071056153
-0.14209449056
-0.141918452295
-0.141822616295
-0.142413939201
-0.143450050103
-0.143701476685
-0.143656285478
-0.143421739364
-0.143038438395
-0.142417082125
-0.142132766288
-0.141898877288
-0.122045169114
-0.122046566189
-0.122049422614
-0.122048833287
-0.12205131935
-0.122056462041
-0.122062479758
-0.122069328883
-0.122079251547
-0.122086009233
-0.122097518844
-0.122112636958
-0.122130682863
-0.122151109681
-0.122175436281
-0.122205830365
-0.122240359722
-0.122278596336
-0.122322653851
-0.122374759869
-0.122436885901
-0.12251073699
-0.122603285657
-0.122727704503
-0.122872256543
-0.123018100154
-0.12318814174
-0.123388544576
-0.123601391438
-0.123830049731
-0.124085446063
-0.124365986114
-0.124672301296
-0.125005119076
-0.125365598356
-0.125755577261
-0.126176990594
-0.126631546478
-0.127120623635
-0.127645760836
-0.12820817866
-0.128808018986
-0.129444037401
-0.130113459917
-0.130812961144
-0.131539490354
-0.132289556573
-0.133058393503
-0.133840736369
-0.134632690946
-0.135432625753
-0.136239397995
-0.137049731436
-0.137848602776
-0.138584738273
-0.13905432233
-0.14009364637
-0.140077399353
-0.140015150971
-0.140055809236
-0.14034174311
-0.140658727579
-0.140629306744
-0.140453990231
-0.14018971062
-0.139896883099
-0.139626836189
-0.139438010439
-0.139305960418
-0.139175812909
-0.139125352492
-0.139302923478
-0.139971592779
-0.140761860292
-0.141438884381
-0.141788741222
-0.141844154531
-0.142117529593
-0.14213315222
-0.141546225277
-0.121990798503
-0.121991651712
-0.121993070136
-0.121991543102
-0.121991914628
-0.121995426031
-0.121999387279
-0.122003515744
-0.122012537962
-0.122016518431
-0.122024084482
-0.122035142339
-0.12204903238
-0.122065278442
-0.122083771423
-0.122107731758
-0.122136122308
-0.12216813058
-0.122205150765
-0.122249288368
-0.12230259273
-0.122367050668
-0.122447374621
-0.122557399955
-0.122695443476
-0.122838926051
-0.122990772735
-0.123174193702
-0.12338192826
-0.123602582982
-0.123844824923
-0.124114839423
-0.124413818907
-0.124741480676
-0.125098223108
-0.125485447697
-0.125905449295
-0.126360210777
-0.126851567174
-0.127381130386
-0.127950637989
-0.128560856957
-0.129210628799
-0.129896954698
-0.130616744451
-0.131368067639
-0.132148226402
-0.132951413796
-0.133770496884
-0.134602339669
-0.135451161791
-0.136323220721
-0.137223624714
-0.138148805447
-0.139085065002
-0.139168469421
-0.139357534312
-0.139620786601
-0.139581445617
-0.139442461301
-0.139358697709
-0.139325318518
-0.139010265173
-0.138462359013
-0.137749791169
-0.13697817693
-0.136236624378
-0.135603789042
-0.135089559685
-0.134650471364
-0.13429904675
-0.134291926082
-0.13493048855
-0.136081813374
-0.137479521357
-0.13881812491
-0.139823379075
-0.140242661756
-0.140284705514
-0.140174786858
-0.121932843452
-0.121933098152
-0.121933515734
-0.121930530197
-0.121929462411
-0.121930868547
-0.121932218465
-0.121932455214
-0.121937504913
-0.121940022536
-0.121944185203
-0.121951191528
-0.121961026108
-0.121973566235
-0.121985565917
-0.122002556997
-0.12202399468
-0.122049025265
-0.12207821762
-0.122113666684
-0.122157288468
-0.122211314497
-0.122279594903
-0.122373684694
-0.122498582481
-0.122640392229
-0.122780712647
-0.122943777086
-0.12313460083
-0.123346068607
-0.123578314426
-0.123839176256
-0.124129880439
-0.124451041035
-0.124803153596
-0.125187080412
-0.125604883537
-0.126059311446
-0.126552520621
-0.127086496342
-0.127663293078
-0.128284267844
-0.128948826628
-0.129653709526
-0.130395631102
-0.131174551921
-0.13198946329
-0.132832231528
-0.133691602636
-0.134564673415
-0.135466426889
-0.136413074116
-0.137414147921
-0.138539633579
-0.138672014941
-0.138846266765
-0.138987366409
-0.139097318833
-0.138968740423
-0.138651962141
-0.138216980339
-0.137663584183
-0.136908907065
-0.136002516691
-0.134983946996
-0.133927368501
-0.132890234356
-0.131905589689
-0.130965916503
-0.130076757254
-0.129307756647
-0.128837338585
-0.128935224767
-0.129719552815
-0.131170649422
-0.133128233041
-0.135137461087
-0.136551711826
-0.137822813339
-0.140301340891
-0.121872543191
-0.121871989692
-0.121870106323
-0.121866290584
-0.12186463238
-0.121863740111
-0.121862427203
-0.121859124416
-0.121859550794
-0.121858383462
-0.12185830978
-0.12186059071
-0.121865552637
-0.12187406737
-0.121879505662
-0.121889282662
-0.121903256276
-0.121920917109
-0.121941603984
-0.121967648062
-0.122000731223
-0.122043211465
-0.122098714673
-0.122176311171
-0.122283839953
-0.122416829007
-0.122554281027
-0.122700972334
-0.122871790307
-0.123066637563
-0.123286218532
-0.123536349971
-0.123817302951
-0.12413065766
-0.124477224148
-0.124857075086
-0.125272336029
-0.125725826679
-0.126220510118
-0.126758583136
-0.127342541383
-0.127974744692
-0.128655242725
-0.129380621483
-0.130145779349
-0.130952447367
-0.131806127716
-0.132697411813
-0.133602108225
-0.1345108753
-0.135462278244
-0.136484372297
-0.137609150842
-0.137753036918
-0.138033159865
-0.138446399737
-0.138577641272
-0.138399968432
-0.137947036192
-0.137274432361
-0.136409031114
-0.135353769829
-0.134125307345
-0.132787084833
-0.131373529075
-0.129932583289
-0.128502962271
-0.127106132635
-0.12574423007
-0.124456880776
-0.123368525843
-0.122591338797
-0.122305021414
-0.12269488461
-0.123909750083
-0.125992355957
-0.128482345627
-0.130434053433
-0.133283628589
-0.143709039943
-0.121811173204
-0.1218097839
-0.121805420089
-0.121800998532
-0.12179829579
-0.121794766828
-0.121790371561
-0.121784174385
-0.121779105304
-0.121772759273
-0.121767255407
-0.121763789697
-0.121762488925
-0.121764212111
-0.121764084272
-0.121766781126
-0.121772780155
-0.121782248001
-0.121794249027
-0.121810510926
-0.121832408251
-0.121862162695
-0.121903977641
-0.121964410168
-0.122051574557
-0.122167472857
-0.122299010569
-0.12243448889
-0.122587593103
-0.122765326421
-0.122968596169
-0.123204591726
-0.123474382005
-0.123777663886
-0.124117147634
-0.124491996912
-0.124903685254
-0.125355723169
-0.125851489171
-0.12639373332
-0.126984885102
-0.127628041885
-0.128324479794
-0.1290716722
-0.129864687426
-0.130705751282
-0.13160164723
-0.132538789455
-0.133491757133
-0.134422673917
-0.135410636568
-0.136504843124
-0.136607513014
-0.136882807435
-0.137582628645
-0.137939560417
-0.137790172601
-0.13723271795
-0.136342184692
-0.135196281277
-0.133832205502
-0.132273289499
-0.130557498158
-0.128736283738
-0.126839758018
-0.124900917486
-0.122945856729
-0.120987502208
-0.119027844385
-0.11710684516
-0.115353439364
-0.113927987306
-0.112921080097
-0.112477819471
-0.112797543206
-0.114117626211
-0.116191535087
-0.117528230316
-0.11755305715
-0.12165281829
-0.121749826536
-0.121747767867
-0.121741825788
-0.121736598649
-0.12173159423
-0.121724720244
-0.121716117904
-0.12170687273
-0.121695844952
-0.12168347719
-0.121671739493
-0.12166172429
-0.121653413744
-0.121646475978
-0.12163988597
-0.121635159543
-0.121632587962
-0.121632529146
-0.121635054918
-0.121641165743
-0.121651507151
-0.121667553785
-0.12169457186
-0.121737241013
-0.121802889508
-0.121896513179
-0.122011643968
-0.122136552917
-0.122274093865
-0.122434661088
-0.122622322164
-0.122840412109
-0.123095335687
-0.123387073457
-0.123718548268
-0.124087810487
-0.124495054103
-0.124944596421
-0.125440522551
-0.125986396132
-0.126584997082
-0.127239499101
-0.127953228488
-0.128725573402
-0.12955166708
-0.130429456221
-0.131367386016
-0.13236157733
-0.133391925552
-0.1342933567
-0.135288127349
-0.135406728043
-0.135621756849
-0.136461489704
-0.137138342415
-0.137109524089
-0.13650315556
-0.13545652026
-0.134050986931
-0.13236290858
-0.130439824909
-0.128318315654
-0.12603414112
-0.123618251793
-0.121088281319
-0.118462574034
-0.115756169299
-0.112977251197
-0.110129643143
-0.107245608617
-0.104431354817
-0.101843261125
-0.0994870058027
-0.0973249639086
-0.0954777677638
-0.0943397810442
-0.0937735833014
-0.0899594311654
-0.0748004637729
-0.0560824681836
-0.121688600197
-0.121685951574
-0.121678969347
-0.121672696314
-0.121664883889
-0.121654151702
-0.121640906166
-0.12162771086
-0.121609811688
-0.121590916699
-0.121572379486
-0.121555192294
-0.121539412159
-0.121523877213
-0.121508599372
-0.121495334892
-0.121483429388
-0.121472746161
-0.121464021006
-0.121458854375
-0.121456944784
-0.121458398841
-0.121469048522
-0.121493237265
-0.121536895123
-0.121605967967
-0.121700085806
-0.121810931572
-0.121937607611
-0.122077760397
-0.122245790828
-0.122445526936
-0.122682311563
-0.122956141013
-0.123274562662
-0.123638088251
-0.124041074355
-0.124487844609
-0.124982745925
-0.125530811
-0.126136533674
-0.12680362571
-0.127536831394
-0.12833561879
-0.129190917724
-0.130101865582
-0.131088466262
-0.132170436029
-0.133382211645
-0.134105256019
-0.134298056466
-0.134448289705
-0.135255301039
-0.136155273679
-0.136373906799
-0.135794543317
-0.134621219244
-0.132990712986
-0.130991811692
-0.12869355585
-0.126142769077
-0.123375813795
-0.120421424604
-0.117299128229
-0.114021250284
-0.110601159587
-0.107050820653
-0.103376774
-0.0995784298056
-0.0956614862736
-0.091661297338
-0.0876306788643
-0.0835040793219
-0.0789822338475
-0.0739767338247
-0.0688350306587
-0.0629248884744
-0.0493578805249
-0.0122820931307
0.042116060563
-0.121627179831
-0.121623886725
-0.121616148572
-0.1216085622
-0.121597665787
-0.121582865802
-0.121565313993
-0.121546768005
-0.121521519054
-0.121495787312
-0.121469741317
-0.121444573749
-0.121420541905
-0.121395759387
-0.121370517601
-0.121347494784
-0.12132558818
-0.121302948354
-0.121281304354
-0.121263205533
-0.121247556223
-0.121233428495
-0.121225728908
-0.121230451139
-0.121251689596
-0.121294709507
-0.121363945097
-0.121453414059
-0.121566082562
-0.121691126972
-0.121836965852
-0.122012258217
-0.122228938266
-0.122487508121
-0.122787010101
-0.123137231821
-0.123534330757
-0.123977664131
-0.12447188897
-0.125021466412
-0.125632827016
-0.126313494476
-0.12706817553
-0.127891493763
-0.128768478154
-0.129703164388
-0.130746106706
-0.131997312904
-0.134201542724
-0.133486980579
-0.13355110054
-0.134107144144
-0.13509722156
-0.135527146374
-0.13510118066
-0.133873922408
-0.132053415458
-0.129770154772
-0.127115542027
-0.124154806148
-0.120934611596
-0.117492093438
-0.113857585606
-0.110054785388
-0.106102667859
-0.102016503055
-0.0978022331103
-0.0934498979477
-0.0889289793396
-0.0841881714665
-0.0791529363685
-0.0737145279745
-0.0676984921674
-0.0607044294586
-0.0524681021595
-0.0431095727006
-0.0308411450045
-0.00609332433986
0.048003192107
0.116893412536
-0.121564783796
-0.121560832123
-0.121552293464
-0.121543012316
-0.121528501445
-0.121509876826
-0.12148798346
-0.121462927027
-0.121430773228
-0.121398402271
-0.121364183875
-0.121330189491
-0.121296961247
-0.121261929758
-0.12122551128
-0.121191207708
-0.121158344679
-0.121122188241
-0.121086422731
-0.121053747244
-0.121021872323
-0.120991480486
-0.120963981666
-0.120947201563
-0.120945482205
-0.12096185711
-0.121003252885
-0.12106595253
-0.121154542921
-0.121264850929
-0.121393122317
-0.121543571429
-0.121730405341
-0.121966778879
-0.122251155407
-0.122584656841
-0.122970592648
-0.123407266056
-0.123898561741
-0.12444967624
-0.125067445486
-0.125761607896
-0.126536523924
-0.127380098041
-0.128273613629
-0.129210501475
-0.13019514947
-0.131148412903
-0.131952037467
-0.132470334737
-0.132570126029
-0.133940788047
-0.134578936568
-0.134363453019
-0.133208571085
-0.131269357583
-0.128750265632
-0.125778111971
-0.122446250779
-0.118822902523
-0.114961716229
-0.110907608257
-0.106698416372
-0.102363239055
-0.0979199676151
-0.0933703022575
-0.0886922214599
-0.0838349476415
-0.0787187930471
-0.0732333980815