/*--------------------------------*- C++ -*----------------------------------*\
| =========                 |                                                 |
| \\      /  F ield         | OpenFOAM: The Open Source CFD Toolbox           |
|  \\    /   O peration     | Version:  v1806                                 |
|   \\  /    A nd           | Web:      www.OpenFOAM.com                      |
|    \\/     M anipulation  |                                                 |
\*---------------------------------------------------------------------------*/
FoamFile
{
    version     2.0;
    format      ascii;
    class       surfaceScalarField;
    location    "375";
    object      phia;
}
// * * * * * * * * * * * * * * * * * * * * * * * * * * * * * * * * * * * * * //

dimensions      [0 3 -1 0 0 0 0];
oriented        oriented;


internalField   nonuniform List<scalar> 
12640
(
1.10304779917e-07
-1.10990075704e-07
2.12488823229e-07
-1.02742783805e-07
3.03811181657e-07
-9.1747024561e-08
3.8141744078e-07
-7.79593219837e-08
4.3764079505e-07
-5.65480922432e-08
4.70559765208e-07
-3.32315230152e-08
4.91998933697e-07
-2.17224694641e-08
5.29949986702e-07
-3.82068521999e-08
5.86470072746e-07
-5.6756630565e-08
6.40083735321e-07
-5.38221449329e-08
6.89768132266e-07
-4.98587660067e-08
7.44221320127e-07
-5.4610843803e-08
7.94378390625e-07
-5.03014255744e-08
8.36095581747e-07
-4.18502051359e-08
8.74389023303e-07
-3.84151796721e-08
9.19637540333e-07
-4.53664145439e-08
9.67201398717e-07
-4.7674087035e-08
1.00746447648e-06
-4.036804047e-08
1.03839955545e-06
-3.10269997081e-08
1.06599954776e-06
-2.76842714797e-08
1.10519642279e-06
-3.92757879183e-08
1.15846496416e-06
-5.33456987383e-08
1.2162802009e-06
-5.78864945931e-08
1.27354603066e-06
-5.73331057856e-08
1.32743633987e-06
-5.39506368241e-08
1.37760747609e-06
-5.02288312618e-08
1.42677512586e-06
-4.92196613039e-08
1.4736238686e-06
-4.68990348042e-08
1.51655021553e-06
-4.2969708043e-08
1.55649814772e-06
-3.99890742401e-08
1.59704695411e-06
-4.05823635122e-08
1.63689077225e-06
-3.98757061048e-08
1.67336583747e-06
-3.65033771112e-08
1.71182987338e-06
-3.8488751804e-08
1.75156091924e-06
-3.97447608582e-08
1.79167353839e-06
-4.01254010999e-08
1.83540806865e-06
-4.3736721702e-08
1.8788651333e-06
-4.34493238157e-08
1.9196379657e-06
-4.07531167549e-08
1.96204448882e-06
-4.23823432913e-08
2.01627327907e-06
-5.41949555835e-08
2.07114067266e-06
-5.48297945446e-08
2.10825750255e-06
-3.70690981109e-08
2.1340644753e-06
-2.57485427485e-08
2.15538645062e-06
-2.12479419999e-08
2.17139156079e-06
-1.59199298058e-08
2.18192758947e-06
-1.04329225898e-08
2.1850723441e-06
-3.02882120014e-09
2.18173912001e-06
3.46781458345e-09
2.18161954124e-06
2.65505515579e-10
2.19570001301e-06
-1.39072606268e-08
2.20851109953e-06
-1.26254088866e-08
2.18294197145e-06
2.57776226335e-08
2.13469303102e-06
4.84909677498e-08
2.06709169869e-06
6.78705219939e-08
1.96431024808e-06
1.03071097632e-07
1.86995270688e-06
9.47106915398e-08
1.80416891552e-06
6.62175859522e-08
1.7240998989e-06
8.05869772503e-08
1.6302633449e-06
9.44535441552e-08
1.56787235705e-06
6.3131838719e-08
1.48407365749e-06
8.46484680131e-08
1.28172244916e-06
2.03292142005e-07
1.08207826678e-06
2.00279530394e-07
9.44838635943e-07
1.37617015941e-07
8.53068786978e-07
9.20288352726e-08
7.72181323938e-07
8.11233850134e-08
6.9244159323e-07
8.00024880043e-08
6.10451288605e-07
8.22996760263e-08
5.24040679497e-07
8.67702033363e-08
4.38396471117e-07
8.60355482965e-08
3.59597588103e-07
7.91943628975e-08
2.89575558802e-07
7.04194162214e-08
2.22206032415e-07
6.77716292007e-08
1.67607199905e-07
5.49848025139e-08
1.22884082327e-07
4.50851495718e-08
9.24777560475e-08
3.08023439459e-08
6.20849867296e-08
3.07705197206e-08
3.71113239412e-08
2.55964025236e-08
3.75450244779e-08
5.66656458795e-08
-1.6799326466e-07
1.30658146398e-07
-1.77128173213e-07
2.0321215e-07
-1.64618116436e-07
2.7997488697e-07
-1.54991759184e-07
3.8111162345e-07
-1.57971931194e-07
4.61365998238e-07
-1.13781160788e-07
5.08829423357e-07
-6.9481321136e-08
5.53229614925e-07
-8.28800671101e-08
6.01277724096e-07
-1.05050012458e-07
6.54909299334e-07
-1.0766272352e-07
7.07570133928e-07
-1.02703726198e-07
7.51555548662e-07
-9.87546232151e-08
7.92416458446e-07
-9.13104142413e-08
8.33335259443e-07
-8.29054267687e-08
8.74481901712e-07
-7.96973497221e-08
9.21985410241e-07
-9.29922434598e-08
9.64734891442e-07
-9.05370076667e-08
9.855190778e-07
-6.1244024656e-08
1.00334819308e-06
-4.89414340893e-08
1.03611549368e-06
-6.05280394904e-08
1.08622196786e-06
-8.94635460481e-08
1.15296014125e-06
-1.20157656926e-07
1.21934826119e-06
-1.24351000569e-07
1.27279470981e-06
-1.10843647963e-07
1.32334181547e-06
-1.04563231462e-07
1.37780832894e-06
-1.04749420072e-07
1.42772716078e-06
-9.91963191836e-08
1.47227543952e-06
-9.14928688116e-08
1.51446191865e-06
-8.52054713816e-08
1.55487656718e-06
-8.04399273331e-08
1.59245976352e-06
-7.8206187067e-08
1.6279888022e-06
-7.54352612283e-08
1.66013540925e-06
-6.86824961787e-08
1.69569042637e-06
-7.40626665138e-08
1.73998928928e-06
-8.40680004032e-08
1.78060419891e-06
-8.07432522408e-08
1.82195832402e-06
-8.50945150771e-08
1.87237679458e-06
-9.3854084685e-08
1.9274771019e-06
-9.58417896926e-08
1.97441568755e-06
-8.92908279867e-08
1.98105940236e-06
-6.08152723238e-08
1.96577012282e-06
-3.94999937828e-08
1.97622547944e-06
-4.74845260266e-08
2.005733803e-06
-5.5192298655e-08
2.03944871349e-06
-5.48952239704e-08
2.0751034165e-06
-5.1481102113e-08
2.1073506318e-06
-4.25829678499e-08
2.13570222103e-06
-3.12565742945e-08
2.15706507529e-06
-1.77656088766e-08
2.15578087422e-06
1.70623020738e-09
2.11923652397e-06
2.27967162899e-08
2.07779459894e-06
2.9002278447e-08
2.09747395412e-06
6.30544643967e-09
2.1148778733e-06
3.13403506878e-08
2.08152370337e-06
1.01500517806e-07
2.05960335725e-06
1.25322556881e-07
2.03660514841e-06
1.18103534522e-07
1.98445356648e-06
1.18848840143e-07
1.92930382701e-06
1.36312158942e-07
1.85612572238e-06
1.68325391504e-07
1.67444309565e-06
2.45564029027e-07
1.48057210696e-06
2.7934046486e-07
1.28514844532e-06
3.9960632708e-07
1.08955790447e-06
3.96473385697e-07
9.30840705562e-07
2.96688601744e-07
8.03873598399e-07
2.19245425876e-07
7.23221457612e-07
1.62008185374e-07
6.60707528696e-07
1.42776329064e-07
5.89526216438e-07
1.53789455133e-07
5.06252703652e-07
1.70396227403e-07
4.17948117808e-07
1.74717980696e-07
3.35089407709e-07
1.6243152807e-07
2.67952121976e-07
1.37944340752e-07
2.17816241886e-07
1.18320634699e-07
1.73143932489e-07
1.00076278553e-07
1.34993150584e-07
8.36686289209e-08
9.89413877408e-08
6.72982347763e-08
7.02307949858e-08
6.002292647e-08
3.57675140243e-08
6.0662764702e-08
7.38242611221e-08
7.48651058906e-08
-2.4321637787e-07
1.08724541905e-07
-2.11314402946e-07
2.01250665107e-07
-2.57466180824e-07
3.11767350166e-07
-2.65823783351e-07
4.11039296861e-07
-2.57538464874e-07
4.58870814198e-07
-1.61851065694e-07
4.8280317752e-07
-9.36516561332e-08
5.31613551419e-07
-1.31950772019e-07
5.89218016195e-07
-1.62894413789e-07
6.46477214763e-07
-1.65129859799e-07
7.00444681852e-07
-1.56850663722e-07
7.46572344051e-07
-1.450461644e-07
7.87477986023e-07
-1.32370884266e-07
8.2896544087e-07
-1.24540860295e-07
8.6051590564e-07
-1.11383556871e-07
8.46453941849e-07
-7.90470855162e-08
8.0814886037e-07
-5.23191324648e-08
8.09684676378e-07
-6.28557717861e-08
8.62329934285e-07
-1.01659263078e-07
9.67206267406e-07
-1.65482305908e-07
1.0811394545e-06
-2.03478527312e-07
1.15452181602e-06
-1.93621912891e-07
1.20807461564e-06
-1.77976769453e-07
1.26818702118e-06
-1.71025939737e-07
1.32635570619e-06
-1.627942458e-07
1.37547593371e-06
-1.53929633703e-07
1.4207605837e-06
-1.44533651074e-07
1.46472533327e-06
-1.35509082391e-07
1.50605654241e-06
-1.26580996982e-07
1.5461952971e-06
-1.2062248266e-07
1.58099258536e-06
-1.13041867712e-07
1.61372742151e-06
-1.08204322214e-07
1.64953253175e-06
-1.04519303366e-07
1.67272217043e-06
-9.7279943844e-08
1.70452015954e-06
-1.15877925423e-07
1.76116649122e-06
-1.37398452154e-07
1.80621239563e-06
-1.30138861992e-07
1.849369849e-06
-1.37004204304e-07
1.91333697936e-06
-1.59791771943e-07
1.97586735377e-06
-1.51803791833e-07
2.02997455093e-06
-1.14894675848e-07
2.07590410317e-06
-8.53955393606e-08
2.10823237656e-06
-7.97625633391e-08
2.1334691338e-06
-8.03702041107e-08
2.15537155163e-06
-7.6721184777e-08
2.17280007272e-06
-6.88231183667e-08
2.18685836367e-06
-5.65360785905e-08
2.19692029672e-06
-4.12024413348e-08
2.20215659882e-06
-2.28672281856e-08
2.20491715752e-06
-9.08715928597e-10
2.20723260061e-06
2.0648540795e-08
2.20113810247e-06
3.52843844759e-08
2.15906157834e-06
4.85974940418e-08
2.10435745147e-06
8.62862516439e-08
2.08200721938e-06
1.24133655168e-07
2.06531869469e-06
1.4234736951e-07
2.02352239029e-06
1.60304350764e-07
1.96003816878e-06
1.8280964753e-07
1.88235793048e-06
2.14551982095e-07
1.78494866493e-06
2.66367892289e-07
1.6841658759e-06
3.47066374466e-07
1.50970156706e-06
4.54600426563e-07
1.25770798083e-06
6.52355781827e-07
9.9854574611e-07
6.56155190767e-07
8.38228886798e-07
4.57338155654e-07
7.65661701988e-07
2.92064154236e-07
6.93443903549e-07
2.34460371803e-07
6.14159105032e-07
2.22311513468e-07
5.33296515201e-07
2.34937508111e-07
4.48643192941e-07
2.55376322984e-07
3.69030874334e-07
2.54684835346e-07
3.05167661039e-07
2.26675357317e-07
2.51989998332e-07
1.91532328541e-07
2.05242020898e-07
1.65488668916e-07
1.58252730754e-07
1.47491963817e-07
1.14762813114e-07
1.2759484651e-07
8.06188839191e-08
1.01903926747e-07
5.84635067572e-08
8.260674817e-08
2.40758415517e-08
9.57676357846e-08
9.80906060005e-08
5.17000219479e-08
-2.95184482429e-07
6.54582060867e-08
-2.25292020362e-07
1.75129676071e-07
-3.67449036185e-07
2.6207618631e-07
-3.53076362989e-07
2.58534124769e-07
-2.54213539595e-07
2.16690778349e-07
-1.20111332901e-07
3.04050890534e-07
-1.81161415594e-07
4.54006733411e-07
-2.82137852518e-07
5.57076949155e-07
-2.661945294e-07
6.27563874938e-07
-2.35819570949e-07
6.88932288406e-07
-2.18401854101e-07
7.40568160534e-07
-1.96852837453e-07
7.74916283058e-07
-1.66877219924e-07
7.66611344889e-07
-1.16375429441e-07
7.26816956805e-07
-7.17034754176e-08
7.12234995304e-07
-6.45560513596e-08
7.50736566582e-07
-9.09010281884e-08
8.40261294737e-07
-1.52459725658e-07
9.59235591335e-07
-2.20719544075e-07
1.0472809338e-06
-2.53617023178e-07
1.09823217153e-06
-2.5451698952e-07
1.15346200447e-06
-2.48932788329e-07
1.21337805737e-06
-2.37969383628e-07
1.26727197829e-06
-2.24989215478e-07
1.31700950762e-06
-2.12597177012e-07
1.36357856479e-06
-2.00557062581e-07
1.40954647907e-06
-1.90557659773e-07
1.45292173595e-06
-1.7893346813e-07
1.49503619311e-06
-1.68743356293e-07
1.53158666557e-06
-1.57216795111e-07
1.56885584236e-06
-1.50351945467e-07
1.59669851166e-06
-1.36085411173e-07
1.61597412105e-06
-1.23824689832e-07
1.66313973117e-06
-1.44466446485e-07
1.70770242685e-06
-1.60456701672e-07
1.7510681127e-06
-1.80769245545e-07
1.82783309957e-06
-2.06903299891e-07
1.90151705837e-06
-2.10681783253e-07
1.94702315029e-06
-2.05289929053e-07
1.98359766492e-06
-1.88361089707e-07
2.02626146235e-06
-1.57533598641e-07
2.07026295517e-06
-1.29359873698e-07
2.1057661198e-06
-1.15220674765e-07
2.13330196804e-06
-1.07847565335e-07
2.15576059024e-06
-9.91110209073e-08
2.17386211494e-06
-8.68402354364e-08
2.18818504073e-06
-7.07625250101e-08
2.19844874944e-06
-5.13528127092e-08
2.20434731376e-06
-2.86396380936e-08
2.20634308732e-06
-2.76055116748e-09
2.202974942e-06
2.41764029999e-08
2.18803752091e-06
5.04024461114e-08
2.15665026868e-06
8.01910121372e-08
2.12365430546e-06
1.19521499919e-07
2.09161624778e-06
1.56453205045e-07
2.04815380065e-06
1.86142642366e-07
1.98915023416e-06
2.19701430897e-07
1.91038911866e-06
2.62030374962e-07
1.80740247671e-06
3.18059795588e-07
1.67809005934e-06
3.96260819433e-07
1.52377947258e-06
5.01991714538e-07
1.33904515634e-06
6.3997943047e-07
1.18610755157e-06
8.05901148368e-07
1.00861854032e-06
8.34133675263e-07
8.36975317188e-07
6.29334266235e-07
7.15132484857e-07
4.14162323998e-07
6.28108661472e-07
3.21711307702e-07
5.54382546462e-07
2.96276168707e-07
4.85083206129e-07
3.04507580547e-07
4.13307246622e-07
3.27465963288e-07
3.38452861862e-07
3.29900940419e-07
2.69518922174e-07
2.96003638206e-07
2.10607769086e-07
2.50824692426e-07
1.59380931514e-07
2.17089096928e-07
1.14433196324e-07
1.92821732279e-07
7.28092488849e-08
1.69631542072e-07
4.27196909183e-08
1.32347602129e-07
2.72622263685e-08
9.84431635745e-08
1.3434453793e-08
1.09845500138e-07
1.11790768468e-07
6.33624342547e-09
-3.01695849154e-07
5.88861022102e-08
-2.78021563416e-07
1.47473594492e-07
-4.56305859449e-07
2.02825114673e-07
-4.08670558102e-07
1.80178677588e-07
-2.31712042337e-07
2.25918365608e-07
-1.65959772242e-07
3.48388620168e-07
-3.03803912884e-07
4.44552727451e-07
-3.78519172847e-07
5.21963226529e-07
-3.43816011113e-07
5.95549359436e-07
-3.09604203021e-07
6.64739280766e-07
-2.87779411747e-07
6.95084467578e-07
-2.27358510406e-07
6.71274585646e-07
-1.43199725556e-07
6.49288780327e-07
-9.44970523774e-08
6.75875080659e-07
-9.83839500811e-08
7.45162177776e-07
-1.33934577652e-07
8.46740634106e-07
-1.92572861587e-07
9.44325807858e-07
-2.50140865457e-07
1.00043411843e-06
-2.76922639588e-07
1.0377190285e-06
-2.90993661183e-07
1.09037451654e-06
-3.07260750861e-07
1.14898803358e-06
-3.07629910884e-07
1.20458837614e-06
-2.93646803542e-07
1.25553917022e-06
-2.76011973315e-07
1.30339124917e-06
-2.6051444461e-07
1.35093105e-06
-2.48158717476e-07
1.39360311408e-06
-2.33283028572e-07
1.43743363093e-06
-2.22816231947e-07
1.47491702246e-06
-2.06276408441e-07
1.51219037565e-06
-1.94537546409e-07
1.5373760817e-06
-1.75579808503e-07
1.57183264304e-06
-1.70576093916e-07
1.62617528292e-06
-1.78194571938e-07
1.66226782554e-06
-1.80578077455e-07
1.71635370266e-06
-2.14553480168e-07
1.79180185618e-06
-2.56224639859e-07
1.85283767412e-06
-2.67942768148e-07
1.90366388478e-06
-2.61509153267e-07
1.94594399589e-06
-2.47564300129e-07
1.98454963799e-06
-2.2695390441e-07
2.02604779354e-06
-1.99008597154e-07
2.0681800451e-06
-1.71460037165e-07
2.10457687787e-06
-1.51574145491e-07
2.1338273739e-06
-1.37044963731e-07
2.15743923988e-06
-1.22657175682e-07
2.17643459938e-06
-1.05758222827e-07
2.19125235218e-06
-8.54883691443e-08
2.20169200229e-06
-6.16871893567e-08
2.20728343886e-06
-3.41098653282e-08
2.20738754386e-06
-2.72915683967e-09
2.20001900358e-06
3.16975978004e-08
2.181752244e-06
6.88433046624e-08
2.15202063334e-06
1.10119578683e-07
2.11648080221e-06
1.55294878544e-07
2.07414453949e-06
1.99061071285e-07
2.01762053918e-06
2.42991603229e-07
1.94136272911e-06
2.96338796999e-07
1.83901602519e-06
3.64811428493e-07
1.70669151276e-06
4.50868456128e-07
1.54852761089e-06
5.54934957383e-07
1.37703596195e-06
6.74018969203e-07
1.21831457726e-06
7.99231557959e-07
1.11972286643e-06
9.04988145624e-07
9.74846156291e-07
9.79480192758e-07
8.39957497778e-07
7.64585087593e-07
7.12239869627e-07
5.42148604653e-07
5.95896700157e-07
4.38289593969e-07
5.01416784585e-07
3.90987426437e-07
4.24897453312e-07
3.81280172586e-07
3.52085756635e-07
4.00581581783e-07
2.76705547708e-07
4.05638520782e-07
2.12850423928e-07
3.60208070896e-07
1.60898846232e-07
3.03111976796e-07
1.11951487042e-07
2.66366390426e-07
6.79712214049e-08
2.37166613857e-07
3.51030583046e-08
2.02845396447e-07
2.13149020208e-08
1.46440908597e-07
9.79948521838e-09
1.10155053549e-07
1.70936546044e-09
1.18371551296e-07
1.13570310281e-07
1.94783273875e-09
-3.03753521696e-07
7.63166211265e-08
-3.52549563237e-07
1.2113803348e-07
-5.01353078252e-07
1.44333102438e-07
-4.32052113865e-07
1.35419378208e-07
-2.2289898535e-07
2.53178389633e-07
-2.83853308634e-07
3.7661616235e-07
-4.2743677456e-07
4.31575782962e-07
-4.33676899558e-07
4.92662038112e-07
-4.05101486932e-07
5.49874599294e-07
-3.67011307778e-07
5.73908998968e-07
-3.11987002935e-07
5.3750291082e-07
-1.91074349209e-07
5.31024713849e-07
-1.36817910231e-07
5.76932797218e-07
-1.40494135083e-07
6.58197971299e-07
-1.79740584056e-07
7.73829563452e-07
-2.49665783584e-07
8.81074589213e-07
-2.99922767834e-07
9.34338858174e-07
-3.03507047176e-07
9.68248796213e-07
-3.10929180764e-07
1.02558259746e-06
-3.48422198462e-07
1.08541607078e-06
-3.67185255821e-07
1.13792092112e-06
-3.60219835785e-07
1.18925003707e-06
-3.4505467147e-07
1.24128014973e-06
-3.28113684259e-07
1.28996897808e-06
-3.09270834809e-07
1.32603709742e-06
-2.84286523966e-07
1.37061477737e-06
-2.77918206379e-07
1.40874730136e-06
-2.61002125741e-07
1.44747384784e-06
-2.45052622356e-07
1.46732118666e-06
-2.14430651255e-07
1.49546587348e-06
-2.03765167257e-07
1.53448919326e-06
-2.09631173723e-07
1.57430338262e-06
-2.1803099408e-07
1.65692622177e-06
-2.63217274704e-07
1.74319776505e-06
-3.00837809113e-07
1.80686759579e-06
-3.19905910978e-07
1.85733232379e-06
-3.18417065069e-07
1.90225662881e-06
-3.06438816601e-07
1.94397749208e-06
-2.89284828921e-07
1.98443421525e-06
-2.67401405243e-07
2.02589436121e-06
-2.40449904536e-07
2.06698918361e-06
-2.1252572859e-07
2.10377720063e-06
-1.88323808743e-07
2.13446290421e-06
-1.67682053331e-07
2.15950350468e-06
-1.47638528622e-07
2.17963431918e-06
-1.25817581308e-07
2.19514486247e-06
-1.00914859215e-07
2.20567984967e-06
-7.21240738422e-08
2.21045137006e-06
-3.87692162257e-08
2.20833464037e-06
-4.84303061567e-10
2.19757533908e-06
4.26029787527e-08
2.17632680356e-06
9.0255600452e-08
2.14450668489e-06
1.4213592069e-07
2.10322395967e-06
1.96797436255e-07
2.0493406745e-06
2.53211160524e-07
1.97639970163e-06
3.16237828944e-07
1.87900449828e-06
3.94090446147e-07
1.75373458507e-06
4.90482037479e-07
1.60183896431e-06
6.03191141077e-07
1.43365322925e-06
7.23577092891e-07
1.26615258513e-06
8.41978472033e-07
1.11815903263e-06
9.47668318138e-07
1.02482410293e-06
9.98763508601e-07
9.09516459153e-07
1.09521680072e-06
7.62382239936e-07
9.12048740743e-07
6.54921257906e-07
6.49858821034e-07
5.44445728775e-07
5.48986051534e-07
4.43185429462e-07
4.92470179497e-07
3.59181861281e-07
4.65522659793e-07
2.81498987285e-07
4.78543577744e-07
2.1193724948e-07
4.7549087129e-07
1.60883661126e-07
4.11550518997e-07
1.09063344987e-07
3.55199879417e-07
5.99576277209e-08
3.15773318279e-07
2.22605326025e-08
2.7517075121e-07
5.94517123522e-09
2.19473496779e-07
-2.39814734059e-09
1.5501373743e-07
-8.2939397903e-09
1.16364855223e-07
-5.89135114553e-09
1.16086834653e-07
1.07865126146e-07
2.73710518539e-08
-3.31239135785e-07
1.16693073437e-07
-4.4203048865e-07
1.53729064805e-07
-5.38593265104e-07
1.23854357997e-07
-4.02337556738e-07
1.64409297803e-07
-2.63564964603e-07
3.00797257777e-07
-4.2040681491e-07
3.68198878952e-07
-4.95025928284e-07
4.13150308093e-07
-4.78818442889e-07
4.50906792797e-07
-4.43042029901e-07
5.06985396091e-07
-4.2326889171e-07
4.89443136773e-07
-2.94586430611e-07
4.71898941841e-07
-1.73627522291e-07
5.14375265438e-07
-1.79383643842e-07
5.78512515672e-07
-2.04718214695e-07
6.85871815705e-07
-2.87200448094e-07
7.98852483949e-07
-3.62760611719e-07
8.51781928938e-07
-3.5296112311e-07
8.8261029086e-07
-3.34434889723e-07
9.47759212997e-07
-3.7617710147e-07
1.01555433606e-06
-4.16315666299e-07
1.07070527252e-06
-4.22429036918e-07
1.12276588926e-06
-4.12366891335e-07
1.17462142572e-06
-3.96988426221e-07
1.21938108781e-06
-3.7294717479e-07
1.25666396778e-06
-3.46621229002e-07
1.29576372428e-06
-3.23447376227e-07
1.32860019794e-06
-3.10811667433e-07
1.36888813992e-06
-3.01341637612e-07
1.39596552632e-06
-2.72179327672e-07
1.41676050239e-06
-2.35269717233e-07
1.46173202647e-06
-2.48773822951e-07
1.51402792248e-06
-2.61956831571e-07
1.58712856076e-06
-2.91153171475e-07
1.66813270337e-06
-3.44239401599e-07
1.75036157582e-06
-3.83085060302e-07
1.8085571738e-06
-3.7811892922e-07
1.85521111064e-06
-3.6508524403e-07
1.89902922391e-06
-3.50266828964e-07
1.94185200783e-06
-3.32110804973e-07
1.98389049531e-06
-3.09435210763e-07
2.02576394713e-06
-2.82309502409e-07
2.06654954067e-06
-2.53288461529e-07
2.10373095378e-06
-2.25472876353e-07
2.13567243931e-06
-1.99581429459e-07
2.16222591415e-06
-1.74139270039e-07
2.18369228012e-06
-1.47219671637e-07
2.20002763979e-06
-1.17173472096e-07
2.21060148928e-06
-8.26081797622e-08
2.21437168027e-06
-4.24343462847e-08
2.21004884278e-06
3.95948759183e-09
2.19613213416e-06
5.66569166497e-08
2.17127762256e-06
1.15275856731e-07
2.13465339148e-06
1.78935862428e-07
2.08476781526e-06
2.46904359919e-07
2.01731652227e-06
3.20901914488e-07
1.92690154707e-06
4.06944202464e-07
1.81055157344e-06
5.10764237473e-07
1.67000125062e-06
6.3138998208e-07
1.51367329874e-06
7.59917434029e-07
1.35569219439e-06
8.81962499855e-07
1.21769757202e-06
9.80379739997e-07
1.11767937744e-06
1.04808436185e-06
1.00594288196e-06
1.11088745309e-06
9.05896804432e-07
1.19562275396e-06
7.08354371838e-07
1.10988317221e-06
5.85477385678e-07
7.72950146361e-07
4.89456135544e-07
6.4520908345e-07
3.89459521087e-07
5.92661643596e-07
2.94969866782e-07
5.60211643275e-07
2.15121841346e-07
5.58590799304e-07
1.60172229794e-07
5.30660262956e-07
1.09131769703e-07
4.62778241765e-07
5.15154434407e-08
4.13050436661e-07
4.60211724374e-09
3.62931336437e-07
-2.20878694776e-08
3.02146374112e-07
-2.62888715448e-08
2.23900758718e-07
-3.08598342404e-08
1.59858503653e-07
-2.9896774412e-08
1.15545834924e-07
-1.58678808552e-08
1.02410495134e-07
9.20134603869e-08
5.1862120734e-08
-3.83213885875e-07
1.30965550123e-07
-5.21297010205e-07
1.43260120018e-07
-5.51041775875e-07
8.9531257194e-08
-3.48709716707e-07
1.86831318965e-07
-3.60988670259e-07
2.99596713163e-07
-5.33348584949e-07
3.45855234089e-07
-5.41463612778e-07
3.93920310203e-07
-5.27059273123e-07
3.97298514481e-07
-4.46592486215e-07
4.14650770904e-07
-4.40775071333e-07
3.89966738258e-07
-2.70001815741e-07
4.46595353215e-07
-2.30345349947e-07
5.01704624212e-07
-2.3457856177e-07
5.92299954857e-07
-2.95409983828e-07
7.04674711471e-07
-3.99691352687e-07
7.65485885197e-07
-4.23689520563e-07
7.92634299515e-07
-3.80214110956e-07
8.5860986341e-07
-4.00512337267e-07
9.35810601507e-07
-4.53481421121e-07
9.95152180219e-07
-4.7575791912e-07
1.04664774674e-06
-4.74018585362e-07
1.09726209172e-06
-4.630660703e-07
1.15214132186e-06
-4.51948667903e-07
1.20405637014e-06
-4.2493704293e-07
1.23417879543e-06
-3.76809264149e-07
1.27821753429e-06
-3.67549076892e-07
1.30932281115e-06
-3.4197392913e-07
1.32650807054e-06
-3.1857971194e-07
1.35109801544e-06
-2.9681470472e-07
1.42546301769e-06
-3.09676763873e-07
1.47681343847e-06
-3.00161886187e-07
1.51387161239e-06
-2.99042219825e-07
1.59582243221e-06
-3.73127938754e-07
1.69002930526e-06
-4.38469901825e-07
1.75072837526e-06
-4.43807524787e-07
1.80211198124e-06
-4.29524104427e-07
1.84957944076e-06
-4.12571051222e-07
1.89495520929e-06
-3.95656144791e-07
1.93935678297e-06
-3.76519985706e-07
1.9829163334e-06
-3.52994889177e-07
2.02556254877e-06
-3.24947604456e-07
2.06659100139e-06
-2.94300249703e-07
2.10443378959e-06
-2.63290198328e-07
2.13771643965e-06
-2.32829420703e-07
2.16592228838e-06
-2.02300061605e-07
2.18891094023e-06
-1.70152230675e-07
2.20623355536e-06
-1.34427660965e-07
2.21693934652e-06
-9.32318414125e-08
2.21978009082e-06
-4.51783467425e-08
2.21338425632e-06
1.04681400992e-08
2.19629495309e-06
7.38840065365e-08
2.16698914031e-06
1.447247916e-07
2.12364794573e-06
2.2247004371e-07
2.06320949254e-06
3.07526055579e-07
1.98140551477e-06
4.02946356446e-07
1.87524671983e-06
5.13350433233e-07
1.74633892385e-06
6.3997639561e-07
1.60121555733e-06
7.76848800308e-07
1.44885845712e-06
9.12626834084e-07
1.30209535781e-06
1.02909787092e-06
1.18008995607e-06
1.10275941969e-06
1.08497624458e-06
1.14355453716e-06
1.00569404649e-06
1.19050456151e-06
9.58591692706e-07
1.24304907359e-06
7.89829250274e-07
1.2789432214e-06
5.47560944698e-07
1.01544940302e-06
4.16401107069e-07
7.76565994505e-07
3.13621336872e-07
6.95640317075e-07
2.2331810502e-07
6.50697151887e-07
1.59499205246e-07
6.22598712454e-07
1.11438188949e-07
5.78854100494e-07
4.92128397067e-08
5.25207818147e-07
-1.2964704254e-08
4.75415287821e-07
-5.59123320666e-08
4.06128464693e-07
-7.0898066899e-08
3.17339557095e-07
-7.20592835015e-08
2.25371334409e-07
-6.82655457175e-08
1.56255832858e-07
-5.69120388406e-08
1.04498376287e-07
-3.09657357977e-08
7.65196843287e-08
6.12819190671e-08
6.8459833837e-08
-4.51806709085e-07
1.26420574673e-07
-5.79420780581e-07
1.10620052461e-07
-5.35386843625e-07
1.15013643985e-07
-3.53204650026e-07
2.28077326196e-07
-4.74190971992e-07
2.75106426544e-07
-5.80545709228e-07
3.17557434134e-07
-5.84084163849e-07
3.61537035057e-07
-5.71199384822e-07
3.69823858134e-07
-4.55020495371e-07
3.82230499075e-07
-4.53325114601e-07
3.91785158489e-07
-2.79646255212e-07
4.40951309263e-07
-2.79597268664e-07
5.04724045965e-07
-2.98439780891e-07
6.08889526587e-07
-3.99682334258e-07
7.04072978952e-07
-4.95000101722e-07
7.35907045224e-07
-4.55641320048e-07
7.7347468532e-07
-4.17886870458e-07
8.43548181795e-07
-4.70691067928e-07
9.12647874672e-07
-5.2268702851e-07
9.70350910386e-07
-5.33561736981e-07
1.02169932988e-06
-5.25459244496e-07
1.06594574039e-06
-5.07400716826e-07
1.10723120964e-06
-4.93317643824e-07
1.14949157147e-06
-4.67269650602e-07
1.18437646681e-06
-4.11761711561e-07
1.219365796e-06
-4.02600779832e-07
1.26515433252e-06
-3.87816957863e-07
1.31594714773e-06
-3.69424646852e-07
1.36627166887e-06
-3.47186766447e-07
1.4077939135e-06
-3.5124055631e-07
1.46165912292e-06
-3.54058931516e-07
1.55679505242e-06
-3.94206380282e-07
1.63355970465e-06
-4.49919326486e-07
1.69089355804e-06
-4.95831371757e-07
1.74349552322e-06
-4.96437453748e-07
1.79406202746e-06
-4.80116520863e-07
1.84300771971e-06
-4.61538718759e-07
1.89018193651e-06
-4.42847721191e-07
1.93613995648e-06
-4.22489785591e-07
1.98119282191e-06
-3.98053253282e-07
2.0250499551e-06
-3.68803358153e-07
2.06695231428e-06
-3.36193686886e-07
2.10584673257e-06
-3.02167501599e-07
2.14072370293e-06
-2.67679914345e-07
2.17085557964e-06
-2.32395389534e-07
2.19563770667e-06
-1.94885990888e-07
2.21422734611e-06
-1.52957093783e-07
2.22538860723e-06
-1.0431926378e-07
2.22765581985e-06
-4.73556914781e-08
2.21950544789e-06
1.87287661071e-08
2.19929757307e-06
9.42097390596e-08
2.1650606294e-06
1.79130999444e-07
2.1139433843e-06
2.73721624455e-07
2.04222418783e-06
3.79449661332e-07
1.94662099141e-06
4.98720194267e-07
1.82787870853e-06
6.32348362611e-07
1.69258551257e-06
7.75529236374e-07
1.54963198326e-06
9.20109342591e-07
1.40342276933e-06
1.05917566417e-06
1.26139481588e-06
1.17148725799e-06
1.14164956886e-06
1.22284174972e-06
1.04995654391e-06
1.23555935458e-06
9.8146349721e-07
1.25929855577e-06
9.32256338517e-07
1.2925573318e-06
8.77217427342e-07
1.33428869268e-06
6.22915422063e-07
1.27004528072e-06
3.48593977908e-07
1.05116337058e-06
2.40376041786e-07
8.04081859202e-07
1.66419617152e-07
7.24873753666e-07
1.14099147506e-07
6.75061804688e-07
5.75066345427e-08
6.35665017731e-07
-1.80670564285e-08
6.00935743456e-07
-8.54687597036e-08
5.43057692246e-07
-1.25436685104e-07
4.46307580849e-07
-1.33921716333e-07
3.26168401566e-07
-1.31840919337e-07
2.23463724415e-07
-1.16876525535e-07
1.41634853617e-07
-8.85764113664e-08
7.63696838963e-08
-4.68444270192e-08
3.52434682624e-08
1.44632328614e-08
7.98056410289e-08
-5.31739547732e-07
1.30795282655e-07
-6.3056224886e-07
9.77035507457e-08
-5.02416396664e-07
1.39069827948e-07
-3.94684383496e-07
2.35612133261e-07
-5.70889162654e-07
2.48354999666e-07
-5.93446712754e-07
2.84131957373e-07
-6.20018888765e-07
2.98114790152e-07
-5.85326666808e-07
3.33064752447e-07
-4.90088226e-07
3.21949205827e-07
-4.42315807296e-07
3.69271871703e-07
-3.27054639776e-07
4.29827077007e-07
-3.40235154752e-07
5.00379916567e-07
-3.69086090012e-07
5.95757277822e-07
-4.95178807813e-07
6.52801034801e-07
-5.52167006601e-07
6.71104097835e-07
-4.74051715076e-07
7.36647673236e-07
-4.83536028582e-07
8.1381368361e-07
-5.47965727136e-07
8.79332963106e-07
-5.88312847925e-07
9.39717091755e-07
-5.94045690169e-07
9.96059471408e-07
-5.81898284092e-07
1.04720376976e-06
-5.58635444383e-07
1.08017995033e-06
-5.26375983936e-07
1.11035977827e-06
-4.97524540476e-07
1.1626291382e-06
-4.64095840574e-07
1.19286213716e-06
-4.3289410879e-07
1.21325978643e-06
-4.08272867336e-07
1.23941848747e-06
-3.95635025849e-07
1.30494050887e-06
-4.12753814144e-07
1.38187743717e-06
-4.28215798987e-07
1.4603564779e-06
-4.32569670742e-07
1.53481480122e-06
-4.68692248877e-07
1.62441627079e-06
-5.39550157296e-07
1.68456179868e-06
-5.56009394392e-07
1.7350741283e-06
-5.4698150675e-07
1.78568490159e-06
-5.30755794575e-07
1.83603435222e-06
-5.11912904468e-07
1.88491540068e-06
-4.91749292008e-07
1.93234545735e-06
-4.69935843566e-07
1.97878439772e-06
-4.44503117087e-07
2.02404386248e-06
-4.140678972e-07
2.06733890038e-06
-3.79487187847e-07
2.10779248949e-06
-3.42611986603e-07
2.14463606105e-06
-3.04505650381e-07
2.17710957028e-06
-2.6484087755e-07
2.20422964912e-06
-2.219671446e-07
2.22467314422e-06
-1.73348738778e-07
2.23690086771e-06
-1.16479986129e-07
2.23927944752e-06
-4.96518998406e-08
2.23006285936e-06
2.80404210466e-08
2.20728451261e-06
1.17123476368e-07
2.16829815039e-06
2.18221579235e-07
2.1094417097e-06
3.32760261887e-07
2.02645083805e-06
4.62550397988e-07
1.91776379663e-06
6.07607059891e-07
1.78841887141e-06
7.61872280096e-07
1.65090979526e-06
9.13298579435e-07
1.51439514172e-06
1.05691203858e-06
1.37456331019e-06
1.19930947275e-06
1.23070513386e-06
1.31562093323e-06
1.10649865867e-06
1.34736174744e-06
1.00978834553e-06
1.33255579438e-06
9.31941791623e-07
1.33741569827e-06
8.75930756708e-07
1.34883153811e-06
8.51106734885e-07
1.35939461617e-06
7.48203380835e-07
1.37327363497e-06
4.50408374261e-07
1.34925255672e-06
1.79846688359e-07
1.074910477e-06
1.13096538152e-07
7.91807904509e-07
7.0749912302e-08
7.17613979344e-07
8.52737886159e-10
7.0567400993e-07
-9.0624402508e-08
6.92631158604e-07
-1.68482859459e-07
6.2112072097e-07
-2.11026803553e-07
4.89154146169e-07
-2.13065365074e-07
3.28333034986e-07
-2.01305368139e-07
2.12085354065e-07
-1.70782116286e-07
1.11301181226e-07
-1.19129695139e-07
2.50687877162e-08
-5.96410949022e-08
-2.42348984704e-08
-4.49553464036e-08
7.36099572026e-08
-6.05490493496e-07
1.13380121596e-07
-6.70471965158e-07
9.81826531599e-08
-4.87321727861e-07
1.69564612541e-07