/*--------------------------------*- C++ -*----------------------------------*\
| =========                 |                                                 |
| \\      /  F ield         | OpenFOAM: The Open Source CFD Toolbox           |
|  \\    /   O peration     | Version:  v1806                                 |
|   \\  /    A nd           | Web:      www.OpenFOAM.com                      |
|    \\/     M anipulation  |                                                 |
\*---------------------------------------------------------------------------*/
FoamFile
{
    version     2.0;
    format      ascii;
    class       volScalarField;
    location    "30";
    object      p;
}
// * * * * * * * * * * * * * * * * * * * * * * * * * * * * * * * * * * * * * //

dimensions      [0 2 -2 0 0 0 0];


internalField   nonuniform List<scalar> 
6400
(
0.180909483978
0.18091184988
0.180918452281
0.180930007483
0.18094443302
0.180960957376
0.180980476313
0.181005298624
0.18103321414
0.181060401572
0.181095781794
0.1811445597
0.18119610104
0.181249712128
0.181311273384
0.181388493765
0.181474262013
0.181563207907
0.181662400016
0.181774291117
0.181884934113
0.181985280972
0.182075389769
0.182160949408
0.182250786579
0.182345069784
0.182434550594
0.182515414301
0.182591524989
0.182667896429
0.182753564781
0.182845676931
0.182926729696
0.182996941028
0.183063251277
0.183124396331
0.183170128037
0.183201982769
0.183229023885
0.183251356247
0.183267224223
0.183272538407
0.18326961944
0.183260245129
0.183244861435
0.183225167548
0.183202773284
0.183177945638
0.18315083172
0.183122522055
0.183092210308
0.183069880333
0.183058778713
0.183050747075
0.183052405472
0.183054363067
0.183054987459
0.183048663317
0.183007466149
0.182954865625
0.182878299643
0.182741363887
0.1825721507
0.182359307705
0.181968091675
0.181256404066
0.180226718792
0.179078190777
0.178003001656
0.177051358823
0.176200861581
0.175407135159
0.174637956931
0.173930665105
0.173275492698
0.172689577098
0.172188166418
0.171853500498
0.171636236009
0.171543250868
0.180905588137
0.180907864788
0.180913129704
0.180924346743
0.180941468909
0.18096170971
0.180983079754
0.181005397672
0.181030023449
0.18105794873
0.181092361428
0.18113610882
0.181187033814
0.181244941255
0.181309763038
0.181381571425
0.181462309073
0.181552842785
0.181660884378
0.181784964287
0.181895797983
0.181992889263
0.182080997857
0.182159207475
0.182246578536
0.182346804526
0.182431323625
0.182508654384
0.182586569067
0.182667968334
0.1827525918
0.182839230831
0.182931983957
0.183010695544
0.183077094949
0.183139786385
0.183186533195
0.183217451474
0.183238983859
0.183258460075
0.183273997157
0.183281418525
0.183276666498
0.183266647907
0.183250442367
0.183229427147
0.183205013388
0.183177898546
0.183150020955
0.183124077392
0.183100455096
0.183079226588
0.18305010375
0.183040653402
0.183042784545
0.183021395368
0.183019833763
0.183012101563
0.182989507409
0.182969043037
0.182947669193
0.182835057027
0.182613846587
0.182399982906
0.182013539438
0.181306738886
0.180258349037
0.179093137444
0.178005510341
0.177039585002
0.176175678691
0.175365656497
0.174571832661
0.173831249906
0.173166372593
0.172584869492
0.172111066024
0.171778964745
0.171561556558
0.171489926573
0.180895438166
0.180899423024
0.180903202179
0.180913481608
0.180930834672
0.180954295427
0.180980000939
0.181002573725
0.181025018749
0.181052019464
0.181085125329
0.181126492267
0.181176685236
0.181235022355
0.181300554811
0.181368831519
0.181450402451
0.181567190199
0.181689488234
0.181810249438
0.181913128424
0.181990272341
0.18206818869
0.182157620395
0.182244206069
0.18232820301
0.182414484699
0.182501800462
0.182586891002
0.182675702448
0.182765009401
0.18285504757
0.182948628565
0.183035858791
0.183103164708
0.183157097743
0.183207021745
0.183234714265
0.183250049176
0.183259249732
0.183265240474
0.183271955703
0.183272867568
0.183264527759
0.183249062885
0.183228363713
0.183204255634
0.183178153482
0.183151221655
0.183124973403
0.183100878571
0.183079872742
0.18306073774
0.183046286524
0.18303618673
0.183025099586
0.183010073563
0.18299203917
0.182980143329
0.182959808935
0.182907890732
0.18280178131
0.182666413905
0.182484592827
0.182095485881
0.181360141814
0.180327297425
0.179163697743
0.178034717221
0.177020713781
0.176108425096
0.175251062487
0.174436011725
0.173687940993
0.173010193229
0.172424697913
0.171964272344
0.171635055133
0.171426740781
0.171351556751
0.180883149048
0.180886726344
0.180887932663
0.180897769411
0.180913313137
0.180937404665
0.180973547642
0.180994947959
0.181015737914
0.181041375056
0.181074014162
0.181114007555
0.18116331433
0.181220899849
0.181291877869
0.181381578378
0.181487820152
0.181605931552
0.181720515708
0.181815554136
0.18189980433
0.181980902167
0.182060063212
0.182137177666
0.182217288736
0.182306615405
0.182404344113
0.182499163037
0.182594268385
0.182687878283
0.182782732846
0.182883622496
0.182972889591
0.183058507495
0.183131983114
0.183176389723
0.183209661296
0.183228321055
0.183244547843
0.183258307099
0.183265275767
0.183268074853
0.183266333896
0.183257710544
0.183242679834
0.183222567168
0.183198995996
0.183173603548
0.183147725216
0.183122129919
0.183097955216
0.183076580695
0.18305834265
0.18304541311
0.183042334528
0.183060474625
0.183063680739
0.183003063944
0.182917682195
0.182859785766
0.182815458266
0.182756193011
0.18268338642
0.182557721065
0.182207581374
0.18150770608
0.180460299364
0.179252432137
0.178057082697
0.176972143429
0.176008156725
0.175126441257
0.174294936189
0.173491338198
0.172752444457
0.172158678544
0.171719529306
0.171366585699
0.171117695884
0.171016888956
0.180864914009
0.180864074012
0.180865576142
0.180876351069
0.180893071827
0.180915361792
0.180946762197
0.180970742333
0.180995727096
0.181023323214
0.181056501068
0.181097029268
0.181150497716
0.18122398092
0.181315555762
0.181415002292
0.181519249006
0.181621386338
0.181709625621
0.181796093905
0.181885379237
0.181962394594
0.182033927293
0.182110095641
0.182194114464
0.182291695153
0.182393260275
0.182498784292
0.182600208295
0.182703060682
0.182807370652
0.1829034786
0.183002013851
0.183076004109
0.183133058303
0.183170190274
0.183197066365
0.183220169574
0.18323612143
0.18324911163
0.183256818942
0.183259260185
0.18325610377
0.183246671229
0.183231302761
0.183211051998
0.183187341211
0.183161721101
0.183135713974
0.183110183008
0.183085817531
0.183064591664
0.183048763075
0.18304109769
0.183046401833
0.183085171906
0.183076488884
0.182943318545
0.182804518081
0.1827327762
0.182705969769
0.182694612859
0.18268797581
0.182663855101
0.182364479997
0.181685860918
0.180645769301
0.179396800653
0.178113663542
0.176934678532
0.175908295432
0.174979735827
0.17405551652
0.173136497436
0.172346197656
0.171737874484
0.171256585993
0.170808760223
0.170523735952
0.170424834065
0.180828530152
0.180827408497
0.180833688342
0.180843448134
0.180862006094
0.180888574617
0.18091341876
0.180940642459
0.180968611826
0.180999863297
0.18103343272
0.181079396452
0.181152082775
0.181241774467
0.18133774501
0.181432945396
0.181522931996
0.181604171239
0.181690378046
0.181784664034
0.181862050099
0.1819303558
0.182000390432
0.18208270587
0.182173741063
0.182269835216
0.182386139392
0.182496640899
0.182607587612
0.182720147583
0.182827433527
0.182939190837
0.183014001301
0.183075754282
0.183115789186
0.183149502204
0.183178224776
0.183202785938
0.183221809474
0.183235696211
0.183243740407
0.183245692953
0.18324140469
0.183230851757
0.183214537464
0.183193462221
0.183168948722
0.183142467144
0.183115510588
0.183089367474
0.183064533806
0.183042717494
0.183027138486
0.183020488827
0.183028448468
0.183042660426
0.182954115334
0.182754118933
0.182619132555
0.182591507007
0.182624112582
0.182670863263
0.182718465929
0.182769941995
0.182614418537
0.181912638073
0.180856329986
0.179572262183
0.178202209255
0.176920752036
0.175803794387
0.174743121319
0.173640612936
0.172609482408
0.171761978146
0.171096129687
0.170501736146
0.169970435876
0.169657249061
0.169524509979
0.180771715665
0.180775979186
0.180792121745
0.180806419102
0.180822288527
0.180850152452
0.180876931979
0.180904421903
0.180935333706
0.180970534661
0.1810116092
0.181064737405
0.181154941596
0.181249911447
0.181343699625
0.181425492692
0.181499246535
0.181582041487
0.181681088977
0.181759032225
0.181827191249
0.181894896879
0.181965403571
0.182048351363
0.182146505979
0.182259792757
0.182380006978
0.182497668118
0.182619199511
0.182735656382
0.182867372089
0.182944977889
0.183013340241
0.183050414591
0.183087017713
0.183121896766
0.183153506085
0.183180492217
0.183201703722
0.183216654717
0.183224893648
0.18322625217
0.183220803514
0.18320887859
0.183191172195
0.183168723139
0.183142812897
0.183114839476
0.183086227897
0.183058371652
0.183031732643
0.183006820709
0.182985592356
0.182967568
0.182944743659
0.182895616513
0.182779330463
0.182653508053
0.182606391624
0.18263510794
0.182691810692
0.182745995057
0.182811185269
0.182921971452
0.182981313141
0.182266084395
0.181150061912
0.17981554966
0.178360256986
0.176946616534
0.175640314905
0.174335369321
0.173031669092
0.171890428202
0.170953077458
0.170165796077
0.169425898094
0.16883630047
0.168504430685
0.168338030315
0.180705041019
0.180712172484
0.180736944913
0.180762412347
0.180783098491
0.180805083312
0.1808349738
0.180862404368
0.180897586699
0.180931251227
0.180982751208
0.181059381148
0.181150411183
0.181246607016
0.181329800042
0.181394299019
0.181470209513
0.181568929626
0.181657469844
0.181722160166
0.181781367249
0.181854847901
0.18193221691
0.182020005238
0.182122671307
0.182245702608
0.182369643156
0.182503712922
0.182619214949
0.182765697733
0.182853063425
0.182937256868
0.182976165397
0.183013354011
0.183051636674
0.183088957923
0.183123061186
0.18315219494
0.183175036264
0.183190763139
0.183198930225
0.1831994858
0.183192719673
0.18317922387
0.183159866087
0.183135748428
0.183108120813
0.183078285659
0.183047531139
0.183017114253
0.182987775434
0.182959177615
0.182932187911
0.182907613384
0.182882115895
0.182849632118
0.182802467599
0.182760555019
0.182746941763
0.182756483277
0.182772882852
0.182799366596
0.182869347813
0.183081252226
0.183230608777
0.182751296989
0.181608957424
0.180199021758
0.17860568153
0.176956117622
0.175337485531
0.173721386954
0.172218683552
0.170939144831
0.169865166082
0.16890818107
0.168063903011
0.167427561348
0.167088733842
0.166929471209
0.180633194166
0.180641285991
0.180670157286
0.180692224007
0.180724544325
0.180756759318
0.180782509652
0.180812621944
0.180853598317
0.180895857175
0.180943964323
0.181037871801
0.18113609778
0.181228779397
0.181298178633
0.181363677496
0.181440793159
0.181542356271
0.181618592031
0.181679476195
0.181733399123
0.181802265195
0.181886874929
0.181982486397
0.182105170497
0.182229770093
0.182362153798
0.182485124649
0.182623405136
0.182731078391
0.182831083895
0.182885942496
0.182928808524
0.182968911198
0.183009936709
0.183049669174
0.183085894969
0.183116716645
0.183140626447
0.183156628549
0.183164287935
0.183163705341
0.183155408984
0.183140233277
0.183119213972
0.183093508026
0.183064306258
0.183032738678
0.182999838976
0.182966593599
0.182933965846
0.182901730068
0.182870006517
0.182840855175
0.182815885569
0.182794640566
0.182771160603
0.182743589751
0.182718711393
0.182702308797
0.182699146179
0.182727241799
0.182812984032
0.183036170738
0.183230057768
0.183020640775
0.182163749961
0.180771337496
0.178965486084
0.176929033833
0.174860272901
0.172887992113
0.171163058641
0.169703929911
0.168449325441
0.167333355221
0.166423544437
0.165765282884
0.165413050331
0.165271374064
0.180557108322
0.18056785171
0.180599624566
0.180627592632
0.180656131119
0.180697482679
0.180719654793
0.180752269656
0.180789216382
0.180853588076
0.180913562798
0.18100845859
0.181110536635
0.181195990208
0.181253241887
0.181323938774
0.181418398205
0.181507623208
0.181571870382
0.181629855599
0.181688541337
0.181753346575
0.181837583722
0.181933195145
0.182076873071
0.182201091898
0.182345421209
0.182465941011
0.182623656835
0.18270220245
0.182780401911
0.182828791646
0.182872492963
0.18291682624
0.182960878041
0.183002875184
0.183040777017
0.183072687755
0.183096972583
0.183112567983
0.183119133335
0.183116998805
0.183106971755
0.183090159028
0.183067783031
0.183041061447
0.18301109829
0.182978720077
0.182944499859
0.18290894273
0.182872670845
0.182836016449
0.182799121479
0.18276355564
0.182732107502
0.182706171418
0.182681883397
0.182654543081
0.182626645652
0.182605634167
0.182600092375
0.182624193924
0.182687863638
0.182811469605
0.182906384342
0.183043195617
0.182903712194
0.181753585422
0.179521697057
0.176816380035
0.174156150983
0.171782531183
0.169790258616
0.168108536736
0.166654454425
0.16541658088
0.16445266411
0.163768229482
0.163358888578
0.163191594567
0.180473388449
0.180487343641
0.180517015212
0.180559501324
0.180595479858
0.18062384081
0.180645239853
0.180680064402
0.180711703391
0.18078421918
0.180866999087
0.180965673634
0.181071567045
0.181151482311
0.181209105302
0.181276525005
0.18138070072
0.181461943545
0.18151911402
0.18156989938
0.181637200878
0.181707029943
0.181794524474
0.181889918143
0.182024093757
0.182173838949
0.18232154348
0.182459102027
0.182559170367
0.182679724381
0.182719525449
0.182763878965
0.182810395523
0.182857688647
0.182904052577
0.182947602051
0.182986386242
0.183018520497
0.18304227352
0.183056642678
0.183061513979
0.183057519948
0.183045739844
0.183027584943
0.183004486296
0.182977840813
0.182948695069
0.18291740506
0.182883746843
0.182847315267
0.182807982693
0.182765999828
0.182721948277
0.182678007473
0.182638067257
0.182605671119
0.182581516113
0.182561999837
0.182543971844
0.182528199887
0.182518545442
0.182522826765
0.182547031248
0.182604386175
0.182653658286
0.18272492807
0.182819066167
0.182676614578
0.180593572901
0.176612078578
0.173133084142
0.170278899731
0.167980593315
0.166054326681
0.164414494114
0.163070301696
0.162031151156
0.161270198834
0.160760791045
0.160516605254
0.180380002625
0.180394352948
0.180413348168
0.18046232035
0.180520503475
0.180541305057
0.18056242868
0.18059903696
0.180633105796
0.180701874698
0.180803731338
0.180909420568
0.181017470327
0.18109150579
0.181160902825
0.181235866062
0.181336569245
0.181409078207
0.181462721463
0.181510626003
0.181573788273
0.181644557704
0.181742809523
0.181857199362
0.181983017947
0.182146541884
0.182264598465
0.182435283687
0.18251133168
0.182597788874
0.182650488205
0.182694756929
0.18274280584
0.18279161895
0.182838964066
0.182882809011
0.182921225574
0.182952349463
0.182974426543
0.182986776039
0.182989718456
0.182984150726
0.182971258671
0.1829526046
0.182929817244
0.182904713126
0.182878535334
0.182851070511
0.182820829105
0.182785895164
0.182744914034
0.18269729317
0.182643301514
0.182585954412
0.182532535157
0.182492241125
0.182469153231
0.182459748906
0.18245558419
0.182446525811
0.182425718481
0.182394378695
0.182354956792
0.182315793791
0.182261842405
0.182208128003
0.182405715427
0.181943132041
0.180535008474
0.175781507955
0.171501712436
0.168153137068
0.165557672471
0.163403997301
0.161605943626
0.160165402965
0.159027884211
0.158162142598
0.157569043992
0.15726938343
0.180275678805
0.180287489203
0.18029265015
0.180347047192
0.180403061288
0.180434300669
0.180465310357
0.18050598465
0.180550496378
0.180617089202
0.180730792584
0.180841546571
0.180949064446
0.181015069991
0.181094723057
0.181192710218
0.18128425198
0.181348711647
0.181400425195
0.18145020044
0.181511231946
0.181577429974
0.181661443246
0.18181446647
0.181942685766
0.182099658139
0.182214546307
0.18237296484
0.18249447839
0.182528407087
0.182572688222
0.182619836386
0.182669072362
0.182718130419
0.182764864103
0.182807274588
0.182843553902
0.182871978715
0.182891031398
0.182900951837
0.18290277187
0.182897464631
0.182885807099
0.182868882575
0.182848184809
0.182826306984
0.182805369039
0.182784644918
0.182760789792
0.182729567045
0.182688134142
0.182634108517
0.182565538797
0.182483401985
0.182400433489
0.182340447016
0.182315224198
0.182317746707
0.182330222293
0.182331264632
0.182300190786
0.182224070124
0.182098514691
0.181922469422
0.181680024417
0.181336017165
0.180979289121
0.180546987448
0.178740419008
0.173248442866
0.168858948837
0.165087924228
0.162354579114
0.160024388228
0.158097933007
0.156600942
0.155355958631
0.154394013557
0.153754666907
0.153417932943
0.180163089298
0.18017644338
0.180194469608
0.180227661537
0.180277762512
0.18031252119
0.180355490189
0.180401081478
0.180461248179
0.18052782785
0.180649827364
0.180764272429
0.180871890336
0.180934882883
0.181009636312
0.181128136009
0.181219211552
0.181280377056
0.181331097666
0.18138216033
0.181446076981
0.181510909779
0.18158752404
0.181749135558
0.181876221584
0.182046108245
0.182193599475
0.182271651186
0.182406994971
0.182451514088
0.182493312371
0.182540470593
0.182589279057
0.182636849586
0.182680969695
0.182719672342
0.18275142708
0.182774913339
0.182789500297
0.182797417247
0.182800761212
0.1828002647
0.182795078535
0.182784948705
0.182770102641
0.182753858405
0.182740353738
0.182728395778
0.182712606964
0.182685118639
0.182641706859
0.182579319045
0.182484605211
0.182348339401
0.182199778044
0.18209786932
0.182067162038
0.182088313365
0.182123642793
0.182137487396
0.182101249537
0.18198723476
0.181774405604
0.18144867569
0.180980310034
0.180297816496
0.179301609851
0.178254274262
0.174483359576
0.168335118385
0.16460160498
0.160755619839
0.158341860555
0.155870071538
0.153876248195
0.152359671424
0.150997013702
0.149938028925
0.149190140709
0.148766045368
0.180039471139
0.180053375019
0.180088946191
0.180108737351
0.180147060864
0.180179402095
0.180231927671
0.180287911615
0.180369901996
0.180436346854
0.180561462552
0.180678913222
0.180787496786
0.180852953712
0.180928768956
0.181055699211
0.181146452164
0.181207139876
0.18125722418
0.181308235374
0.18137331467
0.181441833426
0.181515670837
0.181664236861
0.181806935875
0.181981418193
0.182160495512
0.182227963753
0.182302950496
0.182362441064
0.182408014846
0.182455820619
0.182503175434
0.182547438929
0.182586576772
0.182618705484
0.182642872257
0.182658634603
0.182667470341
0.182675174781
0.182685030875
0.182696628951
0.182705915326
0.182710741883
0.182708714305
0.182703484048
0.182701967603
0.182700241195
0.182690739324
0.18266139242
0.182612880752
0.182535769299
0.182378774934
0.182132938397
0.181867868688
0.181701064079
0.181669684411
0.181723026626
0.181790388964
0.181816645847
0.181767165508
0.181615113674
0.181324447651
0.180859040994
0.180169847168
0.179145839993
0.177514140351
0.174998769879
0.170005598211
0.166573159645
0.162695954434
0.154899770777
0.153398389345
0.150841160911
0.14892437563
0.147535372874
0.14595331357
0.144714824468
0.143689367237
0.143048899694
0.179904604349
0.179915640504
0.179943404448
0.1799699804
0.180003012978
0.180036460636
0.180089929348
0.18014637486
0.18025566398
0.180341816157
0.180463532977
0.180584367559
0.180694347446
0.180768278073
0.180848746748
0.180979277934
0.181068712749
0.18113211162
0.181182071731
0.181234059319
0.181298024748
0.181367239062
0.181444287509
0.181581025045
0.181739197098
0.181876705989
0.182083182386
0.182199118869
0.182227629891
0.182271638158
0.182319258278
0.18236677476
0.182411137487
0.182449899371
0.182481235681
0.18250329539
0.182516173397
0.182521149747
0.182523781863
0.1825350909
0.18255861576
0.182590706314
0.182621987124
0.18264870168
0.18266533356
0.182680539705
0.182704345999
0.182713775206
0.182710036282
0.182672700804
0.182620408638
0.182484542878
0.182220778745
0.181808747019
0.181348648281
0.18109123949
0.181090661571
0.181209483948
0.181322723035
0.181356537381
0.181275735479
0.181060963674
0.180682811655
0.180090885847
0.179216108046
0.177945466206
0.176043186091
0.173247789479
0.168822077293
0.16431986322
0.158119673272
0.156273876987
0.154241596712
0.145071077217
0.142332275228
0.14207192143
0.140147878326
0.138539262739
0.136955424135
0.135855206026
0.179764231205
0.179772362975
0.179797883867
0.179823610449
0.179852749123
0.179889238153
0.17993837983
0.17999069842
0.180099006075
0.180217028606
0.180348809447
0.180476432108
0.180587279728
0.180679555476
0.180767509159
0.180898534507
0.180985985926
0.181055572916
0.181107571837
0.18116117006
0.181225477301
0.181293012131
0.18137123847
0.181499322201
0.18166916512
0.181787591506
0.18197711989
0.182107652479
0.182143863568
0.182184106708
0.182229969883
0.182274774708
0.182313945972
0.182344559544
0.182364794391
0.182372655365
0.182370118441
0.182361735692
0.182359839878
0.18238212362
0.182429025903
0.182490009597
0.182549082872
0.182603705372
0.182632663851
0.182661311287
0.182718532231
0.182760147285
0.182758492402
0.182713665899
0.182629437948
0.182441253214
0.182035001728
0.18139723846
0.180622794752
0.180284322442
0.180394379832
0.180615747092
0.180770716084
0.180786310846
0.180640816987
0.180327883894
0.179832930062
0.179108371559
0.178074532137
0.176633764285
0.174629029194
0.171888404256
0.168030219602
0.163580574351
0.158332283563
0.154529214143
0.148737332331
0.14568335776
0.144587836517
0.139142481929
0.132829413807
0.131226113141
0.128903789543
0.126731226512
0.179621898146
0.17962698414
0.179644651733
0.179666639352
0.179699168681
0.179737740919
0.179785662736
0.179834965728
0.179939221064
0.180078205398
0.180218908017
0.180351437598
0.18045592195
0.180572464186
0.180682564388
0.180808926827
0.180894784138
0.180975384988
0.181031655774
0.181088121484
0.181155268148
0.181222248465
0.181300578107
0.181423797686
0.181602939038
0.181740026414
0.181856822881
0.181974225745
0.182043687703
0.182091045556
0.182138294102
0.182180031418
0.182212173525
0.182231817581
0.182237232751
0.182226132042
0.182203981698
0.182181317764
0.182180892076
0.182228486358
0.182311506483
0.18240886793
0.182506173747
0.182594675327
0.182669709568
0.182705477756
0.182748720396
0.182849592065
0.182808882667
0.182733433066
0.182598110589
0.182426459655
0.181913892454
0.180976757885
0.179880394624
0.179587448217
0.179815630493
0.18008530797
0.18020954348
0.180141433019
0.179879309806
0.179427617263
0.178780356485
0.17790493706
0.176720558757
0.175129273491
0.173024591776
0.170285493202
0.166715711253
0.162521593131
0.157764858636
0.153143415113
0.148034409219
0.144066231527
0.139703322717
0.136966849242
0.134739649511
0.126162048205
0.119671326201
0.114996434763
0.179478760858
0.179481626337
0.179491294981
0.179506774357
0.179545971381
0.179582433967
0.179629191963
0.179683596225
0.179777314039
0.179929316015
0.180076182238
0.180211666132
0.180310192432
0.180430402967
0.180573804421
0.18070275291
0.180789160352
0.180881349813
0.180949773204
0.181011470016
0.18108566619
0.181151865121
0.181231237846
0.181355502667
0.181547650101
0.181731377484
0.181834461854
0.181886334633
0.181944876162
0.181998830639
0.18204654812
0.182083562846
0.182106317556
0.182111827401
0.182098302912
0.18206283543
0.182017452798
0.18198384931
0.182000799983
0.182096005519
0.18222724915
0.182356203955
0.182488083169
0.18261009479
0.182746806353
0.182962065257
0.183044290229
0.183083647175
0.182840109306
0.182724179381
0.182631640755
0.182528929091
0.182065241886
0.181026274992
0.179870427309
0.179459423348
0.179595289008
0.17971747724
0.179671232672
0.179428719578
0.178992641521
0.178365115234
0.177537675486
0.176484475954
0.175144406554
0.173413373675
0.171190088097
0.168388685347
0.164902132201
0.160796595526
0.156152989954
0.151330419753
0.146330681783
0.141515893054
0.136590743168
0.132383556849
0.126202404641
0.123089318777
0.118113590355
0.0988310586999
0.179332154102
0.179332749745
0.179339514124
0.179352536841
0.179395682918
0.179425580657
0.179464863981
0.179530991076
0.179613888123
0.179770709682
0.179921611143
0.180060528451
0.180157430053
0.180275989536
0.180443847152
0.180581628751
0.180674511915
0.180771027023
0.18085479491
0.180926891625
0.181015409707
0.18108322625
0.181160618349
0.181289225381
0.181485944794
0.181683132176
0.181799685355
0.181827716022
0.181868386506
0.181916319129
0.181957856703
0.181986079248
0.181996045537
0.181983829064
0.181946932045
0.181881706659
0.181812250714
0.181781387872
0.18184432244
0.182010247251
0.182177476022
0.182323550262
0.182456471124
0.182710052452
0.182986796813
0.183143024513
0.18322833882
0.183188486315
0.182926108715
0.182793829067
0.183107550085
0.183365317482
0.183008856992
0.181921048684
0.180676259014
0.179905830196
0.179670410075
0.179449592682
0.17911443007
0.17862863144
0.177978572348
0.177151409961
0.176127996075
0.174879379259
0.173360137158
0.171487300389
0.169147494652
0.166255786868
0.162749933932
0.158636943945
0.153966305731
0.148913445261
0.143526490626
0.137918749257
0.132052967536
0.126073062057
0.119039420434
0.114407756922
0.0997349890919
0.0851047144784
0.179176112009
0.179173602806
0.179182634257
0.179201848208
0.179243194988
0.179266218264
0.179291763468
0.179369958353
0.179444331343
0.179599360197
0.179754147585
0.179897158851
0.179995752522
0.180116385985
0.18029854186
0.180445751062
0.180550727202
0.18065568235
0.180747938737
0.180831215453
0.180938654834
0.181016422404
0.18108904362
0.181222781745
0.181420269121
0.181624141071
0.181751656401
0.181775829725
0.181805484689
0.181842053294
0.181871842645
0.181886534666
0.181879487735
0.181845385669
0.181780525683
0.181681384783
0.181592780667
0.18159761894
0.181734352274
0.181955189601
0.182136884183
0.182265805823
0.182423311514
0.182845488836
0.1831805367
0.183284448473
0.183373134169
0.183352977009
0.183297806774
0.183566594424
0.184349071552
0.184945577778
0.184384108882
0.183009804221
0.181563040381
0.18052541837
0.179784349442
0.179138649178
0.178471365774
0.177718199537
0.176839105377
0.175802491662
0.174576825515
0.17312636433
0.1714084822
0.169366700306
0.166908032774
0.163924422986
0.160348988405
0.156171230235
0.151401938715
0.146094565582
0.140246695147
0.133833176179
0.126704831961
0.118602431717
0.108396500957
0.0957371409629
0.0722110863848
0.0331605553873
0.179001078891
0.178993936864
0.179010420456
0.179047193545
0.179079294035
0.179097625622
0.179112100921
0.179191434306
0.17926227832
0.179410865635
0.179570871352
0.179719267173
0.179821832419
0.179944112353
0.180134547907
0.180289535844
0.180413332107
0.180530362569
0.180626979728
0.180719933228
0.180846023782
0.180943508272
0.181015528541
0.181150408965
0.181351781371
0.181563253176
0.181697483516
0.181724254175
0.18174821119
0.181773043872
0.181787355656
0.181783613644
0.181754073004
0.181692452179
0.181594486799
0.181461115174
0.181373019263
0.181456705121
0.181655758504
0.181852371128
0.18202747636
0.182204373839
0.182606081655
0.183064078055
0.18335600158
0.183449822014
0.183586677956
0.183904480919
0.184509413467
0.185258188147
0.186098365609
0.186229882833
0.185308784376
0.183618618651
0.182027291468
0.180698165038
0.179602178979
0.17862828956
0.177677742693
0.176678348197
0.175577252545
0.174331817357
0.172902733778
0.171249381885
0.169327278988
0.167086995209
0.164469152023
0.161384081938
0.157730896963
0.153454699497
0.148545696186
0.142990743951
0.136729864944
0.129633102129
0.121419425748
0.111597165511
0.0990172901438
0.0823633236509
0.0577185900841
0.0229785111134
0.178793859749
0.178783859505
0.178802764739
0.178861908799
0.178883298341
0.178905812735
0.178911622783
0.178982617977
0.179053725887
0.179201445795
0.179369444451
0.179523493267
0.179632517743
0.179755640143
0.179948019587
0.180105720478
0.180252570203
0.180388985685
0.180488984374
0.18058984648
0.180732426137
0.180855545418
0.180932990494
0.181069710963
0.181281422373
0.181503914143
0.181647517599
0.181675823321
0.181695341819
0.181708687564
0.181705063887
0.181677669584
0.181618548957
0.181521035753
0.18138199917
0.181215718807
0.181155098298
0.18129814459
0.181475210434
0.181681594648
0.181934605307
0.182334393899
0.182886849053
0.183349716037
0.183621929308
0.183771098259
0.184271036041
0.185124771532
0.186799122236
0.18707276013
0.187210265429
0.186620998419
0.18529673581
0.183558875446
0.181889297598
0.180411268759
0.179106672894
0.177903874926
0.176726609438
0.175509639523
0.174199327108
0.17274970516
0.171118168253
0.169261998597
0.167135889785
0.164690789099
0.161874322659
0.158628668704
0.154873005221
0.150507328829
0.145455332812
0.139670279669
0.133063144939
0.125459314941
0.116545190921
0.105822930014
0.092426753353
0.0753068236121
0.0524327504747
0.0235554978603
0.178541117865
0.178538896881
0.1785523614
0.178607617687
0.178637838471
0.178679699725
0.178688674842
0.178753143032
0.178834448264
0.178969681996
0.179147246587
0.179307119287
0.179424067542
0.17954827216
0.179738036142
0.179893719978
0.180051141735
0.180219470976
0.180329494146
0.180440812291
0.180599219723
0.180750480595
0.180855342924
0.180978882624
0.181212502011
0.181453321177
0.181604656202
0.181630101623
0.181644754193
0.181647782854
0.181626396412
0.181571646092
0.181474973337
0.181330300773
0.181138381379
0.180935514911
0.180884266455
0.180978874124
0.181175519637
0.1815489658
0.181996815908
0.182629004369
0.183296307891
0.183827445747
0.184211191097
0.184626954629
0.1851808433
0.186247428469
0.186760042361
0.187361903185
0.186914832391
0.186029255872
0.184546833531
0.182897039887
0.181280101328
0.179764475772
0.178345572696
0.176982476289
0.17562264041
0.174213947128
0.172708368888
0.171061532698
0.16923083927
0.167173387381
0.164844240993
0.162195191374
0.159174312488
0.155727032175
0.151794695417
0.147302872006
0.142138917311
0.136182058215
0.129306467639
0.121342328553
0.111998459656
0.100832892929
0.087173095183
0.0701944860129
0.0485152188507
0.0230833148075
0.178254047643
0.178270129367
0.178275138379
0.178305146982
0.178357395359
0.178417141985
0.178440927714
0.17850643901
0.178604674867
0.17872775741
0.17890509439
0.179067985782
0.179193633782
0.179320477164
0.17950712817
0.179665480341
0.179821552559
0.180016148866
0.180147181578
0.180274316072
0.180445872791
0.180616071468
0.180769730924
0.18092080517
0.181139072897
0.181409711889
0.181563671668
0.181580334787
0.181590506826
0.181586905281
0.181551301499
0.181469237353
0.181329699527
0.181126898869
0.180869974955