/*--------------------------------*- C++ -*----------------------------------*\
| =========                 |                                                 |
| \\      /  F ield         | OpenFOAM: The Open Source CFD Toolbox           |
|  \\    /   O peration     | Version:  v1806                                 |
|   \\  /    A nd           | Web:      www.OpenFOAM.com                      |
|    \\/     M anipulation  |                                                 |
\*---------------------------------------------------------------------------*/
FoamFile
{
    version     2.0;
    format      ascii;
    class       surfaceScalarField;
    location    "573";
    object      phi;
}
// * * * * * * * * * * * * * * * * * * * * * * * * * * * * * * * * * * * * * //

dimensions      [0 3 -1 0 0 0 0];
oriented        oriented;


internalField   nonuniform List<scalar> 
12640
(
-2.26076075764e-07
2.2648681855e-07
-4.28492756637e-07
2.02746495353e-07
-6.02492891305e-07
1.74243953999e-07
-7.46731002404e-07
1.44429566822e-07
-8.51751953317e-07
1.05191394113e-07
-9.16706710807e-07
6.51347649788e-08
-9.6177040963e-07
4.5234001236e-08
-1.03077331765e-06
6.91559670308e-08
-1.1250900202e-06
9.44543375727e-08
-1.21291319792e-06
8.7940771952e-08
-1.29285231499e-06
8.00328625956e-08
-1.37505465205e-06
8.2285209677e-08
-1.44761900405e-06
7.26382679239e-08
-1.50601527037e-06
5.84652736529e-08
-1.5582615868e-06
5.23118109027e-08
-1.61782652902e-06
5.96329330878e-08
-1.67897926823e-06
6.12169129713e-08
-1.72913512029e-06
5.02172168289e-08
-1.76672477775e-06
3.76387390235e-08
-1.80054044318e-06
3.38574584337e-08
-1.84739129253e-06
4.68867528637e-08
-1.90834842056e-06
6.09919385783e-08
-1.97142596185e-06
6.31086730791e-08
-2.03062675146e-06
5.92314927468e-08
-2.08389726796e-06
5.32978349747e-08
-2.131328265e-06
4.74584895884e-08
-2.17526928268e-06
4.3965749365e-08
-2.21456331227e-06
3.9319538516e-08
-2.24803448472e-06
3.34934923312e-08
-2.27692539897e-06
2.89138467884e-08
-2.3043508239e-06
2.74445086391e-08
-2.32915453204e-06
2.48238385633e-08
-2.3492332988e-06
2.00972910773e-08
-2.36900226468e-06
1.97866656618e-08
-2.38865946441e-06
1.96694230088e-08
-2.40694409149e-06
1.82971643582e-08
-2.42584328597e-06
1.89062829508e-08
-2.44315318707e-06
1.73138611575e-08
-2.45610128337e-06
1.29470005763e-08
-2.46584965399e-06
9.74735874878e-09
-2.47756913957e-06
1.17150131481e-08
-2.48648283688e-06
8.90945927031e-09
-2.48324647227e-06
-3.24451095847e-09
-2.47123380924e-06
-1.20225123668e-08
-2.45442984724e-06
-1.68189060038e-08
-2.43201310469e-06
-2.24330220656e-08
-2.40331600571e-06
-2.87186806031e-08
-2.36684928777e-06
-3.64898951128e-08
-2.32252530051e-06
-4.43524265387e-08
-2.27496556039e-06
-4.75893708929e-08
-2.22937773491e-06
-4.56246189529e-08
-2.17788492041e-06
-5.15302533232e-08
-2.10320608246e-06
-7.47208053498e-08
-2.00994037449e-06
-9.33105017475e-08
-1.90009533774e-06
-1.09895014215e-07
-1.76754858075e-06
-1.32599829063e-07
-1.62998801207e-06
-1.3762738077e-07
-1.4926625515e-06
-1.37409643145e-07
-1.33487990219e-06
-1.57886331336e-07
-1.15553968814e-06
-1.79473173773e-07
-9.65834724183e-07
-1.89870162651e-07
-7.42949370118e-07
-2.23086751759e-07
-4.16883024225e-07
-3.26298941806e-07
-1.21434327073e-07
-2.95617109791e-07
6.26636864435e-08
-1.842032612e-07
1.80061024599e-07
-1.17464554183e-07
2.6648476438e-07
-8.64862358787e-08
3.37679063687e-07
-7.12596263183e-08
3.93916112814e-07
-5.63111618522e-08
4.30837751961e-07
-3.70029646135e-08
4.44565955131e-07
-1.38141863888e-08
4.34668451494e-07
9.81226150764e-09
4.03858621689e-07
3.07290941482e-08
3.50544652431e-07
5.32350598867e-08
2.92937279758e-07
5.75305903044e-08
2.34899654036e-07
5.79644580549e-08
1.89999597975e-07
4.48209673067e-08
1.34954065622e-07
5.49728281236e-08
8.25104612027e-08
5.23175209047e-08
8.24333616806e-08
-1.1789362309e-07
3.44580867953e-07
-2.73213306838e-07
3.58292190027e-07
-4.21908843361e-07
3.23119819363e-07
-5.74342853488e-07
2.97010820407e-07
-7.62625579157e-07
2.93640857173e-07
-9.04328578317e-07
2.07000168838e-07
-9.84842305476e-07
1.25916764405e-07
-1.05989446955e-06
1.44362177362e-07
-1.14198204458e-06
1.76680513666e-07
-1.23063629331e-06
1.76705933956e-07
-1.31455550369e-06
1.64051795917e-07
-1.38394213477e-06
1.51751480226e-07
-1.44572978815e-06
1.34505691985e-07
-1.50380258295e-06
1.16612253922e-07
-1.55927560657e-06
1.07866272811e-07
-1.62089766852e-06
1.21326008102e-07
-1.67709724857e-06
1.17486208753e-07
-1.70627072362e-06
7.9440175732e-08
-1.7305765905e-06
6.19908152503e-08
-1.77189563279e-06
7.52107111435e-08
-1.83124369033e-06
1.06272598083e-07
-1.90525192449e-06
1.35029949156e-07
-1.97576958437e-06
1.33662378086e-07
-2.031087379e-06
1.14576016912e-07
-2.0811642674e-06
1.03406934603e-07
-2.13228903345e-06
9.86067474028e-08
-2.17698458731e-06
8.86911719384e-08
-2.21452029854e-06
7.6876319247e-08
-2.24769633533e-06
6.66969307541e-08
-2.27722273696e-06
5.845869637e-08
-2.30254958808e-06
5.27965282717e-08
-2.32439275725e-06
4.66846728058e-08
-2.34166904181e-06
3.73958266616e-08
-2.35956869859e-06
3.76996171637e-08
-2.38271227618e-06
4.28318104338e-08
-2.40198378562e-06
3.75745937598e-08
-2.41932978858e-06
3.62618993514e-08
-2.44094014893e-06
3.8923572265e-08
-2.46322265887e-06
3.52336273109e-08
-2.4765951659e-06
2.3114377143e-08
-2.46321979222e-06
-1.65914498016e-09
-2.43469579837e-06
-1.9622506822e-08
-2.41815837793e-06
-1.9785573677e-08
-2.41030170357e-06
-1.98935726244e-08
-2.40156370189e-06
-2.55677570454e-08
-2.38992503623e-06
-3.40927814517e-08
-2.37235018625e-06
-4.6311043226e-08
-2.34851102519e-06
-6.03564715375e-08
-2.31669986312e-06
-7.6188121945e-08
-2.26884087561e-06
-9.54824852212e-08
-2.19881463678e-06
-1.15681999482e-07
-2.12228557252e-06
-1.28099391335e-07
-2.06689589003e-06
-1.30150113231e-07
-2.00121725741e-06
-1.59038608156e-07
-1.90423126012e-06
-2.06931626658e-07
-1.80143199723e-06
-2.35461712756e-07
-1.68612000843e-06
-2.53011457529e-07
-1.54630532966e-06
-2.77314681359e-07
-1.39147677661e-06
-3.12827362866e-07
-1.21191287829e-06
-3.59178709915e-07
-9.75258080917e-07
-4.26679427539e-07
-7.10257463775e-07
-4.88271863029e-07
-4.06722190821e-07
-6.30039536985e-07
-1.32305346875e-07
-5.70197255967e-07
5.42244670101e-08
-3.70822217107e-07
1.74249919482e-07
-2.3755809214e-07
2.673069332e-07
-1.79599224375e-07
3.47337012239e-07
-1.51354639326e-07
4.08255609858e-07
-1.17301870715e-07
4.44318916718e-07
-7.31490519611e-08
4.50307680061e-07
-1.9888992293e-08
4.29777877512e-07
3.025881584e-08
3.98975932765e-07
6.14492456416e-08
3.67166396481e-07
8.49565077852e-08
3.23798517169e-07
1.00813606631e-07
2.75783626602e-07
1.05890335996e-07
2.18855637983e-07
1.01663341737e-07
1.63342265038e-07
1.103844618e-07
8.65981777366e-08
1.28960292099e-07
1.68945939488e-07
-1.528799696e-07
4.97665988535e-07
-2.30480817397e-07
4.36077548399e-07
-4.10868112807e-07
5.03684310603e-07
-6.17356159485e-07
5.03675603427e-07
-8.04063605404e-07
4.80511150243e-07
-8.99971898138e-07
3.03041343268e-07
-9.47264387569e-07
1.73337729775e-07
-1.03034141573e-06
2.27572825433e-07
-1.12725267352e-06
2.73712190088e-07
-1.22169167349e-06
2.71250645833e-07
-1.30873509213e-06
2.51184241475e-07
-1.38186200637e-06
2.24966239015e-07
-1.44418795784e-06
1.96920299723e-07
-1.50368715069e-06
1.76200579842e-07
-1.5486781026e-06
1.52940245948e-07
-1.53512447944e-06
1.07844096876e-07
-1.48931311314e-06
7.17249083956e-08
-1.49412477178e-06
8.42929716542e-08
-1.56676297735e-06
1.34663168745e-07
-1.69819703385e-06
2.06679887959e-07
-1.83042753358e-06
2.38538372963e-07
-1.91118962021e-06
2.15828985371e-07
-1.96843556197e-06
1.9094016576e-07
-2.02952660886e-06
1.75699399127e-07
-2.08639848566e-06
1.60306861877e-07
-2.13293506408e-06
1.45172184461e-07
-2.17392839177e-06
1.29709317337e-07
-2.21140283642e-06
1.1437712009e-07
-2.24439749448e-06
9.97142596628e-08
-2.27396409785e-06
8.80500843601e-08
-2.2973799149e-06
7.62340229945e-08
-2.31751931329e-06
6.68455401403e-08
-2.33810229174e-06
5.79985946133e-08
-2.34770783856e-06
4.73238728937e-08
-2.3624334747e-06
5.75679346077e-08
-2.39358060523e-06
6.87320425856e-08
-2.41453960301e-06
5.72258312886e-08
-2.43088512021e-06
5.52729374858e-08
-2.4567662917e-06
6.11143024034e-08
-2.47818101925e-06
4.45305537227e-08
-2.49042190598e-06
1.05792248579e-08
-2.49425114493e-06
-1.57959805883e-08
-2.48807737476e-06
-2.59677154978e-08
-2.47567479498e-06
-3.2305028747e-08
-2.45887208982e-06
-4.23847050682e-08
-2.43670407198e-06
-5.62757177698e-08
-2.4093716564e-06
-7.3663828989e-08
-2.37613063371e-06
-9.36188795116e-08
-2.33620114697e-06
-1.16144291981e-07
-2.29026201357e-06
-1.41449192784e-07
-2.23890432127e-06
-1.67072855743e-07
-2.17713490188e-06
-1.89904391341e-07
-2.09189368028e-06
-2.15432726221e-07
-1.99469673655e-06
-2.56280073976e-07
-1.90240555146e-06
-2.99275295803e-07
-1.80118821568e-06
-3.3674066459e-07
-1.67663814208e-06
-3.77634159928e-07
-1.52889445205e-06
-4.25148087747e-07
-1.35943648037e-06
-4.82391078912e-07
-1.16396672683e-06
-5.54770369899e-07
-9.45751160509e-07
-6.45036281863e-07
-6.71239157229e-07
-7.62943250611e-07
-3.97700816568e-07
-9.0373543693e-07
-1.46495437117e-07
-8.21518218308e-07
5.22006557529e-08
-5.69603261187e-07
1.91385703988e-07
-3.76799730397e-07
2.9600903227e-07
-2.84280221458e-07
3.69762788584e-07
-2.25165844222e-07
4.1935360776e-07
-1.66959264615e-07
4.45353746579e-07
-9.92258265589e-08
4.52999192102e-07
-2.76153876987e-08
4.52039331659e-07
3.11364372298e-08
4.35912593952e-07
7.74896266244e-08
3.96453189338e-07
1.24332860322e-07
3.36139159359e-07
1.61039765039e-07
2.69441867943e-07
1.72511634909e-07
2.08823794077e-07
1.62201026267e-07
1.5899655276e-07
1.60145364539e-07
6.94408166312e-08
2.18402083411e-07
2.38366627571e-07
-1.09597680283e-07
6.07406131935e-07
-1.4646252774e-07
4.73064153734e-07
-3.52846135846e-07
7.10236732529e-07
-5.20106358214e-07
6.71108790637e-07
-5.30693130143e-07
4.91222684146e-07
-4.68921065344e-07
2.41329740206e-07
-6.43513836233e-07
3.48003853943e-07
-9.11551506262e-07
4.95715470873e-07
-1.08353894954e-06
4.45807313474e-07
-1.19929262245e-06
3.87101121522e-07
-1.2981799724e-06
3.50167288257e-07
-1.38089303365e-06
3.07775634412e-07
-1.43721228965e-06
2.53334187605e-07
-1.43348647834e-06
1.72562822489e-07
-1.38305228552e-06
1.02577847178e-07
-1.36377744881e-06
8.86209767802e-08
-1.41781942474e-06
1.25808138282e-07
-1.53955015306e-06
2.06059960681e-07
-1.68774194696e-06
2.82893471444e-07
-1.79006589128e-06
3.09043702621e-07
-1.8492520629e-06
2.97764031423e-07
-1.91181517734e-06
2.78427777128e-07
-1.97599915465e-06
2.5515871645e-07
-2.0320116173e-06
2.31742955067e-07
-2.08191385584e-06
2.10239715208e-07
-2.12680027181e-06
1.90085894028e-07
-2.16880054976e-06
1.71737238542e-07
-2.20649337765e-06
1.52094186141e-07
-2.24031014275e-06
1.33556384475e-07
-2.26751477446e-06
1.15278539522e-07
-2.29295402061e-06
1.01697194144e-07
-2.30965097712e-06
8.35650993593e-08
-2.31877709881e-06
6.71435330251e-08
-2.34626945113e-06
7.48303933981e-08
-2.37016665801e-06
8.14777805975e-08
-2.391094476e-06
8.96672373063e-08
-2.43158571184e-06
9.77229456973e-08
-2.4655127171e-06
8.92034540764e-08
-2.47869014024e-06
7.42957765864e-08
-2.48457411303e-06
5.04152103367e-08
-2.49156921345e-06
1.75736971146e-08
-2.49598066224e-06
-1.13889122599e-08
-2.49229269969e-06
-2.96608068085e-08
-2.48111664799e-06
-4.34896842039e-08
-2.46428597346e-06
-5.92251894668e-08
-2.44207951426e-06
-7.84959316619e-08
-2.41450489705e-06
-1.01253993226e-07
-2.38107558731e-06
-1.27068039478e-07
-2.34131188121e-06
-1.55929894226e-07
-2.29505058945e-06
-1.87736676549e-07
-2.24084327685e-06
-2.2130852913e-07
-2.17446324254e-06
-2.56316972744e-07
-2.09323711605e-06
-2.9669489575e-07
-2.00369980568e-06
-3.45860064626e-07
-1.90528103006e-06
-3.97744340881e-07
-1.79060383739e-06
-4.51475492775e-07
-1.65526889435e-06
-5.13040241712e-07
-1.49558339225e-06
-5.84912319603e-07
-1.30798283632e-06
-6.7008509295e-07
-1.08999314665e-06
-7.7286145116e-07
-8.42096027569e-07
-8.93038729545e-07
-5.84196903437e-07
-1.02095489282e-06
-3.90603100826e-07
-1.09744420351e-06
-1.66081782126e-07
-1.046148067e-06
6.74102475144e-08
-8.03166704601e-07
2.17968963546e-07
-5.27419538215e-07
3.24515134551e-07
-3.90871436215e-07
4.06958284669e-07
-3.07662348558e-07
4.66429808491e-07
-2.26494311048e-07
5.04905064257e-07
-1.37774160826e-07
5.20735714169e-07
-4.35253525191e-08
5.03788786909e-07
4.80034569819e-08
4.47615680057e-07
1.33590682994e-07
3.73852300113e-07
1.98024969339e-07
3.00841981423e-07
2.33989899499e-07
2.228167745e-07
2.50465704479e-07
1.5004803813e-07
2.34920055187e-07
1.00236698026e-07
2.09905554582e-07
5.11582976203e-08
2.67455098073e-07
2.89483442704e-07
-2.21774018457e-08
6.29683528955e-07
-1.3059500815e-07
5.81578757426e-07
-2.98313111896e-07
8.78100399626e-07
-4.19345544589e-07
7.92280164596e-07
-3.9708268366e-07
4.69043957159e-07
-4.92543945434e-07
3.36843668103e-07
-7.1473495299e-07
5.7027103825e-07
-8.85681556676e-07
6.66759530445e-07
-1.02724666995e-06
5.874682773e-07
-1.15498904442e-06
5.14941050566e-07
-1.27040669766e-06
4.65687873785e-07
-1.33077214455e-06
3.68235098336e-07
-1.30741141004e-06
2.30057193585e-07
-1.27918885002e-06
1.4440571961e-07
-1.31875738906e-06
1.42196862172e-07
-1.41804979764e-06
1.87957624477e-07
-1.5534645033e-06
2.61264763519e-07
-1.67263832963e-06
3.25276304473e-07
-1.73916351598e-06
3.49461720965e-07
-1.78535664798e-06
3.55279173469e-07
-1.8463804973e-06
3.58828032171e-07
-1.91210423957e-06
3.44189394732e-07
-1.97291744731e-06
3.16006642571e-07
-2.02697510962e-06
2.85833845159e-07
-2.07549223273e-06
2.58787176144e-07
-2.12135301922e-06
2.35976483247e-07
-2.16134497356e-06
2.11754809154e-07
-2.19970316403e-06
1.90478814327e-07
-2.23083588525e-06
1.64715363909e-07
-2.25803218017e-06
1.42501074725e-07
-2.27386245525e-06
1.17551456613e-07
-2.29589828078e-06
1.05621078825e-07
-2.332645309e-06
1.03907170528e-07
-2.35297430952e-06
9.5172340926e-08
-2.38255024068e-06
1.11062886789e-07
-2.42316236709e-06
1.30287656727e-07
-2.45200569865e-06
1.265733304e-07
-2.47185863184e-06
1.09063147359e-07
-2.48351318867e-06
8.59547325319e-08
-2.49056861009e-06
5.74734519081e-08
-2.49710292871e-06
2.4107938402e-08
-2.50107337219e-06
-7.42007206258e-09
-2.49834371781e-06
-3.23945586172e-08
-2.48822209341e-06
-5.36166009791e-08
-2.47183004003e-06
-7.5625029654e-08
-2.44977685641e-06
-1.00558634089e-07
-2.42212626479e-06
-1.28917242622e-07
-2.38850899724e-06
-1.60700348202e-07
-2.34839236532e-06
-1.96065056018e-07
-2.30101294198e-06
-2.35137013977e-07
-2.24455469616e-06
-2.77791112518e-07
-2.17622200646e-06
-3.24677176198e-07
-2.09506941827e-06
-3.77879831376e-07
-2.00290565517e-06
-4.38062270177e-07
-1.89727179242e-06
-5.03422054527e-07
-1.77235011295e-06
-5.76451752615e-07
-1.62311580924e-06
-6.62330992197e-07
-1.44461109236e-06
-7.63485879616e-07
-1.23399419941e-06
-8.8077141164e-07
-9.95467313119e-07
-1.01146100256e-06
-7.45977125408e-07
-1.1426043316e-06
-5.23614418483e-07
-1.24339770319e-06
-3.60242943926e-07
-1.2609007098e-06
-1.30579756056e-07
-1.27588527366e-06
9.17759200918e-08
-1.02560350658e-06
2.5808422081e-07
-6.93771263854e-07
3.79933610512e-07
-5.12771887092e-07
4.69866203961e-07
-3.97643972211e-07
5.34501300199e-07
-2.91184865027e-07
5.78209103818e-07
-1.81546026934e-07
5.82322806262e-07
-4.77063930731e-08
5.2733947095e-07
1.02926056895e-07
4.44213222103e-07
2.16662435134e-07
3.57956043847e-07
2.84234205649e-07
2.69059288903e-07
3.22827641738e-07
1.84061289953e-07
3.35425904042e-07
1.28647708723e-07
2.90298108702e-07
7.99440305918e-08
2.58585709228e-07
3.26030781536e-08
3.14730154887e-07
3.22080070047e-07
-1.10678323679e-08
6.40805497028e-07
-1.60155886572e-07
7.30751775499e-07
-2.53855895391e-07
9.71921281418e-07
-3.12372791481e-07
8.50895251945e-07
-3.07464587058e-07
4.64188678114e-07
-5.37835347772e-07
5.67277048036e-07
-7.58083059717e-07
7.90605282489e-07
-8.63831950728e-07
7.72595313787e-07
-9.82071779477e-07
7.05801511879e-07
-1.09228073247e-06
6.25253555184e-07
-1.14784825721e-06
5.21351029864e-07
-1.10427218949e-06
3.24736199612e-07
-1.09771938412e-06
2.23560650521e-07
-1.17295205404e-06
2.19683678856e-07
-1.29826841205e-06
2.67554883064e-07
-1.46094926625e-06
3.50680874232e-07
-1.59990551333e-06
4.00266495904e-07
-1.66960353828e-06
3.95021694066e-07
-1.71412111307e-06
3.94025152062e-07
-1.78040418287e-06
4.21606498918e-07
-1.84839479304e-06
4.26860554893e-07
-1.90823602349e-06
4.040695199e-07
-1.96530974323e-06
3.73116684888e-07
-2.02097044693e-06
3.41527450864e-07
-2.07087063196e-06
3.08719192971e-07
-2.10737331916e-06
2.7250784438e-07
-2.14859842192e-06
2.53008508693e-07
-2.18406607402e-06
2.2597384155e-07
-2.21606815481e-06
1.96743592501e-07
-2.23044373593e-06
1.56901778866e-07
-2.24831072709e-06
1.35441252936e-07
-2.27468269641e-06
1.32011476043e-07
-2.30061708407e-06
1.29855244956e-07
-2.35709894868e-06
1.51664987513e-07
-2.40880776394e-06
1.62781333366e-07
-2.44092803891e-06
1.62417532563e-07
-2.46224696103e-06
1.47901723783e-07
-2.47809839723e-06
1.24922855758e-07
-2.48952451454e-06
9.73876629137e-08
-2.49783915743e-06
6.57923743354e-08
-2.50450972942e-06
3.07805456829e-08
-2.50816184493e-06
-3.76807457835e-09
-2.50593566282e-06
-3.46220309236e-08
-2.49673570972e-06
-6.28192659348e-08
-2.48102466083e-06
-9.13400879688e-08
-2.4593232216e-06
-1.22266074687e-07
-2.431720803e-06
-1.56527631965e-07
-2.39785185034e-06
-1.94579830472e-07
-2.35704462292e-06
-2.36885280148e-07
-2.30825701953e-06
-2.83940496223e-07
-2.2497821877e-06
-3.36284616292e-07
-2.17962591742e-06
-3.94855726267e-07
-2.0966511669e-06
-4.60881805948e-07
-1.99975972876e-06
-5.34985711631e-07
-1.8848899519e-06
-6.1833186748e-07
-1.74617418822e-06
-7.15207668479e-07
-1.57853707258e-06
-8.30017657099e-07
-1.37904048918e-06
-9.63027563683e-07
-1.15073171537e-06
-1.10913125316e-06
-9.0749798268e-07
-1.25474329564e-06
-6.74524451253e-07
-1.37562965345e-06
-4.75933130051e-07
-1.44204518376e-06
-2.98042701957e-07
-1.43885013268e-06
-9.25592552796e-08
-1.48145461604e-06
1.21930366109e-07
-1.24013686723e-06
2.89715876509e-07
-8.61612495021e-07
4.37702374746e-07
-6.60796610605e-07
5.56048743491e-07
-5.16037204305e-07
6.42727934642e-07
-3.77913653726e-07
6.85115312253e-07
-2.23986227034e-07
6.46376539581e-07
-9.01830140025e-09
5.55265599389e-07
1.93994536595e-07
4.52364190442e-07
3.19525314843e-07
3.44703305774e-07
3.9185225339e-07
2.40521400576e-07
4.26981494175e-07
1.6327526963e-07
4.12635097535e-07
1.05505729983e-07
3.48039752864e-07
5.89092201966e-08
3.0514376498e-07
2.59049253694e-08
3.4772358885e-07
3.47950094957e-07
-6.16166452526e-08
7.02488419431e-07
-2.34035256148e-07
9.03255086913e-07
-3.16051094833e-07
1.05404299683e-06
-2.79555504328e-07
8.14482308438e-07
-3.70731688434e-07
5.55417189063e-07
-6.2166296039e-07
8.18282277263e-07
-7.45231687902e-07
9.14256544001e-07
-8.36794935345e-07
8.64246362375e-07
-9.20703686445e-07
7.89803117173e-07
-1.03238281543e-06
7.37026828295e-07
-1.02407444082e-06
5.13125626258e-07
-1.00275082684e-06
3.03467181251e-07
-1.07722001071e-06
2.98074100273e-07
-1.18392298577e-06
3.26423754362e-07
-1.34315665258e-06
4.26829125869e-07
-1.49642389037e-06
5.03996940227e-07
-1.57326426468e-06
4.7715702802e-07
-1.62075643055e-06
4.42561084942e-07
-1.69978175027e-06
4.7309674126e-07
-1.77792892946e-06
4.99799224902e-07
-1.84185991416e-06
4.90834634835e-07
-1.9019942716e-06
4.64244352514e-07
-1.96030946946e-06
4.31467646733e-07
-2.00996115523e-06
3.91213664303e-07
-2.05049684904e-06
3.49287539908e-07
-2.09048719729e-06
3.12527746364e-07
-2.1211353885e-06
2.83684927092e-07
-2.15778402989e-06
2.62648879534e-07
-2.18192138951e-06
2.20907058992e-07
-2.19843261233e-06
1.73436874728e-07
-2.22988261117e-06
1.66911293996e-07
-2.26796726431e-06
1.70112778229e-07
-2.320665053e-06
1.82565587726e-07
-2.3723590333e-06
2.03370085459e-07
-2.42167167593e-06
2.12105719594e-07
-2.45118094522e-06
1.91938767699e-07
-2.47007351956e-06
1.66805488495e-07
-2.4850529583e-06
1.39912372238e-07
-2.49722865137e-06
1.09571553924e-07
-2.50667267459e-06
7.52427003388e-08
-2.5136984069e-06
3.78105927474e-08
-2.51729192932e-06
-1.71570379566e-10
-2.51544297212e-06
-3.64692061309e-08
-2.5070232325e-06
-7.12380732208e-08
-2.49205127561e-06
-1.06312282381e-07
-2.4708117367e-06
-1.43507053592e-07
-2.44329303609e-06
-1.84049396138e-07
-2.4090712206e-06
-2.28806511007e-07
-2.3673945019e-06
-2.78569129404e-07
-2.31716059051e-06
-3.34184078662e-07
-2.25680850846e-06
-3.9664965467e-07
-2.1844730534e-06
-4.67208329058e-07
-2.09809668303e-06
-5.47280401355e-07
-1.99446659433e-06
-6.38644068104e-07
-1.86822773531e-06
-7.44600323506e-07
-1.71354128634e-06
-8.69930236473e-07
-1.52693214062e-06
-1.01665584026e-06
-1.31015907151e-06
-1.17983773327e-06
-1.07397087302e-06
-1.34535180411e-06
-8.37462184227e-07
-1.49129010003e-06
-6.25533638522e-07
-1.58759776479e-06
-4.47499538927e-07
-1.62012778797e-06
-2.58582400567e-07
-1.62783574265e-06
-1.11901966169e-07
-1.62817648599e-06
1.41164252733e-07
-1.49327163997e-06
3.49509966139e-07
-1.06998854413e-06
5.39434245188e-07
-8.50767758452e-07
7.02682071094e-07
-6.793265442e-07
8.04637399169e-07
-4.79911201849e-07
8.09607245563e-07
-2.28995240315e-07
7.24489245656e-07
7.60675852281e-08
6.06197811548e-07
3.12255811625e-07
4.69852266926e-07
4.55841502246e-07
3.31002029558e-07
5.30677498948e-07
2.12501377568e-07
5.45449032005e-07
1.39883920637e-07
4.8522862758e-07
7.61232323609e-08
4.11775991037e-07
3.06875971611e-08
3.50558025492e-07
1.49802725777e-08
3.63366580581e-07
3.62922533388e-07
-1.10213274088e-07
8.12755120984e-07
-2.58766068845e-07
1.05189235003e-06
-2.98716170312e-07
1.09406803165e-06
-2.18724480287e-07
7.34539793616e-07
-4.13268234809e-07
7.50018163972e-07
-6.17986645064e-07
1.02307898894e-06
-7.13389567523e-07
1.00974295821e-06
-8.1199919186e-07
9.62942750591e-07
-8.43232289686e-07
8.21125132592e-07
-8.84028244438e-07
7.77904007916e-07
-8.65073712154e-07
4.94224610317e-07
-9.68792417453e-07
4.07228597693e-07
-1.06710350119e-06
3.96420784572e-07
-1.21299709671e-06
4.72356268431e-07
-1.37555486434e-06
5.89434431698e-07
-1.46385961649e-06
5.92352497908e-07
-1.51279756748e-06
5.26144267916e-07
-1.60066427037e-06
5.30475752255e-07
-1.69483780807e-06
5.67318196232e-07
-1.76641518367e-06
5.71423474809e-07
-1.82720484545e-06
5.51668385321e-07
-1.88591448115e-06
5.2299272335e-07
-1.94763419451e-06
4.93225322923e-07
-2.00602107541e-06
4.49636955894e-07
-2.04154964006e-06
3.84846990995e-07
-2.0846101168e-06
3.55619205418e-07
-2.11756823522e-06
3.1667143548e-07
-2.12899754073e-06
2.74104903886e-07
-2.15242346496e-06
2.44356829365e-07
-2.21448364502e-06
2.3551850494e-07
-2.25747420573e-06
2.09921210655e-07
-2.27960322119e-06
1.922560667e-07
-2.33423821482e-06
2.37213722755e-07
-2.3958891228e-06
2.65034196506e-07
-2.43149667817e-06
2.47726930923e-07
-2.45714209787e-06
2.17597748178e-07
-2.47709189368e-06
1.86768171701e-07
-2.49320270797e-06
1.5603488262e-07
-2.50647452085e-06
1.2285363346e-07
-2.51700512824e-06
8.57818834656e-08
-2.52459198081e-06
4.54045301545e-08
-2.52839324095e-06
3.63560720013e-09
-2.52699270455e-06
-3.78644877286e-08
-2.51933681255e-06
-7.88892788431e-08
-2.5051319388e-06
-1.20512995129e-07
-2.48439422148e-06
-1.64241356163e-07
-2.45695372362e-06
-2.11487467594e-07
-2.42231326843e-06
-2.6344597421e-07
-2.37970778609e-06
-3.21175566724e-07
-2.32807375698e-06
-3.85821817353e-07
-2.26589266708e-06
-4.58838297749e-07
-2.19101255629e-06
-5.42100715394e-07
-2.10025532447e-06
-6.38055982022e-07
-1.98878052948e-06
-7.50139855792e-07
-1.85045548846e-06
-8.82952921117e-07
-1.68035636614e-06
-1.04004649261e-06
-1.47808907246e-06
-1.21895117748e-06
-1.24889315938e-06
-1.40905433433e-06
-1.00589272627e-06
-1.58838743459e-06
-7.69395359067e-07
-1.7278226597e-06
-5.63483676867e-07
-1.79355367848e-06
-3.92687429273e-07
-1.79097440579e-06
-2.4642603803e-07
-1.77413700225e-06
-1.22928141032e-07
-1.75174933948e-06
1.04519522712e-07
-1.72075838612e-06
4.21003549033e-07
-1.38652879111e-06
6.62083432397e-07
-1.09188077366e-06
8.61934460987e-07
-8.7921489745e-07
9.69718963603e-07
-5.87729245747e-07
9.49310761325e-07
-2.08614395606e-07
8.38893026182e-07
1.86458620077e-07
6.7764684233e-07
4.73479314457e-07
4.88219727525e-07
6.45242748692e-07
3.08618189288e-07
7.1025177669e-07
1.76275367553e-07
6.77768235598e-07
9.00672946327e-08
5.71410824272e-07
2.98034255665e-08
4.72004442222e-07
-9.75405222205e-09
3.90074158748e-07
-9.755479427e-09
3.63359490062e-07
3.53149305208e-07
-1.41018697527e-07
9.53849781757e-07
-2.52554623482e-07
1.16351010945e-06
-2.47510973305e-07
1.08909796205e-06
-2.70992721838e-07
7.58070397622e-07
-4.85050292827e-07
9.64139607061e-07
-5.81610356305e-07
1.1197185944e-06
-6.71199957677e-07
1.0994173254e-06
-7.66264576917e-07
1.05808847857e-06
-8.06127414916e-07
8.61060093406e-07
-8.48089777991e-07
8.19938415048e-07
-8.75310678648e-07
5.21487149253e-07
-9.68067686808e-07
5.00020452958e-07
-1.08363258125e-06
5.12019879342e-07
-1.2450772959e-06
6.33841965496e-07
-1.38206286863e-06
7.26471984008e-07
-1.44295761302e-06
6.53301278349e-07
-1.50144566541e-06
5.84681386328e-07
-1.59173553933e-06
6.20813969542e-07
-1.67856108173e-06
6.54192543368e-07
-1.75168290074e-06
6.44591495136e-07
-1.81481747317e-06
6.14844167426e-07
-1.86759002651e-06
5.75806281564e-07
-1.91453417253e-06
5.40210314044e-07
-1.96395061999e-06
4.99087953643e-07
-2.00772002279e-06
4.28650221128e-07
-2.0392795678e-06
3.8720931972e-07
-2.08488286484e-06
3.62301406995e-07
-2.13382405961e-06
3.23072786008e-07
-2.17573642467e-06
2.86293336197e-07
-2.2100457806e-06
2.69848158978e-07
-2.25348843052e-06
2.5337917467e-07
-2.32728560035e-06
2.6606713763e-07
-2.37446798706e-06
2.84409572502e-07
-2.4077790532e-06
2.98359867014e-07
-2.43768051474e-06
2.77644020761e-07
-2.46349017826e-06
2.4342286181e-07
-2.48500526357e-06
2.08297740925e-07
-2.50258230659e-06
1.73625282385e-07
-2.51701490568e-06
1.37298324817e-07
-2.5286328565e-06
9.74107991786e-08
-2.53707380107e-06
5.38554857052e-08
-2.54145563887e-06
8.02691078475e-09
-2.54068232082e-06
-3.8628698601e-08
-2.53386025962e-06
-8.57022882922e-08
-2.52048791063e-06
-1.33876388982e-07
-2.50028529065e-06
-1.8443516969e-07
-2.4729182813e-06
-2.38846219151e-07
-2.43785356449e-06
-2.98503514294e-07
-2.39436267389e-06
-3.64661182717e-07
-2.34146117524e-06
-4.38721532694e-07
-2.27762422708e-06
-5.22677657559e-07
-2.20029594762e-06
-6.19438924132e-07
-2.10528008192e-06
-7.33085462932e-07
-1.98658973377e-06
-8.68853595306e-07
-1.83786366952e-06
-1.03169024869e-06
-1.65551588407e-06
-1.22241815529e-06
-1.44100827077e-06
-1.43347470731e-06
-1.19647458817e-06
-1.65362387729e-06
-9.35837704339e-07
-1.84906023519e-06
-6.87384409091e-07
-1.97632099648e-06
-4.86656970771e-07
-1.99432344318e-06
-3.42010097839e-07
-1.93566424638e-06
-2.1916669601e-07
-1.89704602448e-06
-8.17978607862e-08
-1.88916322764e-06
7.28953604333e-08
-1.87552827809e-06
4.2104049316e-07
-1.73471874414e-06
8.21301336628e-07
-1.49219042238e-06
1.07443429329e-06
-1.13238308306e-06
1.20020799212e-06
-7.13533076006e-07
1.15988291916e-06
-1.68317469059e-07
1.00659786463e-06
3.3972068594e-07
7.68721379733e-07
7.11327215087e-07
4.99153566921e-07
9.14784978078e-07
2.63488586852e-07
9.45888268678e-07
1.01681214076e-07
8.39550468969e-07
-2.25164786039e-09
6.75309207357e-07
-5.01383588866e-08
5.19868346706e-07
-6.36276701479e-08
4.03550448686e-07
-4.14930477655e-08
3.41194455019e-07
3.11660720888e-07
-1.60088450174e-07
1.11399274651e-06
-2.64313577089e-07
1.26780613637e-06
-2.27972300941e-07
1.05281443805e-06
-3.2209144702e-07
8.52245060926e-07
-5.0407000627e-07
1.1461929431e-06
-5.46091359294e-07
1.16181902426e-06
-6.2239091547e-07
1.17579466491e-06
-6.6864101026e-07
1.10441189476e-06
-7.44695023767e-07
9.37174871761e-07
-7.55167241742e-07
8.3045839169e-07
-8.46496751933e-07
6.12852091197e-07
-9.59977489739e-07
6.13532828993e-07
-1.08739899585e-06
6.3947731134e-07
-1.23553092187e-06
7.82021536711e-07
-1.32501116931e-06
8.16004385135e-07
-1.37202863341e-06
7.00367366879e-07
-1.46755971452e-06
6.80260690487e-07
-1.56828600956e-06
7.21589504567e-07
-1.65198400315e-06
7.37938576925e-07
-1.72926773656e-06
7.21920155143e-07
-1.80194577267e-06
6.87567242876e-07
-1.86513514681e-06
6.39038853451e-07
-1.90434484474e-06
5.79457377216e-07
-1.93577290849e-06
5.30552742742e-07
-1.99608634781e-06
4.88996104016e-07
-2.03437386217e-06
4.25525416215e-07
-2.04736733501e-06
3.75324787681e-07
-2.07492934856e-06
3.50660930824e-07
-2.12895041227e-06
3.40336212998e-07
-2.19981931425e-06
3.4073548411e-07
-2.26635185841e-06
3.19926168377e-07
-2.3219601422e-06
3.21687998529e-07
-2.38198047609e-06
3.44444025407e-07
-2.41799491724e-06
3.3439097736e-07
-2.44561466656e-06
3.05281022285e-07
-2.47134893264e-06
2.6917376097e-07
-2.49423647285e-06
2.31201095862e-07
-2.5133486108e-06
1.92752403714e-07
-2.52897189619e-06
1.52935870305e-07
-2.54162587838e-06
1.1007837959e-07
-2.55107897975e-06
6.33217315347e-08
-2.55640102415e-06
1.33618312559e-08
-2.5565492628e-06
-3.84673649937e-08
-2.55071187702e-06
-9.15262171301e-08
-2.53829471831e-06
-1.46279598863e-07
-2.51876295116e-06
-2.03952828854e-07
-2.49155807821e-06
-2.66037167774e-07
-2.45612143717e-06
-3.33927444804e-07
-2.41186687526e-06
-4.08905485018e-07
-2.35799135774e-06
-4.92591172779e-07
-2.29305514047e-06
-5.87614956854e-07
-2.21426863514e-06
-6.98231866743e-07
-2.1167699124e-06
-8.30602953922e-07
-1.99379814487e-06
-9.91834967758e-07
-1.8388363706e-06
-1.18666453464e-06
-1.64836786949e-06
-1.41289776301e-06
-1.42246850301e-06
-1.65938927736e-06
-1.149286559e-06
-1.92684697968e-06
-8.54748927824e-07
-2.14365202612e-06
-5.88227541234e-07
-2.24290206234e-06
-4.02433383391e-07
-2.18017354653e-06
-2.97099614228e-07
-2.04104540442e-06
-1.89332474294e-07
-2.00484469154e-06
-2.68149247772e-08
-2.05173971395e-06
1.82849604517e-07
-2.08523450506e-06
5.07986078344e-07
-2.05991902185e-06
9.39677795277e-07
-1.92392991331e-06
1.31639369055e-06
-1.50914105797e-06
1.49201954566e-06
-8.89191470541e-07
1.45822747545e-06
-1.34552372675e-07
1.23607504641e-06
5.61842938039e-07
8.72948395601e-07
1.07442554926e-06