/*--------------------------------*- C++ -*----------------------------------*\
| =========                 |                                                 |
| \\      /  F ield         | OpenFOAM: The Open Source CFD Toolbox           |
|  \\    /   O peration     | Version:  v1806                                 |
|   \\  /    A nd           | Web:      www.OpenFOAM.com                      |
|    \\/     M anipulation  |                                                 |
\*---------------------------------------------------------------------------*/
FoamFile
{
    version     2.0;
    format      ascii;
    class       volScalarField;
    location    "269";
    object      alpha;
}
// * * * * * * * * * * * * * * * * * * * * * * * * * * * * * * * * * * * * * //

dimensions      [0 0 -1 0 0 0 0];


internalField   nonuniform List<scalar> 
6400
(
0.83918312511
1.27057650456
1.95696600931
2.27494225751
2.59174331329
2.9450029006
3.523484315
4.19914041181
4.35710370876
4.71157682139
5.8326260832
6.36675760444
6.76806777848
7.29956324423
8.08774016234
8.8986879821
9.51156153408
10.100435236
10.6228314659
10.8498097204
10.7785825174
10.7399314107
10.9815713765
11.5574613741
12.23118158
12.7972619174
13.172008766
13.4989972378
13.9126035776
14.424255735
14.9809154521
15.3189584164
15.3741131094
15.3199418102
15.1677080182
14.8170321697
14.654557281
14.9096769008
14.686159699
14.1300069706
14.0224835409
14.5410327674
15.1055651471
15.3743572642
15.4333823376
15.3441187993
15.1834898032
15.0165803191
14.8499148378
14.6937500346
14.3914744816
13.5479280003
12.643449963
11.6128820766
11.0335489221
11.138911559
10.7494045647
9.2801532288
7.5880088377
6.83826865838
5.8514086497
4.78766903733
3.71990512813
5.39094557061
9.486358188
14.4537612719
17.4676904285
17.1956150288
15.2073767146
13.5346491475
12.5856542078
12.6685787874
13.0925722088
12.9020090457
14.821463792
14.2223556778
16.0234514332
9.92811544264
12.8799338899
4.81876122612
3.08909591627
2.40257624123
2.94389676756
4.14177549989
3.82653049871
3.45144561931
3.47416721409
3.75808930339
4.20350976497
4.7935656402
5.54676081531
6.29759225495
6.93562978969
7.54425626609
8.15077581336
8.86369748407
9.60912094072
10.3630664929
11.4055275792
11.4165257714
11.0711478633
10.9356360798
11.0547417996
11.568941315
12.4982000164
12.9402055222
13.2545871254
13.6537400489
14.1025056681
14.576679794
15.0745179746
15.6028802571
15.6627662134
15.6273445915
15.5600659481
14.9924444595
14.9626400703
15.2279180026
14.8615256329
13.9951394714
13.8188079917
15.8606846586
17.1724878498
17.2787656861
17.2241705384
16.8971498607
16.412685947
16.0091643498
15.4038153991
14.8733806966
14.7442402283
15.1456092455
14.7810137213
11.8355908138
11.5254307778
11.0583948926
9.32971719995
7.95698286408
6.79772213721
5.6745515299
4.76880180176
5.17142365594
3.9877862534
5.61267398817
9.54971937595
15.3810917266
19.1237783261
17.9507424894
15.7963265852
13.8513205222
13.0605179099
13.3584547755
14.3255625676
13.6999851685
13.4818111159
12.9032052527
11.6572664581
9.78646933697
8.20544944226
4.29348596595
3.06412362966
2.60725679472
3.09515887978
3.19470365425
3.478660081
3.78847947041
3.71044055949
3.70006936844
4.12895606205
4.77774941606
5.52318171826
6.29322794387
6.98539786421
7.60799478113
8.077008933
8.71384422345
11.8277097809
13.9510563664
14.1792572646
13.1737850649
10.9218050881
10.4180572059
11.2569223227
11.8339857587
12.3069834391
12.8891443639
13.3894207184
13.7943479647
14.2208203012
14.7176670261
15.1491894006
15.8485294461
15.9594633856
15.4761197305
16.1236267042
15.5790173598
14.8056705113
15.5666450798
15.1561461277
14.2529139554
14.0594446688
14.6283416058
15.2391389113
15.5350049199
15.6173125933
15.5715979523
15.4332457664
15.2229220955
14.9414604795
14.6147536657
14.2470838991
13.7431525366
13.0102937065
12.4625882248
12.0749129055
10.686760647
9.23789510408
8.01912174444
6.92935313714
5.96172652236
5.23226245499
4.5404626946
4.13595742782
6.44465852816
11.5587350043
16.243754665
18.5621556635
18.6953405511
17.1029163784
15.39650837
14.6345331863
14.4619019705
13.7565787803
13.115392902
13.0178541136
12.6031892814
11.5642662388
9.91456128583
7.48217189161
7.64252945207
2.86906626582
5.33171631469
3.22090872858
3.19392413477
3.82104070195
11.7084015349
10.0252222938
4.4872329881
4.14357062537
4.80315611247
5.54737519686
6.32412242913
6.99359250839
7.70310625049
9.66823527459
11.9721558513
13.6168627084
13.7430581925
11.9898788999
10.3855982306
10.412675111
10.6929599787
11.0945454119
11.7142534535
12.4008911783
13.0497839412
13.6023267149
13.9597588835
14.4581407634
14.8008862825
15.5497094799
15.7848079521
16.5030345825
16.1713723217
15.2735567251
15.8015781689
15.1542999972
14.4616491155
14.3665830182
14.3310414823
14.4265816516
14.8082818393
15.2559209287
15.5448436982
15.6638626054
15.6514683184
15.5376246677
15.3436425917
15.0793830207
14.7561537226
14.3690028946
13.8852754061
13.2911680022
12.6456304586
11.8321538206
10.6850422492
9.38845547237
8.20042883078
7.18998050834
6.37220555962
5.76334690838
5.33529110994
5.40250131606
7.1373930599
10.8058073094
16.5436916507
20.1309862586
20.3442229447
18.6831968794
16.3313648204
14.6950523889
13.8505346475
13.94619921
15.2419820054
15.1112025201
13.7364974617
13.5345999229
16.7621058067
13.1893502293
11.2274227752
5.30743153054
7.32390322675
3.70854664051
4.02884138618
6.1795308404
11.5881397107
7.7264535127
4.65892988211
4.6325975409
5.02547898745
5.70065151622
6.50792015996
7.97546443464
10.6020325221
11.5688203502
11.7370054659
11.3228405305
10.4878089757
10.0491034592
10.4495117801
10.5597942141
10.6654806456
11.1591166143
11.8218892017
12.5503344103
13.2611174543
13.7357038732
14.3572675536
14.5706537811
15.3746659932
15.5244103224
16.9648232228
16.3484896839
15.4908094244
15.6818445514
14.7833536593
14.4779301384
14.417561876
14.4580575706
14.5324531935
14.6775555441
14.9700271161
15.3207198302
15.5901415201
15.729670407
15.7434930851
15.6521574894
15.4770863095
15.2329235251
14.9266324281
14.5515031522
14.091863849
13.5381484171
12.8717279414
11.992276557
10.8502727237
9.61959274339
8.51763222021
7.63816896111
6.99421295667
6.5805014116
6.44464225476
6.88022601372
7.84996537286
10.7197807781
15.979336058
20.1741443899
21.5821161824
20.4013048643
17.6393766076
15.1624268762
14.7879881085
16.9245871528
17.7232273177
16.6312279957
15.6629423016
18.2362623331
21.2018394937
16.5540825576
15.6731476766
9.64970613852
8.76532394517
4.59521241466
5.37666551903
11.8464028414
11.2631571075
5.61263134674
5.12211914076
5.18307923579
5.35582475263
6.01479765137
8.97093801065
12.4618186698
12.7535958501
12.1660508729
10.728546337
9.70817735078
9.56440054131
10.4354064045
10.4633169518
10.341078501
10.7050811006
11.3088510445
12.0422909077
12.6635919831
13.3996434285
14.3683571094
14.4172688766
15.5145389673
15.319585166
17.1996586687
16.5265836383
17.6273293073
16.0513908129
14.6153269439
14.2663864841
14.3433890439
14.4819338601
14.609971141
14.7310310565
14.8977997235
15.1491195194
15.4404000108
15.6867517297
15.832637418
15.8646305411
15.792785968
15.6386887053
15.4208349061
15.1445188848
14.800821338
14.3729776488
13.8360795423
13.1428392467
12.2308862931
11.1271317628
10.002356168
9.0289758642
8.27568168777
7.77746976528
7.54103501597
7.77230508765
8.95066498507
8.31362094755
12.1009666773
17.6389318554
21.3551744373
22.7711561554
21.8345944489
18.4892043394
16.3231825773
18.0460451272
20.1710731417
19.5984067792
18.5478291742
18.5716905046
23.030945347
24.572339382
19.6096866184
19.4056646848
11.712707782
8.35338018199
5.59253531192
5.29346226833
11.7118151216
7.71104873064
5.53599798664
5.61529363717
5.68677064658
6.36982535555
6.69938660145
12.4134977875
12.8956350301
12.7899193107
11.0007851989
9.29424579474
9.08313154731
10.486966345
10.4808414127
10.0292327448
10.3463833152
10.8157911991
11.4177754431
12.1475594073
13.0996076938
14.0770959646
14.3321122023
15.8621922424
15.4239916932
17.51610822
16.6420639748
17.9063343855
16.659813495
15.7108950749
14.2076984695
14.0867419091
14.3597766068
14.6058115497
14.7730106506
14.9210391268
15.1059546397
15.3408508554
15.5989927832
15.826092933
15.9724369042
16.0160674352
15.9623679683
15.8340975474
15.6513227895
15.4164265093
15.1147933799
14.7205317583
14.1947848723
13.4897146138
12.5853727516
11.5550114281
10.5557748935
9.7119439363
9.0558450446
8.59607885568
8.4723562591
8.79227142511
9.02984598704
9.52388612658
13.2111138894
19.9967513156
22.6105543117
23.0460051048
21.991643798
19.7489272435
19.5174001158
22.0179522575
22.4098202041
21.5156885938
20.8756386298
22.7527388345
25.4083702986
26.8135214601
22.2577657602
21.120085129
11.2960993169
7.6838419002
6.63439990965
11.7140253957
11.6820108677
6.20867089982
6.08437689862
6.16834522389
6.35481251458
6.87182032344
12.2362733833
13.1008231272
12.9959254332
12.2896003576
9.43484530901
8.62479456608
10.3480439093
10.7173541904
9.94181503022
9.86112824853
10.399402882
11.0513208985
11.6511072597
12.4645924645
13.1603747189
14.5835822076
14.4659090985
15.7876567821
17.4303884751
17.5528498048
16.1213706732
17.071987291
16.9347750121
14.551174848
14.0988124162
14.1947202021
14.4644566987
14.7355312615
14.9375082068
15.1112931646
15.3122192548
15.5468989913
15.7896773557
16.0025407912
16.1462503475
16.1983814114
16.1643146972
16.0683152976
15.9297037651
15.7458607941
15.4943292372
15.1383121705
14.6309295182
13.9376811265
13.0781665842
12.1487784653
11.2714295982
10.4964130871
9.80076532359
9.27006848865
9.18925414756
9.57078347498
10.1835731046
11.1093859044
12.0486251141
19.9060354252
24.1923600009
24.353760815
23.8137776473
22.9416757775
23.8334203976
25.1692304217
24.4400055724
23.6918789998
23.823989676
26.0288885794
26.6159113206
27.1376262797
24.2574795373
22.1200135163
10.3769242843
7.30321552833
7.27348107009
12.6155932816
10.3362864056
6.53554208544
6.67618264224
6.87095135936
8.45949061065
6.83174549665
13.00953457
13.5289018143
12.9771526284
10.7236259673
8.73865934782
8.74568302009
10.4760186312
10.279851189
9.74482649833
9.88910799714
10.3842294998
11.1784476526
11.9268814648
13.2935653434
14.5085755844
14.4167243334
16.7435775861
15.4182359589
17.7674050533
16.3416714573
18.071121048
15.9038474417
14.978732145
14.3531978445
14.221985052
14.3598292424
14.5994410514
14.8686014805
15.1027489641
15.3098765063
15.5287583993
15.768220628
16.0068865941
16.212083422
16.3519520729
16.4119131753
16.4018287749
16.3456831286
16.2593397738
16.1349729496
15.9418408656
15.6328119137
15.1585996491
14.5040137555
13.7196659969
12.9006668093
12.1016788106
11.2641273305
10.3328455051
9.63425003936
9.75658525123
10.6903376381
11.8241247693
12.7939191266
13.5555482274
16.4470431041
24.258845094
25.9877083644
26.1526189024
26.9329008026
28.0618850282
27.7072414096
26.6326905824
26.3354702598
27.1929611298
28.2443147628
27.9894555067
27.3127893646
26.2591077453
24.8657389731
9.5547581971
7.48618553336
8.46721540566
12.6075556312
7.79100205993
7.54459271054
7.26802689956
7.51604427121
11.2073719113
9.71863904538
13.8366922129
13.7242478387
12.9504035223
9.71154784102
8.62198576549
10.5235208464
10.7472541854
9.92471724424
9.68355377567
10.0724369433
10.5080443122
11.2433320234
11.8417829133
13.4780624877
15.8981023783
14.2473433954
16.635698982
17.7603370966
18.0115277152
18.3209782359
16.6585458065
16.4977130611
14.4532235739
14.1944880989
14.3585596141
14.5354799524
14.7507513768
15.0070514742
15.2649195684
15.5121283355
15.7596471856
16.0099907227
16.2491382152
16.4513645497
16.5903311729
16.6587937684
16.676037058
16.6675394994
16.6420980042
16.5849723226
16.4589469128
16.2088365244
15.7865176896
15.1974997835
14.510855311
13.7872486103
12.9539004548
11.792331726
10.4175703769
9.76415875084
10.6034791552
12.3090108862
13.8218159178
14.9509087067
15.7430532659
15.6571948173
16.6574922036
27.7711612692
30.6479173288
31.8553443825
31.8095164232
30.3760326268
29.354110352
29.4706187089
30.4207844162
30.5756611142
30.1935809978
29.8078325161
30.0860138813
30.2357962146
9.20152185739
8.12620423982
12.1549236375
12.5497218245
7.51741410387
8.22966674182
7.83023830154
8.54362836897
10.4045536457
13.4735363213
14.5359362667
13.8721929408
13.0440108883
9.442009304
8.70196785011
11.1226941518
10.7514555254
9.81108335605
9.69388845101
10.223889318
10.9670424044
11.577016982
12.03444655
13.0295383513
16.0348139004
17.1787685864
15.8901186685
17.927914804
16.0983807579
18.3681685983
18.3677370974
16.32862006
14.3172750307
14.2842546008
14.529249713
14.7213368311
14.9231169738
15.1643149361
15.427891802
15.7129179457
16.0023418765
16.2729655596
16.5170545512
16.7196074286
16.860572334
16.9415635414
16.9907625559
17.0346401417
17.0757519258
17.0927619625
17.0428535625
16.8651531763
16.5169579495
16.0227931
15.4465811043
14.7477733149
13.5865573718
11.7195557408
10.1810571643
10.2536142843
12.2837495337
14.7197842737
16.4635116489
17.6515969274
18.2293428429
18.0321711341
17.333523355
18.9677240878
32.3452007848
37.6120943081
36.3861727376
33.9667592672
32.954938008
33.158181517
33.6479439422
33.7208668355
33.8338971137
34.2310323464
34.7647319364
35.4055213036
9.25144366221
8.85338313948
13.7125869142
13.0001514439
10.7693884826
9.3565742226
8.58178637793
10.07495691
9.5496316981
14.4014835283
15.0397061964
14.0733119344
12.9086944784
9.81926279076
9.47064488431
11.6332406966
10.6621465539
9.8130129819
9.80044868645
10.2619671995
11.160346606
12.0173316724
13.931770819
13.1743315161
15.4203186568
17.56693217
15.552212923
18.2450874438
18.7572855402
16.9920249231
16.9448056427
14.9322850698
14.6431533434
14.6068971966
14.7497280437
14.9351941713
15.1283779431
15.3557065763
15.6012379239
15.8991019001
16.2429515957
16.5612910859
16.8166024223
17.0174660718
17.1635079084
17.2630122296
17.3488563504
17.4471027209
17.5559627136
17.6496699498
17.6803444385
17.5890479372
17.3471359556
16.9800603802
16.488828347
15.5592765449
13.5320687843
11.119259025
10.1703195556
11.6434273006
15.1401246994
18.0307661992
19.8455098538
21.2297628601
21.8141436181
21.4365066378
20.4461551839
19.0609527935
28.631829698
38.7848878671
41.5932466374
38.7971594123
37.7046651974
37.6992002793
37.8936300152
37.8695438464
38.5493708144
39.2385846258
39.140428135
39.341467455
9.64972365506
9.39947230939
13.3095138162
13.3016278649
13.241250214
10.2785798694
9.46888527483
13.1639676451
9.64371408157
15.2403132046
15.4194694558
14.2900827805
12.7939428801
10.2442081832
12.6437296222
12.7331006521
10.7082454197
9.95314859436
10.0379164614
10.4184020102
11.1253717005
11.962390832
15.4612304765
16.4558684114
14.6716825893
17.6674704165
18.4393751279
17.6644955729
18.7297129362
18.7257893798
17.4911238662
14.8796078194
14.8304098855
14.9259844866
15.0189621491
15.1674885062
15.3337984861
15.5760268708
15.8382523178
16.1103329165
16.466594556
16.8453212166
17.1449260523
17.3530272476
17.5032529561
17.6258389866
17.7531525654
17.904916306
18.0755055047
18.2371832642
18.3440560282
18.3553891315
18.2620879133
18.0408031579
17.5025682589
15.8219518387
12.6312977647
10.2655845315
10.7547042467
14.5842997913
19.3764507829
22.3437545591
24.0307854571
25.9654724478
26.11128531
24.9202898232
23.3078071984
21.4350602881
25.2035597043
36.2278924094
43.344235162
44.4169733308
42.2939562502
42.222515447
42.2242644343
42.6706575218
43.6929029855
44.3471381038
44.3619359508
44.6002130802
10.1052095013
9.9615249564
9.67417932686
13.5163512162
13.6220386657
10.8177837538
10.2865037592
13.9951297463
10.0702691769
16.0742581952
15.7422294287
14.5149314337
12.8069310556
10.4134665266
13.8428350583
13.0843586753
10.9449022822
10.2508197358
10.347409291
10.7513730523
11.2158365162
11.8757436062
16.0736313801
17.4585902255
14.9210200921
17.7808975481
18.9670923877
16.6943676287
18.3447145299
18.0265976273
15.4253311113
15.2356086571
15.2593144664
15.2773150857
15.306424787
15.4599418897
15.6082273175
15.774656872
16.0632521843
16.3817784394
16.7295213478
17.1272366554
17.4772250762
17.7190786086
17.8862580636
18.036612526
18.2063169675
18.4026892636
18.6218625242
18.8336379748
18.9887022465
19.1184229579
19.226147889
19.1604038932
18.2423877976
14.8872037058
10.7788038986
10.0571690933
13.8456536246
20.3833045735
25.7167834241
27.0729126857
25.1277257901
22.9270535135
19.7801406105
17.839257109
17.4339716
16.9777383649
15.5149336221
16.9704130037
42.410451992
46.4729782848
46.744592753
44.3712557897
44.2829535607
47.1586701359
48.8135644405
49.6584797495
50.8297569519
51.5703725179
10.7291907965
10.7887338812
14.0946499502
14.0109934987
13.8927023596
11.2498864912
11.2275538966
14.6363990921
10.9234999688
16.7631109226
16.0274587909
14.7456980767
12.879504541
10.6915538757
14.0207643955
13.040595397
11.1883783022
10.5910579068
10.6615896639
11.0171163017
11.4533417109
11.9657343964
15.2388120281
18.2374612152
18.3277587356
16.8639503448
19.1491904896
19.751734017
16.360550969
15.5452044629
15.2759088505
15.4132592791
15.5259859098
15.5847679355
15.6626854648
15.7509053683
15.8903323162
16.0769281771
16.2912756916
16.637838297
17.0337953909
17.4443337147
17.8192554087
18.100741435
18.310456861
18.4979296844
18.7059582303
18.953371411
19.2057022242
19.3979294055
19.5487567944
19.8039996979
20.1458467234
20.1433465918
18.0417809241
12.3991145701
10.2984953803
13.6500163219
19.646661475
24.7335028047
24.7514981091
15.2137777235
0.182775401667
3.16380760826e-06
2.47473969798e-06
6.00809891027e-06
4.04993368468e-05
0.000189696632684
0.00070074030804
0.00445309514926
0.00348667409528
0.302487934461
38.8815031186
51.3949301119
48.0328413648
49.1206003654
52.8637839277
56.2484839564
58.7039925828
59.2296328604
11.2869853638
11.4671508808
15.6200428093
14.4612837534
13.6968912006
11.7101745074
12.1687267643
15.1033194871
15.0989288321
17.5792443978
16.3401684258
15.0424875336
12.9935557468
11.1216160821
14.2024419025
12.9535679469
11.4487792842
10.9454376325
10.9591111637
11.2457649799
11.6705387956
12.2671165427
14.4989106601
18.4729651254
19.7300904224
16.1563217418
18.7087672011
19.6425776358
18.9201029526
16.2172675588
15.4150271559
15.6145194334
15.8411185167
15.9867723281
15.9480516592
16.0578692239
16.163854406
16.364004862
16.5874135502
16.9095221898
17.3450601456
17.7983233179
18.1796048931
18.4746479454
18.7466327231
19.0546432928
19.3607504224
19.6318110041
19.7801402545
19.8805054631
20.0436705098
20.3337674581
20.920876445
20.7857318124
15.2831198582
9.90387044156
10.8273374859
12.5104332434
4.11887815657
0.0599633157245
4.87189268808e-05
8.12921983107e-08
5.73032436658e-09
0
0
0
0
0
0
0
0
7.9699039725e-13
2.68808361396e-10
4.02080012522e-08
2.3327394701e-05
0.0325826454608
53.1933122485
61.7326219605
57.883512551
64.2184283134
11.725424775
11.9313196386
17.8802200887
14.7543918715
13.1689025908
12.1286822495
12.8147609861
14.8870834983
16.6585868598
18.522815851
16.7899598709
15.4491020747
13.3288146393
11.8757104446
14.5952655667
13.0359204977
11.8079340119
11.3619203137
11.2964276343
11.5078163781
11.8696261689
12.433522443
14.16773926
18.3252743846
20.6913713066
19.6948942783
18.0152601073
18.953046095
18.3618889563
15.6715621291
15.8741373083
16.1308130732
16.4455710844
16.4420220298
16.4160933315
16.3699048004
16.5136149391
16.6540818762
16.8998104986
17.2227884613
17.6463291003
18.1455860489
18.6337689795
18.9570258286
19.2821765711
19.7138222767
20.1472292608
20.4239004446
20.4901034435
20.5364759176
20.6523665804
20.8057646676
20.8164526865
19.6580054294
11.4792110764
6.09242170203
0.0167000467397
0.000675280918221
9.207252038e-06
2.52487873537e-08
0
0
0
0
0
0
0
0
0
0
0
0
0
1.02692203582e-11
1.020470374e-10
2.23709216392e-09
1.08473505571e-07
0.000602378267101
77.5142317309
0.404358106817
12.0531654009
12.2452555792
20.0269901428
14.9379361537
12.9674595368
12.5310122845
13.6000488038
13.8037740212
17.6086641461
19.1834308067
17.2341662288
15.8713199693
13.8835800295
13.9811743103
15.1409434557
13.3741172778
12.3785563315
11.9994693347
11.742651899
11.8607160136
12.1246184662
12.6211125835
14.0699178037
18.1874889399
21.0618801131
21.3627652133
17.0814179336
17.2922696453
16.2391870331
15.7639630889
16.0829109034
16.6524538656
16.9281944216
16.9026869353
16.8693439241
17.0096697294
16.8990805762
17.0126625186
17.2229772904
17.5137839758
18.0315906782
18.5861615926
19.0942584364
19.3713112591
19.7782062826
21.5023379452
23.9172380184
24.642544457
22.9805286804
22.6633960928
22.7260924734
22.7914412073
21.9985719233
19.2833432964
17.2556897233
1.82193192997e-09
1.84108478573e-06
3.00414299923e-08
0
0
0
0
0
0
0
0
0
0
0
0
0
0
0
0
0
0
1.58656234981e-10
1.0743938181e-09
1.98127127755e-07
53.2845663514
12.3671423313
12.5294869657
19.71830701
13.951882081
12.9320329277
12.8654402908
14.4904396941
13.4911667863
18.3866471
19.8187755803
17.6729894001
16.2749012329
14.2887814552
16.4473815633
15.9414308027
13.9227861825
13.049698802
13.1087701669
12.4173657304
12.3876506284
12.4847388175
12.8267849662
14.1352450105
18.0329406566
20.8997452004
22.4800491001
20.5917682614
19.1820000306
17.9152000851
16.0938825471
16.4040600099
17.4536754606
17.2292600977
17.3208809223
17.7924185424
17.4958288359
17.3951612191
17.4876414011
17.6907005321
17.9581240781
18.3200711221
18.9329644329
19.645141526
20.7512287302
22.3740530071
24.7045892245
26.461377026
26.3597702055
26.4441468781
27.5925336899
29.3680017543
32.1257857848
31.2698135252
27.4272624759
0.14701700125
0.00199677266724
0
0
0
0
0
0
0
0
0
0
0
0
0
0
0
0
0
0
0
0
0
0
4.88182677372e-10
35.5325529927
12.7821986652
12.9312895167
19.1815837794
13.2652959692
13.0840050521
13.1208133273
15.2243615681
13.7756457741
19.0090488021
20.4396045926
18.1194645358
16.7018361626
14.6394355593
17.0579549445
16.6691387003
14.5464549221
13.7015047179
13.9185742036
13.2453182095
13.1460983727
13.0736122389
13.0399133657
14.3753344442
17.9973575842
20.5910148477
22.8328551037
21.8392552844
19.4170058796
16.4514278795
16.6312703094
17.0484270876
18.0477882336
18.4134428256
18.5725007843
18.5962427536
18.0485969175
17.9449789421
18.0661682667
18.2530583968
18.5334172086
18.8681591115
19.5551797867
20.7945881179
23.0121228978
24.4858926612
24.7662139978
25.7368352719
26.6454993714
30.0116482081
33.9517988217
39.9130648112
44.054054784
39.7460938303
0.255674165981
0.000524400880983
1.26967540696e-05
4.26186936366e-08
0
0
0
0
0
0
0
0
0
0
0
0
0
0
0
0
0
0
0
0
0
8.20407408312e-11
1.0854739355e-10
13.4620455238
13.615309444
18.5854351212
13.3161030558
13.5634501026
13.4880268002
14.9294424434
14.4442173401
19.3846176937
21.0154609742
18.6064572685
17.1890825303
15.1393621153
17.6333301698
17.3452978823
15.3057899816
14.4417668082
14.7225011598
14.0355833998
14.0582562507
13.9909458835
13.4353721782
14.8320799982
18.1263462815
20.4388352262
22.9269068267
22.2940254765
19.7852833378
16.6953022114
16.7688105652
17.8399018989
17.8437066851
17.9910116653
18.4765014216
19.5461015932
19.0304061009
18.83410809
18.6958401342
18.8209804297
19.2039151471
19.6656605473
20.4292492016
23.0277902354
25.5036627353
25.5492110371
25.7179752374
27.3247095323
32.1780134436
38.4651992745
43.4851720124
47.8245954361
29.2442505069
0.00219303954789
7.19025694971e-07
4.51150063263e-09
9.14444616912e-09
1.40424570491e-09
0
0
0
0
0
0
0
0
0
0
0
0
0
0
0
0
0
0
0
0
0
6.06387192933e-12
2.75342606319e-11
14.5386545863
14.6276417108
18.5886433793
14.1311965058
14.7205452622
14.2410368957
14.9385029784
15.8662871149
19.1546993422
21.3807981585
19.1677859186
17.760690887
15.7652956075
18.2910594687
18.0546475353
16.2573908508
15.4087802356
15.7122575196
14.8262759346
15.0855947238
15.2845342461
14.1191679973
15.311693944
18.4101725549
20.4635154038
22.7077589074
22.4735271337
20.1687814951
19.2763599308
17.679529378
18.3110529145
19.0567451496
20.048217663
18.946787417
19.3453848166
20.1335772693
19.7408800505
19.8025475702
19.7271226619
19.9087505423
20.4858896554
22.82877405
26.5958931578
27.4853153361
26.9545245707
28.5140153567
34.6367984818
43.0982874536
48.7476822791
46.2773610195
0.802896457367
7.49613319863e-06
5.12910144591e-08
0
0
0
0
0
0
0
0
0
0
0
0
0
0
0
0
0
0
0
0
0
0
0
0
0
0
0
16.1065528701
15.8778787075
19.1148367604
16.0920115039
16.7860753708
15.4230168004
15.7103175589
17.994897522
19.1187528367
21.8629504461
19.8692223948
18.4316200874
16.499118048
18.9832493506
18.7580300228
17.3264763681
16.9621111454
17.0566236738
15.7015059557
16.2437645268
16.9316700953
15.1985123068
15.6069121186
18.7536175154
20.6631713395
22.4662834646
22.6294002039
20.1230514567
20.457639665
19.3755327606
19.5272711874
18.2521111807
19.0812780463
20.482696134
20.2381770466
20.5495846753
20.6652419533
20.6722018788
20.8759086826
21.014983245
22.5389328525
27.0424579073
29.7525204368
29.7854875128
30.4593403194
35.3325743208
44.4401751377
50.3139854994
37.3424687815
0.00716518708443
1.25262593537e-05
5.73561444414e-08
0
0
0
0
0
0
0
0
0
0
0
0
0
0
0
0
0
0
0
0
0
0
0
0
0
0
0
0
17.8040167044
17.0398625952
19.7378610256
18.8283243215
18.4762748556
16.8498372995
16.5845762639
19.0761254531
17.7888634324
22.1947428891
20.6970811871
19.1949815456
17.334080564
19.692607093
19.4087912012
18.1999105313
19.316179901
18.7028720204
16.7113582804
17.5885822998
18.3040861936
16.6353011589
15.4816973022
18.6457562444
20.774193136
22.2517143566
22.6364791239
20.1090566634
20.6973183189
20.6806287895
20.7211198605
18.921215573
19.472422258
19.9661739014
21.1551247946
21.7606054753
21.8580147844
21.7632571173
21.851868149
22.8132541894
26.991367389
31.4151742361
33.0878215103
33.7240979393
36.474553544
42.9291547108
45.7565145388
27.8300757241
0.0192928869042
2.7930524225e-05
9.78180841036e-08
0
0
0
0
0
0
0
0
0
0
0
0
0
0
0
0
0
0
0
0
0
0
0
0
0
0
0
0
0
18.552191226
17.8534190807
20.0972640235
19.7803806875
19.4483058372
18.2354735674
17.7027807048
20.4310083488
18.7267664687
22.6597388211
21.5308114035
20.0111389226
18.2626391966
20.4393258834
20.0879856484
18.9381412568
20.2102691216
19.7126962387
17.7190403285
18.9576511478
18.927197783
17.2703339503
16.6064701699
16.7764770593
20.2377315263
21.6899605219
22.3637875344
20.035471824
20.67827561
21.1105107655
21.6328383481
21.0449563036
19.3171865913
19.8210980354
21.2623595093
22.5619973575
23.16616255
23.4062049595
23.4857394191
26.87737249
32.1242304215
35.5316657601
36.7105213552
38.0443256823
41.590790031
40.2291272294
24.8592482097
0.101921515817
9.18109313145e-05
2.61482285523e-07
0
0
0
0
0
0
0
0
0
0
0
0
0
0
0
0
0
0
0
0
0
0
0
0
0
0
0
0
0
0
18.5079322034
18.3989481221
20.3309664581
19.8944589029
20.0791021458
19.329122656
18.693783993
21.7579383144
20.4470088314
23.2861225283
22.4225703383
20.8638279686
19.2767902584
21.2372895831
20.8459799904
19.8368353591
20.9300229406
20.5980833931
18.8217127861
19.9169382501
18.1604398006
17.9111444061
17.589897118
17.9519092664
18.8708826006
19.6999470913
21.4565041879
19.8900271274
19.9871508298
21.0343144325
21.994852038
22.3802093765
20.935008662
20.5144946343
21.1433574793
22.3621959007
23.838223287
25.1043158674
26.6188319612
31.8365363779
36.6079324391
39.0571323267
39.4610799315
39.7755157969
35.3405273285
27.2170441399
0.69127675207
0.000318910384986
7.14389095081e-07
0
0
0
0
0
0
0
0
0
0
0
0
0
0
0
0
0
0
0
0
0
0
0
0
0
0
0
0
0
0
0
18.7028190033
18.8009388586
20.5739703165
18.6344443688
20.319778247
19.9120428971
19.36423623
22.2748938406
21.2144072044
23.9637949559
23.3768039646
21.7319287239
20.3897299817
22.0743481845
21.654572104
20.8803392149
21.7010630269
21.5967207382
20.0435889811
21.2621459025
19.4719334058
19.6747231806
18.8092530592
19.181269468
20.885961537
21.4701094641
21.0551444768
19.7007498015
19.3224996142
20.952882669
21.9694172361
22.5361801446
22.5527832495
21.5559467494
22.8547103076
23.0823433971
24.4062083888
26.7704552724
30.6409190486
36.4742888115
40.353827445
41.5395077261
39.3335954173
32.5204070383
30.2807924167
18.192702314
0.00267606063466
6.09218298189e-06
0
0
0
0
0
0
0
0
0
0
0
0
0
0
0
0
0
0
0
0
0
0
0
0
0
0
0
0
0
0
0
0
19.403883587
19.4775507128
20.8012187268
19.0185551258
20.5167550012
20.2023533769
19.8447560129
22.3724152614
21.7731618655
24.4560561314
24.3427989619
22.5650627702
21.5980894794
22.9114648128
22.4419230782
21.9032566235
22.4330152565
22.6929656573
21.3184147778
22.593317577
21.253945305
21.8712905876
21.5107952542
19.9376074922
21.4111069343
22.4851740514
22.5522483522
19.5739259015
18.5489768009
20.8422809058
22.0931362583
21.8564121564
21.9955608619
21.7992006535
22.8676090722
23.5018702992
25.1366940116
28.5590323782
34.7060099463
40.8575358379
43.583494394
42.3110632701
33.5027344231
31.3918869657
27.9592833583
0.0304270035258
4.24527260245e-05
1.72146747868e-07
0
0
0
0
0
0
0
0
0
0
0
0
0
0
0
0
0
0
0
0
0
0
0
0
0
0
0
0
0
0
0
0
20.2977912404
21.5894780404
21.1613525732
20.0354284891
21.0216168875
20.5536745587
20.3138776713
22.4531622278
22.3026160011
24.5764349097
25.3104470732
23.3336998326
22.676634872
23.5670327321
23.2108516798
22.6529864947
22.5138780486
23.7061216722
22.7054925812
23.7465892396
23.3308044431
23.1067498719
22.8328067717
22.3613220245
21.3894140563
22.272285511
23.5015558364
18.7310091049
18.0270191123
19.9788824281
22.0929873382
22.5629407318
23.0809798558
21.7722252039
22.5971639004
23.7115502263
25.4996730452
30.2158947106
38.5666760823
44.8813838862
46.2346926948
38.6549780478
32.9892975296
33.0009670933
2.29506073831
0.000287748427958
7.34403199292e-07
0
0
0
0
0
0
0
0
0
0
0
0
0
0
0
0
0
0
0
0
0
0
0
0
0
0
0
0
0
0
0
0
0
20.9677714989
22.2903760266
21.8428629275
20.9500184422
21.7171606112
21.1150318424
20.8599806798
22.6316072259
22.8347243247
24.4151097928
26.1899599783
24.1146350694
23.2994721424
24.1104142069
24.0971948998
23.3407540513
22.5800331126
24.4166646076
24.1990053596
24.7470204584
24.6264484452
24.6824051479
23.0090220765
22.9673451041
22.4053456673
24.0407850759
24.845128566
21.2279048807
17.5993965558
18.8575449109
21.4402002067
22.85945607
23.0920734457
22.3917656823
22.1406926841
23.6939600322
25.4122192434
31.5123766985
42.1035505266
48.8738975079
45.8862030575
33.8061592149
34.7806029083
31.1994465187
0.00986572305256
8.48438088064e-06
2.85123381135e-08
0
0
0
0
0
0
0
0
0
0
0
0
0
0
0
0
0
0
0
0
0
0
0
0
0
0
0
0
0
0
0
0
0
21.4800392347
22.661782429
22.4570137722
21.5850623918