/*--------------------------------*- C++ -*----------------------------------*\
| =========                 |                                                 |
| \\      /  F ield         | OpenFOAM: The Open Source CFD Toolbox           |
|  \\    /   O peration     | Version:  v1806                                 |
|   \\  /    A nd           | Web:      www.OpenFOAM.com                      |
|    \\/     M anipulation  |                                                 |
\*---------------------------------------------------------------------------*/
FoamFile
{
    version     2.0;
    format      ascii;
    class       volScalarField;
    location    "269";
    object      p;
}
// * * * * * * * * * * * * * * * * * * * * * * * * * * * * * * * * * * * * * //

dimensions      [0 2 -2 0 0 0 0];


internalField   nonuniform List<scalar> 
6400
(
0.153305992032
0.153308167165
0.153314301551
0.153326000292
0.153342699208
0.15336413912
0.153390420035
0.153422661503
0.15346090054
0.153505191609
0.153560837639
0.153630549084
0.153710886351
0.153801971688
0.15390571649
0.154024239516
0.154158124851
0.154306673875
0.1544684714
0.154638912053
0.154811652057
0.154986457417
0.155168771544
0.15536507335
0.155579966635
0.155813299756
0.156061533654
0.156322267701
0.156595495892
0.156882200559
0.157183239723
0.15749721559
0.157818271934
0.1581406926
0.158462704739
0.158780525815
0.159093089628
0.15940869382
0.159726633304
0.160035512601
0.160336866325
0.16064687417
0.160974352702
0.161311267089
0.161648918352
0.161982403821
0.162308001857
0.162623813149
0.162928324425
0.163220412788
0.163499852249
0.163762565598
0.1640030783
0.164213174636
0.164393585534
0.16455390049
0.164691699932
0.164797826957
0.164871334681
0.164919833407
0.164947959442
0.164957947282
0.164955089605
0.164936917748
0.164892380289
0.164802083048
0.164662713232
0.164499499575
0.164340019949
0.164193167333
0.164056683777
0.163924549222
0.163792826417
0.163668425808
0.163550937046
0.163444560197
0.163352539637
0.163290422353
0.163249588686
0.163232273175
0.153302690747
0.153304959378
0.153310375234
0.153321821636
0.153340005741
0.153362930773
0.153389740186
0.153420444766
0.153456900319
0.153501245683
0.153556585133
0.153625021974
0.153705629205
0.153797794211
0.15390195215
0.154019195879
0.154152461163
0.154301817853
0.154465436745
0.154637319486
0.154808322474
0.154980757717
0.155162087881
0.155357793415
0.155572931826
0.155807203029
0.156055591988
0.156316870868
0.156591202684
0.156878821925
0.157179734753
0.157494046503
0.157816461983
0.158139001626
0.158461462582
0.158779642554
0.159091657248
0.159407667527
0.159726556607
0.160034898763
0.160332051069
0.160640629993
0.160973547637
0.161314123439
0.161653241724
0.161988271067
0.162315146522
0.162632530452
0.162938166514
0.163228962377
0.163505007974
0.163768498934
0.164017540346
0.164229883931
0.164411434507
0.164575878948
0.16471119775
0.164813046091
0.164885813279
0.164933753763
0.164960600785
0.164971135463
0.164967765355
0.164949342293
0.164905194751
0.164815937469
0.164674423528
0.164508308883
0.164346086532
0.164196163093
0.164056629274
0.163920941789
0.163784321828
0.163653560735
0.163533595697
0.163427020435
0.163339136643
0.163276838441
0.163236144337
0.163222245223
0.153293617747
0.153297476964
0.153302153228
0.153312613179
0.153330267451
0.153356293045
0.153386016303
0.153415866061
0.153450188308
0.153493360666
0.153548028081
0.153615818434
0.153696575827
0.153789469267
0.153893874256
0.15400777457
0.154139130942
0.154295350021
0.154462987614
0.154633937437
0.154800591192
0.154966499761
0.15514583902
0.155344211839
0.155559998601
0.155793531246
0.156043284552
0.156306683801
0.156582766463
0.156871899417
0.157173700152
0.157489040625
0.157814402782
0.158136283428
0.158456946793
0.158778263063
0.159089619456
0.159403009181
0.159722488177
0.160033169848
0.16033739871
0.160650516688
0.160979892654
0.161318062931
0.16165722629
0.161993024534
0.162322058769
0.162642003704
0.162950595717
0.163245786199
0.163526609774
0.163791544066
0.164035353539
0.164251273379
0.164443303628
0.164609310209
0.164741847039
0.164842407752
0.164914381951
0.164961389496
0.164987756661
0.164997980246
0.164993571813
0.164976395552
0.164932261282
0.16484009194
0.164699541518
0.16453189739
0.164362015377
0.164203251876
0.164054667466
0.163909728118
0.163767394132
0.163632789733
0.163508456766
0.163399727359
0.163313082424
0.163250577819
0.163210884632
0.163196184266
0.153281341885
0.15328515983
0.153288669739
0.1532982446
0.153313754864
0.153339650212
0.153378853906
0.153408610451
0.153440207424
0.153481296675
0.153534941417
0.153602385601
0.153683533433
0.153776099498
0.153880982434
0.154001476615
0.154139043467
0.154293087322
0.154453208325
0.154611714327
0.154772661084
0.154941955481
0.155123558031
0.155321911197
0.155538697448
0.155773855309
0.156025812114
0.156291692801
0.156570384527
0.156861438358
0.157165891082
0.15748303338
0.157809953877
0.158137424346
0.158454497988
0.158770529016
0.159086829108
0.159398615678
0.159711330115
0.160024233833
0.160336940446
0.16065623716
0.160986712243
0.161324893485
0.161665080144
0.162002843036
0.162334713848
0.162658037235
0.162970496001
0.163270031602
0.163554880516
0.163822653787
0.164069483434
0.164291661894
0.164488144414
0.164654872909
0.164788011859
0.164888660381
0.164960206094
0.165006573759
0.165032016847
0.165040328864
0.16503487762
0.165018995839
0.164976893521
0.164887331265
0.164743275772
0.164567102814
0.164384690621
0.164212402004
0.164052810531
0.163900450443
0.163751485141
0.163604402599
0.163467087122
0.163354486142
0.163269385343
0.16320117929
0.163153596439
0.163133828269
0.153262354914
0.153262608609
0.153266979012
0.153276793423
0.153294062489
0.153318355799
0.153353505565
0.153387104943
0.153421248525
0.153463207786
0.153516219467
0.153583611711
0.153665777394
0.15376460469
0.153878361747
0.154000910066
0.154133239342
0.15427479583
0.154423110811
0.1545782807
0.154740618328
0.154910755326
0.155093322289
0.155292977788
0.155511223685
0.155748461806
0.156002653492
0.156271757208
0.156553601808
0.156848351477
0.157155197458
0.157477332742
0.157810570813
0.158133735347
0.158449946324
0.15876311386
0.15907276864
0.159384417539
0.159699187887
0.160016219636
0.160335623112
0.16066073989
0.160994155088
0.16133410282
0.161676474653
0.162017181125
0.162352730375
0.162680303503
0.162997535226
0.163302306946
0.163592485746
0.163865422386
0.164117777187
0.164346207652
0.164547494316
0.164717116444
0.164852221764
0.164954136712
0.165026407631
0.165073060142
0.165098177111
0.165105548562
0.165098859833
0.165082756433
0.165038789421
0.164950024946
0.164805005297
0.1646199193
0.164420860272
0.164230387116
0.164056685716
0.163891862785
0.163723138917
0.16355229496
0.163401361413
0.163282156961
0.163186296879
0.163098799805
0.163042964826
0.163022593773
0.153226637047
0.153226031321
0.153234220372
0.153244169679
0.153263167919
0.153289552671
0.153321619174
0.153356141779
0.153393854545
0.153437787888
0.153489618104
0.153558091642
0.153649822561
0.15375743306
0.153871401577
0.153988899872
0.154111835792
0.154244356214
0.154388643172
0.154542394779
0.154702311375
0.154871854137
0.155055742696
0.155257412111
0.155477803776
0.155716545903
0.155974298616
0.156246632557
0.156533205619
0.156831876947
0.157144815271
0.157470156335
0.15780253773
0.158131988438
0.158441968753
0.158745939864
0.159053830297
0.159367446055
0.159685806683
0.160007782411
0.160333394227
0.160664391733
0.161002115795
0.161345427112
0.161691240063
0.162035910919
0.162376036481
0.162708765132
0.163031755723
0.163342901977
0.16363995606
0.163920184065
0.164180251192
0.16441630485
0.164623875983
0.164798335569
0.164937504403
0.165042851776
0.165117797556
0.165166221566
0.165191985362
0.165199500547
0.165192827521
0.165172110799
0.165126948646
0.165033771485
0.164883507094
0.164689317825
0.164472685641
0.164261296053
0.164067372599
0.163875440629
0.163671441776
0.163473844684
0.163305626415
0.163169759442
0.163048798324
0.16294238165
0.162879289964
0.162852092263
0.153171781556
0.15317562521
0.153190303774
0.153205468808
0.153221261928
0.153247582988
0.153281781175
0.153317481715
0.153358000164
0.153404247578
0.153460097112
0.153531909378
0.1536318688
0.153739989748
0.153850255614
0.153959904848
0.154076371132
0.154207431266
0.154351200368
0.154499761188
0.154656490455
0.15482647879
0.155011556001
0.155214418425
0.155437046121
0.155680953415
0.155939720571
0.156216788005
0.156508535638
0.156816148301
0.15713462024
0.157460361881
0.157794239391
0.158115922695
0.158422305466
0.158723304342
0.159031858468
0.159348568866
0.159671311166
0.15999860225
0.160330372607
0.160667542839
0.161010650439
0.161358704999
0.161709203853
0.162058895851
0.162404546052
0.162743405589
0.163073268391
0.163392144654
0.163697807668
0.163987439496
0.164257407968
0.164503165663
0.164719496518
0.164901818326
0.165048261611
0.16516007474
0.16524003752
0.165291271479
0.165317546635
0.165324480368
0.165316391617
0.165289679369
0.165248379627
0.165151756486
0.164989202988
0.164780968892
0.164545703612
0.164308648159
0.164079503497
0.163842204721
0.16359500909
0.163366253033
0.163170621239
0.163003268089
0.16284917522
0.162727482253
0.162658464297
0.162624811684
0.15310755192
0.153115516342
0.153132961143
0.153155999709
0.153173514279
0.153200140323
0.153233376704
0.153270914124
0.153315145608
0.153359498402
0.153422650663
0.153506747091
0.15360540059
0.153711357298
0.153814857053
0.153917214262
0.15403336706
0.154166528029
0.154305548557
0.154449151943
0.154603654154
0.154773863624
0.154960306022
0.155166029022
0.155392230124
0.155639284673
0.155903662882
0.156179906153
0.156481681969
0.156801850091
0.157120965418
0.157442649162
0.157774757002
0.15809053909
0.158391632438
0.158695662977
0.159007571208
0.159328001395
0.159655443774
0.159988399278
0.160326571719
0.160670377836
0.161019834516
0.161373869021
0.161730254076
0.162086037543
0.162438212391
0.1627842542
0.163122202369
0.163450282003
0.163766383497
0.164067629606
0.16435003735
0.164608450129
0.164837211395
0.165031701421
0.165189831855
0.165311783022
0.165398600171
0.165451957061
0.165476223014
0.165479053864
0.165465273973
0.16543608783
0.165394532173
0.165309918359
0.16513743099
0.164907114043
0.16464436521
0.164368702809
0.164087605528
0.163792167038
0.163495402916
0.163222818536
0.162984143053
0.162772063944
0.162589427226
0.162454702375
0.162382871892
0.162349795959
0.153037490492
0.153048182338
0.153066141233
0.153085066928
0.15310838369
0.153142564891
0.153175258433
0.153213886665
0.15326438873
0.153313439334
0.153374052778
0.153466737097
0.153568210671
0.153669249264
0.153766976029
0.153869099145
0.153985036296
0.154115928893
0.154250622838
0.154391694489
0.154544675707
0.154713857477
0.154900006618
0.155107360289
0.155343238243
0.155591723976
0.155862180072
0.156148795514
0.156452311924
0.156772644774
0.157098935631
0.157428787509
0.157743708616
0.158051268892
0.158355517046
0.158664234437
0.158980619375
0.159305424521
0.159637921096
0.159976925769
0.160321954201
0.160673009022
0.161029732376
0.161390896393
0.161754339013
0.162117301787
0.162477051409
0.162831386969
0.16317867945
0.163517460821
0.163845863555
0.164161085947
0.164458955799
0.164733980565
0.164980223581
0.165192734598
0.16536816448
0.16550393066
0.165597579777
0.165649686073
0.165668439538
0.165666661373
0.165650475037
0.16561815406
0.165565796224
0.165488241036
0.165334640656
0.165077160155
0.164774664622
0.164445649144
0.164096441836
0.163732230446
0.163371736783
0.1630338631
0.162732284796
0.162470812335
0.16226558964
0.162123354218
0.162049059478
0.162019675394
0.152960691819
0.152973506362
0.152994524503
0.153013085474
0.15303778825
0.153072777416
0.15310655039
0.153145235084
0.153194424444
0.153257991113
0.153323371029
0.153416062459
0.15351839745
0.153615087344
0.153707225479
0.153812220507
0.153932245855
0.154057908349
0.154187392997
0.154326522736
0.154479553377
0.154648774003
0.154835059016
0.155040892323
0.155284321622
0.155542879204
0.155808088555
0.156105319627
0.156414924683
0.156741263845
0.157070103039
0.157395831887
0.157707622082
0.158008542305
0.158315083088
0.158629029971
0.158950651355
0.159280528319
0.159618526097
0.159963968997
0.160316389329
0.160675441731
0.161040391016
0.161409799084
0.161781468608
0.162152750645
0.162521180094
0.162884942859
0.163242809316
0.163593705961
0.163936181493
0.164267803665
0.164584635967
0.164881276518
0.165151720253
0.165389998437
0.165589551738
0.165741468431
0.165837741267
0.165883300106
0.165896242135
0.16589430447
0.165881223126
0.165847432329
0.165782016182
0.165681845681
0.165537603153
0.165304965337
0.164946186112
0.16454436405
0.164115643476
0.163671868101
0.163221860667
0.162783151176
0.162394948335
0.162083445963
0.161859189697
0.161711608133
0.161631736369
0.161601073547
0.152873923521
0.152886429707
0.152909017304
0.152932340509
0.152964128685
0.152993525921
0.153027284751
0.153067820969
0.153109902743
0.153180229061
0.153258010865
0.153351234625
0.153453793217
0.153549772725
0.153640808289
0.153746073725
0.153867839759
0.153990188898
0.154115898867
0.154252237509
0.154405148226
0.154576231955
0.154767637935
0.15497357506
0.15521067849
0.155486152131
0.155761284539
0.156057960255
0.156369171654
0.156687034713
0.15702609762
0.157353148738
0.157659670417
0.157960372916
0.158270673657
0.158589971595
0.158917333903
0.159253011162
0.159597100019
0.159949396909
0.160309740974
0.160677601573
0.161051812146
0.16143062543
0.16181172981
0.162192541652
0.162570843824
0.162945186539
0.163314737329
0.1636788949
0.16403687021
0.164387085214
0.164726578129
0.165050918392
0.165354287424
0.165628547644
0.165859397608
0.166024949768
0.166116832969
0.166155424406
0.166168731658
0.166173521061
0.166173361715
0.16614630424
0.166068257507
0.165929332696
0.165740278675
0.165512352238
0.165166786217
0.164684953782
0.164164855918
0.163627783779
0.163047128488
0.162443598285
0.161935275809
0.16157219554
0.161333730041
0.161178979364
0.16109588157
0.161063842405
0.15277490355
0.152784688824
0.152801530662
0.15283185028
0.152873389915
0.152901815978
0.152935904492
0.152981061174
0.153021648822
0.153088295188
0.15317555735
0.153271416587
0.153373210418
0.153470005829
0.15356689938
0.153674108079
0.153794024864
0.153912990121
0.154036309033
0.154170000312
0.154319849108
0.154488789777
0.154690076403
0.15490936792
0.155140721215
0.155416661701
0.155701588586
0.15599395007
0.15631952286
0.156644445191
0.156972619871
0.15729071445
0.157596441915
0.157905211943
0.15822141732
0.158546513619
0.158880174813
0.159222438023
0.159573424351
0.15993312396
0.160301865637
0.160679347886
0.161063973769
0.161453457818
0.161845298165
0.162236977402
0.162626474376
0.16301257726
0.163394723472
0.163772793474
0.164146901181
0.164517020212
0.164882525326
0.165241450678
0.165588833477
0.165911339272
0.166177603915
0.166350733936
0.166437561755
0.166480278592
0.166506142946
0.166520545515
0.166552097593
0.166553019534
0.166467474211
0.166278468697
0.166009393979
0.165711610512
0.165353934387
0.164858042631
0.164273996523
0.163644914572
0.162868163136
0.161961906948
0.161274254973
0.160872846916
0.160645227411
0.160489453241
0.160429065944
0.160414505068
0.152663288709
0.152670404105
0.152678771024
0.152713215242
0.152754798413
0.152789611777
0.152826903718
0.152877231304
0.152923886522
0.152988890152
0.153080069681
0.15317735031
0.1532776103
0.153371717036
0.153476280866
0.153592272216
0.153709935874
0.153825963878
0.153947901823
0.154080427574
0.154226988156
0.154389897758
0.15459021442
0.154832985768
0.155071759008
0.155333817795
0.155633925731
0.155933697156
0.156248578641
0.156579193254
0.156908105101
0.157221852627
0.157527469669
0.157842707167
0.158166052282
0.158497950312
0.158838531438
0.159187984167
0.159546854715
0.159915035657
0.160292863169
0.160680620012
0.161076761534
0.161478359092
0.161882448468
0.162286544536
0.162688773402
0.163087913967
0.163483338364
0.163875164045
0.164264556403
0.164653967404
0.165047208992
0.165447456575
0.165851340363
0.166233914891
0.166536471108
0.166713469226
0.166809544142
0.166891318223
0.166943991678
0.166940377082
0.167044178946
0.167137548676
0.167061311112
0.16678758195
0.166381047291
0.165937765298
0.165498172556
0.16501776893
0.164459438871
0.163836638175
0.162777425107
0.161212611712
0.160246336825
0.15989502718
0.159765430199
0.159609896237
0.159625716038
0.15966843463
0.152540052311
0.152548326262
0.152561713613
0.152585417993
0.152621669509
0.152660579912
0.152702024045
0.152754700071
0.152811797317
0.152877811192
0.152971551777
0.153069844869
0.153169579307
0.153262144892
0.153367141889
0.153491215874
0.153611051402
0.153727433938
0.153849335685
0.153981832218
0.154127111831
0.154285487528
0.154480937923
0.154735125595
0.154990368402
0.155250089929
0.155555579033
0.155864365834
0.156174153571
0.156503125971
0.156822100376
0.157133088693
0.157448907568
0.157772513416
0.158103666987
0.158443235195
0.158791929597
0.159149445642
0.159516588953
0.159894230126
0.160282506635
0.160681575506
0.161090260741
0.161505399113
0.161923489301
0.162341920162
0.162758829561
0.163172564315
0.163581747507
0.163986135276
0.164387618526
0.164792064621
0.165210748567
0.165656197383
0.166127247209
0.166574638997
0.166912043705
0.167111564657
0.167276283805
0.167485852456
0.167575078883
0.167420955718
0.167721544622
0.168022036054
0.167908187467
0.167471408208
0.166858957975
0.16617858414
0.165553708958
0.165057755939
0.164642918895
0.164491347929
0.163010091927
0.159963658125
0.158621737068
0.158580339954
0.158758083218
0.158472480695
0.15867559878
0.158850646895
0.152401731462
0.152411006622
0.152433590598
0.152447673103
0.15247747975
0.152517501312
0.152562275305
0.152618861836
0.152688780138
0.152754996573
0.15284974821
0.152949157583
0.153049519163
0.153143673325
0.153249502792
0.153376580126
0.153498726946
0.153617203137
0.153740323719
0.153873170941
0.154018397349
0.154175932518
0.154363462692
0.154613493871
0.154895066702
0.155163868311
0.155456428504
0.155785153704
0.156105140509
0.156412877872
0.156723432938
0.157037954584
0.157361360281
0.157693419493
0.158033400094
0.15838172009
0.158738997855
0.159105820131
0.159482531967
0.159870195228
0.160269998103
0.16068192733
0.1611046143
0.161534824679
0.16196881413
0.162403921305
0.162838104577
0.163268736078
0.163692516347
0.164107040426
0.164514091056
0.164923497532
0.165356995888
0.165842538742
0.166376856214
0.166875470422
0.167315949863
0.16764253662
0.168031229971
0.168599573996
0.16853494244
0.167086997663
0.167101552759
0.167496183664
0.167494458866
0.167093921665
0.166526651098
0.165947663222
0.165441359316
0.165108914521
0.165239427219
0.166296071292
0.165809692184
0.156559428855
0.154917424345
0.156461532919
0.157773556771
0.156894001517
0.157590671097
0.158067479609
0.152245378452
0.152253741785
0.152274120832
0.152290166541
0.152317295625
0.152358800751
0.152405141
0.152461067204
0.152543272125
0.152618090399
0.152713181976
0.1528143891
0.152916762717
0.153015058372
0.153123400198
0.153251217865
0.15337484281
0.153496044584
0.153621109045
0.153754768889
0.153899944104
0.154058136102
0.154241112675
0.15448328223
0.154780504086
0.155066812189
0.155351056214
0.155672752185
0.15600436791
0.156316319324
0.156621007189
0.156936117253
0.157265462527
0.157606042637
0.157955162685
0.158312506469
0.158679268188
0.159055955301
0.159443443744
0.159842511796
0.160254829468
0.160681084843
0.161119693694
0.161566893789
0.162018732187
0.162473265348
0.162928836972
0.16338071594
0.163820500072
0.164241424788
0.164644389391
0.165040210314
0.165462988584
0.165965070695
0.166512735825
0.167090569571
0.167858842833
0.16822383613
0.167909343554
0.167975966728
0.168131998734
0.167762632163
0.167333720093
0.167318234678
0.167148860577
0.166705816316
0.166125245856
0.165517812468
0.164947358346
0.164440628929
0.163989904428
0.163270611995
0.160015314821
0.156696565596
0.156693132171
0.159126414977
0.16024645838
0.153141584148
0.156330390217
0.157694714682
0.152073237704
0.152080599731
0.152101307774
0.15211727647
0.152144238881
0.152186014943
0.152233406936
0.15228582633
0.152369010776
0.152458179041
0.152558493771
0.15266301556
0.152768941548
0.152875072154
0.152986356327
0.153114621045
0.153239632677
0.153364198538
0.153491717746
0.153626732872
0.153772162068
0.153930255316
0.154110272216
0.154343474922
0.154640206975
0.154955201851
0.155248490788
0.155556695696
0.155882112113
0.156193733023
0.156499719766
0.156822056263
0.157159316414
0.157508650886
0.157867501981
0.158235061523
0.158611867947
0.158999342823
0.159398367148
0.159810216626
0.160236388133
0.160678115608
0.161134694714
0.161601849934
0.162074462223
0.162551617344
0.163033487708
0.16351271946
0.163972713584
0.16439853472
0.164786670625
0.165139124103
0.165500530761
0.165932835145
0.166362435003
0.166889131662
0.167432010158
0.167965428931
0.168041306065
0.167874159884
0.167777882939
0.167421905695
0.16695269068
0.166647618464
0.166305657069
0.165800666939
0.165171295358
0.164484895972
0.163784863656
0.163038312202
0.162143954616
0.160911288452
0.158925946981
0.157136607503
0.156471573509
0.156772205454
0.15530801805
0.156064310863
0.157670618449
0.157746317347
0.151887508694
0.151893317555
0.151909682359
0.151927636263
0.151958927956
0.152000720596
0.152050555737
0.152101456232
0.152183089993
0.152280721934
0.152385668442
0.152492984658
0.152600954923
0.152717669575
0.152835348407
0.152963951233
0.153090932654
0.153220442721
0.153351305062
0.153488340798
0.153634558678
0.153792235411
0.153969896161
0.154195955367
0.154488344933
0.154821116171
0.155134377697
0.155437664761
0.155750031174
0.156056304319
0.15636612313
0.156695049769
0.157040338408
0.157398264356
0.157767390027
0.158146888406
0.158535688896
0.158934582005
0.159346423585
0.159772
0.160213377816
0.160672830752
0.161149916924
0.161639869605
0.162134965733
0.162638648216
0.163160789853
0.163687035735
0.164174386784
0.164605418668
0.164970167361
0.165231004217
0.165459629751
0.165714135497
0.166083545085
0.166524447715
0.167083210767
0.167470012906
0.167514275698
0.167338740018
0.167117113991
0.16676233098
0.166300212066
0.165836960481
0.165328955579
0.164705891778
0.163968068231
0.163147750296
0.162263590452
0.161298619882
0.16014902509
0.158724849997
0.156971105114
0.155162520444
0.153880701438
0.153295088846
0.152835723135
0.153590634173
0.154167729467
0.157995204699
0.151690742366
0.151695301509
0.151706474066
0.15172692718
0.151761981758
0.151803314152
0.151854776622
0.151908586022
0.151986146162
0.152087937431
0.152195716905
0.152304756498
0.152412485829
0.152534228975
0.152664005587
0.152795572332
0.152925153752
0.153060391593
0.153197243555
0.153337869076
0.153486183281
0.15364324538
0.153819011011
0.154039030662
0.154321870733
0.154652104953
0.154987600675
0.155301631654
0.155610296327
0.155913756328
0.156221860225
0.156555539082
0.156908787855
0.157272822813
0.157653794575
0.158046566546
0.158447000317
0.158859111326
0.15928544137
0.159727276473
0.160185630001
0.160663319689
0.161162021841
0.1616810456
0.162217995561
0.162774289271
0.16334915605
0.163915595977
0.164440698536
0.164914456337
0.165288744359
0.16537407872
0.165345783235
0.165421237958
0.165756129438
0.16624228303
0.166654962266
0.1668709647
0.166853767127
0.166646785228
0.166323056343
0.165881781708
0.165331756293
0.164715608577
0.164031143727
0.163246344655
0.162350435378
0.161351812228
0.160253747535
0.15904539828
0.157633256669
0.155930603789
0.153955239554
0.151876787779
0.150029118038
0.148573663055
0.147336945135
0.14648166332
0.147338609807
0.139850841546
0.151483642705
0.151487801793
0.151497271562
0.15152115739
0.151555878599
0.151594829394
0.151643556705
0.151702377324
0.151775674236
0.151879086606
0.151988936885
0.152099645937
0.152208343085
0.152330146514
0.152469987703
0.152607963145
0.15274192781
0.152881862857
0.153025402539
0.153172126843
0.153325283823
0.153482521017
0.153656576311
0.153872247559
0.154145874491
0.15446926834
0.154813652479
0.155141556661
0.155445264721
0.155746352006
0.156062077555
0.156397784695
0.156756776154
0.157131307528
0.157524848394
0.157930381306
0.158343785259
0.158770479031
0.15921271092
0.159672231812
0.160150228413
0.160649798292
0.161178101547
0.16174436375
0.162343510238
0.162953470115
0.163570906965
0.16419001208
0.164812724626
0.165434633828
0.16600474599
0.165744414652
0.165187562664
0.165250339814
0.165600580584
0.165929340922
0.166119441903
0.166156718416
0.166021733968
0.165719764432
0.165282549192
0.164725567029
0.164057205839
0.163294250956
0.162438890208
0.16147596866
0.160393008124
0.159184661915
0.157841946314
0.156343285054
0.154640890447
0.152616264236
0.150237630012
0.147603886294
0.144811500778
0.141805635991
0.138260030692
0.133595316419
0.128129205414
0.120734573707
0.151263539943
0.151267689498
0.151277589795
0.151306064706
0.151339746627
0.151375833177
0.151419605674
0.15148165492
0.151549318315
0.151652667932
0.151764655649
0.151877231722
0.151988033268
0.152111587247
0.152256646787
0.15240125099
0.152541247597
0.152686347621
0.152834968172
0.152988233885
0.15314886663
0.153308398597
0.153480644659
0.153693137081
0.153958932682
0.154273922275
0.154619607507
0.154955310095
0.155268812264
0.15556855292
0.155889489189
0.156231119186
0.156591216306
0.156967174568
0.157369415941
0.15779281386
0.158223493738
0.158667160053
0.159126003788
0.159604109335
0.16010472186
0.160631691823
0.161203274095
0.161832742329
0.162487129213
0.163141188763
0.163813552452
0.164538473559
0.165362131614
0.166347173938
0.168000084792
0.166026173913
0.165412844802
0.165391287845
0.165479457257
0.165525303439
0.165487715275
0.165336761363
0.165046813828
0.164610651187
0.164039285312
0.163343486046
0.16252932766
0.161602777808
0.160563363742
0.159400872952
0.158101700451
0.156651889635
0.155032722295
0.153214786252
0.151159895175
0.148744021341
0.145830330332
0.142403330795
0.138368595711
0.133369707983
0.126573534596
0.116066677573
0.0975896640423
0.0541738621858
0.151024656555
0.151028659435
0.151040797141
0.151074781993
0.151108020987
0.151141993953
0.151183181503
0.151245023151
0.151306756965
0.151407824851
0.151521767243
0.151636219728
0.15174925804
0.151874601534
0.15202275134
0.152173362727
0.152321570938
0.152472578005
0.152625261422
0.152784176423
0.152953592218
0.153118538216
0.153288736274
0.153498321991
0.153758327861
0.15406387092
0.154404206669
0.154736412404
0.155063736227
0.155378013054
0.155699441575
0.156040120237
0.156408118717
0.15679555498
0.157197096592
0.157629620256
0.158079834934
0.158542824322
0.159023060439
0.159521796693
0.160044978002
0.160610279734
0.161246094427
0.161938662128
0.162635927419
0.163342455734
0.164118515229
0.165018402838
0.166013442343
0.167042165558
0.167101316604
0.166942332413
0.165928700316
0.165451156624
0.165232929151
0.165024963485
0.164759691855
0.164403691292
0.163931716348
0.163331105519
0.162601105607
0.161744823104
0.160763920857
0.159658057947
0.158422459391
0.157045767843
0.155511300963
0.153797830531
0.151876876236
0.149708027576
0.14723369584
0.14437761715
0.140922703838
0.136642491021
0.131333587503
0.124461820674
0.114900104116
0.100412798462
0.0769149490373
0.0384170677736
0.150758883096
0.150762765108
0.150777046797
0.15081639587
0.150848881853
0.150884173802
0.150924568994
0.150983673254
0.151042574177
0.151142834026
0.151258904695
0.151375137306
0.151490280306
0.151616877687
0.151766220523
0.151920444561
0.152078864596
0.152237230846
0.152394167488
0.15255796238
0.15273524925
0.152909886976
0.153079368703
0.153284665623
0.153540846464
0.153838265358
0.154171261244
0.154497153234
0.154823856976
0.155157241303
0.155495532384
0.155838718082
0.156195871247
0.156588354883
0.157006329901
0.157446776802
0.157911775426
0.158394137491
0.158896011256
0.159419269822
0.159974932284
0.160598055793
0.161305097756
0.162046901351
0.162796842651
0.16360518253
0.164580125976
0.165729772625
0.16667511487
0.166821045128
0.166888385103
0.166532086912
0.165802618444
0.165235051461
0.164802902026
0.164373876322
0.163892283478
0.163330023717
0.162665420569
0.161884221646
0.160979555736
0.15994824002
0.158786927073
0.157490108091
0.156048359769
0.154446706572
0.152664022793
0.150672254586
0.148433879828
0.145897573198
0.142992324474
0.139621288234
0.13561644233
0.130630053416
0.124268424689
0.116021031731
0.104891931704
0.0891910442975
0.0661258419916
0.0346651807555
0.15045936257
0.150465196897
0.150480162929
0.150518597762
0.150553930808
0.150595946516
0.150639412184
0.150698531203
0.150761773238
0.150856903531
0.150974438036
0.151092401173
0.151209648234
0.151337187489
0.151486419168
0.151640459805
0.15180485012
0.151974082859
0.152138148595
0.152308070076
0.152490960173
0.152678153583
0.152855592307
0.153051893954
0.153304501415
0.153595889731
0.153921443637
0.154242355992
0.154563095557
0.154904809869
0.155260581263
0.15561973561
0.155977600678
0.156362340196
0.156782266479
0.157236602401
0.157718349056
0.158221489673
0.158744015052
0.159294938635
0.159902762202
0.160600785192
0.161368523588
0.162161154269
0.162990904913
0.16394798157
0.165182767284
0.166355120481
0.16653062787
0.166500937558
0.166373071992
0.166011437879
0.165421106121
0.164787666617
0.164174243937
0.163543536538
0.16285920908
0.162097450903
0.16123990404
0.160272636145
0.159185786184
0.157971724628
0.156622594881
0.15512832529
0.153474974816
0.151643194421
0.149606886844
0.147331562958
0.14477153701
0.141865541988
0.138530467241
0.13465224698
0.130074429564
0.124514644854
0.117473058502
0.108335951756
0.0963570950639
0.080341699752
0.0582494024107
0.030642561954
0.150130817681
0.150140286319
0.150155066154
0.150186394157
0.150227932442
0.150276910739
0.150326281636
0.150389790601
0.150462859751
0.150551764326
0.150667736636
0.150786659166
0.150906066061
0.151034730069
0.151184049551
0.151338427934
0.15150278912
0.15168126038
0.151855482338
0.152033911878
0.152222372093
0.152421554433
0.152617042333
0.152815619441
0.153053850072
0.153338207221
0.153656600109
0.153973353792
0.154286703346
0.154627503356
0.154991179224
0.155372237628
0.155743042852
0.156123009174
0.156537629671