/*--------------------------------*- C++ -*----------------------------------*\
| =========                 |                                                 |
| \\      /  F ield         | OpenFOAM: The Open Source CFD Toolbox           |
|  \\    /   O peration     | Version:  v1806                                 |
|   \\  /    A nd           | Web:      www.OpenFOAM.com                      |
|    \\/     M anipulation  |                                                 |
\*---------------------------------------------------------------------------*/
FoamFile
{
    version     2.0;
    format      ascii;
    class       volVectorField;
    location    "691";
    object      Ua;
}
// * * * * * * * * * * * * * * * * * * * * * * * * * * * * * * * * * * * * * //

dimensions      [0 1 -1 0 0 0 0];


internalField   nonuniform List<vector> 
6400
(
(2.47742898093e-05 3.33225227476e-05 0)
(6.70928087783e-05 2.50489472011e-05 0)
(9.8189695645e-05 2.03839543039e-05 0)
(0.000131681021763 1.852495723e-05 0)
(0.000157525604725 1.33040886097e-05 0)
(0.000177764261906 9.33929268103e-06 0)
(0.000191656644412 8.20146218843e-06 0)
(0.0002051288031 1.11986668818e-05 0)
(0.000232434078074 1.49383721459e-05 0)
(0.000261212880949 1.52116567756e-05 0)
(0.00027964299928 1.45727694359e-05 0)
(0.000308172747226 1.5773821231e-05 0)
(0.000336586335835 1.58633484385e-05 0)
(0.000363272900576 1.52865903891e-05 0)
(0.000387962332664 1.54469157815e-05 0)
(0.000414755604871 1.70735015314e-05 0)
(0.000445835763414 1.8056101835e-05 0)
(0.000476223343027 1.78489110729e-05 0)
(0.00050452797943 1.73432940919e-05 0)
(0.000534064279661 1.78110328065e-05 0)
(0.000568754017133 2.06729149927e-05 0)
(0.000608189369914 2.34362547155e-05 0)
(0.000649513390571 2.43531627044e-05 0)
(0.000689793540394 2.44223079891e-05 0)
(0.000729614039494 2.41249037887e-05 0)
(0.000769691414119 2.38037455642e-05 0)
(0.000810872569594 2.40787975355e-05 0)
(0.000852094429414 2.42329554371e-05 0)
(0.000892423439489 2.40782314956e-05 0)
(0.000931974048833 2.40294816855e-05 0)
(0.000970748913304 2.44780889832e-05 0)
(0.00101092825869 2.47805449894e-05 0)
(0.00105265642663 2.48740210721e-05 0)
(0.00109440030745 2.57748799945e-05 0)
(0.00113716981522 2.65728463672e-05 0)
(0.00118370669566 2.72539520091e-05 0)
(0.00122960044477 2.80138367026e-05 0)
(0.00127005143715 2.78020793938e-05 0)
(0.00131528860932 2.72116707447e-05 0)
(0.00136421274649 2.70837316716e-05 0)
(0.00140885752774 2.80498884102e-05 0)
(0.00144678538388 2.74590424487e-05 0)
(0.00148234426351 2.42099424338e-05 0)
(0.00151689734418 2.18924666164e-05 0)
(0.00154872694706 2.08265372677e-05 0)
(0.00157812600526 1.96394644172e-05 0)
(0.00160479967434 1.83182651683e-05 0)
(0.0016279849884 1.65621843283e-05 0)
(0.00164768432194 1.48077924779e-05 0)
(0.00166376146555 1.45495848856e-05 0)
(0.0016782934895 1.61038594786e-05 0)
(0.00169594545769 1.53671854084e-05 0)
(0.00170690346098 9.04679021704e-06 0)
(0.001714535733 5.38520591116e-06 0)
(0.00171015698029 1.87303099732e-06 0)
(0.0016835206894 -4.53406847882e-06 0)
(0.0016546816083 -3.44762125458e-06 0)
(0.00164500620551 1.41348752306e-06 0)
(0.00164238909245 -4.15197101076e-07 0)
(0.00160895151497 -2.08157379536e-06 0)
(0.00158537102284 5.57969131307e-06 0)
(0.00156107643167 1.19840299394e-06 0)
(0.00164027809771 -2.73102305207e-05 0)
(0.00154826347839 -6.51676397889e-05 0)
(0.00126188550518 -6.30588352904e-05 0)
(0.00111989569279 -4.55571266114e-05 0)
(0.00104296104329 -4.51370354111e-05 0)
(0.000982867873936 -4.53062341062e-05 0)
(0.000919106623244 -4.71691218371e-05 0)
(0.000827340378584 -5.0496211496e-05 0)
(0.000729857055294 -5.17309175562e-05 0)
(0.000619051323662 -4.97721945885e-05 0)
(0.000514904874754 -4.84346575115e-05 0)
(0.000444337106207 -5.0647762571e-05 0)
(0.000324462209359 -3.93978504376e-05 0)
(0.000277587648373 -3.38650743611e-05 0)
(0.000179688549204 -2.0535357001e-05 0)
(0.000182977636542 -2.74642432051e-05 0)
(7.77084759533e-05 -1.88814422752e-05 0)
(5.77273799209e-05 -3.46784205747e-05 0)
(9.5722018548e-06 4.70889261476e-05 0)
(4.10283262777e-05 5.23352671284e-05 0)
(7.15460150675e-05 4.7308631941e-05 0)
(9.22772902076e-05 3.87553400105e-05 0)
(0.000132444961883 3.87223120274e-05 0)
(0.000168545249901 2.9471058934e-05 0)
(0.000192007063458 2.27176542906e-05 0)
(0.000211786798543 2.95973535755e-05 0)
(0.000234175246958 3.71482928342e-05 0)
(0.000259174246294 3.8070599052e-05 0)
(0.000284176664712 3.77237047917e-05 0)
(0.000308850718758 3.85876684197e-05 0)
(0.000333797260934 3.81371013057e-05 0)
(0.00035888468035 3.72621025035e-05 0)
(0.000385557443153 3.83448153511e-05 0)
(0.000413775394763 4.39948019321e-05 0)
(0.00044361327385 4.76692086494e-05 0)
(0.000472197331345 4.4065979816e-05 0)
(0.000491953401483 4.14526336777e-05 0)
(0.00052384004536 4.45301042603e-05 0)
(0.000562468011639 5.23540652548e-05 0)
(0.000604140445041 6.05051145913e-05 0)
(0.000648049018006 6.26729258867e-05 0)
(0.000689492343138 6.06412060493e-05 0)
(0.000725457736793 5.91781513663e-05 0)
(0.000767388546421 5.94508747401e-05 0)
(0.000809521109368 5.95493795629e-05 0)
(0.000849837348783 5.90536593057e-05 0)
(0.000889708529788 5.85039131365e-05 0)
(0.000929735074008 5.83649981397e-05 0)
(0.000969470475089 5.90712532107e-05 0)
(0.00100712174575 5.94066012342e-05 0)
(0.00104877889122 5.90992998362e-05 0)
(0.00109024845386 6.16623653525e-05 0)
(0.00113204226405 6.47611678333e-05 0)
(0.00118205647773 6.51976094171e-05 0)
(0.00122636794119 6.61897685438e-05 0)
(0.00126703929089 6.68377578778e-05 0)
(0.0013148195081 6.55982957689e-05 0)
(0.00136844472974 6.3158192564e-05 0)
(0.00141412706734 5.8360647861e-05 0)
(0.00143025596909 5.22559726984e-05 0)
(0.00145391191912 4.84047316563e-05 0)
(0.00149094241054 4.63525532007e-05 0)
(0.00152442430979 4.4163171674e-05 0)
(0.00155751850483 4.12183697943e-05 0)
(0.00158923362093 3.72531593207e-05 0)
(0.00161595681063 3.23917326409e-05 0)
(0.00164238193385 2.71862293229e-05 0)
(0.00166425930366 2.2406304335e-05 0)
(0.00167567341753 1.88344024848e-05 0)
(0.00167039251397 1.53839934585e-05 0)
(0.00166976608543 1.11438328654e-05 0)
(0.00171448741765 2.09897167794e-06 0)
(0.00170323579002 -1.4670762238e-05 0)
(0.0016873879723 -2.63964401615e-05 0)
(0.0016940955484 -2.49226483819e-05 0)
(0.00168777595749 -2.0859438366e-05 0)
(0.00167324918789 -2.60928379281e-05 0)
(0.00166110687273 -3.27033321938e-05 0)
(0.00164909835856 -3.68429853745e-05 0)
(0.00154509403266 -4.70578544076e-05 0)
(0.0016183026692 -0.000120330015279 0)
(0.00150678760054 -0.000219912776049 0)
(0.00126840421123 -0.000226906760048 0)
(0.00105778499026 -0.000167274247562 0)
(0.00095117386412 -0.00012411524872 0)
(0.000935942224819 -0.000115770072877 0)
(0.000878319487911 -0.00012914328052 0)
(0.000808283451663 -0.000150486349561 0)
(0.00070364683826 -0.00016062009052 0)
(0.000590228838731 -0.000153956816525 0)
(0.000475057935132 -0.000131362316132 0)
(0.000419666831631 -0.000124276709839 0)
(0.00035071159037 -0.00011216451471 0)
(0.000291030558586 -9.91610288612e-05 0)
(0.000232430015092 -8.22993557679e-05 0)
(0.000180361021588 -8.18053678252e-05 0)
(0.000110288446914 -8.46872744267e-05 0)
(5.04368888902e-05 -0.000135931928268 0)
(1.33145057351e-05 8.11542129217e-05 0)
(3.81790032016e-05 8.70036836888e-05 0)
(5.94720658233e-05 8.16840273068e-05 7.28588959321e-29)
(9.98587913648e-05 8.24504385495e-05 -6.6832885766e-29)
(0.00013786577113 8.18982514736e-05 -5.8226210504e-29)
(0.000163051672832 6.91155793457e-05 5.28607533297e-29)
(0.000182637867881 4.66152740316e-05 -5.27454159983e-29)
(0.000202711705837 5.22518998136e-05 5.07533173898e-29)
(0.000225982855712 6.23481607293e-05 0)
(0.000251826800383 6.52465051237e-05 0)
(0.00027798744397 6.47836732151e-05 0)
(0.000303020854644 6.39541761211e-05 0)
(0.000327583847762 6.31673704948e-05 0)
(0.000352104004971 6.41445714384e-05 0)
(0.000378859306044 6.77218350006e-05 0)
(0.000407242480735 7.0078643936e-05 0)
(0.000401339628787 6.4511686142e-05 0)
(0.000410151559348 6.17822039518e-05 0)
(0.000441064848518 6.89446153513e-05 0)
(0.000487209137859 8.5096076815e-05 0)
(0.000556889691432 0.00010241140033 0)
(0.00060560244192 0.000107777079603 0)
(0.000640101310125 0.000105424740103 0)
(0.000680961174053 0.000102776620848 0)
(0.000723415287304 0.000101882948605 0)
(0.000763336874142 0.000101948342016 0)
(0.000803180167205 0.000101410832991 0)
(0.000843651049417 0.000100715430693 0)
(0.000883903548346 0.000100299515411 0)
(0.00092362509841 0.000100390087621 9.08427840822e-29)
(0.000964557932173 0.000100755214071 -8.77849078024e-29)
(0.00100016424892 0.000100948863616 0)
(0.00104099729618 0.000101877047763 0)
(0.00108884875045 0.000104560998877 0)
(0.00112069067807 0.000110042253803 0)
(0.00117136184699 0.000114623343509 0)
(0.00122695992573 0.000114414376987 0)
(0.00126097385594 0.000114391461636 0)
(0.00131037807263 0.000116092127236 0)
(0.00136542076662 0.00011169571962 0)
(0.00141137307528 9.8923043382e-05 0)
(0.00144812196278 8.76245291066e-05 0)
(0.00148281293399 8.41832839342e-05 0)
(0.00151734924208 8.25993564667e-05 0)
(0.00154953887868 7.92074142982e-05 0)
(0.00157899435497 7.43649214513e-05 0)
(0.00160585775107 6.78794450338e-05 0)
(0.00163006305915 6.04198615263e-05 0)
(0.0016516862913 5.20052395894e-05 0)
(0.00167032122126 4.19627137649e-05 0)
(0.00168543013714 3.16116534138e-05 0)
(0.00169723129194 2.51579977871e-05 0)
(0.00170659972199 2.29444575083e-05 0)
(0.00170546393156 9.21171646672e-06 0)
(0.00169384649828 -1.2271675227e-05 0)
(0.001698122144 -2.27409499785e-05 0)
(0.00169861218919 -2.54676156328e-05 0)
(0.00168852806768 -2.91851909432e-05 0)
(0.00167316298306 -3.60854782224e-05 0)
(0.00165503157193 -4.7495551376e-05 0)
(0.00162264229206 -7.11995260339e-05 0)
(0.00158947305938 -0.000111177598238 0)
(0.00155480076548 -0.000245603084051 0)
(0.00135028435091 -0.000378779424595 0)
(0.00108204505079 -0.000338207528342 0)
(0.000989773517363 -0.000261058911107 0)
(0.000946762128952 -0.000208323734464 0)
(0.000875499029742 -0.00018988342028 0)
(0.000803715449703 -0.000210572426571 0)
(0.000720175453296 -0.000240343964989 0)
(0.00062016308315 -0.000248491426916 0)
(0.00052940735743 -0.000230489179147 0)
(0.000471715089987 -0.0002083824344 0)
(0.00041635306083 -0.00019652203707 0)
(0.000346188461789 -0.00018465426929 0)
(0.000275970951464 -0.00016499367757 0)
(0.000211986705361 -0.000143931399297 0)
(0.00016025127602 -0.000149179514317 0)
(0.000109872281301 -0.000188894905632 0)
(2.7749224601e-05 -0.000185319414424 0)
(1.21268812248e-05 0.000117603543551 0)
(1.83622308148e-05 8.27727235082e-05 0)
(4.63407869823e-05 0.000120611575857 0)
(8.27955381589e-05 0.000120872463216 0)
(0.000117290717956 0.000106540436127 0)
(7.38568988467e-05 4.79156617409e-05 0)
(9.46046663978e-05 5.25576808365e-05 0)
(0.000171023563369 9.24260119493e-05 0)
(0.000208993106404 9.8173139559e-05 0)
(0.0002388220135 9.45253214853e-05 0)
(0.000267561577467 9.21898701218e-05 0)
(0.000294007148414 8.94251374456e-05 0)
(0.000318901844106 8.81212363393e-05 0)
(0.00034094390546 8.61755754713e-05 0)
(0.000343970960643 7.94317128677e-05 0)
(0.000346580271019 7.41969155186e-05 0)
(0.0003639648902 7.6773155024e-05 0)
(0.000401535001227 9.31029194094e-05 0)
(0.000462825174106 0.000120052151256 0)
(0.000521033094684 0.000144154504879 0)
(0.000557344056158 0.000150915774161 0)
(0.000595057664677 0.000148577277565 0)
(0.00063552116582 0.000145950164437 0)
(0.000675316318126 0.000144135192781 0)
(0.000714708789153 0.000142529264651 0)
(0.000753969668979 0.000141456638518 0)
(0.000793452646534 0.000141015212837 0)
(0.000834955653113 0.000140837772387 0)
(0.000874327379065 0.00014034810677 0)
(0.000916461578234 0.000140643073594 0)
(0.000953033737779 0.000140477686202 0)
(0.000995821866241 0.000140927999993 0)
(0.00102803005923 0.000140360439567 0)
(0.0010733785402 0.000146292194518 0)
(0.00112843284729 0.000156063523008 0)
(0.00116474390373 0.000161830368636 0)
(0.0012196908054 0.00016399910238 0)
(0.00127517586336 0.000164298861239 0)
(0.00132097668365 0.000163543658635 0)
(0.00136488103824 0.000155861689472 0)
(0.00140736663028 0.000141516323768 0)
(0.00144649057934 0.000128019392967 0)
(0.0014832313518 0.000120117781204 0)
(0.00151816681467 0.000114943436768 0)
(0.001550495707 0.000109081456484 0)
(0.001580074116 0.000101744664212 -7.6520732953e-29)
(0.0016070138562 9.29321382434e-05 7.69297870878e-29)
(0.00163128104591 8.29026643965e-05 0)
(0.0016528269274 7.16866455396e-05 0)
(0.00167140425354 5.93226199346e-05 0)
(0.0016865915733 4.69670254385e-05 0)
(0.00169780957871 3.5940361269e-05 0)
(0.00170431640224 2.38120691152e-05 0)
(0.00170478074172 6.11277978652e-06 0)
(0.00170226805545 -1.14996448809e-05 0)
(0.00170075813167 -2.33420915834e-05 0)
(0.00169632319089 -3.29388881187e-05 0)
(0.00168465791316 -4.32536041637e-05 -1.46871037714e-28)
(0.00166529777943 -5.69402036272e-05 1.70265967287e-28)
(0.00163565323073 -7.95000358024e-05 0)
(0.00158742956306 -0.000121769036861 0)
(0.00151506824187 -0.000212140429965 0)
(0.00139643276956 -0.000385103478976 0)
(0.00126179180263 -0.000529634030551 0)
(0.00113952047811 -0.000499027938357 0)
(0.000946361494448 -0.000342228660347 0)
(0.000855322659623 -0.000272450758111 0)
(0.000793951448651 -0.000265199826444 0)
(0.000728586804787 -0.000290168143539 0)
(0.000668695812645 -0.000330336526337 0)
(0.000592128023753 -0.000341721314122 0)
(0.000514292875471 -0.000316759797005 0)
(0.000438723098021 -0.000285183889932 0)
(0.000348499760566 -0.000255845457028 0)
(0.000282706309412 -0.000243211743936 0)
(0.000222273727612 -0.00023445159955 0)
(0.000157557660831 -0.00020872251118 0)
(9.0782267308e-05 -0.000166452574527 0)
(6.60781977737e-05 -0.000208908784912 0)
(2.192684611e-05 -0.000240052325444 0)
(6.64327900249e-07 0.000118403344532 0)
(9.09187580751e-06 9.96619974987e-05 0)
(3.90002122437e-05 0.000153847667553 0)
(6.76364347801e-05 0.000145877091056 0)
(7.66617443184e-05 0.000105124438947 0)
(6.42466103382e-05 6.53863987779e-05 0)
(0.000111468496829 0.000104403223154 0)
(0.000164146987258 0.000140468692356 0)
(0.000190015523768 0.00013365595738 0)
(0.000221408431142 0.000125879952636 0)
(0.000251818895051 0.000122686996922 0)
(0.000279352421895 0.0001177914056 0)
(0.000293570605612 0.000105512911498 0)
(0.000287068970211 8.89801983015e-05 0)
(0.000304553966785 8.88400803598e-05 0)
(0.000336561049994 0.000100397348877 0)
(0.000382558774643 0.000121464291513 0)
(0.000435233952233 0.000149195910079 0)
(0.000478711910721 0.000171028694789 0)
(0.000508658258452 0.000179892633446 0)
(0.000545051457264 0.00018585113232 0)
(0.000585585213931 0.000188552573523 0)
(0.000624655179367 0.000186811577911 0)
(0.000663805126051 0.000184007714402 0)
(0.000702711759851 0.000181897637336 0)
(0.000741371211732 0.000181181233434 0)
(0.000782511852092 0.000181380743413 0)
(0.000820722703987 0.000180843952887 0)
(0.000864563127718 0.000181201996782 0)
(0.000900070239625 0.000180025536603 0)
(0.000945835870661 0.000181153279247 8.71238768095e-29)
(0.000971467130514 0.000179011237438 -8.3124766061e-29)
(0.00102343027263 0.000184953305308 0)
(0.00107648643037 0.000193694932049 0)
(0.00111632222206 0.000202640200021 0)
(0.00117490716384 0.000213577268758 0)
(0.00122614942316 0.000217683659255 0)
(0.0012737768855 0.000213943437124 0)
(0.00131889339815 0.000207179892912 0)
(0.00136248693883 0.000197175278691 0)
(0.00140497934699 0.000183123272595 0)
(0.00144540076638 0.000168783352267 0)
(0.00148345162601 0.000157701952755 0)
(0.00151904573919 0.000148931275497 0)
(0.00155182201212 0.000140094856933 0)
(0.00158176057787 0.000130096116249 0)
(0.00160894117411 0.000118709939731 0)
(0.00163332347429 0.000105999720154 0)
(0.00165477408156 9.19678904947e-05 0)
(0.00167303290522 7.67343634177e-05 0)
(0.00168768146337 6.09248116919e-05 0)
(0.00169807568553 4.48859814986e-05 0)
(0.00170354258384 2.73031533641e-05 0)
(0.00170405230681 7.25135126894e-06 0)
(0.0017018015535 -1.19072890992e-05 0)
(0.00169822505766 -2.80168194502e-05 0)
(0.00168999712565 -4.39093251308e-05 0)
(0.00167251493376 -6.32020760845e-05 0)
(0.00164185384127 -9.05775308617e-05 0)
(0.00159191495544 -0.000134977938058 0)
(0.00151453406897 -0.000210962426346 0)
(0.00140898978763 -0.000335064316421 0)
(0.00127522220122 -0.000497998686183 0)
(0.0012007057182 -0.000626427822824 0)
(0.00112997319534 -0.000620480887016 0)
(0.000962561176643 -0.000482975571576 0)
(0.000838157028455 -0.000389288425553 0)
(0.000737233823398 -0.000354202636129 0)
(0.000654394670148 -0.000362976524221 0)
(0.000590734969031 -0.000397068483101 0)
(0.000529242829796 -0.000419920710579 0)
(0.000451834147131 -0.000398393997686 0)
(0.000356956700945 -0.000346316840331 0)
(0.000292019961699 -0.000323455435612 0)
(0.000231006438304 -0.000315548778573 0)
(0.000170154124065 -0.000302138768811 0)
(0.000112602728411 -0.000248704863749 0)
(7.16107919e-05 -0.000211019162529 0)
(4.48602822361e-05 -0.000259265546462 0)
(1.0978735844e-05 -0.00026630833491 0)
(-9.30596927082e-07 0.000110586327145 0)
(9.88431572681e-06 0.000118871750168 0)
(3.66558155199e-05 0.000173515238008 0)
(5.31672755084e-05 0.000153376991161 0)
(4.22095577584e-05 8.48201451854e-05 0)
(6.09009349608e-05 9.06436105842e-05 0)
(0.000126489176885 0.00015709026037 0)
(0.000149571096477 0.000166946969446 0)
(0.000172531505596 0.000161913907564 0)
(0.000200777998271 0.000157724733428 0)
(0.000230762921943 0.000148812141239 0)
(0.00023007686132 0.000123766663525 0)
(0.000221022305997 9.89675735038e-05 0)
(0.000245770840804 0.000102843148536 0)
(0.000279924925408 0.000120416950622 0)
(0.000333565531393 0.000148365347788 0)
(0.000387879885508 0.000174409240544 0)
(0.000430028524216 0.000191527961404 0)
(0.0004555089835 0.000199918671467 0)
(0.000492789933697 0.000213886783925 0)
(0.000534022989037 0.000225363371574 0)
(0.000571898887788 0.000227885308228 0)
(0.000609924156731 0.000226145877404 0)
(0.000648200033587 0.000223488301143 0)
(0.000688623596771 0.000222004164471 0)
(0.000727255427949 0.000220430490009 0)
(0.000761838636643 0.000220413882232 0)
(0.000809177559479 0.000222717733592 0)
(0.000840707777776 0.000219685846468 0)
(0.000891064022343 0.000220525754663 0)
(0.000910876623027 0.000216313276507 0)
(0.000968433392654 0.000224519822123 0)
(0.0009954679177 0.000228700419563 0)
(0.00106021712661 0.000243805166938 0)
(0.00112423984167 0.000259362497096 0)
(0.00117629919284 0.000267621964289 0)
(0.00122400325477 0.000266412760131 0)
(0.00127034334734 0.000260152457541 0)
(0.00131556717753 0.000251332308458 0)
(0.00135981292017 0.000239828969768 0)
(0.00140292946441 0.000225316103394 0)
(0.00144432277477 0.000209891986394 0)
(0.00148344379178 0.000196038229235 0)
(0.00151987017139 0.000183780833484 0)
(0.00155334409257 0.000171711665533 0)
(0.00158383643664 0.000158797840287 0)
(0.00161139337907 0.000144620920082 0)
(0.00163591127728 0.000129040593866 0)
(0.00165715587091 0.000111968387672 0)
(0.00167482520355 9.34479752563e-05 0)
(0.00168851589158 7.37444936475e-05 0)
(0.00169769329924 5.29377128501e-05 0)
(0.00170198768189 3.06838828206e-05 0)
(0.00170176018695 7.44682333237e-06 0)
(0.00169812934188 -1.50051569565e-05 0)
(0.00169058746665 -3.6990621491e-05 0)
(0.00167509504114 -6.22897296843e-05 0)
(0.00164612310812 -9.60167409061e-05 0)
(0.00159818880343 -0.000144819757334 0)
(0.00152517952749 -0.000217238552595 0)
(0.00142625961735 -0.000321225581376 0)
(0.00131118116042 -0.000452827390546 0)
(0.00116269139757 -0.000572880795985 0)
(0.00115484764056 -0.0007224270089 0)
(0.00102053146422 -0.000703966885064 0)
(0.000876721001072 -0.000581077814012 0)
(0.000779634558282 -0.000502441539796 0)
(0.000675192909425 -0.000453467517686 0)
(0.000578284868674 -0.000438745342904 0)
(0.000517429897286 -0.000475248532444 0)
(0.000456089765543 -0.000505527002948 0)
(0.000366803526356 -0.00045462444426 0)
(0.000297553066522 -0.000407057221167 0)
(0.000241933905471 -0.000393171480721 0)
(0.000178858555421 -0.000380504544711 0)
(0.000129780130937 -0.000354952256492 0)
(8.38405418157e-05 -0.000278321269105 0)
(5.19341532803e-05 -0.000244788471383 0)
(2.96784605844e-05 -0.000287536129771 0)
(7.93884299672e-06 -0.000284399768935 0)
(2.84291588973e-06 0.000118474143745 0)
(2.09193897755e-05 0.000149619161027 0)
(4.45649966956e-05 0.000185849201337 0)
(4.82147591051e-05 0.000180952383843 0)
(3.59868484857e-05 0.000106278333025 0)
(7.94445464605e-05 0.00014953449404 0)
(0.000119830516076 0.000185306949658 0)
(0.000134358382386 0.000186774497382 0)
(0.000155073652733 0.000184693027358 0)
(0.000174537413879 0.000180869372178 0)
(0.000206047555565 0.000169687390017 -2.40275837867e-28)
(0.000174939385559 0.000115998429973 1.5712789385e-28)
(0.000203804745697 0.000120228251349 0)
(0.000229197430403 0.000135895971579 0)
(0.000277348353348 0.000168964363565 0)
(0.000334343679409 0.000204512166784 0)
(0.0003762848123 0.000219373517349 0)
(0.000395861814506 0.000218654258121 0)
(0.000434142189818 0.000234352638624 0)
(0.000479169704509 0.000254914156747 0)
(0.000516169766435 0.000263881342814 0)
(0.000554095743791 0.000266172081384 0)
(0.000592712315108 0.00026552357503 0)
(0.000631502874114 0.000262863575324 0)
(0.000667784944046 0.000259175967229 0)
(0.000702620613781 0.00025728036139 0)
(0.000748062971969 0.000260331570859 0)
(0.000775054944536 0.000259842919769 0)
(0.000830474619392 0.000262097438647 0)
(0.000846425114239 0.000251421579202 0)
(0.000907174977858 0.000260464566679 0)
(0.000935521066602 0.000266955315939 -8.20089236086e-29)
(0.00099890021444 0.000283476437624 8.27417000611e-29)
(0.00105538442407 0.000302959503864 0)
(0.00112167633807 0.000318217658973 0)
(0.00117208647497 0.000319338337251 0)
(0.00121872796826 0.000314020178935 0)
(0.00126523690636 0.000306153529308 0)
(0.00131149064044 0.000296214012589 0)
(0.0013568585532 0.000283661866587 0)
(0.00140091680267 0.000268332935373 0)
(0.00144331286757 0.000251579102636 0)
(0.00148347603449 0.000235178267695 0)
(0.00152086570488 0.000219604930728 0)
(0.00155519900923 0.000204176888064 0)
(0.00158640182916 0.000188086675874 0)
(0.00161441467715 0.000170805223846 0)
(0.0016390119016 0.000152003582985 0)
(0.00165986116481 0.000131473948942 0)
(0.00167663114637 0.000109169284785 0)
(0.00168896019581 8.5199544608e-05 0)
(0.00169645612738 5.96945865913e-05 0)
(0.00169893285692 3.28777436408e-05 0)
(0.00169657673112 5.35252167404e-06 0)
(0.00168929589278 -2.27024758017e-05 0)
(0.00167494334551 -5.36714151204e-05 0)
(0.00164855270801 -9.26752505609e-05 0)
(0.00160456480993 -0.000145395154263 0)
(0.00153989612651 -0.000217022357498 0)
(0.00145660289367 -0.000311221393697 0)
(0.00135985498203 -0.000426998319495 0)
(0.00125733752107 -0.000553674553944 0)
(0.00117060261258 -0.000681088937963 0)
(0.00110382135031 -0.000810706207581 0)
(0.000981097614104 -0.000815918093062 0)
(0.000784239060194 -0.000662656944964 0)
(0.000714026951821 -0.000603559539751 0)
(0.000622951466986 -0.000566807785537 0)
(0.000522713758791 -0.000546619548188 0)
(0.000444593450444 -0.000566671856534 0)
(0.000374035998088 -0.000563648741784 0)
(0.000302656852815 -0.000502786760937 0)
(0.000250619650151 -0.000474915592288 0)
(0.000189571114347 -0.000458102646846 0)
(0.000134088858376 -0.000437785577828 0)
(9.31006397547e-05 -0.000379327788023 0)
(6.14459891069e-05 -0.000317496438052 0)
(2.78117327514e-05 -0.000273340573274 0)
(1.14870881398e-05 -0.000301347071077 0)
(3.90533462353e-06 -0.000302167571598 0)
(6.2694785897e-06 0.000134936120947 0)
(2.76084916687e-05 0.000175873496882 0)
(4.6488524878e-05 0.000191445070848 0)
(2.93343349635e-05 0.000129005748855 0)
(3.44599228644e-05 0.000128053848076 0)
(8.27356547917e-05 0.000194105268982 0)
(0.000102305759243 0.00020291887064 0)
(0.000119446958019 0.000205116865732 0)
(0.000131851281794 0.000202260710921 0)
(0.000154288717245 0.000200622899798 0)
(0.000135995800783 0.000142841394506 0)
(0.000156889065854 0.000135587365995 0)
(0.00018499442758 0.000147819273292 0)
(0.000215514820391 0.000173211516965 0)
(0.000276108425044 0.000223279965376 0)
(0.000320445288862 0.00024741834704 0)
(0.000336288426454 0.000241438170726 0)
(0.00036949468955 0.000252149773155 0)
(0.000417489261884 0.000278291309893 0)
(0.000458251708682 0.000294956876863 0)
(0.000494245727985 0.000301222320045 0)
(0.000531082527092 0.00030361846041 0)
(0.000570898058888 0.000305047153693 0)
(0.000609355917754 0.000302475581131 0)
(0.000649440041498 0.000297462784128 0)
(0.000678481337311 0.000295845197954 0)
(0.000728541838791 0.000301050674357 0)
(0.000760425351032 0.000298439170002 0)
(0.000787786104821 0.000293108607267 0)
(0.00083330789444 0.000297039520573 0)
(0.000899688303918 0.00031137449658 0)
(0.000932902949546 0.000316327517519 0)
(0.000981434233789 0.000337370764308 0)
(0.00106029719193 0.000366090989895 0)
(0.0011137101003 0.000374181967091 0)
(0.00116296202657 0.000369722600951 0)
(0.00121121921551 0.000362104780394 0)
(0.0012590491792 0.000353216227786 0)
(0.00130664620507 0.000342419002248 0)
(0.00135343027235 0.000328872222821 0)
(0.0013987768037 0.000312440623271 0)
(0.00144233963716 0.00029410911435 0)
(0.00148366414277 0.00027523317377 0)
(0.00152219240339 0.000256460890115 0)
(0.00155756282906 0.000237587616756 -7.41444528955e-29)
(0.00158960584607 0.000218046092279 7.38944058707e-29)
(0.00161810536939 0.000197252109398 0)
(0.00164267952707 0.000174730705077 0)
(0.00166289804303 0.000150188765786 0)
(0.00167840802375 0.000123540170515 0)
(0.00168888093847 9.48581070569e-05 0)
(0.00169399636459 6.43472443495e-05 0)
(0.00169355777644 3.2312703381e-05 0)
(0.00168726065616 -1.20223888861e-06 0)
(0.0016737837332 -3.76492095118e-05 0)
(0.00164973706157 -8.10533042662e-05 0)
(0.00161011796072 -0.00013687930825 0)
(0.00155247462816 -0.000208122392873 0)
(0.00148111705479 -0.000295609558556 0)
(0.00140287822604 -0.000400019016591 0)
(0.00131894343069 -0.000518014579138 0)
(0.00123384160521 -0.000639602460617 0)
(0.00115847400229 -0.000760780663334 0)
(0.00107966712766 -0.000883699002538 0)
(0.00106230909153 -0.00100079347948 0)
(0.000790604128133 -0.000808461918424 0)
(0.000633434706126 -0.000701819071975 0)
(0.000539475169489 -0.000665676929509 0)
(0.000435663649361 -0.000637513143675 0)
(0.000358774055877 -0.000634323615995 0)
(0.000301110451348 -0.000605732329205 0)
(0.000249982361489 -0.000556987103927 0)
(0.000198693024097 -0.000538312162407 0)
(0.000139967510627 -0.000517791157104 0)
(9.28696981417e-05 -0.000480582234407 0)
(5.67118060849e-05 -0.000407964917932 0)
(2.71379898105e-05 -0.00035443605047 0)
(-2.72382132488e-06 -0.000305031175911 0)
(-1.45850152894e-05 -0.000304709126831 0)
(-6.32475364327e-06 -0.000307523116626 0)
(8.16327584672e-06 0.000154155496481 0)
(2.83273754297e-05 0.000194334804228 0)
(3.38205687081e-05 0.000195499378013 0)
(2.43778852858e-05 0.000139102746548 0)
(4.41949254126e-05 0.000161031943538 0)
(7.71802820637e-05 0.000212964612643 0)
(8.53108898882e-05 0.000218440583088 0)
(0.000104684054457 0.00022115193711 0)
(0.000105280240245 0.000203614081138 0)
(0.000133263716355 0.000224945183436 0)
(0.000116257226383 0.000159224998074 0)
(0.000143206398042 0.000160905744486 0)
(0.000167602157936 0.000177965641325 0)
(0.000210919131423 0.000223035454077 0)
(0.000261441204288 0.000268617548071 0)
(0.000293587037565 0.000279421240583 0)
(0.000308313176628 0.000272367771963 0)
(0.000348579128271 0.000293842709795 0)
(0.000393212428743 0.000320032340433 0)
(0.000432052907217 0.000333660482666 0)
(0.000469850874592 0.000339250880065 0)
(0.000505574314949 0.00034081113116 0)
(0.000544489275929 0.00034267741569 0)
(0.000578145221286 0.000339010956816 0)
(0.000610605142639 0.000330342939871 0)
(0.000660630900294 0.000335936312684 0)
(0.000677783581767 0.000332388133164 0)
(0.00074717919455 0.000343034068072 0)
(0.000764557699573 0.000337380084487 0)
(0.000834938169039 0.000353030115258 0)
(0.000856110929903 0.000350549178577 0)
(0.00093267998614 0.00037496514102 0)
(0.000992328290586 0.000403191769437 -8.58178718531e-29)
(0.00104949965594 0.000423098564535 8.54040108647e-29)
(0.00110157261858 0.000425908536183 0)
(0.00115195594189 0.000420213802919 0)
(0.00120211682628 0.000411799082957 0)
(0.00125175892316 0.000401997823939 0)
(0.00130095762041 0.00039026273957 0)
(0.00134935011598 0.000375662406528 0)
(0.00139631457185 0.000357931558765 0)
(0.00144138198557 0.000337814466566 0)
(0.00148410617969 0.000316434252146 0)
(0.00152398830564 0.000294498490657 0)
(0.00156061947378 0.00027206797366 0)
(0.00159364885959 0.00024874152536 0)
(0.00162264856967 0.000223917518706 0)
(0.00164707858967 0.000197040069789 0)
(0.00166641660534 0.000167791209648 0)
(0.00168026098886 0.000136096846636 0)
(0.00168826190853 0.00010203282867 0)
(0.00169009049366 6.57356318288e-05 0)
(0.00168536180833 2.71959047228e-05 0)
(0.00167312163632 -1.45066422859e-05 0)
(0.00165101695037 -6.22273440877e-05 0)
(0.00161523608608 -0.000120523431956 0)
(0.00156237303943 -0.000192979415948 0)
(0.00149672804779 -0.000276088471849 0)
(0.0014308117906 -0.000369018746385 0)
(0.00136630500248 -0.000478407148816 0)
(0.00129038030175 -0.000601803283107 0)
(0.00120275568848 -0.000719837549448 0)
(0.00112679162096 -0.000827540459562 0)
(0.00106915043497 -0.000939870423007 0)
(0.00104844082598 -0.00106685360308 0)
(0.000949804778573 -0.00108019969066 0)
(0.000610296473375 -0.000829340068506 0)
(0.000449612853376 -0.000779169223457 0)
(0.000354913252853 -0.000741173557979 0)
(0.000282767391511 -0.00069614895143 0)
(0.00023278893184 -0.000645474265886 0)
(0.000193362765223 -0.000608827654712 0)
(0.000147140151965 -0.000595797838259 0)
(9.47597178305e-05 -0.000569970603127 0)
(4.92357246197e-05 -0.000515886819128 0)
(9.88540835431e-06 -0.000446720336441 0)
(-2.43754047772e-05 -0.000385964900963 0)
(-4.63466802808e-05 -0.000331826640379 0)
(-4.5242651295e-05 -0.000298711737709 0)
(-1.87848751412e-05 -0.000283672097698 0)
(8.90393597604e-06 0.000175735383614 0)
(2.85644895042e-05 0.000205520729542 0)
(2.64564967393e-05 0.000192191420097 0)
(2.08463294705e-05 0.000147454180221 0)
(4.8506521786e-05 0.000203964858099 0)