/*--------------------------------*- C++ -*----------------------------------*\
| =========                 |                                                 |
| \\      /  F ield         | OpenFOAM: The Open Source CFD Toolbox           |
|  \\    /   O peration     | Version:  v1806                                 |
|   \\  /    A nd           | Web:      www.OpenFOAM.com                      |
|    \\/     M anipulation  |                                                 |
\*---------------------------------------------------------------------------*/
FoamFile
{
    version     2.0;
    format      ascii;
    class       volScalarField;
    location    "328";
    object      p;
}
// * * * * * * * * * * * * * * * * * * * * * * * * * * * * * * * * * * * * * //

dimensions      [0 2 -2 0 0 0 0];


internalField   nonuniform List<scalar> 
6400
(
0.154011384536
0.154013611227
0.154019900949
0.154031952909
0.154049285823
0.154071671797
0.154099185047
0.154132899591
0.154172976127
0.154219679885
0.154278249032
0.154351375748
0.154435853571
0.154531760524
0.154640932752
0.154765463266
0.154906076748
0.155062182835
0.155232262153
0.155411683839
0.155594379097
0.155780369517
0.1559752477
0.156185503178
0.156415626685
0.156665461117
0.156931569206
0.157211559756
0.157505324325
0.157813718708
0.158137466707
0.158475093747
0.158820873059
0.159169163211
0.15951802162
0.159863930037
0.160206107361
0.160552181099
0.160901356613
0.161243029613
0.161578637268
0.161923321928
0.162285294486
0.162656779642
0.163028860387
0.163396329486
0.163755254292
0.164103369873
0.164438785129
0.164760014756
0.165066374708
0.16535386449
0.16561672363
0.165846675974
0.166044077752
0.166217516377
0.166364819812
0.166477780112
0.166555873353
0.166606886332
0.166635984543
0.166646184503
0.166643503578
0.166626157199
0.166583599251
0.166496838812
0.166363179963
0.166207639059
0.166056969996
0.165919468959
0.165792700214
0.165670725604
0.165549607872
0.165435541396
0.165327973786
0.165230602325
0.165146341452
0.165089464297
0.165052072446
0.165036192519
0.154008031041
0.154010362595
0.154015947105
0.154027737936
0.154046513754
0.154070327392
0.154098339605
0.154130541578
0.154168864767
0.154215582146
0.154273849339
0.154345783652
0.154430523412
0.154527448211
0.154636977475
0.154760258404
0.154900256727
0.155057136235
0.155228907166
0.155409575706
0.155590535661
0.15577424613
0.1559682201
0.156178005561
0.156408412247
0.156659127599
0.156925432846
0.157205975134
0.157500794963
0.157810055934
0.158133739843
0.158471726297
0.158818761518
0.159167166751
0.159516385326
0.159862613013
0.160204318174
0.160550775869
0.160900907927
0.161242339612
0.161574597081
0.161918313676
0.162285127029
0.162659981341
0.163033473086
0.163402448773
0.16376270535
0.16411246846
0.164449201264
0.164769640212
0.165073338442
0.165361773218
0.165632208706
0.165864382401
0.166063000971
0.166240160591
0.166385286467
0.16649431625
0.166571544182
0.166621722
0.166649217522
0.166659478915
0.166655826613
0.166637912808
0.166595420176
0.166509373332
0.166373294474
0.166214793861
0.166061505186
0.16592119544
0.165791749027
0.165666698982
0.165541315088
0.165421642902
0.165311993539
0.165214557358
0.16513413918
0.165077080192
0.165039775571
0.165027055536
0.153998779265
0.154002724144
0.154007592979
0.15401837787
0.154036587659
0.154063527911
0.154094436059
0.154125722582
0.154161872817
0.154207387886
0.154264980745
0.154336302861
0.154421204416
0.154518844087
0.154628582483
0.15474861129
0.154886675338
0.155049841687
0.155225374997
0.155405091626
0.155581848705
0.155759416795
0.155951617776
0.15616391675
0.156395016902
0.156645156188
0.156912774528
0.157195337724
0.157491846381
0.157802557818
0.158127112156
0.158466132358
0.158815881182
0.15916372287
0.159511303133
0.159860248418
0.160201460179
0.160545706426
0.160896499137
0.161240363044
0.161579317874
0.161927501206
0.162291675779
0.162664679641
0.163038569052
0.163408670049
0.163771329682
0.164123904904
0.164463824051
0.164788730777
0.165097265365
0.165387507487
0.165653885135
0.165889567011
0.166097775075
0.166276531568
0.16641903577
0.166526512853
0.166602509552
0.166651174747
0.166677494026
0.166686727005
0.16668129838
0.166663793303
0.16662045652
0.166530756685
0.166395034402
0.166234718268
0.166074004982
0.165925476746
0.16578790588
0.165654806143
0.165524800689
0.165402188881
0.165288916871
0.165189696736
0.165110445088
0.165053159004
0.16501673918
0.165003231985
0.153986141618
0.153990070163
0.153993822879
0.154003700521
0.154019700995
0.154046508165
0.154086961589
0.154118189099
0.154151485667
0.154194871957
0.154251417758
0.154322407627
0.154407721494
0.154505093262
0.15461518986
0.154741226075
0.154884983834
0.155045966148
0.155214034764
0.155381841082
0.155553329791
0.155734241341
0.155928692826
0.156141118708
0.156373229775
0.156624938149
0.156894658204
0.157179605648
0.157478610428
0.157791200511
0.158118241483
0.158458994616
0.158810307153
0.159163074438
0.159507359738
0.159851602111
0.16019725396
0.16054035217
0.160885631938
0.161232052108
0.161579211963
0.161933495282
0.162299124868
0.162672546821
0.163047851404
0.163420324131
0.163786228872
0.164142611339
0.164486841868
0.164816532143
0.165129548594
0.165423094103
0.165692871388
0.165934851375
0.166147646814
0.166327291814
0.166470112336
0.166577181835
0.166652098091
0.166699321303
0.166723834301
0.166730243393
0.1667226589
0.166704965011
0.166662135337
0.166573615228
0.166433192285
0.166263826054
0.166090964451
0.16592998647
0.16578284892
0.165643902701
0.165508891927
0.165375725141
0.165251144914
0.165148631475
0.165070817833
0.165008158545
0.164964315423
0.164946108823
0.153966549192
0.153966913507
0.153971573135
0.153981694401
0.153999510096
0.154024695705
0.154061107024
0.1540961758
0.154132036019
0.154176219319
0.154232082743
0.154303016604
0.154389327636
0.154492627207
0.154611129031
0.154738964124
0.154877358024
0.155026079848
0.15518282696
0.155347471547
0.155520289986
0.155702138154
0.155897648726
0.156111415131
0.156344986504
0.156598698769
0.156870587102
0.15715861011
0.157460670616
0.157776754029
0.15810610247
0.158451481326
0.158808517838
0.159157521063
0.159500850718
0.159842559588
0.160182653948
0.160526066123
0.160873686832
0.161224449305
0.16157837017
0.161938608319
0.162307509031
0.162683108773
0.163061051103
0.16343697117
0.163807104678
0.164168338699
0.164517984882
0.164853570748
0.165172569192
0.16547189067
0.165747727679
0.165996336225
0.16621421481
0.166396806148
0.166541301514
0.1666490666
0.166723923185
0.16677049644
0.166793639623
0.166797902986
0.166787470527
0.166767151894
0.166720199614
0.16663012251
0.166486527232
0.166307085809
0.166117982107
0.165940457433
0.16578145163
0.165632667637
0.16548121616
0.165327756258
0.165191594399
0.165083295501
0.164995469006
0.164914750031
0.164863002001
0.164844011029
0.1539299
0.153929394339
0.153937891605
0.153948214177
0.153967840925
0.153995076213
0.154028470993
0.154064402135
0.15410389354
0.154150028225
0.154204703269
0.154276600299
0.154372085733
0.154483912826
0.154602482485
0.154725238024
0.154854422288
0.154994362612
0.155147040676
0.155310155828
0.155480727801
0.155662140157
0.155859023164
0.156074794254
0.156310475643
0.156565717623
0.156840950154
0.157132105839
0.157438664196
0.15775857316
0.158093604017
0.158441916429
0.158798290788
0.159152886643
0.159490680409
0.159824354133
0.160163261585
0.160508989604
0.160860450289
0.161216389588
0.161576735267
0.161943109764
0.162316676025
0.162696080063
0.163077982179
0.163458471512
0.163833874604
0.164201044604
0.164557302113
0.164900155055
0.16522692242
0.165534387706
0.165818710049
0.16607558729
0.166300219243
0.16648782185
0.166636172931
0.166746836793
0.166823604264
0.166870999031
0.166893600776
0.166896279755
0.166883093249
0.166855092586
0.166803299689
0.166705034522
0.166552660096
0.16636205114
0.166155653998
0.165959565876
0.165783919357
0.165612856081
0.165432026647
0.16525652811
0.165105727327
0.164982303077
0.16487099664
0.164772030402
0.164712815639
0.164687168248
0.153873696247
0.153877697437
0.153892657639
0.153908308997
0.153924754717
0.153952002735
0.153987446702
0.154024664007
0.154066975534
0.154115417697
0.154174004186
0.154249203213
0.15435260481
0.154464741387
0.154579560648
0.154694670667
0.15481759597
0.154955949146
0.155107847573
0.155265960633
0.15543349937
0.155615368555
0.155813477986
0.15603051683
0.156268441088
0.156528506753
0.156804826096
0.157100409421
0.157411975817
0.157740343968
0.158080523494
0.158429253635
0.158786957097
0.159134561511
0.15946938307
0.159800808466
0.160140795837
0.160489910701
0.160846016403
0.161207562434
0.161574375977
0.161947263368
0.162326619241
0.16271125581
0.16309843341
0.163484652423
0.163866418155
0.164240685717
0.164604893213
0.164956633618
0.165293204654
0.165611259027
0.165906611665
0.166174192356
0.166408368028
0.16660427855
0.166759962611
0.166876811121
0.166958022196
0.167007342148
0.167029031282
0.167028601156
0.167010279283
0.166971756126
0.166917483512
0.166809705449
0.1666398675
0.166432413693
0.166207560147
0.165988997715
0.16578399408
0.165575795102
0.165360691592
0.165160600127
0.164986273845
0.164833674009
0.164690623375
0.164575837506
0.164509725491
0.164477272745
0.153807786936
0.15381600048
0.153833627484
0.153857131195
0.153875333923
0.153903097028
0.15393752208
0.153976670048
0.154022690677
0.154069275481
0.154135106971
0.154222258241
0.154324333493
0.154434165844
0.154542408387
0.154650461703
0.154772977465
0.15491308434
0.155060372932
0.155213666815
0.155379053159
0.155561108896
0.155760543931
0.155980361682
0.156221756976
0.156484918119
0.15676648969
0.157061489201
0.157382427298
0.15772252193
0.158063632265
0.158408641054
0.158764543593
0.159107167957
0.159437615815
0.159772260696
0.160115884945
0.160469026924
0.160830141838
0.1611976877
0.161571270194
0.161951192451
0.162337349205
0.162728503342
0.163122225043
0.16351534485
0.163904617623
0.164287228652
0.164660852068
0.165023269922
0.165371858199
0.165703159377
0.166012566196
0.166294322946
0.166542228997
0.166751288942
0.166919261042
0.167046475542
0.167134321853
0.16718496805
0.167202958652
0.167195291594
0.167166189015
0.167117481984
0.167054162838
0.166948219895
0.166760608773
0.166526986117
0.166274725788
0.166022109027
0.165774228165
0.165520827123
0.165269682508
0.16503620234
0.164824288707
0.164629017165
0.164456463831
0.164326483848
0.16425513561
0.164221868865
0.153735778085
0.153746732062
0.153764823337
0.153784290418
0.153808279388
0.153843496221
0.153877529051
0.153917810899
0.153970141015
0.154021374667
0.154084794549
0.154180280416
0.154285064182
0.154389985168
0.154492622604
0.154600412755
0.154722646265
0.154860419068
0.155003474524
0.155154261706
0.155318161587
0.155499262318
0.155698422533
0.155919860336
0.156170308932
0.156434963812
0.156722256767
0.157027029567
0.157349721365
0.157690268687
0.158038161503
0.15839071585
0.158731125888
0.159066402364
0.159400242131
0.159739797303
0.160088172755
0.160446025399
0.160812550473
0.161186515182
0.161567349811
0.161954953367
0.162348861749
0.162747717972
0.163149207548
0.163550403506
0.163948370427
0.164340639382
0.164725223342
0.165100203561
0.1654631646
0.165810662183
0.166137836549
0.166438476809
0.166706010976
0.166934969501
0.167121758094
0.167263867487
0.167358849197
0.167407560547
0.167418041827
0.167401883834
0.167363113639
0.16730027085
0.16721293762
0.167099419434
0.166916519787
0.166650053394
0.166357575189
0.166057337555
0.165754835909
0.165452745641
0.165160403567
0.164879549966
0.164611369272
0.164365145886
0.164164846615
0.164022586135
0.163944832125
0.163912399499
0.153656693616
0.153669703953
0.153690866517
0.153709863342
0.153735390984
0.15377129578
0.15380653546
0.153846867014
0.153898129307
0.153963712339
0.154031756713
0.154127259994
0.154232844092
0.154333619626
0.154430802308
0.15454134402
0.154667346292
0.154800072516
0.154938015127
0.155086833648
0.15525069433
0.155431886085
0.15563119004
0.155851188027
0.156108819048
0.156383108831
0.156665732836
0.156980276489
0.157308862209
0.157655073128
0.158005629367
0.158354506503
0.158692330535
0.15902188889
0.159358310177
0.159703362703
0.160057296812
0.16042059189
0.160793018269
0.161173827428
0.161562467287
0.161958507965
0.162361133197
0.162768815182
0.163179263164
0.16358972979
0.163997611206
0.164400873524
0.16479797023
0.165187392998
0.165567123437
0.165934039658
0.166283411086
0.166609069205
0.166904217642
0.167162229494
0.167376048557
0.167536812669
0.167635755776
0.167677245455
0.167678962925
0.167658764291
0.167614080028
0.167533873102
0.167413256535
0.167257858994
0.167067637965
0.166807256484
0.166456214574
0.166090194826
0.165727076697
0.165376517886
0.165035563328
0.164687490437
0.16433715354
0.16402925096
0.163797964845
0.163642693587
0.163552839817
0.163514663085
0.153567190169
0.153579804648
0.153602604402
0.153626206598
0.153658787028
0.153689319415
0.153724628631
0.153766813588
0.153811085963
0.153883508377
0.153963751498
0.154059747133
0.154165495873
0.154265761213
0.154361863597
0.154472713607
0.154600299097
0.154729818086
0.154864025134
0.155010043072
0.155173612215
0.155356601647
0.155560875522
0.155780952617
0.156032740278
0.156322849114
0.156614961656
0.156929091027
0.157259390723
0.157598047119
0.15795805945
0.158308618486
0.158641938167
0.158971745863
0.159312194433
0.159662902538
0.160022929883
0.160392421164
0.160771372902
0.161159481869
0.161556475424
0.161961750769
0.162374099244
0.162791732158
0.163212316043
0.163633262482
0.164052315143
0.164467905662
0.164878970206
0.165284544234
0.165683278816
0.166072834451
0.16644941879
0.166807736068
0.167141127536
0.167440468345
0.167690495398
0.167870579749
0.167968397689
0.168000259141
0.167996447017
0.167983260738
0.167942621975
0.16784550988
0.167682480256
0.167461171154
0.167203757375
0.166924752472
0.166567221656
0.166122153501
0.165693020924
0.165297290985
0.164906106241
0.164463113591
0.163982954766
0.163586646724
0.163317585959
0.163146908966
0.163043046188
0.16299396005
0.153464838967
0.153474696791
0.153491872219
0.153522495099
0.153564584416
0.153594387012
0.153630129564
0.153677017433
0.153719798011
0.153788641453
0.153878195788
0.153976800823
0.154081794579
0.154183032418
0.154284922689
0.154397682687
0.154523498199
0.154649752709
0.154781593921
0.15492494269
0.155085400413
0.155266294563
0.15548008204
0.155712896645
0.155959196653
0.156249717914
0.156551302051
0.156861723621
0.157205270498
0.157550636157
0.157900577267
0.158243498759
0.158576692663
0.158914466009
0.159261082436
0.159617914698
0.159984607311
0.160361095888
0.160747394592
0.161143388049
0.161549237506
0.161964534173
0.16238768387
0.162816435624
0.163248347861
0.163681015689
0.164112533565
0.16454173961
0.164968033354
0.165391060548
0.16581043216
0.16622533391
0.16663417102
0.16703423976
0.167419655599
0.167775653447
0.168069179498
0.168269859097
0.168368313054
0.168393391718
0.16838693928
0.168402784514
0.168390959779
0.168282428176
0.168062745239
0.167750031175
0.167381135194
0.167009549908
0.166604643077
0.166122569224
0.165646530451
0.165225190544
0.164809180952
0.16423059159
0.163504421787
0.162967146858
0.162667578023
0.162500706583
0.162399191146
0.162346153749
0.153349313043
0.153356532135
0.15336542103
0.153400114192
0.153442366708
0.15347853408
0.153517461964
0.153569591335
0.153618421496
0.153685710431
0.15377907885
0.153879126026
0.153982679552
0.154081417036
0.154190926128
0.154312242952
0.154436067229
0.154559489546
0.154689969447
0.154832083128
0.154989217917
0.155164123195
0.155377236568
0.155632436101
0.15588590096
0.156163428158
0.156479235801
0.156796767378
0.157130440543
0.157481191412
0.157832253226
0.15817151696
0.15850521184
0.158849635221
0.159203682875
0.159567684069
0.159941717706
0.160325864716
0.160720501045
0.161125438215
0.161540846918
0.161966809038
0.162401759758
0.162842889437
0.163287413528
0.163733107682
0.164178425029
0.164622498331
0.165064962343
0.165506020869
0.165946467873
0.166387856828
0.166832895257
0.167284323514
0.167738182785
0.168167650317
0.168508987367
0.168745361091
0.168863928145
0.168889970362
0.168857157429
0.168948403188
0.169032486789
0.168935408682
0.168634072795
0.168175775183
0.16762891645
0.167079408308
0.166549901762
0.166020580256
0.165553158404
0.165177748884
0.164852277744
0.164088987166
0.1627947006
0.16202983777
0.161774495271
0.161686347321
0.161616757975
0.1615632028
0.153221562647
0.153229942324
0.153243668734
0.153267939091
0.15330494699
0.153345217061
0.153388283783
0.153442824528
0.153501999796
0.153570447526
0.153666360084
0.153767474865
0.153870626068
0.15396790523
0.154078084937
0.15420728017
0.154333412166
0.154457279833
0.154587754815
0.154729785404
0.154885559714
0.155055833762
0.155264164754
0.155530505503
0.15579999505
0.156075289093
0.156396038558
0.156722449133
0.157051412182
0.157400358992
0.157742902915
0.158080172435
0.158423940712
0.158776944482
0.159139118029
0.159511197673
0.159893768053
0.160286498636
0.160689983795
0.161104866426
0.161531143146
0.161968760117
0.162416428431
0.162871114526
0.163329617692
0.163789776628
0.16425036923
0.164710520375
0.165169729264
0.165628362518
0.166088274824
0.166554260002
0.167035766125
0.167545955818
0.168084529387
0.168602358154
0.168994000218
0.169342886455
0.169560873193
0.169593336327
0.16940034419
0.169728319656
0.170038824646
0.169889647277
0.169378842978
0.168710442559
0.16795508199
0.167151791326
0.166410436727
0.165804046232
0.165261358585
0.165025885491
0.165310863206
0.164263244885
0.161672438178
0.160553195252
0.16058447729
0.160734648971
0.160700293281
0.160611002441
0.153078096234
0.153087519376
0.153110239628
0.153125122253
0.153155844721
0.15319721202
0.15324359619
0.153302051018
0.15337385931
0.153442710674
0.153539726525
0.153642044091
0.153745966626
0.153844849125
0.153955909389
0.154088099425
0.154216679074
0.154342761781
0.154474514286
0.154616912778
0.154772604752
0.15494185781
0.155142278831
0.155404878064
0.155699711626
0.155983787183
0.156292243198
0.156637347632
0.156976239168
0.157305675016
0.157640525213
0.157981666347
0.158333255673
0.158695078737
0.159066465413
0.159447755027
0.159839480024
0.160242074697
0.160655739057
0.161081264375
0.161519517187
0.161970253998
0.162431937374
0.1629013903
0.163375212961
0.163851387884
0.16432889296
0.164806568979
0.165282891672
0.165757310943
0.166232273405
0.166716017388
0.167225860411
0.167792648072
0.168420626453
0.169051791107
0.169538484614
0.17029011252
0.170790195338
0.170641095674
0.169124491752
0.169117644745
0.169486813789
0.169435997685
0.168968773015
0.168314956108
0.167598277174
0.166891569829
0.166244961433
0.165713042845
0.165462538493
0.16585789845
0.167261702849
0.166917666805
0.158714097914
0.157147375528
0.158733025491
0.159761996384
0.159689579284
0.159444279085
0.152915854389
0.15292445027
0.152945212147
0.152961988966
0.152990150467
0.153032932499
0.15308091134
0.153138874148
0.153222725964
0.153300123017
0.153397680653
0.153501887612
0.153607985557
0.153710970387
0.15382454191
0.153957545939
0.154087716599
0.154216618302
0.154350383388
0.15449363528
0.154649311798
0.154819086848
0.155014798769
0.155269752159
0.155579797251
0.155881176546
0.156181765308
0.1565201554
0.156870263959
0.157204178024
0.157533687203
0.157875809145
0.158233700897
0.158604447883
0.158985484813
0.159376437557
0.159778317733
0.160191524486
0.160616684917
0.161054321801
0.161505661758
0.161970987005
0.162448437258
0.162934198634
0.163424578586
0.16391830081
0.164415125692
0.164912675039
0.16540611365
0.165892828414
0.166376072356
0.16686457333
0.167378237202
0.167974087242
0.168660772641
0.16951880875
0.169708898106
0.169968318118
0.170304096266
0.1702947246
0.169810920274
0.169349223576
0.169313766823
0.169105679104
0.168604649651
0.167943576109
0.167222041407
0.166493693617
0.16580946793
0.165210909382
0.164776892143
0.164540910012
0.164160727718
0.161436202653
0.158725102519
0.159480617297
0.161074016469
0.160340324485
0.158802649107
0.15774983072
0.15273696926
0.152744628856
0.152765837902
0.152782645879
0.15281076896
0.152853826128
0.152902910651
0.15295758015
0.153042599082
0.153134040917
0.153236857776
0.15334444093
0.153454262007
0.153564962329
0.153681512988
0.153815094694
0.153946755209
0.154079060888
0.154215339529
0.154359991648
0.154515955787
0.154685620986
0.154878275235
0.155124387409
0.155434181764
0.155763343319
0.156072938482
0.156398343683
0.156742658597
0.157076935701
0.157408310317
0.157757581872
0.158123551161
0.158503449863
0.158894773616
0.159296631372
0.159709410996
0.160134307188
0.160571968524
0.161023276218
0.161489237369
0.161970489618
0.162465709811
0.162970299094
0.163479224707
0.163992060335
0.164510443657
0.165030410085
0.165541357732
0.166037490597
0.166522312126
0.166998687781
0.167461553184
0.167975321436
0.168574165473
0.169100553802
0.169572764112
0.16979557047
0.169949975064
0.169880095508
0.169486819854
0.169009139484
0.168697094155
0.168328475449
0.167777471322
0.167085544044
0.166320604315
0.165530666092
0.16475724212
0.164017922887
0.16330777074
0.162580627255
0.161646071822
0.160088216161
0.158760275419
0.158581221729
0.158693007773
0.159635698233
0.158220863036
0.157816047388
0.152543618809
0.152549757643
0.152566747279
0.152585774228
0.152618234075
0.152661412364
0.152712984614
0.152766286711
0.152849898669
0.152949639006
0.153057147554
0.15316763032
0.153279748482
0.153400907691
0.153523779826
0.153657910261
0.153791639118
0.153928848708
0.15406852895
0.154215251366
0.154372028692
0.154541310988
0.154731571364
0.154970534185
0.155275868383
0.155622316495
0.155951750263
0.156272635425
0.156604726876
0.156934242722
0.157269819938
0.157625895128
0.158000195649
0.158389203746
0.158791469139
0.159205968223
0.159631618836
0.16006910298
0.160520776153
0.160987067846
0.161469358828
0.161969019931
0.162484711963
0.163010845109
0.163539380938
0.164072735916
0.16462070277
0.165174002248
0.165701882277
0.166202518554
0.166685774019
0.167141308035
0.167478673994
0.167776342279
0.168250505648
0.168732520294
0.169170571426
0.16935953154
0.169391212093
0.16924788696
0.168894331289
0.168428914074
0.167962998834
0.167441488974
0.166792888896
0.166022702495
0.165171256953
0.164274344522
0.163357595794
0.162436393531
0.161464625293
0.160399885281
0.159202282993
0.157776286111
0.156343195388
0.155512166159
0.155269786097
0.1557663866
0.155732281922
0.157186621748
0.152338424707
0.152343328915
0.152355184992
0.152376956723
0.152413150514
0.152456044308
0.152509332284
0.152565535297
0.152645320271
0.152749154582
0.152859569538
0.152971896051
0.153084011249
0.153210369208
0.153345099625
0.153482360514
0.153618814438
0.153761708657
0.153907339537
0.154057699674
0.154216570478
0.154385333502
0.154573719725
0.154806661037
0.155102481604
0.155446832429
0.155798018862
0.156129852304
0.156458621552
0.156785554075
0.157119918625
0.157480998505
0.157863577166
0.158259628139
0.158674339754
0.159102928752
0.159541471495
0.15999348637
0.160461117155
0.160945178623
0.161446086722
0.161965498608
0.16250353073
0.163057321182
0.163621913139
0.164196290455
0.164778905772
0.165348495274
0.165885116387
0.166402435503
0.166904592512
0.167393570102
0.167525494655
0.167655491806
0.167950957432
0.168406649204
0.168697207467
0.168777343045
0.168699187632
0.168464055478
0.16806158593
0.167533459313
0.166934919726
0.166261324788
0.165481367797
0.164591114261
0.163610242132
0.162560410385
0.161456037686
0.160305485217
0.159051892318
0.157631932337
0.156039673435
0.154254081335
0.152404074656
0.1508485462
0.149670783625
0.148973417109
0.148971714165
0.150612639071
0.152122174863
0.152126706967
0.15213690735
0.152162133229
0.152198034819
0.152238739351
0.152289502926
0.152350549816
0.152426331897
0.152531839298
0.152644411374
0.152758519925
0.152871744567
0.152998397561
0.153143043387
0.15328681156
0.153427755686
0.153575426549
0.15372770561
0.153884164472
0.154047808204
0.154216855285
0.154403628785
0.154632252048
0.154918907483
0.155256543488
0.155616636853
0.155962333889
0.156287391766
0.156612445362
0.156954208423
0.157317888793
0.157706591354
0.158113475921
0.158541420185
0.158983917735
0.159436878175
0.159905049834
0.160390409673
0.160894217359
0.161416994256
0.161960568326
0.162529465848
0.16312859583
0.163748643947
0.16436510903
0.164970055825
0.16555537789
0.166120717443
0.166686463762
0.167292117309
0.168206699971
0.167714185961
0.167619501905
0.167818041533
0.1680322338
0.168112636074
0.168047664192
0.167843295505
0.1674933919
0.166995652519
0.166369934385
0.165643831737
0.164822651331
0.163894668761
0.162855198451
0.161711123428
0.160471065627
0.15913722224
0.157700468338
0.156133684826
0.154329274226
0.15223031986
0.149844175515
0.147194640211
0.144359459312
0.141294609903
0.138043139792
0.13504388694
0.138195773083
0.151892245446
0.15189682104
0.151907472181
0.151937101829
0.151972058767
0.152010068838
0.152056140059
0.152120246296
0.152190638849
0.152296200231
0.152410989169
0.15252705821
0.152642482982
0.152771003466
0.152920871056
0.153071346017
0.15321839132
0.153371284083
0.153528725981
0.153691760176
0.153862781751
0.154034170827
0.154219322258
0.154444825139
0.154723713885
0.155052955016
0.155414244797
0.155768069558
0.156103045432
0.156427658485
0.156774606906
0.157144371284
0.15753514943
0.157944727291
0.158382394208
0.158843477923
0.159315094481
0.159801996803
0.160306318448
0.160831464616
0.161379891236
0.161954282492
0.162568910097
0.163231214676
0.163905058145
0.164559216091
0.165198706639
0.165837672353
0.166462095747
0.167055385873
0.167645946263
0.167817122599
0.167964894716
0.167649350551
0.167544255854
0.167521435034
0.167415414582
0.167189486788
0.166836597493
0.166348826323
0.165723866991
0.164970437994
0.164101574205
0.163121800791
0.162026161255
0.160809378574
0.159469616357
0.158004299263
0.156404434153
0.154649972841
0.152711089853
0.150466501318
0.147772351759
0.144577264534
0.140763437786
0.136061307028
0.129814852038
0.120473944909
0.103132937469
0.0606208348082
0.151642822145
0.15164733036
0.151660232029
0.151695055693
0.151729698848
0.15176572743
0.151809380848
0.151873310274
0.151937967294
0.152041405661
0.152158188054
0.152276204763
0.152393928259
0.152524356803
0.152677393433
0.152833951113
0.152989194569
0.153148054383
0.153309698935
0.15347845948
0.153658209829
0.153834968988
0.154018322563
0.15424104355
0.154514219145
0.154834069038
0.155190036778
0.155541167138
0.155889737758
0.156228918663
0.156577090818
0.156946520896
0.157345287537
0.157766580992
0.158205565106
0.158677334354
0.159169847677
0.159678112618
0.160206187285
0.160755332898
0.161330792756
0.161947985863
0.162630983292
0.163362417265
0.164086933866
0.164797457787
0.165530616414
0.166321512533
0.167060751176
0.167524445259
0.167582033054
0.167645876426
0.167585036555
0.167315245574
0.167085785215
0.166874512818
0.166587230769
0.166189427232
0.16567226664
0.165028506635
0.164254237003
0.163351496825
0.162324784796
0.161174872423
0.159896838116
0.158482860349
0.156923818211
0.155206940776
0.153311387854
0.151203273888
0.148829427489
0.146112282343
0.142829665136
0.138749156454
0.133653652596
0.127032439787
0.117791581808
0.103715794934
0.0801636954171
0.0413076849817
0.151365788515
0.151370240254
0.15138531655
0.151425238289
0.151459293162
0.151496651295
0.151539640037
0.151601081471
0.15166306606
0.15176572618
0.151884625886
0.152004470616
0.152124335486
0.152256135457
0.152410507161
0.152570812591
0.152736176087
0.152902455278
0.153068517384
0.153242258722
0.153429953837
0.153616272507
0.15379914028
0.154017747088
0.154287162618
0.154598952348
0.154947623324
0.155292860622
0.155641553453
0.155999502005
0.156364436835
0.15673694344
0.157126421295
0.157553351102
0.158008970505
0.158490487316
0.158999599155
0.159529569377
0.160082179044
0.160659550027
0.161272054303
0.161952451595
0.16271486513
0.163510290934
0.164305952684
0.165137414541
0.166069714953
0.167202035907
0.167588755171
0.167553116146
0.167450423194
0.167342921193
0.167159043786
0.166851277544
0.166487752323
0.166087522462
0.165612708453
0.165036005436
0.164346016024
0.163535147507
0.162597909422
0.161531819508
0.160335503981
0.159005303342
0.157533381581
0.155907909365
0.154113018509
0.152126771173
0.149917357727
0.1474381036
0.144620755421
0.141368897537
0.137498920076
0.132657038422
0.126462468035
0.118391191735
0.107425407679
0.0918373264967
0.0685481640654
0.0367642074116
0.151054324028
0.151060675568
0.151076515527
0.151115615501
0.151152510788
0.151196427258
0.151242534052
0.151304245687
0.151370522454
0.151468303242
0.151588641822
0.151710260259
0.151832248438
0.151965107185
0.152119555586
0.152279900802
0.152451311059
0.152628372379
0.152801646261
0.152981590939
0.153175089629
0.153373840377
0.153564539547
0.153774728022
0.154040453156
0.154346225422
0.1546875036
0.155027850256
0.155371131348
0.155737483314
0.156119994306
0.156508462315
0.15689935284
0.15731990315
0.157778699663
0.158275146921
0.158802769808
0.159355760315
0.159932347063
0.160541135342
0.161209807788
0.161971045011
0.162807457152
0.163676493984
0.164587035657
0.165614684697
0.16675000029
0.167488174902
0.167563522086
0.167385506183
0.16717601614
0.166942769124
0.166628031366
0.16620601301
0.165700836754
0.165128674768
0.16447485343
0.163721234446
0.162857086776
0.161874882696
0.160768087697
0.15953110228
0.158158170473
0.15664134395
0.154968837552
0.153124163817
0.151085120785
0.148821619596
0.146292083184
0.143438404543
0.140179036655
0.136399060302
0.131939086106
0.126489953982
0.119545202782
0.11050740007
0.0986016684008
0.0825761651623
0.060194849594
0.0321398861139
0.150713071701
0.150722884162
0.150738599492
0.150770955028
0.150813855296
0.150864606371
0.150916579146
0.15098279747
0.151058768315
0.151150665721
0.151269550735
0.15139219295
0.151516356212
0.151650445883
0.151805169934
0.151966006567
0.152137678136
0.152323894751
0.152507292407
0.152695832435
0.152895077233
0.153105714441
0.153314036988
0.153526650448
0.15377873271
0.154077321326
0.154411326177
0.154747414083
0.155083715098
0.155449351882
0.155840069923
0.156250077595
0.156654337047
0.157071368342
0.157526267148
0.158027029682