/*--------------------------------*- C++ -*----------------------------------*\
| =========                 |                                                 |
| \\      /  F ield         | OpenFOAM: The Open Source CFD Toolbox           |
|  \\    /   O peration     | Version:  v1806                                 |
|   \\  /    A nd           | Web:      www.OpenFOAM.com                      |
|    \\/     M anipulation  |                                                 |
\*---------------------------------------------------------------------------*/
FoamFile
{
    version     2.0;
    format      ascii;
    class       volScalarField;
    location    "185";
    object      alphak;
}
// * * * * * * * * * * * * * * * * * * * * * * * * * * * * * * * * * * * * * //

dimensions      [0 0 -1 0 0 0 0];


internalField   nonuniform List<scalar> 
6400
(
0.829470127207
1.24033125098
1.89711778355
2.16394590083
2.43556214618
2.75243353998
3.31753130303
3.98535762448
4.08278655499
4.36347446362
5.4695807657
5.9246207316
6.25147559267
6.71931120684
7.46581716684
8.22854365325
8.76814701327
9.29586052722
9.78222220628
9.98361311756
9.87114096017
9.76458029939
9.91926886991
10.4109729204
10.9985815589
11.4808562695
11.765835659
12.0057798214
12.3466576834
12.7983147978
13.3093501518
13.5912168999
13.5880857308
13.4905439449
13.3020719572
12.8894877442
12.6635712487
12.9265386571
12.6522854579
12.0081838906
11.8094567681
12.2481398119
12.745009537
12.9783694233
13.0368685872
12.9637144596
12.8399008543
12.7358697787
12.6528478602
12.5914272683
12.3711738755
11.5147606282
10.7167294546
9.83900527779
9.47900345407
9.92164830367
9.82082234732
8.53940048984
6.99293254944
6.4665036487
5.64006550175
4.71397150381
3.78525347451
5.51435791837
9.59831466175
14.5484766968
17.5452787688
17.2534078644
15.2392161181
13.534555556
12.5530364517
12.6108467073
13.0226721352
12.8231191281
14.76174036
14.1657480539
15.9940465916
9.89242485183
12.8724538921
4.8132876744
3.07697560857
2.37890568841
2.90468701351
4.09184844397
3.72593958324
3.28207747482
3.25350665167
3.49787270782
3.8974755882
4.43396210257
5.13171613476
5.82769666519
6.41312498944
6.97161372234
7.52237556228
8.17563154733
8.85859137237
9.56966519506
10.652503975
10.6255133361
10.2168929421
9.99115235439
9.98761237654
10.3969212327
11.2867489608
11.6187950049
11.8320888328
12.1563805476
12.5398469093
12.9535584442
13.3950548358
13.9062383375
13.9127251568
13.8454310591
13.7647079052
13.0846069722
13.0317346346
13.2949962426
12.8422038005
11.8239754352
11.5398050756
13.9405510476
15.3462937607
15.4058278762
15.3337312176
14.9598835274
14.4177059801
14.0006434355
13.360491025
12.840957795
12.8302437617
13.4798348074
13.3332638561
10.0604663757
10.012892453
9.74513184236
8.06580400288
6.90573462336
5.98044290243
5.07553813568
4.38395585487
5.0513874056
3.97912522743
5.68935457159
9.64459031747
15.4603494045
19.1855001114
17.9979483655
15.8186734544
13.8436231627
13.0226447333
13.29840068
14.2572383893
13.6193275574
13.4025340695
12.8311682677
11.5993100327
9.74237745595
8.18167336624
4.266865279
3.02812708103
2.55603368925
3.03701091685
3.09061473296
3.30900108453
3.59010743532
3.50131984742
3.45077951325
3.82929841849
4.42004071919
5.10523460244
5.82035147579
6.46148738752
7.03632796229
7.45507072439
8.04046467467
11.3316220369
13.4987596112
13.6966222862
12.6067155146
10.0945786719
9.41356767429
10.2198307145
10.6936556042
11.0502808771
11.5490013646
11.9761059067
12.307914952
12.6695141565
13.1180569143
13.4817862344
14.1921338694
14.2749225926
13.6794823333
14.4650556453
13.8218607614
12.8595664104
13.7485384205
13.2062273948
12.0919904586
11.7657347158
12.2858862292
12.8611620918
13.133261999
13.2135117324
13.1819606778
13.0711272912
12.9004822098
12.669610221
12.4026923132
12.1011901901
11.6799125753
11.0738948879
10.7398901036
10.5889602678
9.26130818637
7.9580757138
6.9540820621
6.08924257861
5.33196107764
4.785978087
4.23999768755
3.94131996854
6.41279987639
11.5966876795
16.2971472263
18.6097528654
18.7239484851
17.1085161157
15.3767568647
14.5901077654
14.395646112
13.6675296763
13.0128678222
12.919848244
12.5179991167
11.4954870809
9.85615613997
7.41912837831
7.59321204828
2.78656811992
5.29610711868
3.11471790183
3.04530916919
3.66140874413
11.6754412212
9.97937056152
4.3067748252
3.85511400107
4.45329532257
5.12870098034
5.84636275403
6.46645308153
7.1517995958
9.22084231385
11.5917702004
13.2395924466
13.3050430317
11.3775066104
9.52750139326
9.4828542221
9.69417418606
10.0002264821
10.5328766832
11.1426901829
11.7207132595
12.2096541363
12.4835026794
12.9398516792
13.1991981753
13.9576767924
14.1027277674
14.90897726
14.5407128086
13.4662946965
14.1035966054
13.2844441599
12.3669893605
12.1861998074
12.1020184132
12.1447172575
12.4746493129
12.8800296736
13.1430349354
13.2562899408
13.2541945805
13.1636720296
13.004912646
12.7872074645
12.5217170429
12.2056443613
11.816388302
11.3509219091
10.8600617516
10.2037921455
9.21265922721
8.08881808784
7.10073002887
6.29914991638
5.67195496464
5.21609885408
4.89123768403
5.02555974223
6.94765957589
10.777231519
16.5616473286
20.149160009
20.3470602385
18.6653346468
16.2894793268
14.6250284405
13.7517616887
13.8335552659
15.1413885961
15.0172343563
13.6480638856
13.4607665277
16.7148894341
13.118334229
11.1364676563
5.23014617453
7.27258758257
3.5287887674
3.85189546964
6.09254966188
11.553088382
7.62125196777
4.38806021191
4.33052613587
4.67276471824
5.28342712029
6.03985806862
7.54636446045
10.2777771188
11.2336779347
11.3531744019
10.833023251
9.81851638703
9.21603450525
9.59518978853
9.63456960933
9.63581759232
10.0511733899
10.6392872721
11.2994530467
11.9506316941
12.341279294
12.9362728049
13.0435512754
13.8765931083
13.8940474283
15.4826913127
14.7186047775
13.7347878859
14.0065206921
12.8734683781
12.4416274582
12.2853882568
12.263315044
12.2930417807
12.3886891078
12.6299878962
12.9382449494
13.1807536037
13.3112566202
13.3310400736
13.2584537202
13.1141425491
12.9129449408
12.662918566
12.3602272353
11.9954624862
11.5631666326
11.0388736887
10.3115524653
9.32814943741
8.2680649271
7.34986521036
6.65369852076
6.16850466521
5.87224452721
5.81097437654
6.31932302126
7.46219494406
10.5729654539
15.9457044248
20.1575606532
21.5519497419
20.350376967
17.5620468054
15.0515500627
14.6609779702
16.8152491151
17.6187911217
16.5261956982
15.558941222
18.1501439631
21.1286649606
16.4380328982
15.5440752697
9.58378653229
8.68821590586
4.36511239448
5.21601039998
11.8054094631
11.2111389439
5.37337685948
4.8103423904
4.8592561651
4.99754779591
5.62218316736
8.6931180011
12.2556208523
12.514086469
11.8736317837
10.3066084714
9.09608658059
8.8003000345
9.68790772966
9.62431875894
9.37348057965
9.66226967179
10.199661458
10.8722796646
11.4098275767
12.0901817547
13.0702096881
12.9687908116
14.1479233451
13.7667372338
15.8684938696
14.9577109592
16.2286163114
14.4371130666
12.7581979016
12.2686268774
12.259996284
12.3323350139
12.4074046279
12.480030794
12.5973893604
12.7993030866
13.048328756
13.2664237986
13.3995469635
13.4329763452
13.3748768256
13.2467627172
13.0682606473
12.8460469826
12.573287967
12.2364778397
11.8120363867
11.2494241762
10.4813103778
9.53074005841
8.56509165475
7.74824253102
7.13440461329
6.75707338638
6.61597535236
6.95017585839
8.32948246656
7.65410969622
11.8097285652
17.5300147994
21.2881771243
22.6961673234
21.7357614762
18.3519345986
16.1614670398
17.9136360153
20.05574201
19.476069874
18.4219024924
18.4362631185
22.917792439
24.463298815
19.4409684708
19.2267246262
11.6350618429
8.21421182171
5.31244819477
5.05500033366
11.6561259004
7.55848213494
5.2056096943
5.27816628387
5.34331231828
6.04034900661
6.33635813928
12.2520405084
12.6854888329
12.5516679164
10.659339686
8.75304975695
8.38872380299
9.85753025562
9.7581218279
9.13628517713
9.37287834866
9.76852593728
10.3035247648
10.971472823
11.8920194994
12.8728835085
13.0020982482
14.6447102858
13.9768572207
16.3114202068
15.1960086857
16.5884465962
15.1173879072
14.07762185
12.2583488498
12.0455847231
12.2584493077
12.4487048438
12.5602854992
12.6557300338
12.7909502525
12.977391317
13.1935033314
13.3907278952
13.5208274556
13.5610447935
13.5157864056
13.4085913986
13.2610541147
13.0764739099
12.8411213127
12.5305045369
12.1061004144
11.5184596129
10.7442307135
9.85009538292
8.98298773365
8.25552229771
7.69527535632
7.32157681166
7.30681516894
7.7630247547
8.08043637332
8.66503826642
12.7593774293
19.7966116596
22.4595040542
22.8885285716
21.8058233393
19.5343428886
19.3277459605
21.8755411931
22.2675086187
21.3649995172
20.7114663414
22.5811721092
25.2376603961
26.653866364
22.0264707482
20.8600070259
11.1899477339
7.46240211773
6.33274214578
11.622783948
11.5989416657
5.91217692809
5.7290567027
5.79847722563
6.02554181669
6.53924766652
12.085302165
12.9339350243
12.7867018838
12.0354330908
8.98465087332
7.99308571254
9.7973166971
10.1134510359
9.15529094417
8.94829500388
9.4265990896
10.0220360609
10.5407632119
11.303064332
11.9313773004
13.4246690177
13.14628662
14.5274752287
16.2378361374
16.3024951226
14.5961632033
15.64876681
15.4793597035
12.6669927468
12.1183516188
12.1428305605
12.3533427031
12.5687936897
12.7126637295
12.8300783507
12.9796543221
13.1666149274
13.3672625985
13.5481306068
13.6718915097
13.7156412466
13.684657219
13.6046209087
13.4962658579
13.3569399652
13.1638771396
12.8803778888
12.4591261942
11.8643424048
11.1118426972
10.2883560436
9.50178832348
8.79291387164
8.14643954672
7.69284074231
7.77259711105
8.32973646198
9.07581872501
10.1033193195
11.1959006301
19.564048478
23.9190640609
24.0786414769
23.5285155551
22.6669892474
23.6184265475
24.9908293596
24.2547709437
23.4974902494
23.6066021085
25.7992299958
26.363129309
26.8900647483
23.9428512653
21.7413570465
10.2266294004
6.99779572151
6.97307039887
12.5087095859
10.1794889712
6.15407656246
6.2951324503
6.46862741414
8.18812603595
6.45818932684
12.8583734578
13.337792881
12.7547060247
10.3873668851
8.18051502111
8.10571891555
9.9393753762
9.62256461512
8.92227224124
8.97447635963
9.40228565075
10.1649977537
10.8497652092
12.2121119293
13.4617317142
13.1995694068
15.7130693577
14.0415452278
16.6205631873
14.8441928732
16.819535221
14.2941795733
13.2208984899
12.4280589925
12.2243634197
12.3004268998
12.4773525276
12.6882340947
12.8634270511
13.01248276
13.177545095
13.3681223603
13.5639493269
13.7348569997
13.8504795459
13.8969446923
13.8848544591
13.8394098319
13.7771184217
13.6892067133
13.5433388561
13.2909333528
12.8809723761
12.2963303261
11.5831404734
10.8257899485
10.0657542711
9.24034435485
8.31159108457
7.68943107729
8.06040976855
9.26480940212
10.5590531246
11.6242458081
12.5072421722
15.7552514145
23.8609990505
25.536858126
25.733404825
26.5884905656
27.7928539213
27.4610710134
26.3856501135
26.0810034327
26.9132875263
27.9317316213
27.6374386161
26.9274012023
25.8123840824
24.3471407812
9.33521241019
7.10784206204
8.18691450161
12.4867510498
7.48225478698
7.17181174681
6.85810051959
7.10865531073
10.9784194474
9.43730123904
13.6839798455
13.5164686447
12.7070645363
9.28727277224
8.00997462303
10.0358517608
10.2204177994
9.2299630431
8.84667722472
9.16402157925
9.5196520904
10.2233226791
10.7541926789
12.3993185222
14.9522580334
12.9820076312
15.5797752735
16.6852679675
16.8536121613
17.1130804951
15.1712834979
15.0372768391
12.6056608377
12.2550857531
12.3564753809
12.4655433906
12.6145608437
12.8091330175
13.0073778976
13.1966665095
13.3890033505
13.5882816803
13.7824894607
13.9476540077
14.0581027839
14.107500157
14.1173069133
14.1142184638
14.1058379802
14.0748423672
13.9810421759
13.7655583652
13.376144026
12.8154624069
12.1489319186
11.429644368
10.5777806423
9.37038762545
7.91175574185
7.35659054648
8.64365851733
10.6934234863
12.3552717133
13.58013263
14.4959849695
14.5339382732
15.6826707507
27.2478796596
30.1110440824
31.416078885
31.4405289421
30.028528629
29.0234631615
29.141978723
30.0665182996
30.167150343
29.7201138101
29.2596206008
29.47011183
29.5729112751
8.89676340693
7.69449630239
11.9524369523
12.3772236381
7.09859252079
7.84497842378
7.38228201253
8.17985306167
10.0989782626
13.2582231559
14.3522029759
13.6367085332
12.7669449271
8.93301384315
8.06664813344
10.6594395129
10.1916921725
9.08274149079
8.84770868108
9.31565387337
10.011474131
10.5383359121
10.9441688364
11.9243609484
15.0663392793
16.2312228402
14.6968817021
16.8630704777
14.6626593309
17.1659848538
17.1114529404
14.8333232218
12.4301373045
12.3457905643
12.5241015389
12.6418574711
12.7730578028
12.9485081621
13.1491600911
13.3766116495
13.6110943329
13.8280092189
14.0240083864
14.1861914753
14.2940806253
14.3504631985
14.3867038533
14.4302363025
14.4805915627
14.5116327437
14.4751391577
14.3028541949
13.94434685
13.4205809947
12.7959848577
12.0354423915
10.7903725416
8.72843434134
7.0136163204
7.42025466226
10.1249054719
12.8949473961
14.7421170157
15.9741968076
16.6287977464
16.5642293031
16.0053835334
17.773485255
31.7076392975
37.06400931
35.8691177122
33.4774559045
32.5185115148
32.7526134699
33.2155129435
33.2139954566
33.2225681909
33.4972885902
33.9249825985
34.5178394001
8.86494488091
8.38826457392
13.4908996072
12.7632738573
10.4487857008
8.95234474081
8.08548380783
9.74040480812
9.15680216475
14.1794340429
14.8212081874
13.8051462743
12.5773445421
9.23262606334
8.84355561343
11.1868616802
10.0686552149
9.05492428724
8.94831241076
9.34842626612
10.22034548
10.9631952688
12.9962729063
12.0634136867
14.4142218447
16.6106032901
14.2684023366
17.1866090926
17.638872281
15.5954611537
15.5319798086
13.1285624424
12.7768630206
12.6658410555
12.7372169505
12.8490198748
12.9674289682
13.1240542596
13.2986199003
13.5350177391
13.8271624004
14.0935346289
14.2964647739
14.4517220189
14.5598306916
14.6293887289
14.6967609238
14.7886120655
14.8984569674
14.9930319519
15.0147327481
14.8919293598
14.5838769065
14.1101096733
13.4842342616
12.4129412067
10.1167629582
7.30834587308
6.33905632575
8.512324433
12.7490889838
15.9324898329
17.801801513
19.106296334
19.6898447993
19.4357169726
18.6754188788
17.4545098607
27.7401925368
38.0467201331
40.8888906595
38.091310983
37.1316037072
37.2459650567
37.4401008729
37.2979645983
37.8031774389
38.2903436545
38.0008355602
38.098986632
9.20946331965
8.91376562608
13.0578502661
13.020442146
12.9422205381
9.81436310633
8.92582815996
12.894942664
9.17369871242
15.0163190162
15.1746975596
13.9912827156
12.4134629825
9.60072106491
12.1981041979
12.2992409789
10.0727765374
9.16747910542
9.18020084332
9.50837652002
10.1857290688
10.8943214746
14.5949139518
15.6361619983
13.5841447301
16.7161644544
17.4724846311
16.5611154957
17.6151527045
17.5488082593
16.1567487565
13.0477869027
12.9684118951
12.9845657176
12.9967750694
13.0686726076
13.1552892609
13.3298972673
13.5216130983
13.7192103394
14.0181855499
14.3488916844
14.5974750701
14.7547871191
14.8606217941
14.9476987002
15.0513898046
15.1911520378
15.3549754286
15.5041839855
15.5772516023
15.5140375459
15.287418093
14.8599983744
14.0840324874
12.1383537373
8.37137723629
5.42021574256
6.14113460568
11.0530309626
16.5073678783
19.8916244896
21.6156791022
23.2369714633
23.3683967235
22.2545534877
20.8458351443
19.4050714653
23.9521390871
35.2453600889
42.2425324014
43.3520455341
41.4767589202
41.7688043528
41.8673722248
42.1420780338
42.8561949643
43.1653918888
42.9123296289
42.9640844268
9.60876242527
9.44124588896
9.18245708485
13.2137038346
13.2876386573
10.2883187808
9.70919935192
13.6892463843
9.53678387535
15.8411164602
15.4699730708
14.1840200631
12.3807503486
9.73143364954
13.4109855298
12.5886956522
10.2482121231
9.43419280003
9.47721727036
9.84956042801
10.2752615512
10.8160520384
15.2371813731
16.6004901618
13.7859990316
16.8469869952
17.9890629789
15.4283897002
17.2284942904
16.7739657376
13.6684694181
13.4088822833
13.3853917077
13.3262720642
13.2682473828
13.353234093
13.4206749371
13.5007845618
13.7234530021
13.9724289807
14.252015828
14.5968271319
14.8977351448
15.0878198782
15.2048627018
15.3132121533
15.45387879
15.6332309169
15.8415247456
16.0320930015
16.1263979235
16.1377536181
16.0386932343
15.6564332164
14.4151252932
10.5692806536
5.11793620389
2.99101763999
8.43882219529
15.7332156457
21.775246109
24.870207003
24.2775895875
22.363150595
19.4295187693
17.6734510207
16.9766879763
15.774557249
12.8020908892
14.504547016
41.7606907091
45.213556754
46.133878052
45.5325199755
45.3642399384
47.2468698522
47.9591933949
48.22009086
49.2014988453
49.6567728183
10.1720194634
10.2191847124
13.7813353011
13.6746979093
13.514611782
10.6552145624
10.6285465948
14.2766029192
10.3460969229
16.5153431014
15.7239167494
14.3778863285
12.3994607512
9.97929463432
13.5658118834
12.4788551185
10.4345002874
9.74162320402
9.77189433943
10.0997227015
10.5051640254
10.9316633037
14.3295487586
17.3585043468
17.4679715727
15.8356440492
18.1486454746
18.7391061499
14.9583089201
13.9393786311
13.4878045989
13.5685367507
13.6172988876
13.6065271573
13.6174454014
13.6257846537
13.6846074187
13.7931308858
13.92073811
14.2003491633
14.5307812523
14.8817593384
15.2045465057
15.4340757418
15.5914333682
15.7286822835
15.8997173189
16.1337456944
16.3834929803
16.5476383296
16.6127584701
16.7155064994
16.7806765916
16.3436895668
13.9123864052
7.44812905242
0.0355624152226
5.38915477595
14.0318836605
22.0224579875
25.2828699047
20.8488686163
13.1883530804
0.0220718773004
0.0172646879101
0.0419146921608
0.282538164235
1.32339298697
4.88862029984
14.0028217466
10.8588897199
31.5990256902
50.2870290587
50.6521586252
47.9671053842
50.9676966601
52.8147372519
55.3402118828
57.6094766448
57.8191056613
10.6639442855
10.8392551453
15.2842539238
14.069653663
13.2365793339
11.0569490895
11.5595916646
14.6767914461
14.6826784859
17.2992842823
15.9963389736
14.6297428431
12.4443673789
10.3815059562
13.7195909997
12.3291365841
10.6481059491
10.0663924863
10.04369257
10.3052159685
10.7027745162
11.2549011058
13.513982637
17.5835094311
18.8645724771
14.9716384196
17.7231161444
18.5685628126
17.7750612888
14.7116059939
13.6553533939
13.7655996206
13.9201874281
14.0073940533
13.8704189133
13.9123430211
13.929493724
14.0551131043
14.1937658251
14.4396486749
14.8117862645
15.2043366432
15.5253546922
15.7651421641
15.9874988902
16.2530572739
16.5254005471
16.7931048528
16.9414630984
17.0208960082
17.1149773678
17.2351337642
17.5137680719
17.0195980095
11.2178746114
0.000256155027326
3.56215668497
11.3905110891
18.5211153301
18.2767166226
0.339881026114
0.000567124063395
3.99768355006e-05
0
0
0
0
0
0
0
0
5.56009607279e-09
1.87530529814e-06
0.000280505700732
0.162740424618
42.0122929064
59.032845537
59.7314762711
67.2049572535
66.0369765711
11.0442479267
11.2474927715
17.5763988876
14.3056288978
12.5976733601
11.4286277065
12.1925018065
14.3907211002
16.2340853471
18.2027474478
16.3979627664
14.9827795533
12.6966995807
11.1183566767
14.0859508885
12.3523818451
10.9667346558
10.4579443333
10.3560479969
10.5441247095
10.8796197563
11.4054270127
13.1402255386
17.4325849455
19.8070063382
18.7887143078
16.9773360386
17.870590046
17.1221278342
13.9405517068
14.1163204464
14.2936221903
14.5657219041
14.4586160767
14.3387437855
14.1901082105
14.2658868316
14.3117272523
14.4778997222
14.7210622211
15.0715915197
15.5115377692
15.959752913
16.2308039062
16.5087032362
16.9000597455
17.3132699583
17.6121491953
17.7278788589
17.8263955841
17.9438523004
18.029446405
17.8661680841
16.7896078413
10.2506905396
0
5.65732624716
4.71100629867
0.0642331527134
0.000176144761458
0
0
0
0
0
0
0
0
0
0
0
0
0
7.16418315469e-08
7.11917400564e-07
1.56067719235e-05
0.00075675078948
4.20241078035
72.0229592493
44.3579509761
11.3219013874
11.5111685075
19.7465515969
14.433007392
12.3003119327
11.7921856626
12.982417269
13.1813744407
17.1885842614
18.8322123481
16.796519127
15.3505257757
13.172656102
13.303831662
14.5891547421
12.6354743844
11.5020297432
11.0790115652
10.7779064211
10.8758569344
11.114910951
11.5739756385
13.0157177981
17.2954425787
20.1590192639
20.448573672
15.7940256638
16.0213145077
14.6783089534
14.0306141969
14.2880345595
14.8323358508
15.049676311
14.8981474691
14.7641117882
14.8644454632
14.6223070963
14.6411416057
14.7611927915
14.9636449755
15.4314623418
15.9262017843
16.3845738554
16.6117560604
17.0264768742
19.0297176677
21.7810000895
22.6443831709
20.8446295281
20.6414975787
20.8495949526
21.1417624854
21.1120531705
19.5343416196
18.4391198735
1.27104625145e-05
0.012844079831
0.000209579986782
0
0
0
0
0
0
0
0
0
0
0
0
0
0
0
0
0
0
1.10684383662e-06
7.4953636446e-06
0.00138220719941
57.8276959122
11.5992091426
11.7606902163
19.4063711166
13.3252232326
12.1912227171
12.0886174028
13.8717351854
12.7754944261
17.9643512979
19.4434745966
17.1949194437
15.7059407693
13.5121457333
15.8462701211
15.3350530328
13.1303174478
12.1376732062
12.211689874
11.4292572507
11.3835046842
11.4590093951
11.7542137354
13.0644425699
17.1425520422
19.9896315215
21.5637323286
19.566424705
18.09135535
16.6217269018
14.3906584706
14.6217249792
15.703059668
15.2915468569
15.2801332706
15.7669786423
15.3191401993
15.0990889175
15.0919811439
15.2025141423
15.3812722985
15.6521648704
16.2212389253
16.9212515161
18.177261224
20.063952357
22.6900799403
24.6337836113
24.596035285
24.8847658839
26.4194686999
28.6170052883
31.8572845426
33.3418908798
31.3401667767
26.5660825486
13.9302153497
0
0
0
0
0
0
0
0
0
0
0
0
0
0
0
0
0
0
0
0
0
0
3.40574064207e-06
97.3428218777
11.9853572506
12.136832372
18.8282433222
12.5243860574
12.3004685257
12.3080739783
14.5938442911
13.0051046009
18.5705012904
20.0394857232
17.6020204054
16.0878467619
13.8110034828
16.4188797824
16.0067399464
13.6985909394
12.7525395852
13.0003193993
12.2340986162
12.1252058686
12.042132664
11.9282896477
13.2962521158
17.1062382002
19.67289077
21.9234543673
20.8247254317
18.2433224739
14.8294517037
14.9341619056
15.3192648548
16.3498490994
16.6149447394
16.6546091275
16.5655712738
15.8226892709
15.617640026
15.6542209948
15.7425369626
15.9353629666
16.1774444184
16.8262544301
18.1366380269
20.6685951679
22.3180828998
22.582339009
23.6811573164
24.7554327714
28.653869797
33.2424440828
39.8857423681
43.9932678626
45.0531767935
42.7390492729
3.65841205738
0.0885771932549
0.000297323571192
0
0
0
0
0
0
0
0
0
0
0
0
0
0
0
0
0
0
0
0
0
5.72346169386e-07
7.57266259007e-07
12.6410828237
12.7976226711
18.1618782474
12.4937463128
12.7564691443
12.6413216256
14.2056325241
13.6587779995
18.9147655172
20.5867606261
18.0490389741
16.5303698706
14.2651446584
16.9644457064
16.6378879052
14.41455006
13.46376628
13.789398276
12.9966900221
13.0227274429
12.9708845305
12.2944410443
13.7558374556
17.2274591747
19.5156232906
22.01613794
21.2507063923
18.4894866782
14.9862372588
15.0486841656
16.1751316721
15.9998882704
16.021762945
16.4375729487
17.5292510811
16.7916578255
16.5091565546
16.240796516
16.2706024901
16.5863339775
16.9695107418
17.6651001134
20.5966900815
23.3454219228
23.344246913
23.5095029051
25.2268476251
30.4991247147
37.2983225508
43.3440902449
47.8955380888
43.7272025837
15.299444786
0.00501618583691
3.14738760171e-05
6.37949960353e-05
9.79653086917e-06
0
0
0
0
0
0
0
0
0
0
0
0
0
0
0
0
0
0
0
0
0
4.23037851101e-08
1.92089057703e-07
13.6964492386
13.7794927007
18.0818494758
13.2606819766
13.9118283448
13.3602984497
14.1141274606
15.1165456209
18.6094671629
20.9119131418
18.5711538424
17.0587078722
14.8497611026
17.5875181028
17.3030365193
15.3298594161
14.4136248708
14.775760493
13.7569188199
14.0413190501
14.2931048107
12.9708356149
14.2221277204
17.493139232
19.5325381677
21.7746910143
21.4130270793
18.784195932
17.7905094924
15.9882967006
16.6796490386
17.3693447508
18.3311277101
16.8721089827
17.1756128764
17.9488197931
17.3736278606
17.3744355987
17.1709412694
17.2516633033
17.7367465133
20.3383844629
24.5205609117
25.4134561295
24.7888750698
26.421874395
32.8689795514
41.6003996008
47.5799877879
46.5578189906
36.1545443689
0.0522957627879
0.000357824848388
0
0
0
0
0
0
0
0
0
0
0
0
0
0
0
0
0
0
0
0
0
0
0
0
0
0
0
15.2544583157
14.9900053571
18.5162357278
15.2388542227
16.0070217289
14.5100187035
14.8254956818
17.3115527266
18.4992167089
21.3539986367
19.2378430977
17.6894422641
15.5490855675
18.2435116719
17.962205722
16.3643645637
15.9833062489
16.1275122917
14.5982795983
15.2031259686
15.9810334956
14.067970755
14.4802150085
17.8094508901
19.7185620718
21.5019658172
21.5646826191
18.6791678222
18.9720019919
17.7224278272
17.9507798343
16.3684917819
17.0993887966
18.5222200194
18.0520161397
18.2645680827
18.2773846367
18.1924537664
18.3313705762
18.3446096016
19.9913744479
25.0267988796
27.8745431531
27.8357354059
28.4946157826
33.5330972675
42.8227858861
48.5797597587
38.042275661
17.5008593499
0.0873877598518
0.000400137410136
0
0
0
0
0
0
0
0
0
0
0
0
0
0
0
0
0
0
0
0
0
0
0
0
0
0
0
0
16.9522083345
16.1078923717
19.0519460632
18.0421934182
17.6779697038
15.9150847182
15.6355553449
18.3692181929
16.9894071165
21.6424364548
20.0373214432
18.4160229713
16.3569152209
18.9166283241
18.5714178133
17.2049128533
18.4221363833
17.7835944841
15.5750125115
16.5715210773
17.3562252851
15.5343692047
14.2551597887
17.6756273208
19.8069455729
21.2518144638
21.5541006172
18.6358662981
19.1673289676
19.0389461845
19.0786633664
17.0011081438
17.5782619487
17.8433173831
18.976458651
19.4929980846
19.4652197206
19.2633066437
19.2520957959
20.2506965596
24.9721518271
29.7041734934
31.3881244045
31.9883140302
34.7571545569
41.2891372951
44.031613644
28.172739058
21.4329568336
0.194853537244
0.000682414677954
0
0
0
0
0
0
0
0
0
0
0
0
0
0
0
0
0
0
0
0
0
0
0
0
0
0
0
0
0
17.6622615785
16.8857130365
19.3379928202
18.948970827
18.6045649964
17.2884801452
16.7148491653
19.7043215889
17.8831376373
22.0628119757
20.8409297168
19.1962339081
17.2644097142
19.6270248982
19.2120281415
17.9185036069
19.28699594
18.7519423486
16.5547289771
17.9744093671
17.9350978815
16.0922072177
15.4095151831
15.5799374365
19.263070534
20.6634931573
21.2566949793
18.546114585
19.118984424
19.4279848024
19.9159733341
19.2484895108
17.2267061575
17.6381872491
19.0607580133
20.2918573247
20.7687480405
20.9397980823
20.9257898159
24.784982663
30.4736312815
34.0008441979
35.1527161763
36.4303316378
39.9411979987
38.3366391913
23.6731693129
24.5051685096
0.64050658628
0.00182419591736
0
0
0
0
0
0
0
0
0
0
0
0
0
0
0
0
0
0
0
0
0
0
0
0
0
0
0
0
0
0
17.554651112
17.4145561886
19.5241826974
19.0150640984
19.2044022508
18.3738735179
17.6731757094
21.0078368829
19.5997359711
22.6328275191
21.6994604584
20.0122250968
18.2620680932
20.3879816957
19.9315190178
18.7992171512
19.9725443712
19.6010747507
17.6408802404
18.9023196198
16.9578752005
16.6846832522
16.3598290438
16.7785728816
17.7349570196
18.5190125843
20.3202791855
18.4141739129
18.3264305031
19.3064099724
20.242480449
20.5659545443
18.8835620781
18.30802529
18.8347318317
19.9804411779
21.3973735457
22.6647089284
24.3235623818
30.101889939
35.1171218782
37.605465918
37.92043259
38.0822084577
32.9660110602
25.195371689
25.180545408
2.224835312
0.00498383922279
0
0
0
0
0
0
0
0
0
0
0
0
0
0
0
0
0
0
0
0
0
0
0
0
0
0
0
0
0
0
0
17.7083867852
17.8026472222
19.7329056764
17.594340596
19.4119801468
18.9355147417
18.3152722051
21.4762046736
20.3188346878
23.2584451142
22.6242971941
20.8447775514
19.364722202
21.1872793233
20.7017034138
19.8262858675
20.6942270753
20.5639887488
18.844409096
20.2138627396
18.2475111013
18.4901741301
17.5648133589
17.9862538013
19.8145432297
20.3992281444
19.9008500023
18.2484222883
17.5766728917
19.2113021325
20.2066732589
20.6892998451
20.611154965
19.3347698722
20.7166855986
20.7252521092
21.9495718775
24.397311461
28.6325068087
34.9053309771
38.9116627854
40.070133161
37.6268895718
29.8487106061
27.3671095261
27.5535462952
17.3558011488
0.0425012933521
0
0
0
0
0
0
0
0
0
0
0
0
0
0
0
0
0
0
0
0
0
0
0
0
0
0
0
0
0
0
0
0
18.3822547609
18.4575559369
19.9067849971
17.944957859
19.5697041462
19.1912477862
18.7704126196
21.5166441882
20.8448518743
23.7015623813
23.5682404722
21.6463726987
20.5722041621
21.9869832632
21.4531640897
20.8356348564
21.372742087
21.6278143873
20.1043526738
21.5053575755
20.0275980476
20.7260602128
20.3528691887
18.6597129163
20.2702581827
21.379585884
21.472921383
18.126539388
16.6944691669
19.0933764312
20.3124216064
19.8695499877
19.9047417146
19.5502778061
20.6062198517
21.0774653657
22.6727890606
26.2723342541
32.8924418478
39.3677985347
42.146565491
40.7431531291
30.9051423876
28.0681173871
28.9013873507
25.276093327
0.296165720519
0.00120095858127
0
0
0
0
0
0
0
0
0
0
0
0
0
0
0
0
0
0
0
0
0
0
0
0
0
0
0
0
0
0
0
0
19.2466151164
20.6485550863
20.1999772834
18.9535628722
20.0388484857
19.5045744926
19.2137163153
21.5408607632
21.3488620311
23.7602513047
24.52224869
22.3907783838
21.6480461122
22.5937570005
22.1918478853
21.5605606955
21.3601007437
22.6151142661
21.4926599067
22.6202197275
22.145845347
21.9214348375
21.6292239841
21.1575330264
20.1102868817
21.0373321092
22.4003992085
17.1159856988
16.1519783817
18.1501040047
20.2828509067
20.6251949277
21.1304336755
19.49680518
20.2866386506
21.2931729192
23.0181248027
28.0016478891
36.8801268477
43.434616155
44.8300288633
36.6139172113
29.9572951508
31.25017474
29.8325900556
2.0074381194
0.00512346492293
0
0
0
0
0
0
0
0
0
0
0
0
0
0
0
0
0
0
0
0
0
0
0
0
0
0
0
0
0
0
0
0
0
19.8824282202
21.3145576361
20.8431144371
19.8534963338
20.7064873168
20.0371614423
19.734141309
21.6649965517
21.8610048995
23.5263976684
25.3916344339
23.1602917876
22.2481983118
23.0904545552
23.0608202667
22.2216836509
21.3448893335
23.3013331047
23.0125939224
23.5823803801
23.416374084
23.4674361487
21.6436740154
21.6231683219
21.0475532484
22.8512776933
23.7177927796
19.8579149684
15.6950413475
16.9622880285
19.6297266392
20.9449144929
21.0118808476
20.109448118
19.7632081585
21.3491115044
22.931239668
29.3592260587
40.4960120896
47.4707280055
44.2852369047
30.8671929138
31.8072387611
33.6012697873
26.1164300644
0.0591901395265
0.00019891248341
0
0
0
0
0
0
0
0
0
0
0
0
0
0
0
0
0
0
0
0
0
0
0
0
0
0
0
0
0
0
0
0
0
20.3687029974
21.6526706549
21.4272532396
20.4638325401
21.383679107
20.7501728533
20.3466491478
21.9792445513
22.4481927954
22.8822514409
25.9739637634
24.0371790125