/*--------------------------------*- C++ -*----------------------------------*\
| =========                 |                                                 |
| \\      /  F ield         | OpenFOAM: The Open Source CFD Toolbox           |
|  \\    /   O peration     | Version:  v1806                                 |
|   \\  /    A nd           | Web:      www.OpenFOAM.com                      |
|    \\/     M anipulation  |                                                 |
\*---------------------------------------------------------------------------*/
FoamFile
{
    version     2.0;
    format      ascii;
    class       volVectorField;
    location    "185";
    object      Ua;
}
// * * * * * * * * * * * * * * * * * * * * * * * * * * * * * * * * * * * * * //

dimensions      [0 1 -1 0 0 0 0];


internalField   nonuniform List<vector> 
6400
(
(4.57937610334e-05 6.35435562862e-05 0)
(0.000128938273123 5.15429203076e-05 0)
(0.000190529863309 4.45156184686e-05 0)
(0.000264538815838 4.21449715128e-05 0)
(0.000317651733525 2.69658913301e-05 0)
(0.000354412889351 1.32684972189e-05 0)
(0.000366197352734 7.83156920969e-06 0)
(0.000371878342271 1.53042372815e-05 0)
(0.000422657250392 2.57821331105e-05 0)
(0.000479859987055 2.54805315658e-05 0)
(0.000489702266798 2.23913163528e-05 0)
(0.000543535993242 2.6925792018e-05 0)
(0.000590781011011 2.58873413496e-05 0)
(0.000629390546573 2.13780769025e-05 0)
(0.000653803902978 1.87075337155e-05 0)
(0.000681091921897 2.17297498272e-05 0)
(0.000721170895457 2.31975958542e-05 0)
(0.000753910329508 2.06921968524e-05 0)
(0.000773569001472 1.54517169138e-05 0)
(0.000787717344465 1.1604954054e-05 0)
(0.000809086191313 1.66171520068e-05 0)
(0.000842841313241 2.39096920277e-05 0)
(0.000884902897488 2.72514660583e-05 0)
(0.00092476805321 2.89019314727e-05 0)
(0.000964787521063 2.79737779953e-05 0)
(0.00100291388544 2.56156013565e-05 0)
(0.00104298146487 2.58894504318e-05 0)
(0.00108176916946 2.53816514643e-05 0)
(0.00111477074751 2.3271154371e-05 0)
(0.00114294636509 2.14363176676e-05 0)
(0.00116571089169 2.20969845517e-05 0)
(0.00119310844976 2.20619304104e-05 0)
(0.00122171515407 1.99938360139e-05 0)
(0.00124527569161 2.09460402037e-05 0)
(0.00126645108436 2.06084146027e-05 0)
(0.00129775118232 2.11117210369e-05 0)
(0.00133127135983 2.39282972084e-05 0)
(0.00133693596209 2.25331720914e-05 0)
(0.00136510848481 2.09401657632e-05 0)
(0.00140792030589 2.52998625578e-05 0)
(0.00145489776043 4.2252083797e-05 0)
(0.0014996119497 4.79900075412e-05 0)
(0.00153913623982 3.04246829584e-05 0)
(0.00156537121094 1.93516797658e-05 0)
(0.00157851968047 1.47596781084e-05 0)
(0.00158570147014 9.88764459355e-06 0)
(0.00158511271062 5.73873969164e-06 0)
(0.00157432738522 4.88647446279e-07 0)
(0.0015551506571 -2.99005571908e-06 0)
(0.00153183820132 2.4591892432e-06 0)
(0.00151342361026 1.64236398443e-05 0)
(0.00153992135557 1.63740276347e-05 0)
(0.00151222325954 -2.1050301184e-05 0)
(0.00146348116943 -3.42216372303e-05 0)
(0.00138263127456 -4.25114005228e-05 0)
(0.00122896352238 -6.3265335788e-05 0)
(0.00108630918219 -5.23156683629e-05 0)
(0.000996338711868 -3.47654797939e-05 0)
(0.000936994836321 -3.97513584115e-05 0)
(0.000797076738012 -4.28793341722e-05 0)
(0.000703075169045 -3.33610526723e-05 0)
(0.000606010581061 -4.76297936047e-05 0)
(0.000532184359794 -7.86775111946e-05 0)
(0.00033653774723 -6.12491336325e-05 0)
(0.00022639051491 -3.89607661132e-05 0)
(0.000163939103033 -2.74681553542e-05 0)
(0.000119873088212 -2.36772008e-05 0)
(8.05320950727e-05 -2.19969121232e-05 0)
(4.0025442412e-05 -2.13111416484e-05 0)
(-1.72112842858e-06 -2.02036448421e-05 0)
(-4.11389609499e-05 -1.77797026819e-05 0)
(-7.28110983038e-05 -1.36007149345e-05 0)
(-9.28986236592e-05 -8.36063369382e-06 0)
(-0.000108756268927 -2.17600171331e-06 0)
(-0.000101250140084 1.91376378213e-06 0)
(-0.000103770732625 4.89580436027e-06 0)
(-7.76539806448e-05 4.29864620345e-06 0)
(-8.77733380893e-05 9.86925841091e-06 0)
(-4.01868622763e-05 8.71568603627e-06 0)
(-3.04840563277e-05 1.80857218863e-05 0)
(1.67725661875e-05 8.5626861432e-05 0)
(7.26832167567e-05 9.84708452665e-05 0)
(0.000127668202209 9.27774720543e-05 0)
(0.000161604318178 7.39548412465e-05 0)
(0.000241898859301 7.40364770815e-05 0)
(0.000326271142811 5.26985620124e-05 0)
(0.000378172687121 2.96975777013e-05 0)
(0.000411226234961 4.30380455071e-05 0)
(0.000445637851913 6.18077603088e-05 0)
(0.000485394387169 6.0781615125e-05 0)
(0.000524028806591 5.80252215106e-05 0)
(0.000559548648383 6.01935047677e-05 0)
(0.000592655647411 5.46210405441e-05 0)
(0.000623358688193 4.54539792357e-05 0)
(0.000656086673156 4.12594033055e-05 0)
(0.000689137138829 5.33864375214e-05 0)
(0.000722894210391 5.75093302843e-05 0)
(0.000747476972915 3.40563228629e-05 0)
(0.000727728816687 1.78067663207e-05 0)
(0.00074846587636 1.70944284981e-05 0)
(0.000781009989159 3.36373115581e-05 0)
(0.000825466750684 5.88844673405e-05 0)
(0.000884556308316 6.85081861846e-05 0)
(0.000934680034939 6.20987046866e-05 0)
(0.000953772977911 5.69921074167e-05 0)
(0.0010035496794 5.683818246e-05 0)
(0.00104860921146 5.41915547487e-05 0)
(0.00108244007077 4.85630318731e-05 0)
(0.00111247089712 4.26501906115e-05 0)
(0.00114069590008 3.79655768499e-05 0)
(0.00116788798532 3.75453935357e-05 0)
(0.00117966520477 3.58807871655e-05 0)
(0.00120634458978 2.82022438533e-05 0)
(0.00122537600279 3.2185643379e-05 0)
(0.00123718128478 3.75825482951e-05 0)
(0.0012890260962 3.11117577588e-05 0)
(0.00130619264246 3.60489118564e-05 0)
(0.00131585339458 4.28660031703e-05 0)
(0.00135813448511 4.12509082467e-05 0)
(0.00142538255775 4.11569085313e-05 0)
(0.00147987693985 3.65555681084e-05 0)
(0.00134512918549 2.60889984565e-05 0)
(0.00131780364282 2.15565971135e-05 0)
(0.00134720382052 1.97163441216e-05 0)
(0.00136566133028 1.70605029663e-05 0)
(0.00139742474761 1.22925882834e-05 0)
(0.00143508320022 3.98780565736e-06 0)
(0.00145492315199 -6.92076458662e-06 0)
(0.0014848803254 -1.83889284936e-05 0)
(0.00149657284202 -2.68437180798e-05 0)
(0.00146179575676 -2.74691873644e-05 0)
(0.00136637610245 -2.99838840708e-05 0)
(0.00127402782313 -3.92457862142e-05 0)
(0.00145952147584 -7.76933728538e-05 0)
(0.0013521685571 -0.000131611631399 0)
(0.00127203148396 -0.000161109912607 0)
(0.00128524255469 -0.000158194927201 0)
(0.0012071679214 -0.000142308046005 0)
(0.00110533889012 -0.000155811505664 0)
(0.00100286751149 -0.000178174444934 0)
(0.000897472655157 -0.000194871313844 0)
(0.00060611823262 -0.000176490908558 0)
(0.000548933434409 -0.00023068283582 0)
(0.000344385900176 -0.000187463604302 0)
(0.000233601091067 -0.000128177777048 0)
(0.000158379619858 -8.58370370369e-05 0)
(0.000109596054144 -6.66468341655e-05 0)
(7.2916934493e-05 -6.36973419293e-05 0)
(3.24673476179e-05 -6.35614071712e-05 0)
(-8.69231163018e-06 -6.23020203206e-05 0)
(-4.759458319e-05 -5.467678657e-05 0)
(-7.82150040691e-05 -4.05393235075e-05 0)
(-9.59272107357e-05 -2.46016643553e-05 0)
(-0.000113899983312 -1.0873913282e-05 0)
(-0.000119812108602 1.42835901171e-06 0)
(-0.000118962524572 1.13646396133e-05 0)
(-0.000109943570286 1.74073273879e-05 0)
(-9.51901079477e-05 2.96351729032e-05 0)
(-6.22526608186e-05 4.03587703947e-05 0)
(-2.95354660602e-05 7.32482208156e-05 0)
(2.55868377837e-05 0.000148489628332 0)
(7.12658018353e-05 0.000165294335589 0)
(0.0001091161859 0.000158866866043 8.51611981081e-29)
(0.000196680932009 0.000168942377359 -8.35292795778e-29)
(0.000283666641354 0.000174259288669 -7.8247357382e-29)
(0.000330678288163 0.00014084424005 7.26173114825e-29)
(0.000361157415646 7.20021658223e-05 -7.43892420901e-29)
(0.000395602102022 8.0560930344e-05 7.52669958597e-29)
(0.000432969607451 0.000101122260864 0)
(0.000475996843854 0.000105517541147 0)
(0.00051909336611 0.000100825805745 0)
(0.000556028493178 9.48659119131e-05 0)
(0.000589043086614 8.63335717365e-05 0)
(0.000618576371018 8.09368662661e-05 0)
(0.000648207463167 7.6383522165e-05 0)
(0.000679353681333 6.3100749603e-05 0)
(0.000577930183071 3.81230774454e-05 0)
(0.000552117043158 2.45806785353e-05 0)
(0.000571888219458 3.13415492689e-05 0)
(0.0006214634688 6.24562265804e-05 0)
(0.000759861179581 0.000105177180286 0)
(0.00084788943945 0.000124227640858 0)
(0.000865337893258 0.000117381851729 0)
(0.000915563342979 0.000108384394888 0)
(0.000969732384258 0.000104051971394 0)
(0.00100803420251 0.000101033348809 0)
(0.00104168071708 9.2490595746e-05 0)
(0.00107518753946 8.29182506769e-05 0)
(0.00110536568214 7.43525308691e-05 0)
(0.00112872161844 6.81567901802e-05 1.7088913742e-28)
(0.00116079554211 6.2318819184e-05 -1.66406985987e-28)
(0.0011617036942 5.74447086148e-05 0)
(0.00117781701419 5.15259190028e-05 0)
(0.00122930400443 4.55260882219e-05 0)
(0.00118022498097 5.89904270274e-05 0)
(0.00122590842497 6.91214709965e-05 0)
(0.00131014611775 6.42740752659e-05 0)
(0.00126679881675 7.41728825223e-05 0)
(0.00132794633787 9.75580181395e-05 0)
(0.00142121069148 9.66204758659e-05 0)
(0.00148600342198 5.39092867361e-05 0)
(0.00151809293043 2.32720140579e-05 0)
(0.00154529061591 3.46543031797e-05 0)
(0.00156746431375 4.45050975116e-05 0)
(0.00158175778453 4.43850008099e-05 0)
(0.00159035215135 3.9403204954e-05 0)
(0.00159409650267 2.715959952e-05 0)
(0.00159327372371 1.14931052967e-05 0)
(0.00158809519105 -7.91741160709e-06 0)
(0.00157894644739 -3.5086275067e-05 0)
(0.00156727732837 -6.35957394576e-05 0)
(0.00155010049708 -7.70532413292e-05 0)
(0.00151531643004 -6.39387859743e-05 0)
(0.00143399685289 -0.000102837722002 0)
(0.00133126474076 -0.000164746887797 0)
(0.00132602780226 -0.000193386993786 0)
(0.00127980015256 -0.000208072087526 0)
(0.00119000990343 -0.000229351570182 0)
(0.00108365082357 -0.000256737243055 0)
(0.000968916795433 -0.000293106768205 0)
(0.000839996733413 -0.000342470855281 0)
(0.000704315880663 -0.000384346904221 0)
(0.0005752383662 -0.000431614816765 0)
(0.000345212077982 -0.000323179357642 0)
(0.000212262765601 -0.000200430627165 0)
(0.000150004508343 -0.000143805599051 0)
(0.000104121469084 -0.00011906803094 0)
(6.02943061819e-05 -0.000107711643806 0)
(1.94717379677e-05 -0.000104220388774 0)
(-2.05239595963e-05 -9.92688971757e-05 0)
(-5.79946474834e-05 -8.58810453095e-05 0)
(-8.98072969691e-05 -6.58839658468e-05 0)
(-0.000118113706535 -4.65063737868e-05 0)
(-0.000136683185185 -2.41136654912e-05 0)
(-0.000139178406389 -1.60945423206e-08 0)
(-0.000133076265026 1.77803539577e-05 0)
(-0.000120692444623 3.18997205631e-05 0)
(-0.00010198719394 5.74570203062e-05 0)
(-7.42837812683e-05 9.78701097519e-05 0)
(-1.99765953125e-05 0.000107458558012 0)
(2.52991992864e-05 0.00022719677515 0)
(3.04518789277e-05 0.000145738621451 0)
(9.04217202246e-05 0.000245683167277 0)
(0.000177592837628 0.000256301029962 0)
(0.000240068016157 0.0002148812663 0)
(0.000122642306329 7.45234520593e-05 0)
(0.000150819452004 7.57004574237e-05 0)
(0.00030287225566 0.00015377269922 0)
(0.000400030859694 0.000173098171179 0)
(0.000454638560583 0.00015843100336 0)
(0.000507745425868 0.00014710102817 0)
(0.000550263226717 0.000133533672015 0)
(0.000583972970585 0.000118893377814 0)
(0.000603271320344 9.16297261283e-05 0)
(0.000542759191315 5.09992097452e-05 0)
(0.000500310493256 2.45256902231e-05 0)
(0.000499557226361 2.08848114443e-05 0)
(0.000540067854214 4.96156547219e-05 0)
(0.000641075294071 0.000102075750682 0)
(0.000765304209265 0.000166202088057 0)
(0.000800030392917 0.000183270808253 0)
(0.000836903121999 0.000172521386671 0)
(0.000885173353722 0.00016299773817 0)
(0.000927618892646 0.000156119736191 0)
(0.000964634520348 0.000146182712515 0)
(0.000998511912287 0.000134805929679 0)
(0.00102861735442 0.000124007096643 0)
(0.00106714690232 0.000113185078927 0)
(0.00108806157685 0.000101673395214 0)
(0.00112665595992 9.2591067953e-05 0)
(0.00112713722396 8.22821624544e-05 0)
(0.001169496444 7.21765777537e-05 0)
(0.00113966863083 5.71131753342e-05 0)
(0.00115920765288 6.04626354887e-05 0)
(0.00123780462063 7.96977670234e-05 0)
(0.00120025248483 0.000100192838166 0)
(0.00127665397574 0.000113563609583 0)
(0.00137503878414 0.000131054884552 0)
(0.00141832831976 0.000153409473296 0)
(0.00144827007546 0.000142828900376 0)
(0.00148120363845 0.000102892871599 0)
(0.00151402603206 6.94446380703e-05 0)
(0.00154337241936 6.0279592057e-05 0)
(0.00156675620172 5.82626551513e-05 0)
(0.00158295366175 5.25158592389e-05 0)
(0.0015934745858 4.19734223118e-05 -1.73688588821e-28)
(0.00159926110722 2.63214989719e-05 1.74854921455e-28)
(0.0016004835864 6.56245550904e-06 0)
(0.00159702265044 -1.72820445613e-05 0)
(0.00158860499613 -4.54547693872e-05 0)
(0.00157434410972 -7.44746202752e-05 0)
(0.0015501265895 -0.000100731867611 0)
(0.00150961736678 -0.000130358430753 0)
(0.00145295798282 -0.000177439281064 0)
(0.00139331690197 -0.000218438780289 0)
(0.00133417299143 -0.000248496249705 0)
(0.00126086404698 -0.000289154214581 0)
(0.00116420084475 -0.000333405412163 -3.22980729947e-28)
(0.00104717035498 -0.000378074720271 3.62101399875e-28)
(0.000915952173917 -0.000425882165373 0)
(0.000776035648914 -0.000474537419505 0)
(0.000638601349814 -0.000520523619664 0)
(0.000524311488879 -0.000561391443251 0)
(0.000367064404317 -0.00047392985864 0)
(0.000233579823834 -0.000316918579686 0)
(0.000141694671504 -0.000204108710422 0)
(8.81619643476e-05 -0.000163011393266 0)
(4.326383092e-05 -0.000150361315297 0)
(1.30795768653e-06 -0.000145045710436 0)
(-3.99530958086e-05 -0.000140534921925 0)
(-8.20727921668e-05 -0.000126511383896 0)
(-0.000120530547683 -0.000101957705073 0)
(-0.00014430381832 -6.77505091763e-05 0)
(-0.000144453060132 -2.83350068634e-05 0)
(-0.000142818909002 2.91940837823e-06 0)
(-0.000138628654939 2.94747733885e-05 0)
(-0.000120217111804 5.53109854441e-05 0)
(-7.76939996316e-05 7.31648210554e-05 0)
(-5.89969674192e-05 0.000118664884073 0)
(-2.0034521832e-05 0.000149974878616 0)
(1.00422094687e-07 0.000219797798838 0)
(1.34785371807e-05 0.00017838063411 0)
(8.47900778543e-05 0.000331604633981 0)
(0.000149969402389 0.000304351851332 0)
(0.000145149424035 0.000183783564949 0)
(0.00011010155217 9.84982170506e-05 0)
(0.000193252156048 0.000170893153807 0)
(0.00032658056675 0.00026863617098 0)
(0.000373985234078 0.000245972566638 0)
(0.000432110395046 0.000217036023935 0)
(0.000486789768263 0.000202245920372 0)
(0.000530449701379 0.000175429644466 0)
(0.000519291779114 0.000113100207239 0)
(0.000454770633801 5.34129347486e-05 0)
(0.000465218703135 3.25763942479e-05 0)
(0.000500363106715 4.08929968179e-05 0)
(0.000567650525762 7.68285574131e-05 0)
(0.00066513109244 0.000140378239393 0)
(0.000744169085399 0.000195769157376 0)
(0.00075379763757 0.000206038778955 0)
(0.000789314561332 0.000213209278168 0)
(0.000841247763998 0.000217879137363 0)
(0.00088174821582 0.000208580102647 0)
(0.000920062355271 0.000194428501447 0)
(0.000954515966265 0.000180297128436 0)
(0.000984064739061 0.000168337279297 0)
(0.00102391706891 0.000155978549493 0)
(0.00103880394357 0.000141129233305 0)
(0.00108747201094 0.000129217350669 0)
(0.00107978579843 0.000112645546746 0)
(0.00113982204533 0.000101589297855 1.61842986833e-28)
(0.00108537699821 8.18941780931e-05 -1.45658727919e-28)
(0.00115070429695 8.04271514325e-05 0)
(0.00120760348394 8.73303769608e-05 0)
(0.00118056856033 0.00010701331072 0)
(0.00128129788875 0.000152349360084 0)
(0.00133843152513 0.000187537943025 0)
(0.00138556888431 0.000191837302299 0)
(0.0014207832245 0.000183937129186 0)
(0.00145001411721 0.000165987922282 0)
(0.00148198881629 0.000135521593258 0)
(0.00151486417753 0.000106305173645 0)
(0.00154459568189 8.9347902094e-05 0)
(0.00156889896311 7.86511269971e-05 0)
(0.00158696675083 6.6788250206e-05 0)
(0.00159978029528 5.11772448764e-05 0)
(0.00160790281418 3.10748702652e-05 0)
(0.00161128215573 6.58149823677e-06 0)
(0.00160937757245 -2.25674063416e-05 0)
(0.00160121432915 -5.65310080361e-05 0)
(0.00158519594483 -9.40403142344e-05 0)
(0.00155821115643 -0.000134151164307 0)
(0.00151712920379 -0.000178820797122 0)
(0.00146270998747 -0.000229652043089 0)
(0.00140017739733 -0.000278256718343 0)
(0.00132962919796 -0.000327490995537 0)
(0.00124266298608 -0.000386300926563 0)
(0.00113258789832 -0.000450485085343 0)
(0.00100023834814 -0.000512296165968 0)
(0.000854534079624 -0.0005677383663 0)
(0.000708592564324 -0.000614143016611 0)
(0.000579173798957 -0.000652066495987 0)
(0.000480721776525 -0.000669289221803 0)
(0.000373803415264 -0.000607342688407 0)
(0.000238681888909 -0.000433768202394 0)
(0.000144626174945 -0.000290022973135 0)
(8.03845726762e-05 -0.000227072446147 0)
(2.5709993747e-05 -0.000200105823066 0)
(-2.14149945998e-05 -0.000187842813951 0)
(-6.6781786613e-05 -0.000182009029823 0)
(-0.000115051374304 -0.000169369898422 0)
(-0.000150039072118 -0.000130473578751 0)
(-0.000154022005076 -7.31888836102e-05 0)
(-0.000157002047888 -2.89915778053e-05 0)
(-0.00015925312238 7.91223519275e-06 0)
(-0.000152178378025 4.7183210224e-05 0)
(-0.000121639981064 8.01891700231e-05 0)
(-8.62020210323e-05 0.000105026415894 0)
(-6.25147414917e-05 0.000161666397819 0)
(-1.81100651579e-05 0.000183629391466 0)
(-1.91691365094e-06 0.000202536821572 0)
(1.87240531831e-05 0.000218687240824 0)
(8.73715063247e-05 0.000376638812322 0)
(0.000117098434663 0.000298499795404 0)
(8.14345742637e-05 0.000137525343674 0)
(0.000110788137692 0.000141978164508 0)
(0.000260575424752 0.00029578215397 0)
(0.000318767773273 0.000324514042507 0)
(0.000355904240194 0.000296820265656 0)
(0.000403835290047 0.000272318946173 0)
(0.000452404289184 0.000234028858578 0)
(0.000396067789923 0.000145386587955 0)
(0.000353110476591 7.41453449248e-05 0)
(0.000385621425418 5.84600811516e-05 0)
(0.000427977753261 7.14473872663e-05 0)
(0.000515310262244 0.000114236770841 0)
(0.000622989386655 0.000173583036469 0)
(0.000700783780216 0.00021236534357 0)
(0.00069228976603 0.000210685570673 0)
(0.000735776324415 0.000234791846372 0)
(0.000796170647066 0.000261861143416 0)
(0.000834982531733 0.000260967391868 0)
(0.000871410432877 0.000247589269633 0)
(0.000904551072584 0.000231396853816 0)
(0.000946727603474 0.000217328566682 0)
(0.000976759661183 0.000197222080879 0)
(0.000975959990243 0.00018096831227 0)
(0.0010444130737 0.000172128244276 0)
(0.00101487980648 0.00014638030007 0)
(0.00109837022193 0.000131757630331 0)
(0.00101178845322 0.000102411406549 0)
(0.00111676679007 0.000107923541923 0)
(0.00105196333203 0.000106196127782 0)
(0.00114469070233 0.000127472494727 0)
(0.0012469652878 0.000174690456731 0)
(0.00130883307864 0.000221387697327 0)
(0.00135103700953 0.000234124660114 0)
(0.00138733641551 0.000228833664968 0)
(0.00141954746163 0.000215160503717 0)
(0.00145098107177 0.000195252003114 0)
(0.00148350258289 0.000168419684385 0)
(0.00151629645296 0.000140696539513 0)
(0.00154663475644 0.000118657780059 0)
(0.00157218109692 0.000100884491892 0)
(0.0015924598978 8.3027598531e-05 0)
(0.00160779138618 6.23900469495e-05 0)
(0.00161857746149 3.76686059102e-05 0)
(0.00162437588881 8.13414869352e-06 0)
(0.00162408532053 -2.70057121398e-05 0)
(0.00161634008483 -6.82942748035e-05 0)
(0.0015994293755 -0.000115524189036 0)
(0.00157100538818 -0.000168264090269 0)
(0.00152916090912 -0.000226121051895 0)
(0.00147397569617 -0.000287452239956 0)
(0.00140647912966 -0.000349919586028 0)
(0.00132437017616 -0.000418221798651 0)
(0.00122167418738 -0.000497140976382 0)
(0.00109592403377 -0.000580810820262 0)
(0.000952790766746 -0.000658103504339 0)
(0.000799664207343 -0.000715705258845 0)
(0.000656711452863 -0.000751056366224 0)
(0.000540281788921 -0.000754766717828 0)
(0.000408554944107 -0.000685247996885 0)
(0.000378333358353 -0.000753378576349 0)
(0.000220445809059 -0.000526658006867 0)
(0.000132739115518 -0.000360901816436 0)
(6.86339115123e-05 -0.000291307058222 0)
(5.47032475618e-06 -0.000254860657589 0)
(-5.02737317764e-05 -0.000234865291834 0)
(-0.000104637222509 -0.000232051133244 0)
(-0.000153113147514 -0.000210012749471 0)
(-0.000166321963462 -0.000141644062112 0)
(-0.000170012161241 -7.93302306518e-05 0)
(-0.000182263398088 -3.33641675284e-05 0)
(-0.000184022543293 1.43758792614e-05 0)
(-0.000174526737475 6.91273028217e-05 0)
(-0.000135554523016 0.000105650100753 0)
(-0.000102195369538 0.000137503797255 0)
(-7.38617863641e-05 0.000202694137538 0)
(-2.26968270173e-05 0.000222922002109 0)
(6.42691146384e-06 0.000219526817891 0)
(4.84904973128e-05 0.000291781642034 0)
(0.000118222039226 0.000409010791085 0)
(0.000124851349814 0.00037074468312 0)
(7.49750529153e-05 0.000170162716635 0)
(0.000167713151151 0.000261444583557 0)
(0.000280980736854 0.000371940015279 0)
(0.000304363734491 0.00036125938088 0)
(0.000340451031768 0.000333079305092 0)
(0.000355969631834 0.000298509683381 0)
(0.000418848386208 0.00024626330896 -3.40383857628e-28)
(0.000298941365484 0.000106341373981 1.80669083424e-28)
(0.000351274710443 9.33470436467e-05 0)
(0.000375639908902 0.000100663107927 0)
(0.000447940287539 0.000144814744766 0)
(0.000563226758434 0.000220065293472 0)
(0.000646821676883 0.000253278768382 0)
(0.000618888059269 0.00022158275122 0)
(0.000666265350955 0.000242877725957 0)
(0.000744446130909 0.000292575945189 0)
(0.000782970356722 0.000307107359194 0)
(0.000823236608821 0.0003000166564 0)
(0.000860938699281 0.00028554016848 0)
(0.000896168837807 0.000266193939512 0)
(0.000918125066372 0.000241075210204 0)
(0.000923032000174 0.000214272337459 0)
(0.000982886246874 0.000206405869318 0)
(0.000939080946032 0.000186307386211 0)
(0.00104326089992 0.000172683124969 0)
(0.000947498836937 0.000120609885407 0)
(0.00105524182597 0.000125790443246 0)
(0.00100694149804 0.000131553508724 -1.36379313437e-28)
(0.00110514641668 0.000152084981427 1.49287706469e-28)
(0.0011437151487 0.000201744561321 0)
(0.00127332288818 0.000260810046906 0)
(0.00131729710511 0.000276002232476 0)
(0.00135109099215 0.000272306384292 0)
(0.0013841573635 0.000261806605259 0)
(0.00141809292827 0.00024675872759 0)
(0.00145182068644 0.000226841229504 0)
(0.00148515937211 0.000201597795079 0)
(0.0015184240404 0.000174211691559 0)
(0.00154960398363 0.000148677688402 0)
(0.00157672837419 0.000125371289442 0)
(0.0015993230855 0.000102084243178 0)
(0.00161752340134 7.65422961378e-05 0)
(0.00163132701096 4.69934568413e-05 0)
(0.00163980909568 1.1915398938e-05 0)
(0.0016414566563 -3.00592960148e-05 0)
(0.00163473838851 -7.98384785383e-05 0)
(0.00161795741891 -0.000137612806678 0)
(0.00158904653751 -0.000202862801032 0)
(0.00154623735459 -0.000274288269789 0)
(0.00148840823345 -0.000350331501777 0)
(0.00141405451381 -0.000431479512753 0)
(0.00131985939438 -0.000521909326169 0)
(0.0012022871033 -0.000622108722085 0)
(0.00106286245975 -0.000722461063547 0)
(0.000909866761348 -0.000807535363488 0)
(0.000758195171648 -0.000861667605852 0)
(0.00062560990814 -0.000871526150738 0)
(0.000524098044118 -0.0008481213678 0)
(0.000443160444898 -0.000845178339107 0)
(0.000384343833378 -0.000835220027025 0)
(0.000239333535521 -0.000624107522225 0)
(0.00011565594008 -0.000425602358215 0)
(4.79727480263e-05 -0.000364189417828 0)
(-2.38853897586e-05 -0.000327804476481 0)
(-8.98469422695e-05 -0.000301993770461 0)
(-0.000146887918194 -0.000282998567344 0)
(-0.000178516055695 -0.000229880826984 0)
(-0.000183712040501 -0.000151112084615 0)
(-0.000201281430186 -9.3361232132e-05 0)
(-0.000216296854194 -3.97702166189e-05 0)
(-0.000220107601853 2.28475096381e-05 0)
(-0.000200558800984 8.85774745447e-05 0)
(-0.000170188836953 0.000139347228864 0)
(-0.000125513228186 0.000175437224864 0)
(-8.99107442812e-05 0.000246794617407 0)
(-3.06418720539e-05 0.000279266032927 0)
(1.4283980384e-05 0.000256183861133 0)
(7.30889949109e-05 0.000367378377776 0)
(0.00013521348042 0.000419159434114 0)
(7.25441018594e-05 0.000226262228999 0)
(7.76384590034e-05 0.000213106718591 0)
(0.000208139229249 0.00038484806098 0)
(0.000257419157005 0.000408260067187 0)
(0.000293723502814 0.000397091837653 0)
(0.00030406922782 0.000349653144493 0)
(0.000340061555673 0.000318124008597 0)
(0.000255854976315 0.000169946558187 0)
(0.000295981994068 0.000125862650648 0)
(0.000338732876078 0.00012828461848 0)
(0.000371430892703 0.000154021727623 0)
(0.000489244868379 0.000241893506383 0)
(0.000587800900379 0.00029819610912 0)
(0.000555836651935 0.000253925295207 0)
(0.000589520379646 0.000253283501985 0)
(0.000675989370323 0.000309862487705 0)
(0.000733125063753 0.000344857624841 0)
(0.000765634356255 0.000346145045767 0)
(0.000799209722734 0.000336083582768 0)
(0.000844019402275 0.000325359195867 0)
(0.000876465128861 0.000301895823447 0)
(0.000918324332302 0.000264664079585 0)
(0.000894597647648 0.000238352541544 0)
(0.000969927841434 0.000227074601252 0)
(0.000952464962472 0.000199630627075 0)
(0.000931241889501 0.00016827620117 0)
(0.000960929907954 0.000155615902871 0)
(0.00107985434759 0.000166643560765 0)
(0.00104528124827 0.000159319072207 0)
(0.00105966751567 0.00020772837172 0)
(0.00123084003058 0.000296353427866 0)
(0.00127394459455 0.000327443599453 0)
(0.00131214266825 0.000319827593877 0)
(0.00134668546084 0.000307746683422 0)
(0.00138043914689 0.000295411915288 0)
(0.00141604518983 0.000280402658407 0)
(0.00145199365803 0.000260618520046 0)
(0.00148683554721 0.000235740473536 0)
(0.001520827168 0.000207894286086 0)
(0.00155317599475 0.000179699396087 0)
(0.00158229952771 0.000152054316733 0)
(0.0016075461605 0.000124042125588 -1.68058975755e-28)
(0.00162894727964 9.38680377464e-05 1.67522770598e-28)
(0.00164610278316 5.93618553584e-05 0)
(0.00165765508143 1.83024234708e-05 0)
(0.00166183101511 -3.11363588345e-05 0)
(0.00165705947355 -9.01146409588e-05 0)
(0.001641577631 -0.000159068093495 0)
(0.00161319734083 -0.000237597520304 0)
(0.00156971279266 -0.000324618164106 0)
(0.00150862488683 -0.000419420980369 0)
(0.00142662934188 -0.000523210731208 0)
(0.00132037206816 -0.000637621767325 0)
(0.00118920412474 -0.000758523790508 0)
(0.00103817298277 -0.000873091512354 0)
(0.000877767808343 -0.000963587772199 0)
(0.000722605938431 -0.00100454903794 0)
(0.000593483418111 -0.000978003240585 0)
(0.00050756671044 -0.000930995613206 0)
(0.000446878318459 -0.000900381697197 0)
(0.00039782771886 -0.000883816367068 0)
(0.000334243500527 -0.000843546245798 0)
(0.000130353585321 -0.000532028591326 0)
(2.30302444066e-05 -0.000445069662517 0)
(-6.10436625218e-05 -0.000400855891455 0)
(-0.000130113102881 -0.000359114490511 0)
(-0.000178915060389 -0.000315083331731 0)
(-0.000199397114364 -0.000243459486436 0)
(-0.000214316011481 -0.000170634219516 0)
(-0.000241823366974 -0.000113183277924 0)
(-0.000259757107386 -4.81873704677e-05 0)
(-0.000264454665408 3.07227993069e-05 0)
(-0.000243015276354 0.000108323531971 0)
(-0.00021912898068 0.000177318916064 0)
(-0.000164482917807 0.000229337787826 0)
(-0.000109658028144 0.000302135457773 0)
(-3.8646949551e-05 0.00035433663004 0)
(2.08461439347e-05 0.000304561680769 0)
(8.72802191915e-05 0.000432598544907 0)
(0.000110447901394 0.000423073820683 0)
(6.87982124631e-05 0.000247682941884 0)
(0.000116499785841 0.000290083795486 0)
(0.000222273308638 0.000444858357965 0)
(0.000232547468819 0.000441305174746 0)
(0.000282886275198 0.000428797659267 0)
(0.000250620167357 0.000333040905582 0)
(0.00034031589378 0.000355975899405 0)
(0.000245344722863 0.000183924062706 0)
(0.000302264061844 0.00016597722057 0)
(0.00033209675531 0.000171349936007 0)
(0.000401645837044 0.000235525763032 0)
(0.000515052719615 0.000335144639239 0)
(0.000570073589741 0.000337387929886 0)
(0.00053297625604 0.000277322640986 0)
(0.000594835377753 0.000312450630038 0)
(0.000667544605495 0.000370064513228 0)
(0.000711573802955 0.000388879942921 0)
(0.000750982072716 0.000384136146678 0)
(0.000775151456763 0.000368071564444 0)
(0.00081353146076 0.00035511109131 0)
(0.000828002527141 0.000326442572727 0)
(0.000827543997441 0.000271592423013 0)
(0.000911113250394 0.000264216546087 0)
(0.000835236047518 0.000234169883511 0)
(0.000993094611121 0.000228773043691 0)
(0.00090280566855 0.000195158887167 0)
(0.00105506448487 0.000214236118848 0)
(0.000959847405581 0.000185039051945 0)
(0.00111003886346 0.000216853221553 0)
(0.00116763929827 0.000294433393881 -1.70020333879e-28)
(0.00123314149456 0.000361788710326 1.80403941012e-28)
(0.00126915394019 0.000369808307364 0)
(0.0013045131635 0.000358150167103 0)
(0.00134111686235 0.000344432716773 0)
(0.00137666715863 0.00033106707083 0)
(0.00141338638349 0.000315983212057 0)
(0.00145084148285 0.000296328199511 0)
(0.00148762249137 0.000271315854345 0)
(0.00152322075654 0.000242587579158 0)
(0.00155714590229 0.000212213921819 0)
(0.00158855531246 0.000181184130536 0)
(0.00161696055951 0.000149167567716 0)
(0.00164195187692 0.000114654808652 0)
(0.00166274245387 7.51724890242e-05 0)
(0.00167785243072 2.79304817559e-05 0)
(0.00168547331628 -2.92810016442e-05 0)
(0.00168392189797 -9.78435433661e-05 0)
(0.00167126581149 -0.000178540400918 0)
(0.00164500304862 -0.000271600390889 0)
(0.00160210074441 -0.000376854107017 0)
(0.0015384276405 -0.000494441402577 0)
(0.00144898924117 -0.000624529667269 0)
(0.00133063297301 -0.000764509685489 0)
(0.00118515487102 -0.000905437426927 0)
(0.00102033597242 -0.00103237772399 0)
(0.000849330586953 -0.00112631278733 0)
(0.000689434589054 -0.00115070077057 0)
(0.00056994953519 -0.00107726977585 0)
(0.000500444906313 -0.000988667121212 0)
(0.000450925140494 -0.000947677894492 0)
(0.000400975761641 -0.000934882349422 0)
(0.000360408225808 -0.000911688757233 0)
(0.000217201783099 -0.000753997305367 0)
(1.43772979253e-05 -0.000523928177819 0)
(-0.00010712518297 -0.000486148393357 0)
(-0.000173456049488 -0.000420727249748 0)
(-0.000209528934217 -0.000342521104748 0)
(-0.000228209773975 -0.000262566849131 0)
(-0.000255969581168 -0.000199157975838 0)
(-0.000288595522679 -0.00013788690315 0)
(-0.000310392395037 -5.99310330129e-05 0)
(-0.000315544862076 3.36637015266e-05 0)
(-0.000303716206093 0.000127778471598 0)
(-0.000277347715224 0.000217839985744 0)
(-0.000219212369003 0.000302144687491 0)
(-0.000138323045263 0.000382366521785 0)
(-4.66137546501e-05 0.000441886697001 0)
(2.7144694619e-05 0.000368416902429 0)
(0.000100849636352 0.000481172054063 0)