/*--------------------------------*- C++ -*----------------------------------*\
| =========                 |                                                 |
| \\      /  F ield         | OpenFOAM: The Open Source CFD Toolbox           |
|  \\    /   O peration     | Version:  v1806                                 |
|   \\  /    A nd           | Web:      www.OpenFOAM.com                      |
|    \\/     M anipulation  |                                                 |
\*---------------------------------------------------------------------------*/
FoamFile
{
    version     2.0;
    format      ascii;
    class       volVectorField;
    location    "567";
    object      Ua;
}
// * * * * * * * * * * * * * * * * * * * * * * * * * * * * * * * * * * * * * //

dimensions      [0 1 -1 0 0 0 0];


internalField   nonuniform List<vector> 
6400
(
(4.84680902015e-05 6.55659901394e-05 0)
(0.000131836440332 4.98056857948e-05 0)
(0.000192682289616 4.05743269006e-05 0)
(0.000259011082981 3.66647321941e-05 0)
(0.000308771281361 2.52744395209e-05 0)
(0.000346027757177 1.63477555466e-05 0)
(0.00036830161068 1.31717914077e-05 0)
(0.000387897982551 1.86086748509e-05 0)
(0.000435512394502 2.56182296311e-05 0)
(0.000485025132559 2.55061295823e-05 0)
(0.000511144064918 2.36801413833e-05 0)
(0.000558258187774 2.55907955161e-05 0)
(0.000603259054456 2.49205381641e-05 0)
(0.000643079807742 2.27812833251e-05 0)
(0.000676882960905 2.21101933347e-05 0)
(0.000713244536076 2.4462668223e-05 0)
(0.000756824631729 2.56746170779e-05 0)
(0.000797579156379 2.45265435403e-05 0)
(0.000832647376142 2.25616673381e-05 0)
(0.000867920946326 2.22743693431e-05 0)
(0.000910803348598 2.66618558075e-05 0)
(0.000961397520809 3.12479104829e-05 0)
(0.00101509687087 3.2657135204e-05 0)
(0.00106645889307 3.25761988163e-05 0)
(0.00111656062594 3.16614391203e-05 0)
(0.00116623717032 3.05582208936e-05 0)
(0.00121694170569 3.05441820142e-05 0)
(0.00126672356091 3.0268172978e-05 0)
(0.00131386843031 2.94151193867e-05 0)
(0.00135870607934 2.87842943818e-05 0)
(0.00140128233489 2.91258057947e-05 0)
(0.00144564507883 2.91813484685e-05 0)
(0.00149164907854 2.87293024071e-05 0)
(0.00153644815475 2.97127622753e-05 0)
(0.00158189221385 3.05241568181e-05 0)
(0.00163317640625 3.12848191589e-05 0)
(0.00168327988536 3.24541285775e-05 0)
(0.00172338006764 3.20083933321e-05 0)
(0.00177204099169 3.09710230095e-05 0)
(0.00182705417186 3.10277818641e-05 0)
(0.00187596138392 3.35942872282e-05 0)
(0.00191532205142 3.3201634028e-05 0)
(0.0019515336274 2.7449553488e-05 0)
(0.00198563935722 2.34153108483e-05 0)
(0.00201503163973 2.16942233225e-05 0)
(0.002040837985 1.98001112568e-05 0)
(0.00206263228511 1.78096497231e-05 0)
(0.00207920456427 1.51404840379e-05 0)
(0.00209073809256 1.26109706293e-05 0)
(0.00209737632922 1.29113589979e-05 0)
(0.00210311915657 1.652270152e-05 0)
(0.00211719700782 1.57858779365e-05 0)
(0.00211841665663 4.22169410513e-06 0)
(0.00211395992562 -1.74878667493e-06 0)
(0.00209165945545 -7.12004863295e-06 0)
(0.00203208838783 -1.82300749952e-05 0)
(0.0019690069696 -1.57827379646e-05 0)
(0.00193905769381 -6.75687172805e-06 0)
(0.00192640290258 -1.02272212556e-05 0)
(0.00185666239252 -1.31068164269e-05 0)
(0.00181613833448 2.80153945717e-06 0)
(0.00175823586848 -5.50389548198e-06 0)
(0.00190998109461 -5.7950897019e-05 0)
(0.001658323449 -9.54314575877e-05 0)
(0.00132581031494 -7.38717912794e-05 0)
(0.00119373086901 -4.91030401068e-05 0)
(0.00111557848555 -4.74162229442e-05 0)
(0.00105520996524 -4.67829009568e-05 0)
(0.000991865941293 -4.79049676086e-05 0)
(0.000900751379669 -5.08333291632e-05 0)
(0.000804262015314 -5.20380390983e-05 0)
(0.000692931258481 -5.06716596786e-05 0)
(0.000585536533368 -5.05771132361e-05 0)
(0.000512206074994 -5.46177103844e-05 0)
(0.000380469183351 -4.37287186789e-05 0)
(0.000329012848826 -3.85205967748e-05 0)
(0.000215592061272 -2.37838366537e-05 0)
(0.000220735928487 -3.25648500098e-05 0)
(9.45656201481e-05 -2.28805771443e-05 0)
(7.04251785162e-05 -4.22634442538e-05 0)
(1.85979097904e-05 9.19000662557e-05 0)
(7.97796138869e-05 0.000102539143588 0)
(0.00013888199423 9.27079159096e-05 0)
(0.000177876757632 7.49121904517e-05 0)
(0.000256451979347 7.40519198312e-05 0)
(0.000327852197568 5.42336752265e-05 0)
(0.000371805579498 3.7784158917e-05 0)
(0.000405357456555 4.90750109511e-05 0)
(0.000442302523613 6.26712334734e-05 0)
(0.000483591832235 6.28672959832e-05 0)
(0.000524019456694 6.06549603277e-05 0)
(0.000562722595244 6.0809282585e-05 0)
(0.000600589088681 5.76509799988e-05 0)
(0.00063712839916 5.32725897246e-05 0)
(0.000675048853453 5.26911307984e-05 0)
(0.00071412642336 6.1411964744e-05 0)
(0.000755034828095 6.61008439708e-05 0)
(0.000792222367379 5.62313544625e-05 0)
(0.000809822965264 4.88298684777e-05 0)
(0.000849432611018 5.19391037613e-05 0)
(0.00089963670659 6.44988089222e-05 0)
(0.000954819488602 7.86537754294e-05 0)
(0.0010142177857 8.19493985558e-05 0)
(0.00106832082689 7.73145922588e-05 0)
(0.00111074129126 7.37340214742e-05 0)
(0.00116420089906 7.30036730538e-05 0)
(0.00121674012743 7.16797615054e-05 0)
(0.00126472988004 6.92277190953e-05 0)
(0.00131092514438 6.67380181701e-05 0)
(0.00135647178878 6.50460249802e-05 0)
(0.00140077046982 6.50536271788e-05 0)
(0.00144010415836 6.44182770842e-05 0)
(0.001485821481 6.22259189604e-05 0)
(0.00152976917257 6.52289247825e-05 0)
(0.00157299141887 6.92986482388e-05 0)
(0.00163087407154 6.87522592586e-05 0)
(0.00167749105443 7.02970793468e-05 0)
(0.00171806191781 7.17433924321e-05 0)
(0.00177150154285 6.9748856041e-05 0)
(0.00183515672903 6.60604823531e-05 0)
(0.0018859861956 5.88830117222e-05 0)
(0.00188190959686 4.99983360686e-05 0)
(0.0018954085192 4.47945406581e-05 0)
(0.00193365176482 4.21809300036e-05 0)
(0.00196578130105 3.93043206186e-05 0)
(0.00199873973214 3.5240177704e-05 0)
(0.00203048187967 2.95353862023e-05 0)
(0.00205407203659 2.2469751792e-05 0)
(0.00207844913581 1.49571810688e-05 0)
(0.00209554485925 8.40060596528e-06 0)
(0.00209528618334 4.28303756189e-06 0)
(0.00206680810723 3.97754024418e-07 0)
(0.00204519694795 -5.08147567469e-06 0)
(0.00211263924266 -1.94032105767e-05 0)
(0.00207789215486 -4.63547090626e-05 0)
(0.00203982981889 -6.43745304161e-05 0)
(0.00204461248597 -6.01152139467e-05 0)
(0.00202457409855 -5.07961590019e-05 0)
(0.00199243523639 -5.83508331783e-05 0)
(0.00196589254999 -6.83945140427e-05 0)
(0.00195530881694 -7.49946294963e-05 0)
(0.00172828725895 -8.51505637468e-05 0)
(0.00187369895796 -0.000205958862247 0)
(0.00162776795988 -0.000300583514181 0)
(0.00134065933376 -0.000260879137106 0)
(0.00112722607605 -0.000178853859482 0)
(0.00101854634175 -0.000128599493894 0)
(0.0010056426142 -0.000116833818522 0)
(0.000949499454816 -0.000128485915094 0)
(0.000881334476154 -0.000149099245809 0)
(0.000777797581092 -0.00016027269337 0)
(0.000663552174664 -0.000156570199085 0)
(0.000543947467761 -0.000137122661837 0)
(0.000487095647664 -0.00013338853584 0)
(0.000412884473308 -0.000123745993948 0)
(0.000346781328469 -0.000112265977513 0)
(0.000279991549634 -9.51962114101e-05 0)
(0.000219150226009 -9.717852582e-05 0)
(0.000134855575989 -0.000102640367631 0)
(6.17360213599e-05 -0.000165805939865 0)
(2.65570379633e-05 0.000159080467658 0)
(7.57636219378e-05 0.000171167792665 0)
(0.000117102198146 0.000160093435609 7.22394364273e-29)
(0.000197616753693 0.000161657458061 -6.70076707653e-29)
(0.000273028294677 0.000159796027443 -5.90191570892e-29)
(0.000321167597666 0.000131350404047 5.38017581035e-29)
(0.000357010664424 7.95590041507e-05 -5.39870847365e-29)
(0.000391506117518 8.70329813004e-05 5.2358200006e-29)
(0.000430136031085 0.000104727004621 0)
(0.000473403064942 0.000108228212685 0)
(0.000516561912561 0.000104760140957 0)
(0.000556324907347 0.000100197202542 0)
(0.000593803456941 9.49640228101e-05 0)
(0.000629420722615 9.26493594286e-05 0)
(0.000667336365756 9.42396666089e-05 0)
(0.000706694993105 9.30950529703e-05 0)
(0.000675328391585 8.01417857434e-05 0)
(0.000675372924969 7.28664063317e-05 0)
(0.000714829740241 8.2544626852e-05 0)
(0.000780286778609 0.000108325638403 0)
(0.000891329169961 0.000136293813762 0)
(0.000961871798349 0.000144085086364 0)
(0.00100319048625 0.000138394516692 0)
(0.00105660866651 0.000131850456688 0)
(0.0011120084231 0.000128258784203 0)
(0.00116136416053 0.000126209567991 0)
(0.00120945790995 0.00012264653979 0)
(0.00125765230402 0.000118714853842 0)
(0.00130439452904 0.000115375608598 0)
(0.00134903552445 0.000113134460288 9.94116550855e-29)
(0.00139543145796 0.000111431764998 -9.62400932677e-29)
(0.00143068209373 0.000109729523392 0)
(0.00147425382485 0.000108652548595 0)
(0.00153002545274 0.000110087114703 0)
(0.00155337300201 0.000117998755101 0)
(0.00161192336821 0.000124419691325 0)
(0.00168009873506 0.000123028860469 0)
(0.00170688240177 0.000123847797044 0)
(0.00176392932979 0.00012792656136 0)
(0.00183119919175 0.000121074159612 0)
(0.00188287026995 9.96766975088e-05 0)
(0.00191944287791 8.19403459735e-05 0)
(0.0019531536771 7.86644164022e-05 0)
(0.00198655954552 7.79742390564e-05 0)
(0.00201620781584 7.38709043674e-05 0)
(0.00204186058405 6.7422744697e-05 0)
(0.00206386015304 5.82152245686e-05 0)
(0.00208217184224 4.75191402738e-05 0)
(0.0020969747251 3.53638113278e-05 0)
(0.00210781387369 2.0509624216e-05 0)
(0.00211419893609 5.23284766138e-06 0)
(0.00211621441966 -3.15513835104e-06 0)
(0.00211419760821 -3.05650291387e-06 0)
(0.00209454797745 -2.304987792e-05 0)
(0.00205898698716 -5.60794727419e-05 0)
(0.00205584880738 -7.00977129464e-05 0)
(0.00204555988882 -7.17358291827e-05 0)
(0.0020177292081 -7.53080698807e-05 0)
(0.00198260305904 -8.4144013613e-05 0)
(0.00194533662169 -0.000101464508059 0)
(0.00188730167406 -0.000144687695834 0)
(0.00182093744175 -0.000204872435606 0)
(0.00177894623498 -0.000400383381004 0)
(0.00145325508426 -0.000507975712162 0)
(0.00113686827229 -0.000388357177255 0)
(0.00105088410718 -0.000279187951162 0)
(0.00101045365122 -0.000214832520515 0)
(0.000940346100994 -0.000190500108622 0)
(0.000870994459037 -0.00020885737196 0)
(0.000790052395654 -0.000238374879475 0)
(0.000691681808175 -0.000248481563256 0)
(0.000601643764318 -0.000234065420604 0)
(0.00054523264434 -0.000215809549542 0)
(0.000488498355005 -0.000209501706602 0)
(0.000411922949747 -0.000203319956725 0)
(0.000333027263773 -0.000186607821328 0)
(0.000259340107042 -0.000166830646769 0)
(0.00019782620595 -0.000177881211965 0)
(0.000136085972232 -0.000229644061143 0)
(3.47364669303e-05 -0.00022764169041 0)
(2.49720482001e-05 0.000233736095679 0)
(3.63971201547e-05 0.000161020478226 0)
(9.37189614856e-05 0.000238968132475 0)
(0.000168008124801 0.00023874728451 0)
(0.000235124115492 0.000206133532807 0)
(0.000142289492053 8.64646269148e-05 0)
(0.000180302965738 9.08901788016e-05 0)
(0.000329491256241 0.000161069529865 0)
(0.000401703291121 0.000169214414751 0)
(0.000453879892379 0.00015850298628 0)
(0.000502965252436 0.000150253477297 0)
(0.000546148754416 0.000140732971461 0)
(0.000584795528296 0.000132550590625 0)
(0.000615883993043 0.000120878809704 0)
(0.000605061222234 0.000101007575408 0)
(0.000593991263757 8.67362460937e-05 0)
(0.000611117162593 8.82247675179e-05 0)
(0.000664270146044 0.000114312774593 0)
(0.000761034622472 0.000157977985351 0)
(0.000853034850091 0.000197838868022 0)
(0.000900131018101 0.000206664921678 0)
(0.000949102532522 0.000198869626531 0)
(0.00100251427054 0.000191175113253 0)
(0.00105354004815 0.000185307138779 0)
(0.00110277602844 0.000179483767714 0)
(0.00115077627445 0.000174208056484 0)
(0.00119800536667 0.000169799098258 0)
(0.00124811889342 0.000165656654239 0)
(0.00129275882435 0.000161189416649 0)
(0.00134208128676 0.000158118645707 0)
(0.00137931560783 0.00015467232754 0)
(0.00142840424017 0.000151918285964 0)
(0.00145502240771 0.000147422969483 0)
(0.00150440063586 0.000153660724317 0)
(0.00157191827232 0.000167288684547 0)
(0.001602199022 0.000176412304752 0)
(0.00166886432012 0.000179748367869 0)
(0.00173712233803 0.000180822793981 0)
(0.00178698188197 0.00018106654342 0)
(0.00183326276307 0.000169005822752 0)
(0.00187785489921 0.000145680894364 0)
(0.00191776276573 0.000124766344418 0)
(0.00195425841752 0.000113948202671 0)
(0.00198795336936 0.00010752689773 0)
(0.00201761976844 9.98055153873e-05 0)
(0.00204326121705 8.97176347702e-05 -8.83665201484e-29)
(0.00206516438314 7.73055156228e-05 8.89712672959e-29)
(0.00208333205861 6.30549238621e-05 0)
(0.00209773978231 4.70433153794e-05 0)
(0.00210809685337 2.93401434392e-05 0)
(0.00211383189729 1.18476850412e-05 0)
(0.00211380571647 -3.25651034018e-06 0)
(0.00210647880583 -1.98357687412e-05 0)
(0.00209008694057 -4.5325512412e-05 0)
(0.00207033654022 -6.9746845926e-05 0)
(0.00205316790011 -8.47095618332e-05 0)
(0.00203153684651 -9.71538495772e-05 0)
(0.00199871837862 -0.000110966772803 -1.78183994574e-28)
(0.00195416356586 -0.000130387994456 2.08424132649e-28)
(0.00189409990138 -0.000165123092692 0)
(0.00180633232562 -0.000230210112955 0)
(0.00168624201873 -0.000353391203476 0)
(0.00153711983894 -0.000572499200925 0)
(0.00137371835174 -0.000703070101867 0)
(0.00120751016272 -0.000580955299695 0)
(0.000996697858888 -0.0003635842771 0)
(0.000909904093549 -0.000278200880107 0)
(0.000851978438558 -0.000263754256481 0)
(0.000791300015999 -0.000285345864195 0)
(0.000737255539236 -0.000324824409579 0)
(0.000666060876857 -0.000338132524332 0)
(0.000592297710041 -0.000317944908602 0)
(0.00051624704366 -0.000294639136903 0)
(0.000417726388064 -0.000274837870568 0)
(0.000344034314955 -0.000269646676921 0)
(0.000275320772848 -0.000266732017077 0)
(0.000199073939979 -0.000244275383066 0)
(0.000116207468948 -0.000200988525212 0)
(8.46392534098e-05 -0.000256599835513 0)
(2.81594450338e-05 -0.000296651942511 0)
(1.81424107488e-06 0.000234601375984 0)
(1.86572850896e-05 0.000195268216111 0)
(8.19377605748e-05 0.000308613936473 0)
(0.000140882676647 0.000288568123865 0)
(0.000156221162958 0.000198742065715 0)
(0.000127603617865 0.000117059754691 0)
(0.000218643520062 0.000188143457217 0)
(0.000324470726812 0.000255181815442 0)
(0.000371666170232 0.000235161414679 0)
(0.000428194961832 0.000213767522091 0)
(0.000480838927707 0.000202488935257 0)
(0.000526878747939 0.000186584493309 0)
(0.000543852376675 0.000152885297999 0)
(0.000517521297605 0.000113867614707 0)
(0.000538824270034 0.000105349875944 0)
(0.000584595358011 0.000119726720907 0)
(0.000655102594104 0.000153358050629 0)
(0.00073825270514 0.00020015017352 0)
(0.000802942104393 0.000235575519196 0)
(0.000838638990498 0.000246060167502 0)
(0.000886284321978 0.000251362494755 0)
(0.000941013963676 0.000251688311483 0)
(0.00099161575867 0.000244621850518 0)
(0.00104142016494 0.000235795767465 0)
(0.00108971634506 0.000228056168241 0)
(0.00113638744188 0.00022247713905 0)
(0.00118686920533 0.000217922537203 0)
(0.00122999592351 0.000212277023003 0)
(0.00128352057444 0.00020793816818 0)
(0.0013190438118 0.000201504626608 0)
(0.00137461038611 0.000198578720596 9.53295164511e-29)
(0.00138960828243 0.000191208261213 -9.05512348934e-29)
(0.00145335248283 0.000195977307964 0)
(0.00151660959361 0.000205605201993 0)
(0.00155288975189 0.000218139650126 0)
(0.00162640769545 0.000235921891781 0)
(0.00168537319352 0.000243490789867 0)
(0.00173816531128 0.000237703113386 0)
(0.00178638409941 0.000226920149392 0)
(0.00183191181636 0.000210998318766 0)
(0.0018761047838 0.000188867020077 0)
(0.00191752775762 0.000167113871187 0)
(0.00195551021624 0.000151334940536 0)
(0.00198977510271 0.000139397311699 0)
(0.00201979657634 0.000127298302772 0)
(0.00204568796294 0.000113376142326 0)
(0.00206765009344 9.73275245388e-05 0)
(0.00208565287765 7.93009263489e-05 0)
(0.00209950364482 5.93205825271e-05 0)
(0.00210880772454 3.75751250835e-05 0)
(0.00211288858344 1.5050225316e-05 0)
(0.00211059417984 -7.67239710702e-06 0)
(0.00210075254803 -3.25376814677e-05 0)
(0.00208344327253 -6.09024558574e-05 0)
(0.00206220449852 -8.7373615685e-05 0)
(0.00203894335704 -0.000109272595262 0)
(0.00200820026327 -0.000131570935349 0)
(0.00196295622769 -0.000159506046384 0)
(0.0018976672668 -0.000199785818055 0)
(0.00180517763132 -0.000264081156937 0)
(0.00167928332727 -0.000366386613725 0)
(0.00153191763216 -0.000517009358902 0)
(0.00137549759086 -0.000702430522168 0)
(0.00130164679933 -0.000821060862429 0)
(0.00119842381372 -0.000729320485577 0)
(0.00100820473914 -0.000515993013347 0)
(0.000886218402772 -0.00039570240899 0)
(0.000788850006657 -0.000348682807659 0)
(0.000712742620581 -0.000352068891931 0)
(0.000658383015287 -0.000384777017304 0)
(0.000606967906816 -0.000410158907711 0)
(0.000533757709825 -0.000398878519501 0)
(0.000431866472734 -0.000361550763495 0)
(0.00035996450086 -0.000350258665261 0)
(0.000291484144257 -0.00035196144766 0)
(0.000220789575579 -0.000346796741256 0)
(0.000149435872101 -0.000294862326471 0)
(9.61655761587e-05 -0.000257314734548 0)
(6.13123272987e-05 -0.000320909935149 0)
(1.55960812813e-05 -0.000332262952396 0)
(-1.19206886306e-06 0.000219474606438 0)
(2.15730273322e-05 0.000235402575717 0)
(8.02097287176e-05 0.000350286488123 0)
(0.000114678655431 0.000301464255881 0)
(8.9243792752e-05 0.000158445944754 0)
(0.000125286856792 0.000165424755845 0)
(0.000259249025819 0.000292904657475 0)
(0.000304072674607 0.000306340484177 0)
(0.000346510195699 0.000287211913868 0)
(0.000397729629148 0.00027018716811 0)
(0.000450369010357 0.000245113346175 0)
(0.000437019969729 0.000188397654681 0)
(0.000410374596449 0.000134049692899 0)
(0.000449119574353 0.000130353382464 0)
(0.000501327395442 0.000152222997945 0)
(0.0005887391948 0.000194760418664 0)
(0.000677399627117 0.000237485239201 0)
(0.000741488842427 0.000263291204057 0)
(0.000769311693705 0.000271358277057 0)
(0.000820093360838 0.000289736661505 0)
(0.00087755700158 0.000304502107076 0)
(0.000927022764677 0.000303482277696 0)
(0.000975776395917 0.000295272210851 0)
(0.00102385849745 0.000285724922433 0)
(0.00107525223807 0.000277883351274 0)
(0.00112191626704 0.000269354550236 0)
(0.00115876795424 0.000263685782635 0)
(0.00122016503618 0.000261382390333 0)
(0.00124841669377 0.000250683384617 0)
(0.00131390387942 0.000245505151932 0)
(0.0013174396842 0.000233290829739 0)
(0.0013937349344 0.000241375438318 0)
(0.00140805251229 0.000244011321534 0)
(0.00149210744204 0.000263152347872 0)
(0.00157408539615 0.000285974088766 0)
(0.00163430800907 0.000299788841468 0)
(0.00168671528871 0.000297843621193 0)
(0.00173660784174 0.000287521974261 0)
(0.00178443350949 0.00027321265434 0)
(0.00183066582358 0.00025496994084 0)
(0.00187536219033 0.000232499166697 0)
(0.00191770162445 0.000209363044936 0)
(0.00195674698687 0.000189374797727 0)
(0.00199177090202 0.00017217362149 0)
(0.00202243126727 0.000155325765539 0)
(0.00204877225105 0.000137201262754 0)
(0.00207092136094 0.000117169854527 0)
(0.00208871703918 9.50294123474e-05 0)
(0.00210175880983 7.06342714612e-05 0)
(0.0021095201166 4.40275123819e-05 0)
(0.00211128601424 1.5603479398e-05 0)
(0.00210608867034 -1.44732297576e-05 0)
(0.00209322463487 -4.66029700017e-05 0)
(0.0020731541494 -7.99766799991e-05 0)
(0.00204740454548 -0.000112000991588 0)
(0.00201494209546 -0.000143654738532 0)
(0.00196970177251 -0.000180773607092 0)
(0.00190423568012 -0.000230051331291 0)
(0.00181301719095 -0.000298780765059 0)
(0.00169236275754 -0.000393658635142 0)
(0.00154956108618 -0.000518014243085 0)
(0.00140612042047 -0.000661704898906 0)
(0.00122133418914 -0.000770173463378 0)
(0.00124413065308 -0.000938647423319 0)
(0.00106347309226 -0.000824486024625 0)
(0.000906732275465 -0.000619693437531 0)
(0.000815731368982 -0.000508173712068 0)
(0.000718291169917 -0.000441360997082 0)
(0.000632617120958 -0.000417786571228 0)
(0.000587692301476 -0.000451225230162 0)
(0.000540084993253 -0.000488432599369 0)
(0.000449282340291 -0.000457648017277 0)
(0.00037354065799 -0.000428177339154 0)
(0.000312771468171 -0.000428255328656 0)
(0.000240328449921 -0.000427822651423 0)
(0.000180679750358 -0.000412263668003 0)
(0.000119656477899 -0.000334414333262 0)
(7.65447911557e-05 -0.000301938922346 0)
(4.57675013529e-05 -0.000360125962046 0)
(1.27675570718e-05 -0.000359378156839 0)
(6.76394349706e-06 0.000237127533172 0)
(4.64940457893e-05 0.000301471170764 0)
(0.000100617609734 0.000378736117698 0)
(0.000112496996963 0.000360420760381 0)
(8.10405306747e-05 0.000199187501214 0)
(0.000171649889334 0.000281804195411 0)
(0.000256015399539 0.000351126014725 0)
(0.000283407865572 0.000344316871516 0)
(0.000322934297884 0.000328776402582 0)
(0.00035533535167 0.000310585511852 0)
(0.000416563354289 0.000276242906175 -2.46379659591e-28)
(0.000341317785379 0.000167119087261 1.55720391716e-28)
(0.000392249395929 0.000163751078533 0)
(0.00042947797669 0.000181388628832 0)
(0.000508710278578 0.000229681086952 0)
(0.000604867440499 0.000286680859868 0)
(0.000670998789535 0.00030716677953 0)
(0.000688516848055 0.000297415924127 0)
(0.000742943034555 0.000317009596295 0)
(0.000809207853212 0.000346781941582 0)
(0.000857876289663 0.000356179611945 0)
(0.000907802172581 0.000353431084358 0)
(0.000957770489051 0.000345861859141 0)
(0.00100697986516 0.000335178700143 0)
(0.00105023442607 0.000322504462921 0)
(0.00108894150141 0.000311874199271 0)
(0.00114758358126 0.000309970857668 0)
(0.00116760534621 0.000302953617511 0)
(0.00124402498852 0.000298754392975 0)
(0.00124113987446 0.000273876586837 0)
(0.00132371883069 0.000281749912022 0)
(0.00134134131154 0.00028795841627 -8.88678959815e-29)
(0.00142443937288 0.000308237215325 9.06912245154e-29)
(0.00149058623022 0.000336004760628 0)
(0.00157730731026 0.000358540435269 0)
(0.0016336983172 0.00035890496207 0)
(0.00168363429379 0.000349545932387 0)
(0.00173313220085 0.000336357934906 0)
(0.00178208962344 0.000320157382018 0)
(0.0018296028466 0.000300330713005 0)
(0.00187517661339 0.000276818417811 0)
(0.0019184134344 0.000251844706886 0)
(0.00195841267088 0.000228068135875 0)
(0.00199432195613 0.000205942048334 0)
(0.00202577366808 0.000184195329286 0)
(0.00205273091322 0.000161499429414 0)
(0.00207513594792 0.000137007396915 0)
(0.00209260600738 0.000110177863426 0)
(0.00210454043363 8.06372969845e-05 0)
(0.00211030912789 4.82503397632e-05 0)
(0.0021091950453 1.31475611529e-05 0)
(0.00210038008838 -2.44414501473e-05 0)
(0.00208333893715 -6.40913925617e-05 0)
(0.00205808106657 -0.000104850598658 0)
(0.00202420033059 -0.000146562888679 0)
(0.00197849307647 -0.000192806929367 0)
(0.00191441251666 -0.000250201116283 0)
(0.00182620480199 -0.000324276320912 0)
(0.00171414337657 -0.000417464362191 0)
(0.00158782415965 -0.000528994242097 0)
(0.00145932152024 -0.000653912560793 0)
(0.00133766080985 -0.000781615957078 0)
(0.00123840073704 -0.000907764695233 0)
(0.00117715108944 -0.00103453060213 0)
(0.00101591999981 -0.000952544241071 0)
(0.000791969020392 -0.000700253011895 0)
(0.000734150893228 -0.000602777120839 0)
(0.000656566347058 -0.000541087581512 0)
(0.000576032331675 -0.0005070249049 0)
(0.000520698994719 -0.000526041762141 0)
(0.000463547234609 -0.000540895677711 0)
(0.000389848775693 -0.000508291139103 0)
(0.000334645829899 -0.000502145533844 0)
(0.000265986937964 -0.00050283541893 0)
(0.000199550196598 -0.000497602211911 0)
(0.000144753465197 -0.000447232019394 0)
(0.000100028763111 -0.000386870416955 0)
(5.2297310916e-05 -0.000341904890661 0)
(2.69264982332e-05 -0.000383421013635 0)
(9.23713787593e-06 -0.000388315720541 0)
(1.432247478e-05 0.000273574523613 0)
(6.34214341219e-05 0.000361143014807 0)
(0.000109014983918 0.000392827998885 0)
(7.11199730945e-05 0.000252086845854 0)
(8.22526247284e-05 0.000244226154304 0)
(0.000189232721876 0.000376358614908 0)
(0.000229057840158 0.000387028299353 0)
(0.000264218126112 0.000380733103915 0)
(0.000288074229802 0.000359710628617 0)
(0.000330252603319 0.000342963384199 0)
(0.000281766745659 0.000225152771179 0)
(0.000322156432182 0.000196765515097 0)
(0.000369674010295 0.000207509178136 0)
(0.000416462259637 0.000241669041262 0)
(0.000523357832003 0.00031948084451 0)
(0.000596761064657 0.000355043715291 0)
(0.000608392034747 0.0003349351706 0)
(0.000655256760746 0.000343197554738 0)
(0.000729331245795 0.000380583219757 0)
(0.000786629793876 0.000402219957836 0)
(0.00083338902168 0.000405522186164 0)
(0.000881013988936 0.000402057516864 0)
(0.00093350849515 0.000397076845421 0)
(0.000982117777608 0.000385319712545 0)
(0.00103356932142 0.000368024024456 0)
(0.0010602515143 0.000357391785687 0)
(0.00112773715835 0.000356509079446 0)
(0.00115741872032 0.000344644226934 0)
(0.00117876186669 0.000329134281783 0)
(0.00123206774166 0.000327174700135 0)
(0.00132369854209 0.000341187447393 0)
(0.00134952584868 0.000342860889556 0)
(0.00140170757979 0.000373064741024 0)
(0.00151136209876 0.000415210982095 0)
(0.00157190791386 0.000425005418812 0)
(0.00162600051025 0.00041513830464 0)
(0.00167800740847 0.000401334586874 0)
(0.00172892562414 0.000386230231225 0)
(0.00177935266097 0.000368603193309 0)
(0.00182845734803 0.000347252223102 0)
(0.00187535042407 0.000322158450179 0)
(0.00191964337809 0.000294919037449 0)
(0.00196070084804 0.000267507621752 0)
(0.00199768992002 0.000240697657355 0)
(0.00203013086405 0.00021397596798 -8.53671734837e-29)
(0.0020578496035 0.000186343406459 8.5145358111e-29)
(0.00208054226717 0.000156806024142 0)
(0.00209756295579 0.000124530832534 0)
(0.00210812223187 8.89482996761e-05 0)
(0.00211149561728 4.98050198388e-05 0)
(0.00210692262462 7.12755479478e-06 0)
(0.00209358671708 -3.8799841409e-05 0)
(0.00207080677925 -8.74755641713e-05 0)
(0.00203775413735 -0.000138769103037 0)
(0.00199232275052 -0.000194584984738 0)
(0.00193005939037 -0.000259891065149 0)
(0.0018455483716 -0.000340058953674 0)
(0.00173852817797 -0.00043507492895 0)
(0.00161955086944 -0.000540260401665 0)
(0.00150320257569 -0.000652031580626 0)
(0.00139489835487 -0.000766218020797 0)
(0.00129796612125 -0.000879756957777 0)
(0.00121701729115 -0.000994005083653 0)
(0.00113546340571 -0.00110815106042 0)
(0.00112896154054 -0.00120072576348 0)
(0.000783664512508 -0.000854551235921 0)
(0.000632468843828 -0.000691104398996 0)
(0.000559141847478 -0.000618210408068 0)
(0.000485908084764 -0.000571259537365 0)
(0.00044127699039 -0.000572841772598 0)
(0.000401469727347 -0.00057483770101 0)
(0.00035199204677 -0.000564518406349 0)
(0.00029587496024 -0.000573808185008 0)
(0.000225071067617 -0.00057505141524 0)
(0.000163707982383 -0.000554404651312 0)
(0.000110987687112 -0.000488763963131 0)
(6.79056817259e-05 -0.000438798148225 0)
(2.19091605533e-05 -0.000388385845992 0)
(-1.34949415736e-06 -0.000396144760757 0)
(-1.80874152415e-06 -0.000405088525879 0)
(1.93712536413e-05 0.000318022065018 0)
(6.89942475716e-05 0.000406609446208 0)
(8.72326490703e-05 0.000403788817089 0)
(6.49018484961e-05 0.000274518220056 0)
(0.000109968936168 0.000314984668504 0)
(0.000186695480583 0.000419595013296 0)
(0.000203446631763 0.000419696440284 0)
(0.000245486506492 0.000413773874244 0)
(0.000242226999836 0.000362227633597 0)
(0.000310206210062 0.000384675847863 0)
(0.000258432453059 0.000250041158616 0)
(0.000311037778707 0.000240818103679 0)
(0.000351016018697 0.000257692671749 0)
(0.000426199383601 0.000324354322779 0)
(0.000514840838467 0.00039630549757 0)
(0.00056575665167 0.000402553354249 0)
(0.000575705918825 0.000376575578765 0)
(0.000636626640347 0.000404040537529 0)
(0.000703256737687 0.000440793258458 0)
(0.000756648383911 0.000455152916191 0)
(0.000807328166556 0.000455736996848 0)
(0.000852466111723 0.00044970601747 0)
(0.00090299127061 0.000444435092364 0)
(0.000941856766242 0.000430576037107 0)
(0.000977926524115 0.000405403719057 0)
(0.00104770417005 0.00040411808885 0)
(0.0010487425204 0.000390721096917 0)
(0.00115342588285 0.000395952091464 0)
(0.00115218425435 0.000379428208201 0)
(0.00125413699584 0.000395831440968 0)
(0.00125665543397 0.00038418510204 0)
(0.00136467815198 0.000413431866195 0)
(0.00143613932417 0.0004543414716 -9.50878124419e-29)
(0.00150348045053 0.000483361258945 9.54166756771e-29)
(0.00156146150284 0.000483308974644 0)
(0.00161661394055 0.000470679293323 0)
(0.00167100710318 0.000455013375114 0)
(0.00172405734709 0.000438113673512 0)
(0.00177619051366 0.000418892166491 0)
(0.00182700159904 0.00039590315688 0)
(0.00187561018389 0.000368875200913 0)
(0.00192140245167 0.000339020411548 0)
(0.00196379034621 0.000307961264058 0)
(0.00200209539668 0.000276587030898 0)
(0.00203580315154 0.000244796726116 0)
(0.00206447583673 0.000211812762705 0)
(0.00208750197509 0.000176543783502 0)
(0.00210400578698 0.000137937770633 0)
(0.00211303116665 9.52855140819e-05 0)
(0.00211370561402 4.82604336068e-05 0)
(0.00210513581548 -3.20042572111e-06 0)
(0.0020863515252 -5.89821204078e-05 0)
(0.00205627203758 -0.00011907367937 0)
(0.00201310086127 -0.000184503898061 0)
(0.00195352165225 -0.000258444977774 0)
(0.00187318195027 -0.000345257866215 0)
(0.00176957337645 -0.000446432724304 0)
(0.00165027104029 -0.000553218152315 0)
(0.00153452003392 -0.000657652824532 0)
(0.00143210617529 -0.00076223186348 0)
(0.00133709901486 -0.000865185505524 0)
(0.00124544884123 -0.000964333809298 0)
(0.00116649007359 -0.00106552368509 0)
(0.00109958810726 -0.00116728431101 0)
(0.0010872970778 -0.00127118108997 0)
(0.000956038746253 -0.00117892131222 0)
(0.000579026947732 -0.000799778877725 0)
(0.000447380884178 -0.000698163411728 0)
(0.000402600094186 -0.000631004621314 0)
(0.000379284527678 -0.000601382141839 0)
(0.000358452457438 -0.000599936219387 0)
(0.000323702403925 -0.000622076354888 0)
(0.000262935996304 -0.000645858439905 0)
(0.000190458077988 -0.000644620005525 0)
(0.000124752512779 -0.00060621597031 0)
(6.65439983527e-05 -0.000544439387794 0)
(1.51522967106e-05 -0.000486807492218 0)
(-2.3640836705e-05 -0.000432625192444 0)
(-3.52676115138e-05 -0.000400738725339 0)
(-1.59236531833e-05 -0.000388869524744 0)
(2.24551616803e-05 0.000370615803823 0)
(7.36942669775e-05 0.000438302809781 0)
(7.62048198498e-05 0.000400411424125 0)
(6.26380647789e-05 0.000294521356609 0)
(0.000132531669453 0.000410577285879 0)
(0.000161705548655 0.000432345880933 0)