/*--------------------------------*- C++ -*----------------------------------*\
| =========                 |                                                 |
| \\      /  F ield         | OpenFOAM: The Open Source CFD Toolbox           |
|  \\    /   O peration     | Version:  v1806                                 |
|   \\  /    A nd           | Web:      www.OpenFOAM.com                      |
|    \\/     M anipulation  |                                                 |
\*---------------------------------------------------------------------------*/
FoamFile
{
    version     2.0;
    format      ascii;
    class       volVectorField;
    location    "703";
    object      Ua;
}
// * * * * * * * * * * * * * * * * * * * * * * * * * * * * * * * * * * * * * //

dimensions      [0 1 -1 0 0 0 0];


internalField   nonuniform List<vector> 
6400
(
(3.18303329769e-05 4.14996868078e-05 0)
(8.56274220645e-05 3.10174684079e-05 0)
(0.000124576743054 2.50356859756e-05 0)
(0.000166498418085 2.26062038149e-05 0)
(0.000198602962148 1.60629109023e-05 0)
(0.00022332736623 1.11001828483e-05 0)
(0.000239745241115 9.51501783477e-06 0)
(0.000255197536513 1.29621258392e-05 0)
(0.000287285337462 1.72954023677e-05 0)
(0.00032064912769 1.74728847603e-05 0)
(0.00034115258481 1.6565698683e-05 0)
(0.000373690573281 1.77982480927e-05 0)
(0.000405730740917 1.76669478158e-05 0)
(0.000435211404741 1.67639542398e-05 0)
(0.000461866885449 1.67534689472e-05 0)
(0.000490587490369 1.84971148077e-05 0)
(0.000523984783023 1.94980928146e-05 0)
(0.00055631331241 1.90966404347e-05 0)
(0.000586015964685 1.83117130003e-05 0)
(0.000616905795129 1.8664793237e-05 0)
(0.000653317083327 2.17100951547e-05 0)
(0.000694681773197 2.46807309895e-05 0)
(0.000737847650247 2.55807733855e-05 0)
(0.000779624679982 2.55397672067e-05 0)
(0.000820710981664 2.50792639045e-05 0)
(0.000861899134105 2.46081276465e-05 0)
(0.000904061948678 2.47594715527e-05 0)
(0.000945985251439 2.478695779e-05 0)
(0.000986655124857 2.44709055883e-05 0)
(0.00102621675791 2.42948151905e-05 0)
(0.00106470660393 2.46432326525e-05 0)
(0.00110450147736 2.48444454098e-05 0)
(0.00114573789498 2.48006740032e-05 0)
(0.00118672505008 2.56205441828e-05 0)
(0.00122857125105 2.63355161534e-05 0)
(0.00127418446957 2.69394133835e-05 0)
(0.00131885916016 2.76229610901e-05 0)
(0.00135770932291 2.73402623917e-05 0)
(0.00140151446175 2.66360717351e-05 0)
(0.0014490099159 2.64062196461e-05 0)
(0.00149180886495 2.73003875536e-05 0)
(0.00152753700217 2.66495488086e-05 0)
(0.00156089036237 2.33088227732e-05 0)
(0.00159330639043 2.09473364673e-05 0)
(0.00162297496921 1.98642166829e-05 0)
(0.0016501929073 1.86811200261e-05 0)
(0.00167468854998 1.73616918825e-05 0)
(0.00169572028778 1.56254090012e-05 0)
(0.00171331858113 1.38938305069e-05 0)
(0.0017273579475 1.3687995015e-05 0)
(0.00173995524312 1.52968704801e-05 0)
(0.00175578866413 1.46149622459e-05 0)
(0.00176515089278 8.36708009308e-06 0)
(0.00177133799291 4.7705332923e-06 0)
(0.00176552408885 1.32591805136e-06 0)
(0.00173763982657 -4.95543684397e-06 0)
(0.00170786741812 -3.76002584753e-06 0)
(0.00169752766544 1.20671921408e-06 0)
(0.00169431409268 -4.3388689139e-07 0)
(0.00166100900012 -1.85843356418e-06 0)
(0.00163760949112 5.95977793786e-06 0)
(0.0016150722305 2.08832923187e-06 0)
(0.00169433215734 -2.53403351631e-05 0)
(0.0016114217911 -6.37458408999e-05 0)
(0.00132254667102 -6.34111862499e-05 0)
(0.00117520360915 -4.61784916578e-05 0)
(0.00109659883759 -4.60528849908e-05 0)
(0.00103567392297 -4.63740066714e-05 0)
(0.000971026930017 -4.84327911502e-05 0)
(0.000876747600397 -5.20996137621e-05 0)
(0.000776134585235 -5.36621118847e-05 0)
(0.000660675010948 -5.19501274011e-05 0)
(0.000551414157184 -5.09252195715e-05 0)
(0.000477584200457 -5.36826156703e-05 0)
(0.000349831975525 -4.19742999114e-05 0)
(0.000300336521285 -3.62593607103e-05 0)
(0.000194958039747 -2.20689332211e-05 0)
(0.000199155979422 -2.97452425346e-05 0)
(8.47393995128e-05 -2.05501276729e-05 0)
(6.30012982485e-05 -3.78901721627e-05 0)
(1.23497189876e-05 5.84145069842e-05 0)
(5.26610906101e-05 6.48803171942e-05 0)
(9.1206441015e-05 5.82090456767e-05 0)
(0.000116955285897 4.74537906466e-05 0)
(0.000167180034732 4.71268074429e-05 0)
(0.000212036738922 3.53725077064e-05 0)
(0.00024069148344 2.63010919989e-05 0)
(0.000263948187212 3.38831176093e-05 0)
(0.000289785740506 4.26091508109e-05 0)
(0.00031856303329 4.33794084938e-05 0)
(0.00034708822432 4.25403955069e-05 0)
(0.000374984215246 4.30639261112e-05 0)
(0.000402898458181 4.19430744602e-05 0)
(0.00043053618569 4.0302350003e-05 0)
(0.000459550215201 4.10161078468e-05 0)
(0.000489864401425 4.70720030908e-05 0)
(0.000521790876474 5.08250618281e-05 0)
(0.0005521031459 4.62034694601e-05 0)
(0.000572045859499 4.28090285249e-05 0)
(0.000605670832985 4.58811369129e-05 0)
(0.000646554465666 5.43248329163e-05 0)
(0.000690412483913 6.31009676563e-05 0)
(0.00073649962768 6.51708802143e-05 0)
(0.000779605877054 6.26109312282e-05 0)
(0.000816443130476 6.07217685218e-05 0)
(0.00085967748741 6.06733665814e-05 0)
(0.000902891365229 6.0402547871e-05 0)
(0.000943835240133 5.94863896887e-05 0)
(0.000984016576483 5.85261030251e-05 0)
(0.00102410533287 5.80316824213e-05 0)
(0.00106361782006 5.84655429258e-05 0)
(0.00110069748258 5.85073644507e-05 0)
(0.00114187010056 5.78271181646e-05 0)
(0.0011825620906 6.01745172479e-05 0)
(0.00122336194869 6.31198818842e-05 0)
(0.00127262008439 6.328062719e-05 0)
(0.00131563451397 6.4081620661e-05 0)
(0.00135468168687 6.45894599894e-05 0)
(0.00140110834627 6.30991001018e-05 0)
(0.00145347223715 6.03152486112e-05 0)
(0.00149733073677 5.52035296409e-05 0)
(0.00151074160019 4.8991844078e-05 0)
(0.00153193955015 4.5111979523e-05 0)
(0.00156693205911 4.30300484956e-05 0)
(0.00159831789783 4.08312636019e-05 0)
(0.00162929362976 3.78871511962e-05 0)
(0.00165888076744 3.39400418441e-05 0)
(0.00168346920424 2.91342104802e-05 0)
(0.00170783356775 2.40104843483e-05 0)
(0.0017277161269 1.93567829539e-05 0)
(0.00173717539185 1.59656327602e-05 0)
(0.00173001914817 1.27485566513e-05 0)
(0.00172788012944 8.69433098491e-06 0)
(0.00177097634024 -2.7680014965e-07 0)
(0.00175830566813 -1.68614010288e-05 0)
(0.00174110503491 -2.83595559411e-05 0)
(0.00174651794714 -2.66658931466e-05 0)
(0.00173925613224 -2.23485216407e-05 0)
(0.00172407757905 -2.71791623848e-05 0)
(0.00171164330155 -3.32432926117e-05 0)
(0.00169931241824 -3.6600410206e-05 0)
(0.00159893487993 -4.59982195155e-05 0)
(0.00167231118255 -0.000117513297731 0)
(0.00156758998115 -0.000219236943719 0)
(0.0013278001797 -0.000230395389664 0)
(0.0011099853596 -0.00017128377503 0)
(0.00100022205993 -0.000127126819694 0)
(0.000986553310063 -0.000118557824395 0)
(0.000928351515479 -0.000132886848701 0)
(0.000857054556106 -0.000155828780413 0)
(0.000748752241003 -0.000167339921565 0)
(0.000630426429088 -0.000161327006028 0)
(0.000509265297397 -0.000138311469408 0)
(0.000451676980505 -0.00013161220143 0)
(0.000378856999191 -0.000119430699055 0)
(0.000315510011674 -0.000106152076749 0)
(0.000252828956974 -8.8545677057e-05 0)
(0.000196795997677 -8.86836295562e-05 0)
(0.00012058895645 -9.23267582541e-05 0)
(5.5299071415e-05 -0.000148634258915 0)
(1.69149166745e-05 0.000101003339805 0)
(4.91403064295e-05 0.000107987298708 0)
(7.65706727477e-05 0.000100628575473 7.17986924473e-29)
(0.000127090552642 0.00010108225897 -6.58070277987e-29)
(0.000174168176724 9.98911614744e-05 -5.7289900831e-29)
(0.000205681702456 8.3361939758e-05 5.19942621491e-29)
(0.000230400162063 5.39978349677e-05 -5.18614058011e-29)
(0.000254226846263 5.9645217361e-05 4.9873510385e-29)
(0.00028093157126 7.13765895336e-05 0)
(0.00031074644783 7.43288896267e-05 0)
(0.000340792802637 7.3097950686e-05 0)
(0.000369217391681 7.1303242497e-05 0)
(0.000396731667114 6.94330757389e-05 0)
(0.000423723362148 6.95191345056e-05 0)
(0.000453000070207 7.2511122919e-05 0)
(0.000483682781521 7.41695131945e-05 0)
(0.000473897150973 6.75975974049e-05 0)
(0.000481397592358 6.42052202298e-05 0)
(0.000514418577552 7.17977884635e-05 0)
(0.000564561117515 8.92654461689e-05 0)
(0.000640917427895 0.000107535062666 0)
(0.000692795816712 0.000112735279876 0)
(0.000728374398272 0.000109669992177 0)
(0.000770895315624 0.000106208300572 0)
(0.000814957862526 0.000104654755568 0)
(0.000855978941584 0.000104150046981 0)
(0.000896692528699 0.00010295955278 0)
(0.000937829188996 0.000101561134176 0)
(0.000978441365775 0.00010048873569 0)
(0.00101820869369 9.99963608631e-05 8.91945646598e-29)
(0.00105900304976 9.98325878299e-05 -8.61779630717e-29)
(0.00109386455564 9.95363671708e-05 0)
(0.00113418345345 9.99013385586e-05 0)
(0.00118164678788 0.000102058173918 0)
(0.00121186534033 0.000107419507378 0)
(0.00126179406747 0.000111691397878 0)
(0.00131661948716 0.000110990493052 0)
(0.00134869857751 0.000110747880219 0)
(0.00139670646848 0.000112148539607 0)
(0.00145045323317 0.000107154403955 0)
(0.00149458564713 9.3734088445e-05 0)
(0.00152907025042 8.20714464308e-05 0)
(0.00156142157197 7.85776555519e-05 0)
(0.00159367866651 7.70023097571e-05 0)
(0.00162357683425 7.36092861491e-05 0)
(0.00165071950785 6.87758621724e-05 0)
(0.00167528267764 6.23474769507e-05 0)
(0.00169723187052 5.49988091823e-05 0)
(0.00171667849216 4.67612188459e-05 0)
(0.00173323354538 3.69459638709e-05 0)
(0.00174635870712 2.68875478106e-05 0)
(0.00175630249434 2.07678482461e-05 0)
(0.00176399395377 1.8839550756e-05 0)
(0.00176133233239 5.3633475084e-06 0)
(0.00174830990378 -1.58479644843e-05 0)
(0.00175117925729 -2.60599015095e-05 0)
(0.00175046352419 -2.84351580352e-05 0)
(0.00173940437412 -3.1674637959e-05 0)
(0.00172334571149 -3.7905939473e-05 0)
(0.00170488035898 -4.83127984294e-05 0)
(0.00167278513961 -7.03448365082e-05 0)
(0.00164105383466 -0.000108518787499 0)
(0.00160761144511 -0.000241412247629 0)
(0.00140565265883 -0.000379225578565 0)
(0.00113304116119 -0.000343676671121 0)
(0.00103865063213 -0.00026670972285 0)
(0.00099598632438 -0.000212785545255 0)
(0.000923490879727 -0.000194201808823 0)
(0.000850207046562 -0.000216615753886 0)
(0.000764357747625 -0.00024887601257 0)
(0.000660775142845 -0.000258751910285 0)
(0.000566548604773 -0.000241125546508 0)
(0.000507159546729 -0.000218928086858 0)
(0.000449602757643 -0.000207722857667 0)
(0.000375271633133 -0.00019652757014 0)
(0.000300348787326 -0.0001766085096 0)
(0.00023170566807 -0.000154953832898 0)
(0.000175826557106 -0.000161929299919 0)
(0.000120851683973 -0.000206418314081 0)
(3.05832843921e-05 -0.000203056692097 0)
(1.57200532411e-05 0.000146683633764 0)
(2.42241622939e-05 0.000102826733264 0)
(6.06354062591e-05 0.000148930799578 0)
(0.00010643239308 0.000148477233187 0)
(0.000149716990635 0.000130029285877 0)
(9.40905070025e-05 5.76156814562e-05 0)
(0.000120424897033 6.19463681585e-05 0)
(0.000216298009274 0.000107580090457 0)
(0.000261696163573 0.000113190736021 0)
(0.00029662140483 0.000107953199445 0)
(0.000329914227158 0.000104248479149 0)
(0.00036014376475 9.99556866289e-05 0)
(0.000388270933024 9.69755971742e-05 0)
(0.00041264657954 9.29111938792e-05 0)
(0.000413875419063 8.38250508184e-05 0)
(0.000414277484718 7.71135169643e-05 0)
(0.000431807033987 7.96185621071e-05 0)
(0.000472651099493 9.75907052567e-05 0)
(0.000540562098246 0.000126876624881 0)
(0.000604152410208 0.000152585950863 0)
(0.000642392287111 0.000159126540068 0)
(0.00068202666262 0.000155555286329 0)
(0.000724427813633 0.000151760005306 0)
(0.000765795097451 0.000148981425123 0)
(0.000806493419618 0.000146452928145 0)
(0.000846824514203 0.000144482307613 0)
(0.000887166800635 0.000143151015987 0)
(0.000929452111987 0.000142041199189 0)
(0.00096913543489 0.000140646412916 0)
(0.00101150592281 0.000140089032994 0)
(0.0010476173837 0.000139188416857 0)
(0.00109015353016 0.000138841769764 0)
(0.00112123378228 0.000137539317401 0)
(0.00116607835696 0.000142878701946 0)
(0.00122074242873 0.000152240465147 0)
(0.00125540455954 0.000157799314302 0)
(0.00130947948947 0.000159418941633 0)
(0.00136387091173 0.000159112541884 0)
(0.00140800571695 0.000157839574247 0)
(0.00145011176377 0.000149435217031 0)
(0.00149062959658 0.000134299812079 0)
(0.00152753042409 0.00012029502296 0)
(0.00156191636788 0.000112201850453 0)
(0.00159446217552 0.00010697220665 0)
(0.00162436800368 0.000101089331129 0)
(0.00165150365462 9.37738866536e-05 -7.52239815739e-29)
(0.00167601604594 8.5051986555e-05 7.56145871225e-29)
(0.00169790868214 7.52042485259e-05 0)
(0.00171717222657 6.42589575013e-05 0)
(0.00173358718036 5.22500705325e-05 0)
(0.00174674830876 4.0324554158e-05 0)
(0.0017560931133 2.97707592748e-05 0)
(0.0017608957176 1.80743829851e-05 0)
(0.00175979673765 7.35533669568e-07 0)
(0.00175583043518 -1.65582483886e-05 0)
(0.00175298579468 -2.80631412234e-05 0)
(0.00174734928615 -3.72125639997e-05 0)
(0.00173464814375 -4.68805024889e-05 -1.44070719814e-28)
(0.0017145380945 -5.95951474872e-05 1.66857779667e-28)
(0.00168461107933 -8.0642179171e-05 0)
(0.00163681547478 -0.000120807177514 0)
(0.00156559010203 -0.000209344631427 0)
(0.00144670488139 -0.000382684916353 0)
(0.00131102050833 -0.0005315856485 0)
(0.00119018044217 -0.000505872465735 0)
(0.000993303026894 -0.000348838488825 0)
(0.000900289692281 -0.000277958158016 0)
(0.00083833102506 -0.000271325479477 0)
(0.000771912515055 -0.000298502745505 0)
(0.000711197515363 -0.000341888519526 0)
(0.00063275844874 -0.000355385068864 0)
(0.000552591338141 -0.000330763832739 0)
(0.000473819031412 -0.000299456330578 0)
(0.000377974465371 -0.000270632353484 0)
(0.000308024717432 -0.000259027009312 0)
(0.000243583457424 -0.000251216254152 0)
(0.000173813784308 -0.000225195982134 0)
(0.000100578391737 -0.000181085583337 0)
(7.34012107513e-05 -0.000228770007311 0)
(2.44637786144e-05 -0.000263590265026 0)
(1.49266409204e-06 0.00014792338697 0)
(1.26482952963e-05 0.00012397316072 0)
(5.15371388065e-05 0.000190396197252 0)
(8.78927437191e-05 0.000179492295939 0)
(0.000100111298938 0.000128239911742 0)
(8.35954225455e-05 7.83498982584e-05 0)
(0.000142865630514 0.000124430102004 0)
(0.000208254152945 0.000165711405382 0)
(0.000239866067249 0.000155435130286 0)
(0.000277412990837 0.000144427353773 0)
(0.000312924666585 0.000139280691671 0)
(0.000344838601649 0.000132008524489 0)
(0.000360580658051 0.000115471830046 0)
(0.000350797476168 9.46143470119e-05 0)
(0.000369498807979 9.26939855877e-05 0)
(0.000404668029176 0.000104637956052 0)
(0.000455453606191 0.000127801671759 0)
(0.000513401760282 0.000158294805282 0)
(0.000560359486986 0.000181710958235 0)
(0.000591674183757 0.000190450320312 0)
(0.000630151345483 0.000195706852271 0)
(0.00067299187951 0.000197360273647 0)
(0.000713877533275 0.000194312364816 0)
(0.000754604951899 0.000190198715778 0)
(0.000794814835221 0.000186882527877 0)
(0.000834507000605 0.000185062699192 0)
(0.000876693058577 0.000184129301405 0)
(0.000915408745374 0.000182458413875 0)
(0.000959970888634 0.000181611449414 0)
(0.00099521509144 0.000179334089381 0)
(0.0010411968561 0.000179357870485 8.55722022523e-29)
(0.00106529289859 0.000176385749126 -8.1665314411e-29)
(0.00111746022565 0.000181395194725 0)
(0.00117041831243 0.000189299513265 0)
(0.00120890962211 0.00019785753777 0)
(0.00126682584297 0.000208331827542 0)
(0.00131685162115 0.000211834359359 0)
(0.00136297730042 0.000207274759656 0)
(0.00140636585446 0.000199629656553 0)
(0.0014480542673 0.00018869870447 0)
(0.00148846946222 0.000173763056535 0)
(0.00152660932971 0.000158785405596 0)
(0.00156222191872 0.000147366642936 0)
(0.00159528612838 0.000138442808917 0)
(0.00162547328442 0.00012955016546 0)
(0.00165279612735 0.000119579376406 0)
(0.0016773762776 0.000108331419957 0)
(0.00169921973913 9.58877255444e-05 0)
(0.00171824103367 8.22549433472e-05 0)
(0.00173422251887 6.75371875158e-05 0)
(0.0017467739804 5.23331811687e-05 0)
(0.00175526852227 3.69280527475e-05 0)
(0.0017590304792 1.99273674435e-05 0)
(0.00175799870202 3.58707836554e-07 0)
(0.00175432987761 -1.84001236458e-05 0)
(0.00174942685732 -3.41316451258e-05 0)
(0.00173993693348 -4.9520030139e-05 0)
(0.00172130851959 -6.80264809095e-05 0)
(0.00168975674978 -9.41158594187e-05 0)
(0.00163934266337 -0.000136602213794 0)
(0.00156194293503 -0.000210385016089 0)
(0.00145622283187 -0.000333311161438 0)
(0.00132096818775 -0.000497337245467 0)
(0.0012460597812 -0.000628573904543 0)
(0.00117830697641 -0.00062707600368 0)
(0.00100948188017 -0.000491505105368 0)
(0.000882476519501 -0.000397206983099 0)
(0.000779516034967 -0.000362345523107 0)
(0.000694986986167 -0.00037303224045 0)
(0.000630461798995 -0.000410237412561 0)
(0.000568269010122 -0.000435983241358 0)
(0.0004882189891 -0.000416029543131 0)
(0.000387606235849 -0.000364253547912 0)
(0.000318800271711 -0.000342593300936 0)
(0.000254066414433 -0.000336336238898 0)
(0.000188960194852 -0.000324257136401 0)
(0.000126119142002 -0.000269081506808 0)
(8.06973199884e-05 -0.00023023378794 0)
(5.09696708926e-05 -0.000284637654016 0)
(1.26098893252e-05 -0.000293281058827 0)
(-5.4113152116e-07 0.000138420375374 0)
(1.37962521245e-05 0.000148399088719 0)
(4.88592967167e-05 0.000215420982658 0)
(7.07368826686e-05 0.00018933956385 0)
(5.65618898087e-05 0.000103583848146 0)
(8.04744953681e-05 0.000109493951895 0)
(0.000163284240497 0.000188565943114 0)
(0.000191743993997 0.000198087690892 0)
(0.000220289647242 0.000189426898813 0)
(0.000254660355246 0.000181879503808 0)
(0.000290240752691 0.000169346321581 0)
(0.000287895109336 0.000138214114228 0)
(0.00027533354917 0.0001073443564 0)
(0.000303805961982 0.000109306709192 0)
(0.00034246435133 0.000127402963361 0)
(0.0004032190132 0.000157589804126 0)
(0.000463719202043 0.000185880464432 0)
(0.000509676518825 0.000203883731053 0)
(0.000536146080236 0.000212056239027 0)
(0.000575898157169 0.000226047944345 0)
(0.000619794799244 0.000237175340508 0)
(0.000659651087649 0.00023851558309 0)
(0.000699434836129 0.000235253751901 0)
(0.00073925215789 0.000231072269184 0)
(0.000781234952687 0.000228111820461 0)
(0.000820958204856 0.000225083521235 0)
(0.000855928977664 0.000223809970405 0)
(0.000904656950238 0.000224747675604 0)
(0.000935876438263 0.000220280892975 0)
(0.000987276132331 0.000219487518285 0)
(0.00100530911674 0.000214071277271 0)
(0.00106361017276 0.000221262614716 0)
(0.00108898025918 0.000224774117406 0)
(0.00115438122551 0.000238892941 0)
(0.00121837887399 0.0002536228253 0)
(0.00126927628289 0.000261237046515 0)
(0.0013155131998 0.000259117850055 0)
(0.00136022589828 0.000251773577257 0)
(0.00140362889053 0.000241833506488 0)
(0.00144586392787 0.000229224012029 0)
(0.00148678121476 0.00021369986556 0)
(0.00152577698236 0.000197498487611 0)
(0.00156232389426 0.000183151656196 0)
(0.00159604407971 0.000170624061578 0)
(0.00162672380834 0.000158439219241 0)
(0.00165437985718 0.000145550627701 0)
(0.00167911030699 0.000131559168202 0)
(0.00170086935031 0.000116347810949 0)
(0.00171948679809 9.98315727339e-05 0)
(0.00173472197449 8.20334324693e-05 0)
(0.00174622134025 6.31635201399e-05 0)
(0.00175347468993 4.32160604636e-05 0)
(0.00175610343345 2.1736686637e-05 0)
(0.00175441511486 -8.85298028166e-07 0)
(0.00174944290553 -2.29005264225e-05 0)
(0.00174057053252 -4.45265433357e-05 0)
(0.00172370761127 -6.93584917911e-05 0)
(0.00169334580991 -0.000102246895749 0)
(0.00164407199463 -0.00014965435226 0)
(0.00156985964132 -0.000220097974514 0)
(0.00146979355465 -0.000322085777566 0)
(0.00135335434897 -0.000452769828571 0)
(0.00120379733489 -0.000573858994476 0)
(0.00119648800552 -0.000724041952513 0)
(0.00106395878056 -0.000710069970246 0)
(0.000919260250005 -0.00059019448123 0)
(0.000821301671587 -0.000512313566372 0)
(0.000715404080353 -0.000463764474772 0)
(0.000616579689694 -0.000450407338876 0)
(0.000555499248488 -0.000490280249771 0)
(0.000493302543226 -0.000524775263493 0)
(0.000399075723067 -0.000475407227693 0)
(0.000325585218065 -0.000428637676546 0)
(0.000267120804424 -0.000416597312143 0)
(0.000200090769126 -0.000405878339017 0)
(0.000147347188198 -0.000381729624333 0)
(9.63292608089e-05 -0.000301988506519 0)
(6.05543905711e-05 -0.000267893233384 0)
(3.53770431024e-05 -0.000316883094279 0)
(9.67490151953e-06 -0.000314508360389 0)
(4.10743752073e-06 0.00014894261453 0)
(2.78894831161e-05 0.000187674016789 0)
(5.90993989392e-05 0.000231833203699 0)
(6.65665738971e-05 0.000224178255687 0)
(5.01125458821e-05 0.000130156490689 0)
(0.000106010541642 0.000182022615489 0)
(0.000156593420151 0.000223483752588 0)
(0.000175104731368 0.000222426890904 0)
(0.000201187408878 0.000216931389564 0)
(0.000224657385291 0.000209566304401 0)
(0.000264003042745 0.000193080880859 -2.36243628979e-28)
(0.000223608153274 0.000128358223638 1.54872672815e-28)
(0.000257920483166 0.000130434653751 0)
(0.000286659891449 0.000146235709567 0)
(0.000342099397516 0.000181625920659 0)
(0.000406647814686 0.000219936499984 0)
(0.000452986868659 0.000235001530842 0)
(0.000473037948064 0.000232794991633 0)
(0.000514525447245 0.000248399299867 0)
(0.000563086458018 0.000269357047836 0)
(0.000602118836674 0.000277690123332 0)
(0.00064212551152 0.000278574233722 0)
(0.000682673443955 0.00027625793867 0)
(0.000723152969426 0.000271831299979 0)
(0.000760574004493 0.000266345614574 0)
(0.000796231014279 0.000262683932768 0)
(0.000843205847694 0.000264236177983 0)
(0.000869546574079 0.000262412146924 0)
(0.000926942502836 0.000262760324019 0)
(0.000941126067852 0.000250158973435 0)
(0.0010033829475 0.000257745460155 0)
(0.00103009728863 0.000263558399749 -8.06296455341e-29)
(0.00109431328254 0.000279024266396 8.1280518289e-29)
(0.00115065224799 0.000297706276821 0)
(0.00121691450874 0.000311813215141 0)
(0.00126613611671 0.000311699986782 0)
(0.00131120559973 0.000305122727303 0)
(0.00135598422807 0.000295944841303 0)
(0.00140032371699 0.000284672043875 0)
(0.00144356413276 0.000270823784453 0)
(0.00148527741563 0.000254323751914 0)
(0.00152511516613 0.000236627543147 0)
(0.00156252030947 0.000219563505173 0)
(0.00159698477742 0.000203579836577 0)
(0.00162827188598 0.00018795295418 0)
(0.00165636159584 0.000171866873075 0)
(0.00168125656938 0.000154816245691 0)
(0.00170280496073 0.000136501188487 0)
(0.0017207607187 0.000116724539405 0)
(0.0017348868749 9.54092579645e-05 0)
(0.00174490155661 7.25895831196e-05 0)
(0.00175046403258 4.82603258572e-05 0)
(0.00175137615143 2.24869658779e-05 0)
(0.0017477323637 -4.27971324332e-06 0)
(0.00173925377238 -3.19145645708e-05 0)
(0.00172358626067 -6.2698456333e-05 0)
(0.0016956101952 -0.000101429816507 0)
(0.00164974187886 -0.000153553710814 0)
(0.00158289387538 -0.000224036875814 0)
(0.0014971689468 -0.000316439093627 0)
(0.00139817862527 -0.000429994836324 0)
(0.00129418755752 -0.000555003948824 0)
(0.0012074345351 -0.000681895537273 0)
(0.00114100169748 -0.000812352325188 0)
(0.00102046179195 -0.000821743643145 0)
(0.000822612686874 -0.000671646082889 0)
(0.000753498572441 -0.000613940286506 0)
(0.000662531206366 -0.000578698800554 0)
(0.00056092101116 -0.000560515953476 0)
(0.000481572377027 -0.000584545456521 0)
(0.000408241698791 -0.000585923274865 0)
(0.00033218875448 -0.00052651754316 0)
(0.000277625437389 -0.000500210898303 0)
(0.000213475691701 -0.000485413579775 0)
(0.000154623812188 -0.000467426199975 0)
(0.000109823363506 -0.000408805354201 0)
(7.43509472523e-05 -0.000345598648526 0)
(3.60903411353e-05 -0.000300339647211 0)
(1.67570612668e-05 -0.000333814988865 0)
(5.68597716211e-06 -0.000336262655836 0)
(8.55813419742e-06 0.000170560136165 0)
(3.69096037582e-05 0.000221642852377 0)
(6.23165235833e-05 0.000239948352122 0)
(4.17151345166e-05 0.000160574983314 0)
(4.93187328791e-05 0.000157835032982 0)
(0.000112189161532 0.000237453829528 0)
(0.00013682444941 0.00024560884028 0)
(0.000158963244308 0.000245292188398 0)
(0.000175542711262 0.000238298382589 0)
(0.000203438547632 0.000232712823403 0)
(0.000178822406376 0.00016280621626 0)
(0.000205249590009 0.000150423362826 0)
(0.000238405300828 0.000161825669289 0)
(0.000273275179675 0.000188582580569 0)
(0.000344009986848 0.000242508487937 0)
(0.000393756785221 0.000267453993178 0)
(0.000409564484982 0.00025907591187 0)
(0.000445943859635 0.000268677009046 0)
(0.000498711877534 0.00029531535341 0)
(0.00054239074696 0.000311795235397 0)
(0.000580362219208 0.000316940645619 0)
(0.000619163416608 0.000317791780798 0)
(0.000661099265361 0.000317526593347 0)
(0.000701296837327 0.000312976962095 0)
(0.000743253084795 0.000305583104238 0)
(0.000772340831428 0.000302126467575 0)
(0.000824696559557 0.000305448843043 0)
(0.000856372155452 0.00030104486878 0)
(0.000882857130465 0.000293986951901 0)
(0.000929195468935 0.000296073416496 0)
(0.000997731674447 0.000308576231945 0)
(0.00102963072144 0.000312381668752 0)
(0.00107748176225 0.000332939307526 0)
(0.00115750445445 0.000360392143689 0)
(0.00121012383834 0.000366968784212 0)
(0.00125814185295 0.000360797655957 0)
(0.00130486104146 0.000351541197715 0)
(0.00135088933514 0.000341080765124 0)
(0.00139646028285 0.000328726704006 0)
(0.00144098151228 0.000313673134008 0)
(0.00148381592815 0.000295873641163 0)
(0.00152462311736 0.000276403943486 0)
(0.0015629617684 0.000256669023243 0)
(0.00159829943228 0.000237317604201 0)
(0.00163031740594 0.000218130009331 -7.28998551978e-29)
(0.0016589036392 0.000198545908981 7.264752557e-29)
(0.00168391378152 0.000178016518096 0)
(0.00170505774513 0.000156113157605 0)
(0.00172202546235 0.000132565816691 0)
(0.00173460086463 0.00010726243794 0)
(0.00174259678824 8.01687047212e-05 0)
(0.00174578708226 5.13042439855e-05 0)
(0.00174398071021 2.07053158616e-05 0)
(0.00173672136649 -1.186814097e-05 0)
(0.00172235188352 -4.8016630342e-05 0)
(0.00169701250843 -9.1669479856e-05 0)
(0.00165547762359 -0.000147756571257 0)
(0.00159525589313 -0.00021898937937 0)
(0.00152055798573 -0.000305974106487 0)
(0.00143849038595 -0.000408734137017 0)
(0.00135146117423 -0.000523405570545 0)
(0.00126538192571 -0.000641572161404 0)
(0.00119089488714 -0.000761335135197 0)
(0.00111320253503 -0.000884909023307 0)
(0.00109868940731 -0.00100420207885 0)
(0.000828053444544 -0.000817448340098 0)
(0.000670477508733 -0.000711788297588 0)
(0.000577502874218 -0.000678182151952 0)
(0.000472357375501 -0.000653380904435 0)
(0.000393553825509 -0.000655095804656 0)
(0.000332664877173 -0.000630875721548 0)
(0.000278069064829 -0.00058389560109 0)
(0.000224619238449 -0.000566690071772 0)
(0.000163272676138 -0.000548490757395 0)
(0.000113433054764 -0.000513567397262 0)
(7.35156488214e-05 -0.000440574130928 0)
(4.04267307235e-05 -0.000387179967882 0)
(5.42673576658e-06 -0.000337017548327 0)
(-1.0158609191e-05 -0.000340211300065 0)
(-4.78149773782e-06 -0.000345633826544 0)
(1.10975538574e-05 0.000196092416772 0)
(3.85645617839e-05 0.000246276767109 0)
(4.80604844879e-05 0.00024639574465 0)
(3.65249117418e-05 0.000173870554801 0)
(6.30784574617e-05 0.000199902430158 0)
(0.000106649647915 0.000261806224734 0)
(0.000117904769609 0.000265419607563 0)
(0.00014302755315 0.000265661760246 0)
(0.000144228205516 0.000241100397286 0)
(0.000183268033319 0.000261186224712 0)
(0.000158342531647 0.000181437572467 0)
(0.000191825730092 0.000180186750686 0)
(0.000220724129611 0.000196707840874 0)
(0.000271926705548 0.000245006415668 0)
(0.00033014637519 0.000293679910474 0)
(0.000366492502468 0.000302734395691 0)
(0.000381343280815 0.000292309481919 0)
(0.000425760526978 0.000313591153487 0)
(0.000474468312888 0.000340119390205 0)
(0.000516124567362 0.000352918914821 0)
(0.000556377334206 0.000356963091664 0)
(0.000594000809511 0.000356682608375 0)
(0.000634955765259 0.000356729938259 0)
(0.000669541732563 0.000351087124298 0)
(0.000703277329257 0.000339615273068 0)
(0.000756116186851 0.000342904639989 0)
(0.00077147809616 0.000337698615107 0)
(0.000845139526988 0.000345922559405 0)
(0.000860482160268 0.000338544730834 0)
(0.000933761327604 0.00035240629249 0)
(0.000952988565552 0.000348317324756 0)
(0.00103198579818 0.000370848857782 0)
(0.00109157882677 0.000398133264405 -8.42720232114e-29)
(0.00114810888889 0.000416891541381 8.38130105719e-29)
(0.00119932715213 0.000417747885767 0)
(0.00124852623814 0.000409943655176 0)
(0.00129716149561 0.000399534086129 0)
(0.00134494276449 0.000387855455526 0)
(0.00139199531461 0.000374302205145 0)
(0.00143796901395 0.00035795285723 0)
(0.0014822330952 0.000338618005638 0)
(0.00152431864287 0.000317126353542 0)
(0.00156378924488 0.000294655320018 0)
(0.0016001669238 0.000271932666727 0)
(0.00163307984307 0.000249029582178 0)
(0.00166223212859 0.000225573976958 0)
(0.00168727262055 0.0002010240788 0)
(0.00170777394409 0.000174897897546 0)
(0.0017233707129 0.000146933351314 0)
(0.00173387131662 0.000117045226859 0)
(0.00173914920125 8.51957987329e-05 0)
(0.00173907277932 5.12486702097e-05 0)
(0.00173332691078 1.4762976534e-05 0)
(0.00172072388559 -2.56964953137e-05 0)
(0.00169831114612 -7.34125363942e-05 0)
(0.00166137062139 -0.00013291892655 0)
(0.00160610744476 -0.00020647610373 0)
(0.0015371042645 -0.000290525986638 0)
(0.00146662963572 -0.000384127604615 0)
(0.00139623827089 -0.00049225752637 0)
(0.00131568123169 -0.000609877850488 0)
(0.0012278292 -0.000721158116751 0)
(0.00115465647412 -0.000826343276998 0)
(0.00110033311166 -0.000939068560727 0)
(0.00108252947212 -0.00106851974753 0)
(0.000988604593106 -0.00108749361003 0)
(0.000647430892925 -0.000840283460003 0)
(0.000486878506877 -0.000792112863314 0)
(0.000391439255639 -0.000759524845448 0)
(0.000316456564036 -0.000720310416916 0)
(0.000262561662152 -0.000673908630547 0)
(0.000219791737635 -0.000639207779555 0)
(0.000171773558631 -0.000626165614788 0)
(0.000118206341047 -0.00060310005257 0)
(7.02079484192e-05 -0.000551494831563 0)
(2.714733769e-05 -0.000483371962745 0)
(-1.14866338696e-05 -0.00042339024514 0)
(-3.84493372683e-05 -0.000369617949907 0)
(-4.16549446007e-05 -0.00033781822294 0)
(-1.78694348083e-05 -0.000324327390172 0)
(1.23594494658e-05 0.000225051793799 0)
(3.97324781277e-05 0.000262235017658 0)
(4.00145139359e-05 0.000243983356547 0)
(3.343332289e-05 0.000185700420892 0)
(7.1721895827e-05 0.000254826812388 0)
(8.89849622704e-05 0.000269356745255 0)