/*--------------------------------*- C++ -*----------------------------------*\
| =========                 |                                                 |
| \\      /  F ield         | OpenFOAM: The Open Source CFD Toolbox           |
|  \\    /   O peration     | Version:  v1806                                 |
|   \\  /    A nd           | Web:      www.OpenFOAM.com                      |
|    \\/     M anipulation  |                                                 |
\*---------------------------------------------------------------------------*/
FoamFile
{
    version     2.0;
    format      ascii;
    class       volScalarField;
    location    "270";
    object      pa;
}
// * * * * * * * * * * * * * * * * * * * * * * * * * * * * * * * * * * * * * //

dimensions      [0 2 -2 0 0 0 0];


internalField   nonuniform List<scalar> 
6400
(
-0.128010935031
-0.128012284041
-0.128016036987
-0.128023185949
-0.128033400599
-0.128046527607
-0.128062641592
-0.128082479455
-0.128106152692
-0.128133741362
-0.128168591274
-0.128212511084
-0.128263463926
-0.128321625015
-0.128388374586
-0.128465276427
-0.128552945701
-0.128651098777
-0.128759018336
-0.128873868726
-0.128991593727
-0.129112192712
-0.129239516671
-0.129378207911
-0.129531737121
-0.129700269295
-0.129881551326
-0.130074120902
-0.130278276256
-0.130495091223
-0.130725597225
-0.130969139438
-0.131221542513
-0.131478645365
-0.131739372742
-0.132000847732
-0.132262344352
-0.132530960801
-0.13280621546
-0.133078379834
-0.133348779468
-0.133632074433
-0.133936530585
-0.134255129728
-0.134579987337
-0.134906550875
-0.135231262403
-0.135552262303
-0.135868026526
-0.136177484915
-0.136480580221
-0.13677296724
-0.137048334152
-0.137296677968
-0.137518862715
-0.137726073637
-0.137915388837
-0.138074199857
-0.138198368766
-0.138296950902
-0.138375238646
-0.138435025343
-0.138476633826
-0.138509267305
-0.138548026572
-0.138598019142
-0.138652673054
-0.138698842758
-0.138729511703
-0.138746003164
-0.138751422087
-0.138748191435
-0.138737908838
-0.138722900501
-0.138704261556
-0.13868416433
-0.138664231459
-0.138649565684
-0.138639236005
-0.138634715153
-0.128008965221
-0.128010384376
-0.128013699288
-0.128020698274
-0.128031828028
-0.128045875722
-0.128062297597
-0.128081164857
-0.128103719911
-0.128131330069
-0.128165963355
-0.12820904767
-0.128260104277
-0.128318863956
-0.128385769038
-0.128461717306
-0.128548881928
-0.128647429856
-0.128756379489
-0.128872052518
-0.128988506365
-0.129107436777
-0.129234059275
-0.129372250813
-0.129525811268
-0.129694870468
-0.129876111479
-0.130068885157
-0.130273636792
-0.130490894529
-0.13072103961
-0.130964565251
-0.13121775166
-0.131474641848
-0.131735526914
-0.131997141125
-0.132257997787
-0.132526849924
-0.132802892148
-0.133074594861
-0.133341092136
-0.133622644278
-0.133931727137
-0.134253576904
-0.134579730236
-0.13490774405
-0.135233698033
-0.135556239899
-0.135873082786
-0.136180975829
-0.136479965764
-0.136772610848
-0.137057349429
-0.137308541762
-0.137532093993
-0.137744304775
-0.137930466558
-0.138083564932
-0.13820743423
-0.138305671214
-0.138380756489
-0.138441421248
-0.138485568393
-0.138519747946
-0.13855980513
-0.138610799718
-0.138666444729
-0.138711788511
-0.138740924993
-0.138755986423
-0.13875995718
-0.138755181056
-0.138742972485
-0.138725393495
-0.138704773112
-0.138683091212
-0.138662841069
-0.138647032282
-0.13863612113
-0.138632234439
-0.128003499676
-0.128005869463
-0.128008705188
-0.128015082895
-0.128025853692
-0.128041718546
-0.128059820852
-0.128078063422
-0.128099217473
-0.128126000971
-0.128160099049
-0.128202610692
-0.128253539577
-0.128312492402
-0.128379272294
-0.128452703462
-0.128538081707
-0.1286406103
-0.128751834986
-0.128866695426
-0.128980224787
-0.129094589948
-0.12921953448
-0.129359263808
-0.129512926543
-0.129681031006
-0.129862770067
-0.130056576963
-0.13026207287
-0.13047988034
-0.130710103184
-0.130953751271
-0.131208629701
-0.131464366573
-0.131723094723
-0.131986939402
-0.132246964388
-0.132513185671
-0.13278956574
-0.133063301022
-0.133335995976
-0.133621345659
-0.133926822066
-0.134246082797
-0.134571981981
-0.134900483364
-0.135228326501
-0.135553194355
-0.135872799204
-0.136184966942
-0.136488638357
-0.136782260028
-0.137060304141
-0.137315154425
-0.137550621198
-0.137764538358
-0.137947227844
-0.138098917068
-0.138222523852
-0.138321069567
-0.138398577623
-0.13845955701
-0.138503913572
-0.138542560185
-0.138587868667
-0.138641712379
-0.138695332736
-0.138737768337
-0.13876467961
-0.138777275691
-0.138778331032
-0.138769764978
-0.138753285331
-0.138731475911
-0.138707073225
-0.138682338944
-0.138659889524
-0.138641964069
-0.138630112575
-0.138625413553
-0.127996099274
-0.12799843164
-0.128000548785
-0.128006371681
-0.128015760573
-0.128031363596
-0.12805499542
-0.128073124846
-0.12809255604
-0.12811792062
-0.128151197273
-0.12819325525
-0.128244111774
-0.128302438391
-0.128368891325
-0.12844584484
-0.128534539612
-0.12863515481
-0.128741259901
-0.128847725831
-0.128957103288
-0.129073366197
-0.129199420246
-0.129338617991
-0.129492394126
-0.129660986336
-0.129843582447
-0.130038436428
-0.130245029592
-0.130463413766
-0.130694705444
-0.130938849898
-0.131193837288
-0.131453046125
-0.131708216796
-0.131966980659
-0.132230802503
-0.132495489286
-0.132765783648
-0.133041064356
-0.133320897225
-0.13361149556
-0.13391755458
-0.134236355891
-0.134562803076
-0.134892803946
-0.135223052048
-0.135550921265
-0.135874042993
-0.136190235587
-0.136497598507
-0.136793589598
-0.137074030435
-0.137334659164
-0.137574234271
-0.137788265851
-0.13797119511
-0.138123065813
-0.138246924981
-0.138346408867
-0.138425570975
-0.138488134827
-0.138537701821
-0.138585196902
-0.138634828334
-0.138687733595
-0.138740226852
-0.13878033832
-0.138803544003
-0.138811644114
-0.138807461843
-0.138792800818
-0.138769935573
-0.138741519366
-0.138710348336
-0.13868067574
-0.138654778019
-0.138631826368
-0.138615229855
-0.138608087157
-0.12798464518
-0.12798480291
-0.12798743304
-0.127993312128
-0.128003608046
-0.128017928456
-0.128038930868
-0.128059393477
-0.128080241023
-0.128105924626
-0.128138549871
-0.128180264108
-0.128231230431
-0.128292716281
-0.128363928886
-0.128441456158
-0.128526382278
-0.128618649182
-0.128716662373
-0.128820343354
-0.128929987424
-0.129046224877
-0.129172320638
-0.129311692309
-0.129465647425
-0.129634803319
-0.129818032822
-0.130014157453
-0.1302219959
-0.130441896505
-0.130673805424
-0.130920329487
-0.131179147124
-0.131433833005
-0.131687293132
-0.131943065786
-0.132200967762
-0.13246516491
-0.132736597275
-0.133014733921
-0.133299811706
-0.133595026045
-0.13390314821
-0.134222980704
-0.134550947014
-0.134883302632
-0.135216721841
-0.135548406338
-0.135875903323
-0.136196924511
-0.136509124272
-0.13680961417
-0.137094756692
-0.137360862807
-0.13760443048
-0.137820331953
-0.138004586385
-0.138157754825
-0.138283173978
-0.138384878178
-0.138467047101
-0.138533862876
-0.138591049222
-0.138647174847
-0.138698554798
-0.138752267235
-0.138804635839
-0.138842204052
-0.138860150362
-0.138860971801
-0.138848307597
-0.138824806884
-0.138792923298
-0.138754619917
-0.138714345231
-0.138676821374
-0.138642051811
-0.138608121821
-0.138584867347
-0.138575438305
-0.127963110498
-0.127962742837
-0.127967630892
-0.127973467947
-0.127984540824
-0.12799983014
-0.128018989563
-0.128039840257
-0.128062610636
-0.128089228886
-0.12812075463
-0.128162548638
-0.128218494949
-0.12828446095
-0.128355066748
-0.128428984153
-0.128507676947
-0.128593675877
-0.128688207312
-0.12879005285
-0.128897376615
-0.129012466222
-0.129138611803
-0.129278432674
-0.129432861256
-0.12960189728
-0.129786313331
-0.129983529935
-0.130193304364
-0.130414682696
-0.130649241798
-0.130896693799
-0.13115323602
-0.13141181045
-0.131659447121
-0.131907270976
-0.132162904371
-0.132427831806
-0.132701396101
-0.132982885817
-0.133272555845
-0.133572223365
-0.133883483416
-0.134205685403
-0.134536233459
-0.134871829932
-0.135209237302
-0.13554559899
-0.135878428397
-0.13620536723
-0.136523852585
-0.136830809755
-0.137122568099
-0.137394980141
-0.137643318929
-0.137862526374
-0.138049790464
-0.138206209619
-0.138335185822
-0.13844086743
-0.138527629106
-0.138600746168
-0.138668516269
-0.13872937998
-0.138783615556
-0.138840130776
-0.138893870756
-0.138928467744
-0.138938780918
-0.13892845312
-0.138903770033
-0.138868550001
-0.138823976744
-0.138772048761
-0.138718835783
-0.138668016309
-0.138617553523
-0.138568844155
-0.13853667059
-0.138521761115
-0.127930142205
-0.127932425946
-0.127941108338
-0.127949923369
-0.127958760117
-0.127973895712
-0.127994241469
-0.128015501324
-0.128039642964
-0.128067250267
-0.128100800984
-0.128143571464
-0.128203360476
-0.128268832286
-0.128336508265
-0.128405195352
-0.128479345308
-0.128563413923
-0.128656509821
-0.128754133794
-0.128858490454
-0.128972928603
-0.129098835065
-0.129238317395
-0.129392939638
-0.129564107829
-0.129747567302
-0.129946468735
-0.130158352141
-0.130384205545
-0.130620612825
-0.130866730362
-0.131122762524
-0.131374033192
-0.131618404534
-0.131862895495
-0.132117856737
-0.132384113009
-0.132660172057
-0.13294506876
-0.133239027987
-0.133543168186
-0.133858345477
-0.134184037659
-0.134518219289
-0.134857993365
-0.135200288347
-0.135542311942
-0.135881628913
-0.136215874606
-0.136542351737
-0.136857740596
-0.137157958524
-0.137438140928
-0.137692922136
-0.137917619326
-0.138110323036
-0.138272435185
-0.138407135168
-0.13851821611
-0.138610706141
-0.138691914125
-0.138767344259
-0.13883266099
-0.138900261852
-0.13896140738
-0.139014275939
-0.139042350627
-0.139041572314
-0.139017169594
-0.138977788479
-0.138927518101
-0.138865309624
-0.138795198096
-0.138723334166
-0.138651115755
-0.138577555365
-0.138510668922
-0.138466292028
-0.138443786583
-0.127891672663
-0.127896423728
-0.127906625987
-0.127919884259
-0.127929414689
-0.127944766224
-0.127964267415
-0.127986261626
-0.128012245489
-0.128038105724
-0.128075316825
-0.128124228364
-0.128182384125
-0.128245628448
-0.12830867517
-0.128372290014
-0.128445202047
-0.128529302069
-0.12861840716
-0.128711873986
-0.128813634489
-0.128927048015
-0.129052631664
-0.129192750866
-0.129348287358
-0.129519571918
-0.12970543857
-0.129901146483
-0.13011822659
-0.130350582242
-0.130586348081
-0.130826556866
-0.131079561936
-0.131325377338
-0.131564597526
-0.13181011512
-0.132066258494
-0.132334015373
-0.132612516852
-0.132900822886
-0.133198996294
-0.133507749537
-0.133827487664
-0.13415762971
-0.134496443976
-0.134841357054
-0.135189528991
-0.135538346355
-0.135885512557
-0.136228706445
-0.13656511452
-0.136891086392
-0.137201943932
-0.137492107099
-0.137755885359
-0.137989062218
-0.138190257811
-0.13836062209
-0.138502278999
-0.138618334653
-0.138715205156
-0.13880201832
-0.138884226543
-0.138963608123
-0.13904389306
-0.139118968761
-0.139170782538
-0.139189368482
-0.139174690137
-0.139133785579
-0.139076596204
-0.139005689059
-0.138919917222
-0.138825488521
-0.13872681281
-0.138624013486
-0.13852109202
-0.138430772294
-0.138369894442
-0.138339167092
-0.127849892908
-0.127856239437
-0.127866570971
-0.12787702674
-0.127889835165
-0.12790957377
-0.127928382627
-0.127950611959
-0.127979766785
-0.128007831047
-0.128042300415
-0.12809536178
-0.128154272737
-0.128213716353
-0.12827271711
-0.128335414154
-0.128406625849
-0.128488004987
-0.128573313548
-0.12866398254
-0.12876344061
-0.128874718944
-0.1289985345
-0.129138032608
-0.129298467331
-0.129468387317
-0.129656229528
-0.129857322091
-0.130072634799
-0.130303349051
-0.130541724757
-0.130786316002
-0.131024204619
-0.13126239122
-0.131502296047
-0.131749732579
-0.132007623905
-0.132277084728
-0.132557972086
-0.132849674221
-0.133152130316
-0.133465726869
-0.133790574782
-0.134126000064
-0.13447039238
-0.134821422828
-0.135176548067
-0.135533442161
-0.135890020928
-0.136244047742
-0.136592607378
-0.136931678105
-0.137255935152
-0.137559139045
-0.137835421701
-0.138080806432
-0.138293812691
-0.1384742065
-0.138621973634
-0.138740132372
-0.138839182878
-0.138932881101
-0.139027405081
-0.139121899346
-0.139213897853
-0.139307766572
-0.139374314232
-0.139379603695
-0.139348014192
-0.139287863039
-0.139207192688
-0.1391077746
-0.138991554702
-0.138865031592
-0.138729747654
-0.13858704008
-0.138446769487
-0.138324999647
-0.138239552396
-0.138196261257
-0.127804318798
-0.127811882689
-0.127823790044
-0.127833704488
-0.127847250564
-0.127867102189
-0.127886081937
-0.127907868416
-0.127935431994
-0.127971490955
-0.128007524133
-0.12805954596
-0.128118004548
-0.128174110051
-0.128228879237
-0.128292059527
-0.128364213803
-0.128441046924
-0.128521774973
-0.128609832732
-0.128707928505
-0.128817598945
-0.128939683262
-0.129075810727
-0.129239007744
-0.129414090782
-0.129594625262
-0.129800897924
-0.130017223362
-0.130250450808
-0.130488167778
-0.130727872503
-0.130961779631
-0.131192742338
-0.131432213271
-0.131681599019
-0.131941491185
-0.1322128637
-0.132496115084
-0.132791142236
-0.133097959905
-0.133416691522
-0.13374716821
-0.134088607331
-0.134439465872
-0.134797618693
-0.135160852855
-0.135527231234
-0.135894968654
-0.136261962047
-0.136625235088
-0.136980426472
-0.137321590755
-0.137641904904
-0.137935189787
-0.138197219042
-0.13842504835
-0.138615017159
-0.138764253276
-0.138880357571
-0.138983081157
-0.139090423781
-0.139203377175
-0.139314431676
-0.139420537746
-0.139520532578
-0.139598162784
-0.139625967881
-0.139574879139
-0.139489060952
-0.139376799258
-0.139240264333
-0.139084422835
-0.138916791731
-0.138734909744
-0.138541759684
-0.138350699577
-0.138181131929
-0.138052871478
-0.137984015854
-0.127753119112
-0.127760450915
-0.127772989563
-0.127785394443
-0.127802971328
-0.127819042107
-0.127837471037
-0.127859691408
-0.12788213812
-0.12792119758
-0.127963347277
-0.128014734133
-0.128072306435
-0.128127241678
-0.128180329141
-0.128241841312
-0.128313467113
-0.128386905459
-0.128463788672
-0.128548446279
-0.128644839968
-0.128754057834
-0.128877859742
-0.129011355227
-0.129167004234
-0.12935106454
-0.129535260411
-0.129737878574
-0.129953255106
-0.130176180411
-0.130418883264
-0.130656954522
-0.13088606698
-0.131114676488
-0.131354474729
-0.131605496244
-0.131867398279
-0.132140882179
-0.132426556031
-0.132724790384
-0.133035961166
-0.133360092165
-0.133696691233
-0.134044811171
-0.134402959795
-0.134769236388
-0.135141810625
-0.13551919489
-0.135899981241
-0.136282297931
-0.136663214288
-0.137038143605
-0.137400656255
-0.137743339067
-0.138059406728
-0.138343015021
-0.138586849915
-0.138780594457
-0.13892427895
-0.139038555802
-0.139153316971
-0.139285586375
-0.1394243356
-0.139553294925
-0.139669885434
-0.139768966561
-0.139845382518
-0.139896790204
-0.1398641165
-0.13975544442
-0.139598832444
-0.139412989588
-0.139203572515
-0.138985900936
-0.13874780724
-0.138490024383
-0.138224578269
-0.137976193099
-0.137773311615
-0.137656520116
-0.127694986255
-0.127700659631
-0.1277095662
-0.127725851017
-0.127748660711
-0.127763616629
-0.12778173031
-0.127805853586
-0.127826580647
-0.127862301729
-0.127908762828
-0.127960549112
-0.128016550321
-0.128071058116
-0.128126636305
-0.128187235792
-0.128255915974
-0.128325740904
-0.128399461962
-0.128480580466
-0.128572995811
-0.128678891821
-0.128807292436
-0.128947332121
-0.12909519383
-0.129275879431
-0.129464861399
-0.129660147241
-0.129882640657
-0.130107247375
-0.130338702502
-0.130568227548
-0.130794623501
-0.13102668064
-0.131268161816
-0.131520768404
-0.131784699793
-0.132060515576
-0.132348846329
-0.132650232645
-0.132965581373
-0.133295244291
-0.133638437017
-0.13399385299
-0.134360037105
-0.134735408182
-0.135118583252
-0.135508561087
-0.13590437648
-0.136304534938
-0.136706353121
-0.137105277395
-0.137494690956
-0.137866693138
-0.138212825896
-0.138522344634
-0.138777370362
-0.138964921811
-0.139101101063
-0.139221850271
-0.13936416895
-0.139537211689
-0.139712114751
-0.139858563319
-0.139984177749
-0.14008351695
-0.14015295948
-0.140196470367
-0.140197870045
-0.140095879851
-0.139897387292
-0.139643684299
-0.139353747612
-0.139082028526
-0.138779095152
-0.138437500568
-0.138060540427
-0.137687267877
-0.137360735926
-0.137164388767
-0.127629836244
-0.127633852482
-0.127637624709
-0.127656002913
-0.127678188302
-0.127696332654
-0.127715795358
-0.12774190771
-0.127765370048
-0.127798993347
-0.127846232031
-0.127897503551
-0.127951323498
-0.128003009845
-0.12806153681
-0.128125159824
-0.128190916238
-0.128257326869
-0.128328318485
-0.128406642141
-0.128494641266
-0.128594275426
-0.128719321264
-0.128872019491
-0.129021591844
-0.129189250065
-0.129384817214
-0.129580562611
-0.12979143731
-0.130017336203
-0.130246105245
-0.130471241241
-0.130694479628
-0.130928291036
-0.131172038782
-0.131426636877
-0.131692658165
-0.131970784743
-0.13226208878
-0.132567029419
-0.132886506481
-0.133221522062
-0.13357152049
-0.133934788551
-0.134309701582
-0.134695061818
-0.135090058682
-0.135494193854
-0.135906986506
-0.13632751345
-0.136753666126
-0.137181472657
-0.137604806479
-0.13801519781
-0.138400150391
-0.138735903408
-0.138989530744
-0.139162283244
-0.139298976723
-0.139446204363
-0.13963703259
-0.139871899997
-0.140099409676
-0.140260374661
-0.140391714489
-0.140482955678
-0.140534149826
-0.140556314735
-0.140566618624
-0.140495095308
-0.140268358402
-0.139941252418
-0.139519783561
-0.139219825035
-0.13885338149
-0.138408353591
-0.137862127939
-0.137300175047
-0.136759167738
-0.13641505248
-0.127558327201
-0.127562888873
-0.127569417781
-0.127581219122
-0.12759964593
-0.127619585824
-0.127640785667
-0.127667183009
-0.127695894639
-0.127728744074
-0.127775823126
-0.127826171294
-0.127878175678
-0.127927412792
-0.127983829664
-0.128050317516
-0.12811585033
-0.128180648476
-0.128249501402
-0.128325483882
-0.128410169029
-0.12850419149
-0.128622484678
-0.128779190243
-0.128937643642
-0.129098511994
-0.129292975773
-0.129492412485
-0.129694059848
-0.129914177254
-0.130134403469
-0.130355212428
-0.130582520065
-0.130819081333
-0.131065202488
-0.131322014399
-0.13159061964
-0.131871307317
-0.132165295912
-0.13247398898
-0.132798094433
-0.133138519029
-0.133495222289
-0.133866550869
-0.134250720177
-0.134646866592
-0.135054792232
-0.135474474269
-0.135905895154
-0.136348993183
-0.13680279818
-0.137264929292
-0.13773085697
-0.138191710458
-0.138625148448
-0.138977623093
-0.139207049686
-0.139368537597
-0.139540079861
-0.139746966225
-0.139998666084
-0.14032622161
-0.140681775125
-0.140798879823
-0.140906034738
-0.140986409281
-0.141037313105
-0.141055270879
-0.141045759741
-0.141000578821
-0.140934387944
-0.140560980749
-0.13964957735
-0.139402201361
-0.138989010486
-0.138436596651
-0.137643660838
-0.136821962257
-0.135865436249
-0.135206321394
-0.127478687106
-0.127483750507
-0.127495177222
-0.127500916829
-0.12751516246
-0.127535159136
-0.127557533442
-0.127585182884
-0.127620276545
-0.127651557655
-0.127697521163
-0.127746908213
-0.127797649196
-0.127846158819
-0.127900721047
-0.127966812953
-0.128031799573
-0.128095708324
-0.128162899568
-0.128236492657
-0.128318397134
-0.128408943306
-0.128518525235
-0.128669159569
-0.128840804615
-0.129002669155
-0.129184319433
-0.129393219086
-0.129598526299
-0.129800521134
-0.130011700363
-0.130230381534
-0.130459185944
-0.13069805577
-0.130946751705
-0.131206137108
-0.131477205382
-0.131760969831
-0.132058167726
-0.132370350749
-0.132699195208
-0.133045430343
-0.133408913525
-0.133788192333
-0.134181726463
-0.134589192287
-0.135010923441
-0.135447167499
-0.135898215613
-0.136365072759
-0.136849028747
-0.13735133638
-0.137870460712
-0.138397478239
-0.138887213934
-0.13922764211
-0.139423640076
-0.139618690799
-0.139928890739
-0.140255539367
-0.140487167903
-0.140846418759
-0.140617311121
-0.140447562363
-0.140330777945
-0.140190003986
-0.140028605483
-0.139889009357
-0.139812327983
-0.13968210297
-0.139287435749
-0.138826762299
-0.13914309479
-0.140056407707
-0.139699949504
-0.139034945232
-0.137486605269
-0.136317135148
-0.134492308949
-0.13319055694
-0.127389305043
-0.12739374585
-0.127403435745
-0.127409830401
-0.127422087617
-0.127442316036
-0.127464739716
-0.127491127489
-0.127531692731
-0.127565861158
-0.127610588475
-0.12765939215
-0.127709645803
-0.127758787896
-0.12781238824
-0.127876527288
-0.127940119257
-0.128003171443
-0.128068824759
-0.128140031698
-0.12821882569
-0.128306505146
-0.128409763829
-0.128551136816
-0.128727494054
-0.128897979642
-0.129067712047
-0.129266100973
-0.129476492229
-0.129677943936
-0.129881319854
-0.130096158961
-0.13032486503
-0.130565451731
-0.130816501317
-0.131078162524
-0.131351898664
-0.131638570237
-0.131939422335
-0.132255555454
-0.132589049152
-0.132941269572
-0.13331187869
-0.133698983552
-0.134101269625
-0.134519850597
-0.134956153714
-0.135409841156
-0.135879813762
-0.136368784368
-0.136883726745
-0.137432152844
-0.138016122758
-0.13862987261
-0.139167421089
-0.139479637907
-0.139689375221
-0.139952471236
-0.14017414536
-0.139941053535
-0.139621553434
-0.139496028605
-0.13937911387
-0.138904117242
-0.138236682819
-0.137466399916
-0.136684873622
-0.136008873949
-0.135551075765
-0.135293042478
-0.135070328054
-0.134882127943
-0.134900549006
-0.135474801637
-0.135830853185
-0.135909834031
-0.136826751752
-0.136670742446
-0.132552172017
-0.129082819522
-0.127291675164
-0.127295440652
-0.127304830142
-0.127310644056
-0.127322391303
-0.127342065799
-0.127364067052
-0.127387396485
-0.127426844792
-0.127467360513
-0.127513402605
-0.127562399455
-0.127613002264
-0.127664756291
-0.127717276522
-0.127779176477
-0.127841073871
-0.127903351397
-0.127967431539
-0.128036261546
-0.128111784592
-0.128195770732
-0.128293651718
-0.128424843921
-0.128595646881
-0.128779773009
-0.128948615291
-0.129132462957
-0.129332745448
-0.129531744622
-0.129732339182
-0.129947795565
-0.130177250462
-0.130419356781
-0.130672960758
-0.130937503062
-0.131213768965
-0.131503585152
-0.131808070624
-0.132128610942
-0.132467068921
-0.132825082097
-0.133202923639
-0.133598153344
-0.134008662362
-0.134437756631
-0.134888852302
-0.135359228912
-0.135844027295
-0.13634977841
-0.136892712472
-0.137493089308
-0.138150460342
-0.138853476661
-0.139438907093
-0.139791347158
-0.139625554339
-0.139357971876
-0.139147496141
-0.138687555019
-0.137935531964
-0.137068420471
-0.136146972642
-0.134975051482
-0.13357504567
-0.132040316599
-0.130497071818
-0.12908448668
-0.127936449839
-0.127097399758
-0.126440448116
-0.12592125016
-0.125871446143
-0.126753801074
-0.128268474192
-0.129931893459
-0.130997281306
-0.130711213566
-0.129131607095
-0.129001902885
-0.127187188848
-0.127189963313
-0.127196424781
-0.127202850134
-0.127216588419
-0.127235486855
-0.127257706282
-0.127279160064
-0.127316255157
-0.127359431398
-0.127406195569
-0.127454928742
-0.127504908517
-0.127560314854
-0.127613389029
-0.127673044583
-0.127733381493
-0.127795566216
-0.127858247088
-0.127924779316
-0.12799699772
-0.128076726761
-0.128169178811
-0.128290941776
-0.128452969104
-0.12864181596
-0.128820468732
-0.128995754678
-0.129182188815
-0.129372221454
-0.12956960582
-0.129784386876
-0.130013821527
-0.130257109081
-0.130513448552
-0.130781459426
-0.131061467003
-0.131354666984
-0.131663372761
-0.131988516508
-0.132332106623
-0.132696658532
-0.133082339693
-0.133486096827
-0.133902111718
-0.13433574345
-0.134799919565
-0.135290366649
-0.135785225479
-0.136293197866
-0.136849089201
-0.137500876995
-0.138229212989
-0.138952872661
-0.139651937731
-0.139348128736
-0.138834717561
-0.138207571
-0.137406770592
-0.136397552398
-0.135046080439
-0.133416078304
-0.131598878532
-0.129618534106
-0.127508369193
-0.125325011461
-0.123159948164
-0.12111467097
-0.119279070826
-0.117698997001
-0.116345580438
-0.11514180402
-0.114325716896
-0.114378044569
-0.115570799428
-0.117798890986
-0.120407723853
-0.122300115588
-0.123708612092
-0.128439763868
-0.127077477392
-0.127079401938
-0.127082516024
-0.127089953012
-0.127105236121
-0.127123012226
-0.127144915704
-0.127166945051
-0.127200186253
-0.127243454602
-0.127289692169
-0.127337304677
-0.127385118092
-0.127440300261
-0.127497234959
-0.12755603556
-0.127614949604
-0.127677033913
-0.127739592508
-0.127804497879
-0.12787382392
-0.127948718729
-0.128035594537
-0.128148185154
-0.128297964574
-0.128478871424
-0.128666572652
-0.128842233361
-0.12902003035
-0.129202955405
-0.129393690147
-0.129605405831
-0.129834882402
-0.130077105072
-0.130336201578
-0.130608162798
-0.130891645315
-0.131189333777
-0.131503289827
-0.13183473044
-0.132184433255
-0.132555098549
-0.132948011234
-0.133361566888
-0.133791005506
-0.134237446159
-0.134708096929
-0.135191712186
-0.135675474275
-0.136166407475
-0.136694322197
-0.137409162507
-0.138247482082
-0.139088111957
-0.138538872127
-0.137915785793
-0.137223318817
-0.136136930089
-0.134707582971
-0.132943068691
-0.130830390395
-0.128448951128
-0.125886892957
-0.123231622952
-0.120545744288
-0.117879022038
-0.11528774451
-0.112820044974
-0.110497329783
-0.108322715192
-0.106312668696
-0.104417688912
-0.102764842838
-0.101702259738
-0.101628671837
-0.102830828908
-0.104945895583
-0.106738553278
-0.110394691163
-0.124278131171
-0.126963129204
-0.126964662584
-0.126966460322
-0.126975404358
-0.126989823566
-0.127005341624
-0.127024509066
-0.127048104253
-0.127077264251
-0.127119176675
-0.127164275039
-0.127210496554
-0.127256485161
-0.127308559458
-0.127368184953
-0.127427601547
-0.127485710643
-0.127546642918
-0.127609164542
-0.127673527437
-0.127741146148
-0.127811220879
-0.127892099618
-0.127995993787
-0.128133185377
-0.128301996007
-0.128486652809
-0.128664919971
-0.128834796204
-0.12901097287
-0.129200284558
-0.129405480041
-0.129632400329
-0.129875734864
-0.130138344033
-0.13041469143
-0.130702299012
-0.131005052769
-0.131325043366
-0.131663801403
-0.132021878691
-0.132401078211
-0.132805931785
-0.133238222849
-0.133690618349
-0.13414899121
-0.134614976956
-0.135086042375
-0.135550135977
-0.135989558826
-0.136364446434
-0.137147863315
-0.13828904829
-0.137304231753
-0.136448852147
-0.135765279053
-0.134590954074
-0.132898978162
-0.130792184003
-0.128305756821
-0.125512744233
-0.12252154545
-0.11942304584
-0.116293203328
-0.113173638583
-0.110081221148
-0.107021810293
-0.103986563669
-0.100944189924
-0.0978629220757
-0.0947697247647
-0.0917455243705
-0.0887861509001
-0.0860080909553
-0.0836789673131
-0.0821861170301
-0.0813277320811
-0.0783706694083
-0.0685492072687
-0.056050324439
-0.12684292929
-0.126844283284
-0.126845982958
-0.126856946053
-0.12686996754
-0.126882863718
-0.1268982084
-0.126922202463
-0.126946327548
-0.12698602054
-0.127029877566
-0.127074637863
-0.127119254357
-0.127169278362
-0.127228462253
-0.127288211412
-0.127346058138
-0.127405698067
-0.127466683473
-0.127530303194
-0.127597129154
-0.127663078869
-0.127737139211
-0.127832608493
-0.127957751831
-0.12811303401
-0.128290154345
-0.128467318946
-0.128639837521
-0.128806503671
-0.128990824828
-0.129192318417
-0.129412965009
-0.129649377144
-0.129911297282
-0.130195678351
-0.130490269701
-0.130800064184
-0.131126560989
-0.131473044166
-0.131841818112
-0.132234494165
-0.132659503394
-0.133119847126
-0.133593017679
-0.134061935715
-0.134532498292
-0.135014166007
-0.135485328458
-0.13582336388
-0.135528482927
-0.136957491738
-0.135769368817
-0.13455630815
-0.133912040824
-0.132755480739
-0.130929053573
-0.128575865496
-0.125809639674
-0.122704000994
-0.119356123197
-0.115864088623
-0.112296985973
-0.108693846569
-0.105059438678
-0.101379683473
-0.0976350024831
-0.0938008951462
-0.0898403880757
-0.0857135321681
-0.0814195095945
-0.0770014865089
-0.0723330024569
-0.0672193376367
-0.0616924097623
-0.0560293671695
-0.049504787379
-0.0362527825419
-0.00410698267242
0.0389139461814
-0.126713966547
-0.126715077047
-0.126717696005
-0.126731008223
-0.126742811437
-0.126753421668
-0.126766312566
-0.126788489253
-0.126807332234
-0.126843855773
-0.126886195538
-0.126929284867
-0.126972367101
-0.127020214567
-0.127077566615
-0.127136961021
-0.127195388319
-0.127253557563
-0.127311928704
-0.127373781976
-0.127439694916
-0.127502584219
-0.127568812967
-0.127655748855
-0.127769691498
-0.127910491185
-0.128075722332
-0.128243367145
-0.128418043991
-0.128586112997
-0.128761829663
-0.128953247656
-0.12917069964
-0.129408840977
-0.129662602615
-0.129946476316
-0.130249399338
-0.130567842724
-0.130904822848
-0.131261041117
-0.131640982951
-0.132054133431
-0.132511507412
-0.133003067743
-0.133494662969
-0.133981284112
-0.134485613415
-0.135045924177
-0.13567040862
-0.136475625246
-0.135162949312
-0.133787356331
-0.132707096232
-0.131862204821
-0.130803199125
-0.128938073112
-0.126429483686
-0.123425746804
-0.120057677398
-0.116419647379
-0.112603809542
-0.108682052072
-0.104696900968
-0.100663789768
-0.0965746882909
-0.0924101048756
-0.0881448253151
-0.0837432574932
-0.0791477834928
-0.0742735234728
-0.0690186765322
-0.0632749509122
-0.05688582587
-0.0494692290885
-0.0408488636347
-0.0311035966081
-0.0184622625002
0.00556741220314
0.0546350670296
0.113495703066
-0.126572202314
-0.126573090771
-0.126576579736
-0.126591963958
-0.126602216732
-0.126612334648
-0.12662365195
-0.1266423383
-0.126657670916
-0.126691969815
-0.126732719996
-0.126773851943
-0.126815076753
-0.1268602196
-0.126914491128
-0.126971923132
-0.127031524146
-0.127088230078
-0.127143742775
-0.127202865988
-0.127266227068
-0.127327755197
-0.127386292914
-0.127463463318
-0.127567023499
-0.127693802583
-0.127844851811
-0.127999399297
-0.128163738854
-0.12833652872
-0.12851382115
-0.128697145741
-0.128897857674
-0.12913117739
-0.12938971587
-0.129671338936
-0.129978329506
-0.130304455562
-0.130651733626
-0.131021453345
-0.13141943283
-0.131861866287
-0.132357142391
-0.132877268806
-0.133398539334
-0.133932228117
-0.134492828988
-0.135123823733
-0.136034242209
-0.134947183954
-0.133455327981
-0.131686406108
-0.130341176512
-0.129027972209
-0.127154837376
-0.124522063191
-0.121328682137
-0.117716247276
-0.113822664529
-0.109742422557
-0.105553214079
-0.101304294355
-0.0970193092337
-0.092700050468
-0.0883296397099
-0.083876081865
-0.0792905709407
-0.0745020280768
-0.0694113051695
-0.0638855456285