/*--------------------------------*- C++ -*----------------------------------*\
| =========                 |                                                 |
| \\      /  F ield         | OpenFOAM: The Open Source CFD Toolbox           |
|  \\    /   O peration     | Version:  v1806                                 |
|   \\  /    A nd           | Web:      www.OpenFOAM.com                      |
|    \\/     M anipulation  |                                                 |
\*---------------------------------------------------------------------------*/
FoamFile
{
    version     2.0;
    format      ascii;
    class       surfaceScalarField;
    location    "108";
    object      phia;
}
// * * * * * * * * * * * * * * * * * * * * * * * * * * * * * * * * * * * * * //

dimensions      [0 3 -1 0 0 0 0];
oriented        oriented;


internalField   nonuniform List<scalar> 
12640
(
1.58464484815e-07
-1.48439772057e-07
3.07977037086e-07
-1.43348974909e-07
4.46623002672e-07
-1.34377793649e-07
5.65969221759e-07
-1.16576220607e-07
6.50283728903e-07
-8.11108805636e-08
6.92070216805e-07
-3.70305757884e-08
7.09437694261e-07
-1.28396276968e-08
7.58083220282e-07
-4.45725969671e-08
8.44144682948e-07
-8.26691043238e-08
9.23787873029e-07
-7.69319796117e-08
9.96736281254e-07
-7.1384437715e-08
1.08450075147e-06
-8.65654636078e-08
1.16438493733e-06
-7.91006693792e-08
1.22513344504e-06
-6.0010012454e-08
1.27583674503e-06
-4.97618505382e-08
1.34114510109e-06
-6.34617296188e-08
1.41074777691e-06
-6.77458500903e-08
1.46285694911e-06
-5.00506747205e-08
1.49120758606e-06
-2.7394680802e-08
1.50488012979e-06
-1.36000547744e-08
1.537957354e-06
-3.36277127342e-08
1.60166041046e-06
-6.42690088261e-08
1.6789321217e-06
-7.80819220678e-08
1.76075818483e-06
-8.24364945435e-08
1.83794699876e-06
-7.77738751143e-08
1.9073253677e-06
-6.96690045541e-08
1.97659473117e-06
-6.95587843727e-08
2.04149507965e-06
-6.48591029425e-08
2.09653041373e-06
-5.50909275631e-08
2.14340857235e-06
-4.66408362268e-08
2.19291319039e-06
-4.94988380789e-08
2.24152175651e-06
-4.83472751567e-08
2.27834123713e-06
-3.62036157987e-08
2.31786319138e-06
-3.88761109012e-08
2.35479628405e-06
-3.68640499611e-08
2.38741275003e-06
-3.20593487201e-08
2.42858707441e-06
-4.10645686999e-08
2.46654100234e-06
-3.86527049407e-08
2.49698025992e-06
-3.16818375452e-08
2.54206869176e-06
-4.63433716033e-08
2.65286843927e-06
-1.12109731337e-07
2.77876375968e-06
-1.26789902952e-07
2.83954007917e-06
-6.13268915013e-08
2.86242816162e-06
-2.35730431969e-08
2.86800784596e-06
-6.22216242796e-09
2.85401838371e-06
1.33829044469e-08
2.82179266832e-06
3.15470280362e-08
2.7679382955e-06
5.31019539357e-08
2.69935447644e-06
6.77955290832e-08
2.64970111281e-06
4.91895607035e-08
2.65194900191e-06
-3.28942801606e-09
2.65229841341e-06
-6.52717908882e-10
2.52843570291e-06
1.24290628236e-07
2.33187585263e-06
1.96951794021e-07
2.10314493597e-06
2.29300257154e-07
1.80699266753e-06
2.96776566533e-07
1.53818442665e-06
2.68279779129e-07
1.33700503857e-06
2.00049841037e-07
1.12776620114e-06
2.07908473151e-07
9.07078174165e-07
2.18771111255e-07
7.07691145144e-07
1.96619223244e-07
5.09340272942e-07
1.97254341846e-07
2.45577775463e-07
2.64095124885e-07
5.76269400384e-08
1.89306141463e-07
-5.89339942417e-08
1.17256824073e-07
-1.36880689669e-07
7.86294446656e-08
-1.97638837319e-07
6.11565020761e-08
-2.52335289797e-07
5.51512757303e-08
-3.02907745104e-07
5.11729884511e-08
-3.46869056009e-07
4.49567136506e-08
-3.79472283923e-07
3.37343994563e-08
-3.95873175989e-07
1.75032435629e-08
-3.92328680488e-07
-2.13621946809e-09
-3.64313922333e-07
-2.63500346638e-08
-3.24783558048e-07
-3.76585331733e-08
-2.77351949641e-07
-4.59668035345e-08
-2.36808957609e-07
-3.91889733957e-08
-1.75806242381e-07
-6.00062282721e-08
-1.08176132914e-07
-6.19526363487e-08
-1.0662091655e-07
7.89932653949e-08
-2.26226881819e-07
1.80181598013e-07
-2.41098284681e-07
2.79452263369e-07
-2.31874588963e-07
3.8902039499e-07
-2.24416619875e-07
5.46573585287e-07
-2.35382036265e-07
6.80540812107e-07
-1.67361750656e-07
7.58447588575e-07
-8.61102660719e-08
8.23804172177e-07
-1.0622382431e-07
8.92092563446e-07
-1.47718105767e-07
9.71506058515e-07
-1.5440566184e-07
1.05085957064e-06
-1.49039733202e-07
1.11217263664e-06
-1.47056472124e-07
1.16862966236e-06
-1.34227369838e-07
1.22717740443e-06
-1.1704670886e-07
1.28629527057e-06
-1.06369714682e-07
1.35487632652e-06
-1.29965177475e-07
1.40847933056e-06
-1.18882079328e-07
1.40851537701e-06
-4.9295573161e-08
1.40173486577e-06
-2.02943949631e-08
1.42552576754e-06
-3.80497976301e-08
1.4834976354e-06
-9.23699719304e-08
1.58422405421e-06
-1.66345452013e-07
1.68989106081e-06
-1.84342214898e-07
1.76283972928e-06
-1.56369192632e-07
1.83181319452e-06
-1.47065079169e-07
1.91545508598e-06
-1.53983416641e-07
1.98730473561e-06
-1.41333312539e-07
2.04432943409e-06
-1.22235285598e-07
2.0958425452e-06
-1.06274854813e-07
2.14246460802e-06
-9.34201005723e-08
2.18031142029e-06
-8.68615386564e-08
2.21260528003e-06
-8.01055172333e-08
2.23372157477e-06
-5.66262180004e-08
2.25954202064e-06
-6.43723042318e-08
2.31036592405e-06
-8.66518421621e-08
2.34100600782e-06
-6.30171080279e-08
2.37153051108e-06
-7.19596677919e-08
2.43454030204e-06
-1.0265922507e-07
2.51392522497e-06
-1.11999526624e-07
2.57002240641e-06
-1.03857034104e-07
2.47691396871e-06
-1.94412282311e-08
2.3198434974e-06
2.97240852808e-08
2.27928810641e-06
-2.10274336569e-08
2.30401619433e-06
-4.91630547151e-08
2.34953474704e-06
-5.23387644783e-08
2.40986296895e-06
-4.80199448784e-08
2.46725201727e-06
-2.65187224862e-08
2.51817959831e-06
1.09452628419e-09
2.54943463831e-06
3.5910893925e-08
2.50724871046e-06
9.05481556786e-08
2.35879895521e-06
1.45110906125e-07
2.20122797404e-06
1.56535228336e-07
2.24333744941e-06
8.1935719729e-08
2.27448388349e-06
1.65330247679e-07
2.16046767688e-06
3.42969789793e-07
2.06142306465e-06
3.94695715158e-07
1.92928224683e-06
3.99388388495e-07
1.71213520354e-06
4.15754815785e-07
1.47153816426e-06
4.46916657716e-07
1.20062169188e-06
4.87411213444e-07
8.54094958763e-07
5.42486122116e-07
5.37958891566e-07
5.12817642334e-07
2.58636763654e-07
5.44358403374e-07
6.55413169099e-08
3.8377783865e-07
-5.2412174018e-08
2.36686350219e-07
-1.29859649739e-07
1.56630924568e-07
-1.93825440238e-07
1.25743997927e-07
-2.54268731682e-07
1.16066391862e-07
-3.08251233464e-07
1.05908746042e-07
-3.52624703892e-07
9.00479583176e-08
-3.81036040241e-07
6.30627999433e-08
-3.90589449144e-07
2.80528436739e-08
-3.90615758988e-07
-8.21265364931e-10
-3.87067704889e-07
-2.83276558932e-08
-3.67286468155e-07
-5.5663961257e-08
-3.35588091411e-07
-7.59227723191e-08
-2.83365700223e-07
-8.93605478697e-08
-2.20390457035e-07
-1.19903005137e-07
-1.21449555677e-07
-1.59416203508e-07
-2.22255376701e-07
1.06933056567e-07
-3.26238156956e-07
1.49945873752e-07
-2.8184497847e-07
2.88365997047e-07
-3.6801536298e-07
4.62856831554e-07
-3.9553111256e-07
6.15958894219e-07
-3.84645114431e-07
6.83199011851e-07
-2.31733076336e-07
7.14416901746e-07
-1.15302363072e-07
7.8603870976e-07
-1.75728794599e-07
8.72143257548e-07
-2.3211191948e-07
9.58854719523e-07
-2.39851144076e-07
1.04013117236e-06
-2.29305383847e-07
1.1066970407e-06
-2.11769628284e-07
1.16396909073e-06
-1.88874111007e-07
1.22180743437e-06
-1.71882018192e-07
1.25360517443e-06
-1.35286854548e-07
1.18258202337e-06
-5.67365387611e-08
1.06708874042e-06
-2.87315441701e-09
1.03909795928e-06
-2.13345047622e-08
1.09932930286e-06
-8.11888371068e-08
1.2661837969e-06
-2.05947338672e-07
1.46774678382e-06
-2.95047355749e-07
1.58688592871e-06
-2.862237215e-07
1.66116896464e-06
-2.59486404549e-07
1.75812940544e-06
-2.53855343346e-07
1.85086853836e-06
-2.40392156755e-07
1.91815161567e-06
-2.21464261849e-07
1.97494228774e-06
-1.98425368608e-07
2.02889742813e-06
-1.76103751011e-07
2.07519791585e-06
-1.52611103201e-07
2.11952217466e-06
-1.37359910028e-07
2.14791334577e-06
-1.14647093106e-07
2.16799028395e-06
-9.97753467538e-08
2.19980711186e-06
-8.73877902612e-08
2.18417671909e-06
-4.78550623153e-08
2.18389349628e-06
-8.66949898154e-08
2.26320625468e-06
-1.42694370598e-07
2.30045064034e-06
-1.1004870622e-07
2.33752104634e-06
-1.40926444057e-07
2.46497803625e-06
-2.40781335686e-07
2.60362276771e-06
-2.43167524484e-07
2.72599083895e-06
-1.42347148871e-07
2.81795873618e-06
-6.27017583805e-08
2.85643884965e-06
-6.03496069267e-08
2.87447227911e-06
-6.79559222337e-08
2.88320753961e-06
-6.20907751309e-08
2.87947206806e-06
-4.51579459419e-08
2.86764114123e-06
-1.57468689894e-08
2.84611027753e-06
2.17897686289e-08
2.8136286571e-06
6.75935832063e-08
2.77960280133e-06
1.24270082047e-07
2.74391083797e-06
1.80455435474e-07
2.67727333373e-06
2.22775328093e-07
2.49706664743e-06
2.61630528128e-07
2.29880294519e-06
3.63020672134e-07
2.19696311351e-06
4.43663670749e-07
2.0924640694e-06
4.97960551978e-07
1.91460828775e-06
5.7585906314e-07
1.68102026752e-06
6.48019517181e-07
1.41969845156e-06
7.0675246858e-07
1.14614200453e-06
7.59920271178e-07
8.87733160946e-07
7.99614790245e-07
5.82946849407e-07
8.1773351371e-07
2.98000029031e-07
8.31335079617e-07
8.42653577377e-08
5.98676141727e-07
-4.62300059502e-08
3.67966198046e-07
-1.35195935116e-07
2.4644159021e-07
-2.05399573828e-07
1.96531516579e-07
-2.60941117408e-07
1.72129271074e-07
-3.07515574743e-07
1.52897865669e-07
-3.46456742043e-07
1.29422512511e-07
-3.80183560858e-07
9.72646630526e-08
-4.12817552659e-07
6.15223504145e-08
-4.34514338709e-07
2.21356256523e-08
-4.29340798488e-07
-3.17175610622e-08
-3.96662072289e-07
-8.62197239109e-08
-3.48673745806e-07
-1.21595486177e-07
-2.9424048918e-07
-1.41935325215e-07
-2.34812161525e-07
-1.77915041356e-07
-1.04614920466e-07
-2.8121161255e-07
-3.27196836112e-07
7.0553321718e-08
-3.97136966989e-07
8.68209773026e-08
-2.96268482072e-07
2.60380700317e-07
-5.38613498807e-07
3.92195152095e-07
-5.23312833174e-07
3.6515484892e-07
-3.55048682565e-07
2.84772162761e-07
-1.50721664505e-07
4.06339487171e-07
-2.36633865362e-07
6.41652591913e-07
-4.10929219168e-07
8.12816137149e-07
-4.02660096104e-07
9.25914782412e-07
-3.52052671038e-07
1.02310424924e-06
-3.24531876286e-07
1.10045171187e-06
-2.86076410748e-07
1.13787196935e-06
-2.22780926662e-07
1.08582835058e-06
-1.1648171596e-07
9.76708140188e-07
-2.42172944007e-08
9.26223239329e-07
-6.02273990031e-09
9.67414100425e-07
-4.45615806565e-08
1.09682931492e-06
-1.51742526341e-07
1.30133158746e-06
-2.8683895298e-07
1.45436620726e-06
-3.59845394027e-07
1.52481134883e-06
-3.66182504836e-07
1.60311633702e-06
-3.65325611703e-07
1.69524562287e-06
-3.52210623131e-07
1.77170219772e-06
-3.3085769394e-07
1.83781476147e-06
-3.06693475789e-07
1.89553494681e-06
-2.79470428545e-07
1.95324073243e-06
-2.56033180316e-07
2.00322148765e-06
-2.26216793385e-07
2.05184833595e-06
-2.00944742657e-07
2.08351835032e-06
-1.68502702123e-07
2.11796480609e-06
-1.48498583112e-07
2.12672783471e-06
-1.07349994731e-07
2.10137054821e-06
-6.15437113912e-08
2.15772978375e-06
-1.04266314147e-07
2.19699522769e-06
-1.26258097394e-07
2.232057608e-06
-1.78833815044e-07
2.39339636816e-06
-2.72831420071e-07
2.55762980203e-06
-3.06501555633e-07
2.62761374883e-06
-3.11535681187e-07
2.66431173943e-06
-2.80606533541e-07
2.72713668476e-06
-2.05911463333e-07
2.80137889036e-06
-1.37856723251e-07
2.8496217383e-06
-1.09359382304e-07
2.87625315382e-06
-9.54317040134e-08
2.88977483622e-06
-7.63342985877e-08
2.89189268984e-06
-4.80931245094e-08
2.88508087586e-06
-9.66098089532e-09
2.8684879035e-06
3.75840285419e-08
2.84149520653e-06
9.40020573845e-08
2.80521971e-06
1.60049402883e-07
2.75385372014e-06
2.31557824057e-07
2.67103789656e-06
3.0536204175e-07
2.54442148168e-06
3.87889205355e-07
2.41607511401e-06
4.90548790595e-07
2.27513365264e-06
5.83598536043e-07
2.09648177199e-06
6.754127315e-07
1.88198680202e-06
7.89245577377e-07
1.62781443091e-06
9.01178658215e-07
1.34350427085e-06
9.9021201491e-07
1.05254189343e-06
1.04983917336e-06
7.74860363186e-07
1.07702950538e-06
5.16725925843e-07
1.07600303668e-06
3.24738066332e-07
1.02251193196e-06
1.06438473621e-07
8.17917239554e-07
-4.98940334684e-08
5.25614516182e-07
-1.42444405416e-07
3.39898961412e-07
-2.11764294448e-07
2.66543294869e-07
-2.72124600135e-07
2.32884316757e-07
-3.26092243151e-07
2.0693613228e-07
-3.7806103286e-07
1.81333509649e-07
-4.27999560291e-07
1.47587518706e-07
-4.59440937965e-07
9.38948102844e-08
-4.51460354794e-07
1.56911015498e-08
-4.18963571355e-07
-6.23150993639e-08
-3.79977138732e-07
-1.23040475857e-07
-3.21626443591e-07
-1.77656863399e-07
-2.41411264958e-07
-2.19607578749e-07
-1.69461288945e-07
-2.46235536871e-07
-9.04845240287e-08
-3.6114584594e-07
-4.13328133885e-07
6.16162928099e-09
-3.995588229e-07
8.0109346472e-08
-3.69026837549e-07
2.24175986378e-07
-6.78790099429e-07
2.93379992895e-07
-5.88166288221e-07
2.42721691778e-07
-3.0302474938e-07
2.99310937822e-07
-2.07537212114e-07
4.88325861814e-07
-4.26301000427e-07
6.4885852658e-07
-5.71149080875e-07
7.65260411884e-07
-5.18598393972e-07
8.76905380462e-07
-4.61931783687e-07
9.80306024517e-07
-4.2459518323e-07
1.00284927388e-06
-3.05327695865e-07
9.27688617069e-07
-1.44672763608e-07
8.68825133825e-07
-5.62066428072e-08
8.97102256917e-07
-5.26228518741e-08
9.92858480273e-07
-1.02576109548e-07
1.1535757713e-06
-2.06424194405e-07
1.32410278351e-06
-3.23522392005e-07
1.40908367195e-06
-3.72663979841e-07
1.44472674348e-06
-3.96159438349e-07
1.51905315789e-06
-4.4112822611e-07
1.60749488756e-06
-4.54331453021e-07
1.686787731e-06
-4.31933337e-07
1.75390576902e-06
-3.98100259151e-07
1.81415864738e-06
-3.67101394453e-07
1.87538427219e-06
-3.40460364506e-07
1.92055850741e-06
-3.01411689276e-07
1.9713369269e-06
-2.76708710913e-07
2.0040445175e-06
-2.33038492388e-07
2.04006512902e-06
-2.03737417294e-07
2.04476602461e-06
-1.52287806519e-07
2.0677510055e-06
-1.29893439701e-07
2.14823071348e-06
-1.41932132848e-07
2.16094603009e-06
-1.1766370915e-07
2.23294620349e-06
-1.99590766507e-07
2.3839789516e-06
-3.31360064714e-07
2.49693860814e-06
-3.87063082863e-07
2.57944762218e-06
-3.8987462213e-07
2.63429353357e-06
-3.67125547836e-07
2.67891273564e-06
-3.25936133883e-07
2.73689349126e-06
-2.647346714e-07
2.80140643358e-06
-2.0321831118e-07
2.85163607639e-06
-1.6046805815e-07
2.88441984261e-06
-1.28972890188e-07
2.90380462947e-06
-9.64447249209e-08
2.91231275953e-06
-5.72342726517e-08
2.91117452213e-06
-9.18150682547e-09
2.89982160633e-06
4.83434303383e-08
2.87666275223e-06
1.16599068378e-07
2.83958207719e-06
1.96779079544e-07
2.78284781557e-06
2.88062090864e-07
2.69837026709e-06
3.89640569388e-07
2.58415063239e-06
5.01734520357e-07
2.45177294083e-06
6.22331751366e-07
2.29190701594e-06
7.42649206272e-07
2.09151568256e-06
8.75022615406e-07
1.85012129715e-06
1.03007295381e-06
1.56667271607e-06
1.18421967801e-06
1.25328268682e-06
1.30300597276e-06
9.42253986534e-07
1.36026340781e-06
6.63595982709e-07
1.35450592236e-06
4.48557330295e-07
1.2894432938e-06
3.29127558924e-07
1.14242308879e-06
9.65661901521e-08
1.05124171459e-06
-5.54152274878e-08
6.78266919029e-07
-1.53510975266e-07
4.39061754893e-07
-2.29132963573e-07
3.42795949712e-07
-2.93256693986e-07
2.97068036339e-07
-3.52374897368e-07
2.6590084697e-07
-4.14426216908e-07
2.4342191542e-07
-4.66178802557e-07
1.99778114996e-07
-4.73695552321e-07
1.02569328799e-07
-4.51559125957e-07
-4.87108444987e-09
-4.2388879576e-07
-8.80448929452e-08
-3.80342088482e-07
-1.64112238907e-07
-3.11243783221e-07
-2.43948474732e-07
-2.44310684924e-07
-2.84651057812e-07
-1.71117305834e-07
-3.19083377918e-07
-7.78714168955e-08
-4.47057457842e-07
-4.92095634159e-07
9.22978674894e-10
-4.01896414413e-07
1.10322581836e-07
-4.76637092831e-07
1.79932505644e-07
-7.44900763845e-07
2.03901516781e-07
-6.0989933677e-07
1.84445647716e-07
-2.83060542363e-07
3.51815597395e-07
-3.75250016271e-07
5.54064745792e-07
-6.28590519422e-07
6.39805585428e-07
-6.56946611143e-07
7.25414017082e-07
-6.02393270606e-07
7.98138902965e-07
-5.31686514629e-07
8.05177767552e-07
-4.28476403165e-07
7.19299992487e-07
-2.16984238974e-07
6.98439491193e-07
-1.22893370563e-07
7.59449000049e-07
-1.17504845113e-07
8.73767853877e-07
-1.68001734271e-07
1.05779943645e-06
-2.88138458177e-07
1.24485503314e-06
-3.9481021549e-07
1.31693626574e-06
-3.96235276201e-07
1.34147555694e-06
-3.97761642705e-07
1.42918883672e-06
-4.84424833667e-07
1.52337349519e-06
-5.35780365672e-07
1.59532697466e-06
-5.26581315442e-07
1.66275783416e-06
-4.99493067733e-07
1.73280086737e-06
-4.6826819192e-07
1.79587750293e-06
-4.29904432896e-07
1.82121419481e-06
-3.65770974303e-07
1.87204649984e-06
-3.51846348785e-07
1.90343303954e-06
-3.07577569987e-07
1.93984928014e-06
-2.68947440147e-07
1.93137664592e-06
-1.9453495855e-07
1.93922435289e-06
-1.59497347765e-07
1.97560756305e-06
-1.66276719104e-07
2.00293516345e-06
-1.70006988036e-07
2.15017519106e-06
-2.66270969619e-07
2.32381971841e-06
-3.74948047591e-07
2.44313566039e-06
-4.52015370502e-07
2.52266615618e-06
-4.67508366212e-07
2.58375804654e-06
-4.51603526994e-07
2.63671481768e-06
-4.20604953717e-07
2.68865135997e-06
-3.78524554972e-07
2.74658875986e-06
-3.23496154886e-07
2.80693197513e-06
-2.64489828489e-07
2.85842073659e-06
-2.12817904093e-07
2.89648215435e-06
-1.67796878173e-07
2.92226755398e-06
-1.22868850167e-07
2.93741899458e-06
-7.29603168896e-08
2.94263555933e-06
-1.49084632002e-08
2.93676372388e-06
5.37395305892e-08
2.91742414162e-06
1.35547633668e-07
2.88142196888e-06
2.32482218242e-07
2.82427136533e-06
3.45036202729e-07
2.74137062919e-06
4.72356328029e-07
2.63072545533e-06
6.12034948806e-07
2.49167846351e-06
7.60901345452e-07
2.31434518307e-06
9.19521441782e-07
2.08977988049e-06
1.0993425774e-06
1.81862005908e-06
1.30125982001e-06
1.50641854535e-06
1.49644846453e-06
1.16719563356e-06
1.64203398871e-06
8.38630116908e-07
1.687738952e-06
5.73984034812e-07
1.61739235813e-06
3.95301433906e-07
1.46710682795e-06
2.63569626625e-07
1.27283071132e-06
8.58210572029e-08
1.22810637761e-06
-5.99668773778e-08
8.25750685925e-07
-1.53955245338e-07
5.34283039168e-07
-2.40886410164e-07
4.30492747716e-07
-3.20375998897e-07
3.7694243429e-07
-3.95860483519e-07
3.41439885536e-07
-4.64401634138e-07
3.12014198276e-07
-4.93175749505e-07
2.29319851202e-07
-4.8390216956e-07
9.45954557257e-08
-4.70655750431e-07
-1.63547703694e-08
-4.47275241687e-07
-1.09178226623e-07
-4.00540137035e-07
-2.08231746013e-07
-3.35980908724e-07
-3.06183237048e-07
-2.61965434474e-07
-3.56394549946e-07
-1.8050324736e-07
-3.96215851016e-07
-9.32464516553e-08
-5.36265386804e-07
-5.80949359629e-07
3.89936761027e-08
-4.39027620546e-07
1.80431208004e-07
-6.16553834437e-07
2.37526118142e-07
-7.97925279554e-07
1.8193926283e-07
-5.52214089341e-07
2.29756417823e-07
-3.31023660161e-07
4.43283276822e-07
-5.89201071683e-07
5.57094016312e-07
-7.42702890798e-07
6.20723035486e-07
-7.18841994328e-07
6.59589462704e-07
-6.39504620237e-07
7.26431008764e-07
-5.94954520427e-07
6.77354537692e-07
-3.76608039422e-07
6.3364698973e-07
-1.72233380034e-07
6.86337609788e-07
-1.75747555499e-07
7.71048226361e-07
-2.03585375238e-07
9.34194525653e-07
-3.3291158209e-07
1.12936551522e-06
-4.84426281286e-07
1.19833581792e-06
-4.64291624898e-07
1.21256283908e-06
-4.11008511554e-07
1.31389425396e-06
-4.99723219091e-07
1.42637104304e-06
-5.97344974181e-07
1.50664019987e-06
-6.16267130893e-07
1.57625946641e-06
-5.9627437649e-07
1.64350176488e-06
-5.66914276616e-07
1.69211522231e-06
-5.16583382608e-07
1.71987527662e-06
-4.57331937441e-07
1.75618236514e-06
-4.018273217e-07
1.77483408315e-06
-3.70171960512e-07
1.81414619317e-06
-3.46628726056e-07
1.82346314868e-06
-2.77628234837e-07
1.8156737443e-06
-1.86296143579e-07
1.86440056938e-06
-2.08308074356e-07
1.92981419213e-06
-2.32115673876e-07
2.03776860468e-06
-2.79222172337e-07
2.19036906886e-06
-4.20565943056e-07
2.36212110433e-06
-5.48075678375e-07
2.45987835204e-06
-5.50712606607e-07
2.52451698808e-06
-5.32783610456e-07
2.58206033556e-06
-5.09628527633e-07
2.63928612989e-06
-4.78341038835e-07
2.69679587721e-06
-4.36676426052e-07
2.75644690666e-06
-3.83936189912e-07
2.81622012293e-06
-3.2510341294e-07
2.86957965407e-06
-2.6698383317e-07
2.9125529497e-06
-2.11470578354e-07
2.94484036449e-06
-1.55750445667e-07
2.96715341501e-06
-9.57705288059e-08
2.97930687274e-06
-2.74837739765e-08
2.97954386272e-06
5.31591918292e-08
2.96505622049e-06
1.49760071334e-07
2.93255562127e-06
2.64794947926e-07
2.87820913984e-06
3.99237281481e-07
2.79796529072e-06
5.52400746022e-07
2.68756795015e-06
7.22206687174e-07
2.54059018455e-06
9.07649337589e-07
2.34692106985e-06
1.1131984115e-06
2.10004366783e-06
1.34659266696e-06
1.80131748551e-06
1.60049368759e-06
1.45669405513e-06
1.84127646461e-06
1.08316958202e-06
2.01442767162e-06
7.36793918937e-07
2.03188168725e-06
5.05994609099e-07
1.8460708445e-06
3.74285045791e-07
1.59631295596e-06
2.25531817712e-07
1.41969309819e-06
1.448694746e-07
1.30994352334e-06
-5.25338264843e-08
1.02456477215e-06
-1.66495175648e-07
6.49836877931e-07
-2.70798377028e-07
5.36225943632e-07
-3.71259373099e-07
4.78364867302e-07
-4.56231824358e-07
4.2692626258e-07
-5.06094678764e-07
3.62558865889e-07
-5.14052841073e-07
2.38320576126e-07
-5.14627529761e-07
9.66955272962e-08
-5.12896911626e-07
-1.60550593871e-08
-4.90929018151e-07
-1.28657734941e-07
-4.42400923237e-07
-2.54070378721e-07
-3.84770949171e-07
-3.61030650389e-07
-2.99075261079e-07
-4.39769909579e-07
-2.03039876947e-07
-4.92340309176e-07
-1.10462789886e-07
-6.20476453419e-07
-6.92740539311e-07
7.45465511469e-08
-5.14938461115e-07
2.11964042167e-07
-7.52026658514e-07
2.20997413084e-07
-8.0601063348e-07
1.26821143328e-07
-4.57551719838e-07
2.69163042167e-07
-4.73471729958e-07
4.58606991693e-07
-7.78866865771e-07
5.26956997286e-07
-8.09851075942e-07
5.94560949007e-07
-7.85035845734e-07
5.75153670306e-07
-6.16504029402e-07
5.81068353543e-07
-5.98756907451e-07
5.26828543606e-07
-3.2105359529e-07
6.05335091697e-07
-2.50820674322e-07
6.76703011484e-07
-2.48247045236e-07
8.04662017511e-07
-3.32961166047e-07
9.89654164283e-07
-5.19338318936e-07
1.07870672357e-06
-5.74297418258e-07
1.08763645658e-06
-4.73511719379e-07
1.1848224137e-06
-5.08672273845e-07
1.31318441943e-06
-6.28633189978e-07
1.4010655208e-06
-6.85515862521e-07
1.46977129887e-06
-6.85055122556e-07
1.53577114903e-06
-6.62510804673e-07
1.61055709598e-06
-6.41368323469e-07
1.67797866852e-06
-5.8351567671e-07
1.68841666691e-06
-4.67598478288e-07
1.73354648806e-06
-4.46426424156e-07
1.75036789667e-06
-3.8670434541e-07
1.73220216948e-06
-3.28082686085e-07
1.73648826485e-06
-2.81814753133e-07
1.85739856059e-06
-3.07228013328e-07
1.92253334479e-06
-2.73677002749e-07
1.93769149251e-06
-2.48462759932e-07
2.08870173511e-06
-4.31720855698e-07
2.28167382089e-06
-6.15033656795e-07
2.37848694834e-06
-6.45941179275e-07
2.45229158468e-06
-6.25188610402e-07
2.5170308719e-06
-5.97991629108e-07
2.57888797426e-06
-5.71885969823e-07
2.64125188415e-06
-5.41161701429e-07
2.70390075253e-06
-4.99919168353e-07
2.76645574265e-06
-4.4722680237e-07
2.82762678523e-06
-3.8706590344e-07
2.88394761785e-06
-3.24051212198e-07
2.93222237854e-06
-2.60380142151e-07
2.97136531168e-06
-1.95407582855e-07
3.00127723714e-06
-1.26072177761e-07
3.02099720924e-06
-4.74910311629e-08
3.02826874422e-06
4.5694597242e-08
3.02019863786e-06
1.57710238007e-07
2.99364354322e-06
2.91266174334e-07
2.94485903782e-06
4.47915996e-07
2.86901319988e-06
6.28106605996e-07
2.75916907436e-06
8.31853603736e-07
2.60573450443e-06
1.06111678682e-06
2.39852977745e-06
1.32079983409e-06
2.13277577648e-06
1.61319930108e-06
1.8088917778e-06
1.92523232622e-06
1.42508386036e-06
2.22446926671e-06
9.86917723993e-07
2.45043758967e-06
6.00876103519e-07
2.41486326035e-06
3.97273152497e-07
2.04683957613e-06
2.98641690792e-07
1.69299226246e-06
2.34062416546e-07
1.48322291324e-06
1.95086984132e-07
1.34907473324e-06
1.70960670037e-08
1.20402876483e-06
-1.77603126643e-07
8.46900628487e-07
-3.04497449869e-07
6.65458353748e-07
-4.14465437437e-07
5.90581629528e-07
-4.95690720444e-07
5.09596022768e-07
-5.33859214749e-07
4.01952835347e-07
-5.49670933476e-07
2.55436538195e-07
-5.6821885488e-07
1.17025747872e-07
-5.74480275018e-07
-7.57312965814e-09
-5.55103801922e-07
-1.45421181188e-07
-5.12343684759e-07
-2.94147883229e-07
-4.5200626611e-07
-4.1893741508e-07
-3.60354896416e-07
-5.29034802085e-07
-2.3457025774e-07
-6.12727155809e-07
-1.26860743435e-07
-7.31113594038e-07
-8.14910187803e-07
1.03867165487e-07
-6.17009057268e-07
2.10428468458e-07
-8.56965523042e-07
1.70229084262e-07
-7.63518706945e-07
1.69260363769e-07
-4.563297357e-07
3.49608482725e-07
-6.53692759176e-07
4.26695396241e-07
-8.55288865416e-07
4.88376851193e-07
-8.69502752849e-07
5.44153599427e-07
-8.38280546081e-07
5.42593871748e-07
-6.13293151142e-07
5.4698407854e-07
-6.00801759604e-07
5.45877075707e-07
-3.19893134522e-07
6.10794407289e-07
-3.16318973944e-07
6.95610619829e-07
-3.34601222067e-07
8.53306101036e-07
-4.92585495208e-07
1.01793747969e-06
-6.84572322768e-07
1.04313315633e-06
-5.99482484228e-07
1.0758086358e-06
-5.06568912171e-07
1.18243789159e-06
-6.15969545349e-07
1.28998907485e-06
-7.36651665746e-07
1.36847430578e-06
-7.64277342806e-07
1.43152881219e-06
-7.48566096387e-07
1.47895159182e-06
-7.09640879442e-07
1.51883579797e-06
-6.8053516091e-07
1.55693253191e-06
-6.21126387284e-07
1.58717220756e-06
-4.97065685481e-07
1.61744131049e-06
-4.76359033264e-07
1.67499245814e-06
-4.44101896381e-07
1.74216231227e-06
-3.95030497043e-07
1.80626369391e-06
-3.45691361825e-07
1.84583502164e-06
-3.4699729821e-07
1.9148863759e-06
-3.43838640389e-07
2.08243845249e-06
-4.17636520831e-07
2.21390561244e-06
-5.64966649286e-07
2.30178068345e-06
-7.0423688728e-07
2.3729222372e-06
-7.1781626718e-07
2.44095727318e-06
-6.93668112445e-07
2.50855243316e-06
-6.65938757449e-07
2.57486976786e-06
-6.38578637855e-07
2.64138434139e-06
-6.08143418087e-07
2.70862070133e-06
-5.67747987771e-07
2.7754736093e-06
-5.14756251909e-07
2.8401517368e-06
-4.52438330199e-07
2.90062163378e-06
-3.851486353e-07
2.95489080546e-06
-3.15170920458e-07
3.00149911075e-06
-2.42396735356e-07
3.03940390867e-06
-1.64232118924e-07
3.06722936244e-06
-7.54455122245e-08
3.08268962149e-06
3.01938604876e-08
3.0829766726e-06
1.57422771476e-07
3.0650860627e-06
3.09146819372e-07
3.02513276969e-06
4.87777488068e-07
2.95704995708e-06
6.96017310191e-07
2.85141950933e-06
9.3749140502e-07
2.69592619187e-06
1.21696949343e-06
2.47974261153e-06
1.53812702204e-06
2.19727167692e-06
1.89723570303e-06
1.84182691323e-06
2.28064587406e-06
1.39331887675e-06
2.6709898282e-06
8.3671757107e-07
3.00285106073e-06
4.15673838061e-07
2.83238192866e-06
2.9710182473e-07
2.16367422456e-06
2.6613583941e-07
1.72264702218e-06
2.31833955325e-07
1.51732127064e-06
1.83711045393e-07
1.39675994155e-06
1.07253443421e-07
1.28223425562e-06
-1.24014272672e-07
1.08084232122e-06
-3.51129600253e-07
8.96412803863e-07
-4.67111066051e-07
7.09231940137e-07
-5.38868981807e-07
5.841495401e-07
-5.75035304611e-07
4.4007096996e-07
-6.08220634002e-07
2.90286741588e-07
-6.41542073873e-07
1.52131929914e-07
-6.53513468047e-07
6.68827629283e-09
-6.37133068906e-07
-1.59432535628e-07
-5.99340310855e-07
-3.29465795244e-07
-5.32646825753e-07
-4.82998573474e-07
-4.31859598499e-07
-6.27203090372e-07
-2.87505593432e-07
-7.57876499471e-07
-1.38352137968e-07
-8.7155065025e-07
-9.55119601834e-07
1.28435643687e-07
-7.47241418761e-07
2.20881113103e-07
-9.49271917396e-07
1.54243538977e-07
-6.96418674831e-07
2.11968001273e-07
-5.13338152045e-07
3.72825945396e-07
-8.13546461536e-07
3.8271696422e-07
-8.62850491887e-07
4.3909849909e-07
-9.24627478119e-07
4.39284010295e-07
-8.35995934328e-07
4.84514952917e-07
-6.57262931533e-07
4.57245281286e-07
-5.73124086951e-07
5.21774299193e-07
-3.84584103697e-07
6.03962138548e-07
-3.99988042115e-07
7.01655093666e-07
-4.33578102214e-07
8.53064717486e-07
-6.44919448096e-07
9.35232588446e-07
-7.67401295188e-07
9.31118232544e-07
-5.95489784241e-07
1.02614606129e-06
-6.0202467067e-07
1.1478173329e-06
-7.38231391339e-07
1.24541458405e-06
-8.34718728657e-07
1.32896971264e-06
-8.48299483904e-07
1.39904330082e-06
-8.18223481626e-07
1.46269806732e-06
-7.72800172074e-07
1.48646123009e-06
-7.03803319726e-07
1.49974164601e-06
-6.33560845821e-07
1.57004201169e-06
-5.66939839851e-07
1.5849730692e-06
-4.91137710417e-07
1.57130687317e-06
-4.29825498176e-07
1.58241835701e-06
-4.05861215718e-07
1.67347671346e-06
-4.36950600507e-07
1.79726694281e-06
-4.71450975373e-07
1.9143663297e-06
-4.62303628439e-07
2.03234072665e-06
-5.37544027564e-07
2.20439912487e-06
-7.38936507888e-07
2.29360182156e-06
-7.94426706051e-07
2.36017094212e-06
-7.84906605172e-07
2.42926097024e-06
-7.63126114622e-07
2.50020351227e-06
-7.37226671552e-07
2.57038192817e-06
-7.09131817632e-07
2.64024003429e-06
-6.7845569785e-07
2.71126306785e-06
-6.3929892987e-07
2.78271176999e-06
-5.8679312791e-07
2.85239639816e-06
-5.22701422929e-07
2.91841815524e-06
-4.51675950826e-07
2.97943051892e-06
-3.76554509485e-07
3.03415591464e-06
-2.97351870222e-07
3.08095083263e-06
-2.11093206062e-07
3.11770583365e-06
-1.12143351253e-07
3.14234702864e-06
5.6997102741e-09
3.15286871566e-06
1.47073818203e-07
3.14674418211e-06
3.15355295525e-07
3.12003035803e-06
5.14484261691e-07
3.06557375476e-06
7.50416325729e-07
2.97109104152e-06
1.03193354375e-06
2.82073601347e-06
1.36789250578e-06
2.60022437486e-06
1.76023392159e-06
2.29847632459e-06
2.1998393149e-06
1.89083067841e-06
2.68779128132e-06
1.30135117976e-06
3.25652291012e-06
5.4025839588e-07
3.7582786658e-06
2.44077852563e-07
3.12549664419e-06
2.77317868225e-07
2.1303242546e-06
2.86326214732e-07
1.71419249925e-06
2.39717919349e-07
1.56314729676e-06
1.64818335912e-07
1.47205667705e-06
8.10197079724e-08
1.36703882663e-06
-9.40158825511e-08
1.25858868078e-06
-3.27185721653e-07
1.13321164195e-06
-5.02257454162e-07
8.8907164108e-07
-5.73962476481e-07
6.59218970089e-07
-6.26659540134e-07
4.94559633833e-07
-6.83048151986e-07
3.49263616246e-07
-7.27736414891e-07
1.9862212846e-07
-7.47325821164e-07
2.8043721589e-08
-7.37203875173e-07
-1.67553899661e-07
-6.98768137737e-07
-3.65995943918e-07
-6.25303932857e-07
-5.54180796135e-07
-5.10059192275e-07
-7.4019721652e-07
-3.49030614051e-07
-9.13230901373e-07
-1.7200248422e-07