/*--------------------------------*- C++ -*----------------------------------*\
| =========                 |                                                 |
| \\      /  F ield         | OpenFOAM: The Open Source CFD Toolbox           |
|  \\    /   O peration     | Version:  v1806                                 |
|   \\  /    A nd           | Web:      www.OpenFOAM.com                      |
|    \\/     M anipulation  |                                                 |
\*---------------------------------------------------------------------------*/
FoamFile
{
    version     2.0;
    format      ascii;
    class       volScalarField;
    location    "793";
    object      pa;
}
// * * * * * * * * * * * * * * * * * * * * * * * * * * * * * * * * * * * * * //

dimensions      [0 2 -2 0 0 0 0];


internalField   nonuniform List<scalar> 
6400
(
-0.121455987613
-0.121456707248
-0.121458742181
-0.121462753819
-0.12146880667
-0.121476966442
-0.121487318412
-0.121500275712
-0.121516327062
-0.121536131387
-0.121561484604
-0.121593581015
-0.121632179086
-0.121677706505
-0.121731250813
-0.121794228969
-0.12186792108
-0.121953049549
-0.12204966242
-0.12215670104
-0.122273029749
-0.12239995949
-0.122541022473
-0.122700078292
-0.12288003461
-0.123081893776
-0.123305287684
-0.123550127854
-0.123817274174
-0.124108108176
-0.12442395573
-0.124764951227
-0.125129043849
-0.125513936813
-0.125918917917
-0.126343217925
-0.126787759601
-0.127256468859
-0.127748925066
-0.128260039973
-0.128790615969
-0.129348857585
-0.12993922383
-0.130556559855
-0.131193044402
-0.131842729519
-0.132500818418
-0.133163275602
-0.133826179739
-0.134485878978
-0.135139044069
-0.135780165869
-0.136400063346
-0.136987395302
-0.137538316893
-0.138054441233
-0.138529477188
-0.138951338353
-0.139314064008
-0.139621583678
-0.139877542383
-0.140082239638
-0.140235187136
-0.140358073097
-0.140490132733
-0.140671677787
-0.140902861778
-0.141135090982
-0.141330021892
-0.141484597437
-0.141609051413
-0.141715005594
-0.141809898575
-0.141891467335
-0.141961968842
-0.142021548172
-0.142069590381
-0.142100392812
-0.142119737405
-0.142127881714
-0.121455022166
-0.12145578874
-0.121457630862
-0.121461518977
-0.121467855856
-0.121476278471
-0.121486625781
-0.121499041747
-0.121514475606
-0.12153405849
-0.121559111044
-0.121590690095
-0.121629040479
-0.121674436423
-0.121727580969
-0.121789688837
-0.121862705424
-0.12194754793
-0.122044017611
-0.122150691641
-0.122265863082
-0.122391613765
-0.122532018165
-0.122690553314
-0.122870072262
-0.123071581694
-0.12329444944
-0.12353885317
-0.123805698728
-0.124096144769
-0.124411324644
-0.124751845618
-0.125115752112
-0.125500058765
-0.125904573229
-0.126328603974
-0.126772749672
-0.127241497903
-0.127734496631
-0.128246101466
-0.128776301058
-0.129334722272
-0.129926939503
-0.130545796172
-0.131183138552
-0.131833868977
-0.132493159303
-0.133157120927
-0.133821532042
-0.134481780489
-0.135134410793
-0.135776479287
-0.136400335854
-0.136990026393
-0.137542839065
-0.138061697616
-0.138535846615
-0.138955533212
-0.1393185779
-0.13962603856
-0.139879873161
-0.140084827171
-0.140240799487
-0.140368142221
-0.140504168444
-0.140687043226
-0.140921348089
-0.141153323059
-0.141346728254
-0.14150062713
-0.141624622346
-0.141730645919
-0.141826226158
-0.141908725916
-0.141977782047
-0.142034674906
-0.142078576854
-0.142107891659
-0.142126428753
-0.142132555898
-0.121452256818
-0.121453467968
-0.121455099573
-0.121458601978
-0.121464609145
-0.121473769189
-0.12148463668
-0.121496368932
-0.121510775352
-0.121529573203
-0.121553950362
-0.121584806358
-0.121622517357
-0.121667294637
-0.121719535367
-0.121779638354
-0.121850675045
-0.1219355781
-0.122031795154
-0.122137081532
-0.122250115005
-0.122373177039
-0.122512113565
-0.122670261864
-0.122848805049
-0.123048857278
-0.123270726004
-0.123514356852
-0.123780334264
-0.124069786355
-0.124383799
-0.124723295891
-0.125086785904
-0.125469579065
-0.125872203848
-0.12629617933
-0.126739769681
-0.127207480963
-0.127700783068
-0.128214099575
-0.128747789133
-0.129308803156
-0.129900925625
-0.130519676114
-0.131158021836
-0.131810365586
-0.132471967138
-0.133138569163
-0.133805901905
-0.134469693185
-0.135126048182
-0.135770112097
-0.136393500869
-0.136986837496
-0.137546714936
-0.138068215038
-0.138541634541
-0.138960860966
-0.139323980432
-0.139631583121
-0.139886331375
-0.140091006357
-0.1402508351
-0.140388331529
-0.140538691655
-0.140731148279
-0.140958390478
-0.141183359724
-0.141377799422
-0.141534125025
-0.141660348761
-0.141767168331
-0.141859155551
-0.141936608676
-0.142002586062
-0.142056208716
-0.142095679941
-0.14212218076
-0.142138549191
-0.142144338996
-0.121448287643
-0.121449491462
-0.121450831242
-0.121453951945
-0.121459056824
-0.121467827424
-0.121480850161
-0.121492315934
-0.121505319819
-0.121522865799
-0.121546190356
-0.121576103909
-0.121612925362
-0.121656451746
-0.121707048457
-0.121766451334
-0.121836712062
-0.121919118657
-0.122011474856
-0.122111999453
-0.122222344761
-0.122345067498
-0.122483132111
-0.122639636148
-0.122816564872
-0.123015008753
-0.123235364604
-0.123477621332
-0.123742233927
-0.124030149824
-0.124342715604
-0.124680703993
-0.125042710083
-0.125424926312
-0.125824642918
-0.126245718611
-0.126690120617
-0.127157471956
-0.127649420113
-0.128164709049
-0.128702950381
-0.129267728263
-0.129861461541
-0.130481249398
-0.131121370437
-0.131776307279
-0.132441182251
-0.133111544065
-0.133783053367
-0.134451386709
-0.135112117326
-0.135759760011
-0.136386866344
-0.136985800342
-0.137550851602
-0.138074928552
-0.138549530429
-0.13896935879
-0.139332819306
-0.139640787972
-0.139896234434
-0.140104282898
-0.140276433149
-0.140433181316
-0.140596181522
-0.140786239243
-0.141011264707
-0.141236319442
-0.141432484961
-0.141590694647
-0.141715476308
-0.14181599277
-0.141900686636
-0.14197664188
-0.142042156819
-0.142090955488
-0.142123835946
-0.142148124191
-0.142164729679
-0.142171498059
-0.121442084019
-0.121442305678
-0.12144384962
-0.121446862409
-0.121452193729
-0.121459728996
-0.121471136623
-0.121483327409
-0.121496557053
-0.121513452873
-0.121535556673
-0.121564329036
-0.121599959504
-0.121642844404
-0.121693110661
-0.121750492379
-0.121816940928
-0.121893822982
-0.121981106909
-0.122078660472
-0.12218714984
-0.122308118751
-0.122444390871
-0.122598912809
-0.12277362897
-0.122969830847
-0.12318796282
-0.123428233348
-0.123690992611
-0.123977002869
-0.124287375054
-0.124623772926
-0.124984899704
-0.125363500601
-0.12576038693
-0.126179008623
-0.12662113743
-0.12708870519
-0.127581915981
-0.128099811764
-0.128642241028
-0.129211079118
-0.129807584421
-0.130429625515
-0.131072522357
-0.131731047341
-0.132400245424
-0.133075509122
-0.133752408492
-0.134426495747
-0.13509299299
-0.135746177855
-0.136379116037
-0.13698453937
-0.13755526308
-0.13808304615
-0.138559980008
-0.138981413212
-0.139346192617
-0.139655951052
-0.139915255561
-0.140132622608
-0.140322679629
-0.140499309407
-0.140672434173
-0.140865018991
-0.14108759993
-0.141311602064
-0.141508964823
-0.141666792448
-0.141785869671
-0.141878890341
-0.141962915076
-0.142041035898
-0.142102116346
-0.14214382263
-0.142172907724
-0.142198471015
-0.142213349357
-0.142217965898
-0.121431029086
-0.121430922739
-0.121433298387
-0.121436167511
-0.121441534089
-0.121448735008
-0.121459089789
-0.121470819784
-0.121484320655
-0.121500784928
-0.121521347069
-0.121548627456
-0.121583929554
-0.121626325619
-0.12167406078
-0.12172789794
-0.121789824836
-0.121861910759
-0.121944879291
-0.122038778925
-0.122143911016
-0.122262097298
-0.122395924622
-0.122547952649
-0.122719958564
-0.122913034814
-0.123128279537
-0.123365905195
-0.123626301844
-0.123910001726
-0.124218007396
-0.124551508398
-0.124908928255
-0.125286327965
-0.125679124705
-0.126093607859
-0.12653448603
-0.127002721434
-0.12749772328
-0.128018612444
-0.128565226315
-0.129138479942
-0.129738804977
-0.130364366323
-0.131011190936
-0.13167438987
-0.132349013125
-0.133030347312
-0.133713872231
-0.134395024358
-0.135068825046
-0.135729451451
-0.136370083024
-0.136983166289
-0.137560470353
-0.138093248125
-0.138574103252
-0.138999025141
-0.139367566871
-0.139682602851
-0.139950649467
-0.140182526038
-0.140393328296
-0.140585812329
-0.140769619921
-0.14097132513
-0.141197842147
-0.141419655771
-0.141613458186
-0.141764832612
-0.141875981305
-0.141968181127
-0.142057174342
-0.142131980799
-0.142184986899
-0.142219969056
-0.142248056983
-0.14227042642
-0.142281023053
-0.14228503102
-0.121414520951
-0.121415523971
-0.121419206368
-0.121423155204
-0.12142696526
-0.121433790201
-0.121443995536
-0.121455293425
-0.121468526095
-0.121484365922
-0.121504490162
-0.121529942263
-0.121563895372
-0.121603522122
-0.121647801491
-0.121697630123
-0.121755558856
-0.121823723768
-0.12190252427
-0.121991594567
-0.122092475183
-0.122207291921
-0.122337868456
-0.12248647882
-0.122655025238
-0.122844938165
-0.12305580622
-0.123289958609
-0.123547622333
-0.123829243357
-0.124133883211
-0.124462996578
-0.124816549945
-0.125188414635
-0.125578246821
-0.125990415738
-0.126430464833
-0.126899422414
-0.127396389445
-0.127920448574
-0.128471360225
-0.129049450972
-0.12965455889
-0.130284891286
-0.130936894789
-0.131605967654
-0.132287214993
-0.132975870909
-0.133667351301
-0.134357012667
-0.135039760803
-0.135709666588
-0.136359745181
-0.13698194651
-0.137567355784
-0.138107131128
-0.138594476934
-0.139026169297
-0.139402676554
-0.139727970673
-0.140009955157
-0.14026029549
-0.140488969622
-0.140698274408
-0.140901277782
-0.141115370385
-0.141345413515
-0.141561202738
-0.141744733401
-0.141887259706
-0.141997336191
-0.142096551193
-0.142185784021
-0.142251330244
-0.14229479701
-0.142323720584
-0.142348472436
-0.142362525961
-0.142365591296
-0.142367466114
-0.121395395886
-0.121397421119
-0.121401341859
-0.121406547126
-0.121409936597
-0.121416793937
-0.121425834243
-0.121436610144
-0.121449524526
-0.121463257782
-0.121483118275
-0.121507981356
-0.121538866422
-0.121574808339
-0.121615240857
-0.121660776969
-0.121715042566
-0.121779323177
-0.121853041986
-0.121936847593
-0.122032917203
-0.122143438331
-0.122269932567
-0.122414789367
-0.122579406272
-0.12276465424
-0.122971734388
-0.123199554661
-0.123454420101
-0.123733952755
-0.124034692868
-0.124356556208
-0.12470442573
-0.125071557112
-0.125457606892
-0.125868840898
-0.126308718198
-0.126778324801
-0.127277202395
-0.127804540971
-0.128359962615
-0.128943384617
-0.129554211559
-0.13019055721
-0.130849066789
-0.131525336737
-0.132214542987
-0.132911906953
-0.133612807596
-0.134312551574
-0.135005971367
-0.135687013736
-0.136348425926
-0.136981705232
-0.137577605669
-0.138127519376
-0.138625346819
-0.139068526345
-0.139457922773
-0.139797775535
-0.140096144803
-0.140364281603
-0.140611979825
-0.140846446002
-0.14107073158
-0.141299281685
-0.141527884192
-0.141736157465
-0.141910246354
-0.142049199785
-0.142164926823
-0.142268963962
-0.142349763486
-0.142402689954
-0.142434978794
-0.142456087658
-0.142468406754
-0.142469570024
-0.142461392964
-0.142456823058
-0.121374793964
-0.121377274677
-0.121380802827
-0.121384298891
-0.121388416975
-0.121396268733
-0.121404271809
-0.121414098517
-0.121426998738
-0.121439897668
-0.121456188321
-0.121479928931
-0.121508411615
-0.121540200082
-0.121576734735
-0.121619026908
-0.121668655192
-0.121727774965
-0.12179607874
-0.121874613926
-0.12196541138
-0.122070556748
-0.122191501279
-0.12233121662
-0.122492614588
-0.122671712327
-0.122873768497
-0.123098242284
-0.123346372061
-0.123620461637
-0.123917203235
-0.124235916309
-0.124573441208
-0.124933913738
-0.125317949072
-0.125728540623
-0.126168317668
-0.126638546959
-0.127139282253
-0.127669986009
-0.128230199215
-0.128819518834
-0.129437008021
-0.130080625386
-0.130747055996
-0.131431994102
-0.132130673636
-0.132838318818
-0.133550276973
-0.134261818091
-0.134967739222
-0.135661906566
-0.136336888318
-0.136983975238
-0.13759396259
-0.138158643093
-0.138672283265
-0.139132082079
-0.139538329966
-0.139895316185
-0.140210954482
-0.140497581456
-0.140767590778
-0.141027453234
-0.141277120105
-0.141523028905
-0.141758202351
-0.141955524441
-0.142122503676
-0.142263275369
-0.142386320443
-0.14248710924
-0.142553332358
-0.142590006078
-0.142608356345
-0.142614026823
-0.142604945023
-0.142585999866
-0.142563150223
-0.14254910259
-0.121352603928
-0.12135522497
-0.121358887281
-0.121361247989
-0.121365264833
-0.121372130978
-0.12137913122
-0.121387430398
-0.121398219194
-0.121412328697
-0.121426122537
-0.121446678068
-0.121472166762
-0.121500272355
-0.121532228063
-0.121571020226
-0.121616509558
-0.121669654585
-0.121731630322
-0.121804347458
-0.121889681787
-0.121989184815
-0.122103880514
-0.122235925474
-0.122392350881
-0.122567821665
-0.12275983961
-0.122979513332
-0.123221413577
-0.123490544095
-0.123781640584
-0.124093370609
-0.12442474901
-0.124778245212
-0.125159011646
-0.125568592516
-0.126008202274
-0.126479034948
-0.126981593166
-0.127515728651
-0.128081041751
-0.128676893792
-0.12930203805
-0.129954236332
-0.13063011855
-0.131325390025
-0.132035296618
-0.132755041917
-0.133479916153
-0.134205145079
-0.134925542978
-0.13563506068
-0.136326386285
-0.136991073221
-0.137620334579
-0.138206084328
-0.138741589014
-0.139221805762
-0.139646901147
-0.140024551728
-0.140360983108
-0.140667736004
-0.14096046653
-0.141243916116
-0.141518830477
-0.141782444674
-0.142022144216
-0.142230608258
-0.142394214412
-0.142539820641
-0.142667110156
-0.142757101753
-0.142803040903
-0.142817396761
-0.142818098059
-0.142799166289
-0.142760284208
-0.142712134226
-0.142669121106
-0.142643126562
-0.121328081269
-0.121330299092
-0.12133369086
-0.121335994672
-0.121340742036
-0.121345234895
-0.121350704958
-0.121357433703
-0.121364217151
-0.121377216662
-0.12139007626
-0.121407527054
-0.121429624335
-0.121454735798
-0.121482660303
-0.12151635478
-0.121556922781
-0.121604216412
-0.121659605254
-0.121725466222
-0.121804379209
-0.121898205059
-0.122007988631
-0.122131633915
-0.122277235416
-0.122449137496
-0.122635180893
-0.122845576404
-0.123080257977
-0.123337670708
-0.123624014395
-0.123929924321
-0.12425486605
-0.124603083538
-0.124980346451
-0.125388158533
-0.125827222951
-0.126298568632
-0.126802936531
-0.127340559581
-0.127911268852
-0.12851432598
-0.129148188553
-0.12981037414
-0.130497396567
-0.131204915649
-0.131928128294
-0.132662133784
-0.133402080318
-0.134143105651
-0.134880140614
-0.13560750295
-0.136318610795
-0.137006031107
-0.137661797972
-0.138276749092
-0.138839706788
-0.139340714457
-0.139785981154
-0.140196329439
-0.140563597891
-0.140888075086
-0.141199316611
-0.141501597302
-0.141795201378
-0.142072916493
-0.142324959878
-0.142552518677
-0.142727660344
-0.142890888922
-0.143022402907
-0.143095650503
-0.143109830564
-0.143086177622
-0.14306836791
-0.143019636896
-0.142940551529
-0.142848920658
-0.142773918631
-0.142729554773
-0.121300773431
-0.121302093544
-0.121303707035
-0.121306719284
-0.121311940503
-0.121314803195
-0.121318767806
-0.121324236196
-0.121328041874
-0.121336922515
-0.121347983152
-0.121362335845
-0.121380520462
-0.12140245034
-0.121427792285
-0.121456041753
-0.121490390588
-0.121531265625
-0.12157984908
-0.121638118622
-0.121708772418
-0.121794809376
-0.121900406574
-0.122019631602
-0.122152506662
-0.122314037705
-0.122494891802
-0.122693334469
-0.122922224409
-0.12317226896
-0.123446065945
-0.123742841145
-0.124061756818
-0.124406579768
-0.124780569456
-0.125185990863
-0.125624017095
-0.126095699473
-0.126601900516
-0.127143097337
-0.127719456709
-0.128330380348
-0.128974100763
-0.129647815021
-0.130347875755
-0.131069883895
-0.131808918314
-0.13255982522
-0.133317418534
-0.134076654112
-0.134832628034
-0.13558053248
-0.136315429719
-0.137032203991
-0.137724352378
-0.138378951691
-0.138974107483
-0.139491338088
-0.139957399537
-0.14043472489
-0.140852566869
-0.141177071354
-0.141495630341
-0.141809782082
-0.142120834413
-0.142414689537
-0.142679765355
-0.142908187316
-0.143120268878
-0.143310231027
-0.143469370821
-0.143520179661
-0.143482749936
-0.143387900386
-0.143373388485
-0.143293033714
-0.143155810342
-0.142989221071
-0.142860933483
-0.14278310495
-0.121270937169
-0.121271398426
-0.121270848316
-0.121273691549
-0.121277320048
-0.121279671135
-0.121282446632
-0.121286186714
-0.12128844102
-0.121293537274
-0.121300986847
-0.121311463135
-0.121325157904
-0.121342321762
-0.121364291024
-0.121388030628
-0.121416394867
-0.12145053182
-0.121491955778
-0.121542350493
-0.121603785766
-0.121679412954
-0.121776384674
-0.121893106208
-0.122017714347
-0.122163946767
-0.122337801624
-0.122526295938
-0.12274036161
-0.12298236943
-0.123247472561
-0.123535727541
-0.123847171728
-0.124187232371
-0.12455769685
-0.124960421792
-0.125396968559
-0.125868653289
-0.126376673477
-0.126921684422
-0.127504019905
-0.12812340085
-0.128778107354
-0.129465039407
-0.130180314213
-0.130919475771
-0.131677441252
-0.132448571368
-0.133227023673
-0.134007262126
-0.13478459238
-0.135555580688
-0.13631830207
-0.137071931831
-0.137813565098
-0.138523620571
-0.139161692043
-0.139681114751
-0.140153221035
-0.140804119555
-0.141397627281
-0.141618097734
-0.141929466426
-0.142258716833
-0.142601013687
-0.142916004425
-0.143191236083
-0.143351817347
-0.143553276847
-0.143943970417
-0.14425196978
-0.144267465871
-0.144081844573
-0.143667974527
-0.143722645581
-0.143626722254
-0.143407477832
-0.143110029826
-0.142904511287
-0.142764089782
-0.121239236658
-0.121239450959
-0.12123902148
-0.121239041579
-0.121239824699
-0.121241025047
-0.121242355334
-0.121243447197
-0.121244767304
-0.121246148814
-0.121249350931
-0.121255379315
-0.121264190515
-0.121275852497
-0.121291477174
-0.12131052414
-0.121333650841
-0.12136128755
-0.121395245164
-0.121437398056
-0.121489500747
-0.121553920245
-0.121638436543
-0.121748307613
-0.121868873098
-0.122000144038
-0.122161974448
-0.122343394343
-0.12254163081
-0.122769557756
-0.12302364236
-0.123302891663
-0.123608827124
-0.12394381784
-0.124309996206
-0.124709468993
-0.125144190594
-0.12561559917
-0.12612515947
-0.126674100446
-0.12726293358
-0.127891494839
-0.128558287056
-0.129260169814
-0.129993104906
-0.130752621381
-0.131533436448
-0.132329117376
-0.133132572704
-0.133937272985
-0.134738355917
-0.135534259331
-0.136327117495
-0.137122865928
-0.137929961719
-0.138731483777
-0.139464130001
-0.139938778204
-0.140239642835
-0.141329739854
-0.141280439986
-0.141223307102
-0.141290374595
-0.141381607331
-0.141507506701
-0.141647907704
-0.141814755952
-0.142030075138
-0.142265636583
-0.142502910092
-0.142729979894
-0.142788204887
-0.142804877524
-0.143390181417
-0.144421983716
-0.144368867335
-0.143939743706
-0.143190813624
-0.14286547817
-0.142595190952
-0.121205512212
-0.121205598189
-0.121205639264
-0.121202560109
-0.121200660437
-0.121199990753
-0.121199405448
-0.121198057187
-0.121198198711
-0.121194939856
-0.121193375803
-0.121194581531
-0.121198271352
-0.121204490945
-0.121213168677
-0.121225767361
-0.121242632751
-0.12126334503
-0.121289372412
-0.121322643826
-0.121365079498
-0.121418541017
-0.121488682462
-0.121586294674
-0.121702330101
-0.121821918159
-0.121965763945
-0.122139579074
-0.122329194367
-0.122538705712
-0.122778335652
-0.123046959407
-0.123345218809
-0.123674165859
-0.12403537438
-0.124431011872
-0.12486329659
-0.125334166503
-0.125845186491
-0.126397942281
-0.126993600019
-0.127632202346
-0.128312328093
-0.129030936365
-0.129784152185
-0.130567795923
-0.131376451139
-0.132202462859
-0.133036627531
-0.133870357553
-0.134697791085
-0.135519116716
-0.136339356211
-0.137168799095
-0.138057484212
-0.139030901025
-0.140035390652
-0.139993489014
-0.13998436791
-0.140249383515
-0.140609679914
-0.140633956301
-0.14051871582
-0.140319906465
-0.140087817495
-0.139831670062
-0.139596085078
-0.139449610036
-0.139435406662
-0.139553472642
-0.139771832822
-0.140002055885
-0.140297863919
-0.140840714205
-0.141688719231
-0.14222811262
-0.14238982
-0.142764440548
-0.142857039683
-0.142203866408
-0.121169618145
-0.121169162858
-0.121167791187
-0.121163435916
-0.12115945089
-0.12115677943
-0.121153648117
-0.121149210955
-0.121146819764
-0.121139347279
-0.121133110856
-0.121129344448
-0.12112782486
-0.121128562181
-0.121130140588
-0.121135068284
-0.121144362776
-0.121157183801
-0.121174475546
-0.12119806344
-0.121229907507
-0.121272035615
-0.121328301731
-0.12140990806
-0.12151586509
-0.121629153963
-0.121752715762
-0.121907404679
-0.122088463336
-0.122287109492
-0.122511538479
-0.122767207651
-0.123055501744
-0.123376747027
-0.12373189676
-0.124122761416
-0.124551915708
-0.125021623684
-0.125533903706
-0.126090497217
-0.126693117266
-0.12734245958
-0.128037300836
-0.128774536735
-0.129550658897
-0.130362584647
-0.131205427375
-0.132069806382
-0.13294275755
-0.133812276395
-0.134669781316
-0.135517094197
-0.136352881392
-0.13716066279
-0.138055105402
-0.139328722149
-0.13947155589
-0.139594816372
-0.139635585103
-0.139681449619
-0.139843136538
-0.139739788566
-0.139406042506
-0.138888545634
-0.138261346986
-0.137569339225
-0.136878914196
-0.136264879649
-0.135801526238
-0.135539197316
-0.135464228915
-0.135491872148
-0.135659631782
-0.13621727334
-0.137387780685
-0.138802251706
-0.140014430996
-0.140666487996
-0.140807177144
-0.140716472346
-0.121132435177
-0.121131395914
-0.121128815317
-0.121122795396
-0.121117134814
-0.121112070455
-0.121105856233
-0.121097402431
-0.121090359002
-0.121079471367
-0.121068620959
-0.121059696424
-0.121052847778
-0.121048165258
-0.121041829682
-0.121038461375
-0.121039256713
-0.121043239611
-0.121050790497
-0.121063742247
-0.121083911191
-0.121113508965
-0.121155729328
-0.121219666298
-0.121309840943
-0.121416517556
-0.12152494727
-0.121657226688
-0.121818878792
-0.122005401774
-0.122216922415
-0.122460231537
-0.12273719586
-0.123049106599
-0.123397026222
-0.123782298862
-0.124207357572
-0.124675187533
-0.125188174902
-0.125748456533
-0.126358153992
-0.12701864106
-0.12772936183
-0.128487225012
-0.129288957163
-0.130133664106
-0.131018401174
-0.131931646069
-0.132855037526
-0.133771953708
-0.134666348939
-0.13554864783
-0.136396504401
-0.136957792378
-0.138024153528
-0.138381192792
-0.138668183197
-0.139045884734
-0.139140370693
-0.139045679722
-0.138804445919
-0.138305291233
-0.137605065744
-0.1367325993
-0.135752430648
-0.134717720348
-0.133691269145
-0.132730287951
-0.131891879206
-0.131231905505
-0.130781359639
-0.130495812325
-0.130396887033
-0.130691396151
-0.131667632268
-0.133358088083
-0.135310905621
-0.136788642959
-0.138166043334
-0.140812568001
-0.121095015739
-0.121093255358
-0.121088663707
-0.121081340456
-0.121074442331
-0.121066763472
-0.121057261957
-0.121044949224
-0.121032867791
-0.121016856359
-0.121000555305
-0.120985778179
-0.120972843411
-0.120962048203
-0.12094730072
-0.120935274883
-0.120926884442
-0.120921364596
-0.120918239949
-0.120919582484
-0.120926959506
-0.120942698904
-0.120969836927
-0.121015168169
-0.121085396864
-0.121178822872
-0.121279642991
-0.121392614921
-0.12153174796
-0.121698665475
-0.121894030092
-0.122123097155
-0.122386948269
-0.122687916551
-0.123027387411
-0.123405994988
-0.123826314308
-0.124291480425
-0.124804607617
-0.125368116541
-0.125984620493
-0.126656547489
-0.127384192811
-0.128164706574
-0.128993925851
-0.129873565373
-0.130807692203
-0.131785565432
-0.132778180277
-0.133762531107
-0.13470210569
-0.135674895219
-0.136686673132
-0.136892999312
-0.137112113662
-0.137524012222
-0.138077698106
-0.138391457184
-0.138257702532
-0.137838216843
-0.137139906526
-0.136168445437
-0.135008770323
-0.133702165685
-0.132303670011
-0.130862268821
-0.129434208492
-0.128070939424
-0.1268228358
-0.125745835772
-0.124898404266
-0.124293815132
-0.12394030452
-0.124005163329
-0.124793830497
-0.126514817679
-0.128774990222
-0.130612444721
-0.133521037278
-0.144346469854
-0.121058446951
-0.121055909518
-0.121049233923
-0.121040793658
-0.121032270056
-0.121021655888
-0.121008504594
-0.120992576262
-0.120974791943
-0.120952536266
-0.120929727738
-0.120908117801
-0.12088788535
-0.120868556822
-0.120845757045
-0.120824842919
-0.120806565884
-0.120790496133
-0.120776108263
-0.120765111678
-0.12075870649
-0.12075915998
-0.12076998545
-0.120795652874
-0.12084302194
-0.120915966808
-0.121005619152
-0.121102973795
-0.121220944602
-0.121367153205
-0.121542585451
-0.121753673887
-0.12200256053
-0.12229014372
-0.122619310645
-0.12299003273
-0.123404415896
-0.123866154948
-0.124378808566
-0.1249453337
-0.125568403392
-0.126251266981
-0.126995570294
-0.127799612794
-0.128660014056
-0.129580666671
-0.130570108756
-0.131619889314
-0.132703870402
-0.133798209581
-0.134738741651
-0.13578392223
-0.136175221451
-0.136479863081
-0.136723973129
-0.137154684399
-0.137517941058
-0.137419991184
-0.136842928457
-0.135935695818
-0.134719745633
-0.133242914437
-0.131582264085
-0.129785333323
-0.127900565816
-0.125970160504
-0.124039482343
-0.122148595762
-0.120331484302
-0.118624135924
-0.117086001495
-0.115789938595
-0.114731804993
-0.114031934897
-0.11397095025
-0.114894378635
-0.116617780545
-0.117674003002
-0.117627756272
-0.122183430614
-0.121023725747
-0.121020489785
-0.121012307677
-0.121002561041
-0.120991552587
-0.120977484255
-0.120959971974
-0.120940111501
-0.120916166256
-0.120887032792
-0.120856956063
-0.120827680152
-0.120799240478
-0.120769925396
-0.120738279993
-0.120707669073
-0.120678585944
-0.120650532611
-0.12062382824
-0.120599664737
-0.120578613088
-0.12056244589
-0.120555527403
-0.120560475176
-0.120583467999
-0.120630733328
-0.120699210387
-0.120780967528
-0.12087953642
-0.121004443782
-0.121159490438
-0.12134850649
-0.121578381503
-0.121850401425
-0.122167943703
-0.122529968156
-0.12293733495
-0.12339444101
-0.123905536524
-0.124474330596
-0.125103818696
-0.125797393849
-0.1265585982
-0.127387617648
-0.128282015398
-0.129244217457
-0.130287347535
-0.131420291953
-0.132629604128
-0.13393149659
-0.134684994862
-0.135184805234
-0.135634789486
-0.136191023557
-0.136517006991
-0.13671923061
-0.13658928856
-0.135913596732
-0.134768526782
-0.133272270606
-0.131468989596
-0.129419948469
-0.127182999046
-0.124796259364
-0.122293590334
-0.119703277161
-0.11705461684
-0.114373762468
-0.111681702333
-0.109000785068
-0.1063814397
-0.103899675756
-0.101516923872
-0.0991634561179
-0.0969946453429
-0.0954655442427
-0.0944892277468
-0.0902813017386
-0.0748301743764
-0.0561923100122
-0.120991319391
-0.120987410485
-0.120978036321
-0.120966722464
-0.12095277652
-0.120934809678
-0.120912727962
-0.120888231606
-0.120857369038
-0.120821009076
-0.120783090729
-0.120745484758
-0.120708247101
-0.120668845305
-0.120626484279
-0.120584925691
-0.120543962723
-0.120502605274
-0.120461717576
-0.120422955764
-0.120386022223
-0.120351837585
-0.120325266147
-0.120308322846
-0.120305982349
-0.120325025229
-0.120367765802
-0.120430188954
-0.120512532781
-0.120612350758
-0.12074260132
-0.120908173769
-0.121115511475
-0.121365701814
-0.12166637717
-0.122018957487
-0.122419169465
-0.122871221135
-0.123379568064
-0.123949124486
-0.124584297433
-0.125288873517
-0.126067393139
-0.1269203506
-0.127843181291
-0.128840409326
-0.12993473998
-0.131169819965
-0.132594636054
-0.134841747101
-0.134365307229
-0.134698543074
-0.135356961411
-0.135960254412
-0.136031064839
-0.135790675718
-0.135034190495
-0.133704748986
-0.131912115087
-0.129757617147
-0.127297465014
-0.124590314002
-0.12167786354
-0.118587563719
-0.115342210801
-0.111962221826
-0.108469298274
-0.104882867806
-0.101214477369
-0.0974641040821
-0.0936280219781
-0.0896951234302
-0.0855762959409
-0.0809447901805
-0.0757041472037
-0.0702392588581
-0.0639605421681
-0.0500103648739
-0.0124924306478
0.042431262527
-0.120961540645
-0.120956923501
-0.120946484462
-0.12093329959
-0.12091608289
-0.120893960997
-0.120867471911
-0.120837221899
-0.120799034599
-0.120755403077
-0.120708978126
-0.12066224055
-0.120615396508
-0.12056522241
-0.120511006121
-0.120457248034
-0.120403397768
-0.120347138596
-0.12029025701
-0.120235053955
-0.120180277942
-0.120126428045
-0.120077822033
-0.120037556546
-0.120008844469
-0.119997784034
-0.120010897847
-0.120046759643
-0.120108885932
-0.120187234434
-0.120289778149
-0.120425491885
-0.120607151525
-0.120836862544
-0.121114949563
-0.121450828264
-0.121842036358
-0.122288389647
-0.122794291868
-0.123363979601
-0.124003230208
-0.124718548444
-0.12551399655
-0.12638693219
-0.127329043517
-0.128347016954
-0.129465295606
-0.130718647801
-0.131886757515
-0.132812063554
-0.133542282376
-0.133826582428
-0.135134916078
-0.135404088016
-0.135055376462
-0.134205563537
-0.13273931039
-0.13069919643
-0.128202869645
-0.125344479116
-0.12218568135
-0.118781966843
-0.115171936847
-0.111385475616
-0.107448403221
-0.103382884744
-0.0992048440316
-0.0949165746156
-0.0904975904031
-0.0858926539881
-0.0809990113501
-0.0756596396964
-0.0696601209922
-0.0625986910651
-0.0541995500386
-0.0445942153792
-0.0320290058566
-0.00693374967424
0.0476652118971
0.117200168224
-0.120934597935
-0.120929257968
-0.120917713255
-0.12090228043
-0.120881291503
-0.120854975609
-0.120823910214
-0.120786934277
-0.120741613366
-0.120690861493
-0.120635297348
-0.120578604983
-0.120521236498
-0.120459322369
-0.120392175084
-0.12032486079
-0.120256852541
-0.120183754918
-0.120109431429
-0.12003597141
-0.119960560353
-0.119885545063
-0.119812872562
-0.119746866496
-0.119690583147
-0.119648202427
-0.119628297067
-0.119631741901
-0.119663707147
-0.11971988687
-0.11979759682
-0.119902033237
-0.120048450622
-0.120250306988
-0.120507896708
-0.120823440794
-0.12120068234
-0.121638497248
-0.122140314932
-0.12271050951
-0.123354331747
-0.124078949233
-0.124887824439
-0.12577470046
-0.126733210177
-0.12778032938
-0.128952416432
-0.130297030799
-0.130690011764
-0.130475077322
-0.131054861465
-0.133033657625
-0.134491631928
-0.134321730456
-0.133454503103
-0.131887317833
-0.129662919941
-0.126877705562
-0.12365719741
-0.120095746154
-0.116262801559
-0.112217868303
-0.108005749791
-0.103662165808
-0.0992122179279
-0.0946661069895
-0.0900118952262
-0.0852081368654
-0.0801793629882
-0.0748076776814
-0.0689052541417