/*--------------------------------*- C++ -*----------------------------------*\
| =========                 |                                                 |
| \\      /  F ield         | OpenFOAM: The Open Source CFD Toolbox           |
|  \\    /   O peration     | Version:  v1806                                 |
|   \\  /    A nd           | Web:      www.OpenFOAM.com                      |
|    \\/     M anipulation  |                                                 |
\*---------------------------------------------------------------------------*/
FoamFile
{
    version     2.0;
    format      ascii;
    class       volScalarField;
    location    "618";
    object      alphak;
}
// * * * * * * * * * * * * * * * * * * * * * * * * * * * * * * * * * * * * * //

dimensions      [0 0 -1 0 0 0 0];


internalField   nonuniform List<scalar> 
6400
(
0.886907424539
1.4145727031
2.23872126085
2.77916094651
3.29604755767
3.81615464132
4.4839866751
5.23333062042
5.65661586454
6.31497809865
7.55837777277
8.41535055519
9.1307756946
9.93776670254
10.93870324
11.9880263389
12.9208393504
13.7975843521
14.5357802912
14.9638137844
15.1667635354
15.4960231985
16.160009313
17.1435257813
18.2228053064
19.1921540989
19.9879957004
20.7240160051
21.503819195
22.3424372253
23.1847413751
23.8339300145
24.213155887
24.4463144307
24.5731395713
24.5846826991
24.7687241121
25.1891792026
25.2852136661
25.153929139
25.4041769208
26.1681841398
26.9382554506
27.3553408824
27.47045638
27.3768559871
27.1420889432
26.8124586782
26.4010851431
25.9282844906
25.30464166
24.300394585
22.9700897779
21.3806417355
19.9944800727
18.871834338
17.2954829827
14.9571399249
12.4959078147
10.5564225871
8.57157403513
6.49877410602
4.45045222695
4.88493008037
8.58187194194
13.41603117
16.3586127669
16.0397907595
14.0461158796
12.4631674977
11.6479537475
11.9196617631
12.5302606405
12.4577892638
14.570940557
14.0346583863
15.9430158373
9.84382055223
12.8639769748
4.80744032048
3.15081365079
2.52140676317
3.1397220296
4.39829397285
4.3256874465
4.24405203479
4.47891423875
4.93963119927
5.59315886189
6.4241566386
7.42561399148
8.42472007311
9.30780270771
10.1533548137
11.015275338
12.0001750089
13.0352518634
14.0245815514
15.0585790219
15.3139635362
15.3237922458
15.6223630973
16.2548662663
17.2227266321
18.4349985054
19.3433975347
20.1073343101
20.8836251375
21.6799119524
22.4875643277
23.2986626756
24.0434715588
24.4177393859
24.6463711236
24.8088221015
24.7251240809
24.9609308578
25.4054211945
25.4477494129
25.1684894788
25.3866612749
26.7453117239
27.8444520407
28.1615816893
28.2130032366
28.0305317993
27.6823384206
27.273683286
26.6834350057
26.0310419126
25.4834383185
25.0512107594
23.9472624041
21.6048178699
20.3486802636
18.9825991791
16.7793164297
14.5051905446
12.3058580626
10.1351955014
8.14897259598
6.8517657996
4.86089033264
5.35094511222
8.75382850395
14.4794045708
18.1831596778
16.8705321608
14.6972281845
12.7932162697
12.1487893405
12.6372119776
13.8111244453
13.2715881228
13.1653459233
12.6764689095
11.5088040107
9.68977204837
8.15731389146
4.24103582684
3.24702065876
2.85887819731
3.37673212928
3.67312226002
4.22520204751
4.67557373972
4.67451032349
4.84238533371
5.49619854202
6.40064246187
7.41006598323
8.42891489548
9.35821533326
10.2076242771
10.9245167415
11.8166951222
14.4298312496
16.4338175141
16.8775642515
16.3351606957
15.1306412347
15.2874330017
16.3804538169
17.4006833764
18.3564690822
19.3349967387
20.2092064157
20.9880535064
21.7636355991
22.5686956764
23.3439058805
24.1836662844
24.5569349706
24.5428991181
25.0422682874
24.9743868999
24.8709881237
25.5198761678
25.6057551383
25.386118747
25.6182302579
26.3684147994
27.1204418474
27.5409903427
27.6810975868
27.6299167227
27.4290298686
27.0989750562
26.6426752387
26.0827543707
25.4204394891
24.5431546442
23.3234696912
22.0303567465
20.7413546783
18.8555701364
16.6871422558
14.495780054
12.3314305686
10.2563892359
8.40325215393
6.65106047503
5.48012540038
6.7553788709
11.1715312523
15.5025714837
17.6191801152
17.7049679802
16.1245915048
14.4846975859
13.8493172631
13.8111444419
13.1922570725
12.6395500904
12.6588792472
12.3556140806
11.4042208712
9.79646161689
7.3642252304
7.55488844361
3.27058677316
5.5201995999
3.70819075634
3.83925480105
4.5421477876
11.8907133213
10.2873847089
5.39812300238
5.46690861272
6.39835257692
7.43363093599
8.47220209503
9.37695983128
10.2441154278
11.9414944515
14.0342451423
15.7169283676
16.1792699132
15.2223872459
14.5297375516
14.9064237145
15.5345048696
16.3577206673
17.3777150344
18.4427343768
19.4556726889
20.358680448
21.1154482235
21.9127970259
22.6435569134
23.5544365005
24.1760272975
24.847497947
24.8330846262
24.5883543865
25.0621877102
25.0533694468
25.0670854872
25.3322022498
25.5768803423
25.9383841837
26.5381895142
27.1604923581
27.5763512634
27.7556154973
27.7409882627
27.5681960546
27.2590480983
26.8229927051
26.2675909303
25.5773911249
24.6933469683
23.5764785311
22.2873422784
20.774024638
18.8974300058
16.7614560181
14.5757682143
12.4566337504
10.4984803632
8.8158031374
7.55042639627
7.19766829102
8.15599504384
10.7157033936
15.9367199579
19.3456756543
19.482724075
17.8110444203
15.4607562092
13.8857299945
13.1435998044
13.3634614836
14.818444584
14.7859790307
13.4882418925
13.368628352
16.6727382193
13.0698018477
11.0832103731
5.70091577858
7.59262477047
4.48950270203
4.80813763874
6.62456674152
11.7845835807
8.28154368257
5.8728208896
5.99145094997
6.61997730615
7.57760994579
8.63001407049
10.0532761687
12.323096569
13.3668042717
13.799210122
13.8935707997
13.7974426123
13.9739193921
14.5791766647
15.0379543079
15.5843006618
16.4513767723
17.4815098936
18.562929062
19.607263928
20.4794524299
21.36376065
22.0274158725
22.9515260043
23.5967372395
24.8058725877
24.7797757713
24.4731650608
24.704700131
24.585785438
24.7811857126
25.1181924198
25.4707708086
25.8076146849
26.2058765188
26.7271172208
27.2636121765
27.6630845291
27.8674814981
27.8849836601
27.7403361727
27.455094281
27.0412909234
26.4999339877
25.8124015774
24.9423200251
23.8650280072
22.5697438586
20.9858258544
19.0660951282
16.940276082
14.80711468
12.8128550745
11.0858813573
9.77084540886
9.04810137079
9.15503708855
9.46592091885
11.0500742374
15.5125259966
19.4511727219
20.8048907479
19.6266558459
16.8590222495
14.3877904334
14.0945228094
16.3971681098
17.2940373453
16.2769786322
15.3792371606
18.0551326859
21.0789884058
16.3830893154
15.4977665954
9.99202068342
9.16231348291
5.59380984807
6.13767585374
12.0692651834
11.5491701057
6.71487783637
6.4764048033
6.62258309156
6.9727755417
7.82302206301
10.4260465701
13.6115954115
14.0807950914
13.7816878962
12.9629502939
12.7126181107
13.1456110152
14.1128770412
14.5517129145
14.9338564335
15.6564221667
16.5969870529
17.6591980293
18.6718324892
19.7266624511
20.8508178561
21.4698660838
22.5498111868
23.00357675
24.4502848857
24.5930592346
25.4125240376
24.7016658589
24.1391054279
24.3187924018
24.7754392339
25.2417368253
25.6595171997
26.0469235441
26.4653720971
26.9466831082
27.4286450884
27.8095703345
28.0276494883
28.0711919764
27.9536868768
27.6953085273
27.3095066019
26.7947006814
26.1315891606
25.2889458632
24.2326377457
22.9188435312
21.2929961788
19.3744710725
17.317980366
15.3207284528
13.5418156397
12.1247051542
11.1915667061
10.9090852778
11.4177126146
10.6149827293
12.936255269
17.4841311932
20.803188852
22.1014775314
21.1586355438
17.773491839
15.5700592301
17.3928158826
19.623097438
19.1166522083
18.1401509082
18.2343528434
22.8264988455
24.4199354458
19.4068727146
19.2092829545
12.1159502736
9.03842340255
6.80043634758
6.37495868638
12.0207298493
8.47746513966
6.95590966684
7.07596917273
7.21029757887
7.90847487066
8.41936345181
13.3237356753
14.0390851227
14.1086167883
12.8444929837
11.9629947435
12.320826555
13.6546715068
14.0788252763
14.2642824709
14.9488731203
15.7705795705
16.7138239476
17.7736373041
18.9702192982
20.1163159399
20.8783488966
22.2756086323
22.6329172603
24.1955206536
24.1958056453
25.2621172265
24.8790853098
24.4713307813
23.9696570535
24.2699510819
24.8576003424
25.4065269755
25.8685733343
26.2916833468
26.7291488373
27.1940585219
27.6450425947
28.0116071439
28.2378957188
28.3025835955
28.2121639736
27.9857305296
27.6370337224
27.1623869253
26.5396217253
25.7329521823
24.6962783909
23.3790057931
21.7586052779
19.9060903787
17.9952486929
16.2135564096
14.6909827012
13.5109747325
12.7889296291
12.559984212
12.344963431
12.3561494123
14.5759170017
20.1750731272
22.2738707112
22.4904258455
21.3740999657
19.0703697352
18.7760449139
21.3310737771
21.7720312198
20.9549681433
20.3903546474
22.3936407438
25.1629671515
26.6372828139
22.0460776301
20.9079130278
11.8426722472
8.71568259604
7.94978662484
12.1976804651
12.1355727714
7.54371963738
7.61436520402
7.76528247118
7.8652514388
8.44066042606
13.071354156
14.0207771942
14.1347510376
13.6918224123
11.7131428782
11.5638166243
13.128053813
13.7906140946
13.7223517868
14.1421244659
14.9904160522
15.9459412295
16.9192166698
18.0336465891
19.0709823082
20.466777082
20.9726603167
22.2948894785
23.8494886292
24.3358649575
23.9023923482
24.751316777
24.9509493961
23.945423543
23.9603387721
24.4167589036
25.0088220383
25.5853965323
26.088706702
26.5471560176
27.0054495436
27.4700886
27.9075481103
28.265800202
28.49832226
28.58201709
28.5207809003
28.333233714
28.0323680155
27.6116461462
27.0441880824
26.286793532
25.2866033675
24.0033315648
22.4535322492
20.7471241594
19.0536926678
17.50140332
16.1298226477
14.9989791842
14.278276698
13.9893068358
13.9669341307
14.3109850708
14.367099033
20.4397778801
24.1637611211
24.0162951889
23.3290968597
22.3005530486
23.0503264615
24.36984642
23.6782703262
23.0185524365
23.2671028126
25.6436145419
26.3421064265
26.9400645659
24.0610097305
21.9223595968
11.135167665
8.65991925895
8.62005135744
13.1814403464
11.1379668649
8.17917470269
8.32871172886
8.61054466329
9.78145370942
8.55880276547
13.8442125124
14.5476878045
14.1791213712
12.4892177126
11.3643497175
11.7031616557
13.2055772938
13.5147112081
13.6137388739
14.1663032639
14.9941894217
16.0266144383
17.1007741302
18.6128319984
19.8895715806
20.435239994
22.3485211241
22.2014742633
24.0412573467
23.7975251968
25.0184181486
24.1152143531
23.8568095257
23.8648320444
24.1341282232
24.6183893651
25.194658643
25.780171447
26.3204176533
26.8183436584
27.3020653878
27.7758677812
28.2124636634
28.5697176199
28.8092135657
28.912441977
28.8849630792
28.7448782846
28.5033383795
28.1510578097
27.6565019863
26.9704987579
26.0410527751
24.8492938496
23.4496701379
21.9678753282
20.5193827949
19.1025395527
17.674160722
16.4442425139
15.7952539814
15.8097113362
16.1165368164
16.3198010765
16.165987538
17.5309139174
24.4435909222
25.963752176
25.7832853988
26.2551964663
27.1702166964
26.7253217737
25.6848987173
25.516906555
26.5748785195
27.8295005373
27.7128468499
27.1195734773
26.110360248
24.7434816042
10.6223674173
9.11429362463
9.77357775109
13.2575817057
9.22501617212
9.19876897394
9.04942790823
9.31813626344
12.3641543711
11.1137117172
14.679292458
14.8235612418
14.2584651419
11.8271812673
11.4065543351
12.9841164139
13.4359948345
13.2767059422
13.5821758797
14.318044836
15.1250183791
16.1026428843
17.0375780291
18.7678742102
20.9001505864
20.3856768119
22.2998253729
23.6014262149
24.2809415263
24.9252989469
24.3062044291
24.3595866884
23.5781909006
23.7841958367
24.3029044229
24.8416491767
25.407773797
25.9936075404
26.5634863084
27.1044429127
27.6225693645
28.1146293482
28.5587956038
28.9216703595
29.1721264096
29.2977727227
29.3095744845
29.2266375437
29.0571570622
28.7892839989
28.389412152
27.8069837151
26.9986962456
25.972786304
24.8104719193
23.6094511089
22.3472254923
20.8452661161
19.2011861086
18.0306261566
17.8033788498
18.3219538985
18.8498161641
18.9743007477
18.6465802291
17.2886972791
17.0005984574
27.7672470252
30.3986184936
31.124145031
30.7249053744
29.1069879084
28.1214526343
28.454713281
29.7151688809
30.138611795
29.9497939396
29.6878570461
30.0463516009
30.2407225412
10.6238752795
9.96658727124
13.1644461429
13.4399755175
9.35798666397
9.96354615506
9.76706110945
10.2401695838
11.8968271304
14.5815992114
15.5168732904
15.1020417459
14.5097385253
11.8594862072
11.568578477
13.4949912144
13.5440181659
13.2582583951
13.6091526164
14.4516242745
15.4813802523
16.4610959158
17.218472451
18.4030887424
21.0698206951
22.2872043516
21.9441351119
23.7224532632
23.1991417868
24.9507095085
25.3200116561
24.3179911993
23.5547939375
23.8972593747
24.5016819721
25.0756876878
25.6451611764
26.2320038739
26.8210391307
27.4036354181
27.9663428129
28.4875136354
28.9471814106
29.3216285685
29.5881610551
29.742202756
29.8007273487
29.7841208586
29.6988562726
29.5326008414
29.2534719879
28.8161756134
28.1944197349
27.4235418012
26.5813404841
25.6515279969
24.375524117
22.6016476897
20.993672728
20.3234048679
20.8314966289
21.8913483592
22.6031175275
22.6589785577
22.0088933562
20.374209207
17.8543289243
18.2499465229
31.8201579604
36.748078075
35.0364477116
32.2237222249
31.2568710141
31.830301069
32.7894942418
33.2846005471
33.7008942114
34.2653855097
34.8939026982
35.5753245459
10.9974952194
10.8469914241
14.8124243564
14.1679348634
12.2951713787
11.193092361
10.711705532
11.6950508377
11.3947325068
15.548441641
16.1788324789
15.456581463
14.6147109653
12.4939087586
12.330575285
13.9557554749
13.5755617445
13.3475280443
13.7271299661
14.4947575437
15.6246801574
16.9178498476
18.6234572139
18.5350470571
20.5763101617
22.6591089554
21.8467571142
23.9775219648
24.8443787233
24.1704590206
24.4448205102
23.7157067176
23.844381837
24.222920098
24.7575323773
25.3334204525
25.9118385016
26.5042383949
27.1010299742
27.7120877429
28.3270053186
28.8958281425
29.3805149683
29.7704846983
30.0590877044
30.2499410418
30.3639447155
30.4220610352
30.4311286563
30.3822688918
30.2508300875
30.0078551923
29.65411988
29.235467207
28.7516833718
27.9305996987
26.4196394687
24.7067390803
23.7041188901
23.9028931743
25.299164097
26.8161503403
27.903131065
28.1066052973
27.4728461414
25.6321793628
22.4470026202
17.8143293823
26.8305172263
37.3715063288
39.8439400609
36.4128436415
35.4748228156
36.0226640523
36.8830396443
37.5188640775
38.6641983037
39.5176207931
39.5048625178
39.7373394082
11.6132084562
11.5060759732
14.5713894278
14.6713335759
14.6896877056
12.3434076787
11.7878001043
14.5352396837
11.7857262664
16.4104633266
16.6845210034
15.8209468386
14.7187234301
13.1183116784
14.8977413975
15.0081078211
13.7759539977
13.5733854087
13.9788852768
14.6364808256
15.5843225553
16.9095116343
19.886096724
20.8395335386
20.0780678593
22.7217311379
23.6898075912
23.5582796787
24.8101254004
25.2308191292
24.7825684924
23.754332435
24.0497611101
24.5538215107
25.068855692
25.6245189571
26.1971160846
26.8080446489
27.4299355474
28.0521742063
28.6995080487
29.3253389281
29.8565671208
30.2722311753
30.588133145
30.8247593748
31.0041100192
31.143721599
31.2522123426
31.3297128174
31.3693939014
31.3760181157
31.382997103
31.3970306889
31.1940883991
30.1625786299
28.7409736206
28.5057305931
28.6293223002
29.8553901966
31.840536488
33.0719522705
32.8299769285
32.1791026296
30.242537539
27.4060460701
24.1017038872
17.7490061939
17.3836949938
31.5268042434
38.4649690559
38.0108920256
36.3435747288
38.2940389955
40.2171518359
42.3933705358
44.3108149657
45.0289050921
45.0290503633
45.2360372216
12.2871767502
12.2161943945
11.8680652288
15.0074266818
15.2350562312
13.128454412
12.7559628261
15.5321210169
12.4574993317
17.3021919561
17.1417862109
16.199663481
14.930978532
13.4423825862
16.0536464948
15.5931779906
14.223399005
13.975894217
14.3321672584
14.947836535
15.6684930743
16.8001440262
20.3908479879
21.9109059372
20.4250881821
22.7521447604
24.2069161094
23.076136537
24.4393476262
24.8021570616
23.852580291
24.10287538
24.494953364
24.9362400052
25.4128712905
25.9680461403
26.5370258193
27.1244218412
27.7745020204
28.4423003101
29.1141878263
29.778277534
30.3623935341
30.821984565
31.1783545461
31.4716648408
31.7251861538
31.9475449184
32.1524530243
32.3551679936
32.5764337357
32.8885343024
33.3510501683
33.8340607088
33.6123063793
32.128058253
32.0582448723
29.031229503
25.9675555133
24.4724530864
20.2809913504
5.81110659472
0.0201268941063
0.00205350248413
0.000162957581829
4.5901863011e-05
0.000540299465071
0.00552052636043
0.0623601747971
0.162879019711
34.131671857
46.3822162601
49.7212133783
45.1072951994
41.1405927931
43.2947124714
48.2351316363
50.4030876251
51.837105152
52.3070540917
13.1410551869
13.233308087
15.6510055412
15.6610714756
15.696625351
13.7984909477
13.8039493979
16.3921045092
13.4815371953
18.0776117236
17.5802131216
16.6026563045
15.2253768875
13.8430204443
16.3441255881
15.8062675702
14.668291999
14.4377517493
14.7231140278
15.2687765678
15.9234374673
16.8191004671
19.8132307093
22.7234135814
22.8874196084
22.1439588201
24.4188955662
25.238865676
23.3464105622
23.3449188385
23.7952864821
24.3408298957
24.8520249114
25.3244585666
25.8147483887
26.3387124943
26.9088592333
27.5129853249
28.1460732681
28.8492055822
29.5740702776
30.2760180847
30.9015111588
31.4102940986
31.825936168
32.1917234917
32.5278207837
32.8358202454
33.1208739416
33.4144570487
33.8126741989
34.4771962114
35.4637819327
36.3269678258
35.7328767136
31.9411746922
21.9457036846
6.82526760759e-06
7.50708658721e-09
1.40731036757e-10
2.38548751402e-12
6.90180724683e-15
1.96134296163e-17
3.3950475435e-22
2.6556162614e-22
6.44722561294e-22
4.34593980101e-21
2.03561393911e-20
7.5195680522e-20
4.77856798498e-19
3.7415120601e-19
3.24596513438e-17
1.8474965288e-14
1.85712823432e-12
1.40924661334e-10
3.24515441968e-08
0.000546261606291
52.4832124338
57.7656563118
58.9793539879
13.9451731402
14.1365495161
17.2728157686
16.3446705456
15.8297638138
14.4737998826
14.8191962611
17.1223262062
17.0955137629
19.0419380755
18.0820367493
17.0994791328
15.6056460753
14.3881120433
16.6529866327
15.9574047412
15.0951191272
14.9078652617
15.1208622219
15.5845127432
16.2056940419
17.0601369018
19.3082023155
22.984017779
24.2522633935
21.8904319049
23.9439540092
25.3113783223
25.1054642736
23.7815276004
23.8847970942
24.5650476171
25.2134348479
25.7595211633
26.2087457991
26.7394546601
27.3030547227
27.9255072926
28.5777946867
29.2914386039
30.0648202163
30.8228250399
31.4832496992
32.0253734391
32.510257807
32.998421064
33.4570458194
33.8264076732
34.1009252129
34.4373970557
35.0257453329
36.0267304422
37.516083405
38.7504081206
30.2753649409
1.29173238632
3.77430932206e-12
1.52841313308e-14
4.41992336415e-16
6.43459821068e-18
5.22797507018e-21
8.72337740954e-24
6.14914877043e-25
0
0
0
0
0
0
0
0
8.55241729399e-29
2.88455329789e-26
4.31467689514e-24
2.50323736086e-21
3.49640825641e-18
1.89339443227e-13
2.87534801539e-09
0.0224173144865
61.9475660855
14.6036003644
14.8168915651
19.4175734895
16.8768352191
15.7171003237
15.0729362674
15.5505891116
17.1943664218
18.6865082131
20.1508083342
18.7411978901
17.7314489513
16.2363860047
15.2248735495
17.1682356596
16.2611084842
15.5999068256
15.427020586
15.5584604085
15.9374610257
16.4878139493
17.2792494441
19.1045999088
22.8601691023
25.2432327255
24.4911423783
23.4369640153
24.682246154
24.8659128365
23.7908371921
24.3331223741
25.040403666
25.7356046878
26.2476274402
26.714938882
27.1777056891
27.7532279164
28.368245776
29.0477124021
29.7849061363
30.5835579455
31.3999514856
32.1389689446
32.7157798766
33.2602090824
33.8814934697
34.4774234112
34.8729293422
35.0924165191
35.441380141
36.1692772552
37.3259455522
39.0001493772
30.8494647104
2.49938948565e-08
5.46433469188e-15
1.79206385723e-18
7.24636610833e-20
9.88020204907e-22
2.70941991724e-24
0
0
0
0
0
0
0
0
0
0
0
0
0
1.10197887064e-27
1.09505566249e-26
2.4005992766e-25
1.16401739367e-23
6.46405568606e-20
5.38044470901e-11
1.03716756512e-15
15.1179709277
15.3209718491
21.471095894
17.2868970686
15.8557432764
15.6296312967
16.3584387964
16.5804921839
19.6375854638
20.9461950469
19.3809681491
18.3788149426
17.0655902394
17.1032382394
17.8880573948
16.8062707604
16.2999346138
16.1417522633
16.1045815946
16.3776048127
16.8232239008
17.5367471903
19.0900225764
22.7206084475
25.6570240353
26.1342045585
23.249321988
23.628310981
23.6452053669
23.9104333226
24.6420188309
25.5346735604
26.233887669
26.7791738215
27.2651236972
27.7987477594
28.2694626
28.877782296
29.5606297322
30.3039079456
31.1702504018
32.0578679867
32.8504155516
33.4059578229
33.9582476305
35.1686416877
36.7663193389
37.3181023604
36.5762319445
36.7001329839
37.4429278895
38.6079595686
29.4423180731
2.89162818742e-09
4.35806246686e-14
1.95509534369e-25
1.97564806496e-22
3.22371318762e-24
0
0
0
0
0
0
0
0
0
0
0
0
0
0
0
0
0
0
1.70252280646e-26
1.15292032403e-25
2.12608066505e-23
95.1239813472
15.5672118033
15.7361398871
21.3146693188
16.7433813389
16.0748322385
16.1123037692
17.2754576942
16.5980240578
20.443700439
21.687222557
19.9903225248
18.980586134
17.7112274724
19.3160284565
18.8886880064
17.5550160676
17.1059644166
17.213864461
16.8730317171
16.9869975553
17.2583092336
17.8369572168
19.2171589469
22.5690581103
25.5296320708
27.2352524406
25.9265860983
24.9711888192
24.6007453822
24.1687962275
24.9440558898
26.1683073684
26.6885650463
27.3157504566
28.0552292234
28.4100772904
28.8803088911
29.4919384552
30.1904037751
30.9383937722
31.7615614461
32.7045342175
33.633865215
34.5715780913
35.6705811807
37.2278445903
38.4918441032
38.4954931415
38.4195580466
39.0129780367
40.1435187218
33.3076733307
1.31499967071e-08
1.20033210293e-13
1.57762345486e-17
2.14271503777e-19
0
0
0
0
0
0
0
0
0
0
0
0
0
0
0
0
0
0
0
0
0
0
5.23863522947e-26
3.81295962615e-15
16.0838562446
16.229633129
20.9619733922
16.4353390492
16.3823923027
16.5072874636
18.0652542382
17.0765787866
21.1473549826
22.41546007
20.597291279
19.5854406091
18.2547806194
20.0778922958
19.8170423576
18.3750374754
17.9005184072
18.1145634827
17.792230721
17.8173109276
17.8938029864
18.1881474901
19.5050083497
22.5495825612
25.2555460062
27.5632473606
27.128996072
25.5105699923
24.060769176
24.6778225627
25.4649688135
26.6511892988
27.5462316203
28.2960503296
28.8984296893
29.129174453
29.5753416309
30.1996543299
30.9120030282
31.6920965037
32.5240654724
33.5461057175
34.7995528077
36.3431763614
37.408371802
37.8645347474
38.580198587
39.0665562454
40.5650701149
42.6284449901
39.4551659407
1.19822042308e-07
1.59100797082e-13
2.74361167501e-17
5.62728883432e-20
1.36247487369e-21
4.5733656737e-24
0
0
0
0
0
0
0
0
0
0
0
0
0
0
0
0
0
0
0
0
0
8.8037026935e-27
1.16481027754e-26
16.8443687713
16.9902178594
20.6500514295
16.7373684245
16.9540791234
17.0017263115
18.0898117964
17.8132467971
21.6591105635
23.109639205
21.2395618953
20.2408182841
18.9178864921
20.772981542
20.6552620787
19.2849639136
18.7548410667
18.9933757571
18.689999924
18.7937006874
18.8028140222
18.6996946099
19.9868769301
22.7232004114
25.1297739639
27.6561678282
27.6838337993
26.2531371852
24.5663390273
24.914959531
26.0911427129
26.8220408273
27.5902436509
28.5475136667
29.8334363872
30.1730709571
30.5321013894
31.0153849082
31.6880734753
32.5436649494
33.4868440208
34.6425435433
36.5848977368
38.3341602941
38.6366931069
38.9288279397
40.1088505926
42.9276822409
46.5381482155
43.6807852272
3.42335306591e-08
5.68679050219e-15
2.35332689334e-19
7.71578655115e-23
4.84124227412e-25
9.81280575407e-25
1.5068807972e-25
0
0
0
0
0
0
0
0
0
0
0
0
0
0
0
0
0
0
0
0
0
6.50707503326e-28
2.95467156967e-27
17.9877539681
18.09399385
20.9578766793
17.6929662538
18.1265127175
17.8693955002
18.4175636636
19.139963735
21.723443551
23.6356218566
21.9462097341
20.9684278534
19.688826011
21.5631208003
21.5215912109
20.3571010184
19.7937239138
20.01870389
19.5964251444
19.8682488662
20.0246670257
19.4389177975
20.541767133
23.0915400402
25.1980407486
27.5241665549
27.9384287488
26.9133987792
26.5757772447
25.7911863047
26.5107488852
27.646979459
28.9962816162
29.1535960457
30.0955309258
31.2194708782
31.6013098452
32.1546470789
32.7217569529
33.4833770889
34.5667775104
36.5230317678
39.1639975794
40.1086980068
40.0126870054
41.2441127441
45.6532335054
52.1207541573
49.4818807506
1.23138594164e-09
8.61579458293e-17
8.04401902799e-22
5.50398299151e-24
0
0
0
0
0
0
0
0
0
0
0
0
0
0
0
0
0
0
0
0
0
0
0
0
0
0
0
19.5814578506
19.4578549243
21.7926982538
19.5941901365
20.0927988002
19.1485485548
19.3749731173
21.0551652744
21.9609672711
24.268983854
22.7701675453
21.7785469237
20.5432620372
22.3912799874
22.3838967212
21.5380424733
21.3089873016
21.3562520377
20.5963232747
21.0393108778
21.5467822477
20.4931883844
20.9839180551
23.5489424723
25.467654614
27.4112582468
28.124317726
27.0887899688
27.7733479251
27.3908938941
27.5917412746
27.395228666
28.7431210504
30.4016058724
31.0700939507
31.9630936596
32.6717949336
33.252909861
33.966258726
34.7479447338
36.2969298901
39.4249993433
41.6824069834
42.105995887
42.8586061639
46.7071989198
55.0724509731
52.505713372
15.3463740693
7.68888435131e-19
1.34417927111e-21
6.15482549514e-24
0
0
0
0
0
0
0
0
0
0
0
0
0
0
0
0
0
0
0
0
0
0
0
0
0
0
0
0
21.2685687288
20.7434459923
22.6972045629
22.1069759429
21.8223096422
20.6311086548
20.4328917256
22.2096176684
21.2430031136
24.7682841007
23.693671603
22.6634613367
21.471846337
23.2326477231
23.1868732651
22.5286332519
23.3972745723
22.9668991569
21.72069721
22.3317083443
22.907128591
21.8453161763
21.1745862782
23.5672527541
25.6672398278
27.3383708896
28.2070025175
27.1939424418
28.1828999626
28.6942590507
28.9701966541
28.1950119758
29.0112268165
30.3558926714
32.0153242425
33.2030190646
33.9746020237
34.5221429335
35.2120357504
36.433236208
39.3279684437
42.6928886335
44.4049170631
45.3095773249
47.8046574373
53.4374485711
50.3516954629
26.9884767366
2.07029871602e-18
2.99719418498e-21
1.04967522449e-23
0
0
0
0
0
0
0
0
0
0
0
0
0
0
0
0
0
0
0
0
0
0
0
0
0
0
0
0
0
22.1219033687
21.6531825646
23.2857094687
23.1824718645
22.9150552127
22.0361933382
21.6493089407
23.607259413
22.3109886699
25.4020993756
24.6286342124
23.593151139
22.4697862678
24.1045632301
24.0013551813
23.3626745115
24.3902905647
24.0994158523
22.817970964
23.6063863772
23.6776822539
22.6921395501
22.2197406534
22.4506567226
25.1940502073
26.8708265989
28.0198044182
27.1900619883
28.2803298997
29.2670571282
30.1079835415
30.0305978396
29.398400501
30.448996657
32.2847462055
34.1049216995
35.3940721631
36.2036055637
36.8969786667
39.3039309151
43.0929694495
46.0493874909
47.5127528026
49.2606287909
53.1168943455
47.9237972294
22.3675180197
1.09370870404e-17
9.85213121088e-21
2.80593797428e-23
0
0
0
0
0
0
0
0
0
0
0
0
0
0
0
0
0
0
0
0
0
0
0
0
0
0
0
0
0
0
22.2514275081
22.2342147146
23.6567725354
23.4369472368
23.6211379495
23.1337714646
22.714453167
24.9831837937
24.0143702889
26.2148876223
25.622929307
24.5544373664
23.5324548002
25.0222935333
24.8856120831
24.3261987212
25.2233952167
25.0917870982
23.9665351403
24.6586488672
23.5542140576
23.4796929
23.2867384384
23.5557922833
24.3883785348
25.4154100618
27.2156411896
27.0114859861
27.8889508453
29.3331282583
30.6004972276
31.414820189
30.956600772
31.2750193679
32.5240373105
34.3186512573
36.3220674423
37.9604581066
39.4504950392
43.013981192
46.8170054639
49.2186374507
50.2999655723
51.9121168238
46.8104757499
27.9221002163
20.689995572
3.4221926653e-20
7.66603170188e-23
0
0
0
0
0
0
0
0
0
0
0
0
0
0
0
0
0
0
0
0
0
0
0
0
0
0
0
0
0
0
0
22.5383825807
22.6555733976
23.9831059467
22.6264444685
23.9447868527
23.7568103796
23.44311346
25.6341214849
24.9030839594
27.0457203517
26.6540691448
25.5178887382
24.6662032282
25.9731038542
25.8131092534
25.4233322821
26.1490793433
26.1940493
25.2385386473
26.0884453426
24.9255582719
25.124472303
24.5686959498
24.874025968
26.1947759779
26.8275453982
26.8857986006
26.7671176757
27.4645844483
29.3025598418
30.6327008513
31.7045831668
32.3166980472
32.4070546556
33.8824512411
35.0937492331
37.0926397938
39.6063206075
42.6368850391
46.903867773
50.269722765
51.7960965509
50.8805384487
46.5925321691
39.6080314491
27.2577853614
2.87165156953e-19
6.53745531593e-22
0
0
0
0
0
0
0
0
0
0
0
0
0
0
0
0
0
0
0
0
0
0
0
0
0
0
0
0
0
0
0
0
23.2723965663
23.3535661732
24.3337710416
23.0705311042
24.2340028333
24.1201285525
23.9662177439
25.8841356395
25.5323372791
27.6725819094
27.6610380335
26.4242222993
25.8567114915
26.9114037009
26.7029746151
26.4872274054
27.0440239518
27.3798594727
26.556536209
27.5335408144
26.7145579097
27.1882470796
26.9818568029
25.9043009791
26.9896067923
27.952508886
28.106515121
26.6361524135
26.9793601064
29.2300057512
30.8023685839
31.4188262748
32.1856343376
32.7872221302
34.2890359649
35.7812782766
37.9860446222
41.2902274672
46.0125510919
50.8509693325
53.4795939469
53.4217350325
50.1908448169
43.9765382588
27.4048236159
16.4585340419
4.55555586971e-21
1.8472880334e-23
0
0
0
0
0
0
0
0
0
0
0
0
0
0
0
0
0
0
0
0
0
0
0
0
0
0
0
0
0
0
0
0
24.1929280403
25.1854612393
24.83651532
24.0569376023
24.7989236589
24.5402090761
24.4687732508
26.102102535
26.1039830228
27.9599532389
28.6315463865
27.233938457
26.9134156533
27.688433457
27.5413187039
27.3030580272
27.406761032
28.4590996749
27.9325000884
28.8002328595
28.6595551376
28.5539952281
28.4274253124
28.0657151295
27.4065895268
28.1595421985
29.0776180199
26.2336437781
26.5275199056
28.6025674557
30.8749501428
31.9846054984
32.9062911269
32.8557807655
34.2063913805
36.072958554
38.5477289087
42.8604251504
49.3582427326
54.5991058868
56.0800239989
51.6570688007
48.7590821385
44.7307704587
31.9023825448
3.08779709276e-20
7.88080087798e-23
0
0
0
0
0
0
0
0
0
0
0
0
0
0
0
0
0
0
0
0
0
0
0
0
0
0
0
0
0
0
0
0
0
24.8952792321
25.924673508
25.5633900173
24.948706834
25.5143353395
25.1276721125
25.0341185331
26.3947086537
26.6543498918
27.9878362751
29.4928285649
28.0031854112
27.5688523464
28.3316006134
28.4346991721
28.0408014083
27.7034402489
29.2374618691
29.3303789664
29.9078419362
30.0149930613
30.1909872094
29.0894525378
29.0944659273
28.659031988
29.777927931
30.4321769153
27.963331034
26.1573341173
27.6664738559
30.2269958282
32.1765695416
33.2004623394
33.4498385751
33.9284795443
35.902675113
38.5486707848
44.0762134083
52.5268882958
58.3618025075
57.0712098237
51.1992369483
44.8612829448
28.9674537154
22.7049816653