/*--------------------------------*- C++ -*----------------------------------*\
| =========                 |                                                 |
| \\      /  F ield         | OpenFOAM: The Open Source CFD Toolbox           |
|  \\    /   O peration     | Version:  v1806                                 |
|   \\  /    A nd           | Web:      www.OpenFOAM.com                      |
|    \\/     M anipulation  |                                                 |
\*---------------------------------------------------------------------------*/
FoamFile
{
    version     2.0;
    format      ascii;
    class       volScalarField;
    location    "579";
    object      alphak;
}
// * * * * * * * * * * * * * * * * * * * * * * * * * * * * * * * * * * * * * //

dimensions      [0 0 -1 0 0 0 0];


internalField   nonuniform List<scalar> 
6400
(
0.882395450505
1.40112954149
2.21257407294
2.73336181375
3.232227272
3.73682982397
4.39468581256
5.13476773776
5.53376038886
6.16491789042
7.39341385903
8.22119339845
8.90726933259
9.68749943165
10.6654456496
11.6892079302
12.5899032023
13.4360464796
14.1480061699
14.54921318
14.717967567
15.0051412356
15.6230009486
16.5615118501
17.5959867794
18.5199906967
19.2686139567
19.9579406678
20.6937338157
21.4908701028
22.2942830002
22.9024597025
23.2387722844
23.4307861565
23.5158979895
23.4786663379
23.6158942457
24.0020994418
24.0528289836
23.8683757637
24.0743900441
24.8073596287
25.5504921422
25.9433995902
26.0411173328
25.935819173
25.6958043516
25.3690541153
24.9685854513
24.5147414438
23.9132389492
22.9240393539
21.6259299192
20.0786390904
18.7589086865
17.742880876
16.27561192
14.0178216614
11.6308092925
9.81583239309
7.94231064195
5.99263203579
4.00983901437
4.68823555821
8.54092151943
13.4320932936
16.4078203115
16.1144418917
14.1407837941
12.5662149152
11.7504183065
12.0097507074
12.6029601979
12.5189609696
14.6070080982
14.0629716263
15.9555457262
9.85741737807
12.8665928488
4.80930993688
3.14485881409
2.51000566673
3.12090271805
4.37312377646
4.27783702803
4.17056920157
4.38678671454
4.83089646747
5.46463062001
6.27278776023
7.25057216975
8.2256148612
9.08433562638
9.9057436888
10.7416698012
11.6986416534
12.7036517321
13.6660717804
14.689379502
14.9143816286
14.8833362743
15.1352400318
15.7160913641
16.6365094165
17.8120758587
18.6712902991
19.3861735589
20.1179242078
20.8714308409
21.6368775391
22.4072128061
23.1170784778
23.4489341319
23.6375712213
23.7610931214
23.6207755106
23.8141424723
24.2239546722
24.2151270375
23.8716123727
24.043260513
25.4258035276
26.5264811536
26.8140973792
26.844497877
26.6411869378
26.275170141
25.8603866156
25.2648596179
24.6182591665
24.0998583738
23.7317263814
22.6832252135
20.3033108591
19.1256854519
17.8434529493
15.6881393815
13.4934104038
11.3902665422
9.31847222607
7.43690751684
6.36176462127
4.41954509565
5.12099722893
8.68353144111
14.4834470463
18.2221697297
16.9404769627
14.7873117921
12.895485194
12.248614172
12.7243431757
13.8781815663
13.3313907066
13.211873494
12.7113001817
11.532495344
9.70568612661
8.16533056441
4.2498130721
3.22946869318
2.83523535554
3.35034828641
3.6295962416
4.15881427138
4.59566071202
4.585748925
4.73697504132
5.36965113546
6.25023112932
7.23489916494
8.22971879823
9.13547146538
9.96165185695
10.652551064
11.5175703028
14.1594575569
16.1671509749
16.5835107956
15.9902343445
14.6910946355
14.7871910103
15.846948117
16.8210440834
17.7271555754
18.6611317239
19.4915378512
20.2260424392
20.9586046527
21.7227999028
22.4551755919
23.2652170892
23.598748338
23.5308496823
24.0154853797
23.8902513441
23.7182721907
24.3497003011
24.3802922238
24.0927531353
24.2777500605
25.0006481704
25.7290947125
26.1266301412
26.2493049896
26.186890569
25.9806694538
25.6513545206
25.2017549767
24.6552067336
24.0138442383
23.1654814612
21.9825616342
20.7480602298
19.5359798545
17.6988721138
15.5938765304
13.4893495352
11.4247080276
9.45780455713
7.73028162212
6.10582881754
5.02211185071
6.48392627806
11.0774391758
15.4898193552
17.654559158
17.7686574417
16.2044083607
14.571966111
13.9351080319
13.8910350331
13.2687267622
12.7086695308
12.7134600592
12.3947843
11.4305283039
9.81636436036
7.38440572743
7.56993088368
3.23327892662
5.50160854525
3.66425522914
3.7827463108
4.47726145082
11.8719315319
10.2597766241
5.30953581587
5.34422709291
6.2504963425
7.25923524369
8.27299347992
9.15429703908
10.0030808813
11.7128859938
13.8173413383
15.4910838865
15.9161881697
14.8823671754
14.1102762801
14.4484822807
15.0377334551
15.8167122301
16.7932966222
17.8156119794
18.7862210786
19.6469621951
20.3578386002
21.1150417503
21.8002113309
22.6793160696
23.2555801025
23.9081174868
23.8472913223
23.5347200691
23.9859100583
23.9103302414
23.855280297
24.0745601152
24.2786032575
24.6024379418
25.1708225852
25.7661151019
26.1588856506
26.3209822561
26.2953487087
26.1174736943
25.8092647731
25.38029443
24.8386179662
24.1697627568
23.3163794677
22.2411009452
21.0058453319
19.553293815
17.7399488927
15.6776489464
13.5825343845
11.5695662042
9.73142037376
8.18003493308
7.03395894491
6.74968782833
7.79662236738
10.5377823929
15.9039909026
19.368341005
19.5352412686
17.8810965815
15.5441541424
13.9763703697
13.2348136813
13.4465014975
14.8821316064
14.8369346041
13.5285404175
13.3964668762
16.6880608321
13.0907250557
11.1087305498
5.66330128343
7.56636937756
4.42156799858
4.73960137409
6.58143968267
11.7642590968
8.22621408553
5.76258119704
5.86703975992
6.4732662261
7.40484000501
8.43333650901
9.85322338408
12.1472370341
13.1804542294
13.5838614526
13.6273229631
13.4635783854
13.5844842019
14.1617346925
14.5822785755
15.0838320633
15.9100232633
16.8990952391
17.9397720538
18.9439154288
19.7711112819
20.6179603915
21.2323142093
22.1272793802
22.7205480504
23.924980844
23.8361275258
23.4668199062
23.6680089196
23.4735523605
23.6115793367
23.8997968579
24.2096854316
24.5077000163
24.8693374979
25.3576172604
25.8655891918
26.2416579624
26.4287992949
26.4352506667
26.285602511
26.0015177348
25.5953261772
25.0686037421
24.4037355035
23.5659262585
22.5317873796
21.2902830257
19.7677252016
17.9162145378
15.8711756497
13.8363826712
11.9577915233
10.3580470588
9.16615774495
8.53173700845
8.68240657155
9.03595008601
10.7879081496
15.4317482687
19.4521598407
20.844270947
19.6858869283
16.9335631791
14.4772384064
14.1879664341
16.4747837456
17.3610383622
16.3346485944
15.4269160132
18.0865377378
21.1008967265
16.4141518959
15.5300048899
9.95887416502
9.1240628712
5.50726160655
6.06792958635
12.0467824852
11.52004843
6.61433647518
6.35596685548
6.49226540547
6.82470603344
7.65542531077
10.2807353809
13.4915357607
13.9418939032
13.611711562
12.7324121614
12.413186952
12.7943051177
13.7413944271
14.1380506041
14.4717432536
15.1552608065
16.0578372669
17.0817940225
18.0514500121
19.0674627729
20.1621213289
20.7244682628
21.784568868
22.1764971197
23.6320245813
23.6991195484
24.5145244935
23.7160919916
23.0674641402
23.1882087713
23.596891789
24.0190512409
24.3956196173
24.7441979118
25.1260857313
25.5738870736
26.026564364
26.3836608222
26.5841199022
26.6163691267
26.4938088125
26.2368418678
25.8594095628
25.3605722911
24.7219463224
23.913524815
22.9019732197
21.6431110245
20.0814036871
18.2376505644
16.2710317529
14.3808640181
12.7211755075
11.4227416438
10.5852593265
10.3607422876
10.9377975458
10.0946322067
12.6114030619
17.3517913818
20.7668090087
22.1183800598
21.203178005
17.839547911
15.6584254624
17.4833008218
19.7072149298
19.1959966788
18.2101934652
18.2943715992
22.8641672112
24.4488303953
19.4459149847
19.2474732294
12.0769996832
8.97456211392
6.6965408993
6.27884461507
11.9893090279
8.40433193304
6.83183949856
6.94682579061
7.07323859881
7.76558692607
8.25866858026
13.2289819988
13.9219500771
13.9711129743
12.6539984908
11.6988567721
12.0069475384
13.3339453115
13.7144953768
13.8422387323
14.4878006788
15.2712967536
16.1762882199
17.1980706744
18.3620420194
19.4788587643
20.1890499861
21.5758574156
21.8611982445
23.4412705258
23.3602464527
24.4188328245
23.9507102859
23.4755323539
22.8821268469
23.1300309824
23.6743564281
24.1807794585
24.6012311897
24.9848741973
25.3855494296
25.8166406389
26.2379144736
26.5802174368
26.7884398717
26.8414595204
26.7458854391
26.5212543091
26.1819562036
25.724935388
25.1287711322
24.3585706944
23.368838499
22.1091597534
20.5575781844
18.7872243218
16.9740541856
15.3026909255
13.8913832986
12.8049197714
12.1457915183
11.9514505396
11.7464158926
11.7494504134
14.1424727519
19.9871843352
22.1891454349
22.4723597767
21.3972791589
19.1246457493
18.8624231713
21.4298424822
21.8763421972
21.0541947116
20.4806901829
22.4633898934
25.2127394794
26.6737926544
22.0905104188
20.9529456812
11.7903775637
8.62309683079
7.8362744036
12.1502736284
12.0901544084
7.42505599368
7.48093477561
7.62509623086
7.72751122018
8.2950092136
12.9858125245
13.9268286418
14.0185710146
13.5465217158
11.4871768135
11.2822088194
12.8486029622
13.4788733694
13.3471372411
13.718952382
14.5323876908
15.4531811658
16.3865517789
17.4651776875
18.463930753
19.8441766459
20.2894610639
21.5933200059
23.1388482336
23.5787761636
23.0529395953
23.8862021981
24.0352893487
22.9088766473
22.8657441034
23.2748690768
23.8225769224
24.3561247434
24.8171755872
25.2352899678
25.6562089175
26.0867350689
26.494124888
26.8276071971
27.0415074094
27.1130842851
27.0466206814
26.8614190869
26.5712014963
26.1699852338
25.6314604776
24.9131037714
23.9626614274
22.7405969204
21.2647779643
19.6464003942
18.0534079352
16.6056847519
15.3274762845
14.2646601168
13.5847457173
13.3130385542
13.2882436782
13.6230524164
13.679763411
20.1377229606
24.0087839277
23.9418736861
23.312699411
22.3364128721
23.1400773556
24.4911954513
23.8133756458
23.1496655149
23.3831046967
25.7286683185
26.4061013985
26.9872186863
24.1086676514
21.9714957404
11.0639470696
8.54212455836
8.50226849671
13.1262183184
11.0614003833
8.03726634545
8.18448802335
8.45851041521
9.65711833119
8.40133149692
13.759292612
14.4461229652
14.0574914932
12.312394329
11.1142919674
11.4221534672
12.9317146949
13.1933620901
13.2348366183
13.7456716039
14.5373636508
15.5394000419
16.5770420343
18.0653009206
19.3221520103
19.8083561438
21.7340532715
21.487377764
23.343904867
22.9983639193
24.2318638003
23.2148552935
22.8815020474
22.820809864
23.0376336919
23.4749361736
24.0053807011
24.5466541603
25.0438922765
25.5006782101
25.9461605761
26.3852152171
26.7912465699
27.1231172744
27.3432564021
27.4338173767
27.4010784601
27.2639868031
27.0344336423
26.7036060353
26.2403775857
25.596045713
24.719194552
23.5919264249
22.269767332
20.8776289218
19.5254595895
18.2012355828
16.8480926555
15.6680067902
15.0471751806
15.0717422495
15.3680428609
15.5567748536
15.3800684376
16.9341226406
24.1978563371
25.796155363
25.7064873985
26.2711672393
27.2692714662
26.8842979607
25.8701979252
25.6967126015
26.7237916022
27.93901745
27.7924905464
27.1786676478
26.1594647425
24.7882711778
10.5249993034
8.97624030791
9.65720836839
13.1939347237
9.09688192416
9.05408998639
8.89434284775
9.15918388886
12.2531800108
10.9816582775
14.5940385605
14.7148810201
14.1269608444
11.6221924908
11.146824649
12.7405176782
13.1671109345
12.9484643705
13.2034618019
13.9022094722
14.6705555139
15.6177007192
16.5158965007
18.2268579944
20.366326845
19.7551593424
21.6857031713
22.9597043469
23.5893684544
24.1887642149
23.4721850521
23.4810943265
22.5873372238
22.7347984542
23.2055041365
23.6961460793
24.2149272658
24.7550675272
25.280954821
25.7800129878
26.25900963
26.7153812226
27.1281287333
27.4647650125
27.6949530738
27.8071745341
27.8135448901
27.7342200449
27.5779993977
27.3333404741
26.966853776
26.4281487712
25.6742054463
24.7139608274
23.628775858
22.5133528824
21.3370342677
19.9128540967
18.3322524156
17.2069279148
17.0063709907
17.5243661579
18.0205749658
18.1333999988
17.8088581337
16.4525371001
16.3156881442
27.5229432479
30.2518393895
31.1034726973
30.8336404754
29.3268072834
28.390769656
28.7111531057
29.9178707227
30.2850936321
30.0485488455
29.7523380626
30.0903346254
30.2735009428
10.498185215
9.81226053081
13.0711001178
13.35565193
9.19963831676
9.81108248163
9.59968859853
10.0863846674
11.757454612
14.4744380321
15.419878225
14.981652282
14.3641500086
11.6319682079
11.3039464198
13.2596791154
13.2692311172
12.9251477481
13.2316174209
14.0399443507
15.0365055673
15.9783989028
16.7020725253
17.8601495993
20.5394218587
21.7369117453
21.3082480871
23.0880236262
22.4520751267
24.2191118676
24.5383739733
23.4309728432
22.5572574689
22.8476564741
23.4042346129
23.9283751365
24.4487209209
24.9880985504
25.531535782
26.071246328
26.5939750229
27.078282481
27.505281608
27.8522693008
28.0972934971
28.2368685168
28.2894998899
28.27677497
28.2056222446
28.0637263524
27.8190674413
27.4259457139
26.8577163681
26.1498335559
25.3793531047
24.5254488105
23.3146805526
21.5991230647
20.0666507654
19.4611583037
20.0067325361
21.0441451657
21.6703380164
21.7125082029
21.0817258655
19.4697952818
16.9350542694
17.5198476434
31.583741652
36.66924056
35.1390372122
32.5505919815
31.6761813183
32.2183416264
33.0894446334
33.4883854814
33.8201890697
34.3277298765
34.9292727425
35.5951294189
10.8471160537
10.6802206933
14.7116532215
14.0612236077
12.1584105783
11.0317637674
10.5296564231
11.5457030766
11.227234723
15.4378865751
16.0683678088
15.3225839616
14.4484116576
12.2481044154
12.0665191358
13.724910787
13.2927134152
13.0098381568
13.3509901778
14.0855008364
15.1856005373
16.4377833629
18.1457601972
17.9991413152
20.0416989395
22.1159575885
21.1996329236
23.3540231258
24.1761644446
23.399412499
23.6225611241
22.7793166672
22.8512469031
23.1767579301
23.6602549596
24.1848927828
24.7122797834
25.2551060172
25.8037696652
26.3700135082
26.9441736073
27.475296252
27.9256409596
28.2862768341
28.5516471594
28.7265470024
28.8336439009
28.8952036705
28.9183083251
28.8936746957
28.7958206507
28.5945684213
28.2896383246
27.9262680634
27.5038129451
26.741116114
25.2474544877
23.5692604812
22.6974834748
23.0153451625
24.4776165837
25.913085556
26.6579201476
26.8381184085
26.2397603701
24.437808933
21.2269864902
16.44162909
26.3356663174
37.1346981619
39.9413892671
36.9259846449
36.1035869011
36.5892753414
37.3183278283
37.8019226054
38.8040233747
39.5733876813
39.5333715808
39.7446218895
11.4465552276
11.3297619521
14.4559856593
14.5480946558
14.5591464954
12.1655572748
11.5917096364
14.4056636947
11.5959791725
16.2976414504
16.5632110723
15.6738724315
14.5336211537
12.857987138
14.6781805966
14.7816996642
13.4817050324
13.2307320785
13.6036738235
14.2307614221
15.1482312841
16.4284791459
19.432856757
20.3799330941
19.5304819855
22.1866108985
23.1251739264
22.9267665462
24.1453603996
24.5108766709
23.9759236752
22.8134322606
23.0576101627
23.5102450589
23.9717411132
24.47427738
24.9936239415
25.5536726741
26.1257865968
26.699803195
27.3039512022
27.8911526522
28.3867709032
28.7707837922
29.0609074259
29.2793348145
29.4499248595
29.5914118936
29.7123178362
29.8116541078
29.8807847454
29.922494508
29.9685193454
30.0245764653
29.8689290835
28.8666709248
27.3337391975
27.0333540873
27.5334101739
29.037402022
31.2398183545
32.5562684893
32.4401541438
32.0781752789
30.4129779117
27.7480030345
24.4083929338
17.991449017
17.6910477611
31.63492197
38.6715135528
39.6230211152
38.2526293957
39.7040590524
41.1401367436
42.91075292
44.4905427224
45.0760987192
45.0547693781
45.2417179967
12.1051042729
12.029223844
11.6829917761
14.8733401824
15.0912912332
12.9333233171
12.5487337719
15.3895514316
12.2502426767
17.1841524197
17.0089465173
16.0393622845
14.7294683067
13.1705014652
15.8379463098
15.3492407562
13.9141122517
13.6265579742
13.9553240988
14.5456376478
15.2358598539
16.3238602407
19.9491467989
21.4522399416
19.877640954
22.2297611064
23.6495142448
22.4154571558
23.7780777879
24.0644251463
22.9736314192
23.1658047919
23.5071799081
23.8948328168
24.3155474015
24.8169648684
25.3307752925
25.8629989968
26.4618356366
27.0800704818
27.7052941554
28.3280247771
28.8748179926
29.300471504
29.6279012374
29.8996876393
30.1412630378
30.3622456972
30.5758503755
30.7948601842
31.0363975718
31.3714244537
31.857430982
32.365011221
32.1770649953
30.6795262029
30.3052611225
28.0488517501
25.7041094287
24.8830611158
23.2431208886
17.4646825319
1.22551573999
0.125036660059
0.00992239937404
0.0027949397119
0.0328985433746
0.336141876238
3.79707745063
9.917615769
43.9282228824
49.3076288535
48.8848570603
44.2332935128
40.8507508299
43.6263519793
48.7442859599
50.5019181658
51.8763207962
52.3565017926
12.9435257974
13.0338071545
15.512010385
15.5142142407
15.5382655085
13.5873982509
13.5891438186
16.2338215246
13.2629178426
17.9517280468
17.434371329
16.4281041288
15.0067975567
13.5627788081
16.1198090871
15.5432557581
14.3450252881
14.080371098
14.3418638955
14.8644740106
15.4924602954
16.3506797829
19.3550714237
22.2676138645
22.4153239547
21.604443482
23.8659176191
24.6511355865
22.6253695789
22.5402386667
22.9143917336
23.4047167898
23.8635594003
24.2823681441
24.718105439
25.1854855512
25.6988265807
26.2466270437
26.8236496888
27.4750690855
28.1511956366
28.8083050599
29.3933363852
29.8652666437
30.2484081268
30.5879790126
30.9070932832
31.2091920668
31.4969411519
31.7958319392
32.1982368303
32.8663759054
33.8539262086
34.7097332575
34.116112027
30.6093395841
21.5221089079
0.000415586867927
4.57102458308e-07
8.5690370178e-09
1.45251049692e-10
4.2024732533e-13
1.19425116379e-15
2.06722616048e-20
1.61699043604e-20
3.9256809452e-20
2.64621933372e-19
1.23947436189e-18
4.57862447988e-18
2.90964430442e-17
2.27818653827e-17
1.97645068465e-15
1.12493068412e-12
1.13079537772e-10
8.58082671402e-09
1.97595704484e-06
0.0332615749418
53.3149847955
58.0059167139
59.6703245774
13.7316322072
13.9222864598
17.1274510786
16.1807721384
15.6476694491
14.2487731684
14.5988271384
16.9454169461
16.9183747531
18.9044028935
17.9206052232
16.909106257
15.3678568049
14.1005609427
16.4193380986
15.6774926644
14.7610084722
14.5431912421
14.7336450269
15.1755987778
15.7725503677
16.5985515073
18.8372731273
22.5309343594
23.7895465931
21.3261971084
23.3986146659
24.7152905784
24.4440942789
22.9943590392
23.0105775518
23.6325128157
24.2271530784
24.7196857654
25.1094201473
25.5835358225
26.0878421035
26.6523723212
27.2463799833
27.904328243
28.6262259343
29.3361683093
29.951643044
30.4524381471
30.9007006848
31.3588012538
31.7952714953
32.1517604846
32.4166802861
32.7415543716
33.3121066073
34.2863178247
35.7389322123
36.8800030026
29.368006323
0.000615064188038
2.2981566144e-10
9.30642523331e-13
2.69126752677e-14
3.91799218799e-16
3.18328585769e-19
5.31161751276e-22
3.7441835615e-23
0
0
0
0
0
0
0
0
5.20752081935e-27
1.75638896431e-24
2.62718351875e-22
1.52420774436e-19
2.12894415255e-16
1.15287767029e-11
1.75078391738e-07
1.36497820311
61.9700394568
14.3764975927
14.5891701065
19.2817279205
16.6962520458
15.5069242619
14.8366669551
15.3241337247
16.9965345146
18.509045919
20.0019416543
18.563940557
17.5242487847
15.9788253211
14.9324802596
16.9255617428
15.9658202516
15.256717332
15.056303909
15.1654996231
15.5237232017
16.0508787397
16.8165849053
18.6283557734
22.4084481053
24.7840653059
24.0005170574
22.883968898
24.0858173896
24.185067204
22.9734290672
23.4650446773
24.117287264
24.7599638589
25.2108555553
25.6175333057
26.0179038304
26.5343158921
27.0872983834
27.7064916682
28.3845962589
29.1269247793
29.891476641
30.5837090755
31.1145473091
31.6165984151
32.2013505706
32.7685650967
33.1428468715
33.3404716321
33.6584086728
34.3377957811
35.4250219303
37.0181046251
29.837012518
1.52186479387e-06
3.3272039581e-13
1.09117802901e-16
4.41227328796e-18
6.01600180408e-20
1.64975119225e-22
0
0
0
0
0
0
0
0
0
0
0
0
0
6.70988998092e-26
6.66773493941e-25
1.46171196775e-23
7.08763920567e-22
3.93592868606e-18
3.27612379944e-09
6.31525743291e-14
14.8805679041
15.0824945045
21.3438152593
17.0919802758
15.6249061881
15.3847392501
16.131055188
16.3510398868
19.4613902273
20.7885025814
19.18977493
18.1554037739
16.7905806411
16.8269819378
17.6329313761
16.4964810027
15.9487899718
15.7667802705
15.7059861088
15.9593236686
16.3825330207
17.0714902586
18.6112931275
22.2730876327
25.2002394869
25.6511870511
22.6498122638
22.9941152157
22.9110575174
23.0968445601
23.7742189082
24.6194107701
25.2632492683
25.7437481728
26.1671576502
26.6440010691
27.0461864126
27.5898218351
28.2085986407
28.8883388537
29.696888454
30.5282711671
31.2676642266
31.7693437543
32.2754553994
33.4858890475
35.1165881615
35.6545832734
34.8137873387
34.8711319475
35.51325699
36.5917041319
28.3043708427
1.76069682643e-07
2.65360075965e-12
1.19044702288e-23
1.20296146415e-20
1.96290159414e-22
0
0
0
0
0
0
0
0
0
0
0
0
0
0
0
0
0
0
1.03665696555e-24
7.02006974644e-24
1.29455906398e-21
94.4386454319
15.32406254
15.4919579102
21.1768741492
16.52152471
15.8304611424
15.8601583663
17.0483311186
16.3487821534
20.2666922251
21.5232849918
19.7879093611
18.743616685
17.4209678254
19.0596029047
18.6209191961
17.2317308669
16.746497192
16.8420486597
16.469478472
16.5645147606
16.8140330334
17.3672220262
18.7369462183
22.1248671624
25.0741574351
26.758151818
25.3883776787
24.3781838804
23.9174194484
23.3657240699
24.0840195527
25.2702609229
25.7151373453
26.2788333093
26.9701652762
27.2530244128
27.654294873
28.1990037382
28.8306075358
29.5110347548
30.2667604656
31.1491605241
32.0250016576
32.9322037923
34.0246991243
35.5972650631
36.8564546328
36.8002450002
36.6902415334
37.2550618615
38.3017737659
32.3417087925
8.00696215735e-07
7.30875751413e-12
9.60606423175e-16
1.30468764392e-17
0
0
0
0
0
0
0
0
0
0
0
0
0
0
0
0
0
0
0
0
0
0
3.18977677125e-24
2.32169057635e-13
15.8384603298
15.9837257412
20.8127453329
16.1937565352
16.1314248112
16.248999496
17.8372250018
16.8177852783
20.9659741631
22.2456008763
20.3854282411
19.3377613629
17.9533018107
19.8129200666
19.5379018357
18.040326236
17.5328941243
17.7381621784
17.3843463242
17.3918383636
17.4478659849
17.7109238956
19.0235673432
22.1074517933
24.8021980386
27.0933760715
26.5984608688
24.8971778721
23.3218251588
23.8839191526
24.6204821834
25.7670776828
26.5997383224
27.2819749609
27.8171269786
27.9677950366
28.3459602519
28.9036965446
29.5462306753
30.2556033251
31.0151759168
31.9738842087
33.1859082938
34.733368053
35.7788648263
36.1562865944
36.8142556531
37.2624444836
38.8886117196
41.0486638131
38.6472707276
7.29589960931e-06
9.68756182842e-12
1.67057036937e-15
3.42642585761e-18
8.29603611082e-20
2.78469772248e-22
0
0
0
0
0
0
0
0
0
0
0
0
0
0
0
0
0
0
0
0
0
5.36052714546e-25
7.09246703286e-25
16.5992859058
16.7448772559
20.4842682449
16.4861237038
16.7013894392
16.7390117902
17.8451251895
17.5531717007
21.4699167187
22.9337731837
21.0197824726
19.9844404286
18.6086495771
20.5024670007
20.3681181029
18.9433748274
18.3822711233
18.6140033178
18.2771155767
18.3663411533
18.3593094366
18.2162611134
19.5047604594
22.2802897648
24.6787689881
27.1920439508
27.1505249853
25.6170097505
23.8144200924
24.1215172803
25.2658031263
25.9236824908
26.6224145647
27.5195328618
28.760867944
29.0154940729
29.3050163833
29.7147766447
30.3154246908
31.1007427482
31.9711054819
33.0618696519
35.0082487081
36.7673523834
36.9853420503
37.1752914772
38.2867851794
41.1982602386
45.0618782417
43.059195287
2.0844612406e-06
3.46265610265e-13
1.43292806823e-17
4.69810086688e-21
2.94780634146e-23
5.97496456312e-23
9.17531600009e-24
0
0
0
0
0
0
0
0
0
0
0
0
0
0
0
0
0
0
0
0
0
3.96212293483e-26
1.79908360227e-25
17.7449566296
17.8496886784
20.7769990945
17.4400722394
17.8779329905
17.6046406455
18.1584530036
18.8888565561
21.5164527614
23.4513650865
21.720285853
20.705264167
19.3738414402
21.2865691622
21.2272434306
20.0116607792
19.4201103448
19.6395106565
19.1783320176
19.4405709928
19.5886707384
18.9534210231
20.0553318911
22.6440936406
24.7470416013
27.0581256037
27.4036170753
26.2620846184
25.8622802602
25.0050179138
25.695744243
26.7812572984
28.0773783516
28.1247252495
29.0014226378
30.0723503721
30.3730154883
30.8596541564
31.349390829
32.0339949504
33.0457150785
34.9897725128
37.6778978717
38.5730937745
38.3687131582
39.5325523314
43.9788649474
50.4045906747
48.9182737473
7.4978426652e-08
5.24611090918e-15
4.89795985387e-20
3.35134559416e-22
0
0
0
0
0
0
0
0
0
0
0
0
0
0
0
0
0
0
0
0
0
0
0
0
0
0
0
19.3443445424
19.2145157432
21.5990557454
19.3517540724
19.8563703712
18.8845816971
19.1106887399
20.8213362012
21.7398877659
24.0783000673
22.540717865
21.5107568418
20.2248722935
22.1088371132
22.082238247
21.1898466038
20.9420585358
20.9805486517
20.1726823363
20.6136936353
21.1230346914
20.0118318636
20.4894551554
23.0949178942
25.0140232441
26.9397431305
27.5919765218
26.4267342014
27.0628670183
26.6161485534
26.7927330812
26.5048192813
27.7903332108
29.400236539
29.9803848178
30.8047261572
31.4435389631
31.954177019
32.598261315
33.3020322383
34.814073095
38.0090950689
40.2762231766
40.6243004145
41.3245852834
45.2237173134
53.5869169838
51.7752134058
1.06355271316e-09
4.68172026231e-17
8.18463517227e-20
3.7476400886e-22
0
0
0
0
0
0
0
0
0
0
0
0
0
0
0
0
0
0
0
0
0
0
0
0
0
0
0
0
21.0399417164
20.5016221985
22.4940572853
21.8846385218
21.5919809435
20.3724899799
20.1661120801
21.9778742072
20.9899899654
24.5704345916
23.4634192235
22.3933562895
21.1527682753
22.9454282758
22.8785457407
22.1770010961
23.0525215436
22.5986752499
21.2937583149
21.9132719287
22.4895492399
21.3748953877
20.664536697
23.1078574176
25.2118152031
26.8615938709
27.6749155439
26.5303341038
27.4670533812
27.9248387806
28.1658988966
27.3051968032
28.0750235347
29.337342299
30.9342817269
32.0528249261
32.7498021791
33.2237170216
33.8415816538
35.0137928268
37.9682530974
41.4001090307
43.0862717554
43.9423448662
46.4753532516
52.2807753468
49.4960715148
23.0416308316
1.2605937357e-16
1.82497539367e-19
6.39141589706e-22
0
0
0
0
0
0
0
0
0
0
0
0
0
0
0
0
0
0
0
0
0
0
0
0
0
0
0
0
0
21.8966752633
21.4156357328
23.0775992933
22.9621063653
22.6877941386
21.7866268124
21.3872562062
23.3821898776
22.0582379645
25.1977373756
24.3976822942
23.3223721873
22.1527795779
23.8143872259
23.6890177998
23.0095790422
24.0447924598
23.7303755035
22.3924162284
23.2002187429
23.2574371581
22.2181644776
21.7228446152
21.9492234547
24.7415726927
26.397515675
27.4911698362
26.5313975771
27.5658516537
28.4967966533
29.2970609804
29.1646297604
28.4406612651
29.4284546042
31.2066474417
32.9607403058
34.1744874141
34.9156551658
35.542097418
37.9885839228
41.876864324
44.8623084841
46.2785522417
47.9632744376
51.8069330613
45.940800526
20.6824826854
6.65953338196e-16
5.99890962192e-19
1.70852051725e-21
0
0
0
0
0
0
0
0
0
0
0
0
0
0
0
0
0
0
0
0
0
0
0
0
0
0
0
0
0
0
22.0281543937
22.0056152576
23.4506120699
23.2188041417
23.4004559915
22.8949200676
22.459534551
24.7650312185
23.7724235733
26.0062670388
25.3928949669
24.2848291373
23.2202025938
24.7309420123
24.5714795221
23.9751932221
24.8773530846
24.724008238
23.547353003
24.2549128383
23.1021245698
23.0058457841
22.7953064399
23.0672834704
23.9070941779
24.9179901173
26.6940799527
26.3691058641
27.1688760149
28.5666692064
29.7931821676
30.556553156
30.0116629523
30.2584625331
31.4397882313
33.1650934367
35.1018402841
36.6865249584
38.1566770491
41.8278847641
45.712314917
48.1123771095
49.1198313389
50.6492977774
45.2333564351
25.2282027173
10.2338966289
2.08375467892e-18
4.66780540718e-21
0
0
0
0
0
0
0
0
0
0
0
0
0
0
0
0
0
0
0
0
0
0
0
0
0
0
0
0
0
0
0
22.3238661882
22.4387243149
23.7842155576
22.398882413
23.7310540961
23.5277988624
23.1973006998
25.4189769073
24.6661106111
26.8378875663
26.4288168644
25.2521706761
24.3618804249
25.682402107
25.4989372611
25.0759282201
25.8003015185
25.8276380727
24.8248849133
25.687963491
24.4778207628
24.6648461293
24.0792529625
24.3837580783
25.7317317388
26.3612849367
26.3726224622
26.1425305666
26.7454275014
28.5486037747
29.8384279389
30.854191927
31.4010989957
31.3992731254
32.8326142863
33.9536893862
35.8783786074
38.3563859822
41.4323821282
45.822986903
49.2378438942
50.7131260162
49.6375388005
45.0275836921
37.0925615224
25.622648821
1.74853317141e-17
3.9806213253e-20
0
0
0
0
0
0
0
0
0
0
0
0
0
0
0
0
0
0
0
0
0
0
0
0
0
0
0
0
0
0
0
0
23.0722130217
23.1512326208
24.1433457099
22.8552273034
24.028570024
23.9009647265
23.7320235535
25.6731201972
25.3042702842
27.4683978915
27.4446760015
26.1655840277
25.5640755379
26.6240878881
26.3914290035
26.1449898438
26.6928504143
27.016171516
26.1481968696
27.1330947041
26.2722551589
26.7440122182
26.5177878631
25.4022199658
26.5124718566
27.4868408151
27.6242375073
26.0283857853
26.2605841208
28.4909682609
30.0250281781
30.5677545784
31.2688406725
31.7942105895
33.2379140534
34.6470523402
36.7852060698
40.0762527344
44.8993404638
49.8595434587
52.5073409127
52.3114196769
48.7166711724
41.8599390509
25.8129973851
1.98809489898e-16
2.77385342877e-19
1.12480373239e-21
0
0
0
0
0
0
0
0
0
0
0
0
0
0
0
0
0
0
0
0
0
0
0
0
0
0
0
0
0
0
0
0
24.0097453493
25.0119358671
24.6571095683
23.8605711108
24.606741468
24.3338064129
24.2488261482
25.8983651051
25.8873395842
27.7595919219
28.4279915154
26.9861038592
26.6343774936
27.4062269561
27.2372418856
26.9665962021
27.0478379129
28.1006039827
27.5335455524
28.4005944593
28.2329003214
28.1089997895
27.9657815446
27.5908011441
26.9123159631
27.6793543808
28.609930449
25.6235759948
25.8268605097
27.871402213
30.1145767438
31.1657489023
32.0376178624
31.8894513906
33.1771830022
34.9646051135
37.3652138361
41.6868507442
48.3295336457
53.6836562732
55.1443337996
50.4218862689
47.1419335989
41.703002147
29.242032271
1.88014301615e-18
4.79857720157e-21
0
0
0
0
0
0
0
0
0
0
0
0
0
0
0
0
0
0
0
0
0
0
0
0
0
0
0
0
0
0
0
0
0
24.7312692272
25.7690751448
25.4020991694
24.7736350179
25.3406267129
24.9391494729
24.8318596523
26.2022644805
26.4519052759
27.7926408506
29.305171341
27.7714655383
27.3022535596
28.0585506882
28.1453437677
27.7147060021
27.3421669811
28.8842679561
28.9468672696
29.5106702134
29.5946775624
29.7528011541
28.6089401988
28.6030201968
28.1597426179
29.3175400134
29.9815617333
27.4206127944
25.4840610769
26.9542280271
29.4960072094
31.3935805933
32.3486616345
32.5217074198
32.934977818
34.8490973314
37.4056227225
42.9501108877
51.5788311048
57.5253421356
56.0860117952
49.8555760466