/*--------------------------------*- C++ -*----------------------------------*\
| =========                 |                                                 |
| \\      /  F ield         | OpenFOAM: The Open Source CFD Toolbox           |
|  \\    /   O peration     | Version:  v1806                                 |
|   \\  /    A nd           | Web:      www.OpenFOAM.com                      |
|    \\/     M anipulation  |                                                 |
\*---------------------------------------------------------------------------*/
FoamFile
{
    version     2.0;
    format      ascii;
    class       volScalarField;
    location    "158";
    object      alpha;
}
// * * * * * * * * * * * * * * * * * * * * * * * * * * * * * * * * * * * * * //

dimensions      [0 0 -1 0 0 0 0];


internalField   nonuniform List<scalar> 
6400
(
0.826816050492
1.23198839504
1.88056414107
2.13292666702
2.39178872492
2.69846670892
3.26031351953
3.92656806391
4.00680300108
4.26601861169
5.36890222725
5.80077291445
6.10591381964
6.55515207596
7.29001656565
8.03908587355
8.55713300012
9.06708816429
9.5435884092
9.73866991733
9.61543379331
9.48992360854
9.61945673004
10.0866303092
10.6487228821
11.1062242037
11.3642735434
11.5777992066
11.8967322291
12.3303925958
12.8280574991
13.0926506725
13.0715287165
12.9609294572
12.7620489921
12.3305976793
12.084319154
12.3523831773
12.0626756793
11.3904157902
11.1589582348
11.5657252872
12.0352583781
12.2539386692
12.3102390052
12.2403716336
12.1270103525
12.0424386495
11.985610595
11.9527634455
11.7553863252
10.8822759233
10.1148446544
9.28418963013
8.99437944496
9.54952390292
9.54063429353
8.31530058853
6.80883133587
6.34907228323
5.56757569378
4.6802019817
3.78845109494
5.53893280093
9.62313462054
14.5702717985
17.5635113849
17.2672198138
15.2469851924
13.534697179
12.545279685
12.5969027086
13.0056773341
12.8038311406
14.7471056289
14.15180993
15.9867966217
9.88357546758
12.8706000711
4.81192793103
3.07370166013
2.37247594119
2.89401461121
4.07835460208
3.69853229466
3.23513734937
3.19172377049
3.4248280292
3.8114565057
4.3327240419
5.01467498842
5.69501438724
6.2655260864
6.80977292317
7.34443926096
7.98036956151
8.64528672226
9.3445379901
10.4419251452
10.4048030181
9.97884954648
9.72708733767
9.68653950859
10.0641409245
10.9441540434
11.2424400473
11.4249167351
11.7269384416
12.0910352896
12.4868155301
12.9112449003
13.4188653997
13.4092247175
13.3330894862
13.2502661036
12.5333875237
12.4753741214
12.7396702161
12.2589726277
11.1899838295
10.8668811016
13.4013871306
14.8367724775
14.8804324646
14.8010633755
14.4085454267
13.8423343192
13.4157223773
12.7568858886
12.2342715841
12.2597322413
12.9900902161
12.914111586
9.50618736501
9.54439798034
9.33542447972
7.65726362397
6.56230373441
5.7093939275
4.87109537875
4.24471995214
5.00266273143
3.95983900525
5.70051022148
9.66418981934
15.4780725579
19.1997632347
18.0090608824
15.8240064047
13.8417934015
13.0135127282
13.2838363569
14.2406035663
13.5995892138
13.3830511047
12.8133884052
11.584949567
9.73141178225
8.17575914645
4.26022385244
3.01840692995
2.54207720764
3.02108643909
3.06168685039
3.26120457334
3.53441847618
3.44303500814
3.3810303427
3.74523525589
4.31940756718
4.98734220649
5.68683192193
6.31349449997
6.87478453961
7.27939424753
7.85031050856
11.1969492024
13.3771489394
13.5673323338
12.4545793401
9.86606065532
9.1303106059
9.92893879751
10.3715801723
10.6924934509
11.1663417063
11.5720437553
11.8822721779
12.2247748667
12.6598043391
13.00261962
13.7189260605
13.7947709741
13.1627546538
13.99857103
13.3250040347
12.2991398323
13.2360143232
12.6489995334
11.4607101171
11.0849139316
11.5852148181
12.1453323564
12.4071394505
12.4845400912
12.455358893
12.3511083652
12.1906930866
11.9732024249
11.7219121873
11.4368320665
11.0366213909
10.4679670796
10.2040644402
10.1294278116
8.8080969766
7.54378418326
6.60454779497
5.80835922613
5.11526127081
4.62614089054
4.12669459049
3.86297958029
6.39294120839
11.6014119673
16.307863429
18.6200624205
18.7302285321
17.1095137263
15.371771475
14.5792240061
14.3794735392
13.6457350811
12.9876789544
12.8956942009
12.4969199091
11.478392512
9.84158975008
7.40333401255
7.58087449316
2.76407323333
5.28658877677
3.08525654933
3.00334964469
3.61681333294
11.6666930214
9.96729414026
4.25776812519
3.77432900533
4.35508657626
5.01062330641
5.71141778292
6.31768568223
6.99700943825
9.09885195776
11.4896090328
13.1387418246
13.1877697771
11.2110653176
9.28666673796
9.22117470406
9.41274021108
9.69020570165
10.1969563062
10.7843517757
11.3418456116
11.8127254733
12.0614082065
12.5068329119
12.7402632056
13.5050490692
13.6209073476
14.4594524733
14.0820665191
12.9492945047
13.6274462916
12.7515477813
11.7546160869
11.543203083
11.4428375827
11.467419348
11.7778523158
12.1663443894
12.41816148
12.5270501081
12.5258002379
12.4401975855
12.2899410087
12.0840526213
11.833487463
11.5360187299
11.1726697958
10.744727407
10.2996803
9.68871136595
8.74154604504
7.66678170708
6.73749993124
5.99911489096
5.43075045292
5.02368072382
4.73354108736
4.89145004237
6.87859516279
10.7611034707
16.5623935367
20.1516549174
20.3465509867
18.6602095203
16.2787787692
14.6076687322
13.7274684259
13.8058932363
15.1167047198
14.9941093476
13.6261900604
13.4424202677
16.7031439679
13.1005637692
11.1136129914
5.20932442977
7.258853862
3.47815206132
3.80223239353
6.0690837457
11.54381988
7.59304361106
4.3118805132
4.24545600939
4.57355521522
5.16585923121
5.90829052195
7.42828810091
10.1906587449
11.1436341848
11.2498623587
10.700161955
9.63334747314
8.98090185148
9.35569574147
9.37463446329
9.34429602485
9.73673924465
10.3031937349
10.9437722525
11.5782192419
11.943758407
12.5333785545
12.607448951
13.4536994783
13.4279070908
15.0682301871
14.2571509126
13.2332961784
13.5366143595
12.3238077052
11.8487150528
11.6590870078
11.6156955
11.63055525
11.7090342435
11.9315217382
12.2232958263
12.4543446529
12.5792716423
12.5982746386
12.5289014949
12.3914608786
12.2007978363
11.9652629342
11.681881713
11.3433626148
10.9457347056
10.4623139523
9.77822469675
8.83928433207
7.82712882723
6.96199086101
6.32109597021
5.88598546416
5.62876795624
5.59324305209
6.12614105968
7.32886468139
10.5206172867
15.9307048712
20.1499754037
21.5424665964
20.3365858368
17.5422892456
15.023943783
14.6297435049
16.7885547979
17.593268158
16.500395448
15.5332300488
18.1287544924
21.1104139592
16.4088756795
15.5115349725
9.56611569244
8.6675080083
4.30032638446
5.1718901258
11.7945103262
11.1973448935
5.3069426028
4.72189312921
4.7678924369
4.89685613114
5.51263470192
8.6185387865
12.2010181931
12.4504352912
11.7956932522
10.1927422839
8.92676099242
8.58492175554
9.48043754757
9.39010204455
9.09986279818
9.36668221364
9.88506320197
10.5406509826
11.05341514
11.7182791198
12.7054465119
12.5564937836
13.7665534308
13.3250178874
15.5022224574
14.5147010513
15.8436496693
13.9854445987
12.2268199601
11.6885489507
11.6505401756
11.7005286942
11.7579455076
11.8141450004
11.9142347846
12.0981681306
12.3310168515
12.5372978464
12.663534466
12.6945865725
12.6379359074
12.5150520036
12.345930044
12.1376438841
11.8839197579
11.5722095662
11.1792668848
10.6532967207
9.92523886675
9.01696242617
8.09526985226
7.3224761335
6.74943123715
6.41088695998
6.30222746576
6.67163860773
8.12359082843
7.42715202193
11.7130800866
17.4927602466
21.2658798681
22.674256013
21.7093608523
18.3169469975
16.1214123388
17.8815337939
20.0279374276
19.4464029422
18.3910989152
18.4028175046
22.8896582359
24.4360027181
19.3983522378
19.1813700715
11.6142548412
8.17643474648
5.23350406448
4.98873038213
11.6414131193
7.51720900325
5.11192184323
5.18258383048
5.24653338192
5.94898355173
6.23623222087
12.2094977045
12.6295277706
12.4883671822
10.5679469065
8.60399615569
8.19324336872
9.68468484961
9.55861661517
8.88467038631
9.09743027729
9.47167758375
9.98765830358
10.6383024144
11.5513358418
12.53656151
12.6269207334
14.3090555474
13.5683948388
15.9835173714
14.7925426322
16.2278459374
14.6867382132
13.6215239778
11.6942902922
11.4508634763
11.6436628429
11.8154777709
11.9083683707
11.985781803
12.1035708171
12.2724167307
12.4725572712
12.6574956341
12.7795485583
12.8157349715
12.7701414086
12.6666105938
12.5272743162
12.3556578215
12.1381433503
11.8504892959
11.4540626581
10.8986968438
10.1598764577
9.30230417346
8.47016002671
7.77332678672
7.23926631968
6.89176393765
6.91350421119
7.41434284183
7.75382626843
8.36551714868
12.6088797023
19.7317565446
22.4125380053
22.843480973
21.7563520225
19.4800441072
19.2818206212
21.8420258346
22.2339896327
21.3290323793
20.6715956798
22.5388785275
25.1950323907
26.6136602034
21.9676185029
20.7935061585
11.1614627346
7.40143007892
6.24805483592
11.5984588705
11.576953809
5.82954893524
5.62844381138
5.69367672489
5.93390837618
6.4474778605
12.0453593394
12.8897543192
12.7310405294
11.9679454018
8.86213017382
7.815773212
9.64661249011
9.94844701862
8.93567151023
8.69021347214
9.15155193648
9.73129739916
10.226245592
10.9749068811
11.5840581713
13.1030180374
12.7752263269
14.1782839609
15.9109360064
15.9599844213
14.1676406435
15.2554025827
15.078706573
12.1239489093
11.5438535029
11.5451493263
11.7365039509
11.9336334341
12.0578367727
12.1557780253
12.2872624822
12.4568994072
12.641591887
12.8094871025
12.9239753097
12.9620451383
12.929010345
12.8511367224
12.749692243
12.621916984
12.4447320121
12.1812076595
11.7835846647
11.2154390422
10.4913034984
9.6948689495
8.92971230115
8.23390237999
7.59560071766
7.16354708604
7.2972082639
7.90673823606
8.6885627178
9.74466389118
10.8927719569
19.4521073715
23.8350066979
24.0001078072
23.4527297509
22.5988656338
23.5685773155
24.9509099751
24.2130069716
23.4523863686
23.5544086983
25.7426416157
26.29948909
26.8270128324
23.8618972228
21.6431794907
10.1861410608
6.91256790614
6.8894298989
12.4802222266
10.1373524499
6.04637242785
6.18755650708
6.35487985784
8.11406126564
6.35460812857
12.8184141766
13.2868078782
12.6954698619
10.2970799234
8.02510998157
7.92599627856
9.79320098658
9.44122093025
8.69096022831
8.71601280957
9.12466782395
9.88001974655
10.5468059357
11.9100341301
13.1737711112
12.8592642217
15.4335089978
13.6540906172
16.3086013258
14.4214219948
16.4786485423
13.8406509509
12.720894329
11.8710792637
11.6448548617
11.7015604405
11.8582605051
12.0499350721
12.2051260925
12.3340413012
12.4800470247
12.6528329591
12.8324522609
12.9896039185
13.0944913245
13.1336049863
13.1179387891
13.0732598145
13.0163875173
12.9381672771
12.80553174
12.5691362793
12.1770665759
11.6113158405
10.9164678214
10.1732534243
9.41820218581
8.58608378836
7.64506488543
7.04021686183
7.49184626858
8.77267071098
10.1046960557
11.1936647422
12.1205908007
15.5160551106
23.7373921478
25.4065634128
25.6225309322
26.506104884
27.7345118305
27.4104282534
26.3341733779
26.0246990137
26.8472992608
27.8544650659
27.5475885403
26.8272749902
25.6951546989
24.2099315767
9.2755860528
7.00131928777
8.10982865137
12.4547343261
7.39720749348
7.06762996905
6.74253040809
6.99439243686
10.9165915942
9.36095393854
13.6436432572
13.460983809
12.6422580062
9.17180988978
7.8378075955
9.90301827113
10.0773114332
9.03725851102
8.61075574018
8.90764526199
9.2402555741
9.93679538209
10.4485482837
12.098481373
14.6946680801
12.6268149388
15.2927665039
16.3934328617
16.5380791996
16.7838080543
14.7557102454
14.6350916122
12.0756864725
11.6953581525
11.777203099
11.8647851665
11.9924060174
12.1665851863
12.3445844764
12.5137215924
12.6864181806
12.8670338453
13.0442209369
13.1946201313
13.2928530026
13.3330517335
13.3376875062
13.3341220825
13.3296781722
13.3061606063
13.2222731029
13.0176889646
12.6385028824
12.0862972892
11.4252159631
10.7051764466
9.84182964963
8.60870637895
7.09880313747
6.55390302644
7.98433202154
10.1168521055
11.8050364056
13.0542272165
14.0220662019
14.1232695203
15.3598343443
27.0970746383
29.9700171213
31.3166033112
31.3683629682
29.9668463059
28.9637477409
29.0749111682
29.98483182
30.0649462289
29.5960763798
29.1127035302
29.3034926072
29.3927030577
8.81316290518
7.572714056
11.897811535
12.331083256
6.98136784233
7.73803251036
7.25587329303
8.07951259168
10.0158091712
13.2003658236
14.3032890895
13.5736460718
12.6929341821
8.79251080252
7.88777051031
10.5340863451
10.0387479758
8.8795846911
8.60889074273
9.05932072143
9.74302637815
10.2456173876
10.638144241
11.6165857967
14.8017411521
15.9751606702
14.3674762223
16.5747820925
14.2601712144
16.8393495126
16.7700633144
14.4208772628
11.8863834168
11.788334114
11.9457539027
12.0398594779
12.1482567368
12.3019936157
12.4812376446
12.688582479
12.9033489977
13.1004725142
13.2781959554
13.4243428275
13.5183500544
13.5636530677
13.5931138662
13.634876733
13.6876735581
13.7238751795
13.6935239388
13.5258085238
13.1676717123
12.6391117853
12.0048374795
11.230673302
9.96371185925
7.8284386942
6.00147374515
6.49280780006
9.38519594465
12.2064273752
14.0610826271
15.2978665975
15.9942887979
16.005102484
15.5426516696
17.4165256442
31.5477970214
36.9490355396
35.7828267763
33.4112164401
32.459219894
32.6811583719
33.118018755
33.0821502948
33.0538709658
33.2905073586
33.6871036903
34.2667840432
8.75803475816
8.25741571709
13.4310955591
12.6992329904
10.3613164254
8.84037986352
7.94533151509
9.6492511422
9.04878927055
14.1198914365
14.7627535998
13.7331539797
12.4882828362
9.06867983452
8.66802070564
11.0669193182
9.90593344602
8.8425983558
8.70784599972
9.09063416749
9.95723883293
10.6653223662
12.7391611943
11.7543105726
14.1393690471
16.3515352471
13.9106678003
16.9002974013
17.3359745698
15.2088608351
15.1439763842
12.6119820693
12.2418042993
12.1087605157
12.1583952747
12.2471078851
12.3413882837
12.4746441659
12.6249667139
12.8398279345
13.1132755594
13.3602531815
13.543085252
13.6801944035
13.7725159053
13.8290626559
13.8879782564
13.9766874172
14.0875325275
14.1851305052
14.2089418127
14.0833582218
13.7640485672
13.269429378
12.6186942549
11.5288144201
9.17634125382
6.22849337972
5.18432679944
7.52194409537
11.8852952911
15.0771650717
16.942633157
18.1982861106
18.8013575936
18.6171314853
17.9994918701
16.9429357204
27.534850764
37.9156787055
40.7976165494
38.0357890001
37.093430849
37.1878016513
37.3363292721
37.1303779416
37.5740111083
37.9996245749
37.6541683434
37.7254855978
9.08734677528
8.77777780818
12.9902749581
12.9443086446
12.8610911947
9.68513540639
8.77250202124
12.8227795592
9.04350254171
14.9565236751
15.1091580469
13.9110176333
12.3108047774
9.41987618917
12.0774828246
12.1830279423
9.89780642799
8.94675580172
8.93833067876
9.25215747967
9.92313277665
10.5928202422
14.3585933375
15.4160702655
13.2852298216
16.4590663908
17.212831318
16.2628958597
17.3142796273
17.2316434907
15.79451898
12.5224968975
12.4373635484
12.429353164
12.4169036051
12.4649588253
12.5259781094
12.6785915076
12.84634518
13.0176137365
13.2957208568
13.6081605204
13.8367486524
13.9735950957
14.0608923627
14.1326969779
14.2261633079
14.361421204
14.5250416557
14.6754986739
14.7469318284
14.6734711558
14.4233067647
13.9560317592
13.1438821314
11.1888536628
7.33811093635
4.26087140473
4.87018432695
9.90338369919
15.3867696836
18.7890331137
20.5571442673
21.9883192062
22.1841274442
21.114163832
19.8666891141
18.789080088
23.6878557161
35.0681799247
42.1483759783
43.3331965193
41.4915360565
41.7490556596
41.7642484112
41.9216354523
42.5363001922
42.7491832071
42.4167324645
42.4231058489
9.470638333
9.2957692773
9.0462146412
13.1321556562
13.1969664906
10.1402932538
9.54656610751
13.6070646541
9.38849038445
15.7791316024
15.3971011966
14.0951207702
12.2654403772
9.53972360438
13.2946804561
12.4547271182
10.0550333432
9.20434103242
9.2320491483
9.5965949887
10.0126848568
10.5181060005
15.0105004285
16.3680706767
13.4721769374
16.5958951822
17.7257755158
15.0807915481
16.9289251484
16.4351825325
13.1669428775
12.8867024554
12.8518047111
12.7699128416
12.6853050745
12.7498596437
12.7916672222
12.8432209634
13.0438087534
13.2682851715
13.5228768746
13.8473058767
14.1283446332
14.2968662674
14.3924609379
14.4824468518
14.6105310292
14.783757891
14.9917030665
15.18373229
15.2728960484
15.268844307
15.1357455979
14.6945512855
13.4228111639
9.59787884761
4.18729320642
1.8005970655
6.85795958893
14.1863246452
20.1350981046
23.5217050868
23.4068162923
21.7543638134
18.7557666141
16.6614170428
15.3985298476
13.8998871534
11.2098616472
13.9754923691
41.7296606257
45.3818575483
46.4994678825
45.7780706482
45.329231319
46.9192036328
47.4783050975
47.5979208221
48.4959451728
48.8954605772
10.01653804
10.0597569138
13.6972816584
13.5841363534
13.4119516971
10.4882425773
10.4604244615
14.1793401108
10.1854097793
16.4497210411
15.6427147218
14.2790382365
12.2690718727
9.77923875723
13.4435620371
12.3261271831
10.2245245122
9.50248557379
9.52159410726
9.8426419059
10.2406849926
10.6427567613
14.081978845
17.1198298146
17.2376510526
15.5572837081
17.878383482
18.4675847631
14.5712066905
13.4882726113
12.9777586345
13.0434275211
13.074243706
13.0436213776
13.0355277496
13.0195623256
13.0530804023
13.1365383346
13.2346651946
13.4908208607
13.7970604406
14.124859882
14.4259690974
14.6327233434
14.7663115428
14.8805878361
15.0348473219
15.2636676061
15.5168645079
15.6827213963
15.7408067398
15.8296392977
15.8562485843
15.3324637084
12.9194600636
6.76085488482
0
3.05813637847
11.5045883354
20.0318419592
24.3689297283
20.9722469138
13.6886440662
0.379569684026
0.296900533002
0.720806220648
4.51093818969
8.80193473076
11.3056634664
12.8649253463
8.62845195734
31.0689167802
49.8785403667
50.7984427534
48.6294134245
50.503017988
52.4203673206
54.3972330059
56.6465544007
56.8379444752
10.4896027445
10.6633122505
15.1940905469
13.963804368
13.1107817773
10.8730695792
11.389574106
14.5607067403
14.5697368333
17.2249633851
15.9042861625
14.5186380184
12.2942874969
10.1739419459
13.5899533434
12.1585444109
10.4245584806
9.81919381734
9.78649047362
10.0419299897
10.4330095159
10.9737618989
13.243911065
17.34244241
18.6320620284
14.6457262404
17.4590696498
18.278741875
17.4677829324
14.2953475873
13.1569220598
13.2416372067
13.3760592776
13.4479843757
13.2810700408
13.3034378645
13.2925591045
13.3946944224
13.5049549457
13.7242437219
14.0728687434
14.441246391
14.7366839878
14.9511194776
15.1485578598
15.3916252481
15.6460653292
15.9104167118
16.0615046529
16.14648543
16.2482030352
16.3676528413
16.6322567362
16.0901848999
10.6939713956
0.00440509347982
1.57497733153
8.52456265366
17.282211911
19.6772071407
5.84492800192
0.0097528224997
0.000687480933895
0
0
0
0
0
0
0
0
9.56168739421e-08
3.2249592084e-05
0.00482385158022
2.79864420728
52.376470949
57.9622693227
59.8847604219
66.4635914493
65.3310722597
10.8534213622
11.0558116894
17.4955978609
14.1840469693
12.4401041529
11.2315316226
12.0197346056
14.2551956415
16.1189673217
18.117332517
16.2927103648
14.8568666157
12.5224945969
10.9065996423
13.9493345176
12.1648775279
10.7315546818
10.2042628995
10.0923048253
10.2747833954
10.6040200536
11.1201137398
12.8575982917
17.1916780116
19.5690695145
18.5473627495
16.6996274417
17.5804983723
16.7873442523
13.4488775607
13.6199104647
13.7755961525
14.0389921433
13.9012811115
13.7537611912
13.5739385449
13.6302199655
13.6455257481
13.7857341306
14.0012393045
14.3247520271
14.7408217152
15.1705126757
15.4159190719
15.6662407452
16.0312993396
16.4292297739
16.7322223024
16.864596296
16.9927060263
17.15047617
17.3009342195
17.2102790846
16.3070208738
10.4185484429
0
3.77699485904
9.57418771544
1.1046163925
0.00302915835111
0
0
0
0
0
0
0
0
0
0
0
0
0
1.23202331153e-06
1.22428309612e-05
0.000268389381067
0.0130138299583
39.4748358822
70.4914626429
54.8235497118
11.1169200641
11.305346554
19.6724764448
14.2959190754
12.1149642201
11.5844510776
12.8121953549
13.0097204342
17.075293962
18.7383771828
16.6787895566
15.209522714
12.9754556869
13.1174453579
14.4407598366
12.4321817599
11.2568331736
10.8214925486
10.5078599184
10.6011445264
10.8343838463
11.2836932034
12.7255647719
17.0555705655
19.9162117189
20.2043462674
15.4400987912
15.6752783706
14.2424157582
13.5412266651
13.7821598787
14.3234639875
14.5268614931
14.3368587388
14.1735645184
14.2661123605
13.9822506302
13.971522161
14.0625661716
14.2351717951
14.685148297
15.1555632294
15.5907636292
15.7929956675
16.2027042226
18.2999407988
21.1575040008
22.056301841
20.1957542136
20.0293832558
20.3226768771
20.8102597739
21.0056973008
20.1320277969
19.0999384411
0.000218581599326
0.220879413957
0.00360414333036
0
0
0
0
0
0
0
0
0
0
0
0
0
0
0
0
0
0
1.90343739054e-05
0.000128897636187
0.023769792791
60.1827647229
11.3840133534
11.5452785328
19.3240815571
13.1533344615
11.9845393341
11.870500967
13.7020947866
12.5768562586
17.8510244989
19.3432391266
17.066187196
15.5516623451
13.2961095982
15.682946812
15.1711143796
12.9116207667
11.8826010797
11.9629006035
11.1531562383
11.1040356709
11.1748453569
11.4570655893
12.7700935856
16.9040957178
19.7457511678
21.3190638346
19.2926035696
17.801436665
16.2728995194
13.9129591616
14.1227896125
15.2199723093
14.7512536515
14.7103523416
15.2092879002
14.7152340955
14.4584428515
14.4211776996
14.5031093187
14.6536989391
14.8930732859
15.4449268494
16.1367929877
17.4441067842
19.4186068655
22.1302640093
24.1139764209
24.0702505985
24.3965733884
26.0305492686
28.3870543137
31.9685990323
33.648988348
32.812808089
28.3266668429
27.0805054245
0
0
0
0
0
0
0
0
0
0
0
0
0
0
0
0
0
0
0
0
0
0
5.85684616578e-05
99.8590358394
11.7621937799
11.9144309319
18.7349241225
12.3190442851
12.0818506504
12.0801928223
14.4214657207
12.7908327853
18.4531578052
19.9326671064
17.4625559912
15.9211387754
13.5803626324
16.2452293668
15.8269031403
13.4640446772
12.4874065275
12.7462449419
11.9520517901
11.8417876708
11.7576040333
11.6200733112
13.0005235567
16.8685399552
19.4277440488
21.6819318609
20.5548062143
17.9300035927
14.3771332001
14.4600586705
14.8413855365
15.8875201614
16.1243951088
16.1299128479
16.0093153415
15.2067949084
14.9729494063
14.9861819459
15.0449539237
15.2113999997
15.4243101001
16.0609274047
17.3973566732
20.0361451185
21.7359234323
21.9767372138
23.0848967847
24.1696802922
28.1934955947
32.9112624762
39.7627689154
44.4317265323
45.0535007834
44.6880025786
32.28897583
1.52326042765
0.00511306820143
0
0
0
0
0
0
0
0
0
0
0
0
0
0
0
0
0
0
0
0
0
9.84262696418e-06
1.30226944787e-05
12.4113686665
12.5689084468
18.0493383711
12.2642991147
12.5317985239
12.404190211
14.0062798908
13.4409769213
18.7890980034
20.472274471
17.8986144578
16.3512514259
14.021609598
16.782861718
16.4454517809
14.1677874306
13.1910804759
13.5321774272
12.7074109393
12.7360805856
12.6912415256
11.9784145053
13.4622986282
16.9883801057
19.2699760845
21.7750825919
20.9733599859
18.139459255
14.5082334575
14.5714055092
15.7212350562
15.49251664
15.4788505524
15.8776995612
16.9810825233
16.1758863206
15.8722805532
15.5662471743
15.5702172298
15.8685624084
16.229619961
16.9081980862
19.9591330246
22.792768341
22.7675209565
22.910759345
24.6332305904
29.9988909412
36.8822997285
42.9972354296
47.7130591757
44.1363762376
31.6691739583
0.0862632592242
0.000541255689865
0.00109708141985
0.000168470768297
0
0
0
0
0
0
0
0
0
0
0
0
0
0
0
0
0
0
0
0
0
7.27497445224e-07
3.30335213198e-06
13.4610715455
13.5422017376
17.9459649446
13.017136212
13.6875379005
13.1137101953
13.885106293
14.910334477
18.462837402
20.7864740919
18.4099139862
16.8675332916
14.5946905079
17.3965074107
17.0982267062
15.0729577857
14.1370262408
14.5187842876
13.4595670285
13.7533377545
14.0233214428
12.6540252907
13.925693819
17.249561691
19.28558414
21.528161937
21.1318597397
18.4079664249
17.3865238311
15.5240882038
16.2397713857
16.9157950291
17.8726346426
16.3050591313
16.5835582767
17.3577772239
16.7294520918
16.717816097
16.4795308563
16.5343484191
16.9970967389
19.6988723811
24.014664841
24.9080235788
24.2494056839
25.8947261955
32.4251751195
41.2063769609
47.189059928
46.0043382666
36.7907060377
0.899329308835
0.0061535075966
0
0
0
0
0
0
0
0
0
0
0
0
0
0
0
0
0
0
0
0
0
0
0
0
0
0
0
15.0167797118
14.7412914101
18.3540900393
15.0012222623
15.7921637979
14.254394239
14.5788133714
17.1255532287
18.3317477794
21.217551411
19.0670169416
17.487057374
15.284551458
18.0426205149
17.7450751173
16.0978187626
15.712892816
15.873803013
14.2917905512
14.9176832765
15.7244048377
13.758209233
14.1737607777
17.5586766045
19.4686370068
21.2475660943
21.2835734266
18.2873723938
18.5699202271
17.2727148119
17.5310015197
15.8558819277
16.5589631882
17.9952203307
17.4599815259
17.6479038376
17.6352210197
17.5288457548
17.6551027392
17.6375747275
19.3428705787
24.5516668398
27.4435076653
27.3873941523
28.0457839118
33.1354965683
42.471006746
48.2115125337
37.4255320324
20.1078981553
1.50280576243
0.0068811559735
0
0
0
0
0
0
0
0
0
0
0
0
0
0
0
0
0
0
0
0
0
0
0
0
0
0
0
0
16.7152480092
15.8464618256
18.8646703074
17.8250747506
17.4576336964
15.6535937226
15.3699635143
18.1768441836
16.7700136638
21.4941822529
19.8587278971
18.2033924599
16.0851662067
18.7058236601
18.3428314251
16.92950057
18.178124732
17.5335235787
15.2596925466
16.2946013095
17.1012631224
15.2350760147
13.9193815516
17.4188671622
19.5514249697
20.9884319954
21.2693245695
18.2377443157
18.7548067505
18.5959991607
18.6403953042
16.4813097586
17.0737748459
17.2696148136
18.3920586573
18.8890825198
18.8301865615
18.6042135754
18.5709564498
19.5985796052
24.5011324837
29.3278633437
31.021593912
31.61933493
34.4048190394
40.9593690353
43.6778547182
27.2430503648
22.6947443477
3.35089283782
0.0117354731616
0
0
0
0
0
0
0
0
0
0
0
0
0
0
0
0
0
0
0
0
0
0
0
0
0
0
0
0
0
17.4144628104
16.6141764329
19.1296495148
18.7187098918
18.3710738219
17.0239592677
16.438072804
19.5064953535
17.651172342
21.9023863235
20.6541024284
18.9735834206
16.987269677
19.406255007
18.972866008
17.6369224623
19.0352335321
18.4902826573
16.232381486
17.7090784187
17.6683848115
15.770766697
15.0849364869
15.2579489961
19.0075300186
20.3941390646
20.9664538745
18.1459517546
18.7007558819
18.9757537482
19.4579047402
18.7718417685
16.6640461927
17.052554833
18.4778859625
19.695294644
20.1410015134
20.301500246
20.2737362276
24.2918299041
30.1149276359
33.6834157627
34.8381463256
36.1138273178
39.6222121525
37.954791836
22.616483245
24.9439876874
11.0147804494
0.0313706649656
0
0
0
0
0
0
0
0
0
0
0
0
0
0
0
0
0
0
0
0
0
0
0
0
0
0
0
0
0
0
17.2883889255
17.1387427838
19.302344746
18.7712538513
18.9621811277
18.1074783076
17.3870544167
20.8033827854
19.3669820034
22.4565943368
21.5034243767
19.7793017533
17.9808888062
20.1569984137
19.6817693997
18.5133989581
19.7116651966
19.3295713429
17.315076897
18.6288532766
16.6291797267
16.3505062414
16.0269347947
16.4652617505
17.4345424063
18.2070911854
20.023965363
18.0211585946
17.8800851288
18.8436992124
19.7777477525
20.0868139676
18.3382541604
17.7214825973
18.2256703509
19.3587638851
20.767331259
22.0471115787
23.7681622827
29.7181415046
34.809085027
37.3189237149
37.6256133225
37.7575418143
32.496418128
24.321525895
25.1203931986
20.101790416
0.0857069950725
0
0
0
0
0
0
0
0
0
0
0
0
0
0
0
0
0
0
0
0
0
0
0
0
0
0
0
0
0
0
0
17.4301729797
17.5233691709
19.5014033617
17.3023925508
19.1605123767
18.6632990793
18.0211326606
21.2578803242
20.0721065714
23.0674735635
22.4200713001
20.6018619917
19.0812854109
20.9457936212
20.4413505307
19.5366008308
20.4195657287
20.2827299974
18.5144085272
19.9311617485
17.9135767584
18.1703537076
17.2294659914
17.6679388848
19.5338442866
20.1205806042
19.6015572854
17.8653267152
17.1071272192
18.7482417066
19.7435785147
20.2059618752
20.1051541874
18.7498052738
20.1678625791
20.120633985
21.3267623435
23.8147393189
28.1708414192
34.5733099654
38.6242653562
39.7889343715
37.2994096208
29.2999640642
26.6518605708
26.9167479382
26.0677547154
0.730893990971
0
0
0
0
0
0
0
0
0
0
0
0
0
0
0
0
0
0
0
0
0
0
0
0
0
0
0
0
0
0
0
0
18.0960897861
18.1720993793
19.6597014584
17.6433336997
19.3070510428
18.9091605911
18.4691279159
21.2819105137
20.5888211606
23.4966379481
23.357854667
21.3945925839
20.2892061416
21.7349960543
21.1829053858
20.5429055142
21.0830514636
21.3377275112
19.771151366
21.2116897374
19.6942616785
20.4189566326
20.0441795663
18.3182929951
19.9711609822
21.0921413773
21.1964414821
17.748179959
16.1939834577
18.6323821909
19.8482177787
19.3494691258
19.3600400762
18.965639106
20.027757424
20.4614063401
22.0601014177
25.7294011887
32.4929289513
39.0625638439
41.8666771496
40.4407810372
30.3699358211
27.3831296327
28.2188847953
27.3364911927
5.09315666386
0.0206528635066
0
0
0
0
0
0
0
0
0
0
0
0
0
0
0
0
0
0
0
0
0
0
0
0
0
0
0
0
0
0
0
0
18.951609748
20.3872923684
19.9329228196
18.6496839183
19.7657716486
19.2114288035
18.9050744651
21.2897200661
21.0856416334
23.5376502693
24.3080504835
22.1322367226
21.364819032
22.3277666105
21.9132440339
21.2613622436
21.0434206869
22.3181693996
21.1609955996
22.3161352965
21.8260828057
21.6038967232
21.3083043898
20.8392245474
19.7726053456
20.7145216328
22.1188097958
16.6901280168
15.6496281266
17.6692752574
19.8137295532
20.1255378566
20.6356185658
18.9134798048
19.7036969296
20.6903788103
22.4140251271
27.4926528689
36.5216632584
43.1457593447
44.5594334808
36.2003632161
29.313075081
30.6286324512
30.2389045575
21.4402230198
0.0881081357714
0
0
0
0
0
0
0
0
0
0
0
0
0
0
0
0
0
0
0
0
0
0
0
0
0
0
0
0
0
0
0
0
0
19.5771934876
21.0428818928
20.5645565805
19.5453481453
20.4251658127
19.7356054909
19.4180459684
21.3979215904
21.5921729305
23.2828212188
25.1745665491
22.8986732858
21.9587340543
22.8109552092
22.7774578112
21.9152338593
21.0046903824
22.9981667296
22.6898399187
23.2679180002
23.0902200002
23.1420413944
21.2763816371
21.2649450958
20.6883883611
22.5431939341
23.4294671657
19.5073781924
15.1886273343
16.4661070791
19.1658720184
20.4567765423
20.4835763388
19.5317230012
19.1710515361
20.7796608213
22.3409132275
28.8793915159
40.1647098134
47.1960204142
43.9705467666
30.2335531103
31.1635680789
33.1470492799
30.5738294846
1.01789178382
0.00342069446332
0
0
0
0
0
0
0
0
0
0
0
0
0
0
0
0
0
0
0
0
0
0
0
0
0
0
0
0
0
0
0
0
0
20.0556824833
21.3711501729
21.1396302783
20.1482691899
21.0956908228
20.4438063102
20.0236889728
21.6976911295
22.1756441668
22.6124365656
25.7519618077
23.7761205267
22.3807791502
22.5772717856
23.7060225488
22.75868401