/*--------------------------------*- C++ -*----------------------------------*\
| =========                 |                                                 |
| \\      /  F ield         | OpenFOAM: The Open Source CFD Toolbox           |
|  \\    /   O peration     | Version:  v1806                                 |
|   \\  /    A nd           | Web:      www.OpenFOAM.com                      |
|    \\/     M anipulation  |                                                 |
\*---------------------------------------------------------------------------*/
FoamFile
{
    version     2.0;
    format      ascii;
    class       surfaceScalarField;
    location    "158";
    object      phia;
}
// * * * * * * * * * * * * * * * * * * * * * * * * * * * * * * * * * * * * * //

dimensions      [0 3 -1 0 0 0 0];
oriented        oriented;


internalField   nonuniform List<scalar> 
12640
(
8.70165720569e-08
-8.69311657278e-08
1.70088423785e-07
-8.25954715596e-08
2.46552612316e-07
-7.60064761273e-08
3.12833322352e-07
-6.57527756692e-08
3.59361351088e-07
-4.61456416079e-08
3.83007531239e-07
-2.34592566739e-08
3.95018072066e-07
-1.18374608121e-08
4.2379949141e-07
-2.86193121564e-08
4.72244388186e-07
-4.82123059277e-08
5.1758062533e-07
-4.50852309555e-08
5.59381354995e-07
-4.15117548926e-08
6.08538344823e-07
-4.88599830113e-08
6.53676984795e-07
-4.48203393965e-08
6.89119262174e-07
-3.51428578082e-08
7.19830831989e-07
-3.04482314058e-08
7.5808370587e-07
-3.81084191134e-08
7.98780624044e-07
-4.05560438983e-08
8.30995361846e-07
-3.21070949601e-08
8.5155721597e-07
-2.03483190664e-08
8.65563214305e-07
-1.37002521888e-08
8.90846340343e-07
-2.49062019189e-08
9.32472358749e-07
-4.12534782119e-08
9.81100580506e-07
-4.82350006148e-08
1.0316731851e-06
-5.02204221629e-08
1.07943578838e-06
-4.7426278031e-08
1.12296739887e-06
-4.32391592975e-08
1.1664107869e-06
-4.31508712126e-08
1.20762708452e-06
-4.09678531255e-08
1.24394251484e-06
-3.60572309914e-08
1.27628503867e-06
-3.21260721512e-08
1.31026181602e-06
-3.37382831686e-08
1.34386115717e-06
-3.33978410773e-08
1.37208395467e-06
-2.8056293238e-08
1.40261346105e-06
-3.03690936872e-08
1.43294092345e-06
-3.00961589026e-08
1.46231922167e-06
-2.91999258117e-08
1.49717123339e-06
-3.46252121176e-08
1.53093039791e-06
-3.34602841228e-08
1.56115490089e-06
-2.98656760232e-08
1.59895802909e-06
-3.74451216079e-08
1.6691900104e-06
-6.9869252681e-08
1.74591934835e-06
-7.64380319986e-08
1.78900810827e-06
-4.28373535292e-08
1.81233793191e-06
-2.30753901279e-08
1.82704932753e-06
-1.44537283624e-08
1.83185320368e-06
-4.55527261631e-09
1.8272572277e-06
4.85841470491e-09
1.81092965602e-06
1.6587427149e-08
1.78602631327e-06
2.51711142364e-08
1.77077484454e-06
1.54878961662e-08
1.78391509159e-06
-1.28434262928e-08
1.79539500292e-06
-1.12386558731e-08
1.7367620526e-06
5.88396238271e-08
1.63859305098e-06
9.84101865963e-08
1.51831259796e-06
1.20511374136e-07
1.35334370019e-06
1.65193279196e-07
1.2042715054e-06
1.49417394837e-07
1.09718391527e-06
1.0753897506e-07
9.81212080821e-07
1.16509164266e-07
8.55227036496e-07
1.26634382085e-07
7.49842002069e-07
1.06173251942e-07
6.36191108712e-07
1.14425768079e-07
4.61168920716e-07
1.7579853956e-07
3.24828967804e-07
1.36829913431e-07
2.35875022719e-07
8.92562182317e-08
1.74535546784e-07
6.15462314788e-08
1.22791519593e-07
5.19401198882e-08
7.30659688817e-08
4.99461196276e-08
2.38072501697e-08
4.95196269147e-08
-2.42310940471e-08
4.83350067435e-08
-6.69891167223e-08
4.30788476073e-08
-9.9868822989e-08
3.32033217466e-08
-1.20291968349e-07
2.07369821994e-08
-1.2726081214e-07
7.27940170931e-09
-1.24057485419e-07
-2.91477257119e-09
-1.13020429284e-07
-1.07467835637e-08
-1.00763009646e-07
-1.19587107663e-08
-7.69257155033e-08
-2.35221421214e-08
-4.86808000062e-08
-2.78825211062e-08
-4.83716830961e-08
4.32905052458e-08
-1.29519911723e-07
9.98681056441e-08
-1.38731693141e-07
1.55826747753e-07
-1.31439149338e-07
2.16588499126e-07
-1.26110628038e-07
3.0248305728e-07
-1.31760867264e-07
3.7469185389e-07
-9.54063532617e-08
4.17513519538e-07
-5.45061789115e-08
4.5484805441e-07
-6.56777641062e-08
4.93960495895e-07
-8.70484090052e-08
5.39325874869e-07
-9.00990442058e-08
5.84530299711e-07
-8.63985467562e-08
6.20340577088e-07
-8.4314109235e-08
6.53438322118e-07
-7.76563398067e-08
6.87666117219e-07
-6.91381520236e-08
7.22196007174e-07
-6.48702323325e-08
7.630739734e-07
-7.88282078217e-08
7.96474293252e-07
-7.38838554709e-08
8.02448852532e-07
-3.78502509928e-08
8.04878893976e-07
-2.25226794669e-08
8.23956007413e-07
-3.24013152433e-08
8.6199264916e-07
-6.25425364614e-08
9.22844826445e-07
-1.01626496866e-07
9.85539457679e-07
-1.10558085848e-07
1.03125210459e-06
-9.55242831463e-08
1.0744040655e-06
-9.02693610105e-08
1.12514328713e-06
-9.36263322008e-08
1.16977161121e-06
-8.75248187915e-08
1.20715026694e-06
-7.8038707717e-08
1.24171175883e-06
-7.04015765421e-08
1.27420474562e-06
-6.43439683928e-08
1.30243016297e-06
-6.17775836755e-08
1.32797060275e-06
-5.87552948912e-08
1.34807873385e-06
-4.80097418667e-08
1.3724419898e-06
-5.45242478723e-08
1.40987508057e-06
-6.7412305826e-08
1.43837528158e-06
-5.74160971474e-08
1.46825650603e-06
-6.42302514402e-08
1.51512232854e-06
-7.99867566918e-08
1.57075866777e-06
-8.5178068855e-08
1.61452683476e-06
-8.08186380706e-08
1.58192841102e-06
-3.70011177837e-08
1.5141469768e-06
-8.39783267658e-09
1.50412677462e-06
-3.26126038438e-08
1.52942232754e-06
-4.80983647458e-08
1.56531524384e-06
-5.01082402319e-08
1.60882819577e-06
-4.77742306239e-08
1.65005591706e-06
-3.61186413611e-08
1.68753343976e-06
-2.05950229901e-08
1.71409814541e-06
-1.14182439495e-09
1.70035865389e-06
2.9503082574e-08
1.62623617302e-06
6.14813915458e-08
1.54626650927e-06
6.89601250849e-08
1.57864482631e-06
2.67006005322e-08
1.60679205123e-06
7.05553967076e-08
1.55116848638e-06
1.76420183613e-07
1.50909991055e-06
2.07635149775e-07
1.45351460315e-06
2.0544214732e-07
1.34778904576e-06
2.13802729409e-07
1.22877569255e-06
2.36166743955e-07
1.08624075598e-06
2.69946929029e-07
8.67351378949e-07
3.25819727493e-07
6.58477886019e-07
3.24068009006e-07
4.74314964611e-07
3.6071629288e-07
3.34134163971e-07
2.77483311873e-07
2.37322363094e-07
1.86333750814e-07
1.66053211421e-07
1.33018199915e-07
1.12283126193e-07
1.05898547012e-07
6.42163214394e-08
9.82309076101e-08
1.59233306603e-08
9.80685249494e-08
-3.18079781293e-08
9.63654341951e-08
-7.36192283974e-08
8.52074965955e-08
-1.04681815866e-07
6.45798526205e-08
-1.26424209394e-07
4.27926881448e-08
-1.41183253706e-07
2.23678995357e-08
-1.45542571593e-07
1.77920820431e-09
-1.41167208834e-07
-1.47787021063e-08
-1.24844197855e-07
-2.79202743304e-08
-9.96380771184e-08
-4.83554119099e-08
-5.54297167973e-08
-7.16253566308e-08
-1.03495882958e-07
5.86544107833e-08
-1.88434005677e-07
8.289008467e-08
-1.62495151426e-07
1.59214053393e-07
-2.07293179776e-07
2.5430478219e-07
-2.20866571319e-07
3.38533761096e-07
-2.15773474574e-07
3.76178804729e-07
-1.32839182262e-07
3.93553438017e-07
-7.15266109622e-08
4.34168787074e-07
-1.05895311607e-07
4.83124147243e-07
-1.35579771466e-07
5.32314287005e-07
-1.38868436694e-07
5.78483714437e-07
-1.32196087251e-07
6.16658536021e-07
-1.22251985585e-07
6.4984070772e-07
-1.10710557343e-07
6.84108871369e-07
-1.03336764539e-07
7.05494553051e-07
-8.61848211498e-08
6.7298456793e-07
-4.62222467867e-08
6.1587695602e-07
-1.65713623347e-08
6.04755594155e-07
-2.64885596441e-08
6.43308509264e-07
-6.07487827587e-08
7.40353642066e-07
-1.2904186749e-07
8.55000899907e-07
-1.76740033708e-07
9.2476166692e-07
-1.70982549803e-07
9.70478100464e-07
-1.55872819411e-07
1.02765825884e-06
-1.52355281228e-07
1.0829124779e-06
-1.45174415735e-07
1.1251371079e-06
-1.35556958028e-07
1.16219173901e-06
-1.24277961541e-07
1.19798984452e-06
-1.13584944568e-07
1.23020104945e-06
-1.02350542213e-07
1.26151938954e-06
-9.54556254536e-08
1.28477365896e-06
-8.48557926952e-08
1.30456421448e-06
-7.83591925013e-08
1.33019524218e-06
-7.35256244944e-08
1.33256030068e-06
-5.67551836011e-08
1.34546069379e-06
-8.00415266568e-08
1.39955429111e-06
-1.11236754991e-07
1.43289897236e-06
-9.72457809444e-08
1.46637420484e-06
-1.13106499399e-07
1.54492148006e-06
-1.63349948343e-07
1.62752059833e-06
-1.63111062491e-07
1.7010403206e-06
-1.10228876463e-07
1.76062239228e-06
-6.77118574278e-08
1.79334144577e-06
-6.50314213665e-08
1.81487328046e-06
-6.93470815087e-08
1.83162085653e-06
-6.65483976623e-08
1.84162671664e-06
-5.74916722075e-08
1.84723273316e-06
-4.14188425565e-08
1.84742238762e-06
-2.05030943691e-08
1.84121230882e-06
5.34818604462e-09
1.83357871357e-06
3.73729337376e-08
1.82595398432e-06
6.93497438433e-08
1.80239379269e-06
9.27729144781e-08
1.71475715223e-06
1.14606451854e-07
1.61341259124e-06
1.72177592092e-07
1.56910226035e-06
2.21066112092e-07
1.52712770129e-06
2.49997761926e-07
1.44330257078e-06
2.89726440543e-07
1.32705570554e-06
3.30578689334e-07
1.19284397902e-06
3.70993646919e-07
1.04561492134e-06
4.17854719924e-07
9.04452007022e-07
4.67751421383e-07
7.17248138886e-07
5.12061260431e-07
5.07092331757e-07
5.71548642659e-07
3.28214752371e-07
4.56794982379e-07
2.2042990466e-07
2.94387282361e-07
1.56846597445e-07
1.96795704252e-07
1.01486288647e-07
1.61445239756e-07
5.02239468043e-08
1.49699308468e-07
2.09377664134e-09
1.46442027574e-07
-4.40257930633e-08
1.4276753048e-07
-8.66187283039e-08
1.28106539111e-07
-1.24466916019e-07
1.02751801746e-07
-1.53771301859e-07
7.24390663592e-08
-1.67265051488e-07
3.62093992705e-08
-1.6631506286e-07
1.17956847369e-09
-1.55553962814e-07
-2.51755372226e-08
-1.37182021542e-07
-4.59320470653e-08
-1.1120905149e-07
-7.39672514689e-08
-5.2052680274e-08
-1.30353306914e-07
-1.55388340378e-07
4.03086819442e-08
-2.27974497197e-07
4.80621593643e-08
-1.69995758233e-07
1.43328533718e-07
-3.02188315306e-07
2.15807657151e-07
-2.93105115491e-07
2.03869948947e-07
-2.03641827989e-07
1.60598450778e-07
-8.94116757679e-08
2.283095709e-07
-1.38935281149e-07
3.58593001473e-07
-2.35631685978e-07
4.52507813984e-07
-2.28977108633e-07
5.15038204059e-07
-2.0097219461e-07
5.68802398782e-07
-1.85695238577e-07
6.12334213677e-07
-1.65691396299e-07
6.35865003283e-07
-1.34240611896e-07
6.12064483466e-07
-7.95604696793e-08
5.57106467568e-07
-3.11483329259e-08
5.32962570298e-07
-2.18430903708e-08
5.6030593824e-07
-4.36128797098e-08
6.36987765247e-07
-1.02795731646e-07
7.53153904858e-07
-1.76487053664e-07
8.40331237822e-07
-2.15797204553e-07
8.83020721988e-07
-2.19030609389e-07
9.30554922053e-07
-2.18110467459e-07
9.85604767825e-07
-2.10549703541e-07
1.0325350299e-06
-1.98931019073e-07
1.07412816809e-06
-1.86468080181e-07
1.11168657466e-06
-1.72813755949e-07
1.14925629889e-06
-1.61597427052e-07
1.18317107994e-06
-1.47225699548e-07
1.2164125586e-06
-1.35373579083e-07
1.2412159978e-06
-1.20072680794e-07
1.26789794803e-06
-1.11371511346e-07
1.28069314765e-06
-9.10619695442e-08
1.27716270577e-06
-6.98269146206e-08
1.3176685133e-06
-9.70208315277e-08
1.35086170752e-06
-1.12967571666e-07
1.38246633951e-06
-1.42488341201e-07
1.47802845756e-06
-1.92411151083e-07
1.57477557678e-06
-2.09465270697e-07
1.62265140568e-06
-2.10904842277e-07
1.65412720601e-06
-1.94271337807e-07
1.69921653314e-06
-1.55009713916e-07
1.75035708053e-06
-1.18533585889e-07
1.78831854329e-06
-1.02699366131e-07
1.81465920468e-06
-9.53913941134e-08
1.83387146464e-06
-8.54812911276e-08
1.84699373975e-06
-7.03269523385e-08
1.85516614529e-06
-4.9316167179e-08
1.85795400992e-06
-2.30098531762e-08
1.85482217249e-06
8.74076779094e-09
1.84634946286e-06
4.61004143156e-08
1.82944340212e-06
8.64909535717e-08
1.79463180404e-06
1.2781902075e-07
1.73503629709e-06
1.74449826454e-07
1.67453453096e-06
2.32970248083e-07
1.60974373977e-06
2.86182274452e-07
1.52467717477e-06
3.35442926892e-07
1.41936651901e-06
3.95473881155e-07
1.29099415164e-06
4.59449696751e-07
1.14191767851e-06
5.2063269404e-07
9.82018684453e-07
5.78379555388e-07
8.19937822473e-07
6.30483638358e-07
6.53896460309e-07
6.78780491893e-07
5.15845081996e-07
7.10242528057e-07
3.5202090994e-07
6.21057152891e-07
2.2538647344e-07
4.21300050802e-07
1.44298639326e-07
2.78081816054e-07
8.36652012788e-08
2.22257593397e-07
3.06466474787e-08
2.02915987257e-07
-1.85821022109e-08
1.95911092139e-07
-6.82277957733e-08
1.92699052776e-07
-1.18535229836e-07
1.78741046351e-07
-1.58271786069e-07
1.42831672045e-07
-1.74833847497e-07
8.93326756121e-08
-1.76205135339e-07
3.79019486694e-08
-1.71864886161e-07
-2.82436839763e-09
-1.55313562602e-07
-4.13711608621e-08
-1.21790553202e-07
-7.91428349486e-08
-8.73712131074e-08
-1.0813384823e-07
-4.67548292711e-08
-1.70727638253e-07
-2.01943565612e-07
2.95114008739e-09
-2.31146764808e-07
4.43511851469e-08
-2.11143452228e-07
1.22550025176e-07
-3.8026828119e-07
1.62131117163e-07
-3.32720168393e-07
1.3509929203e-07
-1.7645785308e-07
1.68428406425e-07
-1.2247087285e-07
2.73508342213e-07
-2.43524902026e-07
3.60297752839e-07
-3.21934485956e-07
4.24997822253e-07
-2.93195169134e-07
4.87240036569e-07
-2.62930484457e-07
5.4540865799e-07
-2.4379662e-07
5.60891182654e-07
-1.81178392204e-07
5.23218692812e-07
-9.66056290551e-08
4.93183469411e-07
-4.94275276139e-08
5.11697572997e-07
-4.9387921701e-08
5.68785476627e-07
-7.85722845438e-08
6.61412395153e-07
-1.3581346253e-07
7.57953417337e-07
-1.98872545633e-07
8.08167967173e-07
-2.26279503262e-07
8.32877608843e-07
-2.40113656513e-07
8.78108322108e-07
-2.63872649476e-07
9.30899626221e-07
-2.70522043013e-07
9.79166207053e-07
-2.5846536996e-07
1.02119035547e-06
-2.40655480544e-07
1.05976669407e-06
-2.2475145104e-07
1.09891199796e-06
-2.11722604821e-07
1.13025741463e-06
-1.92660610832e-07
1.16444063845e-06
-1.811915704e-07
1.18933061681e-06
-1.60088740093e-07
1.21613443521e-06
-1.4673130894e-07
1.22608996526e-06
-1.21207748659e-07
1.24732922448e-06
-1.12133589878e-07
1.29878512929e-06
-1.2106719198e-07
1.3171764974e-06
-1.15097766501e-07
1.36730964745e-06
-1.62710800547e-07
1.45857879849e-06
-2.33344177109e-07
1.52861283533e-06
-2.62058957964e-07
1.58269975482e-06
-2.63216238427e-07
1.62348909686e-06
-2.51375643686e-07
1.65937178341e-06
-2.2984471339e-07
1.70220953054e-06
-1.97529338268e-07
1.74861453342e-06
-1.64626795175e-07
1.78774762439e-06
-1.41523101979e-07
1.81745877327e-06
-1.24810881281e-07
1.83987777518e-06
-1.07614864977e-07
1.85637100973e-06
-8.654697522e-08
1.86758049407e-06
-6.02520914266e-08
1.87309651978e-06
-2.82609148619e-08
1.87195415233e-06
1.01445200489e-08
1.8628146373e-06
5.54818158032e-08
1.84240838992e-06
1.07128634875e-07
1.80594445784e-06
1.64510152425e-07
1.75255809015e-06
2.28078026192e-07
1.68947498317e-06
2.96318092656e-07
1.61280817507e-06
3.63153161338e-07
1.514572315e-06
4.3402972144e-07
1.39320472816e-06
5.17237500415e-07
1.24701284317e-06
6.06097834604e-07
1.08045651754e-06
6.87693037369e-07
9.07630663758e-07
7.51765989275e-07
7.42758506601e-07
7.95973138246e-07
6.039023985e-07
8.18271425918e-07
5.15960488942e-07
7.98705492448e-07
3.51191359737e-07
7.86290233889e-07
2.33461777127e-07
5.39345306169e-07
1.45100786294e-07
3.66652714741e-07
7.07968855472e-08
2.9674943494e-07
8.40042919753e-09
2.65516120374e-07
-4.64716117311e-08
2.51018353288e-07
-1.02373854077e-07
2.48890272624e-07
-1.547990157e-07
2.31493493865e-07
-1.81639474751e-07
1.70000731582e-07
-1.89630781408e-07
9.76306816456e-08
-1.94078230447e-07
4.26715312847e-08
-1.88304526907e-07
-8.2398316587e-09
-1.64026106044e-07
-6.53025067854e-08
-1.32443470708e-07
-1.10464516014e-07
-9.48146832322e-08
-1.45546617094e-07
-4.56628306844e-08
-2.19543394413e-07
-2.47521250783e-07
4.13618244578e-10
-2.31058544897e-07
6.12584019027e-08
-2.71882358583e-07
9.81905858475e-08
-4.17159995148e-07
1.12609803808e-07
-3.4702783476e-07
1.01529154888e-07
-1.65233813614e-07
1.96186635045e-07
-2.16776889729e-07
3.07522664886e-07
-3.5439207835e-07
3.54157545997e-07
-3.68065200934e-07
4.02460478202e-07
-3.41276823165e-07
4.44014607533e-07
-3.04359456717e-07
4.51382227186e-07
-2.51152908186e-07
4.06241960654e-07
-1.36076950463e-07
3.95664444667e-07
-8.59273108506e-08
4.31681092855e-07
-8.51915963779e-08
4.98478761228e-07
-1.15810579303e-07
6.03358365606e-07
-1.82971647679e-07
7.08270005056e-07
-2.40243918964e-07
7.51893443371e-07
-2.42100589406e-07
7.71076323625e-07
-2.45086644605e-07
8.23029629867e-07
-2.91681934855e-07
8.78295440774e-07
-3.18761351738e-07
9.22332706094e-07
-3.14214874672e-07
9.6429591596e-07
-3.00116395099e-07
1.00774246616e-06
-2.83803303867e-07
1.04749259845e-06
-2.64264309433e-07
1.06830861201e-06
-2.32284912952e-07
1.10249864041e-06
-2.26650424127e-07
1.12646500769e-06
-2.04975999766e-07
1.15321210638e-06
-1.86659000321e-07
1.15552355768e-06
-1.48906918244e-07
1.16794805955e-06
-1.33495335362e-07
1.19565666291e-06
-1.39627261599e-07
1.22068743263e-06
-1.45793180509e-07
1.31001388551e-06
-2.04031522847e-07
1.4134076945e-06
-2.65654917838e-07
1.48651909307e-06
-3.06050858828e-07
1.53904268247e-06
-3.14233551925e-07
1.5825189673e-06
-3.06381104517e-07
1.62222240612e-06
-2.90785931478e-07
1.66172863976e-06
-2.69048436195e-07
1.70461792019e-06
-2.40102062494e-07
1.74903068709e-06
-2.08716658116e-07
1.78893875562e-06
-1.81120136957e-07
1.82163540981e-06
-1.57210389894e-07
1.84763849861e-06
-1.33336030011e-07
1.86784328339e-06
-1.06478241217e-07
1.88256384678e-06
-7.47079879082e-08
1.89107147221e-06
-3.65090195873e-08
1.89187457757e-06
9.59080884683e-09
1.88297457402e-06
6.462214593e-08
1.86161976032e-06
1.2871058996e-07
1.82511922121e-06
2.01237193553e-07
1.7727661738e-06
2.80666481399e-07
1.70494497271e-06
3.6439083604e-07
1.61684443335e-06
4.51532759415e-07
1.50316308124e-06
5.48022813456e-07
1.36367988699e-06
6.57092048549e-07
1.20140082625e-06
7.68778282084e-07
1.02314341331e-06
8.66424412197e-07
8.44602104092e-07
9.3082663794e-07
6.86831080678e-07
9.54317863919e-07
5.61889191195e-07
9.43751302116e-07
4.72515431166e-07
8.88621489522e-07
3.46367727782e-07
9.12927675945e-07
2.19906456416e-07
6.66094794531e-07
1.35832611212e-07
4.50930712427e-07
5.5307384448e-08
3.7746514368e-07
-1.83197039137e-08
3.39351271185e-07
-8.45698984425e-08
3.17512856799e-07
-1.46058217007e-07
3.10665348916e-07
-1.85937959572e-07
2.71689792307e-07
-2.01047109148e-07
1.85393131135e-07
-2.15268144853e-07
1.12153112497e-07
-2.24004647797e-07
5.17425048514e-08
-2.16248650027e-07
-1.56392928599e-08
-1.89666792535e-07
-9.15548991494e-08
-1.52835178191e-07
-1.47027342746e-07
-1.09813021331e-07
-1.8830622727e-07
-5.72573287323e-08
-2.71938960595e-07
-3.04564872929e-07
2.11282450818e-08
-2.52249174137e-07
9.88731357275e-08
-3.49488831228e-07
1.28823296875e-07
-4.47248991567e-07
9.80604251439e-08
-3.16213890124e-07
1.25971857456e-07
-1.92891197214e-07
2.44609516797e-07
-3.34972209439e-07
3.06551002734e-07
-4.15822414556e-07
3.41756145622e-07
-4.03080577153e-07
3.65293681258e-07
-3.6456796614e-07
4.0424968968e-07
-3.43407994804e-07
3.78218386395e-07
-2.25159182023e-07
3.55526688108e-07
-1.13329003399e-07
3.86889780321e-07
-1.17072138335e-07
4.36925412606e-07
-1.34834308959e-07
5.30654685602e-07
-2.0905439199e-07
6.3982963262e-07
-2.91697183447e-07
6.81299620487e-07
-2.81338732129e-07
6.9473272341e-07
-2.55172124759e-07
7.5405148764e-07
-3.04015022554e-07
8.18895103093e-07
-3.56142645968e-07
8.6690707222e-07
-3.66429640281e-07
9.09733296365e-07
-3.56721979077e-07
9.51679204902e-07
-3.41744532381e-07
9.83701276224e-07
-3.15586712857e-07
1.00557981975e-06
-2.85918045147e-07
1.03124069551e-06
-2.57733806056e-07
1.04856318493e-06
-2.43767077963e-07
1.0764551462e-06
-2.32672057851e-07
1.08779862222e-06
-1.97858368564e-07
1.08983123623e-06
-1.50793824227e-07
1.12485399438e-06
-1.68294997882e-07
1.1689894798e-06
-1.83503921319e-07
1.23840035241e-06
-2.14832308171e-07
1.32994591996e-06
-2.95134379691e-07
1.42990872162e-06
-3.65200814489e-07
1.49198869948e-06
-3.6776884735e-07
1.53701844074e-06
-3.58944063004e-07
1.57866074508e-06
-3.47728418561e-07
1.62046613038e-06
-3.32298735175e-07
1.66280919508e-06
-3.11089202129e-07
1.70663034152e-06
-2.83609547818e-07
1.75081168579e-06
-2.52582280762e-07
1.79180856414e-06
-2.21807566123e-07
1.82730777313e-06
-1.92412725206e-07
1.85704672774e-06
-1.62790063738e-07
1.8813573841e-06
-1.30515098114e-07
1.90005103104e-06
-9.31366020859e-08
1.91199653708e-06
-4.82001233292e-08
1.91538858816e-06
6.4449508242e-09
1.90805497676e-06
7.21908871534e-08
1.88754533069e-06
1.49450509484e-07
1.85148752158e-06
2.37519719079e-07
1.79780934926e-06
3.34565764482e-07
1.72354383264e-06
4.38888599357e-07
1.6235966502e-06
5.5172696132e-07
1.49474554888e-06
6.77173819312e-07
1.33888643681e-06
8.13260172603e-07
1.1619473395e-06
9.46118304245e-07
9.75115867556e-07
1.05369371042e-06
7.99414664125e-07
1.1070692306e-06
6.69532572815e-07
1.0847571779e-06
5.87574199576e-07
1.02630432232e-06
4.81105808792e-07
9.95634705824e-07
3.95016823691e-07
9.99450939711e-07
2.18311324685e-07
8.43113319284e-07
1.17258596981e-07
5.52188448391e-07
3.04410767798e-08
4.64485515951e-07
-5.49857461971e-08
4.25002676337e-07
-1.30618918467e-07
3.93390940854e-07
-1.84418431235e-07
3.64739377932e-07
-2.09483182307e-07
2.97003285277e-07
-2.30768752737e-07
2.06959521647e-07
-2.55067410393e-07
1.36747320834e-07
-2.66446175091e-07
6.34636439538e-08
-2.56528048389e-07
-2.51907927579e-08
-2.31440631225e-07
-1.16313857151e-07
-1.88162756753e-07
-1.90042311762e-07
-1.33029323864e-07
-2.43242592623e-07
-7.4425968936e-08
-3.30139988389e-07
-3.78950137735e-07
4.17337887642e-08
-2.9348007729e-07
1.14810607099e-07
-4.22482407458e-07
1.20371531623e-07
-4.52597684017e-07
6.77590924708e-08
-2.63476576705e-07
1.47584308049e-07
-2.72436240816e-07
2.51402094344e-07
-4.3832787767e-07
2.88815508497e-07
-4.52988902979e-07
3.27025652022e-07
-4.41035725861e-07
3.16978073129e-07
-3.546663759e-07
3.23316597322e-07
-3.49671195086e-07
2.9279227429e-07
-1.94635124948e-07
3.37947025066e-07
-1.58294835575e-07
3.80062946127e-07
-1.58857246208e-07
4.54476502084e-07
-2.08843407834e-07
5.5842308366e-07
-3.12516625289e-07
6.1018814319e-07
-3.43051894804e-07
6.19881331759e-07
-2.90720595972e-07
6.77060627412e-07
-3.11999885355e-07
7.50461794572e-07
-3.77020519834e-07
8.02359181611e-07
-4.07674195984e-07
8.4448586068e-07
-4.08222832966e-07
8.85260664768e-07
-3.97161518549e-07
9.31039092127e-07
-3.87280342128e-07
9.72560966585e-07
-3.56889378407e-07
9.84572034581e-07
-2.97708441075e-07
1.01596256143e-06
-2.88946260789e-07
1.03052263195e-06
-2.58134722575e-07
1.02833658175e-06
-2.30309353347e-07
1.03608067145e-06
-2.05417852168e-07
1.10923498394e-06
-2.23740633008e-07
1.15090052646e-06
-2.09724895849e-07
1.17045111344e-06
-2.02696796489e-07
1.26100377383e-06
-3.04974197571e-07
1.37359511232e-06
-4.072926019e-07
1.43479417359e-06
-4.26017995864e-07
1.48419773858e-06
-4.16840473998e-07
1.52942261074e-06
-4.03867049476e-07
1.57335756512e-06
-3.91376301947e-07
1.61779021447e-06
-3.76443516249e-07
1.66275837317e-06
-3.55759225012e-07
1.70810647347e-06
-3.28647231522e-07
1.75308301651e-06
-2.97244901964e-07
1.79574661451e-06
-2.6416288735e-07
1.83427691331e-06
-2.30646699875e-07
1.86800696183e-06
-1.96235621346e-07
1.89678686602e-06
-1.5902248179e-07
1.91995262806e-06
-1.16041009775e-07
1.93602816371e-06
-6.40240232013e-08
1.94305298305e-06
-3.39160843468e-10
1.93881502724e-06
7.66653386127e-08
1.92076773408e-06
1.67727353352e-07
1.88593221197e-06
2.72581936318e-07
1.83052707901e-06
3.90196003991e-07
1.74955076443e-06
5.20076340019e-07
1.63813406197e-06
6.63399484398e-07
1.49532812977e-06
8.20220857209e-07
1.32555667142e-06
9.83367281354e-07
1.13531421027e-06
1.1367034236e-06
9.34279391172e-07
1.25523310036e-06
7.56118173415e-07
1.28576998457e-06
6.4616215981e-07
1.19534123368e-06
5.76081579006e-07
1.09694962443e-06
5.13645093442e-07
1.05859253109e-06
4.67393150812e-07
1.04618467144e-06
3.03198193058e-07
1.00767480472e-06
1.1093649634e-07
7.44698401551e-07
-2.47766876415e-09
5.78115555687e-07
-9.58590549293e-08
5.18616424227e-07
-1.69551171909e-07
4.67335628339e-07
-2.12335104584e-07
4.07756724354e-07
-2.38822328549e-07
3.2376229326e-07
-2.74153917836e-07
2.42531532006e-07
-3.06712537601e-07
1.69632483237e-07
-3.21918373528e-07
7.90497514314e-08
-3.14953397043e-07
-3.17776042718e-08
-2.90648009294e-07
-1.40281421882e-07
-2.42939602974e-07
-2.37445532899e-07
-1.6865453231e-07
-3.17204703968e-07
-9.18878919391e-08
-4.06823898613e-07
-4.70552678271e-07
5.73587988169e-08
-3.50852166933e-07
1.13604715579e-07
-4.78609372089e-07
9.16192647514e-08
-4.30664684536e-07
9.09254182145e-08
-2.62619737058e-07
1.90316920503e-07
-3.71536378888e-07
2.31823895101e-07
-4.79534216626e-07
2.65801205509e-07
-4.86838953052e-07
2.98128162783e-07
-4.73359066328e-07
2.97025747913e-07
-3.53482653367e-07
3.00175115089e-07
-3.52867949064e-07
3.01257795356e-07
-1.95564806944e-07
3.38568092426e-07
-1.95379107493e-07
3.88140678563e-07
-2.08029349701e-07
4.78625584383e-07
-2.9881854331e-07
5.70023452187e-07
-4.03554682666e-07
5.87004452982e-07
-3.59744512278e-07
6.09696107587e-07
-3.13091478266e-07
6.71869360617e-07
-3.73782243365e-07
7.34316998774e-07
-4.39078680338e-07
7.8165304123e-07
-4.54640348044e-07
8.21299649506e-07
-4.47489845169e-07
8.5227978735e-07
-4.27890416984e-07
8.79671674866e-07
-4.14473471142e-07
9.06676128776e-07
-3.83717018504e-07
9.26593684422e-07
-3.17489885039e-07
9.49496429169e-07
-3.11656601764e-07
9.85252952519e-07
-2.93705848928e-07
1.02728883629e-06
-2.72153576503e-07
1.06855249507e-06
-2.46515537915e-07
1.09658036628e-06
-2.51546463254e-07
1.1415642797e-06
-2.5437056391e-07
1.24151959756e-06
-3.02222124285e-07
1.32342548014e-06
-3.86412427733e-07
1.37946146072e-06
-4.62909593922e-07
1.42736971018e-06
-4.7358152686e-07
1.47392319728e-06
-4.63087981549e-07
1.52057239182e-06
-4.50226818887e-07
1.5668629046e-06
-4.37380458772e-07
1.61351774854e-06
-4.22807759802e-07
1.66087639521e-06
-4.02817674415e-07
1.70843623071e-06
-3.75901120844e-07
1.755265198e-06
-3.43766830406e-07
1.80021698544e-06
-3.08813985823e-07
1.84216097187e-06
-2.72298110129e-07
1.88025968312e-06
-2.34053026616e-07
1.91386255282e-06
-1.92354082905e-07
1.94201229749e-06
-1.43929405557e-07
1.96313120828e-06
-8.48939903777e-08
1.97521067754e-06
-1.21729990508e-08
1.97594896509e-06
7.61669753025e-08
1.96246881979e-06
1.81450354609e-07
1.93073314711e-06
3.0455012028e-07
1.8750451499e-06
4.46079632939e-07
1.78868459942e-06
6.06673022714e-07
1.66677341263e-06
7.85495542398e-07
1.5103292985e-06
9.76928479774e-07
1.3247562499e-06
1.16917450312e-06
1.11431344912e-06
1.34759557631e-06
8.88635167968e-07
1.48139404964e-06
7.1280781538e-07
1.46227383454e-06
6.3601375553e-07
1.27272729234e-06
5.87368747095e-07
1.14617143119e-06
5.34803831537e-07
1.11169929776e-06
4.78054609693e-07
1.10337236134e-06
4.0083798301e-07
1.08529244164e-06
1.76724921141e-07
9.6912404043e-07
-4.22883177197e-08
7.97403796026e-07
-1.4134727865e-07
6.17917031141e-07
-2.06055541618e-07
5.32278401141e-07
-2.43534884803e-07
4.45502273098e-07
-2.80169152903e-07
3.60578068673e-07
-3.27797413368e-07
2.90476252404e-07
-3.68309088233e-07
2.10486406482e-07
-3.89597924656e-07
1.00735835392e-07
-3.89773860949e-07
-3.119446995e-08
-3.66514031446e-07
-1.63162039022e-07
-3.1321097576e-07
-2.9044687794e-07
-2.20303069124e-07
-4.09922252997e-07
-1.12746392815e-07
-5.13861000026e-07
-5.83303855999e-07
7.03384412509e-08
-4.2058812084e-07
1.18799930207e-07
-5.26752700477e-07
8.21865638176e-08
-3.93868304522e-07
1.13889167347e-07
-2.94203125574e-07
2.01930259184e-07
-4.59383882021e-07
2.0708641311e-07
-4.84669278218e-07
2.37650261568e-07
-5.17205459154e-07
2.39858956168e-07
-4.75622343164e-07
2.65277747568e-07
-3.78833518197e-07
2.48672723589e-07
-3.36138484525e-07
2.86043601768e-07
-2.32781055892e-07
3.33574064483e-07
-2.42537489474e-07
3.89853760854e-07
-2.63952355249e-07
4.75139009184e-07
-3.83722983827e-07
5.2295777323e-07
-4.50990848406e-07
5.24023787215e-07
-3.60559937759e-07
5.7952136592e-07
-3.68266797941e-07
6.49614369268e-07
-4.43486694346e-07
7.06779170861e-07
-4.95850494632e-07
7.56798066405e-07
-5.04273097934e-07
8.00051506636e-07
-4.90495566289e-07
8.39083963616e-07
-4.66672913399e-07
8.56806727568e-07
-4.31998267293e-07
8.70908764653e-07
-3.97683984583e-07
9.13140654032e-07
-3.59551343971e-07
9.25900393839e-07
-3.24229956486e-07
9.26674544962e-07
-2.94339836029e-07
9.36205005824e-07
-2.81533516382e-07
9.94477679894e-07
-3.04564826495e-07
1.06763866282e-06
-3.24431257041e-07
1.14030585641e-06
-3.26660764049e-07
1.21227182497e-06
-3.73718292969e-07
1.31368986031e-06
-4.87334437159e-07
1.37127261176e-06
-5.20110533885e-07
1.41626444907e-06
-5.18253519651e-07
1.46291922676e-06
-5.09445204429e-07
1.51110922356e-06
-4.9812568255e-07
1.55937664897e-06
-4.85359460814e-07
1.60785027248e-06
-4.70989529836e-07
1.65721859866e-06
-4.51890893713e-07
1.70713787181e-06
-4.25520732917e-07
1.75655300742e-06
-3.92883463502e-07
1.80450291838e-06
-3.56469961041e-07
1.85025769543e-06
-3.17768972979e-07
1.89312050951e-06
-2.76640545495e-07
1.93213510108e-06
-2.31102304801e-07
1.96596481419e-06
-1.77504420323e-07
1.9930993213e-06
-1.11777192305e-07
2.01184735772e-06
-3.06811008203e-08
2.0199879835e-06
6.82738157021e-08
2.01418590798e-06
1.87491615323e-07
1.98912308862e-06
3.29826743067e-07
1.93676949507e-06
4.98700313412e-07
1.84763437051e-06
6.95981343309e-07
1.71573612616e-06
9.17605700218e-07
1.54282549993e-06
1.15000530957e-06
1.33290960763e-06
1.37942816339e-06
1.08058393543e-06
1.60031601114e-06
8.22299390119e-07
1.74040016755e-06
6.95783340228e-07
1.58948828705e-06
6.6981251208e-07
1.2993640722e-06
6.24892911372e-07
1.1916179244e-06
5.53426643152e-07
1.18359809048e-06
4.73507359857e-07
1.18378362202e-06
4.04661668533e-07
1.15455480389e-06
2.60561631069e-07
1.11364615149e-06
1.789462855e-08
1.04042066869e-06
-1.77319740479e-07
8.13412332253e-07
-2.39256333024e-07
5.94480816043e-07
-2.80104460677e-07
4.86500105835e-07
-3.27660593037e-07
4.08448856673e-07
-3.85033703648e-07
3.48054878986e-07
-4.36996822934e-07
2.62782710822e-07
-4.70941445276e-07
1.35065239445e-07
-4.80647180795e-07
-2.11068211491e-08
-4.58123912132e-07
-1.85343831565e-07
-3.95503313155e-07
-3.52740302313e-07
-2.85932820332e-07
-5.19114139044e-07
-1.46249282631e-07
-6.53555075447e-07
-7.29236334884e-07