/*--------------------------------*- C++ -*----------------------------------*\
| =========                 |                                                 |
| \\      /  F ield         | OpenFOAM: The Open Source CFD Toolbox           |
|  \\    /   O peration     | Version:  v1806                                 |
|   \\  /    A nd           | Web:      www.OpenFOAM.com                      |
|    \\/     M anipulation  |                                                 |
\*---------------------------------------------------------------------------*/
FoamFile
{
    version     2.0;
    format      ascii;
    class       volScalarField;
    location    "987";
    object      p;
}
// * * * * * * * * * * * * * * * * * * * * * * * * * * * * * * * * * * * * * //

dimensions      [0 2 -2 0 0 0 0];


internalField   nonuniform List<scalar> 
6400
(
0.143174628235
0.143177908925
0.143187338436
0.143205954451
0.14323404272
0.14327170407
0.14331890298
0.143376673964
0.143446372431
0.143530173399
0.143634151834
0.143761615784
0.143910447575
0.144080587322
0.144273893219
0.144493000385
0.144739942545
0.145015055668
0.145316341641
0.145638825404
0.145977890258
0.146335630078
0.146719610542
0.147137459059
0.14759372653
0.148088352824
0.148618268278
0.149181021221
0.149776048552
0.150403727408
0.151064202149
0.151755458995
0.1524720043
0.15320817954
0.153961114193
0.154728581109
0.155511029459
0.156312686743
0.157131841658
0.157960931636
0.158799972228
0.159657764922
0.160538217758
0.161433722334
0.162333551339
0.163229497885
0.164115111302
0.164985019845
0.165834218366
0.166658155056
0.167452720923
0.168212028421
0.168927090931
0.16958783692
0.170190918168
0.170737615345
0.17122331837
0.171640149649
0.171986243546
0.17226714293
0.17248877279
0.172655447877
0.172773296124
0.17285764543
0.172929066707
0.173003307227
0.173080776355
0.173146803999
0.173193043493
0.173222230051
0.173239362289
0.173248418129
0.173251833771
0.173251181604
0.173247546877
0.173242236489
0.173236162464
0.173231383963
0.173227871187
0.173226313823
0.143169956336
0.143173469242
0.143182129856
0.143200294004
0.143229728204
0.143268703991
0.143316327209
0.143372455377
0.143440228813
0.143523738834
0.14362738195
0.143753972165
0.14390307567
0.144074041649
0.144267440972
0.144485293507
0.144731480443
0.145007130004
0.145309454996
0.14563223296
0.145969605546
0.146325625106
0.146709234507
0.147127288193
0.147584066984
0.148079376579
0.148609684991
0.149173051121
0.149768953086
0.150397339368
0.151058058468
0.151749818158
0.152467245778
0.153203652165
0.15395676726
0.154724617144
0.155507303459
0.156309650533
0.157130072511
0.157960409917
0.158799891597
0.159658792227
0.160541904845
0.161439528688
0.162340703869
0.163238123942
0.164125344419
0.164997113997
0.165848141834
0.166673055468
0.167467694664
0.168228200442
0.168946507478
0.16960913875
0.170213728174
0.170762288545
0.171247073266
0.171661898408
0.172007261186
0.172287003966
0.172506263287
0.172671523302
0.172789076387
0.172874107054
0.172946375915
0.17302079765
0.173097891952
0.173161429648
0.173204768194
0.173231670728
0.173246920211
0.173254390467
0.173256275022
0.173253946695
0.173248968022
0.173242594239
0.173236053767
0.17323065235
0.173226825763
0.173225443322
0.143156656611
0.143162371357
0.143170395291
0.143187189398
0.143215646797
0.143258587053
0.143309565815
0.143364142345
0.143428972344
0.14351082592
0.143613663377
0.143739781157
0.143889194504
0.144060931709
0.144254346479
0.144469195893
0.144713140557
0.14499239622
0.145297134026
0.145618531174
0.145952361671
0.146304331897
0.146687423972
0.147107542363
0.147565333222
0.148060828232
0.148592300653
0.149157331698
0.149754746599
0.150384405064
0.151046040301
0.151738938928
0.152458198071
0.153194736207
0.153947295748
0.154716619893
0.155500178588
0.156302843048
0.157125005569
0.157958715496
0.15880359584
0.159666901892
0.160551404474
0.161450176773
0.162353527606
0.163253663757
0.164144162807
0.16501941027
0.16587402989
0.166702913924
0.167501478808
0.168264279635
0.168982871372
0.169648688342
0.170258724685
0.170809032188
0.171292567555
0.171705809049
0.172049412743
0.172326808258
0.172543409664
0.172705406524
0.172821679912
0.17290910103
0.172985987097
0.173061778153
0.173133142834
0.173189962998
0.173228615876
0.173251588957
0.173263298089
0.173267076971
0.173265090269
0.173259343795
0.173251809935
0.173243557776
0.173235661493
0.173229132596
0.173224783057
0.173223049315
0.143137164081
0.143143123411
0.143150304432
0.14316591169
0.143191151015
0.143234091916
0.143297031182
0.143351932648
0.143412281631
0.143491257655
0.14359272229
0.143718580745
0.143868687646
0.14404059684
0.144233823591
0.144451782249
0.144698764932
0.144975341014
0.145272638274
0.145584775463
0.145915582324
0.146270838236
0.146656337382
0.147077404368
0.147536410436
0.148033357967
0.148566617165
0.149133749807
0.149733348882
0.150364850235
0.151028412835
0.15172294174
0.152443903919
0.153182906496
0.153934282921
0.154702383276
0.155489161197
0.156293617187
0.157116438569
0.157954736978
0.158807095641
0.159676746483
0.160564985831
0.161466672401
0.162373560186
0.16327794988
0.164173227054
0.165053540796
0.165913422408
0.16674766858
0.167551156478
0.168317876932
0.169040276739
0.169711195278
0.170325553375
0.170877528741
0.171360928792
0.171772838393
0.172114060194
0.172388102656
0.172600655926
0.172759664829
0.172877680476
0.17297105668
0.173051159391
0.173122841014
0.173187413207
0.17323673882
0.173267700169
0.173283552289
0.173288504894
0.173285594589
0.173277665612
0.173267208212
0.173255671019
0.173244591356
0.173234752028
0.173225932086
0.17321957225
0.173216858895
0.143106385559
0.143108176014
0.143116961925
0.143133141874
0.143161173305
0.143202055912
0.143260589973
0.143319861151
0.143383676205
0.143463119214
0.143563490814
0.143689287416
0.143840650072
0.144017342046
0.144216874707
0.144435087891
0.144675480496
0.144940396246
0.145228381749
0.145538205816
0.145870337503
0.14622727665
0.146614602169
0.147037480136
0.147498184554
0.147996993356
0.148532295471
0.149102081819
0.149704543409
0.150338923055
0.151004643092
0.151702277923
0.152426657366
0.153164916636
0.153916120985
0.154684317633
0.155471354196
0.15627910738
0.157106598334
0.157951150594
0.158811401666
0.159688475397
0.160582371003
0.161488870574
0.162400913009
0.163311111325
0.164212729811
0.165099716557
0.165966474486
0.166807632735
0.167617693457
0.168390429351
0.169118763948
0.169795755049
0.170414950413
0.17096949315
0.171453501392
0.171864440279
0.172203285988
0.172473946355
0.172683278298
0.172841724146
0.172963676027
0.173061728273
0.173140463994
0.173207576086
0.173264553995
0.173303912193
0.173323574637
0.173327885968
0.17332188074
0.173309465407
0.173293946691
0.173276980318
0.173260212579
0.173245086392
0.17323122812
0.17321781926
0.173208668028
0.173205038349
0.143051243496
0.14305203655
0.143065766358
0.143082921132
0.143114226073
0.143157605292
0.143213063115
0.143273251003
0.143342093331
0.143423972733
0.143523219487
0.143649590636
0.143809006252
0.143993733468
0.144192531522
0.144404953667
0.144636351627
0.144893097105
0.145176568174
0.145484463218
0.145815396812
0.146173035746
0.146562430341
0.146987705373
0.147450713166
0.147951409254
0.14848938259
0.14906211625
0.149668423338
0.150306510818
0.150976204517
0.151676029442
0.15240105925
0.15314255576
0.153892648135
0.154659372729
0.155448998931
0.156261803962
0.157095546822
0.157947601287
0.158816478984
0.15970206649
0.160603416282
0.16151670549
0.162435698689
0.16335337804
0.164262980711
0.165158302934
0.166033611271
0.166883367988
0.167701835612
0.168482675511
0.169218902558
0.169903248493
0.170528259063
0.171086541241
0.171572453473
0.171983735564
0.172321642493
0.172590844127
0.172799675425
0.172960341479
0.173086758383
0.173184608439
0.173259933882
0.173321108585
0.173369377561
0.173396017994
0.17339959602
0.17338641597
0.173364676358
0.173339649678
0.173313652359
0.173288006979
0.173264638857
0.173243608023
0.173223216939
0.173203727559
0.173191016344
0.173185289509
0.14296762863
0.14297450185
0.14299610564
0.143020882645
0.143049056441
0.14309353454
0.143150920386
0.143213990084
0.143286768417
0.143371806893
0.143475232383
0.143605671604
0.143772402545
0.143956415975
0.144151031467
0.144356266268
0.144582047605
0.144836363222
0.145117728222
0.145421385634
0.145750233243
0.146108853224
0.14650019333
0.146927604464
0.147393349088
0.147897771287
0.148437516148
0.149013655852
0.149624641137
0.150269084509
0.150942807952
0.151643564121
0.152369864422
0.153109401625
0.153860375577
0.154629343521
0.155423304675
0.156242251307
0.157083375822
0.157943952912
0.158822321951
0.15971758623
0.160628104264
0.161550152879
0.162478007759
0.163404973232
0.164324322482
0.165229757332
0.166115428313
0.166975656135
0.167804531793
0.168595577102
0.169341625056
0.170034914811
0.170667349867
0.171231389928
0.171721714559
0.172136359063
0.172476851754
0.172748408351
0.17296017072
0.173124487997
0.173251814931
0.173347056335
0.173421338636
0.173475385824
0.173508156327
0.173515438097
0.173496946225
0.173460570651
0.173417727167
0.173375208622
0.173334760708
0.173298990205
0.173267842788
0.173238483588
0.173208827437
0.173182140021
0.173164753581
0.173156295434
0.142868104634
0.14288083432
0.142905349528
0.142939869565
0.142971180392
0.143018110573
0.143074467144
0.143141029663
0.143218792652
0.143302638446
0.143414664103
0.143557523786
0.143723045365
0.143903937214
0.144092648929
0.144291715989
0.144516673454
0.144771251918
0.145048444558
0.145347921275
0.145675189716
0.14603436303
0.146427479911
0.146857944743
0.147327280717
0.147835042573
0.148378728191
0.148956014806
0.149573537842
0.150226487661
0.150902859625
0.151602619083
0.152328292751
0.153067669076
0.153819882408
0.154594294852
0.155394644466
0.15622067302
0.15707002543
0.157940071009
0.158828916767
0.159735105712
0.160656477732
0.161589245852
0.162527955201
0.16346614841
0.164397166975
0.16531466873
0.166212712033
0.16708549077
0.167926938552
0.168730385207
0.169488368286
0.170192715413
0.170835106026
0.171408288971
0.171907454517
0.172330728537
0.172679089696
0.172957183266
0.173173471114
0.173339491329
0.173464860173
0.173558024889
0.173626737093
0.173674374033
0.173686253428
0.173667484208
0.173621110325
0.173553950759
0.173480641754
0.173412186404
0.173353890248
0.173307701698
0.173268408245
0.173228741021
0.173187454128
0.173151632539
0.173128270843
0.173117184144
0.142757616593
0.142773693189
0.142798776728
0.14282968304
0.142868496929
0.142923929408
0.142981585608
0.143050596859
0.143136893517
0.143226727329
0.14333782652
0.14348944705
0.143658097771
0.143834249225
0.144017849255
0.144217005614
0.144441719084
0.144693780385
0.144967138067
0.145264356876
0.145590659677
0.145949769276
0.146343408459
0.146776211807
0.147252492696
0.14776287677
0.148310981122
0.148895367449
0.149515397496
0.150170830232
0.15085298565
0.151558037931
0.152277567082
0.153015226938
0.153773024811
0.154554793863
0.155362799088
0.156196921817
0.157055387323
0.157935845267
0.158836244143
0.159754688354
0.160688602177
0.161634055047
0.162585691598
0.163537205411
0.164482018638
0.165413779044
0.166326460371
0.16721412187
0.168070531099
0.168888810685
0.169661251517
0.170379552296
0.171035706645
0.171623263028
0.172137991853
0.172577162989
0.172939259455
0.173227512104
0.173448994428
0.173616016821
0.173738125716
0.17382281611
0.173876089602
0.17390961181
0.173910247105
0.173862579606
0.173782522715
0.173671928015
0.173549652072
0.173443076598
0.173364842919
0.173310890536
0.173266422556
0.173215833767
0.173158543971
0.173110176857
0.173078195938
0.173063788986
0.142634244293
0.142652332049
0.142681463861
0.142711633725
0.14275371964
0.142809944315
0.142870629476
0.14294054896
0.143028380339
0.143135050348
0.143251867046
0.143404508175
0.143574686212
0.143748272695
0.14392728114
0.144129405819
0.144357343549
0.144605341798
0.144874111703
0.145169467733
0.145495886591
0.145856107364
0.146250756572
0.146683327292
0.147165859645
0.147684407772
0.148231611354
0.148822274888
0.149447862799
0.150107906916
0.150794147283
0.151499297067
0.152219656719
0.152957393429
0.153720615022
0.154510658777
0.155327490664
0.156170798538
0.157039339248
0.157931175602
0.158844257539
0.159776363557
0.160724544645
0.161684675054
0.16265140179
0.163618507728
0.16457949142
0.165528002899
0.166457917728
0.16736313031
0.168237233222
0.169073196483
0.169863266962
0.170599465062
0.171274733225
0.171883896403
0.172423007906
0.172886555129
0.173268310564
0.173572836256
0.173803434925
0.173973557444
0.174088760351
0.174153696652
0.174176600456
0.174173114057
0.17415303404
0.17411321301
0.174000262881
0.173821228705
0.173614864655
0.173453170667
0.173355351689
0.173304004423
0.173266435036
0.173205631954
0.173120107375
0.173051619485
0.173005085771
0.172985211322
0.142492613268
0.142509852067
0.142541739668
0.142577098606
0.142627688193
0.142679695315
0.142741881566
0.142814954541
0.142896611658
0.143013136384
0.143144479025
0.143298697869
0.143470004881
0.143645262701
0.143824457007
0.144028045182
0.144257933139
0.144503788287
0.144769345129
0.145062132462
0.145388089521
0.145750853723
0.146150964743
0.146584466268
0.147064271677
0.147594354556
0.148149981106
0.148741777456
0.149370102162
0.150028195592
0.150721157322
0.151430658693
0.152151730782
0.152893304308
0.153663308508
0.15446206142
0.155288531592
0.156142091734
0.157021757788
0.157925985995
0.158852906437
0.159800126091
0.160764351086
0.161741209925
0.162725297281
0.163710469251
0.164690306915
0.165658446776
0.166608619036
0.16753450901
0.168429546166
0.169286684397
0.170098467284
0.170857779908
0.171559064275
0.1721985186
0.172771847346
0.173269420247
0.173679413477
0.174018136904
0.174267899999
0.17444541446
0.174547005458
0.174575374795
0.174542476942
0.1744742478
0.174395318227
0.174383921398
0.174302124759
0.174026696684
0.173655899887
0.173409673628
0.173300658162
0.173280886494
0.173284162153
0.173214263226
0.173064494776
0.172962426273
0.172892145211
0.172867555065
0.142328531169
0.1423424765
0.142368815217
0.142413238889
0.14247441468
0.142527971459
0.142592315696
0.142672534646
0.14275368343
0.142868160378
0.143010939714
0.143169695037
0.143341823474
0.143520457542
0.143707386615
0.143914617307
0.144144309172
0.144388371527
0.144652451068
0.144943018973
0.145266139372
0.145628030922
0.146037645729
0.14648254309
0.146959177463
0.147490440923
0.148054839038
0.148647029808
0.149283972789
0.149948051125
0.150637019366
0.151345991688
0.152071569752
0.152821999389
0.153600780688
0.154408880304
0.155245723005
0.15611056333
0.157002493834
0.157920218832
0.158862149236
0.15982594817
0.160808046145
0.161803757754
0.162807598739
0.163813539894
0.164815278089
0.165806402154
0.166780412068
0.16773072216
0.168650641657
0.169533351705
0.17037216402
0.171161275648
0.171896487602
0.172574228835
0.173191229486
0.173737799384
0.174188849975
0.174609550894
0.174903700331
0.17509744458
0.175179588381
0.17515116883
0.175027568434
0.174856569248
0.174636733917
0.174700857207
0.174776679334
0.17433441682
0.173622872706
0.173247658894
0.173156304901
0.173237627731
0.173369495266
0.173292194997
0.172962439979
0.172819934773
0.172716390209
0.172703185245
0.142141600491
0.142152833996
0.142170813542
0.142220243092
0.142283255929
0.142345263166
0.142414437185
0.142502748529
0.142592285835
0.142707015153
0.142855412569
0.143017841158
0.143190728163
0.143369362305
0.143566571677
0.14378457429
0.144015193895
0.144258243846
0.144522279659
0.144812345025
0.145132697822
0.145489585818
0.145901530712
0.146366313847
0.146850535422
0.147373972771
0.147949191791
0.14854862106
0.14918093989
0.149849802119
0.150542721534
0.151252917452
0.151983470055
0.152742934569
0.153531954044
0.154350623934
0.15519876385
0.156075858712
0.156981249503
0.157913785544
0.158872019086
0.159853837054
0.160855623094
0.161872385656
0.162898513131
0.16392817117
0.164955268539
0.165973312372
0.16697543634
0.167954688123
0.168904353721
0.169818264616
0.170691114406
0.171518324096
0.172294919948
0.173014022435
0.17368598355
0.174321040017
0.174831073501
0.175555426773
0.17586408004
0.176035905778
0.176045278868
0.175888059642
0.175558254059
0.175144155291
0.174561032859
0.174691621309
0.174857018957
0.174845955486
0.173270267046
0.172717181057
0.172762850523
0.173097789791
0.173634914005
0.173537288075
0.172735370343
0.172601149958
0.172432965709
0.172493178945
0.141932927955
0.141945831167
0.141968881823
0.142008258232
0.142066395727
0.142134189372
0.142209481513
0.142302779215
0.14240536309
0.142524210731
0.142677515531
0.142843553863
0.143018777338
0.143198234838
0.143399862288
0.143628259511
0.143864460761
0.144110606186
0.14437666697
0.144668093986
0.144988040233
0.145340702097
0.145749644799
0.14622730771
0.146727954307
0.147251280386
0.147830723934
0.148439789374
0.149071133628
0.149739069708
0.15043098688
0.151144604815
0.151885866122
0.152656246669
0.153456368587
0.15428666854
0.155147297885
0.156037775188
0.156957677636
0.157906335666
0.158882426218
0.159883874018
0.160907151774
0.161947148606
0.162998189607
0.164054755401
0.165111124072
0.166160692846
0.167196020145
0.168209639735
0.169194980733
0.170147280294
0.171063498733
0.171939288246
0.172763337874
0.173517841392
0.174279179033
0.1750808999
0.175296257285
0.175471298024
0.17567278109
0.17580955424
0.175813670826
0.175680971795
0.175437005461
0.175134734225
0.174833104233
0.174703450969
0.174621687534
0.173990604151
0.173205203611
0.172907890182
0.173065471024
0.173574169478
0.174489371697
0.17480397518
0.171628040099
0.172180991254
0.171939414472
0.17228858959
0.14169779048
0.1417124559
0.14174560551
0.141775927432
0.141828153785
0.14189795589
0.141978348394
0.142077965441
0.142196075623
0.142318860539
0.142476237523
0.142646410875
0.142825678282
0.143009309335
0.143214699063
0.143449118617
0.1436915662
0.143943553132
0.14421385929
0.14450812595
0.144829932059
0.145182192063
0.145584572393
0.146062896422
0.146588169879
0.147121677044
0.147693193462
0.148316681493
0.148958704662
0.149617148991
0.150306385526
0.151026783382
0.151778406781
0.152560681545
0.153373276418
0.154216472575
0.155090651185
0.155995819829
0.156931618576
0.157897639009
0.15889308648
0.159915987296
0.160962741173
0.162028171673
0.163106741719
0.164193546588
0.165283527212
0.166369984999
0.167444538332
0.16849883355
0.16952673144
0.170526203791
0.171497865828
0.172435110897
0.173310200117
0.174070435601
0.174746465279
0.174952062662
0.175166412107
0.17537187052
0.175556624276
0.175677428749
0.1756775737
0.175546495941
0.17530390762
0.174988237319
0.174647870729
0.17435240841
0.174073934098
0.173620448743
0.173110115908
0.172781437
0.172770681317
0.17301089667
0.173305804318
0.172752926052
0.172909567799
0.173157720865
0.170639824039
0.1722248663
0.141431681209
0.141446137496
0.141479134331
0.141511910071
0.141562423658
0.141634388189
0.141718064021
0.141819569812
0.14195271391
0.142087876329
0.142249331665
0.142424653678
0.142609871106
0.142800620082
0.143011646494
0.143250328291
0.14349824944
0.143757053783
0.144033071878
0.144331469503
0.144656217853
0.145010709469
0.145409287373
0.145882988915
0.146426115431
0.146979712688
0.147547844737
0.148167929618
0.148821354882
0.149487477087
0.150176004749
0.150900707314
0.151661772566
0.152456294368
0.153282291554
0.154139434773
0.155028364206
0.155949399727
0.156902531948
0.157887472609
0.158903808357
0.159950005174
0.161022433917
0.162115637087
0.163224239313
0.164344549136
0.165472928337
0.166602534847
0.167723136106
0.168825057337
0.169903003365
0.170959336223
0.172001194208
0.17302361158
0.17400234764
0.174319819768
0.174557840709
0.174806558421
0.175018247292
0.175196476154
0.1753289294
0.175386500926
0.175335810123
0.175168335913
0.174899490467
0.174559409573
0.174184116266
0.173807012568
0.17341779889
0.172958590626
0.172447781658
0.172027930101
0.171832206159
0.171815844684
0.171848839743
0.171721341805
0.171848129227
0.171442492415
0.172391738577
0.173998763043
0.141136334942
0.141150271102
0.14118515142
0.14121924959
0.141271155234
0.141344560076
0.141431183266
0.141531491241
0.141669291333
0.141821786627
0.14199223793
0.142174544762
0.142367761843
0.142569772962
0.142787779441
0.143031112444
0.143284681033
0.143551086388
0.143833859849
0.14413762199
0.144466322096
0.144823817339
0.145221249638
0.145688628402
0.146236598971
0.14681944344
0.147400930876
0.148012402094
0.148664452804
0.149336205935
0.15003120757
0.15076442733
0.151535796021
0.152342694221
0.153182823586
0.154055162804
0.154959964363
0.155898103719
0.156869919761
0.157875415241
0.158914367044
0.159985695134
0.161086109181
0.162209761402
0.163351036181
0.164507879298
0.165679255764
0.166858574249
0.168033041039
0.169190805955
0.170325923703
0.171445818399
0.172567404008
0.173613115762
0.173843674455
0.174090682565
0.174368284046
0.174602384698
0.174782141049
0.17491139947
0.174979033139
0.17496452077
0.174848126087
0.17462382956
0.174301863159
0.173903343027
0.173453094237
0.17297185374
0.172462713873
0.171916478878
0.171334201107
0.170786745875
0.170372594711
0.170098260983
0.169923469625
0.169805489231
0.169936850113
0.170601167632
0.17258927378
0.174943219319
0.140814610927
0.140827064121
0.14085805238
0.140896762393
0.140954700627
0.141030052784
0.141121341534
0.141222324948
0.14136120949
0.141525090132
0.141704084868
0.141893185702
0.142093311276
0.142310206333
0.142539159689
0.142787878857
0.143048160258
0.143323941752
0.14361506895
0.143925620072
0.144259525716
0.144620796805
0.145019018827
0.145481732246
0.146028083801
0.146632263559
0.147238550875
0.147851490181
0.148497485623
0.149169990738
0.149873139675
0.15061610432
0.151398757446
0.15221843278
0.153073556246
0.1539625565
0.154884811304
0.155841296426
0.156833299024
0.157860935973
0.15892430822
0.160022965758
0.161153985472
0.162310987477
0.16348712111
0.16468256183
0.165902355217
0.167140312372
0.168377109195
0.169600628985
0.170799862527
0.171995214356
0.173106028722
0.173380553493
0.173634093173
0.173874963731
0.174114516243
0.17430526631
0.174431988646
0.174491117099
0.174473562354
0.174365966229
0.17415678195
0.173842760998
0.173431145681
0.172936836435
0.172377435425
0.17176789109
0.171115135628
0.170420220059
0.169693514593
0.168945946241
0.168227052551
0.167583395136
0.167017174799
0.166556112241
0.166437259215
0.167063526185
0.169174066626
0.171159272182
0.140470458537
0.140481652832
0.140507128425
0.140550951064
0.140614161712
0.14069131403
0.140786601121
0.140892448045
0.141030127726
0.141200922762
0.14138631197
0.141581044995
0.141785412432
0.1420130081
0.142258647822
0.142515933025
0.142784296087
0.143070969274
0.143373535675
0.143693377556
0.14403461332
0.144400737046
0.144801645132
0.14526204333
0.145802286652
0.146411438134
0.147044559028
0.147675818506
0.148324248992
0.148998212866
0.149705070926
0.150456366702
0.151250392964
0.152082425743
0.152953613883
0.153860708603
0.154801343808
0.155777772927
0.156791677356
0.157843574837
0.15893349908
0.160061403862
0.161225182146
0.16241905868
0.163636530201
0.164878120295
0.166148786503
0.167442181845
0.168748122269
0.170058601269
0.171331667723
0.172527086296
0.172840532068
0.173118462097
0.173371750874
0.173590622012
0.173772302456
0.173894867863
0.173942258206
0.173907246333
0.173782946362
0.173561064092
0.17323492406
0.172802999105
0.172270248856
0.1716465493
0.170943473594
0.170170796248
0.169333797628
0.168433566881
0.167475292489
0.166421174776
0.165278086433
0.164087957886
0.162837284299
0.161506764231
0.160151138188
0.158749586167
0.156938278877
0.153596190368
0.140105836972
0.140116907057
0.140140998447
0.140189318009
0.140253270233
0.140329847156
0.140424495115
0.140536736527
0.140672990693
0.140848389781
0.141039306765
0.14123953447
0.141449034364
0.141682048662
0.141942534852
0.14221236011
0.142491242975
0.142789005886
0.143104516793
0.143437054628
0.143789251694
0.144162232488
0.144567667564
0.145029059792
0.145564578843
0.14617256546
0.146822285191
0.147475663235
0.148131578407
0.148809851038
0.149526048098
0.150284773567
0.151088426115
0.151934068969
0.152821982716
0.153747885134
0.154708433796
0.155706314437
0.156743696888
0.157821719468
0.158940701744
0.160100900041
0.161301848646
0.162539951099
0.163806249296
0.165093699771
0.16640796724
0.167754711703
0.169143321916
0.170588502361
0.171888723195
0.17223330368
0.172526300466
0.172803979818
0.173033279627
0.173203986882
0.173311297303
0.173342796995
0.173286335904
0.173134821043
0.172883000629
0.17252568574
0.172058935258
0.171481834056
0.17079712748
0.170010189483
0.169126849734
0.168150926964
0.167082261239
0.165915824263
0.164646957744
0.163202345352
0.1615122435
0.159568523737
0.157293338451
0.154521186517
0.151024569923
0.146525361289
0.140983107025
0.139251554469
0.139717829497
0.139729409303
0.139754602783
0.139807537809
0.139871551534
0.139946589048
0.14003793455
0.140154426588
0.140287359832
0.140465625368
0.140662076435
0.140867935485
0.141083648854
0.141323180298
0.141594092091
0.141876875019
0.142168342001
0.142478144774
0.14280620966
0.143152983664
0.143519991196
0.143902993793
0.144314672433
0.144780052949
0.14531383835
0.145919068187
0.146576696946
0.147248246695
0.147922674663
0.14861067707
0.149336054184
0.150104499046
0.150916319497
0.151771435887
0.152673833116
0.153620782328
0.154604222322
0.155625666412
0.156688018377
0.157793810951
0.158944663449
0.160141610973
0.161387163897
0.162676807088
0.163991041033
0.165319689588
0.166676896855
0.168084896198
0.169597111599
0.171223461856
0.171595241944
0.171883626233
0.172174727648
0.172421751855
0.172597875249
0.172694949196
0.172707187762
0.172626319369
0.172444366473
0.17215594813
0.171757239639
0.171244865797
0.170616145509
0.169869780904
0.169005961563
0.168025472871
0.166927966615
0.165709774648
0.164361521564
0.162865392943
0.161190807787
0.159285153383
0.156973874925
0.154107540423
0.150517719544
0.145784377541
0.139072958832
0.128595286636
0.109218131714
0.0627576461973
0.139299015846
0.139311016961
0.139339366051
0.139397550112
0.139462383501
0.139536359747
0.139626392891
0.139744299276
0.139873033617
0.140051545078
0.140253076271
0.140464434799
0.140686360648
0.140932556073
0.141212036377
0.141507260801
0.14181372365
0.14213702409
0.14247748378
0.142838525077
0.143223227578
0.143620485772
0.144039856155
0.144511414926
0.145047579323
0.14565064029
0.146310362824
0.14699119578
0.14768837364
0.148399775629
0.149135572447
0.149910362317
0.150732864438
0.151601655845
0.152514215273
0.153477403419
0.154484802972
0.155532211708
0.156622645856
0.157758621852
0.158943724936
0.160183970085
0.161484450356
0.162829371241
0.164189574764
0.165561709346
0.166976148792
0.16846822247
0.169904553019
0.171040638106
0.171296401982
0.171529294681
0.171770831322
0.171954292268
0.172048771838
0.172046346396
0.171941514597
0.171728487403
0.171402306896
0.170959433072
0.170397198147
0.169713089907
0.16890455609
0.167969040345
0.166903687284
0.165704395658
0.164364194711
0.162871039666
0.161205019412
0.159334699592
0.157211251792
0.154766962609
0.151784298517
0.1479501056
0.142973266472
0.136249308894
0.126544886092
0.111452285439
0.0861030144354
0.0440486775857
0.138838830215
0.138851137383
0.13888253674
0.138946406459
0.139011842416
0.139088167716
0.139178747575
0.139296420162
0.139424210047
0.139603891937
0.139810440086
0.140027022507
0.140254799618
0.140507024251
0.140793347404
0.141098730765
0.14142248723
0.141761781014
0.142115635887
0.142491031117
0.142894542904
0.143311756463
0.143741531975
0.144219412832
0.144761980982
0.145366372447
0.146027872182
0.146713950437
0.147424985479
0.148164460585
0.148925518471
0.149711558549
0.150534805847
0.151412895276
0.152342319851
0.153321065147
0.154349341471
0.155422989024
0.156542993598
0.157712602836
0.158937810248
0.160231544829
0.161593420379
0.16299347566
0.164406858407
0.165844980977
0.167367921135
0.168940772167
0.17021588033
0.170650345995
0.170894728984
0.171104575496
0.171280297006
0.171374491226
0.171363920497
0.171240544697
0.170999773448
0.170638027318
0.17015262831
0.169541571202
0.168802974804
0.167934478287
0.166932826125
0.16579352327
0.164510246209
0.163073760042
0.161470218205
0.159678756674
0.157668165942
0.155392102729
0.152781684525
0.149733141148
0.146093389731
0.14145732853
0.135300639007
0.127041276975
0.115567290305
0.0989907522114
0.0739952790309
0.0395421034774
0.138328983604
0.138343465338
0.138376218944
0.138440139762
0.138509732464
0.13859411623
0.138689623761
0.138810462435
0.13894449801
0.139121209021
0.13933196452
0.139553585469
0.139787034405
0.140044854271
0.140336764141
0.140648468172
0.140986188773
0.141345389668
0.141715963426
0.142108042901
0.142530003754
0.142972018901
0.143421411032
0.143904505985
0.144454220195
0.145064145361
0.145729803719
0.146422471148
0.147141989319
0.147902305789
0.148692837817
0.14950312838
0.15033584242
0.151215258381
0.152152199697
0.153147296405
0.154196735956
0.155296612377
0.156446558382
0.157652405723
0.158927856041
0.160285277264
0.161710662345
0.163172993217
0.164664069158
0.166205814421
0.167809122204
0.169151742563
0.169764864034
0.170105225301
0.170384692225
0.170574894772
0.170670250797
0.170658407237
0.170525438837
0.170264538667
0.169873165436
0.169350149313
0.168694743025
0.167906111678
0.166982752538
0.16592190418
0.164719016383
0.163367190801
0.161856392226
0.160172229107
0.158294139918
0.156192807409
0.153826506238
0.151135838102
0.148035904574
0.144404266245
0.140064639588
0.13472492568
0.127788794449
0.118515792812
0.106063269544
0.0890699524224
0.0650919921842
0.0347586212156
0.137775436853
0.137793605513
0.137826490867
0.13788399995
0.137960780449
0.13805382009
0.138157148468
0.138285344765
0.138431819886
0.138604787017
0.13881657889
0.139042247239
0.139281266526
0.139544748367
0.139842466684
0.140160914356
0.14050707952
0.140884360066
0.141275132851
0.141688077402
0.142129384273
0.142596572763
0.143077690798
0.143578471284
0.144130675312
0.144746337094
0.145417710351
0.146119485119
0.14684739038
0.147621540161
0.148434953788
0.149276756316
0.150131944225
0.151016038538
0.151954059175
0.152955764232
0.154021638135