/*--------------------------------*- C++ -*----------------------------------*\
| =========                 |                                                 |
| \\      /  F ield         | OpenFOAM: The Open Source CFD Toolbox           |
|  \\    /   O peration     | Version:  v1806                                 |
|   \\  /    A nd           | Web:      www.OpenFOAM.com                      |
|    \\/     M anipulation  |                                                 |
\*---------------------------------------------------------------------------*/
FoamFile
{
    version     2.0;
    format      ascii;
    class       volScalarField;
    location    "209";
    object      pa;
}
// * * * * * * * * * * * * * * * * * * * * * * * * * * * * * * * * * * * * * //

dimensions      [0 2 -2 0 0 0 0];


internalField   nonuniform List<scalar> 
6400
(
-0.128285536077
-0.128286854174
-0.128290514691
-0.128297450997
-0.128307280965
-0.128319828865
-0.128335182703
-0.128354098049
-0.128376597696
-0.128402614922
-0.128435512588
-0.12847708931
-0.128525144126
-0.128579856879
-0.12864262392
-0.128714986762
-0.128797425188
-0.128889552267
-0.128990711958
-0.129098110176
-0.129207536289
-0.129318779842
-0.129435488561
-0.129562176928
-0.12970230038
-0.129855988225
-0.130020916751
-0.130195610003
-0.130380407542
-0.130576429355
-0.130784763043
-0.131004807721
-0.131232353445
-0.131463252878
-0.13169660032
-0.131929329869
-0.132160418948
-0.132397375827
-0.132639780948
-0.132877341983
-0.133111324333
-0.133356903551
-0.133622583253
-0.13390118028
-0.134185200081
-0.134470407802
-0.134753413426
-0.135032634957
-0.13530682188
-0.135575118035
-0.135837765387
-0.136090183742
-0.136326587756
-0.136537718677
-0.136724856608
-0.136899804433
-0.137059710523
-0.137192223682
-0.137293982999
-0.137373677835
-0.137436206749
-0.137483034583
-0.137515074225
-0.137538707471
-0.137564507628
-0.137594454298
-0.137623318583
-0.137643496423
-0.137652265822
-0.137651522731
-0.137643481705
-0.137629485693
-0.137610423814
-0.137588606194
-0.137564812035
-0.137540968646
-0.137518544152
-0.137502531349
-0.137491503568
-0.137486742834
-0.12828360687
-0.128284989753
-0.128288206974
-0.128295001212
-0.128305772312
-0.128319279561
-0.128334968066
-0.128352909356
-0.128374281889
-0.128400356693
-0.128433047219
-0.128473751733
-0.128521931223
-0.128577300887
-0.12864028478
-0.12871170597
-0.128793658548
-0.128886215286
-0.128988500651
-0.129096871793
-0.129205071775
-0.12931463359
-0.129430619149
-0.129556740418
-0.129696884622
-0.129851160131
-0.130016036585
-0.130190943627
-0.130376383776
-0.130572898899
-0.130780842074
-0.131000860751
-0.131229278356
-0.131459987408
-0.13169359647
-0.131926525434
-0.132156950669
-0.132394203092
-0.132637420979
-0.132874292875
-0.133103631718
-0.133347027859
-0.133617956869
-0.133900146845
-0.134185650119
-0.134472498791
-0.134756870544
-0.135037734771
-0.135312977369
-0.135579418154
-0.135837501393
-0.136090220816
-0.136336908695
-0.136550808336
-0.136739113937
-0.136919139793
-0.137075518756
-0.137202018408
-0.137303141687
-0.137382345839
-0.137442010777
-0.137489575694
-0.137523541275
-0.137548131169
-0.137574836429
-0.137605562047
-0.137634896039
-0.137654098173
-0.137661382511
-0.137659223179
-0.137649776999
-0.137634284254
-0.137613355373
-0.137589105805
-0.137563656358
-0.137538660326
-0.137516367873
-0.137499525479
-0.137488110047
-0.13748407778
-0.128278275352
-0.128280592194
-0.128283322327
-0.128289514046
-0.128299954133
-0.128315261963
-0.128332652406
-0.128350030957
-0.12837005137
-0.12839534116
-0.128427524282
-0.128467663123
-0.128515740927
-0.12857134966
-0.128634278449
-0.128703193329
-0.12878344716
-0.12888040111
-0.128985159468
-0.129092767095
-0.129198020289
-0.129302857411
-0.129417066164
-0.129544862129
-0.129685118061
-0.129838366122
-0.130003809681
-0.13017984846
-0.130366105192
-0.130563248226
-0.130771319501
-0.130991474835
-0.131221780026
-0.131451315712
-0.13168268834
-0.131918253346
-0.132147789057
-0.132382141601
-0.132625726779
-0.13286461634
-0.133100518938
-0.133347846682
-0.133614463902
-0.13389379079
-0.134178941917
-0.13446619468
-0.134752491494
-0.135035736545
-0.135313836399
-0.135584796733
-0.135847790579
-0.1361015026
-0.136340826344
-0.136558545268
-0.13675928456
-0.136940785193
-0.137093425519
-0.137218431708
-0.137319064423
-0.137398242671
-0.137459634744
-0.137507201693
-0.137540676786
-0.137568488405
-0.137599008924
-0.137631479673
-0.137659177613
-0.137675833077
-0.13768056322
-0.13767561114
-0.137663078286
-0.137643901689
-0.137619299487
-0.13759161272
-0.13756304336
-0.137535676325
-0.137511938201
-0.137493576489
-0.137481589488
-0.137476922454
-0.128271121135
-0.128273391117
-0.128275383223
-0.128281041019
-0.128290148453
-0.128305219888
-0.128328124901
-0.128345386682
-0.12836378696
-0.128387720928
-0.128419136737
-0.128458856061
-0.128506897533
-0.128561903762
-0.128624664795
-0.128697558178
-0.128781545836
-0.128876684495
-0.128976423525
-0.129075449829
-0.129176339005
-0.129283113382
-0.12939847965
-0.129525699162
-0.129666118505
-0.129819952782
-0.129986381765
-0.130163585055
-0.130351069237
-0.130548866124
-0.130758174652
-0.130978929434
-0.131209349128
-0.13144292018
-0.131670656466
-0.131900782333
-0.132134628837
-0.132367211287
-0.132603747734
-0.132843901905
-0.133087181609
-0.133339932486
-0.13360702348
-0.133885817233
-0.134171485198
-0.134460224692
-0.134748952184
-0.135035250283
-0.135316940964
-0.135592024911
-0.135858800976
-0.136114988498
-0.136356837116
-0.136580519686
-0.136785198643
-0.136966490745
-0.137119307574
-0.13724431816
-0.137344814074
-0.137424309062
-0.137486473344
-0.137534489316
-0.137571303073
-0.137605760276
-0.13763938429
-0.137671101245
-0.137697325742
-0.137711118025
-0.137711608722
-0.137701813135
-0.137684214626
-0.137659765303
-0.137629838114
-0.137596229183
-0.137561644046
-0.13753042255
-0.13750438336
-0.13748198142
-0.137465976965
-0.137459120395
-0.128260072246
-0.128260185912
-0.128262668424
-0.128268390959
-0.128278389187
-0.128292260483
-0.128312573862
-0.128332158022
-0.128351983913
-0.128376317099
-0.128407161945
-0.12844659138
-0.128494829424
-0.128553300146
-0.128621210036
-0.128694951171
-0.128775386828
-0.128862210459
-0.128953697887
-0.129049926428
-0.129151208506
-0.129257968697
-0.129373384585
-0.129500829671
-0.129641510237
-0.129796047213
-0.129963234481
-0.130141884268
-0.1303307441
-0.130530269143
-0.130740328561
-0.130963763633
-0.131198518497
-0.1314272684
-0.131653523014
-0.131880568463
-0.132107751575
-0.132339560117
-0.132577063056
-0.132819925953
-0.133068425205
-0.13332578032
-0.133594866127
-0.133874653769
-0.134161837298
-0.134452950329
-0.134744899228
-0.135035091961
-0.135321267054
-0.135601321374
-0.135873109158
-0.136134001302
-0.136380721379
-0.136609946167
-0.136818483856
-0.137001478657
-0.137155406111
-0.137281293189
-0.137382631389
-0.137463257481
-0.137526931468
-0.137577258823
-0.137619098658
-0.137659992982
-0.137694241918
-0.137726271894
-0.13775191677
-0.137762488394
-0.13775701316
-0.13773972128
-0.137714279028
-0.13768204309
-0.137643696697
-0.137600811056
-0.137558511933
-0.137521149718
-0.137487911259
-0.137456088496
-0.13743467105
-0.13742620251
-0.128239165931
-0.128238773964
-0.128243505383
-0.128249162202
-0.128259931752
-0.12827486226
-0.128293296576
-0.128313339419
-0.128335084298
-0.128360411185
-0.128390228141
-0.12842989493
-0.12848347577
-0.12854670957
-0.128614232706
-0.128684500069
-0.128758716439
-0.128839249543
-0.12892744492
-0.129022072378
-0.129121054097
-0.129226673793
-0.129342207677
-0.129470212763
-0.129611501966
-0.129766011325
-0.129934645754
-0.130114547437
-0.130305585233
-0.130506727142
-0.130719780677
-0.130944455308
-0.131176881803
-0.131410139784
-0.131630237681
-0.131848652666
-0.132073203231
-0.132305505348
-0.132544985905
-0.132791053741
-0.133044020402
-0.13330573655
-0.133577887988
-0.133860011961
-0.134149778953
-0.134444163428
-0.134740166119
-0.135035141331
-0.135326801325
-0.13561298147
-0.135891318233
-0.136158970741
-0.13641254902
-0.13664818601
-0.13686141829
-0.137047489808
-0.137203989277
-0.137332336731
-0.13743597678
-0.137518826037
-0.137584876087
-0.137638975688
-0.13768849694
-0.137731963627
-0.137767758306
-0.137801122539
-0.137826839997
-0.137833658017
-0.137820088399
-0.137791926946
-0.137755316192
-0.13771178996
-0.137660965634
-0.137605922432
-0.137552927971
-0.137504719078
-0.137458231187
-0.137414390737
-0.137386164156
-0.137373245528
-0.128207096041
-0.128209317367
-0.128217868693
-0.128226453215
-0.128235045141
-0.128249801863
-0.128269489588
-0.128289930565
-0.128313092913
-0.128339479361
-0.128371451
-0.128412283102
-0.128470074779
-0.128533082575
-0.128597841188
-0.128662863378
-0.128732524491
-0.128811366187
-0.128898483449
-0.12898894972
-0.129085031411
-0.129190138898
-0.129305548551
-0.129433302332
-0.129574911074
-0.129731922609
-0.129899703005
-0.13008162687
-0.13027497677
-0.130480964591
-0.130696242044
-0.130919720286
-0.131151887348
-0.131377487663
-0.13159402454
-0.131808661584
-0.132032284698
-0.132265725492
-0.132507525971
-0.132756800903
-0.133013860344
-0.133279889595
-0.133555845006
-0.133841396535
-0.134134779563
-0.13443336541
-0.134734326639
-0.135035094011
-0.135333446563
-0.135627223283
-0.135913918518
-0.136190401935
-0.136452784391
-0.136696379636
-0.136916005957
-0.137107220976
-0.137268391706
-0.1374010997
-0.137508490256
-0.13759416591
-0.137662948306
-0.137722016131
-0.137776483296
-0.137821860428
-0.1378685406
-0.137904597595
-0.137927897606
-0.13792754144
-0.137902805106
-0.137860780905
-0.137809358982
-0.137750316566
-0.137682839376
-0.137612184338
-0.137543664749
-0.137477634395
-0.137412046616
-0.137354249694
-0.137317055279
-0.137298369183
-0.128169697426
-0.128174329062
-0.128184481569
-0.128197559781
-0.128206906373
-0.128221751435
-0.128240683608
-0.128261865697
-0.128286943544
-0.128311668867
-0.128347446141
-0.12839482964
-0.128451153591
-0.128512186975
-0.128572321218
-0.128632257828
-0.128700904543
-0.128780200383
-0.128863433204
-0.128949856719
-0.12904348563
-0.129147780935
-0.129263075528
-0.129391683296
-0.129534435884
-0.129691761527
-0.129862346528
-0.130041116807
-0.130240207068
-0.130453317061
-0.130667897521
-0.130885441884
-0.131114847632
-0.131334461686
-0.131545328551
-0.131760893039
-0.131985506965
-0.132220228878
-0.13246424311
-0.132716675002
-0.132977688756
-0.133248102536
-0.133528445253
-0.133818330582
-0.134116284169
-0.134420001878
-0.134726898464
-0.135034603854
-0.135341058455
-0.135644157659
-0.13594126636
-0.136228872999
-0.13650238674
-0.136756267057
-0.136984856711
-0.137184006348
-0.137352446574
-0.137491374442
-0.137602909708
-0.137690152539
-0.137759723196
-0.137821081398
-0.137879209804
-0.137935081564
-0.137991588828
-0.138039417628
-0.138060369944
-0.138049444757
-0.138009960407
-0.137950322158
-0.137879697066
-0.137799785637
-0.137711240571
-0.137619884622
-0.137528884148
-0.137437444765
-0.137348877175
-0.13727376577
-0.137225143538
-0.137200907497
-0.12812911296
-0.12813533654
-0.128145683014
-0.128155989465
-0.128168661332
-0.12818797897
-0.128206197461
-0.128227671281
-0.128255987378
-0.128283068795
-0.128316241718
-0.128368094979
-0.12842540773
-0.128482809386
-0.128538912048
-0.128598107501
-0.128665326215
-0.128742178914
-0.128821770313
-0.12890559652
-0.128997122459
-0.129099459391
-0.129213214432
-0.129341423945
-0.129489646658
-0.129645814829
-0.129818795492
-0.130003468625
-0.130201003277
-0.13041246933
-0.130630031674
-0.130852521496
-0.131065931067
-0.131277558333
-0.131488945318
-0.13170625907
-0.13193240547
-0.132168557811
-0.13241465745
-0.132670169451
-0.132935142562
-0.133210094783
-0.13349529184
-0.133790266934
-0.134093666549
-0.134403435108
-0.134717303627
-0.13503322049
-0.135349368909
-0.135663747453
-0.135973615279
-0.136275032205
-0.136562638146
-0.136830030807
-0.137071103012
-0.137281671069
-0.137460110254
-0.137606162832
-0.137719983182
-0.137805005506
-0.137872710612
-0.137937546917
-0.138004639328
-0.13807206079
-0.138136447216
-0.138200039215
-0.138233779174
-0.138207923903
-0.138149111317
-0.138067039047
-0.137970494204
-0.137863055826
-0.137748280833
-0.137629648592
-0.137507797101
-0.137383913843
-0.137267399851
-0.137170142622
-0.137104689425
-0.137072494799
-0.128084882991
-0.128092378606
-0.128104328504
-0.128114235054
-0.128127579944
-0.12814715191
-0.128165554607
-0.128186692597
-0.128213409344
-0.128248706237
-0.128283765033
-0.128334760584
-0.128391836186
-0.128445929789
-0.12849789597
-0.128557848266
-0.128626469745
-0.128698909508
-0.128774118348
-0.128855597882
-0.128946066156
-0.129047002219
-0.129159293085
-0.129284402183
-0.129435833778
-0.129597607789
-0.129763258364
-0.129953872563
-0.130152724724
-0.130367125483
-0.130584100264
-0.130801664649
-0.131010879372
-0.131214838399
-0.131425648149
-0.131644691098
-0.131872550709
-0.132110271432
-0.132358347199
-0.132616778441
-0.132885706601
-0.133165401243
-0.133455871808
-0.133756563065
-0.134066198234
-0.134382932852
-0.13470485221
-0.135030335872
-0.135357909959
-0.135685740414
-0.136011033985
-0.13632947627
-0.136634943179
-0.136920162376
-0.137178318428
-0.137404470324
-0.137595231062
-0.137746750017
-0.137856480216
-0.137933840218
-0.138001196991
-0.138076302227
-0.138158379353
-0.138239312963
-0.138313729159
-0.138379690145
-0.138422141311
-0.138414651534
-0.138330556895
-0.138216698052
-0.138085414107
-0.137943391413
-0.137796186409
-0.137642574709
-0.137481081043
-0.137316607536
-0.137163123005
-0.137032893274
-0.136938358197
-0.136888917447
-0.128035230698
-0.128042567855
-0.128055151976
-0.128067718518
-0.128085153165
-0.128100901573
-0.128118811502
-0.128140512332
-0.128162223343
-0.12820064473
-0.128242178321
-0.128292752442
-0.128349174419
-0.128402126756
-0.128452614457
-0.128511149045
-0.128579621376
-0.128648862444
-0.128720490707
-0.128798871964
-0.12888804319
-0.1289888291
-0.129103162222
-0.129226026518
-0.129370026707
-0.129541650165
-0.129711482731
-0.129898683798
-0.130096771734
-0.130300592671
-0.13052321615
-0.130738969955
-0.130943162662
-0.13114455796
-0.131355549373
-0.131575976208
-0.131805505757
-0.132044925693
-0.132294941993
-0.132556056355
-0.132828814891
-0.133113404625
-0.133409521115
-0.133716465318
-0.134033028566
-0.134357602999
-0.134688682544
-0.135025144104
-0.135365946858
-0.135709541856
-0.136053233878
-0.136392484131
-0.136720572182
-0.137029300825
-0.137310610753
-0.137557166498
-0.13776055548
-0.137909122023
-0.13800442364
-0.138073934343
-0.138150472223
-0.138246856561
-0.138350962971
-0.13844854295
-0.138530572322
-0.138591595651
-0.138627382057
-0.138635997922
-0.138561689454
-0.13841155706
-0.13823135817
-0.138044371781
-0.137858332802
-0.137661705249
-0.137450768924
-0.137232820296
-0.137026398166
-0.136842368437
-0.136698078226
-0.136616816733
-0.12797891591
-0.127984641676
-0.127993567152
-0.12801004869
-0.128032960722
-0.128047565411
-0.128065208398
-0.128088915413
-0.128109085758
-0.128144335148
-0.128190524154
-0.128241739159
-0.128296809931
-0.128349419337
-0.128402648662
-0.128460634912
-0.128526434773
-0.128592288179
-0.128661057182
-0.12873625892
-0.12882184939
-0.128919628591
-0.129039000778
-0.12916903798
-0.129305630761
-0.12947432417
-0.129649357267
-0.12982925978
-0.1300354013
-0.130241352858
-0.13045264432
-0.1306591866
-0.130860356465
-0.131065281365
-0.131277752103
-0.13149947227
-0.131730645667
-0.131971918977
-0.132224023497
-0.132487628242
-0.132763874781
-0.133053342571
-0.133355436297
-0.133669093095
-0.133993164115
-0.134326380791
-0.134667707714
-0.135016546872
-0.135372359097
-0.135734051538
-0.13609927183
-0.136463627416
-0.136820241301
-0.137160119577
-0.137472691939
-0.13774405293
-0.137953134981
-0.138083164046
-0.138158340626
-0.138230318147
-0.138334462535
-0.138466091876
-0.138600237171
-0.138719272699
-0.138808311516
-0.138865221059
-0.138886705724
-0.138877741302
-0.138817994054
-0.138651592063
-0.138418434912
-0.138168966899
-0.13794126711
-0.137694889587
-0.137421221305
-0.13712782269
-0.136846149011
-0.136578804856
-0.136356831824
-0.136224742013
-0.12791583017
-0.12791990395
-0.127923617855
-0.127942288045
-0.127964622361
-0.127982561549
-0.128001693405
-0.128027543475
-0.128050651448
-0.128083975703
-0.12813129059
-0.128182243467
-0.128235333088
-0.128285253962
-0.12834174285
-0.128403270966
-0.128466292984
-0.128528995116
-0.128595374998
-0.128668209211
-0.128749824709
-0.128841782538
-0.128957977811
-0.129101553913
-0.129240400153
-0.129396114233
-0.129578620596
-0.129759548435
-0.129954071813
-0.130161763654
-0.130370278757
-0.130572344701
-0.130770073867
-0.130976666877
-0.13119114905
-0.1314144969
-0.13164728403
-0.131890269246
-0.132144685018
-0.132411084716
-0.132690586634
-0.132984528502
-0.133292614823
-0.133613363352
-0.133945447335
-0.134287999351
-0.134640567087
-0.135003075776
-0.135375503195
-0.135757393939
-0.136147113637
-0.136541130362
-0.136933534893
-0.137314757362
-0.137669101913
-0.137965543581
-0.138162964851
-0.138256205487
-0.138313978107
-0.138415065102
-0.138577528663
-0.13875877782
-0.138932031355
-0.13908516358
-0.139178537551
-0.139223944686
-0.139220939564
-0.139176157453
-0.139101773096
-0.13892200961
-0.138639340365
-0.138309811859
-0.138055688654
-0.137759316712
-0.137406903339
-0.136998723732
-0.136618279711
-0.136228181968
-0.135878259568
-0.135654488767
-0.127846613034
-0.127851268106
-0.127857906115
-0.127869855498
-0.127888508338
-0.127908375806
-0.127929411758
-0.127955736759
-0.12798435081
-0.128017079669
-0.128064559264
-0.12811485329
-0.128166352417
-0.128214087574
-0.128268716874
-0.128333611058
-0.128396639589
-0.128458031146
-0.128522644235
-0.128593592303
-0.128672397343
-0.128759322637
-0.12886927838
-0.129017371234
-0.129165585236
-0.12931508891
-0.129497242095
-0.129682201091
-0.129867837583
-0.130070357633
-0.130269757934
-0.130467251582
-0.130669151271
-0.130878343592
-0.131094916054
-0.131320042553
-0.131554883029
-0.131799723195
-0.132055944915
-0.132325176488
-0.132608295519
-0.13290653969
-0.133220247755
-0.13354805714
-0.133888474223
-0.13424094624
-0.134605614843
-0.134982840599
-0.135373031908
-0.135776579924
-0.136193041293
-0.13662100456
-0.137057545293
-0.137493813342
-0.137903600157
-0.138212899422
-0.138364760354
-0.138399499576
-0.138474196253
-0.138660903897
-0.138923645658
-0.139157960079
-0.139361285424
-0.139585207524
-0.139632396371
-0.13965551879
-0.139637113373
-0.139553252442
-0.139407906569
-0.139150261481
-0.138941272494
-0.138398220409
-0.13819818262
-0.137860492721
-0.137414379803
-0.136828426768
-0.136355758446
-0.135787119629
-0.13519907391
-0.134776741543
-0.127769471652
-0.127774628243
-0.127786377117
-0.127792219739
-0.127806688164
-0.127826755179
-0.127849150666
-0.127876948831
-0.127912307005
-0.127943682841
-0.127990322938
-0.128039930846
-0.128090409543
-0.128137761154
-0.128190943915
-0.128255866453
-0.128318653561
-0.128379495108
-0.128442854907
-0.128511877155
-0.128588412191
-0.128672508556
-0.128774415121
-0.128916724302
-0.129079014192
-0.129230245833
-0.12939994741
-0.129595432454
-0.129785226409
-0.129969247031
-0.130159666489
-0.130355003224
-0.13055833632
-0.130769564029
-0.130988336334
-0.131215526148
-0.131452125625
-0.131699232641
-0.131957657639
-0.132229181946
-0.132515787537
-0.132818509307
-0.133137624594
-0.133472082492
-0.133820694855
-0.134183442653
-0.134560871308
-0.134953508665
-0.135361904637
-0.13578721242
-0.136230920294
-0.136695711926
-0.137184917047
-0.137693855585
-0.138175399505
-0.138462813937
-0.138483142684
-0.138520766116
-0.138682750782
-0.139044072394
-0.13951748287
-0.139692096798
-0.139798006499
-0.1396464321
-0.1395795994
-0.139503770682
-0.139373004382
-0.139172730356
-0.138933796881
-0.138697375849
-0.138264503596
-0.138349027308
-0.138820042912
-0.138480443081
-0.137876197144
-0.136613050206
-0.136107231525
-0.13526153611
-0.134212856211
-0.13334415042
-0.127682817258
-0.127687330994
-0.127697275453
-0.127703931372
-0.127716445716
-0.127736933829
-0.127759553812
-0.127786189734
-0.127827508948
-0.127862232985
-0.127907830858
-0.127957145702
-0.128007394627
-0.128055793265
-0.12810848323
-0.1281718803
-0.128233668188
-0.128294082914
-0.128356374677
-0.128423524706
-0.128497487654
-0.128579375279
-0.128675719194
-0.128809364122
-0.128977156135
-0.129137448139
-0.129295854073
-0.129481419072
-0.129676842121
-0.129860474606
-0.130043348746
-0.130234966156
-0.130438150475
-0.130650830154
-0.130871497458
-0.131100292869
-0.131338742521
-0.131587708285
-0.131848596595
-0.132122654619
-0.132412324161
-0.132719374673
-0.133043931032
-0.133384561981
-0.133740435155
-0.134113079808
-0.134504032642
-0.134912930284
-0.135338479408
-0.135782638874
-0.136251423094
-0.136752634789
-0.137299158844
-0.137903198768
-0.138470979437
-0.138558583792
-0.138573062322
-0.138743784513
-0.138984157777
-0.139524383195
-0.13930733406
-0.139029798884
-0.138857344239
-0.138700060434
-0.138270699965
-0.137687578245
-0.137046913552
-0.136435753961
-0.135938157105
-0.135564277729
-0.135278889209
-0.134902716629
-0.134927576519
-0.134861441928
-0.134673292292
-0.135275354702
-0.136402113151
-0.135256435188
-0.132849288019
-0.130724203979
-0.127588183094
-0.127592012494
-0.127601679974
-0.12760781166
-0.127619850731
-0.127639946238
-0.127662335443
-0.127686014005
-0.12772644391
-0.127768129872
-0.127815404031
-0.127865257501
-0.127916136162
-0.127967657206
-0.128019787122
-0.128081378712
-0.128141934465
-0.128202106295
-0.128263376503
-0.128328734207
-0.128400047146
-0.128478904995
-0.128570630793
-0.128694840539
-0.128857691193
-0.129032546111
-0.129190782157
-0.129362460952
-0.129548278619
-0.129729460401
-0.129909595046
-0.130102234655
-0.130306274983
-0.130520265337
-0.130743038147
-0.130974017763
-0.131213996059
-0.131464897677
-0.131727933043
-0.132004702771
-0.132297404791
-0.132608113251
-0.132937735459
-0.133284454162
-0.133646754925
-0.134028698148
-0.13443368851
-0.134858502678
-0.135297420045
-0.135754928012
-0.136242683055
-0.136773146561
-0.137365210911
-0.138045131688
-0.138636426287
-0.138696393869
-0.138817271278
-0.138754255926
-0.138510798612
-0.138353415172
-0.138058673574
-0.137320771011
-0.136348501924
-0.135258190625
-0.133984759101
-0.132569749758
-0.131135734666
-0.129793502659
-0.128603032563
-0.127616360848
-0.12688495529
-0.126502622239
-0.126775652287
-0.127484647238
-0.128453139124
-0.129683024804
-0.13073284262
-0.130784015151
-0.130823096837
-0.127755281031
-0.127486933097
-0.127489779192
-0.127496527161
-0.127503258714
-0.127517429207
-0.127536866606
-0.127559710128
-0.127581665751
-0.127619977939
-0.127664893939
-0.127713288618
-0.127763241573
-0.127813760394
-0.127869531443
-0.127922896293
-0.127982656914
-0.128042171863
-0.128102894535
-0.128163393384
-0.128227111262
-0.128295832704
-0.128371166885
-0.128458266984
-0.128573948923
-0.128729060294
-0.128909613302
-0.129078123466
-0.12924188794
-0.129414327601
-0.129586993782
-0.129764175333
-0.129956391405
-0.13016043987
-0.13037539869
-0.130600408788
-0.130834101576
-0.131076796319
-0.131329663807
-0.131595203632
-0.131874498624
-0.132169927183
-0.132484593351
-0.132819302008
-0.133171886787
-0.133537008082
-0.133921324067
-0.134338910091
-0.134785020612
-0.135235609436
-0.135695356417
-0.136189210361
-0.136727346881
-0.137337396242
-0.138112111666
-0.13907370853
-0.138787771523
-0.13845314755
-0.13801142655
-0.137326367556
-0.136472983204
-0.1354066926
-0.133922153498
-0.132101923329
-0.130094871975
-0.127998563152
-0.125864206443
-0.123751492096
-0.121690302514
-0.119685109888
-0.117801044636
-0.116162737191
-0.114963145499
-0.114477277253
-0.114772204196
-0.11589081828
-0.118114473153
-0.121246922816
-0.123543021251
-0.12329137641
-0.121857697621
-0.127380632092
-0.127382655293
-0.127386088551
-0.127393803754
-0.127409701957
-0.12742811226
-0.127450864113
-0.127473689057
-0.127508336387
-0.127553871784
-0.127602178486
-0.127651416765
-0.127700099095
-0.127756167055
-0.1278142172
-0.127873617348
-0.127932272203
-0.127993619093
-0.128054758536
-0.128117581109
-0.128184225386
-0.128255524151
-0.128337915492
-0.128445408566
-0.12858936892
-0.128762722446
-0.128941156311
-0.129105872998
-0.12927033848
-0.129436638696
-0.129607645575
-0.129797181239
-0.130001440868
-0.130214932175
-0.130442212866
-0.130679002961
-0.130923940866
-0.131179758555
-0.131448598097
-0.131731861007
-0.132030521631
-0.132347925525
-0.132686191419
-0.133044989198
-0.133420735095
-0.133815465749
-0.134238347131
-0.134679158623
-0.135125840988
-0.135582282722
-0.136069292014
-0.13656776244
-0.137058555657
-0.137961470541
-0.138813754569
-0.138360401223
-0.137374284241
-0.13630315898
-0.134975837053
-0.133321628243
-0.131311628556
-0.128953812941
-0.126355892254
-0.123642251695
-0.120924351286
-0.118259803174
-0.115673169146
-0.113142071315
-0.110619923329
-0.108127454451
-0.105822013661
-0.103826855288
-0.102302933811
-0.10142651661
-0.101463559553
-0.102918178733
-0.105572247472
-0.107473853587
-0.110403670487
-0.12900337438
-0.127269765758
-0.127271422945
-0.127273597102
-0.127282939368
-0.127298118943
-0.127314364387
-0.127334522881
-0.127359350855
-0.127390132061
-0.127434779532
-0.127482420334
-0.127530738238
-0.127578064397
-0.12763155063
-0.127693077072
-0.127753730561
-0.127812243643
-0.127873180464
-0.127935129429
-0.127998257499
-0.128064142292
-0.12813152433
-0.128208845286
-0.128308721017
-0.128441290289
-0.128603752881
-0.128780179726
-0.128948268095
-0.12910490299
-0.129265071118
-0.129435564911
-0.129618907757
-0.129820931476
-0.130035597912
-0.130265937121
-0.130506174047
-0.130753855608
-0.131012984689
-0.131285641616
-0.131573486431
-0.131877255684
-0.132199174794
-0.13254498511
-0.132917704761
-0.133311884532
-0.133715271233
-0.134132264565
-0.13456300415
-0.135001620885
-0.135443063046
-0.135934972559
-0.136307772123
-0.136123196856
-0.137676985333
-0.136886037725
-0.135946485378
-0.134862461352
-0.133237559615
-0.131165344982
-0.128694522858
-0.125874641507
-0.122806864921
-0.119618765674
-0.116407511251
-0.113238754137
-0.110129482182
-0.107058949062
-0.103966407566
-0.100776572401
-0.0974712930628
-0.0941626793537
-0.0910338892758
-0.088106754206
-0.0854215401689
-0.0832153633836
-0.0819661967203
-0.0814931762338
-0.078822909771
-0.0690079568154
-0.055416749302
-0.127153022767
-0.127154518011
-0.127156676259
-0.127168314705
-0.127182228422
-0.127195985532
-0.127212412642
-0.127238101026
-0.127264114075
-0.12730697127
-0.127353893417
-0.127401282688
-0.127447793266
-0.127499850472
-0.127561701335
-0.127623427539
-0.127682462025
-0.127742964941
-0.127804264148
-0.127867582543
-0.127933748539
-0.127998075442
-0.128069586684
-0.128162210241
-0.128284021027
-0.128434399273
-0.128604671345
-0.128772431458
-0.128932473209
-0.129083625814
-0.129250100965
-0.129430503499
-0.129626367107
-0.129833872874
-0.130063109758
-0.130310737021
-0.130563948878
-0.130828232896
-0.131104816975
-0.131397172289
-0.13170779728
-0.132038551854
-0.132398612281
-0.132792790527
-0.133201409525
-0.133610822385
-0.134029805203
-0.134468081289
-0.134918833211
-0.13532780036
-0.135987623958
-0.136764189659
-0.135622500148
-0.13447227654
-0.133700581431
-0.132702451016
-0.131118566878
-0.128839313121
-0.126065684754
-0.122901810194
-0.119460227496
-0.115856805442
-0.112190108272
-0.10851139354
-0.104830784125
-0.101120347901
-0.0973298610488
-0.093393589737
-0.089249332301
-0.0848768919276
-0.0803374448333
-0.0757415247839
-0.0710291536682
-0.0659767428302
-0.0605818202115
-0.0551472649447
-0.0489215919565
-0.036013349248
-0.00461880330802
0.0369416773041
-0.127027391273
-0.127028644768
-0.127031830306
-0.127046213019
-0.127059054356
-0.127070713495
-0.127084855542
-0.12710910634
-0.127130162188
-0.127170227222
-0.127216227613
-0.127262556751
-0.127308172502
-0.127358726939
-0.127419524361
-0.127481718129
-0.127542264115
-0.127602279197
-0.127661935104
-0.127724512613
-0.127790961489
-0.127853499595
-0.127918317212
-0.128003664734
-0.128115673597
-0.128253134736
-0.12841303635
-0.128572147009
-0.128735495253
-0.128888967731
-0.12904757608
-0.129218774392
-0.129412280721
-0.12962196107
-0.129842328019
-0.130088512861
-0.13034865861
-0.130619449214
-0.130903844709
-0.131202302407
-0.131519463831
-0.131864845536
-0.132249330148
-0.132665460748
-0.133083621677
-0.133502691199
-0.133947515099
-0.134432097513
-0.134910104042
-0.134982867561
-0.136276203656
-0.13510602041
-0.133572122066
-0.13196022789
-0.130641629095
-0.128968570261
-0.12658149958
-0.123563246699
-0.120113447924
-0.116350022887
-0.112392522219
-0.108332207353
-0.104227084784
-0.100093909247
-0.0959200345874
-0.0916710660087
-0.0873004688762
-0.0827513254968
-0.0779609152021
-0.0728687819395
-0.067418989133
-0.0615410168276
-0.0550943881681
-0.0477100763035
-0.039196732897
-0.0296215323789
-0.0171476332551
0.00669250115281
0.0550205378104
0.112114252396
-0.126888690099
-0.126889734983
-0.126893883393
-0.126910737133
-0.126922194644
-0.126933681963
-0.126946486737
-0.126967544167
-0.126985469172
-0.127023772513
-0.127068864691
-0.127113924184
-0.127158408948
-0.127207001254
-0.127265516874
-0.127326605304
-0.127389416688
-0.127449117319
-0.127506981883
-0.127567961013
-0.127633171212
-0.127695804529
-0.127754246518
-0.127831231895
-0.12793438404
-0.128059507042
-0.128206951164
-0.128354414229
-0.12850843335
-0.128667901958
-0.128829184831
-0.128993333812
-0.129170770103
-0.129376253762
-0.129601736908
-0.129844720009
-0.130107510352
-0.130383616683
-0.130675209653
-0.130983221514
-0.131313206521
-0.131679824634
-0.132091683588
-0.132524166874
-0.132958687636
-0.133411364475
-0.133922169033
-0.134535207619
-0.135298390982
-0.13499059124
-0.134047629111
-0.132689384833
-0.131193227956
-0.129390458808
-0.127337479391
-0.124722395421
-0.121468438242
-0.117720424295
-0.113652868114
-0.10938209969
-0.105008624605
-0.100594320929
-0.0961694170511
-0.0917335923975
-0.0872655210698
-0.0827244244587
-0.0780496717853
-0.0731582606479
-0.0679477225605
-0.0622978014664
-0.0560516069729
-0.0489776523641