/*--------------------------------*- C++ -*----------------------------------*\
| =========                 |                                                 |
| \\      /  F ield         | OpenFOAM: The Open Source CFD Toolbox           |
|  \\    /   O peration     | Version:  v1806                                 |
|   \\  /    A nd           | Web:      www.OpenFOAM.com                      |
|    \\/     M anipulation  |                                                 |
\*---------------------------------------------------------------------------*/
FoamFile
{
    version     2.0;
    format      ascii;
    class       volScalarField;
    location    "895";
    object      pa;
}
// * * * * * * * * * * * * * * * * * * * * * * * * * * * * * * * * * * * * * //

dimensions      [0 2 -2 0 0 0 0];


internalField   nonuniform List<scalar> 
6400
(
-0.121602790511
-0.121603358594
-0.121604977492
-0.121608192433
-0.121613078147
-0.12161971134
-0.121628179599
-0.121638848858
-0.121652183301
-0.121668795402
-0.121690202163
-0.121717457305
-0.121750482494
-0.121789735183
-0.121836236938
-0.121891319755
-0.121956240843
-0.122031791085
-0.122118174266
-0.122214667669
-0.122320528982
-0.122437120802
-0.122567724539
-0.122715917475
-0.122884459056
-0.123074471812
-0.123285896213
-0.123518900493
-0.123774474464
-0.124054069924
-0.12435908358
-0.124689835358
-0.125044697196
-0.125421783105
-0.125820571839
-0.126240564162
-0.126682757471
-0.127150627418
-0.127643791137
-0.128157781563
-0.128693232839
-0.129257216033
-0.129853467839
-0.130477163363
-0.131120903898
-0.131778867055
-0.132446280846
-0.133119020929
-0.13379305329
-0.134464570057
-0.13513001399
-0.13578389602
-0.13641735363
-0.137019733321
-0.13758691102
-0.138119358848
-0.138610763541
-0.139049989522
-0.139431434653
-0.139757991597
-0.140032584315
-0.140255218132
-0.140426613786
-0.140565945191
-0.140709730582
-0.140895866402
-0.141128219071
-0.141361173257
-0.141557188496
-0.141713045679
-0.141838856113
-0.14194631183
-0.142042948934
-0.142126343022
-0.142198717517
-0.142260090864
-0.142309713428
-0.142341571047
-0.142361603221
-0.142370015804
-0.12160200033
-0.121602602718
-0.121604060793
-0.121607164328
-0.121612257085
-0.121619077634
-0.121627510165
-0.121637711315
-0.121650515073
-0.121666902636
-0.121688013
-0.121714791229
-0.121747537977
-0.121786589564
-0.121832655379
-0.12188691069
-0.121951160326
-0.12202634964
-0.122112468979
-0.122208506935
-0.122313264943
-0.122428747944
-0.122558674474
-0.122706294927
-0.122874309991
-0.123063856462
-0.123274667455
-0.123507134069
-0.12376228296
-0.124041383423
-0.124345676423
-0.12467588673
-0.125030458719
-0.125406934111
-0.125805230404
-0.126224940092
-0.126666786783
-0.127134708531
-0.127628394761
-0.128142929577
-0.128678261037
-0.129242583385
-0.129840520725
-0.130465644859
-0.131110285841
-0.13176933099
-0.132437985683
-0.133112238068
-0.133787794623
-0.134460043577
-0.135125311354
-0.135780205006
-0.136417072891
-0.137021620338
-0.137590589001
-0.138125410318
-0.138616192141
-0.13905373146
-0.139435463976
-0.139761990783
-0.140034933658
-0.140257730589
-0.140431571024
-0.140574864443
-0.140722112735
-0.140909721618
-0.14114506249
-0.141377950204
-0.141572719214
-0.141728139314
-0.141853736227
-0.141961499127
-0.142059078396
-0.142143668358
-0.142214726404
-0.142273447115
-0.142318863817
-0.142349246807
-0.142368471868
-0.142374809629
-0.121599730461
-0.121600690319
-0.121601966146
-0.121604742231
-0.121609547728
-0.121616929439
-0.121625708109
-0.121635271119
-0.121647168528
-0.121662832895
-0.121683290142
-0.121709353636
-0.121741423698
-0.121779784686
-0.121824901083
-0.121877280721
-0.121939623723
-0.122014535467
-0.122100147977
-0.122194770594
-0.122297514832
-0.12241051761
-0.122538945757
-0.122685924922
-0.122852789516
-0.123040765467
-0.123250374823
-0.123481828877
-0.123735892677
-0.124013804919
-0.124316780836
-0.124645823669
-0.124999766742
-0.125374724131
-0.125771228725
-0.126190752589
-0.126632109023
-0.127099202045
-0.127593253401
-0.128109452
-0.128647997101
-0.129214811888
-0.129813029365
-0.130438428917
-0.131084320081
-0.131745179674
-0.132416259699
-0.133093227714
-0.133771737588
-0.134447437621
-0.135116271972
-0.135773254331
-0.13641024192
-0.13701827923
-0.137593495441
-0.138130864748
-0.138621277182
-0.139058570445
-0.139440453862
-0.139767107364
-0.14004058618
-0.140263166063
-0.140440275816
-0.140592412462
-0.140752564402
-0.140949406814
-0.141178556926
-0.141405074689
-0.141601265515
-0.141759557408
-0.141887907437
-0.14199706963
-0.142091557632
-0.142171454615
-0.142239693615
-0.142295277892
-0.142336280259
-0.142363862865
-0.142380893626
-0.14238689801
-0.12159647097
-0.12159741287
-0.121598437303
-0.121600887653
-0.121604929682
-0.121611922117
-0.121622284546
-0.121631566111
-0.121642235161
-0.121656759624
-0.121676203647
-0.121701309827
-0.121732423835
-0.121769491254
-0.12181290992
-0.121864274547
-0.12192551554
-0.121997960708
-0.122080017344
-0.122170369348
-0.122270538411
-0.122382854352
-0.122510107893
-0.122655236361
-0.122820233649
-0.123006317384
-0.123214101188
-0.123443853417
-0.1236962287
-0.123972322971
-0.124273564801
-0.124600870303
-0.124953147643
-0.125327220607
-0.125720988186
-0.126137909686
-0.126579880185
-0.127046756403
-0.127539890216
-0.128058072692
-0.12860087498
-0.129171337418
-0.129771409616
-0.130398214957
-0.131046206222
-0.131709930465
-0.13238449387
-0.133065376774
-0.133748154265
-0.134428411925
-0.135101618061
-0.135762246596
-0.136402981365
-0.137016338446
-0.13759650847
-0.138136546058
-0.138628275734
-0.139066285088
-0.13944856291
-0.139775469863
-0.140049322581
-0.140274657311
-0.140462469636
-0.140631959262
-0.140803851446
-0.140999239774
-0.141226446312
-0.1414534491
-0.141651996246
-0.141812941612
-0.141940696731
-0.14204438143
-0.142132283555
-0.142211362272
-0.14227968297
-0.142330628764
-0.14236500706
-0.142390434183
-0.142407790802
-0.142414830933
-0.121591378389
-0.121591510751
-0.121592683975
-0.121595013207
-0.121599170977
-0.121604972583
-0.121613932971
-0.121623740271
-0.121634476091
-0.12164829875
-0.121666540686
-0.121690471586
-0.121720292553
-0.121756376033
-0.121798990048
-0.121848178395
-0.121905812962
-0.121973267025
-0.122050688765
-0.122138066789
-0.122236129184
-0.122346416664
-0.122471575754
-0.122614394861
-0.122776836941
-0.122960301645
-0.12316547057
-0.123392806664
-0.123642901185
-0.123916668545
-0.124215372882
-0.12454067156
-0.124891622463
-0.125262196896
-0.125653184906
-0.126067811779
-0.126507855485
-0.126975022563
-0.127469459727
-0.127990235691
-0.128537117294
-0.129111644929
-0.129714740962
-0.130344186283
-0.130995347543
-0.13166301725
-0.132342207174
-0.133028231551
-0.133716560684
-0.134402646515
-0.135081632752
-0.135747785912
-0.136394256167
-0.137013881516
-0.137599574872
-0.138143343203
-0.138637467474
-0.139077091212
-0.139460556148
-0.139788832328
-0.140065714341
-0.140299074817
-0.140502961266
-0.140690816177
-0.140872857292
-0.141071020884
-0.14129602563
-0.141522322503
-0.141722834726
-0.141884519122
-0.14200784225
-0.142105288172
-0.142193771342
-0.142276145051
-0.142340612314
-0.142384650113
-0.142415339454
-0.142442220815
-0.142457853704
-0.142462655163
-0.121582373011
-0.121582213439
-0.121584017849
-0.12158617539
-0.121590240943
-0.121595579163
-0.12160366124
-0.121612962622
-0.121623739533
-0.12163700029
-0.121653734255
-0.121676099486
-0.121705086362
-0.121740169393
-0.121780175199
-0.121825992058
-0.121879452716
-0.121942408978
-0.122015578083
-0.122099203736
-0.122193778514
-0.122301025792
-0.122423367217
-0.122563266523
-0.122722549059
-0.12290245647
-0.123104225936
-0.123328398857
-0.123575571301
-0.123846501106
-0.124142284413
-0.124464302707
-0.124811411747
-0.125180360549
-0.125567495294
-0.125978401355
-0.126417317003
-0.126885154583
-0.127381384977
-0.127905160367
-0.128456234819
-0.129035288443
-0.129642496364
-0.13027588658
-0.13093144272
-0.13160424092
-0.132289265025
-0.13298169814
-0.133676893617
-0.134370168644
-0.135056467566
-0.135729966664
-0.13638393346
-0.137010972403
-0.137603078018
-0.138151767827
-0.138649707036
-0.139092552356
-0.13947923087
-0.139811842718
-0.140096156496
-0.140342501303
-0.140565303439
-0.140768265866
-0.140960867269
-0.141167969652
-0.141396954579
-0.141621494197
-0.141819456385
-0.141976293225
-0.142093624922
-0.142192308383
-0.142287830256
-0.142368315313
-0.14242533713
-0.142462886404
-0.142492779139
-0.142516427162
-0.142527584549
-0.142531748284
-0.121568994048
-0.121569703934
-0.121572486114
-0.121575421386
-0.121578057623
-0.12158302192
-0.121590872826
-0.121599631103
-0.121609960165
-0.121622442959
-0.121638506902
-0.121658809945
-0.121685995859
-0.121718237414
-0.121754900967
-0.121796964903
-0.121846577356
-0.121905538938
-0.121974409972
-0.122053210272
-0.12214339853
-0.122246926936
-0.122365590747
-0.122501612326
-0.122656904944
-0.122832987832
-0.123029896229
-0.123249954266
-0.123493709219
-0.123761740899
-0.124053576369
-0.124370882092
-0.124713835392
-0.125077464292
-0.125461637704
-0.125870304394
-0.126308395372
-0.12677692823
-0.127275129285
-0.127802128439
-0.128357607473
-0.128941708678
-0.129554060707
-0.130192711651
-0.13085400321
-0.131533242257
-0.132225421797
-0.13292562831
-0.133629107036
-0.134331058793
-0.135026295417
-0.13570889474
-0.136371999899
-0.137007805127
-0.137607709716
-0.138163108157
-0.138667113759
-0.139116012428
-0.13950955983
-0.139851027441
-0.140147764867
-0.140411019548
-0.14065060268
-0.140869803977
-0.141080220503
-0.141299476291
-0.141532172635
-0.141751311578
-0.14194023284
-0.142090243282
-0.142209406341
-0.142318443791
-0.142417285996
-0.142490325466
-0.142538469316
-0.14257017193
-0.142596732173
-0.142611619473
-0.142614819854
-0.14261665733
-0.121553582435
-0.121555080064
-0.121557978019
-0.121561761917
-0.121563858154
-0.121568806086
-0.121575545826
-0.121583642163
-0.12159342654
-0.121603862418
-0.121619233379
-0.121638292303
-0.121662407821
-0.121691030618
-0.121724054528
-0.121762021778
-0.121807828044
-0.121862650918
-0.121926419953
-0.121999908709
-0.122085062742
-0.122183907386
-0.122297996607
-0.122429656546
-0.122580347252
-0.122751110099
-0.12294343267
-0.123156711575
-0.123396681043
-0.123661588064
-0.12394896604
-0.124258930932
-0.124596020352
-0.124954894253
-0.125335340097
-0.125742836571
-0.126180611571
-0.126649755301
-0.127149900126
-0.127680284578
-0.128240466079
-0.12883020703
-0.129448728341
-0.130093974329
-0.130762441601
-0.131449580417
-0.132150395662
-0.132859897157
-0.133573226485
-0.134285475158
-0.134991345154
-0.135684791664
-0.136358746644
-0.137005054197
-0.137614862299
-0.138179760621
-0.13869338509
-0.139152550389
-0.139557491118
-0.139912011925
-0.140223868119
-0.140503973751
-0.140761906543
-0.141004817867
-0.14123546096
-0.141467676435
-0.141698904797
-0.141910906514
-0.142091565052
-0.142240284679
-0.142369598429
-0.142488978534
-0.142584038691
-0.142647007931
-0.142684336658
-0.142708041582
-0.142721438125
-0.142722502053
-0.142713608078
-0.142708569018
-0.121537065386
-0.12153887885
-0.121541365716
-0.121543617827
-0.121546154634
-0.121551739488
-0.121557420823
-0.121564481095
-0.121573883185
-0.121583198377
-0.121595056863
-0.121612530778
-0.121634039868
-0.121658677533
-0.121687941497
-0.121722497872
-0.121763506
-0.121813064699
-0.121871343929
-0.121939357832
-0.122018930503
-0.122112007303
-0.122220072801
-0.122345970622
-0.122492416026
-0.122656364914
-0.122842766266
-0.123051558566
-0.123284149369
-0.123542977788
-0.123825518123
-0.124131461646
-0.124458666201
-0.124810962175
-0.125188999304
-0.125595491852
-0.126032954244
-0.126502660798
-0.127004719263
-0.127538625869
-0.128103869062
-0.128699913473
-0.129325653654
-0.129978871154
-0.130656070076
-0.131352745284
-0.132063888722
-0.13278442707
-0.13350937645
-0.134233701643
-0.134951998439
-0.135658121697
-0.136344876191
-0.137004022892
-0.137626874215
-0.138205459992
-0.138733605538
-0.139207817965
-0.139628012642
-0.139998338269
-0.140326563777
-0.14062459539
-0.140904148594
-0.141171438447
-0.141426451196
-0.141673781426
-0.141909030577
-0.142109870941
-0.142284038276
-0.142436130875
-0.142580398458
-0.142706089847
-0.142794238838
-0.142844797138
-0.142866984283
-0.142873768955
-0.14286399042
-0.142843222641
-0.142818405574
-0.142803113894
-0.121519415176
-0.121521273539
-0.121523741085
-0.121524893367
-0.121527226976
-0.121531809959
-0.121536392009
-0.121541905436
-0.121549181981
-0.121558935997
-0.121568025223
-0.121582256978
-0.121600662737
-0.121621690677
-0.12164649349
-0.121677230846
-0.121713720819
-0.12175727902
-0.121809171609
-0.121871094828
-0.121944770501
-0.122031695408
-0.12213294075
-0.12225063944
-0.122391093001
-0.122550182287
-0.122726124486
-0.122928895869
-0.123154277403
-0.123407133408
-0.123683271792
-0.12398186572
-0.124302554929
-0.124647808691
-0.125022181688
-0.125427232903
-0.125864254681
-0.126334474861
-0.126838426435
-0.127375972316
-0.12794666153
-0.128549741813
-0.129183812196
-0.129846452767
-0.130534084848
-0.131242162498
-0.131965609162
-0.132699222925
-0.133437837007
-0.134176234633
-0.134908906106
-0.135629708898
-0.136331590644
-0.1370067262
-0.137647121464
-0.13824526171
-0.138793758591
-0.139286796532
-0.139724488261
-0.140114227418
-0.140462173214
-0.140779735982
-0.141081448161
-0.141371939597
-0.141651312309
-0.14191550215
-0.142152532123
-0.142357716996
-0.142527472472
-0.14268156996
-0.142844680336
-0.142976948491
-0.14305853706
-0.143093210241
-0.143090790158
-0.143069089967
-0.143026675881
-0.142973946843
-0.142926983125
-0.142898629225
-0.121500062744
-0.121501554707
-0.121503666054
-0.121504559391
-0.12150728307
-0.121509720752
-0.121512744571
-0.121516580802
-0.121520176422
-0.121528418139
-0.121535918565
-0.121546969016
-0.121561906802
-0.121579800068
-0.121600448546
-0.121625885719
-0.121657144006
-0.121694698892
-0.121739838175
-0.121794633759
-0.12186142791
-0.121942015508
-0.122037427372
-0.122146029831
-0.122275215477
-0.122429142057
-0.122597799638
-0.122790492475
-0.123007680263
-0.123248488065
-0.123518642758
-0.123810659988
-0.124124489143
-0.124463966132
-0.124834282593
-0.125237078055
-0.125673229146
-0.12614383557
-0.126649669532
-0.127190958093
-0.127767468151
-0.128378357831
-0.129021949518
-0.129695581418
-0.130395536368
-0.131117172039
-0.131855276164
-0.132604418854
-0.133359126153
-0.134113901117
-0.13486312388
-0.135600834615
-0.136320609752
-0.137015824673
-0.137679886343
-0.138305467916
-0.138880222107
-0.139392941596
-0.139850020252
-0.140270607783
-0.140646623886
-0.140980983137
-0.141300967283
-0.141610964459
-0.141909944589
-0.142188668509
-0.142435680346
-0.142647735814
-0.142820398845
-0.142968968555
-0.143171337041
-0.143320897792
-0.143396955998
-0.143407648397
-0.143359470045
-0.143301173693
-0.143215605425
-0.143115129462
-0.143033136063
-0.142984467072
-0.121478729814
-0.12147946683
-0.121480064848
-0.121481323543
-0.121484103124
-0.121484904649
-0.121486375659
-0.121488693531
-0.121489373615
-0.121493641991
-0.121498860372
-0.121506626577
-0.121517607329
-0.121532096445
-0.121549657713
-0.121569356021
-0.121594218568
-0.121625175038
-0.12166322797
-0.121710107837
-0.121768280217
-0.121840562337
-0.12193056306
-0.122033269515
-0.122149180342
-0.122291833717
-0.122453767505
-0.1226337513
-0.122843504254
-0.123075682697
-0.123333000091
-0.123615409423
-0.123922466378
-0.124257538049
-0.124623813124
-0.125023644186
-0.125458366771
-0.125929134264
-0.126436857259
-0.126982010906
-0.127564678493
-0.128184146532
-0.128838532062
-0.129524872016
-0.130239275383
-0.130976992913
-0.131732610908
-0.132500312251
-0.133274102794
-0.134048021498
-0.134816278792
-0.135573351052
-0.136314099653
-0.137034253733
-0.137729700261
-0.138393597756
-0.139000729442
-0.139529188275
-0.140007774619
-0.140491887856
-0.140912441425
-0.141244235976
-0.141571556455
-0.141895905212
-0.142216271781
-0.142514671301
-0.142774484359
-0.142972241382
-0.143212744724
-0.143255306458
-0.143567968626
-0.143760487873
-0.143833736152
-0.143807062378
-0.143671674279
-0.143582367565
-0.143441278566
-0.143258496781
-0.143118541979
-0.143033043279
-0.121455661431
-0.121455673255
-0.121454492456
-0.121455426255
-0.12145661171
-0.121456600385
-0.121456720584
-0.121457045848
-0.121455856442
-0.121456395685
-0.12145782361
-0.121461590531
-0.121468059384
-0.121477740858
-0.121491336666
-0.121505880903
-0.121524518283
-0.121548502051
-0.121579021924
-0.121617579302
-0.121666124453
-0.121727642779
-0.121808243244
-0.121906397838
-0.122012657701
-0.122139607334
-0.12229274742
-0.122461331912
-0.122655660343
-0.12287840315
-0.123125922037
-0.123398940786
-0.123697646269
-0.124026886829
-0.124388693861
-0.124785115868
-0.125217881696
-0.125688426444
-0.126197992835
-0.126747253727
-0.127336472575
-0.127965228853
-0.12863168147
-0.129332599241
-0.130063867662
-0.130820649062
-0.131597295074
-0.132387392198
-0.133184082211
-0.133980601499
-0.134770825094
-0.135549871406
-0.136314519661
-0.137064130046
-0.137798857749
-0.138519504151
-0.139172879362
-0.1397016944
-0.140193377646
-0.140855448917
-0.141411106015
-0.141637352838
-0.141964187196
-0.142311392149
-0.142670555652
-0.142991780505
-0.143279894071
-0.143276588497
-0.143213399149
-0.143416298447
-0.144268001108
-0.144553704311
-0.144580758462
-0.144481237697
-0.144009671335
-0.143909680676
-0.143708873466
-0.143378780754
-0.143155530247
-0.14300070389
-0.121431507967
-0.121431220151
-0.121429976357
-0.121428570844
-0.121427200765
-0.121425862808
-0.121424349591
-0.121421915272
-0.121419288763
-0.121416040308
-0.121413115403
-0.121412339285
-0.121413844904
-0.121417950614
-0.121424967644
-0.121434167643
-0.121447070652
-0.121464107453
-0.121486674832
-0.121516431733
-0.12155506788
-0.121604893841
-0.121672463814
-0.121762178025
-0.121862326351
-0.121973278923
-0.122112951305
-0.122272611193
-0.122450131899
-0.122657678302
-0.122893225986
-0.123156128406
-0.123447770414
-0.123770611639
-0.124127030863
-0.124519345338
-0.124949682381
-0.125419647444
-0.125930766484
-0.126484254202
-0.127080574567
-0.127719438113
-0.128399208982
-0.129116626127
-0.129867449278
-0.130646824378
-0.131448875056
-0.132266324854
-0.133090936775
-0.13391460223
-0.134730438184
-0.135534267569
-0.136324488463
-0.137104086086
-0.137878914602
-0.138702878925
-0.139458150272
-0.13992139425
-0.140288825709
-0.14128248433
-0.141253096946
-0.141182960274
-0.14123720397
-0.141309281626
-0.141407475815
-0.141514095134
-0.141698871057
-0.142107858209
-0.142574889415
-0.142462638165
-0.142716675007
-0.143035545166
-0.143231397109
-0.143319656809
-0.143740615021
-0.144469231015
-0.144312611237
-0.143448539246
-0.14310239782
-0.142800876244
-0.121406241974
-0.121405775894
-0.121404652867
-0.121400610707
-0.121396891887
-0.121393684369
-0.121390134988
-0.121385107761
-0.121380727759
-0.121372829807
-0.121365107285
-0.121359414422
-0.121355656204
-0.121354089558
-0.121353938793
-0.121356271557
-0.121362392219
-0.121371921195
-0.121385955028
-0.121406187304
-0.12143443464
-0.121472545199
-0.121525253043
-0.121601737819
-0.121694764519
-0.121792213385
-0.121913056775
-0.122062689453
-0.12222952449
-0.122418082244
-0.122638056895
-0.122888794886
-0.12317112079
-0.12348640105
-0.123836548889
-0.124223997112
-0.124651178852
-0.12512019508
-0.125632721686
-0.126190340206
-0.126794131332
-0.127444028795
-0.128138489022
-0.128874360018
-0.129647588908
-0.130453640971
-0.131286537255
-0.132137838924
-0.132997183063
-0.133854252579
-0.134700676827
-0.135533102018
-0.136348756538
-0.137147486834
-0.137932745769
-0.138979549111
-0.140039480915
-0.139967140014
-0.139954167525
-0.140230223422
-0.140563558707
-0.140564891408
-0.140430794986
-0.140210310989
-0.139945172595
-0.139643281094
-0.139399399746
-0.139374295842
-0.139516224345
-0.13955164997
-0.13979281173
-0.140180946046
-0.140617064881
-0.141085916037
-0.141674610632
-0.142221135331
-0.142472439513
-0.14293770765
-0.143079072125
-0.14236659291
-0.121379908131
-0.121378938019
-0.121376502655
-0.121371173238
-0.121365541189
-0.121360354114
-0.121354259185
-0.121346206002
-0.121338826666
-0.121326396965
-0.121313980647
-0.121303203436
-0.121294023385
-0.121286627665
-0.121279081997
-0.121273431345
-0.121271499579
-0.121272492494
-0.121277097841
-0.121286913431
-0.121303766156
-0.121329610992
-0.121367671679
-0.121427339663
-0.121508102087
-0.12159662901
-0.12169596538
-0.12182513608
-0.121981009111
-0.122156665782
-0.122359986062
-0.122596077767
-0.122866617713
-0.123172466417
-0.123515047945
-0.123896525269
-0.124319709595
-0.124787069566
-0.125300736254
-0.125862487005
-0.126473936602
-0.127135638333
-0.127846258215
-0.128602623993
-0.129401092
-0.130238232734
-0.131108678361
-0.132002487996
-0.132905872544
-0.133805189311
-0.134689340609
-0.135557776198
-0.136397457193
-0.137167875763
-0.137693800071
-0.139267410928
-0.139412265389
-0.139524882273
-0.139576789259
-0.139641837581
-0.139807990819
-0.1397066973
-0.139384515989
-0.138884479074
-0.138273311601
-0.13759334094
-0.136930604092
-0.136375744893
-0.135950606108
-0.135668120928
-0.135628568303
-0.135790305803
-0.136118963259
-0.136612146262
-0.137408403424
-0.138578608927
-0.139796466341
-0.140637290866
-0.140856898267
-0.140773777935
-0.121353253318
-0.121351758644
-0.121348156604
-0.121341230458
-0.121333989097
-0.121326502398
-0.121317394696
-0.121305575898
-0.121293600899
-0.121277244633
-0.121260029375
-0.121243945354
-0.121229162783
-0.121215835608
-0.121200073666
-0.121185818519
-0.121174903974
-0.121166362439
-0.121160462263
-0.121158813585
-0.121163092554
-0.121175396338
-0.121198414517
-0.121239565894
-0.121302962314
-0.121381628488
-0.121463493235
-0.121568926391
-0.121703669658
-0.121864971696
-0.122053203308
-0.122274630725
-0.122531655302
-0.122826164599
-0.123159744776
-0.123534189046
-0.123952258954
-0.124417134607
-0.124931345075
-0.125497064234
-0.126116325035
-0.126790331617
-0.127518369169
-0.128297311492
-0.129123839659
-0.129996700896
-0.130912534384
-0.131859755241
-0.132819881959
-0.133774944627
-0.134707044257
-0.135634991273
-0.136547962184
-0.137330397664
-0.137812374818
-0.138143394169
-0.138541863211
-0.138940620432
-0.139071620594
-0.138992407666
-0.138768227632
-0.138280945306
-0.137593904056
-0.136732007448
-0.135757487822
-0.134726431423
-0.133710669954
-0.132762047212
-0.131917599815
-0.131255148967
-0.130865088442
-0.13073048844
-0.130819355216
-0.131158905394
-0.131929504959
-0.133326506932
-0.135108029634
-0.136591358896
-0.138053953588
-0.140831714488
-0.121327227863
-0.121325110774
-0.121319761893
-0.121311504524
-0.121302936698
-0.121292959566
-0.121280623977
-0.121265157799
-0.121248382249
-0.121226746494
-0.121203992273
-0.121181978334
-0.121160942823
-0.121140898526
-0.121116285001
-0.121093044871
-0.121072428057
-0.121053593486
-0.121036162554
-0.1210219722
-0.121012447007
-0.121009782155
-0.121016549901
-0.121038030924
-0.121080034978
-0.121142567541
-0.121213452816
-0.121297499845
-0.121407901062
-0.121547370592
-0.121716829346
-0.121921362158
-0.122162746076
-0.122443978062
-0.122767023633
-0.123133084963
-0.123545154036
-0.124006637513
-0.124520761631
-0.125090010582
-0.125716890955
-0.12640358016
-0.127150164818
-0.127953754963
-0.128810387932
-0.129721417853
-0.130690094624
-0.131706019683
-0.132741723414
-0.133772228795
-0.134751988019
-0.135769368076
-0.1368408502
-0.137038743459
-0.137230946198
-0.13750461837
-0.137999292467
-0.138300782045
-0.138196822261
-0.137791958318
-0.137110947166
-0.13614983087
-0.134996020145
-0.133687684578
-0.132282506273
-0.130836413943
-0.129412452489
-0.128057196349
-0.126814563826
-0.125757658024
-0.124973466819
-0.124495394298
-0.124285191136
-0.124398583774
-0.125068074918
-0.126554813844
-0.12859760699
-0.130319203277
-0.133284591523
-0.144447119322
-0.121302699409
-0.121299912346
-0.121292826535
-0.121283422363
-0.12127322185
-0.121260495705
-0.121244662567
-0.121225674686
-0.121203604718
-0.121175854869
-0.121146685976
-0.121117898687
-0.121089601328
-0.121060747582
-0.121027387145
-0.12099480415
-0.120963754032
-0.120933536291
-0.120903813992
-0.120876188728
-0.120851708855
-0.120832535485
-0.120821640758
-0.120822155791
-0.120839929507
-0.120879776298
-0.120935782575
-0.121001003869
-0.121087662018
-0.12120368032
-0.121350362384
-0.121533907939
-0.121757334691
-0.122022547164
-0.122332850655
-0.122688992719
-0.123093670763
-0.123550834973
-0.124064195425
-0.124636759831
-0.125271121
-0.12597020561
-0.126735313866
-0.127564546304
-0.128454665086
-0.12940936767
-0.130436713864
-0.131529559972
-0.132664550646
-0.133816891681
-0.134790694448
-0.135864783173
-0.136193796227
-0.136509913945
-0.136872392175
-0.13722509709
-0.137498628939
-0.137373331825
-0.13680618914
-0.13590762359
-0.134703538387
-0.133231591603
-0.131570862048
-0.129768112267
-0.127876731938
-0.125945506109
-0.124024487594
-0.122151880992
-0.120361479194
-0.118700585872
-0.117242062114
-0.116053897732
-0.115101554547
-0.114434221991
-0.114273030625
-0.114975711095
-0.116430888956
-0.117249723694
-0.117152580339
-0.12214253077
-0.121280592383
-0.12127717799
-0.121268773854
-0.121258085094
-0.121245622956
-0.121229786275
-0.121209989947
-0.121187192736
-0.121159473992
-0.121125170186
-0.121088973312
-0.121052687202
-0.121016284235
-0.120977507925
-0.120934753849
-0.120891897854
-0.120849429406
-0.120806440429
-0.120763301054
-0.120721206001
-0.120680660813
-0.120643472842
-0.120613310134
-0.120591513782
-0.120583303714
-0.120595347172
-0.12062687162
-0.120672704339
-0.120736823813
-0.120828216218
-0.12095074735
-0.121108797888
-0.121309794446
-0.121556157743
-0.121851921095
-0.122196983883
-0.122592936683
-0.123044445637
-0.123555950457
-0.124131190407
-0.12477303672
-0.125484511257
-0.126268507757
-0.127124709318
-0.128050776396
-0.129049635986
-0.130134282652
-0.131314278114
-0.132582456413
-0.133972449203
-0.134747033196
-0.135150201195
-0.135558860965
-0.136223370157
-0.136614938495
-0.136752110727
-0.136578252617
-0.135893471769
-0.134754094984
-0.133263050519
-0.131466579682
-0.12941940718
-0.127182095819
-0.124793581941
-0.12229224539
-0.119710388174
-0.117079583644
-0.11442560507
-0.111771930488
-0.109149288419
-0.106613959603
-0.104232827923
-0.101944917451
-0.099628988582
-0.0973889588957
-0.0956661361974
-0.0944087825023
-0.0898963028247
-0.0742216473752
-0.0556978940102
-0.121261366401
-0.121257348751
-0.121247881919
-0.121235695361
-0.12122062138
-0.121201343
-0.121177539776
-0.121150423075
-0.121116497229
-0.12107546906
-0.121031799899
-0.120987476858
-0.120942446841
-0.120893684215
-0.12084001633
-0.120785713214
-0.120730716755
-0.120673642797
-0.120615287856
-0.120557197646
-0.120499094445
-0.120442242104
-0.12039073416
-0.120345163639
-0.120309674466
-0.120291199712
-0.120293706279
-0.120316139688
-0.120359689466
-0.120422121474
-0.120515610118
-0.120645918145
-0.120820479497
-0.121041486365
-0.121317067695
-0.121649679186
-0.122036370337
-0.122481631251
-0.12299016506
-0.123566826216
-0.124215732663
-0.124940149054
-0.125743636333
-0.126626028203
-0.127583379679
-0.128620608242
-0.129759501108
-0.131040275078
-0.132526028725
-0.134965784772
-0.134313701733
-0.134568260016
-0.135272022294
-0.136012547833
-0.136098247008
-0.135796959293
-0.13502215405
-0.133697043334
-0.131913436162
-0.129764940028
-0.127309839445
-0.124604285487
-0.121692867303
-0.118604072879
-0.115363806656
-0.111994777815
-0.108520535589
-0.10496214794
-0.101335556435
-0.0976478275144
-0.0938979922768
-0.090064817585
-0.0860382417995
-0.0814562151499
-0.0761818131048
-0.070580673695
-0.0640891869724
-0.0499052517006
-0.0121170288031
0.0432023614207
-0.121245560035
-0.121240911999
-0.121230451917
-0.121216514914
-0.12119855394
-0.12117564974
-0.121148004991
-0.121115719435
-0.121075350684
-0.12102775375
-0.120976134455
-0.120923145947
-0.120868847904
-0.120809558779
-0.120744078285
-0.120677233818
-0.120608676366
-0.120535937129
-0.120460623861
-0.120384705633
-0.120306896014
-0.120228401974
-0.120152984457
-0.120081925082
-0.120017689644
-0.119966524102
-0.119936068742
-0.119927909871
-0.119946197842
-0.119981851715
-0.120042805711
-0.120138416545
-0.120282293986
-0.120478048674
-0.120727404349
-0.121040155273
-0.121415316205
-0.121853531364
-0.122359409629
-0.122937198479
-0.123592147017
-0.12432968793
-0.125152693249
-0.126058287054
-0.127039443741
-0.128102994582
-0.129270512358
-0.130554579275
-0.131632584242
-0.132675238705
-0.133349025784
-0.133619692535
-0.135058038761
-0.13544974112
-0.135100839686
-0.134210433316
-0.132737610722
-0.13070544577
-0.1282193418
-0.125367901846
-0.122213924593
-0.118812292416
-0.115204092195
-0.111420346572
-0.107489456923
-0.103435834982
-0.0992779428545
-0.0950208354172
-0.0906478957267
-0.0861077777737
-0.08129751237
-0.0760506838638
-0.0701345007692
-0.0631231061292
-0.0547135697608
-0.0450267399458
-0.032335860238
-0.0071059090165
0.0477170800908
0.117687447754
-0.121233559948
-0.121228303845
-0.121216868762
-0.121200889002
-0.121179663869
-0.121153086416
-0.121121484415
-0.121083314103
-0.121036707619
-0.120982796861
-0.120922797195
-0.120860544696
-0.120796280068
-0.12072572889
-0.120647641271
-0.120567195175
-0.120483834683
-0.120393503595
-0.12029980392
-0.120204287735
-0.120103937871
-0.120001864232
-0.119900204216
-0.119801036548
-0.119706389014
-0.119620829953
-0.119553681017
-0.119508767961
-0.119491863125
-0.119498999518
-0.119528682708
-0.119587049081
-0.119690306628
-0.119852618759
-0.120076201761
-0.120364786048
-0.120723213262
-0.121151485902
-0.121653372085
-0.122233139601
-0.122895240021
-0.123645256842
-0.124485281501
-0.125409196635
-0.126412072998
-0.127513049441
-0.128759726109
-0.130185575244
-0.130533588974
-0.130189105379
-0.130724047717
-0.132780027808
-0.134410870898
-0.134339296362
-0.133476554484
-0.131894666286
-0.129675343567
-0.126900897105
-0.123690725205
-0.120136319593
-0.11630798851
-0.112265425637
-0.108055487822
-0.103715272474
-0.0992723416373
-0.0947391921127
-0.0901063492797
-0.085334626274
-0.0803507423261
-0.0750380080372
-0.0692068147129