/*--------------------------------*- C++ -*----------------------------------*\
| =========                 |                                                 |
| \\      /  F ield         | OpenFOAM: The Open Source CFD Toolbox           |
|  \\    /   O peration     | Version:  v1806                                 |
|   \\  /    A nd           | Web:      www.OpenFOAM.com                      |
|    \\/     M anipulation  |                                                 |
\*---------------------------------------------------------------------------*/
FoamFile
{
    version     2.0;
    format      ascii;
    class       volScalarField;
    location    "417";
    object      alpha;
}
// * * * * * * * * * * * * * * * * * * * * * * * * * * * * * * * * * * * * * //

dimensions      [0 0 -1 0 0 0 0];


internalField   nonuniform List<scalar> 
6400
(
0.858053418906
1.32827557838
2.07043361564
2.48118985142
2.88058593467
3.30151560385
3.91131286397
4.60997704899
4.87757403674
5.36032063945
6.52139574548
7.19182463449
7.72345563364
8.36719536185
9.23591774118
10.1380631415
10.8798028776
11.5803558212
12.1779519805
12.4684822085
12.4899190538
12.5860990063
12.9892009252
13.720367097
14.5493863658
15.2681142435
15.8032495691
16.2847103827
16.8315173042
17.457134268
18.1071009988
18.5510155482
18.7161357401
18.752060883
18.6828929502
18.4533211853
18.4079229191
18.6891820163
18.5687715641
18.1673543351
18.1965608973
18.8139645614
19.4612237304
19.7798094931
19.8438715382
19.7345107025
19.5240581995
19.2692931048
18.9812825693
18.6779152098
18.2355960997
17.3487440698
16.2615055816
14.9837529972
14.0518771873
13.6216244549
12.7344187821
10.9103679318
8.91277812488
7.70335505925
6.34292872602
4.92594204188
3.41447608856
4.85155022162
8.94844016663
13.9275363002
16.9514579254
16.6905234074
14.7270788501
13.1125121654
12.2330971535
12.3990060615
12.8983917621
12.7554940016
14.7421507644
14.1659189919
16.000329646
9.90510580601
12.8757100974
4.8157900421
3.11310476799
2.44909166235
3.02068022688
4.24100583732
4.02293795583
3.77135936552
3.88382976577
4.23974982594
4.76935251701
5.45725502392
6.31124883027
7.16216025048
7.89759385105
8.5993518271
9.3070600141
10.1276105228
10.9868690079
11.8267276064
12.8343501019
12.9283677542
12.7117928816
12.7435952025
13.0716925149
13.7665538569
14.7888388377
15.4167611244
15.9061812834
16.443674324
17.0160559741
17.6064206611
18.2115419375
18.7965829157
18.9609441059
19.0023751802
18.9911864633
18.6078794042
18.6498651801
18.9502946748
18.732818723
18.1033248281
18.0831755419
19.7195369818
20.9021480954
21.0850281475
21.0596844898
20.7912784651
20.3701208431
19.9653838842
19.377392508
18.800588056
18.4832587233
18.5056397781
17.8042736588
15.2094309405
14.4834036152
13.6507608041
11.7551498133
10.0018928838
8.41028113497
6.85663629266
5.5027758001
5.35075550318
3.7898017586
5.16333185143
9.03886915043
14.9147565859
18.6855056203
17.4837556169
15.3476197969
13.4410898059
12.7229732731
13.1028783403
14.1507604243
13.5613809734
13.3841459821
12.8366627748
11.615997813
9.76092716646
8.19300776738
4.27995717444
3.13544131607
2.70693873237
3.20726384805
3.38959649012
3.78827508785
4.15360272871
4.10175022792
4.16421352508
4.68480886479
5.43844526747
6.29216254893
7.16260702466
7.94910510374
8.66059912835
9.22523356945
9.96000108877
12.8164350271
14.8731841524
15.1723210746
14.3385983616
12.5331812144
12.313899246
13.2347462332
13.9889696663
14.6571426407
15.389662733
16.0272793049
16.5687303081
17.1190765585
17.7179794834
18.2720790026
18.9900113333
19.1760726496
18.8737588759
19.3816784015
19.0127514855
18.5206992827
19.1599426908
18.9491853336
18.3423164781
18.3262727796
18.9587605341
19.616056411
19.948343793
20.0369191882
19.9718697168
19.7920757443
19.5187696902
19.1539719694
18.7234704649
18.2322281715
17.57391462
16.6300317416
15.7512814473
14.9763414063
13.4098092471
11.6694314441
10.0484103287
8.52168137125
7.11715103494
5.97730619785
4.92127886589
4.22702363869
6.25482075764
11.2411880937
15.8511977639
18.1311152531
18.2780911644
16.7141032839
15.0521923875
14.3524813262
14.2400730108
13.5748490815
12.9696006965
12.9122304104
12.5337765974
11.522012181
9.88467750672
7.45302572931
7.62110291742
3.02901276638
5.40379168564
3.41983424856
3.46340884819
4.11702858416
11.7764563687
10.1215544039
4.8427060417
4.68043918243
5.45163635709
6.31727831603
7.20086307387
7.96331443642
8.727858624
10.5473561862
12.7450038049
14.3929956996
14.6430718854
13.2123593348
12.0079577325
12.1678851294
12.5787594303
13.1472639531
13.9220812905
14.7510144681
15.533924965
16.2116705203
16.7189561518
17.3138965661
17.801447851
18.5765923074
18.9584194778
19.5956412252
19.3581170783
18.7301859675
19.1614743704
18.7778136478
18.3944445983
18.431476267
18.4863057318
18.671780493
19.129740004
19.6368958863
19.9637243609
20.0916936098
20.0630755623
19.9112705028
19.6583422527
19.3142927612
18.8893341965
18.3741396087
17.7224879694
16.9071267539
15.9919980627
14.8914094706
13.4472329854
11.8105978525
10.2228159447
8.78040575276
7.54324351084
6.57496598885
5.89173898248
5.82123609518
7.24122190816
10.5695899056
16.2175301859
19.7820799528
19.9959638119
18.3536148563
16.0217798956
14.4253298648
13.6307534916
13.7745260329
15.1205386534
15.0207451728
13.6702491645
13.4925241777
16.7403288176
13.1614019427
11.194588025
5.46094169902
7.42725834253
4.03503556601
4.35266313784
6.35240735986
11.6610742124
7.93869725379
5.15713124501
5.18840361608
5.67623227278
6.46792184395
7.37247356044
8.79929967572
11.2560480101
12.2470493716
12.5131682302
12.2999652961
11.7767799348
11.6039158149
12.0664719548
12.309199893
12.5930131543
13.2296580824
14.0311347967
14.8897669881
15.719373087
16.3444413097
17.043975674
17.4340269537
18.2414936125
18.5944370179
19.8661947208
19.4876817008
18.8413382256
18.9787174761
18.418275574
18.3080643243
18.3962458288
18.5431744732
18.7006452303
18.9296584555
19.3008269488
19.7139965346
20.022473559
20.1739674627
20.1756837747
20.0507326308
19.8210436447
19.5003775537
19.0932760826
18.5877729782
17.9583899345
17.1886273783
16.264981986
15.10053577
13.6471636039
12.0644920716
10.568879056
9.28381971726
8.27453972877
7.5834696816
7.27329576018
7.58628949437
8.24667376569
10.6513268899
15.7057294954
19.8616615997
21.2869882464
20.132705987
17.3905676676
14.9372512089
14.5993681425
16.7829242559
17.6097169366
16.5400076028
15.5919519309
18.193002936
21.1743382622
16.5177144969
15.6373982731
9.78196873536
8.91934296485
5.01313959085
5.68331811358
11.9304409938
11.3704422134
6.06122972772
5.68546165345
5.7755097134
6.01682385352
6.74818828625
9.52946022232
12.8894079843
13.24776243
12.7675240297
11.5762515371
10.884132017
10.9891989412
11.8691272663
12.0605538733
12.1497392964
12.6513171223
13.3809121154
14.2341254845
15.0058353598
15.8543625564
16.8486579267
17.1355803831
18.1662431151
18.2515043472
19.8607243843
19.5451495657
20.445735065
19.2253096733
18.1592301797
18.0206153857
18.2352148535
18.4861937915
18.7088669104
18.9157384774
19.1654080988
19.4942840914
19.8488654473
20.1359611064
20.2977788165
20.3224390358
20.222213083
20.0184400704
19.7275821943
19.3520949472
18.8786486604
18.2841021603
17.5396818031
16.6002479799
15.4075928189
13.9887723665
12.515179651
11.1775346919
10.0837588967
9.29860304016
8.84983356352
8.89474615623
9.78973734981
9.0516810431
12.276353364
17.5041126591
21.1229946565
22.539570434
21.6332835519
18.3050369774
16.1480971537
17.89247
20.0402365831
19.4859348501
18.4539092419
18.4955232092
22.987967099
24.5434717472
19.5740770694
19.3733492161
11.8685645897
8.62497690294
6.09973950812
5.73794058898
11.8273634619
8.0116785979
6.1309029813
6.22409918481
6.31517993785
6.9910405197
7.39025437349
12.7509029816
13.325905191
13.2814600016
11.6957225058
10.3392884252
10.3768799494
11.713412511
11.8783251033
11.7020152189
12.1628358482
12.767669392
13.4974571471
14.348318886
15.3783834203
16.3905803139
16.8525014374
18.263758956
18.1761914985
19.956544189
19.4611120289
20.5736674616
19.6886601843
18.9273589803
17.8703001047
17.9018547344
18.2798538996
18.6252625501
18.8894480267
19.127429504
19.3949500135
19.7061698782
20.0274868035
20.2971447068
20.4632758541
20.5049436142
20.4286896367
20.256038429
20.0045413916
19.6742765192
19.2476931317
18.6948248001
17.9739195776
17.0365279108
15.8635420847
14.5326562617
13.2157862172
12.0668156745
11.1478497716
10.4720496753
10.1402791185
10.2276654497
10.2647732948
10.5173397098
13.6040522718
20.0127799826
22.4849597437
22.8915689674
21.8587644306
19.6302264924
19.3832783974
21.8815256578
22.2836860426
21.4075090011
20.78204992
22.6860378375
25.36920856
26.7899299264
22.2339715572
21.1000342843
11.5083752794
8.10334774932
7.18446572572
11.8991564896
11.8532179617
6.75860500931
6.7252027446
6.83570454543
6.97016491376
7.50348439728
12.5488040691
13.4456723758
13.4247506886
12.8138288586
10.3200161342
9.80346920139
11.42513683
11.9029755459
11.4317461646
11.5604610598
12.214236984
12.977663774
13.7230098697
14.6434344157
15.4669066973
16.8287492168
16.9725314762
18.2456379549
19.8084054155
20.0539344
19.054415028
19.8964884466
19.8543347836
18.0920670453
17.8065890028
18.0269142003
18.4032867822
18.7737641222
19.0751700004
19.3428951909
19.6278137379
19.937508574
20.2432291645
20.5008396879
20.6684682039
20.7242633425
20.6737088955
20.5391047451
20.3374753009
20.0651318366
19.6982979577
19.1977984203
18.5145752476
17.6124874187
16.5124098046
15.3217208623
14.1869074519
13.1868168927
12.3062701695
11.5899850549
11.2506896434
11.3257427473
11.6363383684
12.2774830558
12.8021068856
20.057425034
24.2088407675
24.3188956508
23.7745271538
22.8803425972
23.725464952
25.047362163
24.3297104619
23.5968774512
23.7466401843
25.982201772
26.5955496607
27.1313984977
24.2598642926
22.1316505772
10.6745606134
7.86650569973
7.83026407705
12.8324628324
10.6486873783
7.22525317048
7.36669542842
7.59838571808
8.98489459613
7.53384778465
13.3224957772
13.9170031953
13.4316741922
11.4000402969
9.7903982628
9.93635016171
11.5318648682
11.5461731207
11.2833750999
11.5905741416
12.2125284471
13.0849350538
13.955274602
15.3566167747
16.5582017747
16.7396529489
18.8217907484
18.0288712903
20.079084982
19.1855997386
20.6045205169
18.9925684206
18.3222964206
17.9504933482
17.9549876942
18.2075494865
18.5591861869
18.9315142781
19.2659582092
19.5686665099
19.87390151
20.189125852
20.4909767155
20.7431487633
20.9116875352
20.9811875178
20.9605802364
20.8721686078
20.730625646
20.5284661604
20.2354952897
19.8043803252
19.1852386839
18.3620607984
17.3886851275
16.3751519346
15.4005195901
14.4225735271
13.3764528168
12.5093447064
12.2891734692
12.7848815219
13.5274092113
14.135167169
14.4552377515
16.7679618802
24.3663757081
26.1054154022
26.2041569728
26.9082380424
27.9786853761
27.6121928533
26.5530636797
26.2732101927
27.1541247614
28.2357627153
28.0083187866
27.3496403269
26.3123655465
24.9366941345
9.98146912118
8.17158027594
8.99894187759
12.8552212246
8.3752297215
8.2308983807
8.01216927209
8.26321249949
11.6597862888
10.2691596837
14.152990731
14.1448561471
13.4468111248
10.5415882463
9.7530587368
11.4804506761
11.787116633
11.2488989675
11.2409268117
11.7634121836
12.3449471875
13.1602034315
13.8864886649
15.535211114
17.7817916415
16.6378792334
18.7506832665
19.9244111885
20.3330333269
20.7510435919
19.5357335434
19.3995174919
17.9197420903
17.8240115323
18.1052092594
18.404177414
18.7366795542
19.1008276415
19.4598939748
19.8021283675
20.1369830771
20.4649356319
20.7690110109
21.0208668622
21.1931678403
21.2776050855
21.2909318548
21.2571475086
21.1863392091
21.0665174939
20.8633441132
20.5246927783
20.0052784785
19.3116029685
18.516181746
17.69075039
16.7745995116
15.5636739239
14.1762171538
13.3548001747
13.684142502
14.8275511862
15.8870020235
16.5511026869
16.8209715711
16.1936634711
16.8196321635
27.8935551334
30.7677041104
31.8629495518
31.754134734
30.3208849968
29.3278853659
29.472220541
30.4479977793
30.6313845094
30.2800531554
29.9247250591
30.2243965317
30.388122924
9.78109829003
8.90464967341
12.55391995
12.8959615978
8.28549166936
8.94479443308
8.64149159978
9.23205630955
10.997984869
13.9032889602
14.9099571438
14.3457656672
13.6048670714
10.4105795663
9.87182522825
12.04082793
11.842774376
11.1843812189
11.2635263443
11.9119352513
12.7576224985
13.5150895479
14.0816632669
15.1316383947
17.9466352492
19.0872412979
18.2056791631
20.0761471934
18.8288637581
20.79204018
20.9103149967
19.2889741231
17.838291037
17.9225142855
18.2882917387
18.6111867885
18.9364968686
19.2912849306
19.6603847901
20.0397385419
20.4153364554
20.7656495231
21.0775077188
21.3328640544
21.5120488651
21.6154769239
21.6678339929
21.6947643024
21.7027855436
21.6767515187
21.5805341637
21.3619122477
20.9863825154
20.4812453692
19.909147427
19.222648973
18.0941797805
16.3526464371
14.8867580345
14.6571665714
15.9565743685
17.7914662374
19.075993245
19.7342899015
19.7220742644
18.8821942391
17.5186716615
18.9118087532
32.3848350961
37.6155715682
36.3534137168
33.9556342283
33.0155492421
33.2733014251
33.7874072671
33.8800400446
34.0323244884
34.4741168419
35.0302189042
35.6732674899
9.9736205262
9.69555990832
14.1487309855
13.4644257313
11.3857979897
10.1123364768
9.4777724968
10.722501319
10.2965624202
14.8459834095
15.4792306164
14.6093396362
13.5701140066
10.9092482204
10.6344591156
12.5274863609
11.8097754343
11.2306567464
11.3789369416
11.9571086282
12.929646756
13.9721523597
15.7484008396
15.2817161671
17.3949955012
19.4808957223
17.9962161479
20.376914777
21.0112134663
19.7073788694
19.7406560797
18.3008388574
18.1448538102
18.2508725896
18.5263861252
18.8440393464
19.1671340963
19.515102797
19.8764427077
20.2734034577
20.6988633392
21.0935313845
21.4203260897
21.6791579017
21.8684726631
21.9966303948
22.0931243279
22.1841470894
22.2746956891
22.349418258
22.3738161948
22.3054400256
22.1307299869
21.8814750036
21.5436047809
20.7840060085
19.038631707
16.9503961111
16.0011150431
16.8917573825
19.4637043041
21.8650473396
23.2996020894
24.0879603456
23.9767614163
22.8234309862
20.9557996989
18.6619892978
28.2852132157
38.6421990679
41.5271096548
38.8362170941
37.9300175014
38.0290657314
38.2230105775
38.1885264256
38.9223675873
39.6736388774
39.589573112
39.7770880071
10.4671534566
10.2860603234
13.8084936344
13.8500070985
13.822242635
11.1368641493
10.4477973531
13.7002930985
10.52309875
15.6920325092
15.9100957829
14.8857228175
13.5466943273
11.426112451
13.5228567321
13.6065735089
11.9260841693
11.4130004607
11.6257508633
12.1097382815
12.8953853993
13.9417908046
17.1630546957
18.1100025295
16.7731588826
19.5723976371
20.3976671867
19.8752057378
20.9826842212
21.1186468549
20.1817074923
18.292461969
18.339357124
18.5779143713
18.8172436781
19.1036743092
19.4077082566
19.768652215
20.1471375754
20.5338314572
20.9778983119
21.4268276069
21.7944553274
22.0649533433
22.2648921704
22.4224361672
22.5678532237
22.7228856221
22.8916744841
23.0627902458
23.2124334828
23.3262937085
23.4201699034
23.4854516192
23.2972935725
22.0685857797
19.6255335234
17.8432410981
18.0763745419
20.9053236475
24.8844768854
27.7213998998
29.034392092
29.8916009594
29.0551880245
27.0752297403
24.5346202472
21.0458837274
23.8639701894
35.5087584114
42.6950516182
44.0981110771
42.5754425832
42.8648035788
42.882798408
43.2301871628
44.3536755102
45.0877561864
45.0443632579
45.2110834711
11.0203458935
10.9121084546
10.5885853673
14.1113642568
14.2713566786
11.7872126155
11.3298414948
14.6013342215
11.0595429815
16.5473373736
16.2871615812
15.1732031748
13.644001479
11.6634442597
14.701524775
14.0632400527
12.2610571101
11.7604524512
11.957094484
12.4339175671
12.9872062547
13.8470564102
17.7299828678
19.1605958204
17.0848576527
19.6575010575
20.9344583514
19.149610746
20.6081641268
20.5467201437
18.6932268424
18.647543751
18.7854372164
18.9490341115
19.1348362134
19.4196964127
19.7095760312
20.0185693381
20.4196235998
20.8474127161
21.2952894357
21.7676682495
22.180916046
22.483549607
22.704827961
22.8967432124
23.0923842921
23.3028853338
23.5356317956
23.785310718
24.0420452315
24.3651018904
24.7997192402
25.2159606394
24.9090112187
22.7534828343
20.7246486257
20.4592940467
22.2054961492
25.2314635648
27.5486112785
26.9525679527
23.1494199696
18.9203539358
14.2675469122
12.8970242344
15.2299438874
17.5032181968
18.1776699784
18.0459969637
42.7411658699
46.4836836304
46.2624016962
43.2679508639
42.9904506662
46.636958076
49.2316150022
50.876025409
51.7679162239
52.2540919775
11.7487260651
11.8252432879
14.7147952013
14.6717329939
14.6234828169
12.3285064365
12.31552637
15.3391164604
11.9897436147
17.2688189227
16.634391442
15.4751675283
13.8131941622
11.9958668423
14.9261041026
14.1343020265
12.5980096511
12.1566900559
12.3068265572
12.7270531205
13.2369861518
13.9045299771
17.0166857722
19.9666527863
20.0579368046
18.8928788833
21.1442658323
21.800961241
19.0575905482
18.5735541027
18.593881746
18.860708451
19.1048323474
19.3019008518
19.5148439473
19.7497279897
20.0324407203
20.3549168439
20.7075374984
21.1613755313
21.6538636301
22.1453660633
22.5842933874
22.9224263106
23.1842246619
23.4195604866
23.6630264182
23.9268532599
24.1977343424
24.461195926
24.7795786642
25.3189153544
26.1333925778
26.8071425269
25.7956475477
23.2060585442
20.3689470103
17.4319632293
9.80826181702
0.221638646726
0.00375692694784
1.08697217999e-05
3.08893766293e-08
5.34689262903e-13
4.18235527829e-13
1.01537968661e-12
6.84446187882e-12
3.20590773093e-11
1.18426391609e-10
7.52581211569e-10
5.89254288763e-10
5.11210132663e-08
2.90963983433e-05
0.00292480889885
0.221943587912
30.4734274685
50.2823993303
55.4347357682
59.6245094002
59.542579758
12.4192984734
12.605552653
16.2823641638
15.2235305785
14.5734682512
12.8876157753
13.2846889343
15.9235600568
15.9048043905
18.1468494721
17.0251363259
15.8565619062
14.0468034366
12.4771353718
15.1618264755
14.1550450911
12.9359056543
12.5638900606
12.6505339197
12.99682818
13.4873578834
14.1783869507
16.3941093943
20.2203000569
21.4584975742
18.4176118417
20.6904032592
21.7860184264
21.23409761
19.1233576471
18.7075887274
19.078278731
19.4483620775
19.7225384799
19.8576525928
20.1028328998
20.3634365268
20.6975476552
21.0592081396
21.5009469689
22.0304607458
22.5636689315
23.0143623368
23.3643256929
23.6774769306
24.0176629779
24.3529483634
24.6349559875
24.8170237352
25.0157195248
25.3798946499
26.0387859287
27.182508012
27.712973542
24.7248398646
16.963845915
0.00594419560705
2.40711236313e-05
6.96097929524e-07
1.01339098503e-08
8.23358760352e-12
1.37385299539e-14
9.68435281514e-16
0
0
0
0
0
0
0
0
1.34692832438e-19
4.54291039196e-17
6.79522563137e-15
3.94237230025e-12
5.50652657873e-09
0.000298192487853
4.5284129051
50.6473783402
63.136699997
12.9587006837
13.168213717
18.4901283504
15.6215931424
14.2351353641
13.3882468332
13.9639965312
15.8337089758
17.4799026708
19.1633853894
17.564665743
16.3611022449
14.5193554829
13.2668909092
15.6063617581
14.3381694539
13.3629312048
13.0269494648
13.0338190446
13.3011815015
13.7263051203
14.3721956251
16.1286840203
20.0849504795
22.4451499332
21.5216185605
20.0894074897
21.1245474302
20.8300880117
18.8727000498
19.168703872
19.5838963997
20.0146029625
20.198338977
20.3457824279
20.4796575351
20.7590790652
21.0583645672
21.4393546552
21.8876511725
22.4168012601
22.9928641226
23.5236540794
23.8905443177
24.2407343186
24.6860939914
25.1258353686
25.3884231693
25.4529000501
25.5667011795
25.8817211267
26.4040670507
27.0913703957
26.502040312
11.552540051
8.60583261714e-06
2.82233839326e-09
1.14123708241e-10
1.55604240685e-12
4.26709116701e-15
0
0
0
0
0
0
0
0
0
0
0
0
0
1.73551699212e-18
1.72461356582e-17
3.78072660629e-16
1.83322205139e-14
1.01803027082e-10
0.0847371348617
1.63344505135e-06
13.373489067
13.5702301698
20.5967372735
15.9070051088
14.19355535
13.8610189183
14.7541220213
14.9653365846
18.4284688043
19.8828353195
18.0938059264
16.8822305517
15.203308687
15.2589419928
16.2287482392
14.7702949618
13.9935698986
13.6986520085
13.5256020382
13.6941437241
14.0187583697
14.5938791192
16.0739580415
19.9499712708
22.8445421099
23.1921256677
19.5275530281
19.7591926345
19.1662528112
18.9827231246
19.4370726543
20.0974483933
20.5107316051
20.7009581117
20.8530550889
21.1062673016
21.2095967508
21.4878106354
21.8495611168
22.2795055844
22.8794168651
23.5092952454
24.0647842836
24.3775517081
24.7412334893
26.0905368587
28.0187504963
28.547757181
27.1542215361
26.8894806485
27.0509404945
27.1463600057
26.5948259667
4.55405270269
6.86355398043e-05
3.07909823009e-16
3.11146690607e-13
5.0770565243e-15
0
0
0
0
0
0
0
0
0
0
0
0
0
0
0
0
0
0
2.68131934178e-17
1.815745171e-16
3.34838463704e-14
93.3355719788
13.7521645683
13.9165477542
20.3518771693
15.1278485994
14.2802458324
14.2644702722
15.6549252257
14.8082625469
19.2168668634
20.5646399288
18.6078380862
17.3735815062
15.7198908331
17.606502158
17.1221679643
15.4105142988
14.7266537868
14.7849487973
14.2436079598
14.2586375295
14.4124643884
14.8444186106
16.1698311399
19.7984361149
22.7007343819
24.3104037553
22.6408564357
21.3844592085
20.479060349
19.2813466577
19.7543510101
20.8189586706
20.8994618657
21.1846208537
21.7049477895
21.6592060125
21.7630933638
22.030745148
22.3933045302
22.8079416299
23.3042054635
23.9779582223
24.6905114127
25.5890697613
26.8251525355
28.6615261716
30.0472649673
29.788794938
29.587262627
30.3786659199
31.6606903485
32.9598104234
14.7260667508
0.0001890414432
2.4846141664e-08
3.37458226867e-10
0
0
0
0
0
0
0
0
0
0
0
0
0
0
0
0
0
0
0
0
0
0
8.25037638965e-17
6.00506633814e-06
14.2182536996
14.3644100853
19.895465518
14.6261648526
14.5070285143
14.5855323073
16.4148707045
15.1858459527
19.8740376716
21.2332927758
19.1268161108
17.8815477211
16.1601970005
18.2863012299
17.9449339971
16.1270385367
15.4443928842
15.6361170424
15.1143758223
15.0504707189
15.0205935729
15.1230510025
16.4309843114
19.7707056437
22.4110608392
24.6569526101
23.8729827592
21.761480847
19.4843965461
19.8149175898
20.3430285138
21.3604800291
21.9189486612
22.2982194184
22.5341831441
22.3016800154
22.3890143675
22.6746122679
23.034195836
23.4672109105
23.9486696614
24.6951681605
25.8328849335
27.6017570257
28.7432037347
28.9039663516
29.4999656142
29.9387568
32.3217376968
35.4698113064
40.7955654848
30.1985487702
0.000250569356774
4.32094009114e-08
8.86247064412e-11
2.14577462201e-12
7.20263704625e-15
0
0
0
0
0
0
0
0
0
0
0
0
0
0
0
0
0
0
0
0
0
1.38650350067e-17
1.83447077174e-17
14.9410162573
15.0895298222
19.4282708703
14.8052450324
15.0317277499
15.0142642796
16.2743711179
15.8863914571
20.3100058465
21.8630277734
19.6860665909
18.4477891416
16.7385185679
18.9172916562
18.6986785586
16.9597270631
16.2385711173
16.4735455403
15.9553980443
15.9931123143
15.9310984635
15.5718400366
16.894805132
19.9192740681
22.273086978
24.7563440615
24.3791850277
22.3162734093
19.8619662225
20.0057494329
21.0595714709
21.3619721662
21.7435875175
22.3874379813
23.4848885687
23.3242027103
23.3155033654
23.4045530656
23.7112452927
24.230955032
24.8307897283
25.6964305315
27.8654405792
29.892169856
29.8874111884
29.8486843994
30.9382229351
34.6534907422
39.2334896529
44.6174341043
27.521884878
8.95618038611e-06
3.70627688081e-10
1.2151665539e-13
7.62451844907e-16
1.54542810032e-15
2.3732008828e-16
0
0
0
0
0
0
0
0
0
0
0
0
0
0
0
0
0
0
0
0
0
1.02480542868e-18
4.6533403243e-18
16.0555634496
16.1527256991
19.576541103
15.6964951782
16.1989126086
15.8261975684
16.4431026731
17.2613596059
20.2146538025
22.3022073101
20.3170736378
19.0947414352
17.435479581
19.6376250728
19.4839976192
17.9723711817
17.2409381363
17.4786984653
16.8011982279
17.0428898355
17.1892740592
16.2785303846
17.4054025529
20.2397899792
22.3174900436
24.57983387
24.5951309739
22.8382543108
22.1500627406
20.8987626351
21.5058026418
22.380919857
23.4738927561
22.9322067444
23.5249770725
24.3988808604
24.3157915382
24.5314887598
24.6893752238
25.0652463421
25.8073512563
27.8648830976
31.021938098
31.8469335542
31.3451279028
32.5255391944
37.6307791539
44.6891221982
49.5725330247
1.93932141759
1.35690967383e-07
1.2668601985e-12
8.66827510088e-15
0
0
0
0
0
0
0
0
0
0
0
0
0
0
0
0
0
0
0
0
0
0
0
0
0
0
0
17.6430577384
17.4669678844
20.2559711474
17.6347695156
18.2218685119
17.0621109193
17.3115836092
19.2893423477
20.3082071086
22.8563593878
21.0795516568
19.8349560213
18.2296719032
20.3947367266
20.2640082554
19.0993711761
18.7776069822
18.8197126396
17.7364545483
18.2061649789
18.7785544431
17.3430600339
17.7678450274
20.6339904928
22.5475735453
24.3980043668
24.76655255
22.898843003
23.3417473977
22.5521111551
22.6593865736
21.8665404165
22.8850312895
24.3307736475
24.4692969113
24.9904926522
25.3209721728
25.5291205848
25.8963415884
26.2739330207
27.7266067097
31.5006860074
33.9762328483
34.1188165752
34.7744221124
39.138138264
47.5014131908
51.1739544304
0.0275088535126
1.21092970089e-09
2.1169607037e-12
9.69329314282e-15
0
0
0
0
0
0
0
0
0
0
0
0
0
0
0
0
0
0
0
0
0
0
0
0
0
0
0
0
19.3436507918
18.6995178222
21.0224511354
20.2691498534
19.9419722649
18.5258119985
18.2860081968
20.4120926432
19.2754953023
23.2673551859
21.9573504023
20.6611986009
19.1134207766
21.1685624577
20.9880306589
20.0312422789
21.0065852676
20.4540235267
18.8043420308
19.5253786473
20.150495222
18.7427645209
17.7996494606
20.5818215698
22.7016803979
24.2505026693
24.8115128714
22.9447314417
23.6661950122
23.8588389341
23.95613573
22.6091907368
23.2066446016
24.06582845
25.4088687499
26.222878629
26.5768462777
26.7194792101
27.0276499735
28.0413738078
31.5204498823
35.4517041838
37.1337765865
37.8923274348
40.721847047
47.0684782385
47.0517267418
0.00127539215669
3.26053311559e-09
4.72030959511e-12
1.65314348292e-14
0
0
0
0
0
0
0
0
0
0
0
0
0
0
0
0
0
0
0
0
0
0
0
0
0
0
0
0
0
20.1540190823
19.5714078339
21.5021329104
21.2928053464
20.985637219
19.9329240497
19.4654146961
21.7990954068
20.2856405033
23.813420174
22.8441931144
21.5382457773
20.0809244705
21.9788734129
21.7349081967
20.8172743681
21.9527447121
21.5314787103
19.8622655499
20.8519894424
20.8506877499
19.4959996539
18.8916334131
19.0785791307
22.1939038142
23.7403566367
24.5869276596
22.9110397092
23.7092286031
24.3660424403
24.9903328399
24.5867926181
23.3424928347
24.0469179517
25.6023539856
27.0814677457
27.9504608999
28.3900191415
28.7072819069
31.5347657813
36.0924566932
39.3134286884
40.6093235942
42.1403229685
46.1424599623
42.4734789198
0.00452724264084
1.72249222816e-08
1.55162150388e-11
4.41909837196e-14
0
0
0
0
0
0
0
0
0
0
0
0
0
0
0
0
0
0
0
0
0
0
0
0
0
0
0
0
0
0
20.2096200083
20.1466367771
21.8139845879
21.4865648665
21.6664362318
21.0415522351
20.5074150082
23.1626990807
22.0108029203
24.5358752974
23.7926863363
22.452015817
21.1261580341
22.8403677969
22.5591660528
21.7517960084
22.7328448182
22.4776360633
20.9971798413
21.86557485
20.4099409695
20.2186040879
19.929971083
20.2272916093
21.0984918107
22.0111101143
23.7384268565
22.7600638853
23.1800096313
24.3724492673
25.4266993602
25.9606026949
24.9356231763
24.8131587499
25.6771138233
27.1007521326
28.7598190928
30.1327440414
31.5677773073
35.962188547
40.3244441108
42.7489215159
43.386910571
43.951281527
39.530136607
6.0532636156
1.1682703337e-07
5.38964373924e-11
1.20733061542e-13
0
0
0
0
0
0
0
0
0
0
0
0
0
0
0
0
0
0
0
0
0
0
0
0
0
0
0
0
0
0
0
20.4679325792
20.5732682103
22.1124709665
20.4708361168
21.9615286019
21.6590704707
21.2223145045
23.7581456611
22.85345855
25.299273874
24.7954035062
23.3780175427
22.2593018863
23.7407484891
23.4327955366
22.8275058199
23.5859924167
23.5356531593
22.2531618688
23.2640572702
21.7603384986
21.9289633815
21.1833599952
21.5010193857
23.0169918339
23.6140958431
23.378694189
22.5514872095
22.6508226444
24.3295354903
25.4421954805
26.1954858248
26.4301263041
25.9114005307
27.2046568909
27.8528764081
29.4363450501
31.8041477616
35.2208392822
40.3433935205
44.0330459483
45.3575396973
43.7465032006
38.4538171635
29.9993037249
4.42097802216e-06
4.5225913374e-10
1.02959004826e-12
0
0
0
0
0
0
0
0
0
0
0
0
0
0
0
0
0
0
0
0
0
0
0
0
0
0
0
0
0
0
0
0
21.207733917
21.2816453358
22.4212729808
20.9053627069
22.220835584
22.0032922087
21.7420309957
23.9465179074
23.4635422087
25.871228144
25.7960912917
24.2614121761
23.4716811342
24.6387048876
24.2800389518
23.8777476228
24.4056995539
24.6854673281
23.5574299969
24.6598799369
23.5518848636
24.0690675425
23.7538788407
22.3949907679
23.6687158211
24.690114323
24.7575272082
22.4337150542
22.0408810324
24.2508624363
25.6094029119
25.741040742
26.1163473437
26.2416118032
27.4387688233
28.4258815352
30.2621715722
33.5631311431
39.017146652
44.6178426736
47.3242785701
46.4759586001
40.2474911416
34.4267500395
0.010627031157
5.14221915551e-09
7.17458821675e-12
2.90931147294e-14
0
0
0
0
0
0
0
0
0
0
0
0
0
0
0
0
0
0
0
0
0
0
0
0
0
0
0
0
0
0
0
0
22.14150399
23.2720323122
22.8793563981
21.9313384032
22.7782907908
22.4112104145
22.2494258954
24.1147913168
24.0320663066
26.0902409184
26.7830723746
25.067618624
24.5553689217
25.3702868882
25.0976470115
24.6707014047
24.6354753006
25.7420206179
24.9485323469
25.8775258139
25.5718328807
25.3752401416
25.1501639605
24.70593578
23.8721393215
24.692147534
25.7396431797
21.8418161047
21.5694298975
23.5237722767
25.6674484858
26.3996051612
27.0368311136
26.294730961
27.2928998786
28.6975288862
30.7439641236
35.2047298276
42.7022712208
48.596297839
49.9626665323
43.7868560992
39.0135544147
33.4498793984
3.87869455551e-07
4.8630009753e-11
1.24115481699e-13
0
0
0
0
0
0
0
0
0
0
0
0
0
0
0
0
0
0
0
0
0
0
0
0
0
0
0
0
0
0
0
0
0
22.8577505246
24.0208692798
23.6134010339
22.8632328321
23.5117097467
23.0127419629
22.8313656759
24.3743632247
24.5938125031
26.042738643
27.6748136705
25.8641152251
25.2133203842
25.9839058202
26.0087037611
25.4005727921
24.8294377945
26.4958913604
26.4061034871
26.9413671784
26.9096922422
26.996977172
25.580342133
25.5336017696
25.0165183903
26.3977942105
27.1172069459
23.9787355771
21.2001166961
22.5195430074
25.039774475
26.6753024888
27.2414382455
26.9469050683
26.9766328402
28.637792057
30.7384009551
36.4963919583
46.1418762665
52.5588476765
50.1956644627
41.2851313497
36.1025381876
0.0121722256217
1.66732521068e-09
1.43387586129e-12
4.81863720467e-15
0
0
0
0
0
0
0
0
0
0
0