/*--------------------------------*- C++ -*----------------------------------*\
| =========                 |                                                 |
| \\      /  F ield         | OpenFOAM: The Open Source CFD Toolbox           |
|  \\    /   O peration     | Version:  v1806                                 |
|   \\  /    A nd           | Web:      www.OpenFOAM.com                      |
|    \\/     M anipulation  |                                                 |
\*---------------------------------------------------------------------------*/
FoamFile
{
    version     2.0;
    format      ascii;
    class       volScalarField;
    location    "111";
    object      pa;
}
// * * * * * * * * * * * * * * * * * * * * * * * * * * * * * * * * * * * * * //

dimensions      [0 2 -2 0 0 0 0];


internalField   nonuniform List<scalar> 
6400
(
-0.123340224577
-0.123341829345
-0.123346294586
-0.123354715074
-0.123366451249
-0.123381279525
-0.123399380083
-0.12342175553
-0.123448253994
-0.123478434578
-0.123516797569
-0.123565648252
-0.123621716629
-0.123685303232
-0.123758291983
-0.123842667735
-0.123938844609
-0.124046132267
-0.12416385356
-0.124288476777
-0.124414137714
-0.124540161025
-0.124670951188
-0.124812097998
-0.124968080956
-0.125139002512
-0.125321696428
-0.125514230788
-0.125717178362
-0.125932099711
-0.12616056519
-0.126401924916
-0.126650590844
-0.126901097393
-0.127152769332
-0.127401097045
-0.127643795589
-0.127891793867
-0.12814468546
-0.128387440106
-0.128621305556
-0.128867014142
-0.129135883171
-0.129418061205
-0.129705014884
-0.129992059299
-0.13027515753
-0.130552919685
-0.130824317112
-0.131088558015
-0.131346651451
-0.13159147899
-0.131817097824
-0.13201379878
-0.132183740805
-0.132343086095
-0.13248769576
-0.132602102245
-0.132684237593
-0.132744114887
-0.132786885862
-0.132814093787
-0.13282845125
-0.132831781751
-0.132825933773
-0.132804310407
-0.132763344915
-0.132709105593
-0.132651004932
-0.132593531568
-0.132536863439
-0.132479217649
-0.132419407464
-0.132360947367
-0.132304001439
-0.132251078502
-0.13220415354
-0.132171796865
-0.132149968869
-0.132140931378
-0.123337932452
-0.12333961079
-0.12334347947
-0.123351728633
-0.123364758053
-0.123380934424
-0.123399535014
-0.123420620005
-0.123445606872
-0.123475957638
-0.123514037028
-0.123561631481
-0.123617881195
-0.123682441921
-0.123755853738
-0.123839079165
-0.123934661514
-0.124042523848
-0.1241618239
-0.124288025097
-0.12441216961
-0.124536031413
-0.12466584735
-0.12480605795
-0.124962004084
-0.125133871304
-0.125316427589
-0.125509258438
-0.125713125883
-0.125928836825
-0.126156684741
-0.126397995631
-0.126648079046
-0.126898469814
-0.127150769453
-0.127399575807
-0.127641438371
-0.127890048251
-0.128144039254
-0.128385338408
-0.128611193911
-0.12885290473
-0.129130479371
-0.129418234646
-0.129707662027
-0.129997379669
-0.130282576026
-0.130562706372
-0.130835305373
-0.131096340664
-0.131347267226
-0.131592663273
-0.131833903309
-0.132033711777
-0.132204478733
-0.132370500174
-0.132509592138
-0.132615742574
-0.13269627979
-0.132755185359
-0.132795162268
-0.132823051937
-0.132838357945
-0.132841697556
-0.132836097114
-0.132814947063
-0.132773318945
-0.132717525543
-0.132657707124
-0.132598498828
-0.132540085424
-0.132480469161
-0.132418014974
-0.132356061923
-0.132297371305
-0.132243731848
-0.132198324424
-0.13216528618
-0.132143450823
-0.132135766495
-0.12333146861
-0.123334403377
-0.123337607198
-0.123345109631
-0.123357746813
-0.123376235132
-0.123397074023
-0.123417525114
-0.123440840716
-0.12347023531
-0.123507665821
-0.123554458242
-0.123610580832
-0.123675519172
-0.123749007919
-0.123828836394
-0.123922292255
-0.124036881455
-0.124159823547
-0.124285096611
-0.124405381045
-0.124522574349
-0.124649766821
-0.124792492945
-0.124948554168
-0.125118779205
-0.125302215491
-0.125496701986
-0.1257017795
-0.125918463895
-0.126146614211
-0.126388144407
-0.126641274376
-0.126890095363
-0.12713935901
-0.127392830045
-0.127633473083
-0.127877721062
-0.128132499916
-0.1283764727
-0.128611947817
-0.128859239014
-0.129129293044
-0.129412787438
-0.12970158227
-0.129991571081
-0.130279254658
-0.130562401183
-0.130838733111
-0.131106042462
-0.131363738194
-0.131610397747
-0.131840407303
-0.132045547762
-0.132233713962
-0.132401055523
-0.132534883368
-0.132639178768
-0.132718607939
-0.132776544542
-0.132816970453
-0.132844130314
-0.13285769083
-0.132862767802
-0.132858701556
-0.132836875807
-0.132794310224
-0.132736493356
-0.132672728611
-0.132609099676
-0.132546097847
-0.132481518485
-0.132415315822
-0.132350254189
-0.132288367428
-0.132232662626
-0.132186824504
-0.13215266923
-0.132130652065
-0.132122447226
-0.123323132633
-0.123325927531
-0.123328112937
-0.123334957106
-0.123345910354
-0.123364104904
-0.123392243151
-0.123412518697
-0.123433847972
-0.123461526901
-0.123497982325
-0.123544223652
-0.123600334823
-0.123664431099
-0.123737945807
-0.123824066184
-0.123923356348
-0.124035659355
-0.124152215099
-0.124265678985
-0.124379604414
-0.124499441607
-0.124628191339
-0.124769926133
-0.12492622964
-0.125097396261
-0.125282357636
-0.125478583191
-0.125685534578
-0.12590321038
-0.126133432226
-0.126375996574
-0.126629273327
-0.126885137996
-0.127129588495
-0.127375104037
-0.127623106947
-0.127864709787
-0.128107777317
-0.128352627289
-0.128598293682
-0.128853169557
-0.129123778163
-0.129406651213
-0.129696154215
-0.12998804883
-0.130278823868
-0.130565838891
-0.130846696667
-0.131119234009
-0.131381704828
-0.131631742728
-0.131865542221
-0.132078993634
-0.132271805304
-0.132438207321
-0.13257243683
-0.132676532254
-0.132754931816
-0.13281172291
-0.132850918327
-0.132876007304
-0.132889722829
-0.132898247116
-0.132895520505
-0.132873485628
-0.132828481064
-0.132766032047
-0.132695770271
-0.132625168171
-0.132556072915
-0.132486593067
-0.132415605194
-0.132343223431
-0.132273574538
-0.13221435361
-0.132167561221
-0.132128763069
-0.132101632875
-0.132089933889
-0.123310081618
-0.123310167816
-0.123312963839
-0.12331990055
-0.123332061469
-0.123348941214
-0.123373652331
-0.123396788784
-0.123419913767
-0.123448203305
-0.123484019904
-0.123529941697
-0.123586384124
-0.123655667309
-0.123736764098
-0.123824394466
-0.123919342895
-0.124020750084
-0.124126035754
-0.124235778726
-0.124350494111
-0.12447019936
-0.124598889651
-0.124740923084
-0.124897648722
-0.125069960544
-0.125256098296
-0.125454546813
-0.125663529209
-0.125884006597
-0.126115492109
-0.126362358308
-0.126622794948
-0.126871514459
-0.127114963562
-0.12735663995
-0.127594138329
-0.127834200093
-0.128078401026
-0.128326621482
-0.128579156574
-0.12884009732
-0.129113248038
-0.129397457216
-0.129688992783
-0.129983965496
-0.13027888104
-0.130570856497
-0.130857430947
-0.13113635066
-0.131405373255
-0.131661753759
-0.131902134229
-0.132122973426
-0.132320713477
-0.132489359798
-0.132624992189
-0.132729618157
-0.132807700239
-0.132863501939
-0.132901149276
-0.132924546591
-0.132938206884
-0.13294936533
-0.132944964991
-0.132922516168
-0.132876256403
-0.132808881576
-0.132730037463
-0.132649857175
-0.132572590445
-0.132495411788
-0.13241367492
-0.132328416855
-0.13224992133
-0.132184831287
-0.132129793125
-0.132078332301
-0.132044221789
-0.132031535354
-0.123285125911
-0.123284433774
-0.123290127191
-0.123296866903
-0.123310074448
-0.123328595013
-0.12335062851
-0.123374422075
-0.123399924291
-0.123429528147
-0.123464053372
-0.123510559978
-0.123574779933
-0.123650782461
-0.123731590585
-0.123814822759
-0.123901564471
-0.123994564589
-0.124095903505
-0.124204003927
-0.124315583114
-0.124433674873
-0.124562541361
-0.12470543491
-0.124863141417
-0.125035452221
-0.125224010756
-0.125424331803
-0.125636720155
-0.125859554193
-0.126095801705
-0.126345140636
-0.126602346396
-0.126858952861
-0.127093763377
-0.127322657613
-0.127556175754
-0.127796598944
-0.128043276093
-0.128295590531
-0.128553897736
-0.128820514289
-0.129097658241
-0.129384973301
-0.129679928115
-0.129979150867
-0.130279261765
-0.13057732565
-0.130870889598
-0.131157700272
-0.131435299017
-0.131700701657
-0.131950291891
-0.132179717697
-0.132383691809
-0.132556410354
-0.132695151291
-0.132801928985
-0.132880732553
-0.132935703748
-0.132971245617
-0.132993119368
-0.133008591752
-0.133016869832
-0.133011356078
-0.132986869389
-0.132938201172
-0.132865904323
-0.13277767086
-0.132685880809
-0.132597015421
-0.132505639787
-0.132406075174
-0.132305677535
-0.132215536257
-0.132138194962
-0.132066034084
-0.131999690416
-0.131958664877
-0.131939901127
-0.12324638328
-0.123249000695
-0.123259635484
-0.123270064457
-0.123280500322
-0.12329863728
-0.123322367491
-0.123346536139
-0.123373943539
-0.123404981832
-0.1234425268
-0.123490860249
-0.12356125299
-0.123637259758
-0.123714663727
-0.123790858219
-0.123871459288
-0.123962647472
-0.124063262887
-0.124165857737
-0.124273665212
-0.124391273611
-0.124520060229
-0.124662608063
-0.124820844627
-0.124997213666
-0.125184660305
-0.125388407132
-0.125604108934
-0.125834078993
-0.126074247954
-0.126322437442
-0.126580173073
-0.126826020763
-0.127055732167
-0.127278910134
-0.127510968685
-0.127752820284
-0.128002509489
-0.128258904979
-0.128522431532
-0.128794599785
-0.129076683125
-0.129368493833
-0.129668180635
-0.129972829011
-0.130279266917
-0.130584679929
-0.13088676362
-0.131183344303
-0.131471843817
-0.131748917946
-0.132010237972
-0.132250331643
-0.132462904062
-0.132642437205
-0.13278683199
-0.132897711173
-0.132978129428
-0.133031362257
-0.133063010109
-0.133082658509
-0.133096424456
-0.133099523549
-0.133100274972
-0.133074395369
-0.13301983626
-0.132939748478
-0.132840986923
-0.132735157197
-0.132628358291
-0.132515127391
-0.13239361142
-0.132275297657
-0.132167473683
-0.132068400963
-0.131972296283
-0.131890771117
-0.131840057189
-0.13181546988
-0.123201523853
-0.12320697019
-0.123219756937
-0.123236055316
-0.123247577135
-0.123265384706
-0.123288181003
-0.123313244878
-0.123343214275
-0.123372121624
-0.123414925031
-0.123472621714
-0.123541096274
-0.123614887609
-0.123686087356
-0.123755412835
-0.123835059312
-0.123927618388
-0.124023128017
-0.124120542761
-0.124225299313
-0.124342171569
-0.12447108541
-0.124615053305
-0.124775086947
-0.12495202768
-0.12514396699
-0.125343334326
-0.125567822802
-0.125808660526
-0.126047676001
-0.126288135248
-0.126543312619
-0.126780242026
-0.127001530453
-0.12722608463
-0.12745940129
-0.1277028885
-0.12795543488
-0.128215853312
-0.128484400071
-0.12876217873
-0.129049933087
-0.129347375844
-0.129652978524
-0.129964196265
-0.13027815193
-0.130592317575
-0.130904660272
-0.13121315271
-0.131515109719
-0.131806720739
-0.132082740295
-0.132336534781
-0.132561112952
-0.132751098443
-0.132904364116
-0.133021318569
-0.133102913233
-0.133150961506
-0.133174279156
-0.133187022938
-0.133194963559
-0.133199171081
-0.133202636426
-0.133186682322
-0.133127659046
-0.133036337629
-0.132923227468
-0.132798036205
-0.132666486796
-0.132525534178
-0.132378869608
-0.132236632171
-0.13210212408
-0.131971917539
-0.131849667573
-0.131750000869
-0.131689722926
-0.131659724423
-0.123152664114
-0.123160191986
-0.123173301675
-0.12318597318
-0.123201776284
-0.123225506962
-0.123247202355
-0.123272715857
-0.123307021569
-0.123339210486
-0.12337867128
-0.123442658184
-0.123512692883
-0.123581939615
-0.1236476753
-0.123716300782
-0.123794394549
-0.123884135161
-0.123975023659
-0.124069316419
-0.124171551807
-0.124285993728
-0.124413219189
-0.124556883374
-0.124725237996
-0.124900808249
-0.125096684642
-0.125304850053
-0.125527517625
-0.125765978705
-0.126009877826
-0.126258611124
-0.126490721285
-0.126716699417
-0.12693869481
-0.127165565679
-0.127400886048
-0.127646178035
-0.127901370218
-0.128165712834
-0.128439298271
-0.12872286878
-0.129016862374
-0.129320872546
-0.129633463067
-0.129952354319
-0.130275063098
-0.13059950533
-0.130924013538
-0.131246756452
-0.131564977108
-0.131874371281
-0.132168712176
-0.132440258567
-0.132681341025
-0.132886316277
-0.133052005107
-0.13317591176
-0.133255379065
-0.133291112258
-0.133300817312
-0.133306524393
-0.133312479455
-0.133316919204
-0.133317061912
-0.133311720093
-0.133267742974
-0.133161816649
-0.133029151955
-0.132878718073
-0.132715241082
-0.132541289715
-0.132364090599
-0.132189238802
-0.132017277949
-0.131849043984
-0.131697352582
-0.131576782413
-0.131500201581
-0.131465301661
-0.123099771505
-0.123108971241
-0.123124167529
-0.123136472267
-0.123152794902
-0.123177027227
-0.123198945801
-0.123224235815
-0.123256235773
-0.123299630908
-0.123341930751
-0.123404898717
-0.123474796711
-0.123539567071
-0.123599883783
-0.123669891429
-0.123750611215
-0.12383456968
-0.123919957698
-0.124011540615
-0.124112816408
-0.124225594096
-0.124351280508
-0.124491166486
-0.12466444205
-0.124848115811
-0.125033637675
-0.125251307402
-0.125476302597
-0.125719758867
-0.125962997299
-0.126205182514
-0.126431606447
-0.126646839068
-0.126868243992
-0.127097385488
-0.127334881308
-0.12758211488
-0.12783974599
-0.12810776242
-0.128386383615
-0.128676016454
-0.128976771517
-0.129288113969
-0.129608654578
-0.129936314551
-0.13026904014
-0.130605329824
-0.130944000865
-0.131283476805
-0.13162099717
-0.131951851568
-0.132268916453
-0.132563357919
-0.13282667283
-0.13305211696
-0.13323350262
-0.133362282806
-0.133429128552
-0.133440772242
-0.133438396211
-0.133443231232
-0.133451922698
-0.13345731912
-0.133454456902
-0.133442199649
-0.133408252787
-0.133325543011
-0.133165893814
-0.132981383841
-0.132779774904
-0.132567503074
-0.132351439421
-0.132132628882
-0.1319118708
-0.131698141912
-0.131508219928
-0.131355934607
-0.13125313765
-0.131201694175
-0.123040141497
-0.123049370323
-0.123065346767
-0.123081372805
-0.123103105009
-0.123122092024
-0.123143357231
-0.123169730648
-0.123195155782
-0.123242764759
-0.123294012333
-0.123356467026
-0.123425830864
-0.12348890291
-0.123547488937
-0.123615859003
-0.123696933425
-0.123776856027
-0.123857920426
-0.123945827528
-0.124046108674
-0.124159034637
-0.124287808755
-0.124425298753
-0.124588496661
-0.124786866682
-0.124978803531
-0.125192231888
-0.125416410324
-0.125644875047
-0.125897411945
-0.126137012242
-0.12635656155
-0.126568319009
-0.126790170076
-0.127021157257
-0.127260775241
-0.127510108388
-0.127770083434
-0.128041390493
-0.128324849492
-0.128620747358
-0.128928741347
-0.129248088395
-0.129577429072
-0.129914912636
-0.13025895898
-0.130608705677
-0.130963531801
-0.131322230506
-0.131682208865
-0.132038555501
-0.132383468846
-0.132707195966
-0.133000032878
-0.13325243255
-0.133451164804
-0.133571948126
-0.133603867795
-0.133591365475
-0.1335885255
-0.13360247051
-0.133619965281
-0.133629426164
-0.133622116317
-0.133594405952
-0.133546603886
-0.133479835352
-0.133338825565
-0.133118452103
-0.132870351837
-0.132610497703
-0.132344382933
-0.132067583564
-0.131784283631
-0.131511973
-0.13126631501
-0.13106218418
-0.130912553277
-0.1308345647
-0.122972893227
-0.122980191016
-0.122991256071
-0.123012278484
-0.123041514641
-0.123058770324
-0.123079795451
-0.12310877937
-0.123132500714
-0.123176037165
-0.123233805778
-0.12329726031
-0.123364999022
-0.123427535912
-0.123490033019
-0.123558042539
-0.123635866271
-0.123711557604
-0.123789274411
-0.123873523794
-0.123969676617
-0.12407903656
-0.124215073337
-0.124363036764
-0.124516696183
-0.124711799014
-0.124911213899
-0.12511453045
-0.12535159231
-0.12558386585
-0.125821220789
-0.126047091344
-0.126262309217
-0.12647939714
-0.126703225148
-0.126935939148
-0.127177677663
-0.127429325665
-0.127691839465
-0.127966090971
-0.128253822979
-0.128555948848
-0.128871658634
-0.129199620582
-0.129538502242
-0.129886815264
-0.130243496918
-0.130608294603
-0.130981162523
-0.131361414566
-0.131746837605
-0.132132713949
-0.132511309606
-0.132872370498
-0.133203944442
-0.133489711074
-0.133696525452
-0.133780297892
-0.133767255739
-0.133748054986
-0.133760527402
-0.133796598309
-0.133831073519
-0.133849179509
-0.133835906852
-0.133791005381
-0.133718152939
-0.133630316591
-0.133506151068
-0.13328833595
-0.133004037249
-0.132681768439
-0.132351238925
-0.131997835308
-0.131630300061
-0.131278941694
-0.130950943835
-0.130666636619
-0.130455745552
-0.130338941897
-0.12289720993
-0.122902514579
-0.122906648782
-0.122930805749
-0.122959205112
-0.122981091122
-0.123004019043
-0.123036038863
-0.123063728608
-0.123104868488
-0.12316458491
-0.123227801453
-0.123293214347
-0.123352068244
-0.123419164665
-0.123492563723
-0.123566663128
-0.123638501678
-0.123713499752
-0.123795229764
-0.123886839884
-0.123989200768
-0.124120837512
-0.124288100826
-0.124445452443
-0.124622928415
-0.124833926523
-0.125039519491
-0.12526069658
-0.125496175958
-0.125729742758
-0.125949913292
-0.126160205084
-0.126379736462
-0.126606168184
-0.126840942512
-0.127084652594
-0.127338301618
-0.127603673301
-0.12788134825
-0.128172943041
-0.128480619475
-0.128804061904
-0.129141227232
-0.129490390406
-0.12985048533
-0.130221092893
-0.130602480398
-0.130995079857
-0.131398763641
-0.131811981097
-0.132230971672
-0.13264947282
-0.13305730719
-0.133438725383
-0.133758145721
-0.133948389706
-0.133961862532
-0.133923041214
-0.133919423167
-0.133968002131
-0.134044921757
-0.134105867072
-0.134142487489
-0.134121886325
-0.134050095417
-0.13393925467
-0.133808544614
-0.133675556802
-0.13347792394
-0.133187922783
-0.132796782585
-0.13238719523
-0.131932884785
-0.131444596081
-0.130991014035
-0.130545420955
-0.130146503646
-0.129844635885
-0.129676161602
-0.122814752518
-0.122820765577
-0.122829032775
-0.122844111018
-0.122867864129
-0.122892322075
-0.122917997828
-0.122950486889
-0.122985828403
-0.123026092751
-0.12308645554
-0.123149071382
-0.123212464978
-0.12326881813
-0.123333488672
-0.123411948826
-0.123486123806
-0.123556545884
-0.123629640475
-0.123709507342
-0.123798126143
-0.123894831584
-0.124018868129
-0.12419260331
-0.124362842928
-0.124532619806
-0.124744303786
-0.124955532742
-0.125165291423
-0.12539546723
-0.125615592138
-0.125829345682
-0.126045701226
-0.126268724475
-0.126497876725
-0.126734813774
-0.126981102075
-0.127236873268
-0.127504114559
-0.127785205067
-0.128081245426
-0.12839418121
-0.128724776177
-0.129071167384
-0.129431222094
-0.129804105076
-0.130189975923
-0.130589397402
-0.131002984411
-0.131431203972
-0.131873244205
-0.132327407046
-0.132791540865
-0.133257647861
-0.133700948444
-0.134036022772
-0.134170170521
-0.134104799494
-0.134075846883
-0.134116625943
-0.13423110537
-0.134377600952
-0.134470958437
-0.134556956003
-0.134483964457
-0.134340876217
-0.134163096391
-0.133967467901
-0.133788581369
-0.13362907479
-0.133505644198
-0.132957336449
-0.13246387768
-0.131874902993
-0.131215258478
-0.130654656195
-0.130040880052
-0.129468489095
-0.129023038035
-0.128751574185
-0.122722310409
-0.122728893865
-0.122744511246
-0.122751507944
-0.122769907468
-0.122794844411
-0.122822414702
-0.122857040764
-0.122901593522
-0.122940048038
-0.122999567327
-0.123061483583
-0.123123759405
-0.12317989468
-0.123243111749
-0.12332206035
-0.123396062913
-0.123466043051
-0.123537906228
-0.123615777918
-0.123702073296
-0.123796042685
-0.123910446503
-0.124076524658
-0.124266587927
-0.124439473714
-0.124634802354
-0.124861976109
-0.125078125918
-0.125282608484
-0.125491161512
-0.125702055745
-0.125920352311
-0.126145785424
-0.126377606149
-0.126616996622
-0.126865137515
-0.12712354341
-0.127393174807
-0.12767661313
-0.127976793049
-0.12829524908
-0.12863267572
-0.128987805544
-0.129358846876
-0.129745494377
-0.130148005726
-0.130566893928
-0.131002446072
-0.131454980228
-0.131924553026
-0.132413621107
-0.132927216397
-0.133461137646
-0.133971650979
-0.134277201104
-0.134245280702
-0.134195808938
-0.134223657375
-0.134359428361
-0.134577386106
-0.134848427419
-0.134842895076
-0.134761505786
-0.134674452199
-0.134537790317
-0.134353976158
-0.134146879256
-0.133933192819
-0.133681392548
-0.133361585341
-0.13321008161
-0.132848700599
-0.132093747569
-0.130911926965
-0.130288228564
-0.129427542992
-0.128577891419
-0.127879853322
-0.127412149596
-0.122618727794
-0.122624448703
-0.122637302792
-0.122645766427
-0.122661569217
-0.122687386303
-0.122715522781
-0.122748448823
-0.122801567237
-0.122844845298
-0.122902960123
-0.122964724508
-0.123026709346
-0.123084777605
-0.123147774843
-0.123225123549
-0.123298153442
-0.123367969698
-0.123438901636
-0.123514896946
-0.123598398121
-0.123690392412
-0.12379865917
-0.123953942432
-0.124152139304
-0.124337190906
-0.124518010208
-0.124732625939
-0.124957059567
-0.125161286483
-0.125360467844
-0.125566733897
-0.125784868935
-0.126011956924
-0.126245857101
-0.12648674559
-0.126736741356
-0.126996806298
-0.127269014802
-0.127554982715
-0.127858413338
-0.12818203503
-0.128526364365
-0.128889606917
-0.12927058286
-0.129671146706
-0.130092638579
-0.130533765582
-0.130991283129
-0.131464784728
-0.131958388887
-0.132478359733
-0.133037860497
-0.133649675197
-0.134254813881
-0.134362055749
-0.134278670755
-0.134246422466
-0.134409964231
-0.134714987625
-0.13493665829
-0.134890053192
-0.134798523056
-0.134641312073
-0.134399082153
-0.134054445998
-0.133646442294
-0.133250573695
-0.132925541191
-0.132635599643
-0.132251202707
-0.13149895077
-0.130686353238
-0.129943979659
-0.130122277376
-0.130403645404
-0.129035368193
-0.127397532993
-0.126266555791
-0.125373994214
-0.122505419501
-0.122510213477
-0.122523063541
-0.12253082936
-0.122545989898
-0.122571441696
-0.122599590835
-0.122628615804
-0.122680618255
-0.122733878785
-0.122794344399
-0.122857188749
-0.122920073332
-0.122982758464
-0.123045529323
-0.123120898912
-0.123192711681
-0.123262759207
-0.12333288826
-0.123407159504
-0.12348789657
-0.123576713593
-0.123679950628
-0.123823799308
-0.12401582567
-0.124221194363
-0.124402323216
-0.124599365081
-0.124811749001
-0.125012325037
-0.125207686463
-0.125416217732
-0.125635799081
-0.125864441945
-0.126100766072
-0.126343932743
-0.126594967706
-0.126856616033
-0.12713050134
-0.127418962846
-0.127725276399
-0.128052606555
-0.128402953114
-0.128774385424
-0.129164808914
-0.12957983028
-0.130022655603
-0.130487707633
-0.130965198804
-0.131455941063
-0.131968165784
-0.132510845218
-0.133096243233
-0.133737744688
-0.134388098066
-0.13438230212
-0.134328373419
-0.134400260136
-0.134740137691
-0.134739779448
-0.134667798072
-0.134533518298
-0.134153659709
-0.133528063771
-0.132704504918
-0.131705696536
-0.130608394037
-0.129529649964
-0.128574321504
-0.127754074047
-0.126978622979
-0.126159937365
-0.125500621285
-0.125104049302
-0.124810169236
-0.124819109728
-0.124707503787
-0.125424184245
-0.124356615237
-0.122312330199
-0.12238480227
-0.122388513529
-0.12239725769
-0.122405723344
-0.122423753088
-0.122448470058
-0.122477464087
-0.122504450036
-0.122553884892
-0.122612065272
-0.122674287181
-0.122737508966
-0.122799936149
-0.122868901675
-0.122933986095
-0.123007181388
-0.123078135494
-0.123149580362
-0.123219293816
-0.123292101951
-0.123370227372
-0.123455265841
-0.123553553928
-0.123687357656
-0.1238704991
-0.124084356225
-0.124279235578
-0.124466324274
-0.12466133811
-0.124851191537
-0.125042712922
-0.125250929046
-0.125470435961
-0.125700126856
-0.125938857781
-0.126184850881
-0.126438562227
-0.126701451929
-0.126977192267
-0.127267291271
-0.127575418031
-0.127906576737
-0.128262485182
-0.128641247296
-0.129035122652
-0.129454911928
-0.129921316358
-0.130425070374
-0.130927252227
-0.131428626805
-0.131951758307
-0.13250317598
-0.133090631988
-0.133722949647
-0.134471986797
-0.13450410735
-0.134515479455
-0.134494972345
-0.1343832926
-0.134216613394
-0.133830433975
-0.133155893028
-0.132096190043
-0.130671858443
-0.128958930595
-0.127034507004
-0.125003903846
-0.122993058451
-0.121104138785
-0.119372006158
-0.117776570973
-0.116314876458
-0.115107933642
-0.114348249481
-0.114380419177
-0.115588542971
-0.117378967435
-0.118429824743
-0.1185741894
-0.116776917623
-0.122258056972
-0.122260714734
-0.122265464434
-0.122274951533
-0.122295574668
-0.122318863298
-0.122348139863
-0.122376633139
-0.122421302097
-0.122481091453
-0.122543476337
-0.122606253422
-0.122666349303
-0.122736029751
-0.122808313008
-0.122881334455
-0.122951616049
-0.123024668427
-0.123096001799
-0.123168317043
-0.123244656732
-0.123325281497
-0.123418425042
-0.123542708513
-0.123712509995
-0.123917208338
-0.124125940248
-0.124314386041
-0.124499514242
-0.124682072306
-0.124865914671
-0.125070944657
-0.125290911997
-0.125517674145
-0.125758742669
-0.126007751207
-0.126263023288
-0.126528310369
-0.126806586204
-0.127100022013
-0.127409966956
-0.12774198792
-0.128100143431
-0.128486120314
-0.128896904771
-0.129335937282
-0.129817394584
-0.130326169183
-0.130842812624
-0.131368165182
-0.13190909381
-0.132467483059
-0.133036694802
-0.133641776136
-0.134245233169
-0.134939949543
-0.134640602976
-0.134077853551
-0.133565884293
-0.13287712268
-0.13179574455
-0.1302287323
-0.128219358832
-0.125849150621
-0.123218548377
-0.120440676776
-0.117637626759
-0.114921641425
-0.112354687703
-0.109924636094
-0.107595813736
-0.105403529357
-0.103318660351
-0.101511059874
-0.100532359113
-0.101069699496
-0.103045291693
-0.105016903035
-0.107900741445
-0.122005763196
-0.122126454383
-0.122128799854
-0.122131591811
-0.122143371961
-0.122163113591
-0.122183756164
-0.122209600657
-0.122241606466
-0.122281292941
-0.122340497255
-0.122402532225
-0.122464424657
-0.122523319396
-0.122589969967
-0.12266765863
-0.122742780135
-0.122813508248
-0.122886641855
-0.12295992111
-0.123033475476
-0.123109838313
-0.123186269316
-0.12327387355
-0.123389422839
-0.123545695531
-0.123737292585
-0.123944009326
-0.124137369474
-0.124311224757
-0.124486250851
-0.124670669219
-0.124867243033
-0.125084577628
-0.125313034967
-0.125557422861
-0.125809653115
-0.126066711437
-0.126334342199
-0.126615342518
-0.126912159016
-0.127226017784
-0.127560625546
-0.127926143429
-0.128329029444
-0.128765719706
-0.129220786969
-0.129703289149
-0.130216430699
-0.130756244971
-0.131322360335
-0.131903058529
-0.132467405662
-0.132947150112
-0.133439696317
-0.133658157882
-0.135114514946
-0.134149154892
-0.132929754091
-0.131780989155
-0.130208770484
-0.128144150961
-0.125575620877
-0.122622796769
-0.119410243225
-0.116055243157
-0.112660787418
-0.109308919669
-0.106042597498
-0.102845403275
-0.0996431191199
-0.0963591028644
-0.0930089986052
-0.089610458187
-0.0861895865809
-0.083147880819
-0.0811612894484
-0.0804225319379
-0.0786174753649
-0.0698538996404
-0.053038136086
-0.121987311896
-0.121989399728
-0.121992497084
-0.122007625199
-0.122025887763
-0.122043436721
-0.122064438278
-0.122098440099
-0.122132007236
-0.122189500744
-0.122251064784
-0.122312416605
-0.122370704561
-0.122436101837
-0.122515047153
-0.122592180213
-0.122664257724
-0.122737705242
-0.122810942555
-0.122885569078
-0.122963462226
-0.123037060144
-0.123118053051
-0.1232254543
-0.123369051086
-0.123546324554
-0.12374644441
-0.123939681611
-0.124118879685
-0.124281491797
-0.124461542441
-0.124654903786
-0.124863426293
-0.125081180884
-0.125323175555
-0.125584578719
-0.125846824252
-0.126118915332
-0.126401859846
-0.126700966383
-0.127020194725
-0.12736254658
-0.127742202949
-0.12817052062
-0.128624716115
-0.129090077234
-0.129583107489
-0.130126846758
-0.130732331092
-0.131374948504
-0.13203006091
-0.13257481167
-0.132938690821
-0.133781166516
-0.132993921929
-0.132093958281
-0.131507475685
-0.13026725996
-0.128443575039
-0.125930046619
-0.122888602099
-0.119404073258
-0.115631723903
-0.111686927855
-0.107655407192
-0.103582275617
-0.0994792706126
-0.0953253617044
-0.0910672026605
-0.0866333926078
-0.0819597007272
-0.0770184429782
-0.0718242021308
-0.0662449754889
-0.0603369620036
-0.0545620216835
-0.0483181803928
-0.0361033522621
-0.00688395800175
0.0307866108279
-0.121837764048
-0.121839479699
-0.121843632923
-0.121863062155
-0.121879896052
-0.121895011374
-0.121913210585
-0.121945931136
-0.121973494862
-0.122027643893
-0.122088750569
-0.122149204001
-0.122207167894
-0.122271258094
-0.122349586617
-0.122428088615
-0.12250310797
-0.122576791872
-0.122648817946
-0.122723462305
-0.122802836435
-0.12287546224
-0.122948813399
-0.123048019279
-0.123180252743
-0.123342237899
-0.123530281158
-0.123712333558
-0.123896989614
-0.124063170388
-0.124232697733
-0.124414329881
-0.124620507227
-0.124841642741
-0.125069626813
-0.125327147693
-0.125596424131
-0.125873962089
-0.126163828178
-0.12646642276
-0.126788917195
-0.127144660082
-0.127549233732
-0.127999176286
-0.128460708062
-0.128936943784
-0.129466467288
-0.13008766673
-0.130802335109
-0.131541511059
-0.13229507097
-0.132905377426
-0.132586980098
-0.132028093005
-0.131168516093
-0.129786420995
-0.12840591492
-0.126418757343
-0.123700767818
-0.120266423101
-0.116322600603
-0.112007975792
-0.107479415417
-0.102824410125
-0.0980942118075
-0.0933019113779
-0.0884382489891
-0.0834756809038
-0.0783651366183
-0.073032421235
-0.0673700630047
-0.0612101312299
-0.0543494330594
-0.0466198208611
-0.0379064396092
-0.0282588095574
-0.0158275225838
0.00769086303636
0.0540820332385
0.106530697731
-0.121671063903
-0.121672545326
-0.121678259612
-0.121701546868
-0.121716635067
-0.121732028532
-0.121748593587
-0.121777609588
-0.121801405059
-0.121853919927
-0.121914626437
-0.121974322226
-0.122031517072
-0.122093852881
-0.122170133081
-0.122247973284
-0.122327078895
-0.122401538446
-0.12247216237
-0.12254578065
-0.122624696046
-0.122698963623
-0.122765152922
-0.122854918974
-0.122977158525
-0.123124606131
-0.123298106048
-0.123466068776
-0.123638442857
-0.12381353962
-0.123987044837
-0.12415978372
-0.124344403528
-0.124560147084
-0.124795222487
-0.125045932063
-0.125316024223
-0.125596452831
-0.125891089481
-0.126201007854
-0.126533771003
-0.12690667531
-0.127335241096
-0.127795148595
-0.12826871915
-0.128778042571
-0.129373571776
-0.130095944231
-0.130907957457
-0.131579551781
-0.132267410471
-0.132010878746
-0.13127091386
-0.130218679989
-0.129023313239
-0.127247430939
-0.124924726051
-0.12182627906
-0.118031597125
-0.113638208497
-0.108844378057
-0.103794979583
-0.0986265400942
-0.0934072137599
-0.0881724779314
-0.082924126954
-0.0776390921807
-0.0722638003633
-0.0667086266378
-0.0608380747541
-0.0544551803736