/*--------------------------------*- C++ -*----------------------------------*\
| =========                 |                                                 |
| \\      /  F ield         | OpenFOAM: The Open Source CFD Toolbox           |
|  \\    /   O peration     | Version:  v1806                                 |
|   \\  /    A nd           | Web:      www.OpenFOAM.com                      |
|    \\/     M anipulation  |                                                 |
\*---------------------------------------------------------------------------*/
FoamFile
{
    version     2.0;
    format      ascii;
    class       surfaceScalarField;
    location    "111";
    object      phi;
}
// * * * * * * * * * * * * * * * * * * * * * * * * * * * * * * * * * * * * * //

dimensions      [0 3 -1 0 0 0 0];
oriented        oriented;


internalField   nonuniform List<scalar> 
12640
(
-1.65694941167e-07
1.64634600712e-07
-3.23837052682e-07
1.57109230859e-07
-4.69054650923e-07
1.44376765204e-07
-5.93769504083e-07
1.23935568807e-07
-6.7926475493e-07
8.48032852496e-08
-7.19766283145e-07
3.99110508771e-08
-7.3757677001e-07
1.7284440611e-08
-7.88094695143e-07
5.00347016481e-08
-8.75127875613e-07
8.65375341496e-08
-9.54285210725e-07
7.86868730327e-08
-1.02691195556e-06
7.2193978274e-08
-1.11334414824e-06
8.60126046067e-08
-1.19009892639e-06
7.63435671e-08
-1.2461904613e-06
5.57063408509e-08
-1.29172896556e-06
4.51977800404e-08
-1.35025135066e-06
5.8238600781e-08
-1.41206906283e-06
6.15471543438e-08
-1.4559733602e-06
4.36492071045e-08
-1.47627848469e-06
2.00182266126e-08
-1.48202005299e-06
5.4135633461e-09
-1.50595575449e-06
2.35734995717e-08
-1.5580524645e-06
5.17231385835e-08
-1.62236551867e-06
6.39311596423e-08
-1.69019750295e-06
6.74661409758e-08
-1.75261430324e-06
6.20687474291e-08
-1.80641297151e-06
5.34633772161e-08
-1.85885289251e-06
5.21058398988e-08
-1.90568580445e-06
4.65068170107e-08
-1.94212031023e-06
3.61062950926e-08
-1.97002379758e-06
2.75873307812e-08
-1.99935684103e-06
2.9009642018e-08
-2.02640563386e-06
2.6734820563e-08
-2.04158155233e-06
1.48689208978e-08
-2.05739704999e-06
1.5495300546e-08
-2.07010406617e-06
1.23516831342e-08
-2.07780030984e-06
7.3326137494e-09
-2.09184024046e-06
1.36452951776e-08
-2.10425832082e-06
1.19864777694e-08
-2.11021619613e-06
5.48662405351e-09
-2.12778363405e-06
1.70567430611e-08
-2.19817260635e-06
6.98626394349e-08
-2.28069397132e-06
8.20441200286e-08
-2.31072014052e-06
2.95747010184e-08
-2.31181483528e-06
6.37708010803e-10
-2.30085141164e-06
-1.14259663191e-08
-2.27637006802e-06
-2.49541541341e-08
-2.23975101826e-06
-3.71060739295e-08
-2.18885845442e-06
-5.13898382593e-08
-2.12945540149e-06
-5.99098647624e-08
-2.08810485428e-06
-4.18622858939e-08
-2.08952924512e-06
8.77166783232e-10
-2.0881597576e-06
-1.92373904261e-09
-1.99043885999e-06
-9.83032562776e-08
-1.83874852209e-06
-1.52365556094e-07
-1.66135704847e-06
-1.78061986664e-07
-1.42940216498e-06
-2.32605193896e-07
-1.21502633789e-06
-2.15120996802e-07
-1.04312072832e-06
-1.7280478481e-07
-8.49033043707e-07
-1.95140698841e-07
-6.27355552212e-07
-2.22873698607e-07
-3.90776494645e-07
-2.3793946325e-07
-1.31247213834e-07
-2.61015063124e-07
2.13412539003e-07
-3.46263841409e-07
4.66040158193e-07
-2.53744278408e-07
6.27643474809e-07
-1.62311079029e-07
7.41176823334e-07
-1.14046393506e-07
8.28812104691e-07
-8.8113279069e-08
9.06794963482e-07
-7.85206653861e-08
9.75489422905e-07
-6.93420339117e-08
1.0273233143e-06
-5.25990962345e-08
1.05364726652e-06
-2.71568827415e-08
1.04653953425e-06
6.28258459816e-09
1.00041744729e-06
4.52981307013e-08
9.02149453638e-07
9.74435187974e-08
7.8558263426e-07
1.15786242372e-07
6.5685607775e-07
1.28020532481e-07
5.51008958276e-07
1.05151012888e-07
4.03253847186e-07
1.47114968196e-07
2.49631016052e-07
1.5227491385e-07
2.48859959696e-07
-8.04916585308e-08
2.44382884716e-07
-1.86873152128e-07
2.62733001545e-07
-2.91139758916e-07
2.47969189904e-07
-4.05506262113e-07
2.3773449112e-07
-5.69352070532e-07
2.48089580923e-07
-7.07795131606e-07
1.77761428889e-07
-7.87071971934e-07
9.59994053224e-08
-8.52487644375e-07
1.14869224449e-07
-9.20509566923e-07
1.54015426661e-07
-1.0005499762e-06
1.58203623501e-07
-1.07893294787e-06
1.50108866902e-07
-1.13832006005e-06
1.44955357062e-07
-1.19186312091e-06
1.29503075772e-07
-1.24641147834e-06
1.09905976244e-07
-1.29976842353e-06
9.82613031055e-08
-1.36211850989e-06
1.20292320899e-07
-1.40883582585e-06
1.08020978516e-07
-1.40222765919e-06
3.67575137174e-08
-1.38868134286e-06
6.18503421339e-09
-1.40444284236e-06
2.08359360984e-08
-1.45186829297e-06
7.06214414912e-08
-1.54010374452e-06
1.39540216795e-07
-1.63151877784e-06
1.54962866555e-07
-1.69067235085e-06
1.26234243474e-07
-1.74515263534e-06
1.16201852508e-07
-1.81268411691e-06
1.20637235328e-07
-1.86734045244e-06
1.06431682255e-07
-1.9072500742e-06
8.60700926568e-08
-1.9406654597e-06
6.92018957609e-08
-1.96858125806e-06
5.51654703142e-08
-1.98717952446e-06
4.73000255867e-08
-1.99990920881e-06
3.91604876251e-08
-2.00137547216e-06
1.60282537741e-08
-2.0059250422e-06
1.97106653034e-08
-2.0307944535e-06
3.69000717905e-08
-2.03694364542e-06
1.30794714104e-08
-2.0423675365e-06
1.86445582964e-08
-2.0766637076e-06
4.58392355792e-08
-2.12318734529e-06
5.15359265235e-08
-2.14721524392e-06
4.05491727848e-08
-2.04972686763e-06
-2.81228615584e-08
-1.90680451122e-06
-6.13126619663e-08
-1.86123759629e-06
-1.63986559376e-08
-1.86886636178e-06
7.83785385012e-09
-1.89320467291e-06
1.2479963182e-08
-1.92998822425e-06
1.1369132416e-08
-1.96516458455e-06
-2.39908554531e-09
-1.99682976796e-06
-2.02206491761e-08
-2.01421502353e-06
-4.30341639959e-08
-1.97586017697e-06
-8.07443496141e-08
-1.85736583669e-06
-1.18122402274e-07
-1.7382123896e-06
-1.21578163735e-07
-1.77547000345e-06
-6.16050701198e-08
-1.8017225512e-06
-1.26776274457e-07
-1.71421119708e-06
-2.6623484037e-07
-1.63707158197e-06
-3.10501365218e-07
-1.52608281254e-06
-3.27035552721e-07
-1.3371590402e-06
-3.62822959013e-07
-1.1147377544e-06
-4.18838455765e-07
-8.45596651508e-07
-4.93499117697e-07
-5.00835532148e-07
-5.84243887956e-07
-1.59194150949e-07
-6.04166343908e-07
1.93556936616e-07
-7.00644845561e-07
4.48315942898e-07
-5.09622299777e-07
6.02803273576e-07
-3.17503681355e-07
7.00206474059e-07
-2.11955871856e-07
7.96555718715e-07
-1.84944730854e-07
8.96244708747e-07
-1.78747902197e-07
9.7859888859e-07
-1.52338786489e-07
1.03338047206e-06
-1.08107298877e-07
1.0495701037e-06
-4.41229132502e-08
1.02582343613e-06
2.92704981061e-08
9.88062359455e-07
8.22891133492e-08
9.49962558522e-07
1.34733886976e-07
8.79214382563e-07
1.85722877385e-07
7.86284281699e-07
2.20168745085e-07
6.53224720262e-07
2.37399658216e-07
5.02472505984e-07
2.96867512829e-07
2.72407113973e-07
3.81364263843e-07
5.20174279966e-07
-1.11119081992e-07
3.5502901801e-07
-1.56266204406e-07
3.07205765645e-07
-3.01360690778e-07
3.92389289691e-07
-4.83822438656e-07
4.19565433015e-07
-6.44466537631e-07
4.08164914955e-07
-7.14481816681e-07
2.47299746434e-07
-7.44222383604e-07
1.25200582448e-07
-8.15867850911e-07
1.85896857642e-07
-9.03069471613e-07
2.40607057616e-07
-9.90590261053e-07
2.45172154218e-07
-1.07143323507e-06
2.30468433819e-07
-1.13609111836e-06
2.09221324947e-07
-1.19025047278e-06
1.83336132563e-07
-1.24448301874e-06
1.63847575452e-07
-1.27077403165e-06
1.24281011038e-07
-1.19294576157e-06
4.22134233607e-08
-1.0723767859e-06
-1.27913333715e-08
-1.03991511837e-06
4.05185199028e-09
-1.09435583078e-06
6.03368394845e-08
-1.25202143353e-06
1.78146880808e-07
-1.44051313147e-06
2.58706522887e-07
-1.54553686446e-06
2.44162967855e-07
-1.60668160834e-06
2.1572056167e-07
-1.68913254636e-06
2.08318685101e-07
-1.76603604776e-06
1.92745416861e-07
-1.81776613745e-06
1.7202736597e-07
-1.85894039076e-06
1.47267131322e-07
-1.89618683461e-06
1.22991609249e-07
-1.92525820406e-06
9.79457661258e-08
-1.95096920141e-06
8.05675811105e-08
-1.96118139915e-06
5.72165910587e-08
-1.96347346176e-06
4.11521014015e-08
-1.97494763228e-06
2.7218217929e-08
-1.94215682881e-06
-1.33911869137e-08
-1.92284423104e-06
1.72166389875e-08
-1.97259313225e-06
6.2430639513e-08
-1.9837750803e-06
2.93858573598e-08
-1.99436689039e-06
5.59723153034e-08
-2.08058261055e-06
1.37259460259e-07
-2.17442841099e-06
1.33888910364e-07
-2.25418384877e-06
5.11207258093e-08
-2.30747531632e-06
-8.52124379749e-09
-2.3183199072e-06
-6.05781600843e-09
-2.31453965733e-06
3.55545424371e-09
-2.30519787186e-06
2.62450568773e-09
-2.28792553866e-06
-6.42051041377e-09
-2.26663381725e-06
-2.42207347061e-08
-2.24010377919e-06
-4.72846729528e-08
-2.20784462934e-06
-7.58358627503e-08
-2.17736239109e-06
-1.11769446985e-07
-2.14911637176e-06
-1.46926418912e-07
-2.09930685718e-06
-1.71967537043e-07
-1.96311686255e-06
-1.98398390352e-07
-1.81674898737e-06
-2.73756154639e-07
-1.74644025107e-06
-3.3720089066e-07
-1.66942640387e-06
-3.88286209131e-07
-1.52843056807e-06
-4.68946024941e-07
-1.33363146941e-06
-5.58683729789e-07
-1.10033787192e-06
-6.53360981177e-07
-8.36092570103e-07
-7.59112556725e-07
-5.59689211724e-07
-8.62133129089e-07
-2.09793881748e-07
-9.55706601348e-07
1.10362128066e-07
-1.02237470541e-06
3.56509994778e-07
-7.56763285326e-07
5.34435910223e-07
-4.96069554503e-07
6.84470315276e-07
-3.62488503877e-07
8.01429825199e-07
-3.02364434595e-07
8.86193292777e-07
-2.6399186903e-07
9.50404963905e-07
-2.17088233376e-07
9.93949182399e-07
-1.52253557038e-07
1.02576106583e-06
-7.65638474529e-08
1.06073480043e-06
-6.37461882329e-09
1.07527021637e-06
6.7034089721e-08
1.03441310113e-06
1.74838125286e-07
9.33907163996e-07
2.85469647801e-07
8.02191100147e-07
3.51109994965e-07
6.62263016204e-07
3.76593936726e-07
5.21828269047e-07
4.36661020034e-07
2.36981489069e-07
6.6469370848e-07
7.56935200666e-07
-7.70696579494e-08
4.31407166963e-07
-9.06506197874e-08
3.2036136745e-07
-2.74271412569e-07
5.75372253859e-07
-4.12146713978e-07
5.56857406958e-07
-3.85335252624e-07
3.80939345021e-07
-3.00363004481e-07
1.62116258915e-07
-4.2730221997e-07
2.51780954035e-07
-6.73092445748e-07
4.31060565567e-07
-8.4889434562e-07
4.1577853433e-07
-9.62685894923e-07
3.58420531024e-07
-1.05889544518e-06
3.26246551107e-07
-1.13451958709e-06
2.84510203632e-07
-1.16874606497e-06
2.17291350017e-07
-1.11083882125e-06
1.05716582433e-07
-9.9540281952e-07
8.62158430686e-09
-9.40996444779e-07
-1.24503652186e-08
-9.78075684795e-07
2.40116486346e-08
-1.10178030518e-06
1.27434628519e-07
-1.29708420135e-06
2.55262114833e-07
-1.43778539483e-06
3.18447908699e-07
-1.49643891876e-06
3.16964801631e-07
-1.56353449904e-06
3.10862017423e-07
-1.64256738849e-06
2.94371853667e-07
-1.70526374614e-06
2.70650563966e-07
-1.75733002546e-06
2.44472583647e-07
-1.8009780454e-06
2.15342429657e-07
-1.84330233485e-06
1.89276432745e-07
-1.87748601742e-06
1.56852419527e-07
-1.90852945697e-06
1.28685594568e-07
-1.92321639559e-06
9.49634713927e-08
-1.93902079301e-06
7.27365485799e-08
-1.93095017729e-06
3.28218104686e-08
-1.89186454146e-06
-1.21649131956e-08
-1.92338650921e-06
1.77793254019e-08
-1.93703849222e-06
3.0484719204e-08
-1.9458129552e-06
7.07740016058e-08
-2.06303655458e-06
1.46127263892e-07
-2.17710278468e-06
1.69530954215e-07
-2.21077235566e-06
1.70431500314e-07
-2.21979982658e-06
1.42413032824e-07
-2.25103465673e-06
8.18457289749e-08
-2.29062833234e-06
3.05586965069e-08
-2.30940513342e-06
1.22131688546e-08
-2.31201608968e-06
5.65878205213e-09
-2.3055619974e-06
-4.33736043264e-09
-2.29192754233e-06
-2.05712452852e-08
-2.27333200125e-06
-4.33381218738e-08
-2.24972380405e-06
-7.14251182789e-08
-2.22105236891e-06
-1.05043986901e-07
-2.18862745722e-06
-1.44738888624e-07
-2.1482012873e-06
-1.87902996251e-07
-2.0873320442e-06
-2.33398832287e-07
-1.99799221357e-06
-2.8831521196e-07
-1.91059827739e-06
-3.61756830484e-07
-1.81436311466e-06
-4.34094288185e-07
-1.68778200016e-06
-5.15621320838e-07
-1.52889616252e-06
-6.28711757583e-07
-1.32874571704e-06
-7.59858116415e-07
-1.08779183191e-06
-8.95458755068e-07
-8.19415534888e-07
-1.02873678266e-06
-5.34134195031e-07
-1.14873313693e-06
-2.44376836592e-07
-1.24684232649e-06
-1.3096006961e-08
-1.25486007212e-06
2.86174668995e-07
-1.05699545949e-06
5.17745622972e-07
-7.28313751632e-07
6.61158871851e-07
-5.06378221057e-07
7.7654295998e-07
-4.18149160077e-07
8.79404739509e-07
-3.67249666482e-07
9.68748658488e-07
-3.06849883612e-07
1.04909058156e-06
-2.33056568638e-07
1.11949433894e-06
-1.47509160493e-07
1.14878071413e-06
-3.62479084521e-08
1.09475158774e-06
1.20460787996e-07
9.89918765369e-07
2.79069949672e-07
8.73380318739e-07
4.01380735084e-07
7.18149866287e-07
5.05701985003e-07
5.27838108607e-07
5.66330896096e-07
3.68827596921e-07
5.94980390449e-07
1.94176365448e-07
8.3914577269e-07
9.50572503178e-07
-5.86876805447e-09
4.37082086315e-07
-8.42778525594e-08
3.98399948056e-07
-2.37152141265e-07
7.27762001257e-07
-3.1094132559e-07
6.30274620294e-07
-2.57209781556e-07
3.26934809939e-07
-3.17796644558e-07
2.2243156936e-07
-5.1602248935e-07
4.4952361702e-07
-6.82378461682e-07
5.96828396587e-07
-8.02598334896e-07
5.35426366619e-07
-9.16515778845e-07
4.71871953713e-07
-1.01999530025e-06
4.29374978177e-07
-1.04044656892e-06
3.04697229994e-07
-9.5982428164e-07
1.36473174215e-07
-8.9662077922e-07
4.22992880124e-08
-9.2243267571e-07
3.41568080331e-08
-1.01445261311e-06
7.92496778618e-08
-1.16903848707e-06
1.78226283312e-07
-1.33037666416e-06
2.8836114894e-07
-1.40513626784e-06
3.29622363538e-07
-1.43170998218e-06
3.44635546308e-07
-1.49594233022e-06
3.80808036811e-07
-1.57275967239e-06
3.87292688089e-07
-1.63966151083e-06
3.60907371039e-07
-1.69402700272e-06
3.24677718824e-07
-1.74097066032e-06
2.91088040234e-07
-1.78801138993e-06
2.62079952485e-07
-1.81936261367e-06
2.20312160071e-07
-1.85395824784e-06
1.91156037449e-07
-1.87138971597e-06
1.45839900616e-07
-1.88940339576e-06
1.12708221751e-07
-1.87916286804e-06
6.22407557927e-08
-1.88411145489e-06
3.74912598202e-08
-1.93967256129e-06
4.30758329931e-08
-1.93014442693e-06
7.86389070006e-09
-1.97072380711e-06
7.06234901024e-08
-2.07585734307e-06
1.75420254015e-07
-2.14693919024e-06
2.16712175345e-07
-2.19294489923e-06
2.15046035333e-07
-2.21621638741e-06
1.93211512483e-07
-2.23161005574e-06
1.57309606642e-07
-2.25784350815e-06
1.07572161139e-07
-2.28857995632e-06
6.07855135116e-08
-2.30782096517e-06
3.09435872321e-08
-2.31384552236e-06
1.11751736626e-08
-2.31041498864e-06
-8.27864796247e-09
-2.29998247849e-06
-3.1517865474e-08
-2.28407256355e-06
-5.97705713768e-08
-2.26289035166e-06
-9.31363680594e-08
-2.23602222063e-06
-1.32448377608e-07
-2.20253577997e-06
-1.78764139253e-07
-2.15877772846e-06
-2.3220367359e-07
-2.09921195913e-06
-2.93511172821e-07
-2.02312735915e-06
-3.64959009923e-07
-1.9385264129e-06
-4.46940233159e-07
-1.83688452052e-06
-5.36378412497e-07
-1.70569424407e-06
-6.47543429315e-07
-1.54012002992e-06
-7.95133821164e-07
-1.33250918566e-06
-9.68420258452e-07
-1.08423948724e-06
-1.14477220805e-06
-8.13082445056e-07
-1.30097928823e-06
-5.38645699272e-07
-1.42428336037e-06
-2.93992218126e-07
-1.49255207916e-06
-1.20342354556e-07
-1.42953066693e-06
2.38413190539e-07
-1.41664674156e-06
4.95749800077e-07
-9.86272866905e-07
6.62725506646e-07
-6.73785378659e-07
7.89621676992e-07
-5.45384907549e-07
8.99202215543e-07
-4.77114367258e-07
1.00167454613e-06
-4.09613473155e-07
1.1068208984e-06
-3.38557722513e-07
1.18165738695e-06
-2.22753843017e-07
1.15970448834e-06
-1.47504690482e-08
1.07486187278e-06
2.04855333271e-07
9.76788126763e-07
3.76666293539e-07
8.47141117275e-07
5.30496559783e-07
6.72736683466e-07
6.7957332325e-07
5.18558396103e-07
7.20091059114e-07
3.54731259414e-07
7.58646377354e-07
1.61981801911e-07
1.03100849744e-06
1.11255278127e-06
-7.49726319483e-10
4.37493036546e-07
-1.17611775739e-07
5.14977731312e-07
-1.90828403626e-07
8.00596172085e-07
-2.17974952582e-07
6.57081439832e-07
-1.96281569725e-07
3.05035102346e-07
-3.74367932755e-07
4.00166344691e-07
-5.88202696625e-07
6.62829154347e-07
-6.77068039642e-07
6.8514301333e-07
-7.66579568702e-07
6.24497528775e-07
-8.3938438922e-07
5.44301163387e-07
-8.43995750198e-07
4.33695074821e-07
-7.53852841145e-07
2.14384695162e-07
-7.30640807206e-07
1.1306799618e-07
-7.912772604e-07
1.02681708521e-07
-9.04135649948e-07
1.46695424682e-07
-1.08411109435e-06
2.58827330922e-07
-1.26409793828e-06
3.57784688271e-07
-1.32902004392e-06
3.52894236839e-07
-1.34621678673e-06
3.46447550608e-07
-1.42367619895e-06
4.21709278678e-07
-1.50655014092e-06
4.63294415102e-07
-1.56746448285e-06
4.47840011733e-07
-1.62339053222e-06
4.16488792261e-07
-1.68120849483e-06
3.82165940217e-07
-1.73115739716e-06
3.40737506719e-07
-1.74529158474e-06
2.7591773856e-07
-1.78114271529e-06
2.55888569344e-07
-1.79960239505e-06
2.09347958307e-07
-1.81946738024e-06
1.65437030537e-07
-1.79969137908e-06
9.26846334281e-08
-1.79085335653e-06
5.31506232404e-08
-1.80766865747e-06
5.40108569598e-08
-1.81466049343e-06
4.97241998233e-08
-1.92641017246e-06
1.19194844276e-07
-2.05001203922e-06
1.93733280635e-07
-2.12621695982e-06
2.5112759319e-07
-2.16973328958e-06
2.59743276295e-07
-2.19804257645e-06
2.42877983985e-07
-2.21930769328e-06
2.1399850997e-07
-2.23958473525e-06
1.77097499577e-07
-2.26445983241e-06
1.31945150331e-07
-2.29064467426e-06
8.6460051898e-08
-2.30942568478e-06
4.92135539986e-08
-2.31781483561e-06
1.90535646402e-08
-2.31727540372e-06
-9.32956972823e-09
-2.30967946679e-06
-3.96301812171e-08
-2.29623226216e-06
-7.37401011667e-08
-2.27694403632e-06
-1.12954440099e-07
-2.25107387173e-06
-1.58853250674e-07
-2.21736729872e-06
-2.13008483417e-07
-2.17363018056e-06
-2.76477428632e-07
-2.11763223638e-06
-3.50048222337e-07
-2.0489819985e-06
-4.34154622705e-07
-1.96721982675e-06
-5.2928171117e-07
-1.8639594116e-06
-6.40272223347e-07
-1.72994798399e-06
-7.82276729831e-07
-1.56067468626e-06
-9.65219683493e-07
-1.35267835805e-06
-1.17731056908e-06
-1.10653302805e-06
-1.39184790555e-06
-8.40566646055e-07
-1.56789598839e-06
-5.91244217941e-07
-1.67451916657e-06
-3.81703328629e-07
-1.70295124733e-06
-1.67353992986e-07
-1.64465861296e-06
1.50942886657e-07
-1.73570019479e-06
4.24007593616e-07
-1.25987252952e-06
6.13470293702e-07
-8.63602729486e-07
7.83010392785e-07
-7.15193623476e-07
9.34176334566e-07
-6.28524201126e-07
1.07613950511e-06
-5.51813592112e-07
1.19667638699e-06
-4.59364939362e-07
1.22338029861e-06
-2.49811970125e-07
1.16749091425e-06
4.07864304891e-08
1.09631964797e-06
2.75638497435e-07
1.00117033616e-06
4.71387655287e-07
8.62537924738e-07
6.68681117775e-07
7.03384455017e-07
8.38323616196e-07
5.34462928028e-07
8.88707424337e-07
3.60334720229e-07
9.32217621393e-07
1.80884026516e-07
1.21052395294e-06
1.29305757354e-06
-4.12232979014e-08
4.78563236797e-07
-1.93538049777e-07
6.66992622303e-07
-2.54294337033e-07
8.61059397445e-07
-1.95744827145e-07
5.98251907867e-07
-2.46701430745e-07
3.55723783145e-07
-4.73859569118e-07
6.26874385674e-07
-5.95025461796e-07
7.83466238617e-07
-6.60995727664e-07
7.50704420767e-07
-7.02414788845e-07
6.65517456023e-07
-7.704552551e-07
6.12080664765e-07
-7.19852474559e-07
3.82883439777e-07
-6.71864748146e-07
1.66222024541e-07
-7.24349587079e-07
1.65315740328e-07
-8.09207724035e-07
1.87228114642e-07
-9.70519403624e-07
3.0761600929e-07
-1.16053089593e-06
4.48416506128e-07
-1.22500439472e-06
4.21876536607e-07
-1.23453383835e-06
3.62069011736e-07
-1.32696625295e-06
4.38499135646e-07
-1.42809212478e-06
5.22442537103e-07
-1.49789795537e-06
5.32730585305e-07
-1.55753487356e-06
5.07125690621e-07
-1.61364499412e-06
4.72259859349e-07
-1.65068090974e-06
4.18905099625e-07
-1.66855650117e-06
3.58329537387e-07
-1.69353029008e-06
3.00623962475e-07
-1.69914259023e-06
2.61231353566e-07
-1.72494387349e-06
2.34892034654e-07
-1.72274552892e-06
1.62999679213e-07
-1.70396829376e-06
7.36718740128e-08
-1.73003576578e-06
7.89311990034e-08
-1.77459344011e-06
9.82608176359e-08
-1.85212021715e-06
1.26871069782e-07
-1.95992808464e-06
2.26546678949e-07
-2.08412160378e-06
3.1743704503e-07
-2.14355930287e-06
3.10083793573e-07
-2.17471503049e-06
2.90429739609e-07
-2.19955392283e-06
2.67250626052e-07
-2.22345236544e-06
2.37423595672e-07
-2.246994145e-06
2.00153436139e-07
-2.27173848031e-06
1.56191669225e-07
-2.29586660512e-06
1.10082409648e-07
-2.31428709901e-06
6.71244232639e-08
-2.32428117285e-06
2.85359119621e-08
-2.32614931564e-06
-7.97675404523e-09
-2.32104863911e-06
-4.52514249837e-08
-2.3096458624e-06
-8.56709448892e-08
-2.29171692237e-06
-1.31417672746e-07
-2.26657546578e-06
-1.84533689417e-07
-2.23340547835e-06
-2.46716781238e-07
-2.1912115013e-06
-3.19208559493e-07
-2.13897275605e-06
-4.02818667844e-07
-2.07538291591e-06
-4.98292245277e-07
-1.99683658138e-06
-6.08404429231e-07
-1.89572694353e-06
-7.42027234001e-07
-1.76494215169e-06
-9.1378012638e-07
-1.60021432528e-06
-1.13072053302e-06
-1.39729152526e-06
-1.3810312006e-06
-1.15722878183e-06
-1.63274100569e-06
-9.05039680117e-07
-1.82090017831e-06
-7.00822152708e-07
-1.87951254077e-06
-5.30955601452e-07
-1.87353001274e-06
-2.70291448358e-07
-1.906003762e-06
-6.06883622528e-08
-1.94593999089e-06
3.30278077311e-07
-1.65128600049e-06
5.84189722983e-07
-1.11783338154e-06
8.19244738059e-07
-9.50539042056e-07
1.03274838925e-06
-8.42297444683e-07
1.19968195992e-06
-7.19030244438e-07
1.27966724961e-06
-5.39690361761e-07
1.26447193218e-06
-2.34959736194e-07
1.22461792811e-06
8.02579409566e-08
1.16730043008e-06
3.32560817136e-07
1.06734115074e-06
5.70927974409e-07
9.22943156007e-07
8.12670705629e-07
7.79702359692e-07
9.81206934578e-07
5.83604106234e-07
1.08444274432e-06
3.7755319169e-07
1.13821829141e-06
2.0754262272e-07
1.3797873317e-06
1.50064658559e-06
-8.13850317092e-08
5.59602716402e-07
-2.27955686581e-07
8.13271284757e-07
-2.39542966838e-07
8.72316627979e-07
-1.37593587089e-07
4.96101081217e-07
-2.91468851699e-07
5.09295856895e-07
-4.95490414194e-07
8.30415302535e-07
-5.67636323027e-07
8.55208094102e-07
-6.40370026203e-07
8.23047002155e-07
-6.18032193908e-07
6.42953469589e-07
-6.22837513454e-07
6.16610432432e-07
-5.66627008183e-07
3.26518577294e-07
-6.48549427146e-07
2.4792389082e-07
-7.21518260779e-07
2.38004886467e-07
-8.50445932711e-07
3.15818085956e-07
-1.03238555842e-06
4.89129982287e-07
-1.11721310876e-06
5.328355753e-07
-1.12437891687e-06
4.28711327325e-07
-1.21613901206e-06
4.53476375549e-07
-1.33441612594e-06
5.56382497168e-07
-1.41222068993e-06
5.9986277582e-07
-1.47104286918e-06
5.91191341e-07
-1.52754734594e-06
5.63283815831e-07
-1.59166183492e-06
5.36075484248e-07
-1.64843373801e-06
4.75394130436e-07
-1.65150689236e-06
3.61137647372e-07
-1.68216217715e-06
3.31029130544e-07
-1.69039442577e-06
2.69212631007e-07
-1.65688252979e-06
2.01135073245e-07
-1.65422722169e-06
1.60109302156e-07
-1.74929008511e-06
1.68470387189e-07
-1.79692467437e-06
1.26270770193e-07
-1.78816614565e-06
8.91471108868e-08
-1.8990217692e-06
2.37314727411e-07
-2.04142472715e-06
3.68476421272e-07
-2.1019984096e-06
3.77538342682e-07
-2.14262657092e-06
3.50250135612e-07
-2.17376162527e-06
3.21107686038e-07
-2.20123011062e-06
2.94260506466e-07
-2.22817343994e-06
2.63899143022e-07
-2.25450651257e-06
2.2600590898e-07
-2.27992673621e-06
1.81118306699e-07
-2.30330578096e-06
1.32958895657e-07
-2.32188421181e-06
8.51943924029e-08
-2.33336132607e-06
3.95001953488e-08
-2.33730343072e-06
-4.55297620675e-09
-2.33422934884e-06
-4.88508924997e-08
-2.32431906507e-06
-9.61143933509e-08
-2.3071940472e-06
-1.49083510739e-07
-2.28246636011e-06
-2.09805252371e-07
-2.25001431715e-06
-2.79714225058e-07
-2.20972324227e-06
-3.60036929017e-07
-2.16106010933e-06
-4.52027511525e-07
-2.10213372293e-06
-5.57774242859e-07
-2.0286544316e-06
-6.8248433096e-07
-1.93459154637e-06
-8.36743332055e-07
-1.81516024608e-06
-1.03390343833e-06
-1.66608855723e-06
-1.28051736446e-06
-1.47788683838e-06
-1.56999475532e-06
-1.23964719563e-06
-1.87174214984e-06
-9.96951983352e-07
-2.06436630939e-06
-8.28699379165e-07
-2.04848999151e-06
-6.65729625439e-07
-2.03711896602e-06
-4.70021784614e-07
-2.10225148847e-06
-2.70255267196e-07
-2.14621293307e-06
1.48581121767e-07
-2.07060479047e-06
5.68516314254e-07
-1.53814014721e-06
8.67547975565e-07
-1.24994966246e-06
1.11786866862e-06
-1.09305007789e-06
1.2852565445e-06
-8.86835770005e-07
1.3455855153e-06
-6.00416848586e-07
1.34698552096e-06
-2.36791062637e-07
1.33366169054e-06
9.31761366842e-08
1.27967766987e-06
3.86117861872e-07
1.17449243947e-06
6.75718019308e-07
1.03712785567e-06
9.4968086795e-07
8.76463423759e-07
1.14152881689e-06
6.64163716207e-07
1.29647532762e-06
4.07165802327e-07
1.39465154815e-06
2.11359838816e-07
1.5757235005e-06
1.71170304011e-06
-1.13355165131e-07
6.72751211361e-07
-2.29629001334e-07
9.29231325141e-07
-1.87299741324e-07
8.29769554074e-07
-1.85637430685e-07
4.94225912922e-07
-3.80119169351e-07
7.03442424877e-07
-4.64545962897e-07
9.14445946452e-07
-5.30133032382e-07
9.20461554868e-07
-5.91694878199e-07
8.84345277865e-07
-5.9087331035e-07
6.41878421084e-07
-5.97137409499e-07
6.22654128848e-07
-5.9399077813e-07
3.23169747434e-07
-6.60523064084e-07
3.14221376958e-07
-7.48530779046e-07
3.25700626242e-07
-9.07189673843e-07
4.74074890343e-07
-1.06985900405e-06
6.51404076739e-07
-1.0957406872e-06
5.58371970818e-07
-1.12421576775e-06
4.56854650074e-07
-1.22265640612e-06
5.51540274408e-07
-1.32115795757e-06
6.54492126463e-07
-1.39140472684e-06
6.69727658048e-07
-1.44571391768e-06
6.45129323455e-07
-1.48323875995e-06
6.00504786917e-07
-1.51281116526e-06
5.65370182022e-07
-1.54256692762e-06
5.0490887292e-07
-1.56707172094e-06
3.85424172241e-07
-1.58254546006e-06
3.46256690343e-07
-1.62926841912e-06
3.15707675262e-07
-1.68389829548e-06
2.55521502043e-07
-1.72781772967e-06
2.03798236285e-07
-1.74886097312e-06
1.89245651125e-07
-1.79806830692e-06
1.75152999128e-07
-1.931409087e-06
2.22082824968e-07
-2.01345623726e-06
3.18899945209e-07
-2.06500530586e-06
4.19558134918e-07
-2.10488987054e-06
4.16972588227e-07
-2.14067650533e-06
3.85592324111e-07
-2.1736647423e-06
3.53649413511e-07
-2.20374041939e-06
3.23881821832e-07
-2.23275667882e-06
2.92449965412e-07
-2.26134998413e-06
2.54120832501e-07
-2.288515893e-06
2.07795163201e-07
-2.31264686482e-06
1.56591755579e-07
-2.33203158501e-06
1.04074123502e-07
-2.34514762727e-06
5.21034539875e-08
-2.35106848295e-06
8.46743587852e-10
-2.34950688234e-06
-5.0943998797e-08
-2.34036300637e-06
-1.05801104664e-07
-2.32339160246e-06
-1.66605732967e-07
-2.29856874164e-06
-2.35185421115e-07
-2.26644021977e-06
-3.1239433044e-07
-2.22775145928e-06
-3.9928205903e-07
-2.1824944909e-06
-4.9783619118e-07
-2.12893296558e-06
-6.11910524241e-07
-2.06344510166e-06
-7.48590392063e-07
-1.9821429185e-06
-9.18695820966e-07
-1.88236076508e-06
-1.13437144903e-06
-1.75896654658e-06
-1.40461087125e-06
-1.59436667042e-06
-1.7353056723e-06
-1.36173176975e-06
-2.10519011662e-06
-1.15619366934e-06
-2.27075718815e-06
-1.05432225722e-06
-2.15108560333e-06
-9.0193513503e-07
-2.19007460264e-06
-6.76385774168e-07
-2.32832261264e-06
-4.01546577851e-07
-2.4215130653e-06
-8.64154213452e-08
-2.3862409587e-06
4.59340613664e-07
-2.08452253746e-06
9.63587231252e-07
-1.75487311856e-06
1.24425228839e-06
-1.37427805381e-06
1.40316021326e-06
-1.04633013433e-06
1.45907385125e-06
-6.56890578129e-07
1.48816178822e-06
-2.66338595797e-07
1.49147700595e-06
8.94009647358e-08
1.43023896757e-06
4.46968896943e-07
1.31456047963e-06
7.91045669645e-07
1.17270579287e-06
1.09121879623e-06
9.79200011375e-07
1.33473785299e-06
7.41247715099e-07
1.53406030848e-06
4.50288810853e-07
1.68559735667e-06
2.05387438863e-07
1.82003932817e-06
1.91719285766e-06
-1.41211751416e-07
8.13550504184e-07
-2.43328569493e-07
1.0309817512e-06
-1.72393020309e-07
7.58578887145e-07
-2.35190073807e-07
5.56803583279e-07
-4.10992013524e-07
8.78919051915e-07
-4.21493586475e-07
9.24676125603e-07
-4.82778110805e-07
9.81415626212e-07
-4.84772202215e-07
8.86124563098e-07
-5.31687259228e-07
6.88588192372e-07
-5.06307027917e-07
5.97056137931e-07
-5.74992563434e-07
3.91653822243e-07
-6.61243963565e-07
4.00189243435e-07
-7.63068225279e-07
4.2722075511e-07
-9.1440794635e-07
6.25041340278e-07
-9.94935283338e-07
7.31540934774e-07
-9.92730029152e-07
5.55870100252e-07
-1.08543238367e-06
5.49226325077e-07
-1.19936043287e-06
6.65088574044e-07
-1.28853772651e-06
7.43278678921e-07
-1.36457437899e-06
7.45386730888e-07
-1.42773747013e-06
7.07980254165e-07
-1.48175033083e-06
6.54212075837e-07
-1.49666268072e-06
5.80017248585e-07
-1.49997866103e-06
5.08002382127e-07
-1.56229309211e-06
4.47517175473e-07
-1.57208438898e-06
3.55822668824e-07
-1.53975777754e-06
2.83170394365e-07
-1.54391621994e-06
2.59470890292e-07
-1.60936367104e-06
2.68995446939e-07
-1.71641461126e-06
2.96015564914e-07
-1.80710069309e-06
2.65494860636e-07
-1.89184328194e-06
3.06412096747e-07
-2.01537156077e-06
4.41949377129e-07
-2.06905383622e-06
4.72791571353e-07
-2.10449670059e-06
4.51983896374e-07
-2.14047089382e-06
4.21133975947e-07
-2.17556153264e-06
3.88298471878e-07
-2.20779717342e-06
3.55666330986e-07
-2.23811018091e-06
3.22300702919e-07
-2.26813706233e-06
2.83675063741e-07
-2.29723766459e-06
2.36412586833e-07
-2.32328144446e-06
1.82143623899e-07
-2.34445212796e-06
1.24743446366e-07
-2.35952134464e-06
6.66618271303e-08
-2.36749303674e-06
8.29436188132e-09
-2.36740701331e-06
-5.15677982228e-08
-2.35851673203e-06
-1.15241289791e-07
-2.34072695794e-06
-1.8495690171e-07
-2.31473896427e-06
-2.61734685699e-07
-2.28193912619e-06
-3.45763012557e-07
-2.24400061691e-06
-4.37781046283e-07
-2.201911583e-06
-5.40501148165e-07
-2.15475622277e-06
-6.59682370535e-07
-2.10009455437e-06
-8.03864921174e-07
-2.03628618469e-06
-9.83131070407e-07
-1.96312094431e-06
-1.20815202593e-06
-1.8769255637e-06
-1.49149424364e-06
-1.75300646209e-06
-1.86007662151e-06
-1.56276092648e-06
-2.29646086446e-06
-1.5056291022e-06
-2.32894222112e-06
-1.45654312813e-06
-2.20098058681e-06
-1.24189892598e-06
-2.40535441576e-06
-9.08838517466e-07
-2.66186963708e-06
-5.09522100546e-07
-2.82136939365e-06
-9.95800338033e-08
-2.79686151839e-06
4.47545059388e-07
-2.63250521902e-06
1.00299713636e-06
-2.31121686651e-06
1.36247752157e-06
-1.73461997599e-06
1.52260092512e-06
-1.20709626536e-06
1.60932620344e-06
-7.44065068451e-07
1.67474065212e-06
-3.32240081324e-07
1.68861264581e-06
7.51996592679e-08