/*--------------------------------*- C++ -*----------------------------------*\
| =========                 |                                                 |
| \\      /  F ield         | OpenFOAM: The Open Source CFD Toolbox           |
|  \\    /   O peration     | Version:  v1806                                 |
|   \\  /    A nd           | Web:      www.OpenFOAM.com                      |
|    \\/     M anipulation  |                                                 |
\*---------------------------------------------------------------------------*/
FoamFile
{
    version     2.0;
    format      ascii;
    class       volScalarField;
    location    "165";
    object      p;
}
// * * * * * * * * * * * * * * * * * * * * * * * * * * * * * * * * * * * * * //

dimensions      [0 2 -2 0 0 0 0];


internalField   nonuniform List<scalar> 
6400
(
0.150254130608
0.150256164424
0.150261881022
0.150272686296
0.150287904362
0.150307235714
0.15033082495
0.15035983818
0.15039410936
0.15043333957
0.150482792393
0.150545143525
0.150616647852
0.150697507258
0.150789722526
0.150895421698
0.151014922454
0.15114737151
0.151291633724
0.151443344437
0.151595895365
0.15174860735
0.151906482913
0.152075796454
0.15226124915
0.152462722732
0.152676605409
0.152900568163
0.153134832125
0.153380641809
0.153639142274
0.15390916476
0.154184763564
0.154460246779
0.154734278799
0.155002644918
0.155263704548
0.15552700927
0.155792050138
0.156045910577
0.156290189995
0.156542893298
0.156813856829
0.157094602675
0.15737708503
0.157656976835
0.157930904935
0.158197649611
0.158456392894
0.158706673785
0.158949208221
0.159179304068
0.159391816235
0.159578404998
0.159740770562
0.15989104967
0.160025966931
0.160133348326
0.160210860679
0.160266228164
0.160303383936
0.160323142093
0.160328996135
0.160319387435
0.160287228183
0.160216211605
0.160101804781
0.159963861042
0.159825998077
0.15969691173
0.159575538857
0.159457127482
0.15933846125
0.15922602672
0.159119458526
0.15902262468
0.158938547194
0.158881661659
0.158844159041
0.158828232142
0.150251020655
0.150253127342
0.150258126448
0.150268699257
0.150285421373
0.150306288854
0.150330443692
0.150357926185
0.150390412837
0.15042976246
0.150478906076
0.150539866816
0.150611641158
0.150693655301
0.150786368503
0.15089075849
0.151009627467
0.151142894994
0.151289144519
0.151442610638
0.15159348615
0.15174374511
0.151900521378
0.152068992045
0.152254583638
0.15245705642
0.152670968632
0.152895405215
0.153130800613
0.153377556715
0.153635757359
0.153906003649
0.154183099203
0.154458663117
0.154733313428
0.155002092036
0.155262467102
0.155526249943
0.155792221199
0.156044892182
0.15628311879
0.156533271984
0.156810989076
0.157095981517
0.157380115744
0.157661717622
0.157936926697
0.158205187345
0.158464676124
0.158712481502
0.158949785856
0.159180221306
0.159403792671
0.15959283155
0.15975633924
0.159912034126
0.160043552324
0.160145470727
0.160222573587
0.160277968342
0.160314002687
0.160335321914
0.16034200515
0.160332868627
0.160301647708
0.160231933724
0.160115800602
0.159974852474
0.159833886304
0.159701451943
0.159576836148
0.15945483338
0.159331433864
0.159212982968
0.159104033419
0.159006932183
0.158926567941
0.158869377925
0.158831893974
0.158819093625
0.150242531473
0.150246135808
0.150250383843
0.150260034724
0.150276301224
0.150300116832
0.150327120815
0.150353880234
0.150384364326
0.150422624255
0.150471114644
0.150531379807
0.150603268013
0.150685997171
0.150778999098
0.150879985713
0.150997038327
0.151137985034
0.151288547464
0.151441091319
0.151587488347
0.151730727709
0.151885143468
0.152056479509
0.152242561245
0.152443930363
0.152659203754
0.152885829554
0.153122973523
0.15337125315
0.153630272038
0.15390140629
0.154181771766
0.154456422936
0.154728898175
0.155001648164
0.155261043722
0.15552138351
0.155787813942
0.15604263948
0.156288665237
0.156543448327
0.156815621237
0.157097166886
0.157380666004
0.157662349693
0.157939246905
0.158209563558
0.158471542689
0.158723629305
0.158965548677
0.159196466194
0.15941178982
0.159604873143
0.159781366396
0.159938550661
0.16006678536
0.160168029151
0.160245356131
0.160301207704
0.160338673766
0.160361025617
0.160367865267
0.160361914495
0.1603327041
0.160261463028
0.160145715342
0.160002288584
0.159853255787
0.159711674073
0.159577841042
0.159446590196
0.159317393038
0.159195086885
0.15908195868
0.158982732904
0.158903288235
0.158845651668
0.158808943877
0.158795308536
0.150231220385
0.150234749097
0.150237793518
0.150246625758
0.15026092119
0.150284623053
0.150320680708
0.150347293555
0.150375347804
0.150411665583
0.150459203164
0.150519094859
0.150591304054
0.15067359563
0.15076726184
0.150875646593
0.150999605524
0.151138428485
0.151281660151
0.151421233735
0.151561270906
0.15170779304
0.151864356826
0.152035313966
0.152222267899
0.152425240318
0.15264276396
0.152871890962
0.153111692883
0.153361804398
0.1536236174
0.153896526976
0.154178217676
0.154459606475
0.154727948285
0.154994287907
0.155259645959
0.155517469131
0.155774497232
0.156030695848
0.156285635242
0.156546744705
0.156819329818
0.157100137334
0.157383935844
0.157666823395
0.157945780918
0.15821863594
0.158483573982
0.158739071043
0.15898400003
0.159216711679
0.159434189495
0.159633360292
0.159813885382
0.159971309918
0.160100854848
0.160203403329
0.160281880577
0.160339101977
0.160377936311
0.160400700615
0.160409533882
0.160408866006
0.160384053582
0.160315902979
0.160196810963
0.160044348228
0.159881876393
0.159725866434
0.159580206458
0.159440865504
0.15930482386
0.159170725396
0.159045509043
0.158942581162
0.158864322245
0.158801033883
0.158756654998
0.158738169068
0.150213800558
0.150213897594
0.150217697141
0.150226761145
0.150242661282
0.150264858029
0.150296992359
0.150327287728
0.150357779656
0.150395052855
0.150442052189
0.150501879191
0.150575104799
0.15066402047
0.150767040338
0.150877830856
0.15099695755
0.15112333738
0.15125426228
0.151390247037
0.151531693798
0.151678787806
0.151836031942
0.152008095464
0.15219636594
0.152401400738
0.152621098714
0.152853519083
0.153096432296
0.153350393567
0.153614549782
0.15389284661
0.154181756654
0.154457703831
0.154725392391
0.154988221681
0.155244738267
0.155501413957
0.155759796469
0.156019524927
0.156280875849
0.156547460711
0.156822322142
0.157104127319
0.157389281348
0.157674195406
0.157955818909
0.158231786056
0.158500227921
0.158759588464
0.159008401451
0.159244827602
0.159466471994
0.159670851492
0.159855355277
0.160015367365
0.160147535591
0.160252825473
0.16033414477
0.160394323075
0.160435965485
0.160461435004
0.160473861634
0.160478866898
0.16045533192
0.160389761395
0.160270016409
0.160107540806
0.159926475183
0.159750202547
0.159588708632
0.159436078479
0.159280994923
0.159124899319
0.158987344997
0.158878353215
0.158789837045
0.158708077572
0.158655374749
0.158636017008
0.150180722252
0.150180021013
0.150187474734
0.150196562299
0.150214014423
0.150238318913
0.150267338
0.150298636277
0.150332467879
0.150371686808
0.150417559245
0.150478630292
0.150561741448
0.15065954809
0.150763010582
0.150868963009
0.150978672225
0.151095814888
0.151222888102
0.151357684737
0.151496406066
0.151642559204
0.151800906457
0.151974846754
0.152165156928
0.152371457247
0.152594897177
0.152830476936
0.153078257962
0.153336029255
0.15360664697
0.153888438872
0.154175898483
0.154459259394
0.154719395097
0.154970820862
0.155224282918
0.155482023482
0.155743311617
0.156007321933
0.15627426613
0.156546110272
0.156824542044
0.157108874204
0.157396529591
0.157684335339
0.157969304593
0.158249004976
0.158521577993
0.158785494379
0.159039209706
0.159280864026
0.159508155211
0.159718260018
0.159907522151
0.160071642123
0.160208332194
0.160318675539
0.160405227464
0.16047056071
0.160517111339
0.160548387774
0.160569099937
0.160576021824
0.160556584788
0.160490536534
0.160366787668
0.160192946521
0.159990020066
0.159788430494
0.159603768837
0.159423488572
0.159234999699
0.159054976182
0.158902545742
0.158778648231
0.158666603559
0.158566070125
0.158505356213
0.158478859859
0.150129808871
0.150133310344
0.150147078228
0.150161015134
0.150175363745
0.150199493758
0.150230687507
0.150262953652
0.150299473973
0.150340943666
0.150390875476
0.150455237504
0.15054681632
0.150645449796
0.150745414448
0.15084339747
0.150946433512
0.15106234252
0.151189359877
0.151318722917
0.151454019296
0.151600512061
0.151759848941
0.151934690785
0.152127015345
0.152338842251
0.152562944884
0.152803519247
0.153056437012
0.153323501424
0.153600013893
0.153881947252
0.154170971336
0.154445162272
0.154700372875
0.15494724845
0.155200325482
0.155460317944
0.15572520344
0.155993691415
0.156265950292
0.156543134704
0.156826079681
0.157114213177
0.157405501143
0.157697116006
0.15798619096
0.158270349373
0.15854782968
0.158817192748
0.159076906191
0.159325053687
0.159559132865
0.159775862278
0.159971248044
0.160141592379
0.160285383362
0.160403608849
0.160498089197
0.160570534896
0.160623771927
0.160663637443
0.160693037817
0.160702958095
0.160699277516
0.160635664138
0.160500601317
0.160307833563
0.160078208579
0.159843250036
0.159618634642
0.159392280512
0.159163853814
0.158958038218
0.158783387011
0.158631814473
0.158488429917
0.158371354294
0.158302544053
0.158268482466
0.150070318901
0.150077643161
0.150094272718
0.150115856832
0.150131852417
0.150155904509
0.150186290935
0.150220172122
0.150260290091
0.150299886092
0.150356955505
0.150433754196
0.150524105568
0.150620880795
0.150713965215
0.150804449747
0.150907307678
0.151025838948
0.151147939482
0.151272200819
0.151405122312
0.151551823159
0.151712467451
0.151890115877
0.152085939317
0.152300704745
0.152530735208
0.152769821538
0.153033443636
0.153313975233
0.153590331465
0.153867428331
0.154154684313
0.154420946246
0.154669027595
0.154918236436
0.155173757575
0.155436512121
0.155705138148
0.155978289603
0.156255923742
0.156538731115
0.15682701727
0.157120078213
0.15741609684
0.157712481651
0.158006525249
0.158296000849
0.158579304356
0.158855108776
0.159121903112
0.159377667871
0.159619629522
0.159844207151
0.160047538805
0.160226679113
0.160380637917
0.160509765982
0.160614205517
0.160694220838
0.160754150706
0.160802418709
0.16084061106
0.160865186118
0.160875830381
0.160835898316
0.160691152898
0.160467334068
0.160196376308
0.159909235632
0.159623680547
0.159337414853
0.15906597715
0.158827740622
0.158620667201
0.158430794532
0.158258979776
0.158125059315
0.158048775762
0.15801249003
0.150005591951
0.150015507658
0.150032737752
0.150050266855
0.150071917102
0.150103416198
0.150133037694
0.150167919946
0.150214024443
0.150258256513
0.150312686611
0.150398210027
0.150491471437
0.150583501703
0.15067066099
0.150760951019
0.150863669924
0.150980091864
0.151097773553
0.151219466239
0.151350765712
0.151496241165
0.15165647681
0.151835601195
0.152041797682
0.152257641949
0.152493976703
0.152743925779
0.153008922981
0.153288823209
0.15357258901
0.153858519433
0.154125525047
0.154381929998
0.154632234915
0.154885233815
0.155144237415
0.155410245198
0.155682764581
0.1559607938
0.1562441022
0.156532985369
0.15682738923
0.157126425072
0.157428274091
0.157730460577
0.158030467477
0.158326279747
0.158616458624
0.158899764651
0.159174688584
0.159439098879
0.159690020457
0.159923840509
0.160137182335
0.160327913407
0.160495113434
0.160637457386
0.16075192603
0.160837633735
0.160904662492
0.160967964601
0.161027154758
0.161072104729
0.161090884081
0.161075092135
0.160955278145
0.160686401032
0.160351298304
0.159985754357
0.159614282103
0.159256130547
0.158935101665
0.158655739505
0.158406689812
0.158176270362
0.157977915186
0.157827499304
0.157739764864
0.157701745218
0.149934847178
0.149946917379
0.149967078913
0.149984476956
0.150007198595
0.150039723752
0.150070176862
0.150105151423
0.150149599781
0.150208133339
0.150267445635
0.150352961334
0.15044716227
0.150534639255
0.150616150612
0.150709376528
0.15081659744
0.150927575826
0.15103999571
0.151159779345
0.151291212566
0.151436515094
0.151596751109
0.151774132552
0.151988101125
0.152214233165
0.152444162179
0.152705718381
0.152976575039
0.153262667535
0.153548326308
0.15382926957
0.154091762364
0.154339623225
0.15459123789
0.154848390253
0.155111426893
0.155381193135
0.155657830383
0.155940913665
0.156230258054
0.156525815847
0.156827165184
0.157133200135
0.157442020464
0.15775117851
0.158058321423
0.15836167026
0.158659928188
0.158951864045
0.159235916699
0.159509864421
0.159770688957
0.160015066806
0.160240422493
0.160445344525
0.160628172472
0.160783623658
0.160903315574
0.160991279077
0.161073604237
0.161169514613
0.16126651771
0.161342046133
0.161373987715
0.161348352264
0.161239909357
0.160989428265
0.160552624229
0.160066627204
0.159582384018
0.159139559238
0.158758487053
0.158430228893
0.158135007879
0.157864890773
0.157634264654
0.157459381966
0.157348284173
0.157298497758
0.149855145303
0.149867079175
0.149888636899
0.149910939453
0.149940533171
0.149967309774
0.149997632943
0.150034406871
0.150071861485
0.150136793649
0.150208454595
0.150294576077
0.150389109087
0.150475524004
0.150555950934
0.150649317386
0.150758482851
0.150866020367
0.150974668161
0.151091689278
0.151223250477
0.15137036363
0.151535673162
0.151713045663
0.151919824688
0.152164057201
0.152404064622
0.152664544641
0.152936429302
0.153212203143
0.153508852288
0.1537898975
0.154045630035
0.154291990151
0.154546308805
0.154807576796
0.155074976756
0.155349042946
0.155630160277
0.155918449771
0.156214131793
0.156516999322
0.156826195353
0.15714031615
0.157457333211
0.157774804788
0.15809052258
0.158402881749
0.158710621693
0.159012398815
0.15930649991
0.159590619569
0.159861914943
0.160117763589
0.160356674822
0.160577586524
0.160775769271
0.160936716659
0.1610523997
0.161148797521
0.161269702017
0.161426668937
0.161583892599
0.161708631896
0.161761357459
0.161709788855
0.16154483221
0.161278103758
0.160809271495
0.160152563848
0.159515082558
0.158966233149
0.15851451721
0.158136342593
0.157799762312
0.157485479837
0.157203359984
0.156982894972
0.156832795675
0.156761101042
0.149764500056
0.149773891782
0.149789717593
0.149818726015
0.149858177462
0.149883624197
0.14991411226
0.149955213016
0.149991269871
0.150052525162
0.150133658321
0.150222402513
0.150316214954
0.150403113896
0.150489319841
0.150584629274
0.150691843122
0.150795861956
0.150902103286
0.15101653686
0.151145150252
0.151290024362
0.151465365164
0.151656542731
0.151857113334
0.152101651927
0.152351404858
0.152606236798
0.152893713383
0.153176547654
0.153460948119
0.153730286042
0.153983634164
0.154237524214
0.154496504714
0.154762183824
0.155034348907
0.155313318049
0.155599510882
0.155893253646
0.156195414485
0.156506163121
0.156824213024
0.15714761061
0.157474176668
0.157801541816
0.158127622633
0.158450853713
0.15876980779
0.159082806134
0.159387772408
0.159682246403
0.159963888724
0.160231323305
0.160484289876
0.160720095367
0.160924365975
0.161075475359
0.161188113401
0.161317642434
0.161519418245
0.161775278482
0.162018611955
0.162224991535
0.162320406685
0.162247644492
0.161980363757
0.161573756328
0.161001371799
0.160199259467
0.159382544361
0.158698352467
0.158167346183
0.157754855938
0.157395770142
0.157026984887
0.156653147152
0.156361076244
0.156165160521
0.156075822705
0.149662570862
0.149669344377
0.149676693251
0.14970977038
0.149749085726
0.149780762697
0.149814424708
0.149860420389
0.149902399
0.149961954621
0.150047093743
0.150137219943
0.150229424451
0.150313418853
0.150407101684
0.1505113143
0.150615859755
0.150716833105
0.150821657556
0.150935037182
0.15106045716
0.151199380757
0.151373074578
0.151588649192
0.151796591165
0.152025922815
0.152291711162
0.152553856981
0.152829197133
0.153117706731
0.153401538765
0.153665113094
0.153916719804
0.154176007689
0.154440715414
0.15471159044
0.154988883332
0.155273057057
0.15556509419
0.155865153063
0.156174104256
0.156492973249
0.156820707626
0.157154721562
0.157492416742
0.157831555468
0.158170239635
0.158506768648
0.158839206215
0.159165143045
0.159481715723
0.159786122928
0.160076940322
0.160354525971
0.160619483875
0.160860972933
0.161050314127
0.161179511581
0.161305715909
0.16152017219
0.161870911584
0.162267809675
0.162615963251
0.162977722379
0.163171528459
0.163081360689
0.162653290735
0.161957992799
0.161103953142
0.160085710565
0.159108557479
0.15826857702
0.157659586022
0.157263371926
0.1569411788
0.156503934465
0.15594612978
0.155554759868
0.155308322636
0.155218700493
0.149550309574
0.149558207286
0.149570728804
0.14959291901
0.149626987653
0.149662628086
0.149700365903
0.14974859384
0.149800829911
0.149861153963
0.149948848067
0.150039903489
0.150131431359
0.150213826769
0.150307511444
0.150419923382
0.150526309863
0.150627445217
0.150732136511
0.150845535595
0.15096979227
0.151104449335
0.151273180105
0.151500035465
0.151724395794
0.151951009164
0.152222445266
0.152493191286
0.152762542784
0.153049430059
0.153320528055
0.153579684201
0.153840763987
0.154107093089
0.154378047839
0.154654769358
0.154938227052
0.155228192032
0.155525949607
0.155832943701
0.156149757931
0.15647732883
0.156815298197
0.157161067353
0.157511632443
0.157864827216
0.158218967641
0.158571992508
0.158921009726
0.159262282278
0.159591367558
0.159904698026
0.160201925852
0.160485654876
0.160756460131
0.160978532362
0.161118923565
0.161222368461
0.161408186994
0.161831339362
0.162416053691
0.162998070986
0.163404716318
0.164086190551
0.164395580361
0.164274152124
0.163582228818
0.1623651086
0.161064530668
0.159865702843
0.158585764098
0.157565257342
0.156914285825
0.156660373307
0.15654061713
0.156010451811
0.155000090696
0.154496323755
0.154180728335
0.154138556711
0.149424443395
0.149433239083
0.149454985861
0.149467545212
0.14949514335
0.149531894579
0.149572912095
0.149624969659
0.149689936833
0.149750190734
0.149838762501
0.149930801221
0.150022728382
0.150106674647
0.150201107702
0.150316466304
0.150424851189
0.15052778659
0.150633525309
0.150747193465
0.150871387067
0.151005470162
0.151166497513
0.151388446545
0.151639612542
0.151875217263
0.152132861827
0.152424642267
0.152703932749
0.152966920371
0.153228255373
0.153489533394
0.153756861732
0.154029933389
0.154307889444
0.154591308331
0.154880943102
0.155177682832
0.155482141803
0.15579598646
0.15612119054
0.156458505418
0.156807549269
0.157166026498
0.157531077314
0.157900890647
0.158274004142
0.158647906163
0.159018109625
0.159378195262
0.15972124562
0.160042522293
0.160341484148
0.160623081835
0.160889864686
0.161040789713
0.161101027633
0.161192383534
0.16166842744
0.16244191892
0.163376637059
0.164001077936
0.163682134063
0.163966138141
0.164425358495
0.164619385851
0.164293233685
0.163016017074
0.161012202216
0.159098819359
0.157721039258
0.156549765471
0.155476039465
0.15566895913
0.156357019393
0.155751172979
0.15362189248
0.153084393972
0.152614964041
0.152809654732
0.149282288379
0.149290068785
0.14930929017
0.149323894267
0.149348732287
0.149387060356
0.149429573285
0.14948075978
0.149558078761
0.149626829936
0.149715436101
0.149809111929
0.149902745141
0.149990810134
0.15008771631
0.150203703118
0.150313342575
0.150418754406
0.15052624411
0.150640606469
0.150764643857
0.150899516478
0.151056381988
0.151270236513
0.151536978643
0.151789480876
0.152038041536
0.152322153651
0.15261299056
0.152879052401
0.153133498547
0.153394109955
0.153665856783
0.153945634403
0.154230587333
0.154520514945
0.154816907593
0.155120402653
0.15543232194
0.155753880398
0.156087671593
0.156435399118
0.156796604341
0.157168757987
0.157549371059
0.157938254591
0.158335248752
0.158736682994
0.15913406121
0.159517263688
0.159878164947
0.160208069008
0.160501177374
0.160763375668
0.160990879019
0.160953010615
0.161044006488
0.161364853579
0.162588709464
0.163274534649
0.163229096155
0.163537821316
0.163843048366
0.163918730814
0.164056388114
0.163956914232
0.163317381945
0.161991346975
0.160307492268
0.15869892539
0.15740034116
0.156401751099
0.156106002656
0.156997461169
0.158588153865
0.157898929476
0.149948529607
0.150853281876
0.150268615923
0.151395936897
0.149126215286
0.1491329245
0.149152265978
0.149166642256
0.149191112903
0.149229744789
0.1492732164
0.149320715233
0.149398724721
0.149481939428
0.149575611289
0.149672454896
0.14976926535
0.149865173067
0.149964936889
0.150081174707
0.150192014168
0.150300630563
0.150410405186
0.150526000114
0.150650209139
0.150784953556
0.15093908926
0.151143963611
0.151409621349
0.151690977148
0.151947972946
0.152217970625
0.152501780406
0.15276581796
0.153020000617
0.153287199841
0.153565614749
0.153852314708
0.154144743577
0.154442211125
0.154745454551
0.15505621198
0.155375655561
0.155705647167
0.156048505907
0.156406571074
0.156780682409
0.157168170151
0.157565828249
0.157975921749
0.158401578111
0.158838019954
0.159270879691
0.159685902621
0.16007430362
0.160418922777
0.160693337266
0.160884802447
0.160956967866
0.160846748353
0.160982091342
0.161489065684
0.16224363849
0.162974771017
0.163269157915
0.163344375299
0.163447054244
0.163409060285
0.163295575614
0.162975844523
0.162283350334
0.161166544104
0.159786262813
0.15836109764
0.157058083634
0.156035957938
0.155487869441
0.155411911731
0.155123003661
0.152816482796
0.152774182827
0.152656900652
0.145471944767
0.150302942282
0.14895835459
0.14896351366
0.148978483725
0.148994384127
0.14902303585
0.149061553922
0.149107356754
0.149153187293
0.149229519875
0.149321291576
0.14941942769
0.149518876835
0.149617271839
0.149723689583
0.149829889764
0.14994614185
0.150058766377
0.150172273576
0.150285210059
0.150402693826
0.150527637734
0.15066191029
0.150813808233
0.15101171635
0.151273264127
0.151572291284
0.151848381176
0.152112782615
0.152382257953
0.152639812825
0.152896408524
0.153168971441
0.153453829454
0.153747074157
0.154047265738
0.154353860353
0.154665800934
0.154983897797
0.155311615411
0.15565009764
0.156002318502
0.156371878534
0.156759778987
0.157163258099
0.157576463639
0.158008004371
0.158475014574
0.158968531208
0.159448559577
0.159906238536
0.160342150798
0.16072545906
0.160986716668
0.161108748293
0.160863378771
0.16066930192
0.1607255232
0.161397406546
0.162035834416
0.162506602954
0.162724995198
0.162750619857
0.16271274613
0.162556610762
0.162253342498
0.161740331133
0.160933700071
0.159810379578
0.158462272936
0.157052889819
0.155683898261
0.154442108918
0.15343874925
0.15262398771
0.151716979743
0.150281814922
0.149431069325
0.147055858235
0.148747775795
0.156520102926
0.148781067639
0.148785003713
0.148794879034
0.148812760062
0.148845133094
0.148882952781
0.14893022773
0.148978944465
0.14905100101
0.149147008867
0.149247860401
0.149348861958
0.149446700273
0.149557757979
0.149676180111
0.149795085937
0.149910075891
0.150029255557
0.150148104308
0.150269014512
0.150396031034
0.150529567844
0.150679606158
0.150871611321
0.151123811428
0.151419398335
0.151717414841
0.151991391621
0.152256332347
0.152510479438
0.152764173057
0.153040284107
0.153331552393
0.153628162454
0.153937711957
0.154254458024
0.154574096321
0.154901072108
0.155238239593
0.155587293413
0.155949637659
0.156329367476
0.156729886554
0.157153424038
0.157600938206
0.158078201811
0.158592625198
0.159126460203
0.159659393781
0.160205088587
0.160756069778
0.161285213666
0.16158877548
0.161804028658
0.161200451934
0.160560257079
0.160311046558
0.161079861898
0.16164239729
0.161918960874
0.162010927142
0.161940084122
0.161741163324
0.161405546171
0.160906058456
0.160205865181
0.159264680503
0.158075940083
0.156693415889
0.155209863864
0.153709741628
0.15219652169
0.150697865684
0.149218462272
0.147625458311
0.145710266435
0.143849092637
0.142442262411
0.144344055941
0.135236723336
0.148594851645
0.148598360545
0.148606551872
0.148627689263
0.148659730688
0.148694965043
0.148739305099
0.148793221952
0.148860809195
0.148958402256
0.149061212803
0.149163746343
0.149262375151
0.149373209402
0.149501723095
0.14962674331
0.149745873021
0.149869533937
0.149994998789
0.150121862281
0.150253743948
0.150387326455
0.150535580237
0.150723343364
0.150966535197
0.151255181928
0.151561407226
0.151848501671
0.152106118263
0.152356860461
0.152617823265
0.152894226998
0.153189717351
0.153495064066
0.153814584144
0.154140518475
0.154468847249
0.154805633673
0.155153168274
0.155513483297
0.155888006021
0.156280546538
0.156700601352
0.157160391243
0.157658266638
0.15817507579
0.158716450508
0.159290378757
0.159917300868
0.16063113157
0.161446218787
0.162401966635
0.162799444994
0.163987255168
0.161468223933
0.160504928993
0.160439617071
0.160901583888
0.161158750588
0.161194498289
0.161092993093
0.1608534153
0.16047229916
0.15994409186
0.159249335241
0.158362052479
0.157259160402
0.155937228895
0.154424256601
0.152769988912
0.151026348964
0.149153618379
0.147087982895
0.144810448812
0.142192171305
0.139002536202
0.135206141404
0.130403579909
0.124770152583
0.116840179969
0.148397059823
0.148400476785
0.148409083642
0.148434979166
0.148465895179
0.148498122629
0.148537281409
0.148594699758
0.148656559094
0.148753992427
0.148858850284
0.148963146521
0.149063764361
0.149176216082
0.14930990429
0.149441310141
0.149566263421
0.149694931982
0.149825277382
0.149958491827
0.150097842718
0.150233669013
0.150379933752
0.150564591229
0.150800131062
0.151080617145
0.151388113133
0.151681913622
0.151948554138
0.152196007273
0.152461578975
0.152742872048
0.153037063031
0.153340812829
0.153666052676
0.154006938216
0.154348235582
0.154696998099
0.155054948246
0.155426678588
0.155815683274
0.156225866043
0.156677361503
0.15718650421
0.157721652562
0.158261351879
0.158830713216
0.159475852783
0.160256318722
0.161224458854
0.162451178563
0.164378567079
0.163057270581
0.162831704662
0.162685767171
0.161450297527
0.160797311743
0.160664857144
0.160553240516
0.160328387948
0.159999236365
0.159551934066
0.158967378418
0.158232073141
0.157328797946
0.156236986661
0.154939034395
0.153428104721
0.15171210671
0.149806936953
0.14771948418
0.145429085093
0.142774470408
0.139589801742
0.135699859141
0.130683439181
0.123815588026
0.113287877995
0.0950712163895
0.053171111517
0.148182104729
0.14818525156
0.148196047548
0.148227862946
0.148258158238
0.148288175378
0.148324599762
0.148381859615
0.148437814816
0.148532884479
0.148639699927
0.148745834421
0.148848645691
0.148962770968
0.149099471365
0.149236689223
0.149369734288
0.149504159467
0.149638337972
0.149777004807
0.149925034077
0.150066306723
0.150210305996
0.150392063585
0.150621959396
0.150893291444
0.151195522625
0.151484362067
0.151764564605
0.152025520956
0.152289909363
0.152568842735
0.152869897208
0.153183584208
0.153503889808
0.153849913154
0.154206462202
0.154569080115
0.154942376067
0.155327075181
0.155729325241
0.15616736911
0.156669806537
0.157224296555
0.157780138305
0.158342395234
0.158968747507
0.159731171882
0.160668452682
0.161796623584
0.162922958442
0.163401554923
0.163538766753
0.162873219692
0.162274662723
0.161332096285
0.16059893286
0.160149897056
0.159754471168
0.15928675646
0.158723771704
0.158049746613
0.15724329902
0.156285944507
0.15515954471
0.153844573217
0.152322676076
0.150579909992
0.148607017664
0.146393627856
0.143915840331
0.141124616416
0.137852112466
0.133787075954
0.128625157802
0.121830288082
0.112344613922
0.0980503401846
0.0750648867278
0.0378370426442
0.147942164795
0.147945088069
0.147957918566
0.147995462255
0.148024793051
0.14805614645
0.148091657648
0.148145946727
0.148199040754
0.148293404166
0.14840246147
0.148510398509
0.148615353915
0.148730663902
0.148868456911
0.149009103663
0.14915233373
0.149293963517
0.149432152694
0.149575532807
0.149731192629
0.149882193853
0.150025310773
0.150202839017
0.150429068659
0.150692593648
0.150987707989
0.151269716247
0.151547821445
0.151827436971
0.152107718736
0.152387692066
0.152675454673
0.152992490048
0.153327480548
0.153677024892
0.154043671176
0.154419692359
0.154807790022
0.155209139996
0.155634752049
0.156118263962
0.156676443037
0.157261020078
0.157844644857
0.158462827119
0.15918826792
0.160061414612
0.160991384301
0.161966231331
0.16254102886
0.162854139917
0.162858784086
0.16235179455
0.161714246673
0.160929575154
0.160142705354
0.159448250119
0.158781509113
0.15806370324
0.157260458321
0.15635108222
0.155313130298
0.154124950279
0.15276574469
0.151213957766
0.149447409893
0.147443763445
0.145178811826
0.142620739035
0.139719708516
0.136392905064
0.132510431177
0.127729366629
0.121548243176
0.113430263974
0.10245257139
0.0870343609418
0.0645012165827
0.0339600306345
0.147670465209
0.147675394517
0.147688766561
0.147725339159
0.147757527886
0.147795777698
0.147834270598
0.147888265057
0.147945750877
0.148034875464
0.148145597292
0.148255331879
0.148362482923
0.14847870999
0.148616291522
0.148756595788
0.148905686292
0.14905820537
0.149203339521
0.149352715064
0.14951369247
0.149677181913
0.14982839363
0.149996579145
0.150219794965
0.150477687054
0.150765700247
0.151042834114
0.151314277702
0.151601587375
0.15189809008
0.152193042941
0.15247997318
0.152786962325
0.153121274254
0.153481502714
0.153860070343
0.154250993319
0.154652079521
0.155072819379
0.155539659342
0.156084140253
0.156686638112
0.157305450351
0.157944176942
0.158657045978
0.159475724088
0.160207555937
0.160858953724
0.161649289741
0.161969399545
0.162193979008
0.162108052934
0.161659656385
0.160999006748
0.160195583869
0.159324414122
0.158450659026
0.157563968011
0.156621816908
0.15559328364
0.154456562427
0.153189785261
0.151770355108
0.150175257509
0.148379994287
0.146357655005
0.144077833058
0.141503897656
0.138587358603
0.135258627862
0.131413829708
0.126895800587
0.12147852914
0.114661484494
0.105756324962
0.0939813967671
0.0782676571067
0.0566986583811
0.0298268279398
0.147371767374
0.14738054165
0.147393634113
0.147422758137
0.147461403965
0.14750672231
0.147551119573
0.147609280065
0.147676622821
0.147759347726
0.14786859109
0.147979358677
0.148088801846
0.148206176435
0.148343769408
0.148484406774
0.148633263833
0.148795122913
0.148950370488
0.149108070329
0.149274442579
0.149449854393
0.149619367809
0.149789816358
0.149998344399
0.15025008246
0.150531647529
0.150805145602
0.151068953609
0.151355092278
0.151658522113
0.151974651312
0.152272766918
0.152572964402
0.152899468004
0.15325932286