/*--------------------------------*- C++ -*----------------------------------*\
| =========                 |                                                 |
| \\      /  F ield         | OpenFOAM: The Open Source CFD Toolbox           |
|  \\    /   O peration     | Version:  v1806                                 |
|   \\  /    A nd           | Web:      www.OpenFOAM.com                      |
|    \\/     M anipulation  |                                                 |
\*---------------------------------------------------------------------------*/
FoamFile
{
    version     2.0;
    format      ascii;
    class       volScalarField;
    location    "738";
    object      pa;
}
// * * * * * * * * * * * * * * * * * * * * * * * * * * * * * * * * * * * * * //

dimensions      [0 2 -2 0 0 0 0];


internalField   nonuniform List<scalar> 
6400
(
-0.122278834896
-0.122279538534
-0.122281527403
-0.122285444626
-0.122291345274
-0.122299286099
-0.122309347201
-0.122321939397
-0.122337530135
-0.12235674265
-0.122381345634
-0.122412510787
-0.122449966217
-0.12249411931
-0.122546032217
-0.122607084459
-0.122678500079
-0.122760947862
-0.12285444587
-0.122957900673
-0.123070100768
-0.123192261312
-0.123327813965
-0.123480534297
-0.123653266122
-0.123846943019
-0.124061117085
-0.124295630878
-0.124551284741
-0.124829405971
-0.125131270042
-0.125456966508
-0.125804376247
-0.126171148672
-0.126556546242
-0.126959706191
-0.127381471809
-0.127825861826
-0.128292457545
-0.128776030555
-0.129277431274
-0.12980516182
-0.130363893693
-0.130948470087
-0.131551122494
-0.132166040047
-0.132788556942
-0.13341481123
-0.134041065489
-0.134663880914
-0.135280181017
-0.135884658414
-0.136468331974
-0.137019930776
-0.137535977536
-0.13801878955
-0.138462395028
-0.138854644064
-0.139189603497
-0.139471729938
-0.139704966002
-0.139889890051
-0.140025206507
-0.140133411976
-0.14025301814
-0.140423209168
-0.140641399563
-0.140860436724
-0.141043928189
-0.14118911965
-0.141305724426
-0.141404664075
-0.14149290516
-0.141568500304
-0.141633613933
-0.141688462691
-0.14173258511
-0.141760842503
-0.141778586395
-0.141786003747
-0.1222778635
-0.122278610056
-0.122280405441
-0.122284200786
-0.122290386504
-0.122298591713
-0.122308649342
-0.122320704756
-0.122335685758
-0.122354685996
-0.122378997279
-0.122409651004
-0.122446870627
-0.122490907472
-0.122542438926
-0.12260263409
-0.122673395818
-0.122755583017
-0.122848976141
-0.122952108715
-0.123063175098
-0.123184169406
-0.123319085319
-0.123471304853
-0.123643632569
-0.123836999648
-0.124050682591
-0.124284792859
-0.124540187178
-0.12481795424
-0.125119173094
-0.125444413948
-0.125791670187
-0.126157863423
-0.126542813631
-0.126945707219
-0.127367056949
-0.127811474558
-0.128278610692
-0.128762625802
-0.129263518467
-0.129791337997
-0.130351990996
-0.130938132416
-0.131541643351
-0.132157601604
-0.13278131158
-0.133409059095
-0.134036798623
-0.134660053855
-0.135275631742
-0.135880985014
-0.13646883433
-0.137022816473
-0.137540744609
-0.138026429405
-0.138469030789
-0.138858894739
-0.139194217745
-0.139476303308
-0.139707211366
-0.139892476142
-0.140031082842
-0.140143752489
-0.140267397448
-0.140438735196
-0.140659897953
-0.140878522308
-0.141060349596
-0.141204699259
-0.141320684562
-0.141419513588
-0.141508221595
-0.141584517336
-0.141648202099
-0.141700528659
-0.14174082438
-0.141767694468
-0.141784649014
-0.141790263369
-0.122275098993
-0.12227628289
-0.122277864573
-0.122281280531
-0.122287148317
-0.12229608482
-0.122306657745
-0.122318042844
-0.122332016884
-0.122350252427
-0.122373908489
-0.122403860653
-0.122440463374
-0.122483907954
-0.122534567428
-0.122592787209
-0.122661606731
-0.122743939505
-0.122837150403
-0.122938960066
-0.123047936513
-0.123166263381
-0.123299750932
-0.123451666811
-0.123623086295
-0.123815057738
-0.124027818538
-0.124261239973
-0.124515838886
-0.124792683561
-0.125092790405
-0.125417056014
-0.125763961698
-0.126128652155
-0.126511689597
-0.126914585114
-0.12733534324
-0.127778637258
-0.12824603678
-0.128731748442
-0.12923619142
-0.129766613335
-0.130327011424
-0.130912914202
-0.131517343863
-0.132134847731
-0.132760825061
-0.133391179365
-0.13402180325
-0.134648602004
-0.135267908637
-0.135875148305
-0.136462160869
-0.13701973826
-0.137544971272
-0.138033256297
-0.138474953365
-0.138864295316
-0.13919971324
-0.139482030368
-0.139714177705
-0.139899205494
-0.1400418971
-0.140164947535
-0.140302875366
-0.140483261564
-0.14069725718
-0.140908838251
-0.141091217322
-0.141237390657
-0.141354999404
-0.1414541188
-0.141539139706
-0.141610521404
-0.141671175986
-0.141720361779
-0.141756504046
-0.141780741429
-0.141795697975
-0.141800969063
-0.122271138416
-0.122272312441
-0.122273596349
-0.122276639241
-0.122281627224
-0.122290176507
-0.122302857584
-0.122313981703
-0.122326599508
-0.122343618467
-0.122366255662
-0.122395297519
-0.122431042124
-0.122473269373
-0.122522333629
-0.122579941121
-0.12264807598
-0.122727986325
-0.122817413847
-0.122914496528
-0.123020832645
-0.123138919498
-0.123271635518
-0.123421998822
-0.123591912318
-0.12378239094
-0.12399375928
-0.124225923683
-0.124479270423
-0.124754678245
-0.125053440072
-0.125376278068
-0.125721754658
-0.126085979133
-0.126466074235
-0.126865973268
-0.127287602036
-0.127730452434
-0.128196297321
-0.128683918076
-0.129192955655
-0.129727141258
-0.130289053021
-0.130875872754
-0.131481979103
-0.132101989759
-0.132731170738
-0.133365219204
-0.133999955408
-0.134631227319
-0.135254817117
-0.135865483566
-0.136456040263
-0.137019138448
-0.137549445738
-0.138040139213
-0.138482929259
-0.138872859746
-0.139208685271
-0.139491565042
-0.139724747302
-0.139913487967
-0.14006891654
-0.140211309214
-0.140361616167
-0.140539097626
-0.140750714366
-0.14096187303
-0.141145171303
-0.141292348877
-0.141407891045
-0.141500517839
-0.141578273562
-0.141647830442
-0.141707711903
-0.141752272426
-0.141782279832
-0.141804395221
-0.141819459957
-0.141825619899
-0.12226496889
-0.122265153284
-0.1222666376
-0.122269573928
-0.122274775583
-0.122282070543
-0.122293158736
-0.12230504225
-0.122317900052
-0.122334303739
-0.122355762275
-0.122383705778
-0.122418299862
-0.122459945483
-0.122508758677
-0.122564434114
-0.122628863953
-0.122703337656
-0.122787761932
-0.122881965635
-0.122986558385
-0.12310300516
-0.123234051485
-0.123382567451
-0.123550411911
-0.123738804324
-0.123948103978
-0.124178439153
-0.124430079796
-0.124703725186
-0.125000418585
-0.125321804431
-0.125666554696
-0.126027138516
-0.126404412151
-0.126801804201
-0.127221005771
-0.127663997923
-0.12813102593
-0.128621180066
-0.129134362236
-0.129672549598
-0.130237126093
-0.130826076514
-0.131434844962
-0.132058344612
-0.132691760898
-0.133330629658
-0.133970668967
-0.134607594198
-0.135236817815
-0.135852850656
-0.136449037534
-0.137018437565
-0.137554216977
-0.138048431806
-0.138493469708
-0.138885048894
-0.139222390034
-0.139507451984
-0.139745037582
-0.139943578989
-0.140117201326
-0.140279332173
-0.140439093592
-0.140618699456
-0.14082772145
-0.141037314515
-0.141220760333
-0.141366422903
-0.141475540061
-0.141560255677
-0.141636566804
-0.14170745695
-0.141762870315
-0.14180069853
-0.141827048298
-0.14185012914
-0.141863569258
-0.141867710914
-0.122253959072
-0.122253821119
-0.122256139022
-0.12225892946
-0.122264144676
-0.122271093182
-0.12228117347
-0.122292624582
-0.122305766494
-0.122321769035
-0.12234172753
-0.122368231952
-0.122402552481
-0.122443765341
-0.122490136199
-0.122542376266
-0.122602398067
-0.122672190556
-0.122752427643
-0.122843112078
-0.122944476952
-0.123058280226
-0.123187039217
-0.1233332342
-0.123498554018
-0.123684005919
-0.123890621207
-0.124118506365
-0.124367970935
-0.124639479228
-0.124933986742
-0.125252624041
-0.125593731942
-0.125953272328
-0.126326387355
-0.126719496294
-0.127137355056
-0.127580934016
-0.128049664116
-0.128542712277
-0.129059979765
-0.12960247271
-0.130170738815
-0.130763072442
-0.131375641973
-0.132003704463
-0.132642450649
-0.133287301915
-0.133933873607
-0.134577747611
-0.135214117127
-0.135837379439
-0.136440999063
-0.137017770314
-0.137559841756
-0.13805884044
-0.138507757587
-0.13890300056
-0.139244512552
-0.139535461073
-0.139782429417
-0.139995896615
-0.140190518755
-0.140368193189
-0.140538128537
-0.140726327712
-0.140938744299
-0.141145453524
-0.141324141167
-0.14146201869
-0.141562076998
-0.141644546549
-0.141724196832
-0.141791280625
-0.141838860081
-0.141870261821
-0.141895445699
-0.141915435395
-0.141924825166
-0.141928402623
-0.122237534163
-0.122238501496
-0.122242129851
-0.122245987553
-0.122249635287
-0.122256229252
-0.12226620339
-0.122277228613
-0.122290120279
-0.122305525863
-0.122325092608
-0.122349793244
-0.122382818992
-0.122421361069
-0.122464379469
-0.122512729479
-0.122568880908
-0.122634899341
-0.122711131854
-0.122797142133
-0.122894420085
-0.123005038342
-0.123130740444
-0.123273720847
-0.123435798821
-0.12361834215
-0.123820793581
-0.124045452268
-0.124292410969
-0.124562086969
-0.124853416074
-0.125167819511
-0.125505188789
-0.125859153572
-0.126229306058
-0.126620028512
-0.127036980526
-0.127481190998
-0.127951771478
-0.128447850957
-0.128969263553
-0.129516432362
-0.130089314004
-0.130686256865
-0.131303861782
-0.13193768067
-0.132582959399
-0.133235058389
-0.133889510422
-0.134541789808
-0.135186941936
-0.135819231404
-0.136431953882
-0.137017438158
-0.137567231212
-0.138072994967
-0.138528440087
-0.138930798543
-0.139280881767
-0.139582785793
-0.139844256066
-0.140076539453
-0.140289113615
-0.140483321152
-0.140672571806
-0.140872525897
-0.141087673458
-0.14128739803
-0.141454445185
-0.141581567978
-0.141678059289
-0.14176470819
-0.141842906744
-0.141900745653
-0.141939200808
-0.141964776259
-0.14198661431
-0.141998837663
-0.142001338778
-0.142002822397
-0.122218507711
-0.122220503022
-0.122224383077
-0.12222949456
-0.122232705197
-0.122239360006
-0.122248201346
-0.122258716454
-0.122271312294
-0.122284641696
-0.122303974893
-0.12232811094
-0.122358155791
-0.122393118545
-0.122432403891
-0.122476588888
-0.122529224975
-0.122591528576
-0.122662854766
-0.122743788851
-0.122836457099
-0.122943003162
-0.12306486269
-0.123204347715
-0.123362766659
-0.123540906363
-0.123739888482
-0.123958418883
-0.124202913259
-0.124470788332
-0.124758437327
-0.125065663091
-0.125397475249
-0.125746732788
-0.126113055003
-0.126502840682
-0.126919558951
-0.127364305012
-0.127836644178
-0.12833581756
-0.12886153081
-0.129413811165
-0.129992195328
-0.130594953092
-0.131218899338
-0.131859795423
-0.132512961627
-0.133173736784
-0.133837590475
-0.134499902682
-0.135155586855
-0.13579872977
-0.136422336309
-0.137018333283
-0.137578082442
-0.138093697154
-0.138559726338
-0.138974051211
-0.139337698696
-0.139654772698
-0.139933008419
-0.140183251807
-0.140414813339
-0.140634374017
-0.140844869776
-0.141059757197
-0.141273020265
-0.141463931689
-0.141619328168
-0.141739410227
-0.141837101219
-0.141924606257
-0.141992886343
-0.142038748908
-0.142066826071
-0.142085031277
-0.142095325294
-0.142095651221
-0.142087728501
-0.142083377865
-0.122198044266
-0.122200493752
-0.122203985579
-0.122207376573
-0.122211335924
-0.122219023918
-0.122226836343
-0.122236420906
-0.122249013954
-0.122261539248
-0.122277321455
-0.122300404716
-0.122328134045
-0.122359052784
-0.122394578801
-0.122435666274
-0.122483808612
-0.122541133257
-0.122607248159
-0.122683133291
-0.122770764848
-0.122872184883
-0.122988765687
-0.123123399403
-0.123278961678
-0.123451239505
-0.123645553468
-0.123861132769
-0.124099150669
-0.124361844008
-0.124645758475
-0.124950135675
-0.125271530367
-0.125614144805
-0.125978504062
-0.126367641964
-0.126784186717
-0.127229414406
-0.127703414253
-0.128205710737
-0.128735940536
-0.12929382855
-0.129878592766
-0.130488372329
-0.131120045238
-0.131769490777
-0.132432099104
-0.133103205425
-0.133778213609
-0.134452395964
-0.135120531092
-0.135776514273
-0.136413106803
-0.13702208436
-0.137595087049
-0.138124987839
-0.138606930674
-0.13903840211
-0.139419570588
-0.139754237056
-0.140049987633
-0.140318892342
-0.140572963315
-0.140818215116
-0.14105406632
-0.141287450305
-0.141508523739
-0.141686885766
-0.141831734853
-0.141947970314
-0.142045720084
-0.142124481725
-0.142176400614
-0.142208428339
-0.1422242332
-0.142228324731
-0.142218917765
-0.142200704617
-0.14217934378
-0.142166200302
-0.122176004469
-0.122178607362
-0.122182233779
-0.122184498146
-0.122188378472
-0.122195111692
-0.12220192912
-0.122210010704
-0.122220500715
-0.12223426704
-0.122247587446
-0.122267563525
-0.122292396814
-0.122319744396
-0.122350831405
-0.122388573267
-0.122432750331
-0.122484295056
-0.12254430669
-0.122614628336
-0.122697075632
-0.122793135364
-0.122903779218
-0.123031064096
-0.123182032751
-0.12335111105
-0.123535641405
-0.123746888277
-0.123979012672
-0.124237141578
-0.124515670059
-0.12481324721
-0.125128655034
-0.125464311051
-0.12582544421
-0.126213558433
-0.126629841495
-0.127075496151
-0.127551067092
-0.128056481826
-0.128591453698
-0.129155494664
-0.129747543579
-0.13036557961
-0.131006464453
-0.131666125124
-0.132339991355
-0.133023382961
-0.133711606656
-0.134399790977
-0.135082561603
-0.135753686138
-0.136405870783
-0.137031158239
-0.137621940303
-0.138171972736
-0.138675783894
-0.139128245084
-0.139528897081
-0.139884571332
-0.140201457629
-0.140491078323
-0.140768551305
-0.141037999982
-0.141299629791
-0.141550712712
-0.141777739613
-0.141969278451
-0.14210613561
-0.142218011295
-0.142308118338
-0.142367323119
-0.142395679895
-0.142413483658
-0.142414743383
-0.142396434901
-0.142359450071
-0.142314287452
-0.142274112513
-0.142250003741
-0.122151685947
-0.122153884492
-0.122157235246
-0.122159452481
-0.12216409121
-0.122168459237
-0.122173763998
-0.122180292205
-0.122186802575
-0.122199487426
-0.12221191921
-0.122228884603
-0.122250431378
-0.122274906987
-0.122302107183
-0.122334896174
-0.122374343772
-0.122420256819
-0.122473933406
-0.122537682272
-0.122614025078
-0.122704736658
-0.122810841216
-0.122930103317
-0.123070595088
-0.123236624388
-0.123415621074
-0.123617974062
-0.123843306584
-0.124089922837
-0.124364131686
-0.124656122299
-0.124965280864
-0.125295781064
-0.125653476589
-0.126039803712
-0.126455424472
-0.126901373899
-0.127378437169
-0.127886935861
-0.128426838142
-0.128997585961
-0.129597860736
-0.130225449514
-0.130877159262
-0.131548936718
-0.132236221049
-0.132934258373
-0.133638184329
-0.13434290928
-0.135042908917
-0.135731932444
-0.13640296386
-0.137048851077
-0.137663234184
-0.138240530359
-0.138771746503
-0.139245726811
-0.139667344099
-0.140055772375
-0.140404436886
-0.140713616048
-0.141011137996
-0.141300717396
-0.141581768536
-0.141846950592
-0.142086194378
-0.142299931405
-0.142448714468
-0.142564752702
-0.142637051892
-0.142663111615
-0.142650082972
-0.142657646988
-0.14264422128
-0.142597578923
-0.142522430452
-0.142436850581
-0.142367048016
-0.142325722039
-0.122124600158
-0.122125904481
-0.122127476882
-0.122130417173
-0.122135553734
-0.122138293121
-0.122142111659
-0.122147400297
-0.122150966414
-0.122159576852
-0.122170273568
-0.122184228932
-0.122201975864
-0.122223402374
-0.12224817611
-0.122275670535
-0.122309095001
-0.122348826883
-0.122395973037
-0.12245244213
-0.122520869597
-0.12260415501
-0.122706495403
-0.122821821052
-0.122950002424
-0.123106121043
-0.123280485462
-0.123471260983
-0.123691397416
-0.123931096464
-0.124192996862
-0.124476078898
-0.124779426071
-0.125106754605
-0.125461271792
-0.125845188451
-0.126259632483
-0.12670565491
-0.127184160386
-0.127695720003
-0.128240664759
-0.128818618894
-0.12942808766
-0.130066604298
-0.130730906784
-0.131416991286
-0.1321202902
-0.132835882884
-0.133558584119
-0.134282984444
-0.135003374944
-0.135713664479
-0.136407519092
-0.137079199529
-0.137723915316
-0.138336792614
-0.138900819929
-0.139392659532
-0.139836109378
-0.14029009614
-0.140690517259
-0.141005103946
-0.141313090926
-0.141617149262
-0.141916848169
-0.142198707597
-0.142451126613
-0.14266659279
-0.142857064369
-0.142988062223
-0.143046093687
-0.143018418498
-0.14292345303
-0.142950755724
-0.14293095238
-0.142848672081
-0.142716486993
-0.142561570383
-0.142442294848
-0.142370180384
-0.122095039105
-0.122095472881
-0.122094874304
-0.122097655451
-0.12210119972
-0.122103442611
-0.122106108652
-0.122109682678
-0.1221117452
-0.122116621784
-0.122123773455
-0.122133944534
-0.122147313056
-0.122164116319
-0.122185672785
-0.122208821297
-0.122236477347
-0.122269731257
-0.122310016565
-0.122358953519
-0.122418537695
-0.12249181916
-0.122585939027
-0.122699304927
-0.122819755919
-0.122961047428
-0.123129037037
-0.123310388786
-0.123516132366
-0.123748355969
-0.124001968032
-0.124276909153
-0.124573030014
-0.124895817445
-0.12524692419
-0.125628126865
-0.126040929404
-0.126486634691
-0.126966484242
-0.127481223791
-0.128031362256
-0.128616892035
-0.129236435631
-0.129887316999
-0.130566163339
-0.131269083356
-0.131991542366
-0.132728321205
-0.133473695049
-0.134221724783
-0.134966479555
-0.135702219723
-0.136423589305
-0.137126546794
-0.137807171458
-0.138466736055
-0.139078001885
-0.139576060822
-0.14002712118
-0.140642731019
-0.141226255095
-0.141458051522
-0.141758903767
-0.142081473057
-0.142414114884
-0.142720739473
-0.142986947954
-0.143158670146
-0.143355384145
-0.143651109723
-0.143764253742
-0.143641574938
-0.143153716749
-0.143269155765
-0.143274812248
-0.143157145512
-0.142940635703
-0.142666853853
-0.142476644403
-0.142346546292
-0.1220636075
-0.122063799162
-0.122063332476
-0.122063289934
-0.122063987585
-0.122065100391
-0.122066345907
-0.122067301896
-0.122068482827
-0.122069693456
-0.122072662929
-0.122078479356
-0.122087084626
-0.12209853265
-0.122113885257
-0.122132551352
-0.122155216922
-0.122182248235
-0.122215385431
-0.122256445378
-0.122307109457
-0.122369644756
-0.122451771941
-0.12255880119
-0.122675854455
-0.122802754668
-0.122959351767
-0.123134295361
-0.123324710313
-0.123543416651
-0.123786484806
-0.124052830724
-0.124343849174
-0.124661838383
-0.12500879998
-0.125386738579
-0.125797538402
-0.126242595559
-0.126723402687
-0.127241289231
-0.127796939641
-0.128390487313
-0.129020856531
-0.129685449542
-0.130380908129
-0.131103566951
-0.131849002416
-0.132611551441
-0.133384579238
-0.134161346063
-0.134935586271
-0.135702185906
-0.136456549419
-0.137194863618
-0.137908010866
-0.138638896547
-0.1393628489
-0.139836392581
-0.140118442344
-0.141162293303
-0.14113267171
-0.141096902484
-0.141175814174
-0.141285530026
-0.141424952091
-0.141572694962
-0.141735700153
-0.141935499546
-0.142150861208
-0.142297401236
-0.142280098624
-0.142184986925
-0.142685919388
-0.143897591678
-0.144077399854
-0.143831542862
-0.14340256217
-0.142733159998
-0.142432967239
-0.142183406553
-0.12203020051
-0.122030259339
-0.122030254761
-0.122027098531
-0.122025115885
-0.12202437713
-0.122023734821
-0.122022281641
-0.122022342909
-0.122018948795
-0.12201722009
-0.122018313726
-0.122021923499
-0.122028095653
-0.122036673779
-0.122049117351
-0.122065786757
-0.122086191013
-0.122111738039
-0.122144304794
-0.122185744523
-0.122237830249
-0.122306113533
-0.12240144752
-0.122514647462
-0.122630538339
-0.122769844491
-0.122937998293
-0.123120500184
-0.123321318909
-0.123550529898
-0.123806743094
-0.124090516183
-0.124402771388
-0.124744932226
-0.125119038351
-0.125527203412
-0.125971304012
-0.12645289252
-0.126973632733
-0.127534869665
-0.128136949572
-0.128778928145
-0.129458440294
-0.130172510113
-0.13091809998
-0.131691106551
-0.132485215006
-0.133292351329
-0.134104449663
-0.134914910897
-0.13572024795
-0.136515047461
-0.13728939299
-0.137994763185
-0.138838504823
-0.139921404226
-0.139860400662
-0.139840952537
-0.14010375287
-0.140454847737
-0.140489412921
-0.140382364838
-0.140187667089
-0.139950391522
-0.139682696709
-0.139431202387
-0.139271483986
-0.139245223771
-0.139307465267
-0.139378791812
-0.139474448328
-0.13983398624
-0.14068441646
-0.141493591971
-0.14194242698
-0.142046714729
-0.142368512277
-0.14242738258
-0.141810575903
-0.121994610557
-0.12199412897
-0.121992703456
-0.121988268874
-0.121984207291
-0.121981483105
-0.121978309198
-0.121973803213
-0.121971366186
-0.121963788634
-0.121957470353
-0.121953698687
-0.121952239652
-0.121953103228
-0.121954774459
-0.121959787341
-0.121969174115
-0.121982015776
-0.121999199098
-0.122022505648
-0.122053831466
-0.122095127206
-0.12215014965
-0.122230121283
-0.122333910468
-0.122444305048
-0.122564071704
-0.122713874183
-0.122888683373
-0.123079385194
-0.123294079267
-0.123537970091
-0.123812303451
-0.12411723475
-0.124453552009
-0.124822906927
-0.12522774262
-0.125670213071
-0.126152290548
-0.126675736574
-0.127242407817
-0.127853293459
-0.128507670348
-0.129203209776
-0.129937549107
-0.130709182974
-0.131515180507
-0.132348311988
-0.133197765808
-0.134053480186
-0.134908886529
-0.135765414667
-0.136614976396
-0.137426642853
-0.137903656726
-0.139023178784
-0.139282205906
-0.139412697109
-0.139462907971
-0.139494129718
-0.139614997324
-0.139479452197
-0.139107176556
-0.138546970978
-0.13787315944
-0.137139640847
-0.136420107884
-0.135797403741
-0.135338718035
-0.135051111683
-0.134861452699
-0.134751662268
-0.134978131151
-0.135893679843
-0.13727818769
-0.138728260687
-0.13986285218
-0.140395610256
-0.140484346047
-0.140383217518
-0.121957773539
-0.121956697721
-0.121954034637
-0.121947926562
-0.121942193619
-0.121937084651
-0.12193082918
-0.121922323472
-0.12191525214
-0.121904310661
-0.121893459053
-0.121884635617
-0.121877994758
-0.121873628393
-0.121867578237
-0.121864551015
-0.12186575148
-0.121870118555
-0.121877971707
-0.121891108992
-0.121911284358
-0.121940636447
-0.121982288593
-0.122045312391
-0.122134072585
-0.122238707612
-0.12234415025
-0.122472464868
-0.122628734472
-0.122808220347
-0.123010823688
-0.123243150146
-0.123506810537
-0.123802893878
-0.124132284052
-0.12449613098
-0.124896686774
-0.125336794718
-0.12581872652
-0.126344570548
-0.126916504202
-0.127536115254
-0.128203314353
-0.128915829284
-0.129671720788
-0.130472219271
-0.131317172693
-0.132198195858
-0.133100293004
-0.134010496852
-0.134920192627
-0.135851299171
-0.1368152402
-0.137846086189
-0.137914882811
-0.138093646141
-0.138521695777
-0.138831517078
-0.138920705538
-0.138777768052
-0.138484192747
-0.137937457593
-0.137190369015
-0.136278178797
-0.135267151823
-0.134214460041
-0.13318261864
-0.132224455637
-0.131378908964
-0.130668212072
-0.130101279343
-0.129667421484
-0.129539200323
-0.130015145643
-0.131246345324
-0.13312339902
-0.135145438334
-0.136608046055
-0.137934845006
-0.140497753581
-0.12192067606
-0.121918874451
-0.121914197574
-0.121906768104
-0.121899797186
-0.121892066642
-0.121882515245
-0.121870157629
-0.121858066593
-0.121842033316
-0.121825797861
-0.121811225727
-0.121798645194
-0.121788352336
-0.12177409748
-0.121762691835
-0.121755041614
-0.121750305842
-0.121747931669
-0.121749974169
-0.121757937855
-0.121774077331
-0.121801377115
-0.121846599932
-0.121916297879
-0.122008580996
-0.12210742175
-0.122217429166
-0.122352236241
-0.122513131996
-0.122700529335
-0.122919511799
-0.123170822005
-0.123456577142
-0.123777933198
-0.124135278048
-0.124530983608
-0.124967969054
-0.125449164177
-0.12597683064
-0.126553501281
-0.12718166595
-0.127861914922
-0.128592112869
-0.129369418029
-0.130198069005
-0.13108623417
-0.132028025287
-0.132998611153
-0.13397619009
-0.134934929118
-0.135943203615
-0.137051974186
-0.137276737805
-0.137496306185
-0.137709397741
-0.138057484686
-0.138177390134
-0.13798110168
-0.137479940373
-0.136720966888
-0.135699500028
-0.134501254273
-0.133169253146
-0.131757589273
-0.130313400244
-0.128887888388
-0.127523637598
-0.126254105755
-0.125118003152
-0.124175974864
-0.123454232714
-0.123056125639
-0.123216989838
-0.124199969867
-0.126123227987
-0.128527901022
-0.130440294102
-0.133328271219
-0.143975326622
-0.121884462016
-0.121881869237
-0.121875079861
-0.121866514558
-0.121857902101
-0.121847216233
-0.121833985495
-0.121818012883
-0.121800219099
-0.12177794958
-0.121755259571
-0.121733942471
-0.121714201871
-0.121695540264
-0.1216734765
-0.121653486327
-0.121636305596
-0.121621442983
-0.12160830261
-0.121598575575
-0.12159339672
-0.121594956228
-0.121606744878
-0.121633185836
-0.121681016323
-0.121753868831
-0.121842664947
-0.121938105818
-0.122052910207
-0.122194328906
-0.122362966159
-0.122565048078
-0.122802356258
-0.123075466473
-0.12338704974
-0.123736783833
-0.124126538135
-0.124559726635
-0.125039626286
-0.125568910439
-0.126149956604
-0.126785796026
-0.127478003967
-0.128225205444
-0.129025034999
-0.129884019926
-0.130816386989
-0.131821349466
-0.132880589532
-0.133962442142
-0.134928191132
-0.135969136272
-0.13624636697
-0.136591431691
-0.137137754824
-0.137424686706
-0.137494439267
-0.137180841981
-0.136496885903
-0.13549053823
-0.134211436663
-0.132689088582
-0.131001123181
-0.129190048933
-0.127299438928
-0.12536572384
-0.123427720499
-0.121516979656
-0.119655484475
-0.117871175517
-0.116233355045
-0.114849373824
-0.113761229362
-0.113130922871
-0.113230721348
-0.114354011589
-0.11626738426
-0.117474462852
-0.117471050479
-0.121817064183
-0.121850058352
-0.121846758503
-0.121838454236
-0.12182855703
-0.121817430106
-0.121803246428
-0.121785615991
-0.12176568484
-0.121741703208
-0.121712546379
-0.12168261479
-0.121653707078
-0.12162587649
-0.121597381421
-0.121566730815
-0.121537363572
-0.121509752597
-0.121483351188
-0.121458437168
-0.121436174008
-0.121417060827
-0.121402779509
-0.121397694844
-0.12140438114
-0.12142892716
-0.121477300283
-0.121546126332
-0.12162719171
-0.121723871367
-0.121845404188
-0.121995078989
-0.122176337551
-0.122395809093
-0.12265434229
-0.122955029785
-0.123296508407
-0.123679362906
-0.124107680699
-0.124585344475
-0.125115646712
-0.125701049115
-0.126344295035
-0.127048236776
-0.1278124172
-0.128634390671
-0.129518800594
-0.130486169792
-0.131559010239
-0.13274634261
-0.134019320598
-0.134852454647
-0.135141345237
-0.135479661709
-0.136268808437
-0.136794745183
-0.136810970379
-0.13643858845
-0.135587950705
-0.134332268961
-0.132742403841
-0.130881656976
-0.128793661117
-0.12653507466
-0.124135466345
-0.121622547225
-0.119018648844
-0.116348374349
-0.113632530468
-0.110885172251
-0.108125650947
-0.105416166832
-0.102860898301
-0.100444280538
-0.0981319870329
-0.096083619334
-0.0947308901273
-0.0939535258475
-0.0899373584093
-0.0746231010744
-0.0559492097901
-0.121818014856
-0.12181401755
-0.121804480098
-0.121792976288
-0.121778854036
-0.121760707615
-0.121738445902
-0.121713824186
-0.121682866674
-0.121646444485
-0.121608670805
-0.121571475817
-0.121534951132
-0.121496519212
-0.121455386892
-0.121415397309
-0.121376307752
-0.121337075416
-0.121298553612
-0.121262386379
-0.121228182512
-0.121196754771
-0.12117296988
-0.121158828524
-0.121159246889
-0.12118074823
-0.121225297625
-0.121288508324
-0.121370510073
-0.12146841629
-0.121594898042
-0.121754276595
-0.121952591869
-0.122190443656
-0.122475208352
-0.122807935759
-0.123183925071
-0.123607146416
-0.124081619238
-0.124611760618
-0.125201255694
-0.125852758622
-0.126569122564
-0.127348405543
-0.128183643489
-0.129078895903
-0.130064404587
-0.131206317726
-0.132629938668
-0.13479499464
-0.13424979351
-0.134457867579
-0.135193145317
-0.136039177719
-0.136162030545
-0.135696760791
-0.134737936727
-0.133266683881
-0.131377380008
-0.129146682742
-0.126640753218
-0.123904165115
-0.120976582529
-0.117877368544
-0.114624499878
-0.111233864953
-0.107723799165
-0.104109200736
-0.100395345407
-0.0965787142066
-0.092664531924
-0.0886662127669
-0.0845069949987
-0.0798821484522
-0.0747155296236
-0.0693796299949
-0.0632634494427
-0.0494894027004
-0.0121768613686
0.0424998873271
-0.121788581479
-0.12178386401
-0.121773234142
-0.121759793842
-0.121742317651
-0.121719920642
-0.12169316509
-0.121662689049
-0.121624300346
-0.121580546451
-0.121534219964
-0.121487902333
-0.121441834211
-0.121392755191
-0.121339980219
-0.121288108076
-0.12123654945
-0.12118291552
-0.12112901155
-0.121077153105
-0.121025982454
-0.120975874371
-0.120931112912
-0.120894841023
-0.120870227292
-0.120863132148
-0.120879728351
-0.120918098906
-0.120981609449
-0.121059773736
-0.121160334973
-0.121291694804
-0.12146608603
-0.121685025403
-0.121948337286
-0.12226521308
-0.122632715113
-0.123050392627
-0.123522307675
-0.124052186249
-0.124645057147
-0.125306001536
-0.126036211574
-0.126828207423
-0.127666091834
-0.12854624468
-0.129491011233
-0.130552279975
-0.13197187247
-0.1326573587
-0.133272657883
-0.13358962326
-0.134988178472
-0.135431607735
-0.135030049404
-0.133958083769
-0.132317531054
-0.130156973473
-0.127580304596
-0.124665423666
-0.12147633066
-0.118057483741
-0.114444849154
-0.110661436483
-0.106728881735
-0.102664837973
-0.0984812703124
-0.0941755725724
-0.089721725821
-0.0850618952163
-0.08010027778
-0.074699485337
-0.0686674589091
-0.0616047139267
-0.0532488702755
-0.043733766218
-0.0312921110454
-0.00635518385525
0.0480052000763
0.117237848351
-0.121762096987
-0.121756614385
-0.121744811064
-0.121729023335
-0.121707650531
-0.121680923792
-0.121649467119
-0.121612100843
-0.121566435009
-0.121515452962
-0.121459888215
-0.121403564451
-0.121346993727
-0.12128625808
-0.12122072321
-0.121155585112
-0.121090295952
-0.121020342406
-0.120949651747
-0.120880335824
-0.120809475941
-0.120739324993
-0.120671700481
-0.120611037592
-0.120560355391
-0.120523622172
-0.120509065067
-0.120517010736
-0.120552305608
-0.120610362744
-0.120688138306
-0.12079035883
-0.120931603601
-0.121124618452
-0.121369049432
-0.121666664086
-0.122020893675
-0.12243033663
-0.122898279641
-0.123428854467
-0.124026872288
-0.124698258687
-0.125443554954
-0.126249484752
-0.12709403123
-0.12795915642
-0.128822847148
-0.129604684012
-0.130439921018
-0.130332740616
-0.130865894796
-0.132831432414
-0.134335462809
-0.134251966596
-0.133265770908
-0.131502268924
-0.129132560382
-0.126249191805
-0.122967480099
-0.119370521676
-0.115525733651
-0.111483509671
-0.107284783462
-0.102958512224
-0.098524903533
-0.0939889988941
-0.0893346452774
-0.0845166336283
-0.0794569111181
-0.0740381988825
-0.0680798972628
-0.0613011021469