/*--------------------------------*- C++ -*----------------------------------*\
| =========                 |                                                 |
| \\      /  F ield         | OpenFOAM: The Open Source CFD Toolbox           |
|  \\    /   O peration     | Version:  v1806                                 |
|   \\  /    A nd           | Web:      www.OpenFOAM.com                      |
|    \\/     M anipulation  |                                                 |
\*---------------------------------------------------------------------------*/
FoamFile
{
    version     2.0;
    format      ascii;
    class       volScalarField;
    location    "687";
    object      alpha;
}
// * * * * * * * * * * * * * * * * * * * * * * * * * * * * * * * * * * * * * //

dimensions      [0 0 -1 0 0 0 0];


internalField   nonuniform List<scalar> 
6400
(
0.893980112206
1.43558903114
2.27953290361
2.85032812868
3.39520941079
3.93958756312
4.62359540623
5.38828522428
5.84954094765
6.5503044363
7.8182508383
8.72089919177
9.48258242067
10.3321618092
11.370431422
12.461202629
13.4454510506
14.3717472122
15.153460135
15.6265901533
15.8862600427
16.2841782485
17.0227363497
18.0791263228
19.2309731259
20.273919271
21.1462941623
21.9581609851
22.8099521832
23.7168844977
24.6237679898
25.3406697859
25.7906116521
26.0920766879
26.288257644
26.3794651109
26.6397411215
27.1181729448
27.2878908674
27.2412412661
27.5615372781
28.374670002
29.1872795036
29.6431304678
29.787047408
29.7133555334
29.4884863674
29.1563012871
28.7299598949
28.2294904692
27.5721600998
26.5420232766
25.1622449393
23.5086675765
22.0216233483
20.7400019422
19.0001079355
16.5375555144
13.9573753517
11.8276364484
9.66526311623
7.40127065342
5.24086085843
5.31196721323
8.71546660935
13.4385519262
16.318342551
15.9513989564
13.9184879994
12.3144358219
11.4936821585
11.7804565463
12.4161250204
12.3605083884
14.5132424977
13.9889951201
15.922743798
9.82168980123
12.8597153279
4.80438689546
3.16018210803
2.53933420955
3.16933040564
4.43809175208
4.40090349266
4.35877022141
4.62254534824
5.10941714987
5.79416995339
6.661176213
7.70002866403
8.73731000402
9.65926501073
10.5435777678
11.4472569892
12.4770776642
13.5605801039
14.5940408074
15.648887614
15.9548201445
16.0314649651
16.4053097964
17.1201490904
18.1642036525
19.4373819944
20.4248112368
21.2679181388
22.1169570944
22.9834838061
23.8605979506
24.7389751155
25.5428934402
25.9872480236
26.2827011618
26.5107150245
26.5177616869
26.8238987331
27.3268251749
27.4510274593
27.2720900397
27.5635232847
28.8963777824
29.9985876682
30.3623822184
30.447965076
30.2979707395
29.9767380052
29.5776735808
28.9945516216
28.3328249818
27.7418771036
27.2161573303
26.0314545499
23.7322088308
22.3583804194
20.8636327008
18.5796973341
16.1812179027
13.8316738418
11.5052105293
9.34834111759
7.72871148168
5.64561575488
5.81803906932
8.93759643041
14.5181243895
18.1540640676
16.7879032735
14.5763134819
12.6466822552
11.9997926642
12.5035154215
13.7063578372
13.1766820665
13.0907742321
12.6202111319
11.4703221723
9.66380198698
8.14421385049
4.22666074473
3.27458192299
2.89582668995
3.4179716979
3.7407296235
4.32786532576
4.79955220826
4.81296922667
5.00704716717
5.69410399987
6.63603994587
7.68443165614
8.74136461005
9.70823647
10.594981135
11.3538295142
12.2899721757
14.8644038424
16.865937377
17.3555099827
16.8954362863
15.8375726819
16.0895151718
17.2378991843
18.3322360065
19.3675636397
20.4184659961
21.3642306071
22.2155745498
23.0618163702
23.9345534615
24.7800557646
25.6714347331
26.1112967022
26.1839843215
26.7149047634
26.7390944175
26.7428284392
27.4265189332
27.5994508575
27.4844371282
27.7903940209
28.5847494931
29.3749053478
29.8326850262
30.0015975953
29.9695545007
29.7785064138
29.4486958069
28.9831955719
28.403457916
27.7091321874
26.787351878
25.5116960689
24.1309414179
22.7264010145
20.7614357759
18.4927199465
16.1666299702
13.8472177789
11.6024457814
9.55054769139
7.5970762446
6.27330737774
7.26163316258
11.3779505708
15.5660266068
17.5980483402
17.6311562129
16.0195284043
14.3625777368
13.7239262626
13.6901884514
13.0732800138
12.5300407225
12.5714212737
12.2923430947
11.3614605253
9.76393219844
7.33106629482
7.53017972905
3.32869640682
5.54958321924
3.77623447444
3.92630569527
4.64270103837
11.9207746397
10.3318248969
5.53792808198
5.65880704142
6.62968296458
7.70648348082
8.78421705919
9.72639516891
10.6237574014
12.3061024671
14.3839995315
16.0831152945
16.606000711
15.7700953444
15.200145462
15.6393718658
16.3307112158
17.2251605342
18.3154009949
19.4499159807
20.5320311867
21.5044166181
22.3359077071
23.199970068
24.0050638027
24.9707677801
25.666111167
26.3745809473
26.4372496601
26.2993201633
26.8162018218
26.9118994174
27.0319273186
27.3706353825
27.6813593753
28.1037351184
28.7541429851
29.4198824956
29.873105332
30.0806732659
30.084746318
29.9213265661
29.6120496425
29.1661637903
28.5904493956
27.8679722489
26.9373987456
25.7576318524
24.3868751202
22.7805954592
20.806381016
18.5566935138
16.231378594
13.948023238
11.8024073216
9.91097464068
8.44909382705
7.96410218858
8.78084952515
11.0647087376
16.0329066938
19.342136369
19.4260722099
17.722650644
15.3482997618
13.7569058663
13.0078457538
13.2357551385
14.7185485901
14.704880588
13.4234532737
13.3235048883
16.6477319111
13.0354217299
11.0411463739
5.75986114609
7.63399504378
4.59388262129
4.91370583169
6.69246327838
11.8171355774
8.36929842408
6.04429691878
6.18548625445
6.84908767649
7.84753254188
8.93781692333
10.36885862
12.604463387
13.666266677
14.1459182918
14.3211587812
14.3304074742
14.5937355736
15.2460135665
15.7669094465
16.3850420479
17.3184680155
18.4154291875
19.5634584815
20.6738815988
21.6192939567
22.566438084
23.3097530118
24.2851159776
25.0134707966
26.2386606469
26.3124797314
26.106415675
26.3925548403
26.3905907792
26.6770859551
27.0923581871
27.5141676346
27.9143326311
28.3719579094
28.9463017238
29.5286980148
29.9660659143
30.1988385483
30.2350157346
30.099524849
29.8137499955
29.3892917503
28.8263287863
28.1047858954
27.1860810356
26.0437480667
24.667232997
22.9902752774
20.966806498
18.7178943064
16.4341469478
14.2608945136
12.3325559404
10.8146290541
9.93477684299
9.95019118319
10.1909951554
11.5320091063
15.6943696692
19.4881010416
20.7723638784
19.5586175756
16.7651936849
14.2673366914
13.9602722849
16.2803877859
17.1901557537
16.1858961555
15.3028491641
18.0042004505
21.0431317856
16.3318984632
15.4445099735
10.0441093019
9.22234988546
5.72660832811
6.24596774491
12.1050131846
11.5955834048
6.87108098557
6.66285989105
6.82520044496
7.2036185176
8.08497553653
10.6568142619
13.8046022553
14.3044035678
14.0556953092
13.3326449016
13.1891981374
13.7032583726
14.705930675
15.2124090498
15.6713483879
16.4572795682
17.4598641894
18.5847871546
19.6671964343
20.7860677606
21.9613612686
22.6706085566
23.7885436919
24.3397480664
25.783395729
26.0437513835
26.8796429342
26.3057675235
25.876899509
26.1500176126
26.6840565704
27.222051255
27.7070133335
28.1576854203
28.635446621
29.1708454294
29.7000036805
30.1195207154
30.3664776943
30.4289718179
30.3205990366
30.0612080229
29.663561154
29.1251809308
28.4254725231
27.5315001599
26.4080154504
25.0117441938
23.2895843749
21.2586522462
19.0662926182
16.9049876524
14.9388591139
13.3280692472
12.2290626959
11.8358984637
12.226124432
11.4717894815
13.5081219682
17.747410164
20.9042672762
22.1103244636
21.1199478248
17.7027556479
15.4623382781
17.2686866913
19.499269523
18.9952290838
18.0302108198
18.1380651415
22.7652024144
24.3725025808
19.342334148
19.146007547
12.1770965843
9.13782792073
6.95949691846
6.52315560732
12.0707378645
8.59205662414
7.1469576745
7.27550801147
7.42292990194
8.13160097299
8.67064894794
13.4757728906
14.2264979986
14.3296250248
13.1497912312
12.3823247061
12.8174784428
14.1666297985
14.6604699875
14.9361729061
15.6838241966
16.5675482882
17.5731922599
18.695317971
19.9465548163
21.1431873901
21.9882630426
23.409535942
23.8790009002
25.4257675157
25.5524785714
26.6396795081
26.3895772834
26.0904772721
25.7296795875
26.1144704171
26.7729287983
27.3912744138
27.9210915521
28.408412389
28.9055955951
29.4251768151
29.9241124237
30.3299641729
30.5857639089
30.6698679336
30.5885954483
30.3604209294
29.9982141152
29.497429666
28.8348824679
27.973573586
26.8666258864
25.4632905591
23.7401864206
21.7647066931
19.7060405236
17.7536517539
16.0529997216
14.715736151
13.8800198087
13.5804165072
13.334565149
13.3442185473
15.3143229082
20.5247831451
22.4562892704
22.5650700185
21.3837348748
19.0349755147
18.6836496285
21.2016059693
21.6221154869
20.8049406187
20.2486280662
22.2812619024
25.0815230269
26.5771090011
21.9723727812
20.8330444461
11.9245208428
8.85852045646
8.12356416221
12.2723552032
12.2074987088
7.72674411891
7.81963160895
7.98138737799
8.07928842944
8.66784087975
13.2079022459
14.1707384967
14.3202801263
13.9246803898
12.071486939
12.0077488722
13.5730620322
14.2881238866
14.3186856166
14.8144262877
15.7196271348
16.7320586247
17.7699703066
18.9434178837
20.0439892678
21.4702928362
22.0723111201
23.4296359508
25.0051095897
25.5683238575
25.2783135645
26.1599716789
26.4433023398
25.6215915795
25.7301872436
26.2637234849
26.9283227697
27.5752170075
28.1473385351
28.6713212289
29.1902670134
29.7101244234
30.1961628001
30.5944885233
30.8573051989
30.960967202
30.908805493
30.7184799306
30.4019803435
29.9520365082
29.3410285515
28.5248942668
27.4500315149
26.0751606371
24.4147416587
22.5759932142
20.729268812
19.013635131
17.4922453337
16.2490078053
15.4573879126
15.1291683925
15.0907236787
15.4285691969
15.4785658715
20.9741088641
24.4591430754
24.1894056319
23.417291247
22.3133787249
22.969465223
24.2199163946
23.4893825528
22.8214730988
23.0840496162
25.5055100063
26.2366215736
26.8618575534
23.9816464151
21.8404256802
11.2460518847
8.84031404852
8.80074771986
13.2682631022
11.2577460504
8.39667017539
8.55045153738
8.84448431967
9.97570253252
8.80330646414
13.9794083656
14.7087369946
14.3727504181
12.7698866933
11.757315532
12.1450463663
13.6411387285
14.0249932824
14.2139667438
14.8334542114
15.7201535143
16.8032053519
17.9370416384
19.4902448168
20.803421067
21.4428312664
23.3460009662
23.351851451
25.176269389
25.0887061705
26.3018963294
25.5737267151
25.4343819072
25.5511183738
25.9059246059
26.4671180341
27.1182676318
27.7760339959
28.3863192593
28.9510640827
29.4967980614
30.0268474009
30.5128302533
30.9110834217
31.1818948364
31.3057475852
31.2871404623
31.1429611941
30.8833356357
30.4983580645
29.9560004315
29.2065191946
28.1971962132
26.9077635241
25.3908021548
23.7723676084
22.1752060811
20.6141613752
19.0707343141
17.7698974906
17.0851608229
17.0763694426
17.3645782342
17.5575245288
17.4165096793
18.5166053134
24.8875712461
26.291687238
25.9892472958
26.3275157988
27.1052618144
26.5458840657
25.4320556011
25.2453730746
26.3368620471
27.649276384
27.5799705978
27.0205574098
26.0281777927
24.6687789212
10.772782188
9.32452816144
9.95255898111
13.3575969326
9.42238372756
9.42086458784
9.28756559596
9.5629452673
12.5381692116
11.3201634411
14.8147059419
14.9953511212
14.4671937928
12.1497795698
11.8126916811
13.3698487449
13.8628863588
13.7958269481
14.18057563
14.976515905
15.8458099386
16.8741446924
17.8689980966
19.6336443222
21.7620035864
21.3964907851
23.2947068606
24.6441191209
25.4051058033
26.1242457967
25.6569169133
25.7865682067
25.1771735225
25.4778323692
26.0753012848
26.6927153395
27.3361460356
27.9965485423
28.6380839405
29.2471270283
29.8286962685
30.3784824494
30.8733591138
31.2785010088
31.5615304423
31.708708221
31.7292825961
31.6408194833
31.4506411783
31.1465002329
30.694523596
30.0439630715
29.1511162407
28.0231110414
26.7407354951
25.4060731158
24.0094363378
22.3886249284
20.6592045306
19.448484708
19.2208695156
19.7442849743
20.2430762237
20.3248133445
19.9559512886
18.5913853197
18.1224189732
28.2195878096
30.7280285016
31.2954673028
30.7064410237
28.8909462158
27.7584355906
28.0598775492
29.3831809826
29.8917223687
29.7812952337
29.577928587
29.9723591371
30.1864584374
10.8164913861
10.2007900804
13.3089688089
13.5712892745
9.59983792402
10.1976184653
10.0234657419
10.4780740934
12.1138374338
14.7498703277
15.6699817134
15.2917147013
14.7399002232
12.2150678097
11.9810744524
13.8672755008
13.9782793481
13.7830214165
14.2041112254
15.1021152075
16.1864026824
17.2271213751
18.0398712392
19.269675011
21.923890055
23.1777913596
22.9681299575
24.7523326572
24.4022251097
26.1408522154
26.5931988001
25.7560774555
25.1620811404
25.5901982372
26.2732179932
26.9286138875
27.5782179234
28.242438272
28.9056808807
29.5580062092
30.1855639246
30.7662949428
31.2785810577
31.6970999336
31.997927467
32.1747754788
32.2422970925
32.2190545259
32.1108142781
31.9051883903
31.5704646877
31.0618281371
30.3532847442
29.4798063759
28.520367898
27.4672331227
26.0850309789
24.2191534086
22.5193337506
21.8185594333
22.3858596501
23.5222746699
24.1818142468
24.1475786194
23.4053543563
21.7259671301
19.2586001453
19.4698074251
32.315144473
37.0661042789
35.1440394384
31.9642470614
30.6814632242
31.2040548024
32.2752085616
32.9268958581
33.4890729014
34.1554599228
34.8340543047
35.5435851158
11.2264135176
11.0995773973
14.9678877465
14.3325322383
12.5053680096
11.4403924017
10.9896233463
11.9265893932
11.6537147134
15.721717519
16.3522363963
15.6669701181
14.8762221123
12.8760103536
12.7416587989
14.3205311388
14.0206038191
13.8775288418
14.3182568643
15.1396665861
16.3193420418
17.6777691344
19.3858693648
19.3883930588
21.4342163802
23.5360708167
22.8842489719
24.9883978923
25.9295132967
25.4162112164
25.7762787408
25.2221636879
25.4437711203
25.9091685656
26.5275497333
27.1871731821
27.8487500739
28.521851336
29.1967570053
29.8805810497
30.5617231855
31.191511892
31.731356121
32.1681627427
32.4934962706
32.7090557873
32.8329959513
32.8842320591
32.8691124653
32.7792594192
32.5910661205
32.2769559381
31.8386904763
31.3224675162
30.7294591444
29.8059807789
28.2521288963
26.4579435097
25.2751915428
25.4221473436
27.0368363661
29.0320271424
29.9838889589
30.0006906578
29.186860899
27.2486525474
24.0943005107
19.6654161444
27.7640750587
38.1303755602
40.2145297935
36.078596466
34.5710708519
35.0600980986
36.0978295458
36.9962778369
38.3995588119
39.411405378
39.456153376
39.7273740127
11.8657287588
11.7726649283
14.748990394
14.8604250488
14.8902432425
12.6145540931
12.0860443078
14.7368969427
12.0772724653
16.5870335188
16.8741895361
16.0511357191
15.0085832335
13.5214665876
15.2428387546
15.3655024457
14.2370290445
14.109343851
14.566894479
15.2741163506
16.2724079362
17.6688309397
20.6098888358
21.5778333175
20.9520931484
23.5839552598
24.6031230479
24.5787502912
25.8878952077
26.3999234389
26.0897837579
25.265448294
25.6461191467
26.2345494224
26.8370780648
27.4795277588
28.1388157637
28.83270962
29.535442247
30.2356147585
30.9529464365
31.6413556084
32.2297794807
32.6957382555
33.0520367469
33.3163949356
33.5078235279
33.6418311821
33.726969742
33.764883468
33.7511099548
33.692538226
33.6237802309
33.5516127123
33.2500053644
32.1573112395
30.8664512963
30.5802124559
30.1095705512
31.0539866855
33.2747958925
33.957357873
33.0650998574
31.8879510624
29.4787208749
26.3327599984
23.0389895303
16.4759144181
15.9346885305
31.1183329324
38.5381426871
37.0446264566
32.877637226
35.1995616629
38.2470108424
41.3361824013
43.915485524
44.9197820518
44.9848224332
45.2255807682
12.5615402459
12.4977300114
12.1477190537
15.2127148987
15.4549599384
13.4242294626
13.0700691915
15.752673329
12.7740985277
17.4864405615
17.3486276246
16.449620847
15.2451766654
13.8620997651
16.3923636194
15.9759551662
14.7058457897
14.5205030488
14.920962391
15.5783353748
16.349036039
17.5499830395
21.0953447581
22.6445725103
21.2951468303
23.5921789466
25.1059339727
24.1360056882
25.5097384718
25.9949958986
25.2604335135
25.6060244011
26.0823425152
26.6116552836
27.1795188665
27.8228134459
28.4816311155
29.1584630916
29.8919312325
30.6400106801
31.3872126668
32.118125871
32.76221003
33.2756301467
33.6770735844
34.0028225618
34.2725574286
34.4930222868
34.6783631175
34.8474603783
35.0261573321
35.2875142517
35.6917764281
36.1042842636
35.7901323399
34.3056910695
34.6584830552
30.4407134071
26.2733725986
22.3164507198
10.453856314
0.00404568432876
1.40123156829e-05
1.4296455733e-06
1.13450841817e-07
3.19568131848e-08
3.76155736097e-07
3.8433827738e-06
4.34150669589e-05
0.000113396146979
0.188303140402
26.566127261
47.2655968314
46.7397724559
41.8948843855
42.6664377814
47.2148121112
50.1314883464
51.7766167638
52.2064419312
13.4368387779
13.5319440259
15.862799658
15.8849141683
15.9375467914
14.1165782401
14.1283546768
16.6349389179
13.8137349292
18.2734853546
17.8063120786
16.8736213715
15.5643897335
14.2741842635
16.6949507498
16.2164812397
15.1703599368
14.9930300715
15.3168751466
15.9004122501
16.5990610643
17.5547101003
20.539582659
23.4499459778
23.6432058177
23.0056504003
25.3075092479
26.1875797347
24.5008452202
24.6315038808
25.2031426764
25.8399112349
26.4376566536
26.9983840551
27.578366064
28.1947828132
28.8575065938
29.553226322
30.2769588668
31.0639326306
31.8675460943
32.641719117
33.3321082841
33.899332867
34.3655371748
34.7706816558
35.1300649434
35.4419501843
35.7145424064
35.9883994227
36.3658142475
37.006328093
37.96428882
38.7910859929
38.092147117
34.1157008083
22.8568702827
4.75174181535e-09
5.22642324064e-12
9.79767520515e-14
1.66077308936e-15
4.80502860573e-18
1.36548424191e-20
2.36362737771e-25
1.84883634757e-25
4.48854950448e-25
3.02563724483e-24
1.41719159313e-23
5.23511281921e-23
3.32683238478e-22
2.60483549229e-22
2.25983641184e-20
1.28622451373e-17
1.29293009371e-15
9.8111553213e-14
2.2592719934e-11
3.80306570522e-07
50.9631133294
57.287023227
57.5647189395
14.2627540208
14.4552522118
17.4929467801
16.5926212407
16.1044927898
14.8108966377
15.1509381553
17.3914484829
17.3658709808
19.2545690767
18.3310570026
17.3934591776
15.9721135687
14.8288700731
17.0166896256
16.3913816465
15.6118070571
15.4724515603
15.7217330399
16.2209285551
16.8820458267
17.7829900165
20.0500324217
23.7036902125
24.9906814023
22.7839211113
24.8176013614
26.2684770048
26.1696648655
25.0399486032
25.2798483531
26.0557303819
26.7929319104
27.4276261685
27.9737579894
28.5973601747
29.2574270435
29.9742173321
30.7208258929
31.5244851806
32.3810781593
33.2164306634
33.9487126612
34.5563785568
35.0985447641
35.6324499532
36.1223261944
36.5054090794
36.7831876246
37.1218625406
37.7216684315
38.7460812899
40.2718057499
41.5431414592
31.7536100142
0.730267192555
2.62766890045e-15
1.06407909742e-17
3.07714449859e-19
4.47975832459e-21
3.63970897243e-24
6.07320321944e-27
4.28102882131e-28
0
0
0
0
0
0
0
0
5.95418102478e-32
2.00822199396e-29
3.00387205325e-27
1.74275036896e-24
2.43419456507e-21
1.31817857028e-16
2.00181328908e-12
1.56069031659e-05
61.887536748
14.9389419099
15.1532456176
19.6226605406
17.1478009122
16.0310359479
15.4247472826
15.8901145258
17.4930958131
18.9557232324
20.3788970884
19.0128004336
18.0494559051
16.6305220191
15.6714223188
17.5442754541
16.7164143818
16.128396331
15.9988066084
16.165866483
16.5787738883
17.167183624
18.0007417163
19.8507159157
23.5749228296
25.9731937038
25.2731389041
24.3176465063
25.6362191765
25.9548436132
25.0880491783
25.715300649
26.5135306912
27.2964676145
27.9081992228
28.474511726
29.0386889295
29.7110169608
30.4265681538
31.2037466158
32.0363203141
32.9256026804
33.8253521643
34.639724334
35.289758046
35.9010901816
36.5790114998
37.2176025636
37.6401761962
37.8776590227
38.2518872559
39.0379194358
40.2954869851
42.0770993647
32.489109723
1.74007148359e-11
3.80426221231e-18
1.24763236487e-21
5.04491000587e-23
6.87858292449e-25
1.88629437793e-27
0
0
0
0
0
0
0
0
0
0
0
0
0
7.67196157033e-31
7.62376229145e-30
1.67129387745e-28
8.10387290476e-27
4.50026657798e-23
3.74585812292e-14
7.22074616273e-19
15.4657275099
15.6704889461
21.6622444219
17.5765587631
16.1970359709
15.9916895468
16.6976645909
16.9232577712
19.9033068103
21.1857260864
19.6718027918
18.7195424945
17.4835351938
17.525158324
18.2812896064
17.2816861738
16.8385654988
16.7180658109
16.7182015318
17.023224841
17.5053713658
18.2589370536
19.8360562521
23.4254491509
26.3798661856
26.9016034955
24.1937061791
24.6325131254
24.8054610445
25.1975871926
26.0192116361
26.9923528213
27.783659933
28.4341181159
29.0221599401
29.649978415
30.2310344932
30.9442113943
31.7306728238
32.5762160276
33.5360162167
34.5137834177
35.391335873
36.0327674591
36.6605200644
37.8824747191
39.4431293478
40.017613532
39.3949928807
39.5793451951
40.4546343372
41.7377395654
31.3682250595
2.01314752221e-12
3.03407702794e-17
1.361134659e-28
1.37544343496e-25
2.24434463746e-27
0
0
0
0
0
0
0
0
0
0
0
0
0
0
0
0
0
0
1.18529400987e-29
8.0266152603e-29
1.48017440191e-26
96.8402524083
15.9201268885
16.0908753371
21.5195053392
17.0685637458
16.4324027289
16.4819427661
17.6118767484
16.9666649647
20.7088459878
21.9340607267
20.2958280173
19.3396562776
18.1495155451
19.7073291968
19.2986972416
18.0488151132
17.655152458
17.7840691648
17.4918149249
17.6363659655
17.9428494343
18.5623682862
19.9614768707
23.264851913
26.2466065812
27.9904973123
26.7786835778
25.9115422599
25.6831566428
25.4352151176
26.3047768931
27.5964475229
28.2374332232
28.9686145164
29.7906706354
30.2612598787
30.8429593683
31.563105209
32.3697132368
33.2263435149
34.1570471336
35.1969468754
36.2125363511
37.2057128441
38.3294264055
39.8835966224
41.1749422443
41.2826146664
41.2239122005
41.7895160651
43.0068466782
35.0014218222
9.15500941759e-12
8.35669540555e-17
1.09833925501e-20
1.49175522906e-22
0
0
0
0
0
0
0
0
0
0
0
0
0
0
0
0
0
0
0
0
0
0
3.6471305605e-29
2.6545771884e-18
16.4360545921
16.5829895283
21.1808687373
16.7843925104
16.7458401122
16.882453092
18.3999974318
17.4556701989
21.4167822669
22.6687423682
20.9141965958
19.9578461541
18.7069277001
20.4792811818
20.2411444209
18.8832103159
18.4594334522
18.6892973875
18.4150328382
18.4685108174
18.5778684836
18.9209008893
20.2471964725
23.2378714712
25.9644489663
28.3032739093
27.9661184601
26.4773302948
25.217499997
25.9249561474
26.7973460716
28.053840682
29.051799267
29.9119944292
30.6241956877
30.982674748
31.5395192737
32.2724709637
33.0976959111
33.9914909498
34.9385932408
36.061710441
37.3844224706
38.9354867223
40.044906558
40.6385398133
41.4803894046
42.0957181244
43.3552351723
45.0696618535
40.8252916588
8.34199391984e-11
1.1076575364e-16
1.91009863214e-20
3.91771065963e-23
9.48553112038e-25
3.18397082108e-27
0
0
0
0
0
0
0
0
0
0
0
0
0
0
0
0
0
0
0
0
0
6.12912557042e-30
8.10939295125e-30
17.1913260112
17.3379934329
20.8890108471
17.0949746198
17.3158034975
17.3793288429
18.4442735038
18.190723887
21.9373661978
23.3689606386
21.5648802453
20.6228140538
19.3780522446
21.1794668886
21.0879317129
19.8000319597
19.3179913122
19.5696985972
19.3172878747
19.4447884683
19.4803301162
19.4377581523
20.7262514162
23.408162944
25.8299127798
28.3823863116
28.5207657803
27.2494723372
25.737220597
26.155032355
27.3893063095
28.2378199241
29.1196770075
30.1776160135
31.5419543505
32.0168443042
32.4895229735
33.0916532067
33.8811738334
34.8505844627
35.9099277356
37.1684360987
39.1157475226
40.8597528785
41.2928701967
41.7588146581
43.103743535
46.0219565238
49.2722001964
44.5559268122
2.38333364305e-11
3.95913563804e-18
1.63838290997e-22
5.37171986526e-26
3.37046613771e-28
6.83166171766e-28
1.04908831514e-28
0
0
0
0
0
0
0
0
0
0
0
0
0
0
0
0
0
0
0
0
0
4.53021658766e-31
2.05703823724e-30
18.3257825059
18.4345072835
21.2132403646
18.0469990466
18.47760674
18.2450963865
18.7874129919
19.5013443984
22.0240674931
23.9038726418
22.2766539963
21.356529495
20.1535136762
21.9750810738
21.9612575863
20.8740863452
20.3547797868
20.5915945326
20.2280353772
20.5165208652
20.6880148025
20.1760319234
21.2833899199
23.7788499596
25.8928745526
28.2475019844
28.7723575123
27.9272918341
27.6884568971
27.0152029651
27.7866349738
29.0087861794
30.449667203
30.7787806751
31.8292577829
33.0441959126
33.5564495331
34.219928504
34.9121018562
35.7980358419
36.9965954219
38.9826892045
41.5643223131
42.5791100691
42.6312614025
43.9672085917
48.3855999151
55.6315656413
50.5702151968
8.57289179873e-13
5.99830420519e-20
5.60023485911e-25
3.83186530337e-27
0
0
0
0
0
0
0
0
0
0
0
0
0
0
0
0
0
0
0
0
0
0
0
0
0
0
0
19.9051227243
19.7902180918
22.0597254946
19.9275731853
20.421511433
19.5172249472
19.7465087736
21.388441575
22.2772550129
24.5424741578
23.1012291573
22.1689236035
21.008507988
22.8081109654
22.8304758448
22.0549611559
21.8565867157
21.9206919807
21.2324657805
21.6809511865
22.1886952327
21.2201375226
21.7321160563
24.2412378293
26.1611450541
28.1365475047
28.9483294111
28.1119723282
28.8770913978
28.5941651754
28.838210167
28.7827729159
30.235337647
31.9806183761
32.7915155245
33.7986938256
34.6229208954
35.3202695202
36.1483192717
37.056917569
38.6749421594
41.7215648842
43.9685788579
44.488148678
45.2600094606
48.8870181038
56.7183289195
53.8457974616
26.0121787761
5.35299059115e-22
9.35815738967e-25
4.28498094916e-27
0
0
0
0
0
0
0
0
0
0
0
0
0
0
0
0
0
0
0
0
0
0
0
0
0
0
0
0
21.5734136333
21.0659155178
22.9702924233
22.4065988127
22.135434583
20.9848599874
20.8005452747
22.5339137074
21.5972651608
25.0474860205
24.0207264659
23.0519600709
21.9329869145
23.652062477
23.6390347681
23.0460616106
23.9089694265
23.5162924635
22.3573019961
22.9586736117
23.5352542885
22.5517135422
21.937992223
24.2604063995
26.3566417324
28.064128708
29.0232262137
28.2112338882
29.2874573805
29.8848842515
30.2191538395
29.5740428502
30.4704783996
31.949683125
33.7171270028
35.0215082593
35.9165373649
36.5859089491
37.3955092723
38.7052968103
41.5354237085
44.8190881826
46.5812375888
47.5612904536
49.9845024629
55.2604541954
51.5781749225
29.1841746043
1.44133908658e-21
2.08664242287e-24
7.30782431331e-27
0
0
0
0
0
0
0
0
0
0
0
0
0
0
0
0
0
0
0
0
0
0
0
0
0
0
0
0
0
22.4134454563
21.9608864026
23.5574942307
23.4711903416
23.215077028
22.3686085164
22.0014119475
23.9143635664
22.657544075
25.6854538483
24.9510314696
23.9765629642
22.9219541605
24.5229479638
24.4541539116
23.8769184344
24.8974855652
24.6439810855
23.4463394311
24.2098213545
24.3029702176
23.3961237049
22.9571734061
23.192479061
25.8683404827
27.5802321917
28.8206200026
28.1894289765
29.3728894959
30.4506385399
31.3601562994
31.3702601356
30.8783582567
32.0345843332
33.9727372816
35.9077121882
37.3236346817
38.2490215359
39.0561839046
41.4281543902
45.0931791887
48.0273292082
49.5891409588
51.468497043
55.4103609836
51.2369445577
24.1393299031
7.61438478545e-21
6.85904004599e-24
1.953490115e-26
0
0
0
0
0
0
0
0
0
0
0
0
0
0
0
0
0
0
0
0
0
0
0
0
0
0
0
0
0
0
22.52950446
22.5196696501
23.9166331746
23.7128872162
23.9023125619
23.4418012323
23.0467993423
25.2722310978
24.3376834096
26.4970164297
25.9371424366
24.9289748686
23.9707819108
25.4360713759
25.334761417
24.8312189288
25.7248074321
25.6274870889
24.5781042694
25.2514204547
24.2160724759
24.1751984628
24.0077693484
24.2709468319
25.0912576659
26.1432511242
27.9899119376
27.9720568897
28.9749416398
30.498536844
31.8365681935
32.7353845393
32.4107771468
32.8444258242
34.2088193982
36.1245258048
38.2456852299
39.9813622396
41.5196252194
44.9462020969
48.6470243863
51.076016152
52.3092669592
54.0949005246
49.4649407902
31.216963383
29.5325581839
2.38252577376e-23
5.3370806084e-26
0
0
0
0
0
0
0
0
0
0
0
0
0
0
0
0
0
0
0
0
0
0
0
0
0
0
0
0
0
0
0
22.7921237399
22.9133472173
24.2220709296
22.9009163395
24.2056683054
24.0404707131
23.7519426519
25.9090890427
25.2089166912
27.3174841641
26.9530079993
25.8782631258
25.0850946848
26.3786225963
26.2551519797
25.9164329916
26.6475305119
26.7207041937
25.8348226049
26.6698347672
25.5743503828
25.7933581963
25.2799147317
25.5855640752
26.8658550116
27.5010973501
27.6306590835
27.6837017519
28.5310731261
30.4336930259
31.833953523
32.9995679987
33.7181738949
33.9528593986
35.5073782039
36.868941057
38.9983854057
41.5865956761
44.5710079107
48.6703557262
51.9781282721
53.61108659
53.010286631
49.3986324332
44.7158556606
28.4683632445
1.99923982862e-22
4.55136729821e-25
0
0
0
0
0
0
0
0
0
0
0
0
0
0
0
0
0
0
0
0
0
0
0
0
0
0
0
0
0
0
0
0
23.4925189668
23.5777811846
24.5474772417
23.3144422157
24.4711990478
24.3777365126
24.2466407362
26.1415374867
25.8142576714
27.9285608606
27.9375283567
26.764471228
26.2498107583
27.3033699811
27.1328386044
26.9654229654
27.5382534643
27.8950914714
27.1378302661
28.1082680991
27.3498408429
27.8291410921
27.6517879737
26.6246484837
27.6725372296
28.6159591781
28.793977256
27.5081687314
28.0235833201
30.3204678909
31.9609953183
32.694713224
33.5690582939
34.2942355366
35.8996729078
37.5342647006
39.8612535758
43.2105549511
47.803624284
52.4668851744
55.0680687271
55.2186775481
52.5220270061
46.9946777534
29.6078369439
25.8944639383
3.17157166031e-24
1.28607935952e-26
0
0
0
0
0
0
0
0
0
0
0
0
0
0
0
0
0
0
0
0
0
0
0
0
0
0
0
0
0
0
0
0
24.3739375087
25.3589717053
25.0186556775
24.2600688962
25.0033609724
24.7656318607
24.7154085244
26.335816914
26.3577256241
28.1980148971
28.8788749287
27.5473287867
27.2766390649
28.0621660523
27.9500624126
27.7636103245
27.9022045495
28.9582350646
28.4921961769
29.3658380742
29.2657147646
29.1880354135
29.0851314718
28.7401578716
28.1017928971
28.8289671117
29.7290818682
27.0825057231
27.5175102845
29.654887699
31.9872544874
33.1937610923
34.1999181762
34.3000996264
35.7615103265
37.7686982309
40.3816695811
44.713294152
51.0159626481
56.0879387868
57.5943924615
53.610185286
51.2513533598
49.486076243
33.5110698629
2.14972004125e-23
5.48660261009e-26
0
0
0
0
0
0
0
0
0
0
0
0
0
0
0
0
0
0
0
0
0
0
0
0
0
0
0
0
0
0
0
0
0
25.0318985338
26.0563061255
25.7029418226
25.105406949
25.6765041704
25.311715297
25.2400938427
26.597101367
26.8748830201
28.2038234488
29.7051491833
28.2805372867
27.9017910237
28.6792412987
28.8096761888
28.4746056818
28.1905428406
29.7191615593
29.8589835812
30.4606824702
30.602824389
30.8068045777
29.7629799085
29.7829332616
29.3513980086
30.4080235646
31.0441687106
28.6979260047
27.0727872962
28.654214514
31.263422418
33.306693727
34.4441095134
34.812950326
35.3987540435
37.4878556763
40.3018968435
45.848876654
54.0588697221
59.7238878104
58.6514908993
53.2866341988