/*--------------------------------*- C++ -*----------------------------------*\
| =========                 |                                                 |
| \\      /  F ield         | OpenFOAM: The Open Source CFD Toolbox           |
|  \\    /   O peration     | Version:  v1806                                 |
|   \\  /    A nd           | Web:      www.OpenFOAM.com                      |
|    \\/     M anipulation  |                                                 |
\*---------------------------------------------------------------------------*/
FoamFile
{
    version     2.0;
    format      ascii;
    class       volScalarField;
    location    "198";
    object      alphak;
}
// * * * * * * * * * * * * * * * * * * * * * * * * * * * * * * * * * * * * * //

dimensions      [0 0 -1 0 0 0 0];


internalField   nonuniform List<scalar> 
6400
(
0.830896147059
1.24479844243
1.90597291979
2.1804782696
2.45886494347
2.78115952302
3.34807500601
4.01684353852
4.12336432185
4.41530313734
5.52328843353
5.99042876685
6.32862636435
6.80615321036
7.55880023863
8.32869231839
8.87946835113
9.41640386314
9.90795433626
10.1127585582
10.006027638
9.90938572897
10.0770910274
10.5814390457
11.1821086311
11.6770547756
11.975719918
12.2289999167
12.5809241603
13.0416018496
13.5593256837
13.8497143576
13.8554259023
13.7642563642
13.5808780739
13.1775267625
12.9613529282
13.2219172701
12.9551227845
12.3245965244
12.1409584362
12.593768734
13.1026558494
13.3422232286
13.4010223475
13.3255081285
13.1959393448
13.0818994355
12.9856298402
12.9096105706
12.6773104612
11.8264052448
11.0126705303
10.1115631654
9.71734741359
10.1061062519
9.96046168556
8.65106372193
7.08399098286
6.52425833738
5.67484233207
4.72901575376
3.78124813102
5.50053269244
9.58508387191
14.5372048991
17.5361310971
17.2468030705
15.2359841268
13.5354511227
12.5581265227
12.6191094405
13.0323824321
12.8339086435
14.7698144414
14.1733511582
15.9979721994
9.8971839544
12.8734473675
4.81401454405
3.07874278139
2.38236775156
2.91042849279
4.09912438752
3.74067617853
3.3071646599
3.28639944257
3.53671198926
3.94317532336
4.4876983784
5.19378364659
5.8980011612
6.49129156234
7.0572707387
7.61644042895
8.27871423978
8.97107611857
9.68838960694
10.7640721884
10.7424575121
10.3429812425
10.1307419459
10.1461205168
10.5715911562
11.4667230794
11.8158476783
12.0447306343
12.3803242682
12.7735852817
13.1963281798
13.6463131895
14.1593948402
14.1738617207
14.1109381058
14.0313610314
13.3691051022
13.3188491123
13.5815496615
13.1422159211
12.1483664146
11.8821931478
14.2200599543
15.6107348733
15.6776780486
15.6085681224
15.2429556675
14.7112787861
14.2976402986
13.664951663
13.1454160247
13.1164697906
13.7266550535
13.5456582923
10.3329411303
10.2438917299
9.94659492855
8.2639581972
7.07179904832
6.1109874253
5.17325297463
4.44954559576
5.07394039729
3.9866500926
5.68256779936
9.63408152739
15.4512105382
19.178416114
17.9927818188
15.8167422909
13.8455969943
13.0284702597
13.3069817268
14.2667137644
13.6303441235
13.4132544864
12.8408436851
11.6070554889
9.74825278851
8.18483349808
4.27040627768
3.03337419442
2.56354346122
3.04556329626
3.10606981897
3.33441228669
3.61974394401
3.53240560031
3.48791351373
3.87399422339
4.47347578414
5.16775593738
5.8911127936
6.53987907311
7.12184913228
7.54804073284
8.14105469938
11.4038266173
13.5641355257
13.7661666139
12.6884415472
10.2159895737
9.56282227696
10.3733150828
10.8630537719
11.237782476
11.7491851868
12.1872458306
12.5300425227
12.9013308979
13.3567944237
13.7309140239
14.4384905493
14.5248834691
13.9472976037
14.7085901608
14.080447708
13.1488840645
14.0149685521
13.4940307658
12.4148861835
12.1113936321
12.6401465493
13.2217501104
13.4979845263
13.5787982038
13.5452573858
13.4303731858
13.2538672722
13.0155613449
12.7400251466
12.4293292289
11.9965179086
11.3714957323
11.0036242869
10.8156730279
9.48250949588
8.15901900207
7.1229918937
6.22439953228
5.43560752826
4.86189960009
4.29356447932
3.9784790643
6.42208702723
11.5939989974
16.2917220349
18.6048582972
18.7213939377
17.10889167
15.3803595045
14.5967992402
14.4050515535
13.6798364292
13.0268464558
12.933093618
12.5294314149
11.5046677927
9.86393300405
7.42752175429
7.59975876177
2.79867263839
5.30126314191
3.13047510385
3.0676093104
3.6851899212
11.6801873954
9.98593738171
4.33313724371
3.89809194255
4.50549006631
5.19133601111
5.91788878072
6.54530489113
7.23396800139
9.28624888686
11.6468033258
13.2939696082
13.3681861487
11.4665827822
9.6548099441
9.62093787587
9.8425246801
10.1632198717
10.7091342463
11.3304840643
11.9190755379
12.4173521436
12.7039528365
13.1660596986
13.4383352084
14.1940288338
14.3533947843
15.1440057174
14.7805002746
13.7345382008
14.3521893112
13.5606343377
12.6808380879
12.5141717869
12.4374936105
12.4885785833
12.8272155333
13.2398753827
13.5074160089
13.6219130176
13.6185145788
13.5246825153
13.3608331169
13.1363858127
12.8625858855
12.536346428
12.1333883139
11.6487735341
11.1348242672
10.4555696746
9.44204682813
8.29340230857
7.27607626259
6.44348895729
5.78770772382
5.30848141163
4.96739786848
5.09090362745
6.98185615989
10.7853588504
16.5615511896
20.1484540555
20.3481691022
18.6690311652
16.2962316718
14.6353213593
13.7656518566
13.8490609243
15.1550678009
15.0299088802
13.6599170816
13.4706062853
16.7211489435
13.1277484797
11.1485319102
5.24139857515
7.28002625743
3.55573485207
3.87835292539
6.10521715998
11.5581234032
7.63650043829
4.42854996832
4.37570364903
4.72546456776
5.3458259922
6.10973840867
7.60954972042
10.3247740705
11.2822319186
11.4088048397
10.9043070103
9.91708067408
9.34018127589
9.72186145237
9.77184756453
9.78923462379
10.2164034872
10.8157087902
11.4860137021
12.1458918703
12.5493269023
13.1474253062
13.271330553
14.0982693337
14.1370282333
15.7003331699
14.9595911711
13.9955447673
14.2522031404
13.1576231727
12.7463084162
12.6057294394
12.5935980006
12.6302070235
12.7337333275
12.9834888614
13.2989188846
13.546104264
13.6784048757
13.6976251005
13.622500503
13.4738349662
13.2664673073
13.0083184035
12.695137678
12.3165253798
11.8663584361
11.3212105328
10.5718635205
9.56583891616
8.48153696283
7.53693005964
6.81381073215
6.3046924298
5.99022769773
5.91723330475
6.41412853837
7.52863148992
10.5999191808
15.9539850749
20.1623480949
21.5579874651
20.3588453932
17.5737948505
15.0675101773
14.6787112332
16.8302597442
17.6329754468
16.540342628
15.5728623332
18.1615926316
21.1383468745
16.4533935876
15.5611531336
9.59335441183
8.69942128424
4.39960073741
5.23969603626
11.8113230938
11.2186275635
5.40887221225
4.85722350855
4.90775947526
5.05106251266
5.68055091431
8.73339585172
12.2852477796
12.5485693325
11.9157779424
10.3678577304
9.18629186384
8.91417742953
9.79814839295
9.74841580571
9.51765540786
9.81778695668
10.3650540641
11.046577559
11.596845737
12.2852895197
13.2622126294
13.1846354863
14.3489216396
13.9977359438
16.0622445378
15.1896111831
16.4318095606
14.6738241625
13.0339279454
12.5674230777
12.5726103711
12.6554504458
12.7387768374
12.8189967197
12.944256344
13.1542641619
13.4103619301
13.6333220489
13.7688568529
13.8024627735
13.7426351714
13.6109173413
13.4267726129
13.1966944523
12.9135772699
12.5634574809
12.1226057602
11.5410867172
10.7524228579
9.78027516307
8.79239418034
7.95358951339
7.31988646211
6.92444983203
6.7686308732
7.08665308437
8.43199729078
7.76669546113
11.8595174864
17.5500341949
21.3009055827
22.7090750658
21.7512729848
18.3722362296
16.1844719878
17.9320088442
20.0715101935
19.4926015993
18.4387924477
18.454327147
22.9327773014
24.4776787826
19.4632457298
19.2503379961
11.6463310028
8.23458410248
5.35446934295
5.09043669695
11.6641260381
7.58074720906
5.25531286292
5.32885638656
5.39473253279
6.08915435568
6.38995694736
12.2751808014
12.7158141356
12.5859687918
10.7086829452
8.83263518162
8.4922101511
9.94981354961
9.86436559666
9.26915643761
9.51800602989
9.92474549258
10.4696671356
11.1466811992
12.0713697035
13.0505105629
13.1993978642
14.8225836209
14.1913475018
16.4858095109
15.4084802589
16.779457485
15.3435869072
14.316802577
12.5496764416
12.3515126181
12.5738346821
12.7727788358
12.8930995461
12.9968805078
13.1400650276
13.3344225879
13.5575323779
13.7598628359
13.8929278811
13.9340971058
13.8879418236
13.777874297
13.6252518647
13.4332716808
13.1881418266
12.8652409737
12.4260948099
11.8216134561
11.0290498515
10.1161096429
9.2311476571
8.48823799287
7.91525795739
7.52956878414
7.49836223111
7.93378660923
8.24069364907
8.81285440744
12.8364519624
19.8311555748
22.4856164857
22.9143555039
21.8344654371
19.5658169137
19.3544908513
21.8950798149
22.2867007526
21.3851071377
20.7332933038
22.6038941162
25.2601687132
26.6748536047
22.0569205581
20.8942530462
11.205371716
7.49513094469
6.37789453491
11.6359802148
11.6108944593
5.95630820186
5.7824750331
5.8540885135
6.07445716722
6.58837324072
12.1070021059
12.957944131
12.8168822383
12.072009803
9.05040872761
8.08712589995
9.87794333604
10.2017332054
9.27177099727
9.08442887003
9.57159086085
10.1752793616
10.7062913656
11.4758744789
12.1142172116
13.5950202653
13.341779727
14.7123204377
16.4114486713
16.4843215571
14.8213645111
15.8565088541
15.6909071616
12.9483013015
12.4147390134
12.4503724756
12.6700384346
12.8941363114
13.0471948001
13.1736161871
13.3314569426
13.5262061781
13.7338547316
13.9201658
14.047481164
14.0929648548
14.0618974863
13.9797104051
13.866906801
13.7208884488
13.5190258563
13.2247147071
12.7908441202
12.1819615037
11.4145662405
10.5769139556
9.77902533298
9.06302223229
8.41219927293
7.94898817506
8.00448849796
8.53640344491
9.26483888652
10.2790569668
11.3474269945
19.6231886142
23.9652325378
24.1232725772
23.5725078494
22.7071842652
23.6483112809
25.0146739626
24.2789999208
23.5228180566
23.6350747164
25.8293739027
26.3963269064
26.9225393368
23.9841663179
21.791155154
10.2485308134
7.04334491852
7.01780012363
12.5241679446
10.2022899771
6.21135730535
6.35232139518
6.52905617763
8.22794737394
6.51356995192
12.8800990935
13.3654358675
12.7868185299
10.4361101299
8.26324547884
8.20106053737
10.0177486357
9.71927410567
9.04464764587
9.11086756795
9.54868774629
10.3155137816
11.0096926853
12.3719178935
13.614910796
13.3794477753
15.8623317845
14.2456380598
16.7867923213
15.0662669015
17.0007827419
14.5321140839
13.4817344526
12.7161350793
12.5234192865
12.6088879246
12.7955150193
13.0154784471
13.2000110639
13.3583794941
13.5321517874
13.7307331668
13.9336845035
14.1104145919
14.2302917355
14.2792931553
14.267863548
14.2209691257
14.1549963467
14.0613562565
13.9080483468
13.6468407178
13.2271333467
12.6322609034
11.9091647563
11.1440252532
10.3806033572
9.5572286422
8.63335718011
8.00368220648
8.33779105999
9.50396407271
10.7782912028
11.8326531941
12.6982059175
15.879856002
23.9289984781
25.6108097001
25.7988023498
26.6388229977
27.8293318169
27.4923927634
26.416201358
26.1128341057
26.9490918921
27.9723763582
27.6835721111
26.9780234205
25.871054354
24.4153101118
9.36738931697
7.16461400385
8.2283278811
12.5041625496
7.52790262649
7.2274343776
6.91958516793
7.16953857757
11.0117935362
9.47844817803
13.7059260898
13.5465458753
12.7421935736
9.34931357469
8.10130895171
10.1071204254
10.2972511898
9.33254471182
8.97139108253
9.29940501228
9.66705387392
10.3747912235
10.9157005763
12.5586776579
15.0898136233
13.1696378221
15.7330375072
16.841101657
17.0217312195
17.2882883124
15.3902664918
15.2500441169
12.8812686148
12.5449403569
12.6558411932
12.7753502388
12.9346498601
13.138880425
13.3465782179
13.5451697629
13.7464779038
13.9541637142
14.1558780905
14.3273464073
14.4427606821
14.4955864438
14.5068498997
14.5029769485
14.4917289653
14.456201827
14.3567261753
14.1350982879
13.7398718871
13.1742707034
12.5044139103
11.7849047852
10.9378086134
9.74166061149
8.30539290118
7.74448575941
8.96505714506
10.9697669726
12.6153375008
13.8297488622
14.7268712739
14.7436026585
15.8596667874
27.3358901648
30.1966490422
31.4801756574
31.488560858
30.0690620943
29.0604085128
29.1803196384
30.1104091875
30.2199447952
29.7824445428
29.3320806287
29.5512933702
29.6601077529
8.9417395978
7.75937742167
11.9819881493
12.4022516895
7.1611794316
7.9021903214
7.44953016521
8.23363885138
10.1437641644
13.2895219404
14.3787521931
13.6708606876
12.8070206828
9.00813579355
8.16156005735
10.7268868298
10.2736556346
9.19067507668
8.97391937948
9.45104385389
10.1534604463
10.6929424857
11.1060665048
12.0876653435
15.207588769
16.3684335959
14.8720072302
17.0172245207
14.8751025516
17.3401253937
17.2932263243
15.0513486187
12.7122937145
12.6349630768
12.823501096
12.952767095
13.0949502799
13.2807158734
13.4913806958
13.728095367
13.9715536979
14.1973865163
14.4014784799
14.5705657387
14.6842142766
14.7449410414
14.7834642318
14.8269403285
14.8753107486
14.903156465
14.8630847238
14.6880560992
14.3289043982
13.8071620775
13.187235134
12.4335941201
11.2000195489
9.17248945316
7.50413459419
7.87135269596
10.4841054904
13.2180523933
15.0550580803
16.2860209992
16.930248475
16.8433468631
16.2579543556
17.9907943211
31.8127197016
37.1445869956
35.9324013441
33.5263247308
32.5584403737
32.7941361211
33.2667441465
33.280193007
33.3047252299
33.5958673241
34.0367619581
34.6351738
8.9223158778
8.45806361812
13.5232643991
12.7979037546
10.4959232284
9.0123373423
8.16005730472
9.78949142196
9.21477980613
14.2116822021
14.8528963956
13.8441058779
12.6254690569
9.31991333859
8.93693322344
11.2515877471
10.1557669334
9.16757011268
9.07542589218
9.48463220369
10.3597197839
11.1204075752
13.1333840905
12.227647963
14.5611503263
16.7493606528
14.4580697611
17.3398790236
17.8008148296
15.8003698585
15.7378560937
13.3977735413
13.0550795543
12.955186676
13.0373589161
13.1604666556
13.2905274282
13.4582822063
13.6442295985
13.8905700178
14.1911765683
14.4662401423
14.6780926362
14.8412359083
14.9560025571
15.0308449868
15.101376715
15.1939799666
15.3027685608
15.395516592
15.4160327378
15.2945818351
14.9922001263
14.529080042
13.9163795507
12.8568692643
10.5927834385
7.84901080519
6.91005729468
9.00150654447
13.1649130423
16.3243396708
18.182252946
19.5090365302
20.0980470353
19.8278531884
19.0291660558
17.777432675
27.9015269691
38.1579236403
40.9681616872
38.1445029191
37.1646351799
37.2803784493
37.4910430018
37.378129769
37.9097215348
38.4224204592
38.1554981772
38.2650575245
9.27495346088
8.98644897078
13.0944900778
13.0616063712
12.9860405183
9.88351726861
9.00745641517
12.9340322109
9.24343776198
15.048769255
15.2102306131
14.0347184827
12.4688647368
9.69683507527
12.2630548412
12.3620355087
10.1662992992
9.28445858959
9.30811928015
9.64390631246
10.3249478059
11.0535578443
14.7213270701
15.7546442383
13.7437459825
16.854091531
17.6121009807
16.7210206387
17.7762492617
17.7185552729
16.3497088266
13.3213479885
13.2452311188
13.273492326
13.2979863626
13.3816116765
13.4806454662
13.6657769924
13.8687614344
14.0785738564
14.3870227724
14.7258340781
14.983233118
15.1494753858
15.2632349665
15.3566782907
15.464457229
15.6058093622
15.7694747143
15.9181999483
15.992572371
15.935211808
15.7213235362
15.3150108185
14.5596240064
12.6270360538
8.91894487209
6.03325927121
6.79602358763
11.6155753987
17.0446215838
20.3858976045
22.0607030725
23.7623498752
23.8994845212
22.785457364
21.3574874075
19.8406060721
24.2092856233
35.4154349702
42.3515252612
43.4014420647
41.4871733819
41.7802968661
41.90802135
42.239928274
42.9953854627
43.3413044388
43.1156845738
43.1865848702
9.68278832012
9.51907221825
9.25556229278
13.2578794954
13.3366421732
10.3674528985
9.79589098477
13.7337676747
9.61617139638
15.8748164693
15.5095032011
14.2321412471
12.4429373022
9.83335854923
13.4737510191
12.6608830687
10.3512291823
9.55595880872
9.60696582227
9.98359699726
10.4145698319
10.9737276981
15.3588173909
16.725251547
13.9533205638
16.9821336482
18.1305747507
15.6139100426
17.3894963905
16.9551093972
13.9306195575
13.6811991057
13.6639074972
13.6163077648
13.5715545837
13.6667340612
13.7466818654
13.8404868891
14.0735674784
14.3338968631
14.6248971237
14.9787678819
15.2883386476
15.4877632023
15.6140091071
15.7301446335
15.876077114
16.0579934052
16.2666108389
16.4573031949
16.5556228532
16.5768217012
16.4974635481
16.1473862948
14.9264074056
11.0856425388
5.65104724145
3.72244211514
9.22919326198
16.4765432431
22.5976795565
25.452446205
24.5650911891
22.5692304163
19.6498524769
17.976389554
17.4210172091
16.464565875
14.0126566463
15.5789495776
41.883571836
45.1896238619
45.928652471
45.3636434731
45.3146834921
47.3791816508
48.1509673514
48.4531433484
49.444559954
49.926733762
10.255298861
10.3044836671
13.8269603246
13.7237806781
13.5700916382
10.7443854207
10.7183291115
14.3292224888
10.4321378954
16.5510780436
15.7679899238
14.4314078516
12.4697196474
10.0857511741
13.6318900813
12.5610301691
10.5463463483
9.86835901515
9.90449043212
10.2360476988
10.6455847941
11.0849830911
14.4622631765
17.4866056124
17.5922536211
15.9852853108
18.2938105635
18.885250729
15.1643519378
14.1772902324
13.7546480598
13.8431156192
13.9010898165
13.9004610256
13.9210788386
13.9414977851
14.012707532
14.1333567846
14.2749374144
14.5654198293
14.9068585126
15.268169692
15.6003681908
15.8396216377
16.0070452844
16.1540722317
16.3323399055
16.5687545337
16.8175486233
16.9825268012
17.0541185909
17.1686265795
17.2592536595
16.8702014594
14.4382277668
7.81465968198
0.861352593559
6.59693134838
15.1788291247
22.8799965356
25.5786525896
20.6416537529
12.7308730794
0.0056103750677
0.00438845202356
0.0106541523709
0.0718174104868
0.336388741104
1.24262168878
7.89666664127
6.18291370256
31.6359451451
50.6032682665
50.7506191186
47.5698730331
51.060658962
52.9084187643
55.5569547364
57.8156455496
58.0478446023
10.7572760366
10.9333962846
15.3332010646
14.1269771482
13.3044445377
11.1551101298
11.650602555
14.7394842465
14.7437271164
17.3397436519
16.0463041049
14.689893457
12.5251162394
10.4921024064
13.7897335318
12.4208236322
10.7671479478
10.1975369179
10.1800891778
10.4449595897
10.846113137
11.4044857683
13.6584926199
17.7131240362
18.9899776318
15.145999873
17.8655522178
18.7242315397
17.9401746242
14.9324302027
13.9168533712
14.0402294829
14.2052661484
14.300535353
14.1785660067
14.2303703958
14.2612560956
14.3982908937
14.5504655134
14.8087638387
15.1915618665
15.5948027878
15.9269170635
16.1774198417
16.4100277165
16.6848383151
16.964830301
17.234213036
17.3822590015
17.4616989078
17.5578257102
17.6881417782
17.9894311888
17.5373680234
11.551485918
6.51111710713e-05
4.52389024016
12.5242118247
18.6389271085
16.7418577889
0.0863931965975
0.000144155327717
1.01615752084e-05
0
0
0
0
0
0
0
0
1.41330182096e-09
4.76677445503e-07
7.13007855341e-05
0.0413664324225
32.9949765182
59.2783325885
59.3093454627
66.5496875573
65.8424130962
11.1464097492
11.3500882194
17.6204272455
14.3714526595
12.6824480937
11.5338886365
12.2851962159
14.4638629151
16.2963624336
18.2491994741
16.4550651809
15.0509104346
12.7902159193
11.2313963694
14.1599351539
12.4530643741
11.0919858034
10.5927268031
10.4960958944
10.6872482851
11.0262121384
11.5573395246
13.2913520718
17.5624150491
19.9353871745
18.9194442145
17.1274652648
18.0269921037
17.3016669023
14.1986838836
14.3771285917
14.5658564722
14.8430548531
14.7515413687
14.6457164086
14.512719829
14.5983400204
14.6590080348
14.8376414812
15.0937643777
15.4566030686
15.9070548721
16.3629700462
16.6446296385
16.9333171271
17.3348874199
17.7545700177
18.0522258392
18.1613948527
18.2494352224
18.3563082933
18.4268527172
18.2530212138
17.1475237092
10.2368400279
0.525303220319
5.74949746636
1.19747459276
0.0163272055928
4.47736349989e-05
0
0
0
0
0
0
0
0
0
0
0
0
0
1.82103923488e-08
1.80959851309e-07
3.96703202428e-06
0.000192355897234
1.06819643592
72.7895189983
38.7419792203
11.4316695351
11.6213732416
19.7870281973
14.5072184253
12.3998395372
11.90324241
13.0740313649
13.2737411834
17.2500325582
18.8832616707
16.8603850506
15.4267854499
13.2783449383
13.4039617717
14.6694832546
12.7445469946
11.6326658067
11.2160808536
10.9214973587
11.0220265422
11.2643129061
11.7286561127
13.1708949153
17.4249836459
20.2902022011
20.5807538229
15.9835731112
16.2069644155
14.9093805034
14.2883299699
14.5542753873
15.1008632551
15.325895772
15.1937462964
15.0747126779
15.1796299135
14.9581284213
14.9915192897
15.1256653151
15.3423123461
15.8182148572
16.3235917087
16.7916030178
17.0290534684
17.4446675987
19.4024663831
22.101420807
22.9467755733
21.1767238824
20.9597849861
21.1377255363
21.3546637897
21.2091871212
19.4753161338
18.1885284268
3.23082903279e-06
0.00326479276187
5.32724206703e-05
0
0
0
0
0
0
0
0
0
0
0
0
0
0
0
0
0
0
2.8134485256e-07
1.90522087191e-06
0.000351338524786
56.0790089521
11.7145174046
11.8761128545
19.4513813146
13.4180037727
12.3021065895
12.2053474112
13.9632594793
12.882201579
18.0259594873
19.4980489148
17.2647695204
15.7893756423
13.6278753544
15.9344585271
15.4236932159
13.2475944237
12.2736652456
12.3446272955
11.5762619317
11.5324158883
11.6105861749
11.9126435064
13.2219878749
17.2715900943
20.121654137
21.6962279326
19.7145727035
18.2482388203
16.8089871254
14.6428600138
14.8851379244
15.9593760839
15.5769322619
15.5807249469
16.0626539974
15.6381778896
15.4364490472
15.4444408489
15.5691335051
15.7616545905
16.0474035608
16.6239421312
17.3268201939
18.5579714382
20.4020306356
22.9840510477
24.9042078212
24.8654001134
25.1342492424
26.623903922
28.7577768294
31.8519223881
33.1322830214
31.2713292752
24.9720213462
3.54087383787
0
0
0
0
0
0
0
0
0
0
0
0
0
0
0
0
0
0
0
0
0
0
8.65693575823e-07
94.6256412477
12.1050286201
12.2561056119
18.8793001098
12.6348911835
12.4178166508
12.4301509899
14.6869984718
13.120199653
18.6343901229
20.0976894197
17.67771564
16.1780152578
13.9345904625
16.512716403
16.1039152145
13.8243500848
12.8940513734
13.1362973146
12.3844823731
12.2764704252
12.1942279614
12.0926267764
13.4547497976
17.235112462
19.8058759501
22.0546363675
20.9710410166
18.4126055653
15.0693414562
15.1849371408
15.5730096022
16.5965801802
16.8763631835
16.9336869443
16.8611448985
16.1485697007
15.9583648306
16.0070902075
16.1102565925
16.3162403753
16.5726829167
17.2273084312
18.5254778965
21.0056663747
22.6290194161
22.9010088928
23.9884229803
25.0508060176
28.8854523982
33.4132421708
39.9789628642
43.8974098023
44.8847886785
40.5059481512
0.929919259461
0.0225151340704
7.5575662557e-05
0
0
0
0
0
0
0
0
0
0
0
0
0
0
0
0
0
0
0
0
0
1.45482716994e-07
1.92486922672e-07
12.7643812829
12.9203951369
18.2233698747
12.6170105062
12.8772269711
12.7684688246
14.313149586
13.7759468812
18.9832268
20.6491740295
18.1307021924
16.6272653111
14.3956993928
17.0626791146
16.741883122
14.5469263824
13.609541915
13.9273570398
13.1511402198
13.1760021665
13.1208001856
12.463057127
13.9134481891
17.3572495287
19.6491262336
22.1473409137
21.4011960246
18.6778100581
15.2396205515
15.3020843395
16.4175968805
16.2698102944
16.310136887
16.7352508331
17.8215519545
17.1183900384
16.8474678466
16.5985589154
16.6419721526
16.9668894604
17.3614545911
18.0667569758
20.9416132824
23.6475308584
23.6559530817
23.8266408574
25.5344575907
30.7538402478
37.5061584568
43.5122781026
48.0570084192
43.3457173037
3.8889135894
0.00127504713674
8.00023699329e-06
1.6215832044e-05
2.49014670525e-06
0
0
0
0
0
0
0
0
0
0
0
0
0
0
0
0
0
0
0
0
0
1.0753054578e-08
4.88264611772e-08
13.8229262227
13.9069438113
18.1559210923
13.3914811214
14.0326188075
13.4926043672
14.2373430668
15.2278492544
18.689232471
20.9802965259
18.6587040307
17.1621414274
14.9865873203
17.6909171576
17.4137316448
15.4677739418
14.5617948951
14.913915834
13.9158690891
14.1956432252
14.4382219823
13.1401733163
14.3814282996
17.6254391216
19.6669416655
21.9090321119
21.5657775343
18.9862167318
18.0069114894
16.2359131757
16.915710568
17.6128725451
18.5776512781
17.1742770736
17.4911547603
18.2646584596
17.7170071918
17.7251373818
17.5401448626
17.6348849626
18.1326709365
20.688153963
24.8038902966
25.6962971029
25.0867867068
26.7097045522
33.1094274877
41.8079269418
47.7754461201
46.7910276058
35.1700877733
0.0132928812397
9.09542754645e-05
0
0
0
0
0
0
0
0
0
0
0
0
0
0
0
0
0
0
0
0
0
0
0
0
0
0
0
15.3823447529
15.12362363
18.6043749677
15.3667649364
16.123033795
14.6472627203
14.9581214547
17.4123606778
18.5902105054
21.4283774746
19.3306264605
17.7989672255
15.691110057
18.3523151303
18.0795795281
16.5075572856
16.1286012741
16.2642390468
14.7622734535
15.3564995662
16.1195753739
14.2340424982
14.6449463537
17.9456542737
19.8547365259
21.6407406962
21.7176901927
18.8897564453
19.1878306564
17.963283497
18.1772877141
16.6427054562
17.3878879094
18.804882583
18.368707658
18.5947598397
18.6216262162
18.5488031858
18.6953640064
18.725955377
20.3477955452
25.2972995833
28.1233793441
28.094043197
28.7534386422
33.7650595977
43.0267506858
48.7774786528
38.2865646916
11.830148497
0.0222127960582
0.000101709560946
0
0
0
0
0
0
0
0
0
0
0
0
0
0
0
0
0
0
0
0
0
0
0
0
0
0
0
0
17.0799163658
16.2483661826
19.1535311891
18.159485441
17.7969945042
16.0556298112
15.7782524526
18.473564831
17.1080744014
21.72326253
20.1343738582
18.5311334495
16.5029780015
19.0308549945
18.6950266653
17.3530129109
18.5539148055
17.9186613975
15.7439486083
16.7208238945
17.4941799252
15.6954790526
14.435365111
17.8153340981
19.9463218133
21.395662216
21.7094011035
18.8503202811
19.3892760708
19.2771104462
19.31516023
17.2800181209
17.8503034932
18.1507421215
19.2903642278
19.8182847064
19.8077218011
19.6197488795
19.6214153543
20.6092457461
25.2416728382
29.9261706614
31.6066658577
32.2099664246
34.9734030822
41.495674504
44.2445590854
28.6118565875
18.1242395047
0.0495291547851
0.000173460655064
0
0
0
0
0
0
0
0
0
0
0
0
0
0
0
0
0
0
0
0
0
0
0
0
0
0
0
0
0
17.7958529347
17.0316976902
19.4508789533
19.0733229549
18.7306782066
17.4308446228
16.8636186212
19.811710878
18.0086086023
22.1502778177
20.9425047808
19.3168157652
17.4135658016
19.7467112895
19.3414307055
18.0701458699
19.4231236587
18.8933772476
16.7277843898
18.1180794639
18.0796601448
16.2653839441
15.584609465
15.754329011
19.402992985
20.8110386753
21.4153819836
18.7623413035
19.3446527027
19.6717366421
20.1634793929
19.5063450561
17.529243469
17.9532235088
19.3758500718
20.6151820377
21.1094371724
21.287859972
21.2842919681
25.0658098586
30.6864788461
34.1942215669
35.3470275346
36.629214767
40.1444547968
38.579929843
24.3020298238
23.3982519978
0.162808180448
0.000463686126651
0
0
0
0
0
0
0
0
0
0
0
0
0
0
0
0
0
0
0
0
0
0
0
0
0
0
0
0
0
0
17.6981373834
17.5630168517
19.6443706128
19.1467730449
19.3352984433
18.5174385245
17.8270483637
21.11886492
19.7257705449
22.7288544677
21.8060747669
20.1384195147
18.4136168164
20.5132638537
20.0667356878
18.9534029101
20.1137815522
19.7480183887
17.8162640177
19.0506868349
17.1353041267
16.8651370148
16.5399042076
16.9489820341
17.8991575017
18.6897346302
20.4828801548
18.6275025811
18.5673532916
19.5564473051
20.4944831655
20.8258781773
19.1783970213
18.6249094663
19.1647963261
20.3187503276
21.7417466709
23.0051194126
24.636372627
30.3275495618
35.305372152
37.7850482304
38.1077420622
38.2870630282
33.251914105
25.6895919548
24.762359534
0.565523285324
0.00126682506143
0
0
0
0
0
0
0
0
0
0
0
0
0
0
0
0
0
0
0
0
0
0
0
0
0
0
0
0
0
0
0
17.8583330356
17.9531608048
19.8583749188
17.7514742558
19.5479518108
19.0823449463
18.4735593865
21.5947352114
20.4524112093
23.3624577659
22.7354109906
20.9764402391
19.5177220781
21.3183105779
20.8427470628
19.9828073639
20.8429944871
20.7163730252
19.0224430133
20.3674280854
18.4281526519
18.663641679
17.7466773366
18.1596250469
19.9685527838
20.5526542484
20.0656317449
18.4572300173
17.830291446
19.4624756162
20.4590303095
20.9528548441
20.8870671637
19.6522464711
21.0173331807
21.0568183926
22.292921389
24.7233243977
28.8992123024
35.1057929261
39.0915367264
40.2498896293
37.8335497406
30.1765572882
27.7617900593
27.4648323868
4.7454541247
0.0108032585231
0
0
0
0
0
0
0
0
0
0
0
0
0
0
0
0
0
0
0
0
0
0
0
0
0
0
0
0
0
0
0
0
18.5365445782
18.6114990682
20.0406360341
18.1073690889
19.7117603368
19.3434683439
18.9326589613
21.6440295663
20.9835184511
23.8131431292
23.682767507
21.782909864
20.7252209661
22.1237617963
21.5996725831
20.9940525439
21.5296962945
21.7851406035
20.284470504
21.6649883751
20.2082734681
20.8931998638
20.5211120993
18.8456151154
20.4343807454
21.5380856647
21.6260467177
18.3337571515
16.9646955418
19.3445341816
20.5665586289
20.153787987
20.2025174567
19.8697940813
20.9240911251
21.4170370729
23.0137926819
26.581324324
33.1286488089
39.5561310567
42.3249928076
40.9365560088
31.2355590167
28.487688512
29.1507610579
22.1872489553
0.0752813524509
0.000305267557896
0
0
0
0
0
0
0
0
0
0
0
0
0
0
0
0
0
0
0
0
0
0
0
0
0
0
0
0
0
0
0
0
19.4056918901
20.7899614364
20.3444849154
19.1173343643
20.1865580406
19.6627958921
19.3800299983
21.6770837482
21.4914941338
23.8813778331
24.6389323197
22.5310778285
21.8014133388
22.738134381
22.3430044344
21.7226772612
21.5315448801
22.776348178
21.672346171
22.7856551438
22.3197740801
22.0945019955
21.8044174626
21.3318224968
20.2954658316
21.2153407415
22.5568171504
17.3490839687
16.424212669
18.4126093887
20.5405781153
20.9003258591
21.4042722035
19.8181480093
20.609458375
21.6285583818
23.357946529
28.2961426799
37.0964320106
43.6160349271
45.0038401061
36.8734468559
30.3549073616
31.6678794351
29.0550718983
0.510263835819
0.00130231604102
0
0
0
0
0
0
0
0
0
0
0
0
0
0
0
0
0
0
0
0
0
0
0
0
0
0
0
0
0
0
0
0
0
20.0470343631
21.4615858261
20.9938158863
20.0196812124
20.8586939265
20.1999870131
19.9045609965
21.8097915149
22.0067636285
23.658813615
25.5099675686
23.3024011826
22.4050768729
23.2421695877
23.2147224506
22.3879036926
21.5289875431
23.466150744
23.1879327401
23.7536150129
23.5940704802
23.6450815264
21.8439123159
21.8190988095
21.2446734054
23.0219333116
23.8783529187
20.052395109
15.9707731241
17.2338660423
19.8860193438
21.2153107975
21.3049447198
20.4300893836
20.0937502442
21.669843858
23.2671456114
29.641138531
40.6993952582
47.6449796114
44.4834345009
31.2468222198
32.1851160783
33.6523216595
16.9921490177
0.0150453393036
5.05608844408e-05
0
0
0
0
0
0
0
0
0
0
0
0
0
0
0
0
0
0
0
0
0
0
0
0
0
0
0
0
0
0
0
0
0
20.5375613842
21.8050496076
21.5828610962
20.6340769849
21.5395452897
20.9156988913
20.520853996
22.1318175772