/*--------------------------------*- C++ -*----------------------------------*\
| =========                 |                                                 |
| \\      /  F ield         | OpenFOAM: The Open Source CFD Toolbox           |
|  \\    /   O peration     | Version:  v1806                                 |
|   \\  /    A nd           | Web:      www.OpenFOAM.com                      |
|    \\/     M anipulation  |                                                 |
\*---------------------------------------------------------------------------*/
FoamFile
{
    version     2.0;
    format      ascii;
    class       volScalarField;
    location    "791";
    object      alpha;
}
// * * * * * * * * * * * * * * * * * * * * * * * * * * * * * * * * * * * * * //

dimensions      [0 0 -1 0 0 0 0];


internalField   nonuniform List<scalar> 
6400
(
0.90293033019
1.4619811024
2.33070447475
2.93913758389
3.51908258356
4.09429931124
4.79998327848
5.5859774917
6.0960172528
6.85129865503
8.15343570574
9.11554801844
9.93831432924
10.8452724893
11.9355684085
13.0841810949
14.1390873281
15.1347410687
15.9796376921
16.519456614
16.8615251744
17.3571624751
18.2008708051
19.3606050691
20.6157369951
21.7639567497
22.7458612324
23.666959731
24.6237935842
25.6316920916
26.6353987007
27.4532816025
28.0085438131
28.4130208697
28.7141330795
28.9230631036
29.296144558
29.8652249725
30.1441801899
30.2194595057
30.6413951537
31.5276669924
32.4041229915
32.9194837645
33.110453863
33.0717904105
32.8684562863
32.5412652426
32.1032057184
31.5735065201
30.8769488987
29.8130450508
28.3720443993
26.638488006
25.0230722597
23.5408933396
21.5933673235
18.9690231282
16.2283800956
13.8533485822
11.4538651181
8.94624471251
6.64031091305
6.28459268514
9.18403601418
13.687395699
16.4506068696
15.9952177189
13.8852845812
12.2216449975
11.3637694503
11.6436522201
12.2934047459
12.2488469803
14.4440666555
13.9320729721
15.8968325961
9.79268031212
12.8540703783
4.80031554769
3.17212570944
2.56211300553
3.20691050298
4.48893230613
4.49629318585
4.50309554545
4.80324736838
5.3240716821
6.04960740427
6.96366907077
8.05170258362
9.13969056373
10.1139010157
11.0510519723
12.0120007389
13.1038317165
14.2544386681
15.3507436703
16.4419504689
16.8214590391
16.9930780728
17.4724000568
18.3011165227
19.4520597389
20.8147836582
21.9137264541
22.8694635795
23.8240669632
24.7935973254
25.7732118405
26.7516427747
27.6465276934
28.1955991352
28.5926008621
28.9213830437
29.0590669068
29.4715571674
30.065446871
30.308329613
30.2697351383
30.6665388525
31.9884400827
33.1092024067
33.5422269864
33.6814513233
33.5806631288
33.2999512291
32.9193026979
32.3494582352
31.6798937393
31.0387366864
30.4013876868
29.1205651405
26.8612487583
25.3392457796
23.6772596347
21.2795003704
18.7163335157
16.1684384979
13.6350254998
11.2459335557
9.23563816181
7.02084137986
6.80184667079
9.47007721263
14.7674156964
18.271440696
16.8257926732
14.5428091865
12.5562574564
11.8767897017
12.3741129268
13.5944623822
13.067791004
13.0008145702
12.5496408889
11.4205307143
9.62939605038
8.12668648455
4.20728338181
3.30959391634
2.94244206765
3.46997906393
3.82521131765
4.45546283435
4.95430933829
4.98705694284
5.21507409974
5.94538630144
6.9360383242
8.03534574516
9.14271792464
10.1600584998
11.0977840681
11.9144259175
12.9116467164
15.4484679337
17.4546132627
18.0109788325
17.6651775329
16.7991294708
17.1791212898
18.408836718
19.6071788573
20.7538810748
21.9084793382
22.957770045
23.9144125668
24.8642709287
25.8376338285
26.7868259954
27.7603376662
28.3013522678
28.4992661251
29.0917814286
29.2485977517
29.4014279179
30.1495811732
30.4462219037
30.4752090977
30.8867318528
31.7489029121
32.598336143
33.1140790854
33.3300142636
33.331922039
33.1620606258
32.8402301152
32.3696288849
31.7699832628
31.0385178921
30.0624388941
28.7177848816
27.228286069
25.677689348
23.6040991771
21.2009630516
18.6970891309
16.1725384768
13.7015399836
11.3838423838
9.16360440597
7.61179355352
8.20764795724
11.8649349858
15.8266631576
17.7267816522
17.6653024243
15.9920513469
14.2920176298
13.6252355406
13.5755346471
12.9459958872
12.4037570116
12.4655209175
12.2126364781
11.3057116748
9.72045190346
7.2859840234
7.49644205629
3.40164050628
5.58721788669
3.86110974993
4.03410149991
4.76804840755
11.9598714996
10.390114657
5.7170342056
5.9025159738
6.92411881316
8.05455403181
9.18371695988
10.1760122267
11.1157616918
12.7875300276
14.8539012674
16.580328103
17.1876417136
16.512206529
16.1023639717
16.6301076796
17.411359497
18.4057645885
19.5955641105
20.8295777204
22.0115707904
23.0849441076
24.0243427804
24.9876461354
25.9010288835
26.9528101921
27.756075709
28.5311271629
28.709348814
28.7210183755
29.3136114687
29.5552643446
29.8218996755
30.2684934312
30.6778382197
31.1910221846
31.9177341827
32.6497613917
33.1611680053
33.4149666198
33.4522886488
33.3093368371
33.0074708921
32.5556318137
31.9594846033
31.2001068769
30.213553104
28.9562999688
27.482816282
25.756870487
23.6548611833
21.2553655535
18.7455429484
16.2440526856
13.8468536095
11.6699199903
9.9249267059
9.20706852791
9.80986815835
11.7464692808
16.3237786704
19.4680879887
19.4647246613
17.705996728
15.2908627012
13.6617441715
12.8821151813
13.1011709425
14.6054849202
14.6081190923
13.3428301897
13.2650634653
16.6142659582
12.9882652201
10.9828043341
5.83436368603
7.68671891523
4.72269026619
5.04441808937
6.77882706714
11.8595187466
8.48238176655
6.26039360646
6.43103478001
7.13975661027
8.19081304223
9.33083399297
10.7765208341
12.9754102424
14.0646140255
14.6100295706
14.89397704
15.0416442998
15.4205868553
16.1421968504
16.7508859624
17.4688114908
18.4963187492
19.688658691
20.93261994
22.1392326135
23.1900185606
24.2314181245
25.0888907228
26.1461440359
26.993035299
28.258975138
28.4740151812
28.411699537
28.7881610529
28.9468011957
29.3635549832
29.8928969296
30.4175115668
30.9127784363
31.4593903408
32.1135144548
32.7656447771
33.2619721718
33.5409754901
33.6102276162
33.4947925458
33.2158138794
32.7843407626
32.1994844142
31.4393252683
30.4625737154
29.2403831088
27.7619857568
25.9662736863
23.8085155611
21.3983291713
18.9149216928
16.5004596183
14.2927399599
12.4776469867
11.3401570237
11.1726986235
11.3009131347
12.3610581111
16.1041787058
19.6681553652
20.8349087539
19.5603845227
16.7284368763
14.1895252418
13.8456521267
16.1643343261
17.0766941273
16.0798897492
15.2089166911
17.9379592606
20.9944383644
16.2605375855
15.369355725
10.1100931506
9.29832123746
5.88995033916
6.38128744759
12.1511175742
11.6556505708
7.06702836795
6.89631238212
7.08044767429
7.49562498728
8.41764731173
10.956085545
14.0592173528
14.6007933352
14.4211581456
13.8246543057
13.8200508547
14.4415115727
15.4990399939
16.0991735162
16.6630312497
17.5385948439
18.6298158861
19.8450695395
21.0269427609
22.2394006932
23.494414654
24.3296408755
25.5136327179
26.1998853319
27.6620635522
28.0826845554
28.9625462697
28.5767841382
28.3309841312
28.7373585962
29.3849267801
30.0292786404
30.614697256
31.1603175161
31.7270842888
32.3437789735
32.944557715
33.4240037768
33.717748767
33.813518619
33.7249926775
33.4716353604
33.0654114183
32.5027795042
31.761563077
30.8066759969
29.6013045082
28.1025310399
26.2587476241
24.0834794316
21.7130568228
19.3310066177
17.1031623383
15.2056433958
13.8372048447
13.2373271484
13.4289948802
12.7020797949
14.3998598944
18.2332903876
21.1572461578
22.2203827687
21.1539995091
17.6992353352
15.4155141542
17.1774746305
19.3850674422
18.8685289922
17.905258426
18.0190136675
22.684088596
24.3068623131
19.2503761094
19.0546456195
12.2542856308
9.26193041814
7.15406003016
6.70636004397
12.1353103367
8.73688909797
7.38367829433
7.52434143337
7.68971416084
8.41421155808
8.988983055
13.6746667644
14.4713260883
14.6215034086
13.5536360559
12.9331078554
13.469430101
14.8479626546
15.4371851616
15.8333079158
16.669532394
17.6409348297
18.735547216
19.9472722908
21.2797723661
22.5543849085
23.5162756916
24.9862540705
25.6077467584
27.157084819
27.4551866161
28.59031777
28.5223569881
28.3792492318
28.208692451
28.7166934104
29.4808950997
30.2029981011
30.834072897
31.4175474262
32.0043728008
32.6061987418
33.1778959065
33.6446129698
33.9479167222
34.0656882087
34.004016743
33.7806790445
33.407581945
32.8792607092
32.1713865754
31.2454996435
30.0536386004
28.5445327137
26.6929586404
24.5599400825
22.3054480183
20.1166923632
18.1538109327
16.5627578628
15.5168150817
15.0636180315
14.7303195515
14.7017269588
16.3805642115
21.0892278431
22.7957842737
22.7542472282
21.4826239489
19.0874467024
18.6718861479
21.1223345062
21.4965051805
20.6567379054
20.0889454156
22.1398210238
24.9710435961
26.4919648809
21.8645880351
20.7217190523
12.0271580191
9.03435485783
8.3355576508
12.3670543104
12.299539758
7.95315309462
8.07335039337
8.24961915553
8.34797019072
8.95452417434
13.3850189351
14.364826421
14.5614995398
14.2307122885
12.5388967188
12.584990264
14.1606565848
14.9488377943
15.1095036022
15.7085946848
16.6947642326
17.7886469056
18.9178407179
20.1767328803
21.3682698951
22.8487160891
23.5835750907
25.0020706984
26.6208677356
27.2973199139
27.2008609879
28.1452747371
28.5537703488
27.9748973095
28.2194821265
28.8671679785
29.6399372123
30.3919628827
31.0667886176
31.6886836143
32.2985895784
32.9015766381
33.4613109281
33.9215095613
34.2326882157
34.3704298949
34.3373587454
34.1500504154
33.8194582184
33.3376695366
32.6764348475
31.7908262766
30.6263012453
29.1398385924
27.3417668619
25.3327128246
23.2792498937
21.3299938391
19.5768660126
18.1362736958
17.1895434979
16.744897671
16.6334488236
16.9226156858
16.9522643053
21.7554271202
24.9112610263
24.4820022132
23.6069944926
22.4322380636
22.9919195981
24.1515868292
23.353131767
22.6371831063
22.8765925455
25.3276349615
26.0898165
26.7481011061
23.8619166157
21.7139651304
11.3836979294
9.0596601801
9.02120636855
13.3778510284
11.4080054557
8.66298705129
8.82386922708
9.13357108962
10.2207906608
9.10905199354
14.1535988204
14.9149673912
14.6231117839
13.1339352987
12.2637247537
12.7164849279
14.2137866342
14.6971938706
15.0055207861
15.7174635904
16.6870391664
17.8440043662
19.0630832561
20.679898809
22.0525450002
22.8199177747
24.7297053291
24.936155202
26.7631197662
26.8819818916
28.1102300757
27.6150299369
27.6437823697
27.9142944383
28.3949199567
29.0705205603
29.8330611869
30.5986503097
31.3134352118
31.9779145667
32.6164913475
33.2311353345
33.7919521313
34.2532303883
34.5734876226
34.7318314969
34.7314053882
34.58769271
34.3098186746
33.8875401513
33.2887336828
32.4634242946
31.3581249048
29.9500849025
28.2872570968
26.4918667699
24.6909227539
22.9205251795
21.197652185
19.7647273624
18.9678197883
18.8421179967
19.0398678726
19.1731307044
19.0173328942
19.8166249249
25.5046711314
26.7396604571
26.3061065213
26.5191300037
27.1752183656
26.5095859996
25.2884911705
25.0039060422
26.0632764338
27.4105986573
27.3897828123
26.871587259
25.8991625033
24.5479963119
10.9569319612
9.5773992371
10.1708140463
13.4832612114
9.66423061106
9.69267627672
9.58009230307
9.86529004144
12.7583818715
11.5799482564
14.9881383428
15.2141520446
14.7359212957
12.5633465721
12.3319065998
13.8716768115
14.4214596621
14.4749007681
14.96581219
15.845711408
16.8016901369
17.9035760377
18.9833091234
20.8030326686
22.9420054562
22.7709672409
24.6688905406
26.0934952678
26.9725269138
27.8033679005
27.5410583281
27.7889994541
27.4089185442
27.847444046
28.562184948
29.2962888471
30.0544825103
30.8259253395
31.5743214843
32.2850037199
32.9614623206
33.5978906911
34.1693792409
34.6391150723
34.9729169272
35.1551436293
35.1927886797
35.1015450559
34.8879388869
34.5398110355
34.0238182998
33.2898497143
32.2941501922
31.0417806728
29.6104032345
28.1028558489
26.5211899493
24.7326567248
22.8873376406
21.6196033524
21.3206252707
21.696900412
22.0600034026
22.0290797869
21.5754245492
20.1773905033
19.4881984281
28.7858907998
31.1411456213
31.5764924385
30.8715719022
28.9426892095
27.623205688
27.7238826712
28.9895173335
29.5498463734
29.5295126067
29.4055061714
29.8506465873
30.0937405254
11.0489680731
10.4801347567
13.4859395004
13.733523609
9.89203841829
10.4834336665
10.3365802985
10.7729654798
12.3852775257
14.9622954863
15.8641744752
15.5321861633
15.0346669431
12.6666243534
12.5047962757
14.3495218925
14.5419551333
14.4648142569
14.9806416436
15.9567685856
17.1187162375
18.2443093741
19.1353661896
20.432718025
23.0868273294
24.4009438913
24.3691457835
26.1801155245
26.0579076368
27.8041655879
28.38035955
27.7682512463
27.4002008445
27.9554432482
28.7555572982
29.5312982702
30.2995689073
31.0787057598
31.8523534566
32.6087657358
33.3333256752
34.0032418037
34.5946898686
35.0800797967
35.433570799
35.6463503226
35.7298706513
35.7002866321
35.5626710236
35.3052861412
34.8978702856
34.2977226138
33.4804363248
32.4806920776
31.37766185
30.1700862076
28.640385381
26.6522642743
24.8794682765
24.2380745352
24.8102126126
25.7229802182
26.1654352487
25.9431740894
25.0520775018
23.2848474614
20.8192269119
20.7887820021
32.8501509287
37.4260329226
35.4785697517
32.2322574641
30.6155365829
30.6797360565
31.6124682637
32.3860319588
33.1485969415
33.9742685283
34.7315013654
35.4861165201
11.4991862267
11.3988730297
15.1565563677
14.5323108456
12.7602528354
11.7407187365
11.3261758642
12.2134426038
11.9738159301
15.9391316485
16.5699876738
15.9322404292
15.2086829974
13.3576593047
13.2614613852
14.7907684215
14.5937458306
14.5615131317
15.0853231465
15.9820808745
17.2340723133
18.6819602507
20.4050519858
20.5266531243
22.5933282951
24.7346991966
24.2931498718
26.3850234418
27.4365271349
27.1401177629
27.629656859
27.3092326175
27.6679715453
28.2613998817
29.0037556473
29.7871838838
30.5716239426
31.3641906429
32.1547122781
32.9468107032
33.7271660779
34.4483200826
35.0707531957
35.5779990242
35.9588756303
36.2120129416
36.3514848488
36.3931172223
36.3425251556
36.1925887561
35.9226854552
35.5093891243
34.958422776
34.3194370323
33.599903484
32.5674926071
30.9329169234
29.0101270039
27.7285199539
28.233078186
30.3533815398
31.8630497275
32.3925737886
32.1057404258
31.0494189343
28.9315935359
25.6849732436
21.1724891297
28.4744118817
38.6680840442
40.8809921165
36.9109496661
34.6938549972
34.235934079
34.9762091128
36.1073495708
37.9281524607
39.2268628448
39.3731682848
39.7109289128
12.1633240682
12.0863861751
14.962737644
15.0871975008
15.1321378573
12.9399229981
12.4437526418
14.9867624614
12.4332929191
16.8072094856
17.1103158179
16.3396271649
15.3746724336
14.0264305815
15.6834900626
15.8247007103
14.82689023
14.7967287802
15.3253590481
16.1020089057
17.1730607383
18.6662954221
21.5762018474
22.5711258787
22.1210611882
24.7561678968
25.8542021652
25.9789977891
27.3793229803
28.0263250503
27.9096242969
27.353041663
27.8615876509
28.5747639866
29.3061265139
30.0766611852
30.8636601302
31.6804377033
32.5027273461
33.3179119503
34.1395951188
34.921976723
35.5960708066
36.1371502172
36.5536768016
36.8589206543
37.0669283677
37.1894089677
37.2339153759
37.2041309022
37.100428685
36.9358543426
36.7518089121
36.5635732706
36.1675777033
35.0843612423
33.8526625468
33.2524248472
32.2301012274
34.0321927768
34.9951809276
34.4418145448
32.7480265005
30.8050491754
27.6624148068
23.8576784365
20.3789093094
12.4912989593
11.9357338785
30.1631791348
38.0487622418
36.859423875
32.7602616148
31.5193373104
33.847842615
38.8799712469
43.0031375018
44.7070518479
44.9165502843
45.2224648562
12.8805676731
12.8251084589
12.4747180999
15.4571125782
15.7172086605
13.7743887512
13.4429655092
16.0221081623
13.1554966805
17.7142864382
17.6036996044
16.7603976807
15.6387803529
14.3839653012
16.8229327007
16.4630292492
15.3185125914
15.2145607036
15.6756096732
16.3920416401
17.2337816178
18.528432865
22.031501978
23.6246162782
22.4490193919
24.7269689855
26.3304690142
25.5737882138
26.9837912252
27.6431397667
27.1914678624
27.6777457078
28.2799796096
28.9391877463
29.6409283662
30.4146371307
31.2056037945
32.0135856053
32.8704276245
33.7371046529
34.5956925232
35.4264509142
36.1604607295
36.7542543612
37.22249268
37.5952735942
37.8858231737
38.0960501705
38.2382130955
38.3342226404
38.4175902776
38.5669498438
38.8498573545
39.1407586533
38.7916828518
37.6442559432
38.1515949166
32.3342231273
26.5109355496
18.271149977
0.000347177219486
7.0503873014e-08
2.44191697933e-10
2.49143387779e-11
1.97710031104e-12
5.56909268155e-13
6.55524111527e-12
6.69783772061e-11
7.56591498256e-10
1.97614714773e-09
3.28154636403e-06
0.000861389862498
0.786031859405
34.6962192554
42.6268743249
42.3029257971
45.0395715675
49.4492731375
51.6846147349
52.066579755
13.7754903988
13.873916412
16.1112385715
16.1484870177
16.2211148361
14.4878171015
14.5090472829
16.9260430311
14.2084415736
18.5135005164
18.0822809566
17.2071440191
15.984459775
14.8054744751
17.136293309
16.7324528734
15.8025121493
15.6955460356
16.0724608944
16.709558959
17.4708561641
18.508110494
21.4939459678
24.4133030503
24.6513280273
24.1548839398
26.5091146122
27.4826522984
26.0662328745
26.3819720985
27.1260103226
27.8987831825
28.6254909361
29.3170548759
30.0298381796
30.7823324332
31.5811386875
32.4113822667
33.2676736735
34.1782923741
35.0982483501
35.9796455575
36.7670741279
37.4218434874
37.9634774157
38.4260582846
38.8160963963
39.1237202344
39.3555169777
39.5575948645
39.8398893692
40.3635163258
41.1794499127
41.8253081067
41.0435519288
37.9376624242
25.0035782277
8.2808290099e-14
9.10805318785e-17
1.70743437293e-18
2.8942182702e-20
8.3736915468e-23
2.37962035026e-25
4.11907778633e-30
3.22195486549e-30
7.82216551182e-30
5.27275799992e-29
2.46973040899e-28
9.1231964589e-28
5.7976487767e-27
4.53942957105e-27
3.93820195709e-25
2.24149494657e-22
2.25318071642e-20
1.70978354385e-18
3.9372183488e-16
6.62757743204e-12
47.663473956
56.5459189699
55.1489229465
14.6201592079
14.8142361068
17.7470918451
16.8795650078
16.4220168148
15.1984132097
15.5359504858
17.7080711899
17.6860918577
19.5112200496
18.6315539005
17.7510248531
16.4201099625
15.3662045255
17.4688417957
16.9304836848
16.2560402368
16.1805717204
16.4799406906
17.0293021741
17.7473440743
18.7132044408
21.0129315496
24.6495610529
25.9688757287
23.9580106212
25.988695997
27.5635281129
27.6202514385
26.7492401746
27.1787634368
28.0955825756
28.9650144648
29.7318138891
30.4196527274
31.1805857899
31.981881654
32.8371394996
33.7213743366
34.6566610339
35.6357472435
36.5854257151
37.424450037
38.1304461123
38.7596622478
39.3635812621
39.8993116089
40.2946044945
40.5492707012
40.8266794715
41.3376311128
42.2556948203
43.6260461033
44.3901330238
34.9435941983
10.8601489927
4.57922120031e-20
1.85436359996e-22
5.36251935011e-24
7.80684518081e-26
6.34289673507e-29
1.05837310521e-31
7.46052059083e-33
0
0
0
0
0
0
0
0
1.03763118613e-36
3.49971517648e-34
5.23482794461e-32
3.03707953274e-29
4.24205475665e-26
2.29718106942e-21
3.48854676891e-17
2.71980468454e-10
61.7819159337
15.309136411
15.5249282505
19.8560360915
17.4551244571
16.385953464
15.8224304446
16.278953566
17.8384620303
19.2689511182
20.6483092762
19.3353928033
18.4307980924
17.1049527026
16.2096184254
18.0063486915
17.2752287493
16.7805344404
16.7089276715
16.924959486
17.3856144573
18.0280451119
18.9207644085
20.8085636142
24.505251449
26.9318568569
26.3049622468
25.4829018703
26.9151660262
27.4248242927
26.8324878116
27.5889316674
28.5222082404
29.4373104718
30.1949266248
30.9062691326
31.6181621944
32.4329753691
33.2946891326
34.2141061871
35.1851714958
36.2062852367
37.228349555
38.1552437415
38.9155154356
39.6304547052
40.3997108716
41.1104572314
41.5774595494
41.8234471681
42.1526264495
42.8733545393
44.1259832813
45.7497114406
34.808675245
3.2710409655
6.62966257704e-23
2.17424066421e-26
8.79173127504e-28
1.19872609333e-29
3.28723272707e-32
0
0
0
0
0
0
0
0
0
0
0
0
0
1.3369876648e-35
1.32858800837e-34
2.91255277797e-33
1.41225656717e-31
7.84258477824e-28
6.52788215703e-19
1.25835465438e-23
15.8410994302
16.0483807685
21.8756319069
17.8969305313
16.5733448263
16.3925623524
17.0795398917
17.3102387098
20.20631902
21.4621898101
20.0109613653
19.1219509272
17.9785668028
18.0298926662
18.7583929288
17.8588965718
17.4964384791
17.4266903345
17.4770778055
17.8270470434
18.3606904961
19.1704768804
20.7830606007
24.3324454734
27.318732671
27.9074718013
25.4227550443
25.9564341472
26.3437214908
26.9173379788
27.874768907
28.9718207785
29.9011850608
30.7047958098
31.4421970254
32.2104136965
32.949956344
33.8149428455
34.7508654693
35.7432109441
36.8386037215
37.9469198577
38.9489968677
39.718107177
40.4662395801
41.7420044711
43.3061288092
43.956894525
43.5089251327
43.6831513688
44.5177800428
45.8520233413
34.0985492936
3.50829886196e-17
5.28746595407e-22
2.3720403609e-33
2.39697617006e-30
3.91120454442e-32
0
0
0
0
0
0
0
0
0
0
0
0
0
0
0
0
0
0
2.06560402556e-34
1.39879292861e-33
2.57949013295e-31
97.8358687931
16.2908538068
16.4645054068
21.741734502
17.4164369395
16.8157691861
16.8811344363
17.9819993283
17.3725922549
21.0046532455
22.2119866225
20.6447578157
19.7567076008
18.6601635282
20.1707724702
19.7882402958
18.6413579956
18.3185071816
18.4788848585
18.2487648045
18.4360071852
18.79144135
19.4674883761
20.8950146894
24.1485405752
27.1660286593
28.9721297091
27.891872558
27.1494678226
27.1176412748
27.1162143515
28.1271096592
29.5288683561
30.3422947607
31.2267324103
32.1769181233
32.8130405982
33.5552187785
34.4317251039
35.3932199666
36.4040526718
37.4861076591
38.6639666604
39.8049242797
40.8917292901
42.082179834
43.685700682
45.089083801
45.4351502471
45.5638015163
45.9938174173
46.8365346745
37.5735636893
1.59543743152e-16
1.45631577704e-21
1.91406854981e-25
2.59967196378e-27
0
0
0
0
0
0
0
0
0
0
0
0
0
0
0
0
0
0
0
0
0
0
6.35583028748e-34
4.62611409561e-23
16.7935075845
16.9428443543
21.4096237339
17.1440122324
17.1237344034
17.2765056512
18.7581759643
17.8618414383
21.7098259763
22.9460325018
21.2672311378
20.3813664266
19.2238511254
20.9449270075
20.7372414724
19.483123408
19.1250623989
19.3805309544
19.1675858721
19.2607836712
19.41571144
19.8234107041
21.1663642417
24.0991625966
26.8589956969
29.2524682013
29.0508430295
27.7374448259
26.7244392329
27.567885998
28.5706695318
29.9421452144
31.0939949569
32.1167498995
32.989840554
33.5285805634
34.2453828779
35.1350828168
36.1205833044
37.1739287476
38.2799840509
39.5434067423
40.9677127446
42.5517489865
43.7456315523
44.5550121779
45.6584874599
46.6262538903
48.1485607323
49.5433924197
42.6076519414
1.45375375886e-15
1.93030745712e-21
3.32871624331e-25
6.82736843526e-28
1.65303722989e-29
5.54868487523e-32
0
0
0
0
0
0
0
0
0
0
0
0
0
0
0
0
0
0
0
0
0
1.0681186563e-34
1.41321854202e-34
17.5283110124
17.6770782323
21.1268342617
17.4475730047
17.6783589782
17.7632399574
18.8100871711
18.5834849023
22.2312882484
23.6435924299
21.9164792247
21.0461562296
19.8921944802
21.6397054327
21.5822712713
20.3959439969
19.9767619321
20.2517589869
20.0640622789
20.2258932031
20.2994506122
20.3343421948
21.6303515043
24.2520807289
26.6979737656
29.2988866481
29.5921531605
28.5350649674
27.2481004756
27.7718414752
29.1049764693
30.1244332831
31.1748128827
32.3861286984
33.8774796436
34.5430148454
35.1800787103
35.9505874333
36.9047369486
38.0328921665
39.2501730212
40.6458542208
42.6143136915
44.36498434
44.9658972776
45.6652523377
47.3013989893
50.5573540381
54.9446261007
46.6004904826
4.1534197645e-16
6.89955947095e-23
2.85519905278e-27
9.36126065386e-31
5.87368902912e-33
1.19054916567e-32
1.82823926289e-33
0
0
0
0
0
0
0
0
0
0
0
0
0
0
0
0
0
0
0
0
0
7.89477846189e-36
3.58478692053e-35
18.6360976641
18.7483507959
21.4522530039
18.3778203877
18.8139324077
18.6117765552
19.1532615898
19.8659199822
22.3308334599
24.1772093987
22.6211055431
21.7737071091
20.6591519239
22.4293829235
22.4507455092
21.4584719489
20.9972247367
21.2572653247
20.9671766939
21.2816177904
21.4784755377
21.0581466575
22.1775004968
24.6125032126
26.7387098517
29.1432854642
29.824673975
29.2211170127
29.1231660656
28.5981052872
29.4569873611
30.8142614862
32.4019945477
32.9690112533
34.1835895918
35.5405883956
36.2376667583
37.0602891039
37.9260045686
38.9814032765
40.3331503594
42.3680560074
44.8873825668
45.9814916916
46.1890558962
47.5695205262
51.8137714035
58.908365461
52.8548577621
22.6163874935
1.04532050357e-24
9.7594922211e-30
6.67776630112e-32
0
0
0
0
0
0
0
0
0
0
0
0
0
0
0
0
0
0
0
0
0
0
0
0
0
0
0
20.1816166584
20.0753258158
22.2913834645
20.2193079035
20.7188043834
19.8583422209
20.0965431997
21.7121268763
22.5857240129
24.808067065
23.4315326216
22.5736172105
21.4994405778
23.2545512817
23.314129021
22.6242509459
22.4693784257
22.5635996152
21.9630340104
22.4241611439
22.9406452067
22.0755180023
22.6173997577
25.0663911965
26.9893137599
29.0158915821
29.9702199491
29.3983564488
30.2887177518
30.1413355374
30.4574061728
30.5953224804
32.2125113522
34.1035563983
35.1213878848
36.3004867875
37.2948395058
38.1594140972
39.149126191
40.2282339521
41.9431203341
44.9040632787
47.1387603826
47.7694806592
48.5586787189
51.8991302232
59.0583305035
55.8396292724
31.8370169527
9.32862127183e-27
1.63083989415e-29
7.46740793787e-32
0
0
0
0
0
0
0
0
0
0
0
0
0
0
0
0
0
0
0
0
0
0
0
0
0
0
0
0
21.8104363174
21.3179590123
23.1862813448
22.6477458892
22.3959474297
21.2881615214
21.1238910197
22.829371743
21.9213983484
25.3039654674
24.3298702772
23.4371979906
22.401784778
24.0859933276
24.1139590611
23.5994057421
24.4671454601
24.1262463807
23.0714235494
23.6684217138
24.2532503775
23.3647363037
22.8161397181
25.063236377
27.1583522743
28.9210318795
30.0131439603
29.4665747645
30.6796217842
31.4030323844
31.828687565
31.3581016354
32.3865228773
34.0703128484
36.0127187585
37.4977469846
38.5760982469
39.4214986437
40.3986380339
41.8325670221
44.5992036766
47.7845314176
49.5987491702
50.6597973643
53.0000546108
57.8553989116
54.4191711965
31.2949144007
2.51181208597e-26
3.63637793889e-29
1.27352970604e-31
0
0
0
0
0
0
0
0
0
0
0
0
0
0
0
0
0
0
0
0
0
0
0
0
0
0
0
0
0
22.612054507
22.1722951025
23.7477700457
23.6773746023
23.4361953896
22.6243217487
22.2818471057
24.1683638675
22.9507514293
25.9294672059
25.2368272167
24.336312629
23.3605362776
24.937296415
24.9112979011
24.4072350494
25.4301136254
25.2260986584
24.1271612311
24.8705389118
24.9917615938
24.1767473455
23.7777013952
24.0101976432
26.6159402513
28.3804704048
29.7590980893
29.3908441672
30.7211729508
31.9364891609
32.9562893034
33.0956132263
32.7973014831
34.1231912132
36.2356428541
38.3587043964
39.9702327166
41.0697073903
42.0387259091
44.387975934
47.9056722499
50.7975079059
52.4493983819
54.4263219544
58.3879276
55.0901113432
29.2441656198
15.1033218944
1.19532036883e-28
3.40433429329e-31
0
0
0
0
0
0
0
0
0
0
0
0
0
0
0
0
0
0
0
0
0
0
0
0
0
0
0
0
0
0
22.6835405518
22.6805934794
24.0682550291
23.8777702135
24.0761382733
23.6451263107
23.2779799544
25.4828145174
24.5827287566
26.7167464562
26.1923097285
25.2557402883
24.3707736851
25.8237259948
25.765803073
25.3286470499
26.2266645515
26.1732922634
25.2108100556
25.8720032008
24.9098139886
24.9129751092
24.77556195
25.0266400672
25.8259900677
26.9098832047
28.8449883644
29.0809333593
30.2720022069
31.9255894678
33.3823588361
34.4177685296
34.2834878212
34.8946576285
36.4493630613
38.5690108266
40.8879882929
42.7858262578
44.4138551677
47.6900662274
51.259346711
53.7008329219
55.0820296471
57.0229574322
52.7579442944
34.8334668845
37.458967532
4.15201189603e-28
9.3008950502e-31
0
0
0
0
0
0
0
0
0
0
0
0
0
0
0
0
0
0
0
0
0
0
0
0
0
0
0
0
0
0
0
22.8874504222
23.0145477198
24.3222143442
23.0217148426
24.3284231887
24.1882487187
23.9274741689
26.0757790084
25.4042929116
27.4978758907
27.1656160236
26.1622950588
25.4374046112
26.7324233253
26.6532551851
26.3761673918
27.1203068243
27.2294925681
26.421565117
27.2503755574
26.2247562608
26.4749448023
26.0078214268
26.3115798108
27.5417427783
28.1727775097
28.3956082184
28.6852372218
29.7508028239
31.7715798198
33.2912327571
34.6111041081
35.5014467679
35.9533841809
37.6616898967
39.2679972424
41.6237705952
44.36203328
47.3312441998
51.2380725092
54.4667277231
56.2092179489
55.9529333571
53.1679883822
51.1265781756
31.89459055
3.48406201639e-27
7.93163766515e-30
0
0
0
0
0
0
0
0
0
0
0
0
0
0
0
0
0
0
0
0
0
0
0
0
0
0
0
0
0
0
0
0
23.516512931
23.6084752628
24.5846809289
23.3666083561
24.535723005
24.4638583942
24.3580190433
26.2554172116
25.9510427109
28.0602434697
28.0964909599
26.9954354686
26.5449291574
27.6134411428
27.4885780652
27.3818081711
27.9777109335
28.3625267274
27.6787072559
28.6541850479
27.9604458457
28.4541130371
28.3104082364
27.3266385412
28.3276420664
29.2387423358
29.4465133098
28.3908498665
29.1508020683
31.5511329433
33.3117522085
34.2242654815
35.2766854467
36.2056736784
38.0076369002
39.8939338941
42.4558772045
45.9409179574
50.4292391397
54.8947086966
57.4637849221
57.852258755
55.7403456068
50.7063249429
32.2681898046
38.6860241558
5.52707693983e-29
2.24124198729e-31
0
0
0
0
0
0
0
0
0
0
0
0
0
0
0
0
0
0
0
0
0
0
0
0
0
0
0
0
0
0
0
0
24.3169381542
25.3115976457
24.9796022951
24.2319525043
24.9952359605
24.7786614309
24.7528505824
26.3862159523
26.4299466736
28.2733177333
28.9742602542
27.7141675462
27.5063668357
28.3166314814
28.2476609063
28.1276944782
28.3064162302
29.3754353943
28.9775464426
29.8696593379
29.8156616349
29.7710671496
29.6911991963
29.3562762614
28.7174409384
29.3970269271
30.281140918
27.8459062696
28.4909558451
30.7564732071
33.213980136
34.5793811186
35.7368523066
36.0694848003
37.746885753
40.0275847632
42.9256109122
47.3945881123
53.5313144995
58.4335897097
60.0034471071
56.5684515248
54.7232818428
55.4804065054
37.4202867074
3.74630288693e-28
9.56146605286e-31
0
0
0
0
0
0
0
0
0
0
0
0
0
0
0
0
0
0
0
0
0
0
0
0
0
0
0
0
0
0
0
0
0
24.8831745342
25.9218927882
25.5745825463
24.9854882702
25.5808596897
25.2374840465
25.1914746235
26.5711167345
26.8746543534
28.2119614998
29.7270153628
28.3692500685
28.0594627834
28.8633742893
29.0287961241
28.7686242961
28.5432852186
30.0808518608
30.2761760627
30.9136814033
31.0940530324
31.3315290494
30.3353735751
30.3678044296
29.9155624437
30.882444176
31.487014041
29.2557456369
27.8375878661
29.558525228
32.2907989099
34.5078208747
35.8373559331
36.4028863792
37.1898896402
39.540315593
42.718284041
48.4592721241
56.4834231816
62.0167014182