/*--------------------------------*- C++ -*----------------------------------*\
| =========                 |                                                 |
| \\      /  F ield         | OpenFOAM: The Open Source CFD Toolbox           |
|  \\    /   O peration     | Version:  v1806                                 |
|   \\  /    A nd           | Web:      www.OpenFOAM.com                      |
|    \\/     M anipulation  |                                                 |
\*---------------------------------------------------------------------------*/
FoamFile
{
    version     2.0;
    format      ascii;
    class       volVectorField;
    location    "915";
    object      Ua;
}
// * * * * * * * * * * * * * * * * * * * * * * * * * * * * * * * * * * * * * //

dimensions      [0 1 -1 0 0 0 0];


internalField   nonuniform List<vector> 
6400
(
(2.55954482784e-05 3.38301679432e-05 0)
(6.84395715827e-05 2.49840257005e-05 0)
(9.95490842754e-05 1.99743039346e-05 0)
(0.000132481028469 1.79837918869e-05 0)
(0.000158176449968 1.31362369399e-05 0)
(0.000178516781424 9.55327968816e-06 0)
(0.000193167958641 8.55829511063e-06 0)
(0.000207625789574 1.12867226253e-05 0)
(0.000234241929982 1.46055877983e-05 0)
(0.000261969969038 1.48658299132e-05 0)
(0.000281147393189 1.43243933282e-05 0)
(0.000308724043762 1.52908540778e-05 0)
(0.000336440765063 1.53819618142e-05 0)
(0.000362742555272 1.49800361457e-05 0)
(0.000387616920488 1.5260959837e-05 0)
(0.000414471920399 1.67689991547e-05 0)
(0.000445053668439 1.77166829622e-05 0)
(0.000475378469091 1.76589296109e-05 0)
(0.000504449188052 1.74337428858e-05 0)
(0.000535204565343 1.81027900514e-05 0)
(0.0005706338502 2.06076709423e-05 0)
(0.000609886238963 2.2879337652e-05 0)
(0.00065046002124 2.35704140909e-05 0)
(0.000690149830179 2.35563719419e-05 0)
(0.000729483600696 2.33156421313e-05 0)
(0.000769203673474 2.31182020941e-05 0)
(0.000809900009046 2.33470492007e-05 0)
(0.000850677158757 2.34843457657e-05 0)
(0.000890813638858 2.33857117091e-05 0)
(0.000930350007902 2.33627810327e-05 0)
(0.000969296311872 2.36656148339e-05 0)
(0.00100923225111 2.38462662889e-05 0)
(0.0010503470177 2.38802694876e-05 0)
(0.001091443928 2.44715518096e-05 0)
(0.00113322662482 2.49792906177e-05 0)
(0.00117741543319 2.529531041e-05 0)
(0.00122043872729 2.55368192917e-05 0)
(0.00125928056105 2.51033452133e-05 0)
(0.00130091318623 2.4315614983e-05 0)
(0.00134437432491 2.36745761447e-05 0)
(0.00138343877939 2.35585365148e-05 0)
(0.00141637613921 2.25398885816e-05 0)
(0.00144687464074 2.00609931975e-05 0)
(0.00147638594793 1.81938498576e-05 0)
(0.00150353501507 1.71014153746e-05 0)
(0.00152822008543 1.59208676604e-05 0)
(0.00155022558126 1.46081755644e-05 0)
(0.00156907306332 1.30091900928e-05 0)
(0.00158474136509 1.13847511246e-05 0)
(0.00159703598998 1.06335624584e-05 0)
(0.00160712740236 1.09351399673e-05 0)
(0.00161759305642 9.94982024397e-06 0)
(0.00162412454082 6.01166850316e-06 0)
(0.00162801676941 3.35713125083e-06 0)
(0.00162289149654 7.50776328096e-07 0)
(0.00160396304949 -3.11906923318e-06 0)
(0.00158393193817 -2.79367020195e-06 0)
(0.00157460759702 -4.57415649202e-07 0)
(0.00156701127857 -1.50922212206e-06 0)
(0.00154366706697 -2.31925005859e-06 0)
(0.00152294316842 1.06956032469e-06 0)
(0.00151039260337 -4.73439675035e-07 0)
(0.00153685691051 -1.2892987211e-05 0)
(0.00151862780157 -3.58981769222e-05 0)
(0.00134636221986 -4.40272028841e-05 0)
(0.00119734181765 -3.70660870241e-05 0)
(0.00112210442425 -3.89892481722e-05 0)
(0.00106911636853 -4.04722243864e-05 0)
(0.0010129186966 -4.35529018351e-05 0)
(0.000925306184213 -4.87270057043e-05 0)
(0.000827920841265 -5.23712239445e-05 0)
(0.000709954845971 -5.27327119319e-05 0)
(0.000594441014418 -5.33878813439e-05 0)
(0.000516213638459 -5.75194438638e-05 0)
(0.000376817461512 -4.5293268209e-05 0)
(0.000323423200424 -3.91648146593e-05 0)
(0.000208895666025 -2.3788346592e-05 0)
(0.00021347795248 -3.19348007006e-05 0)
(9.03802984819e-05 -2.20490137524e-05 0)
(6.73593405055e-05 -4.03433772592e-05 0)
(9.98529701446e-06 4.81872067847e-05 0)
(4.25843317454e-05 5.3196430639e-05 0)
(7.38380670993e-05 4.74501214914e-05 0)
(9.52371140361e-05 3.89184871395e-05 0)
(0.000135113320305 3.8641212788e-05 0)
(0.000170043554003 2.96244901709e-05 0)
(0.000193066230501 2.33581146649e-05 0)
(0.000212800164754 2.97042790567e-05 0)
(0.000234987921557 3.65963487626e-05 0)
(0.000259604095249 3.75380312274e-05 0)
(0.000284232858008 3.72139868337e-05 0)
(0.000308672918855 3.79058115622e-05 0)
(0.00033349546199 3.76262245736e-05 0)
(0.000358541299362 3.71273772187e-05 0)
(0.000385058036586 3.84260293025e-05 0)
(0.000413008463194 4.35002707242e-05 0)
(0.000442564988256 4.69812846646e-05 0)
(0.00047149360137 4.46202083091e-05 0)
(0.000494101296849 4.30785858363e-05 0)
(0.00052695400255 4.63131362883e-05 0)
(0.0005656197954 5.31363441485e-05 0)
(0.000606437661564 5.96976667364e-05 0)
(0.000648723536023 6.13030735848e-05 0)
(0.000689149606317 5.97044561246e-05 0)
(0.000725778423427 5.86346901501e-05 0)
(0.000766805185712 5.89349096443e-05 0)
(0.000808225000968 5.91436509558e-05 0)
(0.000848419373089 5.8891453588e-05 0)
(0.000888311791692 5.85602259442e-05 0)
(0.000928317248893 5.85035187861e-05 0)
(0.000967997341788 5.89881216264e-05 0)
(0.0010063218258 5.91444328268e-05 0)
(0.00104752769419 5.88679037592e-05 0)
(0.00108861399022 6.05435759026e-05 0)
(0.00112991893978 6.25169283158e-05 0)
(0.00117642496834 6.24456698129e-05 0)
(0.00121864226131 6.23389146841e-05 0)
(0.00125760550662 6.18209983985e-05 0)
(0.00130086870474 5.98819685734e-05 0)
(0.00134740655423 5.67839173771e-05 0)
(0.00138717514953 5.1967507331e-05 0)
(0.00140765506435 4.64910068277e-05 0)
(0.00143120646724 4.26115592482e-05 0)
(0.00146249307973 3.99732704117e-05 0)
(0.00149085615446 3.72460731851e-05 0)
(0.00151769576338 3.39671081792e-05 0)
(0.00154249130084 3.00003719468e-05 0)
(0.0015632598776 2.54625102397e-05 0)
(0.00158270866269 2.06932928768e-05 0)
(0.00159844612487 1.61994623718e-05 0)
(0.00160677814594 1.2494673046e-05 0)
(0.00160434157641 9.04632902054e-06 0)
(0.00160499032964 5.06647217619e-06 0)
(0.00162802049962 -2.04022963577e-06 0)
(0.00161904030942 -1.33656523664e-05 0)
(0.00160542437498 -2.14793686266e-05 0)
(0.00160310887844 -2.18391987967e-05 0)
(0.00159381724899 -2.06988215895e-05 0)
(0.00157917052466 -2.41777238924e-05 0)
(0.00156502394948 -2.79306826943e-05 0)
(0.00154732252641 -2.93739717447e-05 0)
(0.00150290034318 -3.47702675961e-05 0)
(0.00152672418941 -6.9401431744e-05 0)
(0.00148756785154 -0.000135762502902 0)
(0.00133802423444 -0.000169982281599 0)
(0.00113754292218 -0.000143844861461 0)
(0.00103071707496 -0.000111225682313 0)
(0.00102348572186 -0.00010555359076 0)
(0.000972975259105 -0.000122683737976 0)
(0.000907733568462 -0.000150215676271 0)
(0.000801204947697 -0.000168278228034 0)
(0.00067929566507 -0.000167887115634 0)
(0.000549981587925 -0.000147041886987 0)
(0.000488965988553 -0.000142243133707 0)
(0.000409603695242 -0.000130070298237 0)
(0.000340272816272 -0.000115796867913 0)
(0.000271658736959 -9.63090805585e-05 0)
(0.000210847411853 -9.58092346467e-05 0)
(0.000128656640701 -9.89355142518e-05 0)
(5.92257347699e-05 -0.000159077731148 0)
(1.35007389847e-05 8.29417205199e-05 0)
(3.92238265969e-05 8.81801888407e-05 0)
(6.14196584017e-05 8.20718885981e-05 6.93323482064e-29)
(0.000101266904231 8.16979364096e-05 -6.28085109176e-29)
(0.000138302470886 8.0314130999e-05 -5.4076793368e-29)
(0.000163761269545 6.78904649344e-05 4.88407636454e-29)
(0.000184190207356 4.69722257568e-05 -4.83966655817e-29)
(0.00020429724655 5.20231263269e-05 4.61392489662e-29)
(0.000227138374923 6.1475195224e-05 0)
(0.000252460890024 6.41380988814e-05 0)
(0.00027812033685 6.37283757009e-05 0)
(0.000302884494456 6.30217917344e-05 0)
(0.000327329047587 6.25039869383e-05 0)
(0.000351854328787 6.36457360262e-05 0)
(0.000378690442793 6.73325840861e-05 0)
(0.000407003940847 7.0268863444e-05 0)
(0.000407795808587 6.66317434069e-05 0)
(0.000420211922033 6.51641640436e-05 0)
(0.00045229633614 7.22065111715e-05 0)
(0.000497643442609 8.64391607792e-05 0)
(0.000560574991729 0.00010059378182 0)
(0.000606266830559 0.000104776756733 0)
(0.000641439362907 0.000102993751963 0)
(0.000681394222025 0.000100989935258 0)
(0.000722738888662 0.000100415856782 0)
(0.000762436923747 0.000100677057008 0)
(0.000802297502573 0.000100555652965 0)
(0.000842743804198 0.000100253465702 0)
(0.00088308144709 0.000100087422462 0)
(0.000923099378941 0.000100221027389 7.6908272799e-29)
(0.000963770032119 0.000100488760414 -7.41125456945e-29)
(0.00100083074156 0.000100534404529 0)
(0.00104185457687 0.000101069893369 0)
(0.00108745909422 0.000102853943654 0)
(0.00112257719044 0.000106360502446 0)
(0.00116977658619 0.000108700635856 0)
(0.001219339599 0.000107263037481 0)
(0.00125454312552 0.000105620908124 0)
(0.00129858244151 0.000104646523335 0)
(0.00134568810712 9.92860300788e-05 0)
(0.00138566787435 8.8426114965e-05 0)
(0.00141821867756 7.85506500355e-05 0)
(0.00144844895656 7.37992508803e-05 0)
(0.00147805911762 7.04593388803e-05 0)
(0.00150542707412 6.5970683753e-05 0)
(0.00153007209586 6.04591115669e-05 0)
(0.00155206459547 5.39009790887e-05 0)
(0.00157137112514 4.67341843071e-05 0)
(0.00158806897869 3.90049079863e-05 0)
(0.00160184308624 3.03605284286e-05 0)
(0.0016122132538 2.16769576057e-05 0)
(0.00161950320463 1.54324744554e-05 0)
(0.00162472193742 1.12549360249e-05 0)
(0.001622942119 2.76804136972e-07 0)
(0.00161369610677 -1.5127483753e-05 0)
(0.00161135319129 -2.39966652288e-05 0)
(0.0016064799263 -2.77272493739e-05 0)
(0.00159497393683 -3.1489594844e-05 0)
(0.0015797521033 -3.64807537529e-05 0)
(0.00156225335731 -4.25645273227e-05 0)
(0.00153801189188 -5.20344764705e-05 0)
(0.00151788997073 -7.16844871472e-05 0)
(0.00149195612574 -0.000144435515138 0)
(0.00137816860278 -0.000250634233298 0)
(0.00117211923882 -0.000266799560082 0)
(0.00107232570808 -0.00022568458853 0)
(0.00103167331186 -0.000185209920535 0)
(0.000965909240722 -0.000173300993071 0)
(0.000897821044327 -0.000201037881053 0)
(0.000815358369868 -0.000240974500578 0)
(0.000711796893357 -0.000260241759166 0)
(0.00061471248588 -0.000250180285338 0)
(0.000552740713437 -0.000232725509701 0)
(0.000490381650367 -0.000225216922405 0)
(0.00040780452053 -0.000215268274085 0)
(0.000324421201775 -0.000193677573567 0)
(0.000248501716789 -0.000169082096127 0)
(0.000187657174216 -0.000175125576356 0)
(0.000128921437342 -0.000221986318459 0)
(3.26609357583e-05 -0.00021687826956 0)
(1.2240755194e-05 0.000119038107118 0)
(1.95546678581e-05 8.51709242079e-05 0)
(4.78714673044e-05 0.000120341522007 0)
(8.35718593896e-05 0.000119438358529 0)
(0.000118505752085 0.000105531216347 0)
(7.74789756056e-05 4.93613144386e-05 0)
(9.9881304526e-05 5.41319868737e-05 0)
(0.000175429708767 9.15049761616e-05 0)
(0.000210995902002 9.59663071624e-05 0)
(0.000240013341401 9.25886742728e-05 0)
(0.000267914620269 9.05040760087e-05 0)
(0.000293892116855 8.81753133815e-05 0)
(0.000318713096835 8.72721201197e-05 0)
(0.000341359054433 8.63811497678e-05 0)
(0.000348750367604 8.19595671068e-05 0)
(0.000355391274924 7.87350038114e-05 0)
(0.000374620335182 8.20607573048e-05 0)
(0.000411835874636 9.71012918739e-05 0)
(0.000468891185689 0.000120620484632 0)
(0.000521878105287 0.000140491994922 0)
(0.000558155659365 0.000146293053969 0)
(0.00059576483576 0.000144728516732 0)
(0.000635483068619 0.000142798197138 0)
(0.000674845920878 0.000141544083385 0)
(0.000714125016854 0.000140611675728 0)
(0.000753503711944 0.000140208708241 0)
(0.000793291702494 0.000140294722795 0)
(0.00083464137956 0.000140486563474 0)
(0.000874671366064 0.000140346085753 0)
(0.000916490318708 0.00014066321714 0)
(0.000954612956208 0.000140613756411 0)
(0.000996673134606 0.00014086030034 0)
(0.00103222174296 0.000140458047053 0)
(0.00107701170462 0.000144443173729 0)
(0.00112745583385 0.000150597255175 0)
(0.0011655837483 0.000153398625026 0)
(0.00121488688247 0.000152838928364 0)
(0.00126359125843 0.000150409472828 0)
(0.00130545559373 0.000146934698429 0)
(0.00134555426426 0.000138624056934 0)
(0.00138366498744 0.000125701434207 0)
(0.00141821870867 0.000113344407247 0)
(0.00145013959714 0.000104822691522 0)
(0.00148009159039 9.82539718884e-05 0)
(0.0015075011983 9.12323029768e-05 0)
(0.00153215578829 8.31711267202e-05 -6.19707743886e-29)
(0.00155410508254 7.41332937924e-05 6.21723634221e-29)
(0.00157334207475 6.43430689846e-05 0)
(0.00158986135939 5.38528771621e-05 0)
(0.00160349702122 4.27304732536e-05 0)
(0.00161396198868 3.17585742963e-05 0)
(0.00162101261355 2.17145694548e-05 0)
(0.00162434392399 1.08424866117e-05 0)
(0.00162296640124 -3.62627517331e-06 0)
(0.00161851456521 -1.81986388878e-05 0)
(0.00161365250439 -2.90009227472e-05 0)
(0.0016062686587 -3.76606896022e-05 0)
(0.0015938327023 -4.59356175934e-05 -1.1220978995e-28)
(0.00157647482093 -5.48987775486e-05 1.28121108196e-28)
(0.00155346845867 -6.65164937466e-05 0)
(0.00152171627429 -8.66810658114e-05 0)
(0.00147779878396 -0.000136895060389 0)
(0.0013949972022 -0.000247971330167 0)
(0.00128537305945 -0.00036863232533 0)
(0.00119733715942 -0.000390945160514 0)
(0.00103220332083 -0.000298555913025 0)
(0.00094045277789 -0.000244885722147 0)
(0.000884467580162 -0.000244722126977 0)
(0.000823461596134 -0.000278794936899 0)
(0.00076725410566 -0.000331751990364 0)
(0.000690988362546 -0.000357556882724 0)
(0.000609128663147 -0.000344146425921 0)
(0.000523267713673 -0.000321066884304 0)
(0.000414856593112 -0.000295829197564 0)
(0.000335396780965 -0.000285558366842 0)
(0.000262301653353 -0.000276992074125 0)
(0.000184533477328 -0.000246231455779 0)
(0.000105582948261 -0.000195133595893 0)
(7.68832566901e-05 -0.000244711719701 0)
(2.58340136486e-05 -0.00028121601441 0)
(1.12325541815e-06 0.000120855841294 0)
(1.01724455279e-05 0.000102214446347 0)
(3.99312408405e-05 0.00015243291552 0)
(6.83044047439e-05 0.000144608611146 0)
(7.95919487065e-05 0.000106727855689 0)
(6.79739996667e-05 6.75139818632e-05 0)
(0.000115976846919 0.000105265542256 0)
(0.000166039083249 0.000137222835125 0)
(0.000192071740435 0.000130424161178 0)
(0.000222904527352 0.000123089842361 0)
(0.000252500968308 0.000120059974376 0)
(0.000279683038116 0.000116010898859 0)
(0.000295856786079 0.000106279714503 0)
(0.000293943423689 9.29674370503e-05 0)
(0.000312816991831 9.4169517411e-05 0)
(0.000344888641697 0.000105648779963 0)
(0.000388708547549 0.000124940685436 0)
(0.000437314148092 0.000148976343615 0)
(0.000478248529334 0.000167685239981 0)
(0.000509390539037 0.000176051046288 0)
(0.00054577759185 0.000181589786687 0)
(0.000585459997512 0.000184088626541 0)
(0.000624261723628 0.000183044927328 0)
(0.000663309398908 0.000181224939021 0)
(0.000702379436641 0.000180065170622 0)
(0.000741511152936 0.000180084587312 0)
(0.000782635717426 0.000180822124747 0)
(0.00082205073481 0.000180927608433 0)
(0.00086533953036 0.000181443826932 0)
(0.000903173975473 0.000180813138346 0)
(0.000947550869356 0.000181667037763 7.38066042484e-29)
(0.000978548148973 0.000180310908526 -7.0629169344e-29)
(0.00102788072808 0.000184437853518 0)
(0.00107827742343 0.000190242227039 0)
(0.00111963053233 0.000195654743084 0)
(0.00117189084912 0.000201090528472 0)
(0.00121900922097 0.000201041484667 0)
(0.00126304462641 0.000195283550288 0)
(0.00130479721466 0.000187151887269 0)
(0.00134484594061 0.000176458827973 0)
(0.00138317008422 0.000162741702058 0)
(0.00141893927199 0.00014876920217 0)
(0.0014520438096 0.000137111685009 0)
(0.00148256472109 0.000127145692071 0)
(0.00151026826369 0.000117163423195 0)
(0.00153509448172 0.000106374644504 0)
(0.00155709254218 9.46791283927e-05 0)
(0.00157626347171 8.21857589291e-05 0)
(0.00159256430626 6.894843625e-05 0)
(0.00160586832283 5.50870401222e-05 0)
(0.00161594639257 4.10268981968e-05 0)
(0.00162246064651 2.69095471459e-05 0)
(0.00162502476928 1.17000370455e-05 0)
(0.00162354788365 -5.25965351289e-06 0)
(0.00161936239955 -2.17586083368e-05 0)
(0.00161345070485 -3.60734682273e-05 0)
(0.00160383848909 -4.94358406645e-05 0)
(0.00158792347377 -6.35406624984e-05 0)
(0.00156393125093 -8.03701185633e-05 0)
(0.00152888145327 -0.000104570991684 0)
(0.00147765594847 -0.000147037215525 0)
(0.00140370729991 -0.000226162223074 0)
(0.0012961266893 -0.000343792790644 0)
(0.00122163094877 -0.000450693181616 0)
(0.00117217588012 -0.000484910929353 0)
(0.00103918797617 -0.000416223831448 0)
(0.000922066952208 -0.000350414984361 0)
(0.000828482848444 -0.000327603157508 0)
(0.000751230231079 -0.000347794644965 0)
(0.00069275767 -0.000396579466082 0)
(0.000634628484841 -0.000438543501115 0)
(0.000550246907261 -0.000436910745992 0)
(0.000434651310489 -0.00039570813255 0)
(0.000353648951362 -0.000379177359035 0)
(0.000277281220959 -0.000374481092994 0)
(0.000201499685792 -0.00035966253122 0)
(0.000131224684496 -0.000294426247887 0)
(8.25795276494e-05 -0.000247860236691 0)
(5.11859778318e-05 -0.00030382908704 0)
(1.25413672348e-05 -0.000311264070728 0)
(-5.83335511464e-07 0.0001134274643 0)
(1.07030022671e-05 0.000121539266911 0)
(3.71492959065e-05 0.000172052707976 0)
(5.44373334153e-05 0.000153913039489 0)
(4.46145288687e-05 8.75490722731e-05 0)
(6.43173823723e-05 9.32671346777e-05 0)
(0.000128240243794 0.000155371485863 0)
(0.000150714280576 0.000163460004743 0)
(0.00017427255045 0.000158595799352 0)
(0.000202636113775 0.000154430968589 0)
(0.000232296189634 0.000146403796721 0)
(0.000235319011785 0.000125167971992 0)
(0.000229341972942 0.000103537283751 0)
(0.000254709339268 0.000108295979636 0)
(0.00028900584148 0.000125592113171 0)
(0.000339876677966 0.000151239466362 0)
(0.000389788953115 0.000173872437211 0)
(0.000429557188644 0.000188987584028 0)
(0.00045701095191 0.000197688690901 0)
(0.000493727842092 0.000210253707229 0)
(0.000533600856493 0.000220235027378 0)
(0.00057130730916 0.000222985578201 0)
(0.000609387516245 0.00022223540605 0)
(0.000647942092203 0.000220739745463 0)
(0.000688292891085 0.000220205213457 0)
(0.000727604024999 0.000219840446206 0)
(0.000764471175532 0.000220710505829 0)
(0.000810408394727 0.000223017115042 0)
(0.000845856485791 0.000221304913902 0)
(0.000893907121889 0.000222031367725 0)
(0.000921542525291 0.000219455645991 0)
(0.000974439798383 0.000225311462395 0)
(0.00100769780451 0.000228488452473 0)
(0.00106674511075 0.000238531119087 0)
(0.00112439197901 0.000247582241983 0)
(0.00117279686688 0.000250535551829 0)
(0.00121776821533 0.000246385519876 0)
(0.0012613428703 0.000238260687579 0)
(0.00130354561521 0.000227969852254 0)
(0.00134430849503 0.000215412652013 0)
(0.00138334352111 0.000200442903907 0)
(0.00142010745125 0.000184715222348 0)
(0.00145422398049 0.000170117879279 0)
(0.0014854623904 0.000156718595233 0)
(0.00151366047684 0.00014349946902 0)
(0.0015387929804 0.000129729379459 0)
(0.00156090668465 0.000115175202759 0)
(0.00157998140291 9.98263395814e-05 0)
(0.00159594010099 8.3698099648e-05 0)
(0.00160867523689 6.68648785476e-05 0)
(0.00161801251207 4.94892640364e-05 0)
(0.00162368286356 3.15082821688e-05 0)
(0.00162547446487 1.2501605759e-05 0)
(0.00162358113315 -7.35281335023e-06 0)
(0.00161866599763 -2.68368479969e-05 0)
(0.00161035139052 -4.57556802463e-05 0)
(0.00159606809576 -6.58022541643e-05 0)
(0.00157249551897 -8.93710449999e-05 0)
(0.00153632618036 -0.000119971111801 0)
(0.00148322420517 -0.000163766531751 0)
(0.0014099209884 -0.000229980473878 0)
(0.0013162259968 -0.000322623668863 0)
(0.00119650756647 -0.000420073372784 0)
(0.00116704688203 -0.000531143820712 0)
(0.00106896260164 -0.000556764619218 0)
(0.000947910734097 -0.000499465368588 0)
(0.000859822451086 -0.000450380440655 0)
(0.000767714347484 -0.000417953021781 0)
(0.000679889193793 -0.000417166394028 0)
(0.000629248652177 -0.000471066720148 0)
(0.000571384209281 -0.000530334469498 0)
(0.000464257752281 -0.000506915663581 0)
(0.000374039657203 -0.000473866442365 0)
(0.000300390768303 -0.000468483965504 0)
(0.00021741762656 -0.00045741779902 0)
(0.000153309798847 -0.000426277123081 0)
(9.60899063743e-05 -0.000330756902961 0)
(5.79098615704e-05 -0.000287755659763 0)
(3.19948958806e-05 -0.000336257372354 0)
(8.55180662387e-06 -0.000331058196848 0)
(3.0762014404e-06 0.000121633421895 0)
(2.12137453282e-05 0.000151826059008 0)
(4.41454915847e-05 0.000184519653509 0)
(4.92619908815e-05 0.000180601068851 0)
(3.85044964033e-05 0.000109817509218 0)
(8.18735590989e-05 0.000151110467064 0)
(0.000120063367839 0.000182462326518 0)
(0.000135288787662 0.000183530654037 0)
(0.000156497969011 0.000181689936543 0)
(0.000176963945094 0.000178314178166 0)
(0.000208418817149 0.000168472359341 -2.19883193722e-28)
(0.000182563621684 0.000120597473649 1.49344947347e-28)
(0.000211150465166 0.000125236850188 0)
(0.0002373836006 0.000141070060093 0)
(0.000284119447296 0.000171962637804 0)
(0.000336517573507 0.000202961296795 0)
(0.000375927213283 0.000216136652463 0)
(0.000398539209205 0.000217622038158 0)
(0.000436100634029 0.00023202919088 0)
(0.00047871191218 0.000249730022388 0)
(0.000515417396609 0.000258161933449 0)
(0.000553185119377 0.0002611246385 0)
(0.000591860200888 0.000261577702757 0)
(0.000630946544608 0.000260347761383 0)
(0.000668434233026 0.000258464951959 0)
(0.000705523884814 0.000258239231611 0)
(0.000750246118238 0.000261502048521 0)
(0.000782425210914 0.00026222037813 0)
(0.000834465811104 0.000264292434925 0)
(0.000859789286514 0.00025724968319 0)
(0.000915894148512 0.000263863507363 0)
(0.000949886406032 0.000268933870522 -7.01331921242e-29)
(0.00100824996224 0.000280597927923 6.98512495937e-29)
(0.00106247667243 0.000293305672914 0)
(0.00112169794358 0.000301361775966 0)
(0.00116978125459 0.000298917359064 0)
(0.00121454521524 0.000291367946786 0)
(0.0012587047035 0.000281497347422 0)
(0.00130204213271 0.000269668894861 0)
(0.00134395572629 0.000255519866208 0)
(0.00138399969205 0.00023903399828 0)
(0.00142180103057 0.000221346897871 0)
(0.00145692061824 0.000203883907739 0)
(0.00148898891057 0.00018706104493 0)
(0.0015178136994 0.000170405917382 0)
(0.0015433519462 0.000153371445728 0)
(0.0015655967748 0.000135666980204 0)
(0.00158447280345 0.00011718191929 0)
(0.00159987856 9.78830735033e-05 0)
(0.00161174493274 7.77937906634e-05 0)
(0.00161998976834 5.69491929125e-05 0)
(0.00162448231315 3.52732889041e-05 0)
(0.00162515399715 1.26574316233e-05 0)
(0.0016220679444 -1.07123966776e-05 0)
(0.00161497159377 -3.47209893299e-05 0)
(0.00160213704459 -6.05315062169e-05 0)
(0.0015800281496 -9.06392914576e-05 0)
(0.00154471529338 -0.000128047380055 0)
(0.00149330709496 -0.000176288707675 0)
(0.0014252024018 -0.000239344178884 0)
(0.00134226592903 -0.000319280191132 0)
(0.00125038017544 -0.000411836390108 0)
(0.00117097090751 -0.000509695695446 0)
(0.00110185910917 -0.000612002822959 0)
(0.00100942898915 -0.000648902785915 0)
(0.000851195002285 -0.000568798063189 0)
(0.000792914402359 -0.000534428614319 0)
(0.000720842401389 -0.000514583679247 0)
(0.000636785745195 -0.000512064691761 0)
(0.000571679152127 -0.000557962671931 0)
(0.000499286352744 -0.00059815246351 0)
(0.000405472787966 -0.000573005022859 0)
(0.000330925352595 -0.000565987107985 0)
(0.000243274323288 -0.0005575094718 0)
(0.000164039889852 -0.000534926608561 0)
(0.000107283972674 -0.000459483684605 0)
(6.66245215287e-05 -0.000379029314747 0)
(2.65735660649e-05 -0.000321193213009 0)
(8.29757572112e-06 -0.000350695634148 0)
(2.98039678594e-06 -0.000349363898295 0)
(6.45566111681e-06 0.000138418852403 0)
(2.74120188012e-05 0.000177083561145 0)
(4.55999936134e-05 0.000190794100361 0)
(3.08162118375e-05 0.00013264610253 0)
(3.6927782109e-05 0.000131784372773 0)
(8.35824532677e-05 0.00019295945848 0)
(0.000102662729195 0.000200195811473 0)
(0.000120020620328 0.000202033364902 0)
(0.000133835005696 0.000200215570259 0)
(0.000156590407909 0.000198819024104 0)
(0.000141967421924 0.000146768482747 0)
(0.000163461870423 0.000140746666754 0)
(0.000191606553337 0.000153022644253 0)
(0.000222510054962 0.000177632581907 0)
(0.000279211799354 0.000222465423996 0)
(0.00032017461865 0.000243430093969 0)
(0.000339042701335 0.000240514975633 0)
(0.00037250392468 0.000251190388197 0)
(0.000417686551509 0.000273782993447 0)
(0.000457168938749 0.000288669502567 0)
(0.000493210337227 0.00029527823349 0)
(0.000530245466837 0.000298676191589 0)
(0.000569853792427 0.000301095881457 0)
(0.000608875637808 0.000300317657824 0)
(0.000649469987098 0.000297786461501 0)
(0.000682493720623 0.000298092784802 0)
(0.000731272533201 0.000303480596715 0)
(0.000767086963025 0.000302713470938 0)
(0.000799464636409 0.000299683168826 0)
(0.00084611010567 0.000303220900444 0)
(0.000907502594126 0.00031395368912 0)
(0.000945599403673 0.000317984883998 0)
(0.000994442726602 0.000332748762297 0)
(0.00106363772927 0.000351013810531 0)
(0.00111534693523 0.000353886596243 0)
(0.00116322942833 0.000347051557999 0)
(0.00120982015212 0.000337258383973 0)
(0.00125550389273 0.000325974636115 0)
(0.00130030190065 0.000312748993869 0)
(0.0013436750099 0.000297006755467 0)
(0.00138504799862 0.000278758019994 0)
(0.0014240494765 0.000258878186978 0)
(0.0014602820661 0.000238509762713 0)
(0.00149332322214 0.000218229860622 0)
(0.00152290688384 0.000197949177732 -6.02250473886e-29)
(0.001548919769 0.000177330355468 5.99521954428e-29)
(0.00157125811561 0.000156085402798 0)
(0.00158976690258 0.00013405299832 0)
(0.00160432951414 0.000111191233128 0)
(0.00161494015207 8.75258978688e-05 0)
(0.00162163723687 6.30557544829e-05 0)
(0.00162443863398 3.7686058375e-05 0)
(0.00162331946651 1.12365802529e-05 0)
(0.00161794562523 -1.66985140402e-05 0)
(0.00160694401273 -4.73371784273e-05 0)
(0.00158714707548 -8.3184141403e-05 0)
(0.00155429904153 -0.000126940719496 0)
(0.00150583453841 -0.000180355304066 0)
(0.00144302930384 -0.000244615822961 0)
(0.001368966738 -0.000320482380456 0)
(0.00128702356999 -0.000404381731767 0)
(0.00120572715748 -0.000492071264491 0)
(0.0011337314359 -0.000585201161193 0)
(0.00105837719211 -0.000682759053033 0)
(0.0010318495558 -0.000778691894135 0)
(0.000838922162077 -0.000683947331227 0)
(0.000709743093373 -0.000610721839999 0)
(0.000641200945155 -0.000592186732928 0)
(0.0005601347435 -0.000586388172867 0)
(0.000501788394954 -0.000618984270592 0)
(0.000443402755012 -0.000650946186351 0)
(0.000368241555263 -0.000653150529578 0)
(0.000283311591279 -0.000662717437352 0)
(0.000186375762628 -0.000648499422424 0)
(0.000110524669134 -0.000598621307208 0)
(5.82063780522e-05 -0.000498785414466 0)
(1.98271122791e-05 -0.000424579550158 0)
(-1.46889440386e-05 -0.000357424811468 0)
(-2.58900246841e-05 -0.00035120754348 0)
(-1.04296446285e-05 -0.000350890045432 0)
(8.17892253295e-06 0.00015765476774 0)
(2.77314436597e-05 0.000194681839306 0)
(3.37766591503e-05 0.000195828716572 0)
(2.58918251233e-05 0.000142916591524 0)
(4.57221373658e-05 0.000164120461315 0)
(7.70916475863e-05 0.000210977871551 0)
(8.60089653518e-05 0.000215807259853 0)
(0.000104982749622 0.00021822529134 0)
(0.00010776265964 0.000203683661276 0)
(0.000135625562224 0.000223038031129 0)
(0.000121567351943 0.000163755815849 0)
(0.00014813578271 0.000165858541948 0)
(0.00017307432344 0.00018297595779 0)
(0.00021515787537 0.000224800569051 0)
(0.000261557901648 0.000264497514911 0)
(0.000292926895795 0.000275181043223 0)
(0.000311000555615 0.000271861967075 0)
(0.000349812352151 0.000291148759924 0)
(0.000392297067137 0.000313960556231 0)
(0.000430558576324 0.000326804001412 0)
(0.000468186416095 0.000333116868394 0)
(0.000504590241553 0.000336172568004 0)
(0.000543668996248 0.000339355804374 0)
(0.00057895416456 0.000338218621051 0)
(0.000614625143475 0.0003335836499 0)
(0.000663133114469 0.000339374455998 0)
(0.000688134994637 0.000338727233844 0)
(0.000751577685791 0.0003480827435 0)
(0.000778023551268 0.000345280408627 0)
(0.000842085834802 0.000357288700077 0)
(0.000872746563221 0.000356516611939 0)
(0.0009421360535 0.000374173832363 0)
(0.000999504492736 0.000393407229971 -7.17708051277e-29)
(0.00105433654347 0.000405403609019 7.07503116741e-29)
(0.00110572193129 0.000404264640904 0)
(0.00115528452733 0.000395994113148 0)
(0.00120401906723 0.000384972939212 0)
(0.00125170519638 0.000372290458773 0)
(0.00129828318818 0.000357552342872 0)
(0.00134337118308 0.000340115649148 0)
(0.00138639529821 0.000319894627598 0)
(0.00142689462403 0.000297589450298 0)
(0.00146445110508 0.000274187626079 0)
(0.00149864416942 0.000250343023214 0)
(0.00152914533991 0.000226203741539 0)
(0.00155570056461 0.000201604543496 0)
(0.00157805698402 0.000176307878397 0)
(0.00159597050395 0.000150173827866 0)
(0.00160931668508 0.000123227372281 0)
(0.0016181597073 9.55713706178e-05 0)
(0.00162267961545 6.72171121492e-05 0)
(0.00162305217616 3.79444009799e-05 0)
(0.00161923720762 7.11119461702e-06 0)
(0.00161035406647 -2.67893233352e-05 0)
(0.00159381289262 -6.65918045452e-05 0)
(0.00156497627991 -0.00011581793904 0)
(0.00151988941904 -0.000175186354832 0)
(0.00146086457229 -0.000242281900484 0)
(0.00139472880644 -0.000317498382179 0)
(0.00132001211909 -0.000403390271896 0)
(0.00123500229948 -0.000488898712527 0)
(0.00115229233089 -0.000567070236598 0)
(0.00108467158596 -0.000648606282748 0)
(0.00103189492149 -0.000737960027639 0)
(0.00100062650564 -0.000839075589044 0)
(0.000933565560956 -0.000876572666259 0)
(0.000677851727895 -0.00071658649214 0)
(0.000555214600872 -0.000676185595266 0)
(0.000492191953647 -0.000662730248907 0)
(0.000451318242239 -0.000662673594785 0)
(0.000409732221113 -0.000701225911307 0)
(0.000339356315273 -0.000746067875847 0)
(0.000235853458464 -0.000769963307232 0)
(0.000127578877566 -0.000741865744181 0)
(4.62217286195e-05 -0.000655853271492 0)
(-9.39042214097e-06 -0.000549893487697 0)
(-5.13447075802e-05 -0.000462358433587 0)
(-7.43283138875e-05 -0.000385674520034 0)
(-6.65425981316e-05 -0.000337888719461 0)
(-2.66954852514e-05 -0.000314877947519 0)
(8.73544813609e-06 0.000178715390414 0)
(2.76506341965e-05 0.000205481031878 0)
(2.67035105495e-05 0.000193924465483 0)
(2.23483206392e-05 0.0001520105589 0)
(4.91490476507e-05 0.000204863122046 0)