/*--------------------------------*- C++ -*----------------------------------*\
| =========                 |                                                 |
| \\      /  F ield         | OpenFOAM: The Open Source CFD Toolbox           |
|  \\    /   O peration     | Version:  v1806                                 |
|   \\  /    A nd           | Web:      www.OpenFOAM.com                      |
|    \\/     M anipulation  |                                                 |
\*---------------------------------------------------------------------------*/
FoamFile
{
    version     2.0;
    format      ascii;
    class       surfaceScalarField;
    location    "50";
    object      phi;
}
// * * * * * * * * * * * * * * * * * * * * * * * * * * * * * * * * * * * * * //

dimensions      [0 3 -1 0 0 0 0];
oriented        oriented;


internalField   nonuniform List<scalar> 
12640
(
-1.70410467041e-07
1.76863401945e-07
-3.42349943071e-07
1.77805518939e-07
-5.10492062784e-07
1.72911693869e-07
-6.62192431253e-07
1.55984399269e-07
-7.61450102479e-07
1.0336061888e-07
-7.87295722948e-07
3.03539881913e-08
-7.73672836522e-07
-9.30770349887e-09
-8.15069186422e-07
4.53166707427e-08
-9.22473157329e-07
1.1134173069e-07
-1.01724830737e-06
9.83912188094e-08
-1.10679150631e-06
9.21459039691e-08
-1.24145900327e-06
1.37040733171e-07
-1.36431908102e-06
1.24983229241e-07
-1.43980887724e-06
7.75132804581e-08
-1.48480337328e-06
4.71289954108e-08
-1.55971175491e-06
7.75535413535e-08
-1.6484125165e-06
9.15950160024e-08
-1.69971222513e-06
5.4502310098e-08
-1.69277624892e-06
-4.30267855601e-09
-1.63193549712e-06
-5.87105800994e-08
-1.58605304225e-06
-4.39866877049e-08
-1.58640644355e-06
2.34408898182e-09
-1.61644669162e-06
3.1844622507e-08
-1.68235054771e-06
6.75989973735e-08
-1.74817309665e-06
6.74927077534e-08
-1.79157733467e-06
4.5326584561e-08
-1.85160200592e-06
6.2247874509e-08
-1.90726145486e-06
5.84088469414e-08
-1.9291767089e-06
2.47781597008e-08
-1.91209522881e-06
-1.38522467584e-08
-1.90621953871e-06
-2.93100045619e-09
-1.89883053601e-06
-4.53411177574e-09
-1.82162771762e-06
-7.32928076635e-08
-1.7090153112e-06
-1.08813812382e-07
-1.56202056658e-06
-1.43318624297e-07
-1.36446914691e-06
-1.92170655827e-07
-1.14609848981e-06
-2.13125724463e-07
-9.44926188017e-07
-1.97161201368e-07
-7.50842598473e-07
-1.90674873237e-07
-5.7206628817e-07
-1.76085050318e-07
-4.38829358197e-07
-1.31112439871e-07
-3.5413158567e-07
-8.25156884268e-08
-2.77639988677e-07
-7.40579495272e-08
-2.1970404197e-07
-5.47556903154e-08
-1.80689569391e-07
-3.5202706456e-08
-1.57553225561e-07
-1.88101020892e-08
-1.43385171532e-07
-9.57818650849e-09
-1.34055027289e-07
-6.37673286919e-09
-1.26224091903e-07
-5.29376502759e-09
-1.20281737355e-07
-4.39381507359e-09
-1.18426453993e-07
1.05539731081e-09
-1.11805743388e-07
3.42103243119e-11
-9.2122227612e-08
-7.81057473055e-09
-6.38235209858e-08
-1.73743637406e-08
-3.29078422367e-08
-2.49843399507e-08
-9.22223537707e-09
-2.26989626592e-08
6.56802738017e-08
-7.36934352592e-08
1.74737105831e-07
-1.07016145276e-07
3.15196463524e-07
-1.3589139777e-07
5.33434024003e-07
-2.11435878746e-07
1.00930398423e-06
-4.70179792344e-07
1.47026236002e-06
-4.55314779842e-07
1.88833471978e-06
-4.11187205105e-07
2.14419641872e-06
-2.51045226456e-07
2.25418209432e-06
-1.07487261127e-07
2.31095331074e-06
-5.50100236096e-08
2.32810230594e-06
-1.57210002414e-08
2.32517559951e-06
4.59078325009e-09
2.30166772409e-06
2.55589935293e-08
2.2465623641e-06
5.7728825053e-08
2.15731046966e-06
9.20797355266e-08
2.03220805264e-06
1.27870979847e-07
1.86665717142e-06
1.68539260362e-07
1.63138650084e-06
2.38515511258e-07
1.38701483527e-06
2.47779243533e-07
1.1377053447e-06
2.52346195085e-07
9.40262515647e-07
2.0026374604e-07
6.81906069502e-07
2.6116405487e-07
4.21592111582e-07
2.68683396661e-07
4.24716028507e-07
-7.68731274929e-08
2.57245594944e-07
-1.79502291022e-07
2.84290995918e-07
-2.82777787985e-07
2.79343743488e-07
-3.9991536841e-07
2.7579803624e-07
-5.93127083173e-07
2.99997191013e-07
-7.81136842512e-07
2.22221961689e-07
-8.98421447539e-07
1.12377678609e-07
-9.83346318908e-07
1.347957599e-07
-1.06387249523e-06
1.96180428615e-07
-1.16654653671e-06
2.04562219421e-07
-1.27078175341e-06
1.99504217422e-07
-1.33606685035e-06
2.04760902554e-07
-1.39231317435e-06
1.83686080314e-07
-1.46081216471e-06
1.48634425312e-07
-1.53187375701e-06
1.21342057389e-07
-1.60543128567e-06
1.54276500575e-07
-1.62698965652e-06
1.16414051509e-07
-1.52164480241e-06
-4.85874727395e-08
-1.41755454139e-06
-1.06685571512e-07
-1.38275163376e-06
-9.20424406298e-08
-1.38855626354e-06
-3.66413111985e-08
-1.49946908612e-06
1.14707738868e-07
-1.6432550977e-06
1.77388467332e-07
-1.68440196407e-06
1.10324793319e-07
-1.72743619331e-06
1.12309167807e-07
-1.85369328756e-06
1.73493107386e-07
-1.9298149266e-06
1.41056853195e-07
-1.94139818096e-06
7.27273842377e-08
-1.92673175388e-06
1.34151762391e-08
-1.89071955155e-06
-4.67552516577e-08
-1.80071071946e-06
-8.97688934428e-08
-1.6928495459e-06
-1.08833448435e-07
-1.55666601091e-06
-2.06296630933e-07
-1.39104411974e-06
-2.7082197124e-07
-1.31540779099e-06
-2.1474092751e-07
-1.15170518585e-06
-3.51635319508e-07
-9.34869075166e-07
-4.2563629649e-07
-8.1319659825e-07
-3.15932766705e-07
-7.062805935e-07
-2.95800337344e-07
-5.87517230357e-07
-2.92845317062e-07
-3.4484388553e-07
-3.71791404421e-07
-1.16719736597e-07
-3.06848118757e-07
-6.16111399222e-08
-1.24418595271e-07
-3.59210259326e-08
-7.38756581109e-08
-2.08200185416e-08
-4.43588270229e-08
-1.63617237289e-08
-1.65163021008e-08
-1.97141220752e-08
-3.12361268546e-10
-2.85025305962e-08
9.35425843044e-09
-4.0412966019e-08
1.28598458764e-08
-4.50476541883e-08
9.04776665396e-09
-3.30984345771e-08
1.72641728316e-09
-2.28255667354e-08
2.61761668026e-09
-3.82139212176e-08
1.72286767521e-08
-4.8088229863e-08
-4.51384964878e-10
-9.3740212457e-09
-6.11761084696e-08
1.55833939327e-07
-1.86324661868e-07
7.36688843307e-07
-6.49004296349e-07
1.45020316681e-06
-8.07710190373e-07
2.06741722875e-06
-7.36885575062e-07
2.43375566106e-06
-5.60288445972e-07
2.1781288741e-06
-1.96132111636e-07
1.84163302916e-06
-1.08854259899e-07
2.06658122176e-06
-6.24733903442e-07
2.21476853646e-06
-3.93204376714e-07
2.23748304241e-06
-1.26971568807e-07
2.20417473444e-06
-2.00898887252e-08
2.22539642305e-06
-3.53366877774e-08
2.27237246205e-06
-4.07305935094e-08
2.28019509611e-06
1.99185400222e-08
2.23164706273e-06
1.08627409223e-07
2.12350257936e-06
2.0282014579e-07
1.96952398192e-06
2.84448665612e-07
1.82022405005e-06
3.20711956797e-07
1.69566843181e-06
3.66291964575e-07
1.53247812647e-06
4.14419722423e-07
1.3457147255e-06
4.4257941164e-07
1.10415752954e-06
4.45968508803e-07
8.42579775972e-07
5.2777096412e-07
4.52509434109e-07
6.62516533032e-07
8.85424050101e-07
-1.11891736603e-07
3.72407476619e-07
-1.45172037078e-07
3.20942030659e-07
-3.12337843841e-07
4.49935559604e-07
-5.44719982104e-07
5.12079439956e-07
-7.4021642918e-07
4.99357264279e-07
-8.06410322667e-07
2.9148363877e-07
-8.30696128613e-07
1.39878325967e-07
-9.20781325181e-07
2.28493246483e-07
-1.03799076808e-06
3.16974201516e-07
-1.15555371673e-06
3.25355583622e-07
-1.26086937615e-06
3.07585764507e-07
-1.33546131379e-06
2.82329626555e-07
-1.39213194803e-06
2.43636160213e-07
-1.44661373431e-06
2.06486488677e-07
-1.43573082967e-06
1.13793032442e-07
-1.21764002803e-06
-6.10682177267e-08
-9.57659455318e-07
-1.42326327343e-07
-8.83021160968e-07
-1.22270935083e-07
-9.09561043963e-07
-7.92301950773e-08
-1.08174058622e-06
8.11357807961e-08
-1.35806163838e-06
2.41054698109e-07
-1.49324886556e-06
2.51616154668e-07
-1.54092281497e-06
2.26574916793e-07
-1.70171907569e-06
2.72901378324e-07
-1.85869257198e-06
2.71181761037e-07
-1.90585935894e-06
2.23073669556e-07
-1.9014899433e-06
1.39145748012e-07
-1.88595619286e-06
6.02010868008e-08
-1.83387238707e-06
-3.5709940907e-08
-1.77973980739e-06
-9.77815751396e-08
-1.68474648271e-06
-1.81292670064e-07
-1.54505345495e-06
-2.45974488725e-07
-1.49162805606e-06
-2.56086829278e-07
-1.28163098089e-06
-4.77019387184e-07
-1.02809399916e-06
-4.65463747806e-07
-1.00353142746e-06
-3.7271158505e-07
-8.59865559181e-07
-5.66774646807e-07
-6.21918224375e-07
-5.52466604022e-07
-5.2321425201e-07
-3.92681627062e-07
-5.53022307877e-07
-2.59402562274e-07
-3.45157172814e-07
-5.69812911258e-07
3.28461627668e-07
-9.64706522306e-07
1.43246847114e-06
-1.20793345114e-06
2.53990268177e-06
-1.16056365818e-06
3.44042046452e-06
-9.24595333474e-07
4.0733018427e-06
-6.30430898652e-07
4.41815796453e-06
-3.25269811708e-07
4.48131972718e-06
-3.42034778868e-08
4.26750231522e-06
2.49005728388e-07
3.74921106033e-06
5.56358650493e-07
2.8488508392e-06
9.36307092047e-07
1.61796955634e-06
1.26346428906e-06
5.41581588444e-07
1.11087293794e-06
2.36073720906e-08
5.25717300982e-07
-2.7564277208e-09
-2.88416001727e-08
2.84308169064e-07
-4.64362091583e-07
7.72575180787e-07
-1.12080319131e-06
1.36895049897e-06
-1.386656126e-06
1.9203236782e-06
-1.2718585669e-06
2.3351933238e-06
-9.56345288591e-07
2.70372182032e-06
-5.4772535585e-07
2.88992940212e-06
-2.76344111471e-07
2.46468650151e-06
-1.83105725478e-07
2.10336239915e-06
-2.67864301432e-08
2.06370665559e-06
-8.41441279798e-08
2.15674813148e-06
-1.11027835008e-07
2.20662663581e-06
-8.35887723117e-08
2.20026566752e-06
-3.2675396804e-08
2.16293089119e-06
5.90641149319e-08
2.09247649632e-06
1.81105644839e-07
2.01613140117e-06
2.8134110068e-07
1.97181489712e-06
3.31337628238e-07
1.91837018762e-06
3.77152160156e-07
1.79818498999e-06
4.89962205297e-07
1.59271290522e-06
6.23761587011e-07
1.34506313908e-06
6.94449091036e-07
1.09408717105e-06
7.00357733073e-07
8.56221299292e-07
7.69014191746e-07
3.93836650955e-07
1.13645893252e-06
1.27939802279e-06
-7.48108552552e-08
4.50242991422e-07
-7.43591673785e-08
3.22657326739e-07
-3.14294857683e-07
6.93787421957e-07
-4.79409336587e-07
6.81431124729e-07
-4.0672911864e-07
4.29306650509e-07
-2.75679971701e-07
1.61410383898e-07
-3.93174521755e-07
2.5866817521e-07
-7.01970123176e-07
5.39829494158e-07
-9.55611298343e-07
5.73642964535e-07
-1.1152184787e-06
4.87884567629e-07
-1.24515872509e-06
4.40804091228e-07
-1.32976873644e-06
3.70404778748e-07
-1.31952868868e-06
2.36813123456e-07
-1.14786796652e-06
3.78735688678e-08
-9.20583620573e-07
-1.11495438957e-07
-8.32359453634e-07
-1.48269263161e-07
-8.50492939654e-07
-1.23452222161e-07
-9.6268489274e-07
-9.31598015646e-09
-1.23309249131e-06
1.92151220972e-07
-1.45112284837e-06
3.00677095856e-07
-1.51340372031e-06
3.0494618791e-07
-1.60614321343e-06
3.45977089648e-07
-1.7502321923e-06
3.72521140578e-07
-1.8293249111e-06
3.53947507326e-07
-1.85652323935e-06
3.00754721318e-07
-1.8460350891e-06
2.14836135827e-07
-1.84584680834e-06
1.41694016275e-07
-1.81129756292e-06
2.82943929598e-08
-1.78157187061e-06
-6.26303434765e-08
-1.70181801667e-06
-1.74328796843e-07
-1.62606715454e-06
-2.54521207653e-07
-1.53582878635e-06
-3.32753272534e-07
-1.30413530702e-06
-4.85072630891e-07
-1.26136129659e-06
-5.16919542869e-07
-1.14542668805e-06
-5.78262733444e-07
-9.37458690331e-07
-5.78978745951e-07
-1.04881116918e-06
-4.5373150407e-07
-1.07549804159e-06
-5.23327568373e-07
-5.82041881446e-07
-8.80344359663e-07
7.46073946171e-07
-1.57585558664e-06
2.64207414217e-06
-2.44855767362e-06
4.45737351954e-06
-2.7651109361e-06
5.99616547031e-06
-2.73315701647e-06
7.2989344463e-06
-2.45079981901e-06
8.37867352246e-06
-1.99184656771e-06
9.20326808516e-06
-1.44243038433e-06
9.74535986418e-06
-8.54228181067e-07
9.97987357662e-06
-2.55185533098e-07
9.89290120517e-06
3.50401162584e-07
9.48842412706e-06
9.76563542375e-07
8.81450242176e-06
1.6268401845e-06
7.84203776747e-06
2.25191379264e-06
6.23473259642e-06
2.73331223376e-06
3.97419079209e-06
2.80362163775e-06
1.97286497492e-06
1.99175217721e-06
1.02188206299e-06
5.09421208699e-07
8.88613984472e-07
-9.66875742355e-07
1.08715741234e-06
-1.56722235496e-06
1.34995073361e-06
-1.51820879907e-06
1.65605080794e-06
-1.24955876638e-06
2.00598548334e-06
-8.82813593072e-07
2.24902301668e-06
-5.03136672133e-07
2.16625948312e-06
-9.11638266201e-08
2.07810521068e-06
6.98567858885e-08
2.08804216077e-06
-8.98773000842e-08
2.08212184948e-06
-1.02954029558e-07
2.0937788723e-06
-9.3618951358e-08
2.11042558249e-06
-4.79333853004e-08
2.11805182306e-06
5.27627576836e-08
2.11344636525e-06
1.87216213468e-07
2.09687801298e-06
3.00065359192e-07
2.03966655947e-06
3.91286481679e-07
1.88454473354e-06
5.35450517288e-07
1.66898149844e-06
7.08930856965e-07
1.44465037523e-06
8.51753062429e-07
1.16695980836e-06
9.75911942676e-07
8.49582055412e-07
1.02200673563e-06
5.93901267185e-07
1.02956642952e-06
3.1136047279e-07
1.41868030579e-06
1.59646600083e-06
2.98266639057e-09
4.48667043315e-07
-7.60110993154e-08
4.03628020706e-07
-2.87801610561e-07
9.09107206564e-07
-3.38576063794e-07
7.35207583929e-07
-2.40824567321e-07
3.33058789431e-07
-2.93304781221e-07
2.14761510104e-07
-5.38133788848e-07
5.05167351108e-07
-7.84013077162e-07
7.88337614302e-07
-9.29102773208e-07
7.2158733351e-07
-1.06193683188e-06
6.23730903387e-07
-1.16117327168e-06
5.43484814518e-07
-1.10825693744e-06
3.20397579352e-07
-9.2998989098e-07
6.07982403526e-08
-8.30352579317e-07
-6.02520815405e-08
-8.52300490282e-07
-8.86271923159e-08
-9.40452656331e-07
-5.93652319782e-08
-1.12006425845e-06
5.70586037497e-08
-1.37450724095e-06
2.46237990092e-07
-1.47319195991e-06
2.92340777625e-07
-1.45024400174e-06
2.79138425154e-07
-1.54589828879e-06
4.02218160924e-07
-1.6825830733e-06
4.84486252723e-07
-1.77116518871e-06
4.63116557779e-07
-1.8000874116e-06
3.8520207448e-07
-1.80427733743e-06
3.07213636118e-07
-1.82642867044e-06
2.39670010797e-07
-1.7750213933e-06
9.25999151978e-08
-1.75005949274e-06
5.90187764656e-09
-1.68881102405e-06
-1.2081688344e-07
-1.63438317136e-06
-2.26160907113e-07
-1.55857431861e-06
-3.2737250323e-07
-1.46840115341e-06
-4.20409159249e-07
-1.54612628995e-06
-4.04761117573e-07
-1.36685928154e-06
-6.93407982938e-07
-1.26556588683e-06
-6.78141131949e-07
-1.26824596987e-06
-5.74419430242e-07
-1.10289771422e-06
-6.16838760363e-07
1.65371881438e-07
-1.78502375845e-06
2.3695191917e-06
-3.07250411502e-06
4.907469657e-06
-4.10096421319e-06
6.98241016042e-06
-4.51183567041e-06
8.71916410855e-06
-4.49115450315e-06
1.01759352882e-05
-4.180048318e-06
1.13990526966e-05
-3.66451079318e-06
1.24165223397e-05
-3.0000031445e-06
1.32224002085e-05
-2.23878917716e-06
1.37976003209e-05
-1.41922149533e-06
1.41202194314e-05
-5.6653282206e-07
1.41743535865e-05
3.07687948504e-07
1.39588925022e-05
1.20277899058e-06
1.34900879389e-05
2.10488671504e-06
1.27760360735e-05
2.97419865159e-06
1.18073221915e-05
3.71167562171e-06
1.04989835794e-05
4.12456965054e-06
8.44176612731e-06
4.0667992609e-06
5.58580727928e-06
3.38510422529e-06
2.90426750985e-06
1.73592462469e-06
1.5551352231e-06
-1.97791293337e-07
1.42221560945e-06
-1.37032352087e-06
1.61934381981e-06
-1.43255127923e-06
1.88701354144e-06
-1.13786154437e-06
2.08417430108e-06
-6.90144844022e-07
2.07832431274e-06
-7.17857141905e-08
2.06161416723e-06
9.49422777871e-08
2.13532804321e-06
-1.59786315832e-07
2.12538081938e-06
-9.00854330716e-08
2.08596543607e-06
-5.27546600974e-08
2.06544968654e-06
-2.65674415025e-08
2.071418565e-06
4.76442954583e-08
2.09511273944e-06
1.64945894774e-07
2.08378709291e-06
3.1351609969e-07
1.96515367222e-06
5.12650038187e-07
1.77926694645e-06
7.24212421735e-07
1.58139394439e-06
9.09939652166e-07
1.34546512872e-06
1.09144320053e-06
1.05600519843e-06
1.26957221898e-06
8.12781243859e-07
1.26774018406e-06
5.5244348434e-07
1.29104179251e-06
2.53390192174e-07
1.72705872031e-06
1.84884314711e-06
3.63678517001e-09
4.46207141337e-07
-1.27592983594e-07
5.36522493501e-07
-2.1693781997e-07
1.00144366e-06
-2.23569972287e-07
7.43889201477e-07
-1.85869902115e-07
2.9623159826e-07
-3.72199379917e-07
4.02319662623e-07
-6.81731400436e-07
8.16979589374e-07
-8.11506547284e-07
9.20756482174e-07
-8.98445395065e-07
8.11157807359e-07
-9.3117730775e-07
6.59766360151e-07
-8.55135467937e-07
4.70133767255e-07
-6.96822071471e-07
1.63718293589e-07
-6.67399434033e-07
3.23964422794e-08
-7.28219288009e-07
1.26119738661e-09
-8.40777317325e-07
2.45681375677e-08
-1.05384751483e-06
1.54522078785e-07
-1.33190006709e-06
3.36250541163e-07
-1.39367142822e-06
3.09534476581e-07
-1.33432527781e-06
2.34293892785e-07
-1.4639521274e-06
4.10322497278e-07
-1.62102076216e-06
5.61115719209e-07
-1.69352604956e-06
5.59057391126e-07
-1.73268016195e-06
5.04496121485e-07
-1.78077256443e-06
4.35500118104e-07
-1.80867876424e-06
3.37752987027e-07
-1.70326117838e-06
1.36445441613e-07
-1.68072919076e-06
7.24187234715e-08
-1.62690132676e-06
-4.52745583545e-08
-1.57603003799e-06
-1.6940787651e-07
-1.48855678624e-06
-3.11125067202e-07
-1.38388464764e-06
-4.29808018246e-07
-1.3431677761e-06
-4.59072566211e-07
-1.23090464917e-06
-5.14880869233e-07
-1.36978373249e-06
-5.53499582285e-07
-1.41801382746e-06
-6.28258319827e-07
-1.11241147086e-06
-8.77678202084e-07
8.92592056235e-07
-2.61527201909e-06
3.86628453591e-06
-4.74684880883e-06
6.59175079752e-06
-5.78741519578e-06
8.75871847059e-06
-6.2581458076e-06
1.05423118371e-05
-6.28625213778e-06
1.20452799098e-05
-5.98552369061e-06
1.3328806591e-05
-5.45555932185e-06
1.44336457969e-05
-4.76165633526e-06
1.53843588648e-05
-3.94308520762e-06
1.61822519953e-05
-3.02872997329e-06
1.68106162091e-05
-2.03897199851e-06
1.72426784477e-05
-9.89410950062e-07
1.74537986659e-05
1.06334997121e-07
1.74267792083e-05
1.23909682927e-06
1.71591706554e-05
2.38035993537e-06
1.66561627875e-05
3.48385691781e-06
1.59032338649e-05
4.47126523596e-06
1.47929980019e-05
5.24340643763e-06
1.31332857807e-05
5.73685823509e-06
1.06979456144e-05
5.83419738925e-06
7.22080777624e-06
5.22795735402e-06
3.85823516658e-06
3.1802523007e-06
2.31911896286e-06
1.8733400545e-07
1.98821850704e-06
-1.08751716687e-06
2.0006507942e-06
-1.13874589092e-06
1.82375037347e-06
-5.01687354116e-07
1.87855577293e-06
-1.18826778555e-07
2.05576797639e-06
-7.29806114634e-08
1.97730559141e-06
-7.43078705423e-08
2.00632021969e-06
-1.16054183513e-07
2.01350474815e-06
-5.82646044773e-08
2.02456634587e-06
-3.69244624731e-08
2.06491370191e-06
7.85282726974e-09
2.09893964122e-06
1.31850979872e-07
2.03103464667e-06
3.83303562068e-07
1.8869953069e-06
6.59011847835e-07
1.72833393121e-06
8.85561345955e-07
1.54437053708e-06
1.09705820939e-06
1.31220608585e-06
1.32713553395e-06
1.07042930402e-06
1.51431555617e-06
8.14814453767e-07
1.52664093501e-06
5.49035865042e-07
1.56193396711e-06
2.74723748042e-07
1.99917541534e-06
2.12902030357e-06
-4.30350490495e-08
4.90229935775e-07
-2.39602558876e-07
7.3488614475e-07
-3.05556011153e-07
1.06979669295e-06
-2.11171704392e-07
6.51258236196e-07
-2.45947573009e-07
3.31912034706e-07
-5.40071259702e-07
6.9823393561e-07
-7.36533424703e-07
1.0159848249e-06
-8.04338034975e-07
9.91026138691e-07
-7.93955217882e-07
8.03526313232e-07
-8.11739374441e-07
6.79933395845e-07
-7.1284502585e-07
3.73279032832e-07
-6.3852855352e-07
9.03063319799e-08
-6.83391118865e-07
7.79361074045e-08
-7.61840021194e-07
8.01956376719e-08
-9.39266942844e-07
2.02573356195e-07
-1.22341539717e-06
4.39909914438e-07
-1.2812801505e-06
3.95648710265e-07
-1.20428408929e-06
2.33709029157e-07
-1.33846955582e-06
3.69832428719e-07
-1.53092163137e-06
6.04583574977e-07
-1.64281632455e-06
6.75071678161e-07
-1.69494736014e-06
6.13382837342e-07
-1.72279780334e-06
5.34489179758e-07
-1.68366352065e-06
3.98760764545e-07
-1.59329885359e-06
2.49650725033e-07
-1.56688389166e-06
1.11879838976e-07
-1.48570174185e-06
-6.58098409355e-09
-1.47504574355e-06
-5.42051990804e-08
-1.42177012885e-06
-2.20484593339e-07
-1.34467624766e-06
-3.86764208042e-07
-1.27970405463e-06
-4.92995388884e-07
-1.30496087641e-06
-4.31718217133e-07
-1.29424730317e-06
-5.24686908123e-07
-1.32627865746e-06
-5.20040714471e-07
-1.06553878618e-06
-8.86745199743e-07
1.40191810645e-06
-3.33923181787e-06
4.8840783249e-06
-6.08737759785e-06
7.59775203219e-06
-7.45146276368e-06
9.7858460345e-06
-7.9668905536e-06
1.15510710836e-05
-8.01524313042e-06
1.30116652064e-05
-7.73908317117e-06
1.42534801053e-05
-7.22004975397e-06
1.53353389954e-05
-6.530391977e-06
1.62990465496e-05
-5.71856102462e-06
1.71736492082e-05
-4.81083223368e-06
1.79687941097e-05
-3.81684537511e-06
1.86726884853e-05
-2.73547778132e-06
1.92553542138e-05
-1.56362914829e-06
1.96777106468e-05
-3.06819186411e-07
1.98943659015e-05
1.0311151133e-06
1.98783310228e-05
2.40414358519e-06
1.96110835808e-05
3.75796277661e-06
1.90642170688e-05
5.02480021611e-06
1.8185539507e-05
6.12895791463e-06
1.69264983857e-05
7.00350275234e-06
1.51998874775e-05
7.56810950803e-06
1.27783444245e-05
7.65782536991e-06
8.98964804061e-06
6.98159487693e-06
5.14918109256e-06
4.04045715684e-06
3.66427102644e-06
4.10062534201e-07
3.27882603951e-06
-7.40119774283e-07
3.14072667794e-06
-3.5558481321e-07
2.91609985953e-06
1.1712467029e-07
2.25587884356e-06
6.05472150876e-07
1.81473708627e-06
3.74165237552e-07
1.88678366409e-06
-1.84489622622e-07
1.98807122748e-06
-1.57560331584e-07
2.0710088509e-06
-1.19139250474e-07
2.11988225255e-06
-4.0862804549e-08
2.0901106535e-06
1.62307750568e-07
1.98741017931e-06
4.87288634295e-07
1.87313123769e-06
7.75183596189e-07
1.73976961035e-06
1.02130887186e-06
1.56635887044e-06
1.2734002738e-06
1.35153429991e-06
1.54508741246e-06
1.15596795998e-06
1.71332351352e-06
8.69469098081e-07
1.81551211463e-06
5.60210212643e-07
1.87133380008e-06
3.1475465602e-07
2.25473404668e-06
2.44198146285e-06
-8.84076645042e-08
5.79913081145e-07
-3.06829656066e-07
9.55195129617e-07
-2.92471895097e-07
1.05723519477e-06
-1.38644453604e-07
4.98218800091e-07
-3.07901090846e-07
5.02322026348e-07
-6.10178598656e-07
1.00273417638e-06
-7.00089888862e-07
1.10829555581e-06
-7.6963820447e-07
1.06312868448e-06
-6.66200138477e-07
7.02175845706e-07
-6.36903349723e-07
6.52667794671e-07
-5.45108186385e-07
2.82348591937e-07
-6.29374405137e-07
1.75210389304e-07
-6.96595531928e-07
1.45577797377e-07
-8.2297481704e-07
2.07101999553e-07
-1.06492463315e-06
4.45696656717e-07
-1.16840151188e-06
5.44818427226e-07
-1.10366121816e-06
3.32078528479e-07
-1.21380460929e-06
3.45054816556e-07
-1.41351299652e-06
5.71154948133e-07
-1.54000646346e-06
7.33118427902e-07
-1.60169998972e-06
7.38924501438e-07
-1.64728415597e-06
6.60984794896e-07
-1.70317203495e-06
5.92634608604e-07
-1.73344910205e-06
4.31398138472e-07
-1.63659063267e-06
1.54432725821e-07
-1.5915679159e-06
6.89169993812e-08
-1.54991051479e-06
-4.66097774225e-08
-1.37930022592e-06
-2.22962205807e-07
-1.36317738134e-06
-2.35571935471e-07
-1.46021199145e-06
-2.88225707468e-07
-1.53568763992e-06
-4.15555223193e-07
-1.35512969379e-06
-6.11284289592e-07
-1.48432030522e-06
-3.9405016335e-07
-1.09509312393e-06
-9.07383520827e-07
1.72495616513e-06
-3.70168638352e-06
5.47101234064e-06
-7.07635748664e-06
8.20198461245e-06
-8.81035083362e-06
1.02780651734e-05
-9.51978978978e-06
1.19351774133e-05
-9.61658553854e-06
1.32638693504e-05
-9.33681597697e-06
1.43446179699e-05
-8.81291916199e-06
1.52540414043e-05
-8.12295789155e-06
1.60577289968e-05
-7.32752412614e-06
1.68079244881e-05
-6.4624644536e-06
1.75470983156e-05
-5.54338335185e-06
1.82991736293e-05
-4.56231740327e-06
1.90632582525e-05
-3.49200289927e-06
1.9815080133e-05
-2.30764400758e-06
2.05056370734e-05
-9.88618358015e-07
2.10562010934e-05
4.89204113219e-07
2.13937183128e-05
2.0750204114e-06
2.14680924432e-05
3.6911637125e-06
2.12323923172e-05
5.26758859949e-06
2.06408155953e-05
6.72735743319e-06
1.96538349085e-05
7.99670945818e-06
1.82233511221e-05
9.00417681858e-06
1.62549773334e-05
9.63219404465e-06
1.3538519297e-05
9.70364205669e-06
9.40090580572e-06
8.18547215443e-06
5.9021248848e-06
3.91923011017e-06
4.71895138811e-06
4.50162751634e-07
4.66800385639e-06
-2.964710945e-07
4.31526914515e-06
4.84719883508e-07
3.418454542e-06
1.51591774323e-06
2.24363455117e-06
1.56186982784e-06
1.89276885295e-06
1.71676627647e-07
1.94216438848e-06
-2.03849327157e-07
2.04562725733e-06
-2.20336479872e-07
2.09405116423e-06
-8.89747943149e-08
2.05872052262e-06
1.97977861343e-07
1.99281599806e-06
5.54082254701e-07
1.91252178806e-06
8.56993680526e-07
1.79926083802e-06
1.1367916807e-06
1.64539996757e-06
1.42982835213e-06
1.47100496672e-06
1.72236826354e-06
1.26598997649e-06
1.92084191811e-06
9.72108060045e-07
2.11238143566e-06
5.99258922806e-07
2.25017107433e-06
3.12968537084e-07
2.53732602205e-06
2.76104276736e-06
-1.30647547853e-07
7.11944967924e-07
-3.27839612701e-07
1.15428230257e-06
-2.2615190465e-07
9.5696751107e-07
-2.06788035408e-07
4.79683779879e-07
-4.62200199259e-07
7.5920402876e-07
-5.82466955207e-07
1.12527043591e-06
-6.561573925e-07
1.18433940474e-06
-6.93234961275e-07
1.10233792471e-06
-6.51614717303e-07
6.62130285686e-07
-6.33814959201e-07
6.36442947179e-07
-6.04073790161e-07
2.53208004214e-07
-6.64924715184e-07
2.36498686888e-07
-7.4815648867e-07
2.29279247088e-07
-9.27481107078e-07
3.87182357779e-07
-1.18277538907e-06
7.02402587361e-07
-1.1755961621e-06
5.39243515515e-07
-1.15489052322e-06
3.12480355457e-07
-1.28071285984e-06
4.72137023924e-07
-1.44324212801e-06
7.35480335043e-07
-1.52375520357e-06
8.15721602217e-07
-1.54735930685e-06
7.64552058655e-07
-1.52090935971e-06
6.36522621212e-07
-1.48590599107e-06
5.60020952627e-07
-1.45370781964e-06
4.00750164258e-07
-1.46435665924e-06
1.66938237878e-07
-1.44371170971e-06
4.99048805245e-08
-1.53053583835e-06
4.14643028988e-08
-1.60638090926e-06
-1.45413815526e-07
-1.63471685125e-06
-2.05875607812e-07
-1.60156599115e-06
-3.1971174603e-07
-1.66007750873e-06
-3.56444763489e-07
-1.84707350168e-06
-4.23022028063e-07
-1.58627843797e-06
-6.53720549756e-07
1.31774904087e-06
-3.80655356858e-06
5.39016125287e-06
-7.76567742099e-06
8.23933186094e-06
-9.91814538553e-06
1.02939284352e-05
-1.08577541261e-05
1.18138919883e-05
-1.10327811707e-05
1.29373005985e-05
-1.07333133979e-05
1.37614496359e-05
-1.01542957542e-05
1.43704967337e-05
-9.4158644358e-06
1.4846046264e-05
-8.59201836798e-06
1.52676508904e-05
-7.743146802e-06
1.57037812745e-05
-6.89187461971e-06
1.62168009437e-05
-6.04997179766e-06
1.6851769585e-05
-5.18986638033e-06
1.76176339881e-05
-4.25100361038e-06
1.85030205232e-05
-3.18472747056e-06
1.94798271701e-05
-1.95688668453e-06
2.04650604168e-05
-4.86317905475e-07
2.12999380885e-05
1.24938624961e-06
2.18825738804e-05
3.11765737403e-06
2.21278288292e-05
5.03067013083e-06
2.19681320098e-05
6.8945518534e-06
2.13581914303e-05
8.61286903857e-06
2.02722435875e-05
1.00950543656e-05
1.86756296694e-05
1.12318163856e-05
1.64826659241e-05
1.18996244141e-05
1.30260263722e-05
1.16482885797e-05
8.81122409321e-06
8.13889257123e-06
6.45531363694e-06
2.81110109725e-06
5.54293568424e-06
6.2119309061e-07
5.45061466011e-06
5.83376733144e-07
5.6287219311e-06
1.35191256512e-06
4.28533563272e-06
2.92565328852e-06
2.17614314787e-06
2.29225762237e-06
1.92143054987e-06
5.77176369856e-08
2.04915152763e-06
-3.46009588708e-07
2.12312040638e-06
-1.60222056888e-07
2.09272291487e-06
2.2941504865e-07
2.05360551214e-06
5.94077978888e-07
1.99601293089e-06
9.15916391341e-07
1.90021607737e-06
1.234375351e-06
1.76796432376e-06
1.56438700708e-06
1.61518173411e-06
1.87772302448e-06
1.38596924259e-06
2.15314276208e-06
1.07734433269e-06
2.42365404962e-06
6.63433306165e-07
2.66349378876e-06
3.10493284382e-07
2.90147056499e-06
3.06931939683e-06
-1.80314599284e-07
8.9387964088e-07
-3.51773191252e-07
1.32774675652e-06
-2.16772634611e-07
8.23127018138e-07
-2.75313576319e-07
5.39219338411e-07
-5.23613001182e-07
1.00930938763e-06
-5.00992367705e-07
1.10452272779e-06
-5.93207117277e-07
1.27880979811e-06
-5.33920847701e-07
1.04465200898e-06
-5.73265416476e-07
7.02680173543e-07
-5.23060188319e-07
5.87007528587e-07
-5.96240256749e-07
3.26841038516e-07
-6.82521930049e-07
3.23193492937e-07
-7.83674906916e-07
3.3095656635e-07
-9.7599573047e-07
5.80688287118e-07
-1.07942376293e-06
8.07427203697e-07
-1.00890182159e-06
4.69743764682e-07
-1.11931038303e-06
4.23946145762e-07
-1.28174087679e-06
6.36018413785e-07
-1.42227937616e-06
8.7786735373e-07
-1.5194224753e-06
9.14840907212e-07
-1.54376960174e-06
7.91058298156e-07
-1.57316466217e-06
6.68370043305e-07
-1.53385207981e-06
5.225515977e-07
-1.46669832546e-06
3.35515593571e-07
-1.55691030864e-06
2.585781194e-07
-1.52514392768e-06
1.91843657114e-08
-1.33811375922e-06
-1.43727284988e-07
-1.32434516715e-06
-1.58018814775e-07
-1.3160015247e-06
-2.12713416425e-07
-1.51168350102e-06
-1.2335087769e-07
-1.57385857166e-06
-2.93488535101e-07
-1.63872585722e-06
-3.57827275739e-07
4.25903913976e-07
-2.71483892906e-06
4.63681872887e-06
-8.0096474316e-06
7.71693906912e-06
-1.08388710818e-05
9.86777786279e-06
-1.20621946631e-05
1.13062026027e-05
-1.2289563443e-05
1.22027126423e-05
-1.19230527632e-05
1.26959879138e-05
-1.12204096707e-05
1.29028370251e-05
-1.03551101729e-05
1.29237689595e-05
-9.4305864622e-06
1.28507986935e-05
-8.51289505362e-06
1.27873750843e-05
-7.67322355563e-06
1.28155059108e-05
-6.91295751824e-06
1.30255107172e-05
-6.2523302194e-06
1.34837103838e-05
-5.63946102119e-06
1.41948419642e-05
-4.95302948163e-06
1.51385146666e-05
-4.11891754604e-06
1.63140410381e-05
-3.12243031473e-06
1.77291031115e-05
-1.88999337338e-06
1.9214741294e-05
-2.24348739666e-07
2.05143288184e-05
1.82875172729e-06
2.1464625652e-05
4.09140829236e-06
2.19512573422e-05
6.41728098194e-06
2.19077684996e-05
8.66397614543e-06
2.13055079554e-05
1.07025545989e-05
2.01300417819e-05
1.24106497407e-05
1.83576501282e-05
1.36749971367e-05
1.57439430167e-05
1.42633555808e-05
1.15600523209e-05
1.23265911708e-05
8.47295201816e-06
5.90189385604e-06
6.98791401825e-06
2.10839782383e-06
6.30314516444e-06
1.27214175444e-06
6.08956294131e-06
1.57215910198e-06
6.5770630618e-06
2.45201278666e-06
5.16239629321e-06
3.72752947554e-06
2.63066284277e-06
2.6004714854e-06
2.05024752193e-06
2.43573685159e-07
2.15562989118e-06
-2.62546559629e-07
2.15615389641e-06
2.30848542303e-07
2.14183939084e-06
6.10215025975e-07
2.10170473443e-06
9.57282627557e-07
2.03254620494e-06
1.30469683275e-06
1.9295338225e-06
1.66912916673e-06
1.77012617387e-06
2.03943567822e-06
1.51805982633e-06
2.40766188808e-06
1.17765951344e-06
2.76691097192e-06
7.65244240189e-07
3.08266593963e-06