/*--------------------------------*- C++ -*----------------------------------*\
| =========                 |                                                 |
| \\      /  F ield         | OpenFOAM: The Open Source CFD Toolbox           |
|  \\    /   O peration     | Version:  v1806                                 |
|   \\  /    A nd           | Web:      www.OpenFOAM.com                      |
|    \\/     M anipulation  |                                                 |
\*---------------------------------------------------------------------------*/
FoamFile
{
    version     2.0;
    format      ascii;
    class       volVectorField;
    location    "46";
    object      Ua;
}
// * * * * * * * * * * * * * * * * * * * * * * * * * * * * * * * * * * * * * //

dimensions      [0 1 -1 0 0 0 0];


internalField   nonuniform List<vector> 
6400
(
(0.00019591270578 0.000268455114065 0)
(0.000576070795276 0.000237359478735 0)
(0.000869678318574 0.000233605232141 0)
(0.00125735155255 0.000245586475829 0)
(0.00152656385664 0.000144069388434 0)
(0.00170361495448 1.64117992341e-05 0)
(0.00165452005965 -3.84801986059e-05 0)
(0.00155211538677 2.46052754418e-05 0)
(0.00175235382296 0.00011524446139 0)
(0.00210484653731 0.00012030627348 0)
(0.00199933026913 9.60545442219e-05 0)
(0.00234845196861 0.000173912093848 0)
(0.00260365244442 0.000182082667327 0)
(0.00282571042092 0.000125488320259 0)
(0.00285508827054 6.82302283247e-05 0)
(0.00289980485657 9.4028602082e-05 0)
(0.00309380497005 0.00012830172332 0)
(0.00320533426048 0.000111694510953 0)
(0.0031714088626 2.76493784144e-05 0)
(0.00301879098288 -7.20109065695e-05 0)
(0.00281847584124 -7.62674159337e-05 0)
(0.00266123551134 -4.50083551616e-05 0)
(0.00258175810645 -1.50541145394e-05 0)
(0.00251660011518 4.43188530877e-05 0)
(0.0025285164287 5.42802053873e-05 0)
(0.002502421997 1.69019431841e-05 0)
(0.00248742279374 4.14046440478e-05 0)
(0.00249910617852 5.21571386108e-05 0)
(0.00245919886253 2.73156499778e-05 0)
(0.00238929211149 -1.21252138309e-05 0)
(0.00224405105154 -1.2292049128e-06 0)
(0.00217773223314 4.24292331779e-06 0)
(0.00205423290187 -6.37804108884e-05 0)
(0.00183506967215 -0.000110853122786 0)
(0.00158463702933 -0.000142230502195 0)
(0.00131565078349 -0.000153195399117 0)
(0.00107100382342 -0.000171178788686 0)
(0.000762778629139 -0.000132923546323 0)
(0.000632388131938 -0.000100484303392 0)
(0.000421744894611 -8.35949119402e-05 0)
(0.000280147098146 1.09127717775e-05 0)
(0.000341213375754 0.000107390550253 0)
(0.000460832467345 3.30921761676e-05 0)
(0.000536649876752 3.39811616541e-05 0)
(0.000684484942383 0.000104692291649 0)
(0.000901937344895 7.05191035513e-05 0)
(0.00106288626638 -1.46997326969e-05 0)
(0.0011034963463 -0.00012273443945 0)
(0.00100189106165 -0.000207883865134 0)
(0.000818966867253 -0.000245729385065 0)
(0.000510449085914 -0.000219358245427 0)
(0.000389199218399 -0.000253149623018 0)
(0.000111194917976 -0.000191318863609 0)
(-0.000219010258938 -0.000177210773031 0)
(-0.000509579200479 -4.56929988885e-05 0)
(-0.000402765399607 9.79917973072e-05 0)
(-0.000291908200204 2.23231974132e-05 0)
(-0.000246253024031 -9.51708273289e-06 0)
(-0.000314176097307 -2.31943732229e-05 0)
(-0.000377389416698 -2.97288443594e-05 0)
(-0.000598579560103 -6.24206006922e-05 0)
(-0.000866110960897 -0.000146742020087 0)
(-0.00124645913462 -3.65135613287e-06 0)
(-0.00119420026143 1.21787490017e-06 0)
(-0.00118289129727 1.76832198553e-05 0)
(-0.00116077076759 1.60594154298e-05 0)
(-0.00114971139872 2.35587151748e-05 0)
(-0.00114509580617 2.90250989897e-05 0)
(-0.00113404070702 3.4375639092e-05 0)
(-0.00109307132608 4.1118990442e-05 0)
(-0.00104064307475 4.67073322339e-05 0)
(-0.000959082074773 5.02050576747e-05 0)
(-0.00086189241524 5.61824220235e-05 0)
(-0.000794181502832 6.95468138946e-05 0)
(-0.000623444821789 5.96569779997e-05 0)
(-0.000561993727198 5.7001719325e-05 0)
(-0.000384372995833 3.58111003161e-05 0)
(-0.000405797552687 5.5392537469e-05 0)
(-0.000177300979285 3.79379516605e-05 0)
(-0.000127698286938 7.66819451176e-05 0)
(6.85860629781e-05 0.00035833656581 0)
(0.000295892013878 0.000416485107902 0)
(0.000527778102884 0.000423655871106 0)
(0.00066719980433 0.000333137417386 0)
(0.00103457404612 0.000324277362654 0)
(0.00150867642453 0.000192552130311 0)
(0.0018444371593 -1.96497828294e-07 0)
(0.00200478142956 8.06822582914e-05 0)
(0.00214454406402 0.000244262438399 0)
(0.00232583916237 0.000227074261278 0)
(0.00250826305066 0.000234881986223 0)
(0.00266418904599 0.000312816509301 0)
(0.00277005139484 0.000269015433897 0)
(0.00285841403348 0.000153750092116 0)
(0.00298705275248 7.25800836077e-05 0)
(0.00309054469511 0.000173197007779 0)
(0.0031480646266 0.000173015540246 0)
(0.00311775264883 -0.000170607827074 0)
(0.00260268580973 -0.00031533707958 0)
(0.00254089772666 -0.000381304678843 0)
(0.00241813888701 -0.00032154976329 0)
(0.0023718598639 -0.00012192131645 0)
(0.00250754302806 -9.56151483735e-06 0)
(0.00268314741314 -5.25795362377e-05 0)
(0.00239227238683 -2.95313096488e-05 0)
(0.00258062012825 1.52810985317e-05 0)
(0.00266518448947 8.39230066071e-06 0)
(0.0026014603181 -5.96791544187e-05 0)
(0.00251331818572 -0.000136071893224 0)
(0.00236670014114 -0.000229009121575 0)
(0.00227462250144 -0.000241207051551 0)
(0.00195144954116 -0.000229912795914 0)
(0.00182583232499 -0.000372025291588 0)
(0.00154086303567 -0.000401503027185 0)
(0.00120846641401 -0.000385183227884 0)
(0.0011599974629 -0.00052893082312 0)
(0.000804781904614 -0.000461479430957 0)
(0.000599764202622 -0.000349015539051 0)
(0.000513982542776 -0.00026547584655 0)
(0.000329146922728 -0.000352164365892 0)
(0.000151054962059 -0.000191628213086 0)
(0.000206292739002 2.12949504318e-05 0)
(0.000320661297532 0.000167902726529 0)
(0.00034803889086 0.000417413283541 0)
(0.000430515765832 0.000634241890818 0)
(0.000589845974652 0.000772452520736 0)
(0.000749213593585 0.000843441316252 0)
(0.000865690731239 0.000802146890746 0)
(0.000926069346321 0.000740391004832 0)
(0.000798345171842 0.000643535812891 0)
(0.000407597268837 0.000477313080381 0)
(0.000113945647319 0.000240248526376 0)
(1.27849961034e-05 -4.47091744533e-06 0)
(-0.000314922130172 -0.000634363754701 0)
(-0.000696517510461 -0.000449656322469 0)
(-0.000688061993865 -0.000114678500803 0)
(-0.00227681782939 -0.000221629728519 0)
(-0.00271382961928 -6.75074346538e-05 0)
(-0.00284610316847 0.000183056860572 0)
(-0.00285166053199 0.000331782621202 0)
(-0.00237168807619 0.000265946921407 0)
(-0.000994128992342 -4.51748382458e-05 0)
(-0.00157232803952 -0.000114234336213 0)
(-0.00125336935179 -7.85716764162e-05 0)
(-0.00122351931825 2.24451757647e-05 0)
(-0.00111920922206 4.2531154807e-05 0)
(-0.00107445327578 3.43409470069e-05 0)
(-0.00111287359915 3.2829924848e-05 0)
(-0.00110776110264 4.99622146289e-05 0)
(-0.0010869318778 7.67342733027e-05 0)
(-0.00102442141613 0.000102523302709 0)
(-0.000935510791355 0.000121647527701 0)
(-0.000819963827671 0.000125304363922 0)
(-0.000775662018118 0.000142267246976 0)
(-0.000692574344696 0.000149660564537 0)
(-0.000609173749296 0.000149901162721 0)
(-0.000513434219374 0.000136829534139 0)
(-0.000415511667407 0.000156182680102 0)
(-0.000261536540458 0.00017807969465 0)
(-0.000118326242623 0.000296143541295 0)
(0.000114938543327 0.000606280109458 0)
(0.000293345819554 0.000692261276593 0)
(0.000451679884073 0.000717887323636 1.01594754494e-28)
(0.000920800600672 0.00082421789174 -1.07450640997e-28)
(0.00145067774866 0.000935393891174 -1.12964241809e-28)
(0.00165764354593 0.000722933012065 1.0659034926e-28)
(0.0017286327815 0.000229959387981 -1.10040224873e-28)
(0.00189151727329 0.000257437902024 1.20941673197e-28)
(0.00206696451395 0.000394930797784 0)
(0.00227989955049 0.000441080154857 0)
(0.00250376557219 0.000431398296954 0)
(0.00266141545341 0.000424717853895 0)
(0.00278001023771 0.000366737311472 0)
(0.00286010315652 0.000309761109296 0)
(0.00287876798942 0.000166952668203 0)
(0.00290550272798 -0.00012721048702 0)
(0.0018717259227 -0.000252458923616 0)
(0.00169169906038 -0.000352272476252 0)
(0.00162785032088 -0.000369961803588 0)
(0.00164277294716 -0.000231737970338 0)
(0.00205883339582 -9.69266121757e-05 0)
(0.00254567694779 4.74055073139e-05 0)
(0.00227407938505 0.000104486322537 0)
(0.00244407288863 7.97004517467e-05 0)
(0.00268841158077 0.000101521843294 0)
(0.00273059086961 0.000142631051642 0)
(0.00265089628339 2.01691184585e-05 0)
(0.00256165000801 -0.000118762784678 0)
(0.00245820019789 -0.000267352843264 0)
(0.00220669016492 -0.000337558618798 4.20055025767e-28)
(0.00218103280039 -0.000477233556143 -4.24637828013e-28)
(0.00182082096316 -0.000455235087159 0)
(0.00157939578931 -0.000522601402247 0)
(0.00161619498209 -0.000868039759415 0)
(0.000959197699266 -0.000566244967076 0)
(0.000797811680982 -0.000610710487168 0)
(0.000749958562781 -0.000822957336984 0)
(0.000385980046897 -0.000412689556395 0)
(0.000389397359333 -0.000251041655527 0)
(0.000410917173206 -0.000379498495173 0)
(0.00211213442882 0.0017151085116 0)
(0.0102685135083 0.00617851704588 0)
(0.024155158506 0.00648939440095 0)
(0.0334459132136 0.00330092758704 0)
(0.036459850363 0.000998577917619 0)
(0.03702299831 0.000626400281985 0)
(0.0341549117828 0.00142690850071 0)
(0.0294771284048 0.00281881111851 0)
(0.0235460576584 0.00413642706016 0)
(0.0173792780566 0.00487162863549 0)
(0.0120773580722 0.00455640348447 0)
(0.00736671995316 0.00329793221311 0)
(0.00307986162711 0.00162647621452 0)
(0.00033060476352 0.000376254766153 0)
(-0.000725147143916 -4.69860423575e-05 0)
(-0.00180314707418 -0.00059062134218 0)
(-0.00326947519533 -0.00104390407387 0)
(-0.00294968311842 -0.000496700512133 0)
(-0.00301377623903 0.000178672305786 0)
(-0.00297561941388 0.000691682094268 0)
(-0.00283450727182 0.00103505293411 0)
(-0.00255501103502 0.00100742085071 0)
(-0.00208779025105 0.000405788218133 0)
(-0.00123216154155 0.000172743651282 0)
(-0.00109962829306 0.00010982499764 0)
(-0.00107714244418 7.91123462687e-05 0)
(-0.00109056192407 5.83032221283e-05 0)
(-0.0010717438098 5.76398035006e-05 0)
(-0.0010483778603 8.94317167196e-05 0)
(-0.00100932467735 0.000133838938319 0)
(-0.000946188289414 0.000167519648341 0)
(-0.000884016064511 0.000181900864183 0)
(-0.000855577064869 0.000190141553466 0)
(-0.000811243759774 0.000215924502072 0)
(-0.000718794977852 0.000243651496387 0)
(-0.000611710824247 0.000248021169383 0)
(-0.000502785424859 0.000242240301449 0)
(-0.000399978652734 0.000290898811422 0)
(-0.000278682898167 0.00040796572779 0)
(-6.6287262663e-05 0.000420825152712 0)
(0.000113997664212 0.000950240198837 0)
(0.000100878242602 0.000574412188228 0)
(0.000385478627495 0.00116976583501 0)
(0.00093789060898 0.00133153796568 0)
(0.0011646850394 0.00103035256801 0)
(0.000483996386122 0.000271054913372 0)
(0.000560829237166 0.000246023214973 0)
(0.00115854736874 0.000600019375979 0)
(0.00183887094875 0.000816415401403 0)
(0.00212975476097 0.000730978569612 0)
(0.00245252713425 0.000670214193313 0)
(0.00265715103108 0.000589764751708 0)
(0.00274403368182 0.000423025842439 0)
(0.00267666921245 6.38150228467e-05 0)
(0.00198675445082 -0.000261548966568 0)
(0.00170929583219 -0.000442886454476 0)
(0.00161433390715 -0.000505914256709 0)
(0.00164399972747 -0.000395095462345 0)
(0.0018743726825 -0.000231605659322 0)
(0.00250430307998 3.95233050752e-05 0)
(0.00251622555273 0.00019834832536 0)
(0.00251289555842 0.000168978117356 0)
(0.00267735079031 0.000184814944055 0)
(0.0027787106618 0.000247998480354 0)
(0.0027611114049 0.000200517066894 0)
(0.00271293880764 6.06598708825e-05 0)
(0.00254670061407 -7.73210319421e-05 0)
(0.0025836004018 -0.000277314045487 0)
(0.00225840461028 -0.000402006654461 0)
(0.00235566197364 -0.000608724429981 0)
(0.00185520661301 -0.000609006291695 0)
(0.00201135414617 -0.000824044514741 0)
(0.00149863067036 -0.000778074922932 0)
(0.00124570497083 -0.000849537348162 0)
(0.00123839178154 -0.00117664776402 0)
(0.000687943696894 -0.000781076662513 0)
(0.000475164681895 -0.000757675043822 0)
(0.000415025595948 -0.000678217465726 0)
(0.0020816918406 0.000976214435649 0)
(0.0073558881506 0.00586062981709 0)
(0.0323681170617 0.013172433391 0)
(0.0399712518624 0.014628039416 0)
(0.0464674055243 0.0138207522648 0)
(0.0482652160563 0.00959129468467 0)
(0.0481937615858 0.00450306224358 0)
(0.0452167831672 0.000632525153817 -2.25559119151e-27)
(0.0398069181671 -0.00287712863648 2.24652656615e-27)
(0.0330233056962 -0.00558952722693 0)
(0.0257497589187 -0.00744623074363 0)
(0.0188232883186 -0.00808730205066 0)
(0.0127616471518 -0.00732935322493 0)
(0.00760439133725 -0.00492404517274 0)
(0.00319219167205 -0.0011573202979 0)
(-9.47182413341e-05 0.0021347256639 0)
(-0.00211605333773 0.002629801019 0)
(-0.00334315755307 0.00125686002554 0)
(-0.00348271244825 0.000105940439409 0)
(-0.00266994180437 0.000182924712598 -1.74500721175e-27)
(-0.00212357015603 0.00051359958675 1.48882500912e-27)
(-0.00191057137845 0.000828972779273 0)
(-0.00192049645378 0.00106352209055 0)
(-0.00196434673415 0.0011257428996 0)
(-0.00185677803599 0.000999582938166 0)
(-0.00127118002213 0.000568011489866 0)
(-0.00115588970745 0.000238260125519 0)
(-0.00104229422571 0.000110055831916 0)
(-0.00101515315232 7.80636606215e-05 0)
(-0.00100774082063 8.65039949335e-05 0)
(-0.000993077035792 0.000125059895025 0)
(-0.000983356824547 0.000180607321311 0)
(-0.000955254958799 0.000218194317456 0)
(-0.000920012326055 0.000232328042819 0)
(-0.000858505309107 0.000256431836307 0)
(-0.000734612749165 0.000291134725782 0)
(-0.000638358660077 0.000329239046838 0)
(-0.000545355505396 0.000361034734094 0)
(-0.000423821539728 0.000367332651817 0)
(-0.000258070873617 0.000339698755035 0)
(-0.000191708958124 0.000471292627745 0)
(-6.01730019537e-05 0.000561879860863 0)
(-5.75678312331e-06 0.000894741455058 0)
(3.01831504629e-05 0.000717074192655 0)
(0.000421033322439 0.00173631891963 0)
(0.000796178512836 0.00151771335281 0)
(0.00062119267916 0.000721811313427 0)
(0.00043967533674 0.000325784329834 0)
(0.000738916588545 0.000647286793272 0)
(0.00152529327734 0.00135257592822 0)
(0.0018191183607 0.00127143341801 0)
(0.00208314735861 0.00105616463352 0)
(0.00233414118588 0.000937988230472 0)
(0.00246827359278 0.000651883379482 0)
(0.00212101165567 6.54717328877e-05 0)
(0.00170198289427 -0.000290475763477 0)
(0.00172640654672 -0.00048941109399 0)
(0.00179271471855 -0.00053248766059 0)
(0.00195945147065 -0.000423675558801 0)
(0.00229741192585 -0.000134983405176 0)
(0.00279764225342 0.000180019898545 0)
(0.00250084629016 0.000167854746503 0)
(0.00249408614967 0.000203271637994 0)
(0.00270329091277 0.000312359409246 0)
(0.00276600536355 0.000332074436328 0)
(0.0027786503107 0.000236969748948 0)
(0.00274035841062 0.000107608416007 0)
(0.00260523157886 -1.63905863773e-06 0)
(0.00269406383882 -0.000234280287752 0)
(0.00227120010753 -0.000368727767375 0)
(0.00250784331896 -0.00064779284266 0)
(0.00189848400189 -0.000672608467689 0)
(0.00222366171655 -0.00100611178754 3.83612235864e-28)
(0.00155619581944 -0.000834097843826 -2.51567460766e-28)
(0.00166379089829 -0.00111530965113 0)
(0.00166011058622 -0.00147475620019 0)
(0.000973888428316 -0.00112301660094 0)
(0.000816931422264 -0.00133898545715 0)
(0.000192309037256 -0.00121966263424 0)
(0.00175014012167 0.00270871579459 0)
(0.0199686452097 0.0144856201627 0)
(0.0407860424525 0.023311802848 0)
(0.0484545316844 0.0273451145818 0)
(0.0533318382024 0.0243516370984 0)
(0.0546366180412 0.0193822741163 0)
(0.0527198021217 0.011113199897 0)
(0.049383977832 0.00269617743964 0)
(0.0446587858927 -0.00468036546109 0)
(0.0393799261502 -0.0107598905382 0)
(0.0341128038288 -0.0149976318471 0)
(0.029229169752 -0.0174008391506 0)
(0.0246872783038 -0.0179634697766 0)
(0.0204471807415 -0.0167788890735 0)
(0.0161839340869 -0.0140636057112 0)
(0.0114421602178 -0.0100394575392 0)
(0.0064104977692 -0.00512448343769 0)
(0.00206752101279 -0.000219597376132 0)
(-0.000593932034305 0.00292029339597 0)
(-0.00163604292106 0.0034123391643 0)
(-0.00210434573456 0.00249113026623 0)
(-0.00203322014906 0.00128733416417 0)
(-0.00179131330054 0.0008085331526 0)
(-0.00170552146383 0.00106297959474 0)
(-0.00174400352267 0.00124534004854 0)
(-0.00175874103912 0.00132141438086 0)
(-0.00136726793692 0.000882533599411 0)
(-0.00114284054323 0.00033996665394 0)
(-0.00106299407926 0.000189447703453 0)
(-0.00101112998223 0.000133510992862 0)
(-0.00096990014593 0.000121875193894 0)
(-0.000942941942007 0.000149386398428 0)
(-0.000938171398838 0.000200127733833 0)
(-0.000940406413685 0.000250354406258 0)
(-0.000894456371427 0.000296072288231 0)
(-0.000767988880831 0.000336674559242 0)
(-0.000678528249104 0.000386424874916 0)
(-0.000593318237382 0.000438615896805 0)
(-0.000492603836843 0.000484247210603 0)
(-0.000358777872342 0.000464746406887 0)
(-0.000243931504675 0.000453235144725 0)
(-0.000166330230896 0.000606657416554 0)
(-3.80507136126e-05 0.000651711597621 0)
(-1.10084640295e-05 0.00082778723974 0)
(6.84639039953e-05 0.000902242884606 0)
(0.00046704606091 0.00196934520108 0)
(0.000569404621732 0.00131627216243 0)
(0.00036284890279 0.000506368280476 0)
(0.000453279385579 0.000494424282875 0)
(0.00117089486368 0.00133368953442 0)
(0.00168008548029 0.00173555903681 0)
(0.0017973799397 0.00150077365016 0)
(0.00196019285722 0.00125673945241 0)
(0.00206223358419 0.00088125972556 0)
(0.00152426923507 0.000270035689733 0)
(0.00135109037618 -0.000132120763633 0)
(0.00147702997955 -0.000309795767267 0)
(0.00158970618655 -0.000357571503417 0)
(0.00185889266398 -0.000269958706382 0)
(0.00229762395069 9.06161636219e-06 0)
(0.00284301262741 0.000238194682353 0)
(0.00235394107062 7.16515669686e-05 0)
(0.00241002584912 0.000132369647338 0)
(0.00271441033197 0.000374850812965 0)
(0.00275598668102 0.000431657049179 0)
(0.00277490406298 0.000355150905187 0)
(0.00269789568558 0.000233048410876 0)
(0.00279011859005 7.38029693126e-05 0)
(0.00274119463456 -0.000184890434253 0)
(0.00220509466875 -0.000336542438702 0)
(0.00263204635734 -0.000636530054914 0)
(0.00185403382438 -0.000663248015675 0)
(0.00235644316138 -0.00111433481136 0)
(0.00146817928978 -0.000947086086686 0)
(0.00184411087417 -0.00131996181105 0)
(0.00121470921671 -0.000980622905404 0)
(0.00124564191216 -0.00133901406713 0)
(0.00108090708569 -0.00167393850718 0)
(0.000751099034816 -0.00143561249596 0)
(0.00227830701956 0.00393912331151 0)
(0.0320903457487 0.0213948738334 0)
(0.0450882446183 0.0321155316661 0)
(0.054481896434 0.0371686159283 0)
(0.0568875992701 0.033904335125 0)
(0.0574743931096 0.0257016331803 0)
(0.0551567184339 0.0155523316894 0)
(0.0516759956031 0.00391043085182 0)
(0.0478120384283 -0.00653380444846 0)
(0.043986165805 -0.014595811965 0)
(0.0406518984852 -0.0197407903946 0)
(0.0378666470205 -0.0220200565755 0)
(0.035524943738 -0.022186694229 0)
(0.0332403103605 -0.0211271440728 0)
(0.030670386782 -0.0190949995448 0)
(0.0275473412396 -0.0161968347163 0)
(0.0235304864447 -0.012472925194 0)
(0.0186414329757 -0.00809719495952 0)
(0.0133102881222 -0.00338734464634 0)
(0.00806809681117 0.00120684297145 0)
(0.00345003140392 0.00514733260146 0)
(9.88482509797e-05 0.00708682028852 0)
(-0.00162775008471 0.00599864700726 0)
(-0.00210008276363 0.00260243490561 0)
(-0.00217166385225 0.00128962232787 0)
(-0.00186344947058 0.00119043676494 0)
(-0.00116359120313 0.000884479800685 0)
(-0.00167165411973 0.00126137193201 0)
(-0.000974734128476 0.000445397917427 0)
(-0.000969996038631 0.000241805597409 0)
(-0.000955260761189 0.000188616961195 0)
(-0.000925405439587 0.000161714674952 0)
(-0.000899023539291 0.00016836270351 0)
(-0.000919806857956 0.00021835195455 0)
(-0.000922478335959 0.00030011004304 0)
(-0.000814319794427 0.000364561040088 0)
(-0.000716492038217 0.00041864492844 0)
(-0.000652557962916 0.000482014510905 0)
(-0.000560299992317 0.00054437673121 0)
(-0.000469002333619 0.000597238919776 0)
(-0.000338494868123 0.000549957085819 0)
(-0.000237313574625 0.000551479982458 0)
(-0.000161233619309 0.000711706629074 0)
(-4.41491350434e-05 0.000738434591708 0)
(2.85219716619e-05 0.000907742360643 0)
(0.000237834904743 0.00127885678115 0)
(0.000713673866202 0.00217446028653 0)
(0.000696593566244 0.00172113603915 0)
(0.000350796293253 0.00058989607648 0)
(0.000758771276942 0.00102649821218 0)
(0.00154773794978 0.00195866802993 0)
(0.00166929759806 0.00192497063442 0)
(0.00178584010936 0.00159070714775 0)
(0.00163047021867 0.00118016900866 0)
(0.00192365777184 0.000735928287045 -4.92954230385e-28)
(0.00121371223504 3.36288080625e-05 2.08503320011e-28)
(0.00147761553445 -0.000121727470982 0)
(0.00150096599829 -0.000183353938734 0)
(0.00169669831633 -0.000119586290888 0)
(0.00214538889199 0.000193688670274 0)
(0.00276235914776 0.000416860795752 0)
(0.00218262782619 8.40574447518e-05 0)
(0.00225594982268 5.12735744296e-05 0)
(0.00266119776825 0.000369893039258 0)
(0.00273219424103 0.000557954983719 0)
(0.00279978333093 0.000471708570738 0)
(0.00279191576677 0.000319850358014 0)
(0.00275597557958 0.000156238975729 0)
(0.00260252405712 -5.1025367918e-05 0)
(0.00225675994647 -0.000330783418327 0)
(0.00252133782161 -0.000561685699341 0)
(0.00180315878681 -0.000577604140464 0)
(0.00235513597346 -0.00105131929713 0)
(0.00158172348055 -0.00103130651094 0)
(0.00187971679582 -0.00138667346601 0)
(0.00130942871658 -0.00113975617799 -2.07836090886e-28)
(0.0014563876954 -0.00153240314907 2.72551289541e-28)
(0.000896383727919 -0.00125557636988 0)
(0.000629819342603 -0.00158002542449 0)
(0.00261039734086 0.005433705858 0)
(0.0336817765028 0.0266225643916 0)
(0.0474694135499 0.0397035343677 0)
(0.0563424858841 0.0445236170452 0)
(0.0597903649172 0.0429792424355 0)
(0.0589398919431 0.0343093455999 0)
(0.0568400551869 0.0226949395459 0)
(0.05358044878 0.0101349959702 0)
(0.0506419061782 -0.00155431877757 0)
(0.0482558454599 -0.0104342619967 0)
(0.0466457962663 -0.0160223678895 0)
(0.0457499638812 -0.0187398826717 0)
(0.0452040594532 -0.019581003563 0)
(0.0445894118068 -0.0197167492504 0)
(0.0435148755426 -0.019758124691 0)
(0.0415346798521 -0.0194406264992 0)
(0.0384425839025 -0.0186538279738 0)
(0.0340425306054 -0.0171679177968 0)
(0.0284541839959 -0.0147796798636 0)
(0.0220523486093 -0.0113620474152 0)
(0.0152068372533 -0.00681694045092 0)
(0.00847877807181 -0.00120160416025 0)
(0.00280949415716 0.00438943838859 0)
(-0.000538205962286 0.00827995879042 0)
(-0.00183537464451 0.00829285769068 0)
(-0.00270230354186 0.00478674018716 0)
(-0.00290580664935 0.00222642324615 0)
(-0.00278806557823 0.00169181066625 0)
(-0.00215799347309 0.00162604762173 0)
(-0.000959270186195 0.000681553477507 0)
(-0.000834376631237 0.000253063593649 0)
(-0.000900575580714 0.000205187332857 0)
(-0.000910704787744 0.000183915562205 0)
(-0.000905646076344 0.000189811169969 0)
(-0.00091360643472 0.000253333731499 0)
(-0.000868606088797 0.000356162709009 0)
(-0.000764625684119 0.000430030795085 0)
(-0.000709826358739 0.000502749844951 0)
(-0.000637107715635 0.00057391883594 0)
(-0.000553755820026 0.000647800159105 0)
(-0.000455194169048 0.000670763166641 0)
(-0.000356716418273 0.000662330244883 0)
(-0.000238602828012 0.000652668562562 0)
(-0.000158630937768 0.000799124691476 0)
(-4.52028732503e-05 0.000851238544389 0)
(5.66637594424e-05 0.00107789028813 0)
(0.00041028698431 0.00175225457457 0)
(0.000887093963865 0.00218202016229 0)
(0.000375822213058 0.000884341095493 0)
(0.000363265031117 0.000763953570602 0)
(0.00110098260502 0.00179218235686 0)
(0.00147312025345 0.00215914028296 0)
(0.00167808813827 0.00207720315966 0)
(0.00152932177751 0.00145884385221 0)
(0.00163595336356 0.00112836154115 0)
(0.00110664851233 0.000405193974337 0)
(0.00133146295456 5.66940726561e-05 0)
(0.0014892835312 -1.01354022891e-05 0)
(0.00152243666537 -7.33728546991e-06 0)
(0.00192193842941 0.000255060115812 0)
(0.0025961520319 0.000598917899262 0)
(0.00208471042322 0.000285542406911 0)
(0.00213447589762 7.15937356436e-05 0)
(0.00247717626461 0.000314906484002 0)
(0.0027645946154 0.00059484016479 0)
(0.00273824843351 0.000634337143564 0)
(0.00269290580896 0.000507428073963 0)
(0.0028500629146 0.000336155257336 0)
(0.00273977665086 9.73875155789e-05 0)
(0.00294262995627 -0.000354679825519 0)
(0.00225594830715 -0.00045930615943 0)
(0.00268810486184 -0.000845089690115 0)
(0.00213517579884 -0.00087669389396 0)
(0.00192965677324 -0.000945115798195 0)
(0.00178273187536 -0.00114071362185 0)
(0.00215073840815 -0.00170318682452 0)
(0.00163067819187 -0.00151044267132 0)
(0.00100668447694 -0.00134448806482 0)
(0.000635437479761 -0.001844308489 0)
(0.00153732357039 0.00511145314743 0)
(0.0328433705031 0.0291104146098 0)
(0.0474458128818 0.045538009528 0)
(0.0562485502558 0.0514277782747 0)
(0.0603048380429 0.0503018605539 0)
(0.0598404900061 0.0436541629128 0)
(0.05749410971 0.0318685213888 0)
(0.0548563179016 0.018628588148 0)
(0.0523786238943 0.00586064673413 0)
(0.0509118250839 -0.00446170738407 0)
(0.0504090748879 -0.0113603402277 -1.19094802643e-27)
(0.0508128339211 -0.0151359937217 1.21060628829e-27)
(0.0517523925486 -0.016825034711 0)
(0.0526784507919 -0.0176127221384 0)
(0.0530635267161 -0.0184357758056 0)
(0.0525933440778 -0.0196941803691 0)
(0.0506811045097 -0.0209908268452 0)
(0.0472710004198 -0.0220343617194 0)
(0.0423365369828 -0.0225541094324 0)
(0.0361427196636 -0.0222397496224 0)
(0.0291203806763 -0.0207579796534 0)
(0.0217405266825 -0.0177627563673 0)
(0.0143508787974 -0.0130346853653 0)
(0.00750709902852 -0.00656325479442 0)
(0.00190645271342 0.000782800948592 0)
(-0.0014572387632 0.00709344349997 0)
(-0.00239625447029 0.0083679657361 0)
(-0.00341367775586 0.00637136003926 0)
(-0.00424164394941 0.00366270539969 0)
(-0.00394378583434 0.00262376012483 0)
(-0.00183992644176 0.00131860899792 0)
(-0.000759168764586 0.000333575360738 0)
(-0.000841387700994 0.000202614118666 0)
(-0.00087127211217 0.000178717370559 0)
(-0.000875161262338 0.000202355753473 0)
(-0.000874321980126 0.000290529991514 0)
(-0.000824942459513 0.000405646018397 0)
(-0.000760497824016 0.000495066956281 0)
(-0.000713346417011 0.000581888841934 0)
(-0.000638347427585 0.000663766456916 0)
(-0.000561952157806 0.000736180743943 0)
(-0.000465335089352 0.00075264429193 0)
(-0.000380848744835 0.000780239559037 0)
(-0.000247878023398 0.000783076759157 0)
(-0.000147532828646 0.000889494742404 0)
(-4.4171022839e-05 0.000972316451139 0)
(8.38331767462e-05 0.00131534335294 0)
(0.000564598124563 0.00225101321908 0)
(0.000756605449426 0.00211726898403 0)
(0.000384792429041 0.000969327321707 0)
(0.000616014296465 0.00116438192733 0)
(0.00136662849076 0.00232051957984 0)
(0.00133929281546 0.00233781794671 0)
(0.0016902959333 0.00217971529309 0)
(0.00120588488683 0.00126369939896 0)
(0.00187626700402 0.00121805092305 0)
(0.00115896445431 0.000378571097392 0)
(0.00148254669568 0.000221443895833 0)
(0.00154427370035 0.000137045545787 0)
(0.00171893547624 0.00026848371024 0)
(0.00229292583356 0.000765040640311 0)
(0.00271678654519 0.000704182819147 0)
(0.00212548313001 0.000181271350069 0)
(0.00235928942608 0.000252489683168 0)
(0.00265995383648 0.000580414456993 0)
(0.00274322510231 0.000707852047349 0)
(0.00279993375404 0.000617938085244 0)
(0.00258675316504 0.000451657221194 0)
(0.00263288283793 0.00026690273401 0)
(0.00246192066121 6.36924441435e-05 0)
(0.00223435610297 -0.000361022427225 0)
(0.00273181976808 -0.000678930497915 0)
(0.00186308466036 -0.000575789648205 0)
(0.00298089453786 -0.00132676533338 0)
(0.00187167628996 -0.00109184391788 0)
(0.00275417478769 -0.00164390626223 0)
(0.00163550806651 -0.00123196426781 0)
(0.00228638047836 -0.00222665391398 0)
(0.00112765496241 -0.00232639826574 -4.42414613726e-28)
(-9.1234374912e-05 0.0039844876367 8.26871657018e-28)
(0.0291397886198 0.0290808309055 0)
(0.0459436435124 0.0484759406804 0)
(0.0550885951975 0.0568752834234 0)
(0.0595082177561 0.0570906157346 0)
(0.0597527065053 0.0518904245357 0)
(0.0578647149623 0.0419039425967 0)
(0.0557852870458 0.0286463628447 0)
(0.0542587664809 0.0153145487313 0)
(0.0536580631677 0.00376759341528 0)
(0.0543321771692 -0.00454388402934 0)
(0.0560581759625 -0.00948714247531 0)
(0.0585259108279 -0.0119074107431 0)
(0.0611521674964 -0.0130952146254 0)
(0.0632014076807 -0.0142259485023 0)
(0.0640518825513 -0.0160688721166 0)
(0.0633420811031 -0.0188527813194 0)
(0.0608896335822 -0.0219812518698 0)
(0.0565390171746 -0.0248779256731 0)
(0.0505400870989 -0.027220296215 0)
(0.0433007961556 -0.0286477388376 0)
(0.0353667891325 -0.0288033072924 0)
(0.0272794086973 -0.0272778032949 0)
(0.0194365981142 -0.0237285572742 0)
(0.0119297139062 -0.0180205438744 0)
(0.00513252626651 -0.00994481833124 0)
(-0.000108268769105 -0.000644540028199 0)
(-0.00281948765071 0.00712539934257 0)
(-0.00285136687257 0.00825376934249 0)
(-0.00372141675872 0.00635031798996 0)
(-0.00528440602584 0.00517056616673 0)
(-0.00597036623659 0.00482192636758 0)
(-0.00127321283158 0.000771369333566 0)
(-0.000801150705787 0.000209142099527 0)
(-0.000837650080742 0.000151417800592 0)
(-0.000871964258361 0.000209495974105 0)
(-0.000860245238007 0.000325058514935 0)
(-0.000818400799329 0.000448823517794 0)
(-0.000780720355158 0.000559729142039 0)
(-0.000726653607218 0.000661196632303 0)
(-0.000651401512781 0.000748182181601 0)
(-0.000571333960587 0.000810559815142 0)
(-0.000484532864661 0.000849904518779 0)
(-0.000387006097891 0.000894635318577 0)
(-0.000262466373125 0.000937362603309 0)
(-0.000139449776922 0.00100143484288 0)
(-2.94815769045e-05 0.0010664267794 0)
(0.000127359110079 0.00166961033845 0)
(0.000734888755974 0.00269662467047 0)
(0.000702571783833 0.00191479314475 0)
(0.000404709476323 0.000992810576906 0)
(0.00100622001612 0.00185513534368 0)
(0.00117033734463 0.00220691871009 0)
(0.00126535138351 0.00251211422263 0)
(0.00144116143982 0.00216862899653 0)
(0.00102507323534 0.00117636083158 0)
(0.00148606448753 0.00103672675673 0)
(0.00119293466309 0.000401104396323 0)
(0.00152177008366 0.000366101630469 0)
(0.0015529982277 0.00032161883279 0)
(0.00188483420333 0.000622614043769 0)
(0.00256093989875 0.00109473786871 0)