/*--------------------------------*- C++ -*----------------------------------*\
| =========                 |                                                 |
| \\      /  F ield         | OpenFOAM: The Open Source CFD Toolbox           |
|  \\    /   O peration     | Version:  v1806                                 |
|   \\  /    A nd           | Web:      www.OpenFOAM.com                      |
|    \\/     M anipulation  |                                                 |
\*---------------------------------------------------------------------------*/
FoamFile
{
    version     2.0;
    format      ascii;
    class       volScalarField;
    location    "917";
    object      alphak;
}
// * * * * * * * * * * * * * * * * * * * * * * * * * * * * * * * * * * * * * //

dimensions      [0 0 -1 0 0 0 0];


internalField   nonuniform List<scalar> 
6400
(
0.911737697794
1.48782656953
2.38074511824
3.02556167091
3.63976683022
4.24559560085
4.97393994377
5.78293823983
6.34200975736
7.15217261995
8.49141209193
9.51422947112
10.4002369285
11.367831537
12.5148845098
13.7267180095
14.8577746675
15.9295098392
16.8460391026
17.462615339
17.8979895994
18.5022607681
19.4619290524
20.7363032447
22.1064611448
23.372429911
24.4768512495
25.5207772139
26.5970250358
27.7208734361
28.836975807
29.7713671064
30.447686541
30.9714236749
31.3938590012
31.7357131525
32.2357769383
32.9107058886
33.3115056287
33.5188110828
34.0505383888
35.01639672
35.9617345084
36.5413233929
36.7838203366
36.783483964
36.603841272
36.2829494918
35.8335402275
35.2738255655
34.5349075267
33.4292679415
31.922600221
30.105201554
28.3590455504
26.6810621221
24.5310872356
21.7430099038
18.8354609671
16.2224182911
13.5874762698
10.8517404208
8.39618894369
7.69777310247
10.0488938645
14.247584544
16.8581907784
16.2915789244
14.0815417531
12.3224980244
11.3902136374
11.6224122947
12.2519195085
12.1979891125
14.4070386258
13.8981028314
15.880268129
9.77309404628
12.8501531186
4.79745450006
3.1839633507
2.58463665879
3.24408616453
4.53959122279
4.59063051381
4.64473585598
4.98070193454
5.53599906615
6.30318663679
7.26536149571
8.40404277883
9.54479360882
10.5740462837
11.567649845
12.5901791969
13.7490981417
14.9725798575
16.1388933
17.2772449742
17.7403073135
18.01735155
18.6122691274
19.5644044641
20.8328314855
22.2981625056
23.5203618598
24.6014378391
25.6755695856
26.762734144
27.8599085535
28.953734603
29.9562860658
30.6260831108
31.1413776698
31.5881006264
31.870193672
32.4044216195
33.1042512115
33.4772176188
33.5870135635
34.0969397116
35.4277570404
36.5786805237
37.0850186377
37.2819670833
37.2314818931
36.990152662
36.6267858609
36.0664967798
35.3853334262
34.6925292642
33.947677839
32.5729693392
30.3268591648
28.6572040185
26.8257846061
24.3012667447
21.5689657328
18.8213052387
16.0793767752
13.4556423479
11.1040741112
8.74442936595
8.18681473591
10.3770196053
15.2951011279
18.6194864094
17.094117859
14.7213838806
12.6549934225
11.9052518366
12.3563831723
13.5569154707
13.0177562921
12.9519700389
12.5069322339
11.387960836
9.60564203653
8.11430159685
4.19341045331
3.34414049517
2.98814402501
3.52100127973
3.90740670685
4.57903219729
5.10493772103
5.15784590828
5.42023609028
6.19453352138
7.23471194828
8.38611691112
9.54583308431
10.6163185702
11.608616311
12.4876128459
13.5512899041
16.0636170204
18.0835185949
18.7159019771
18.4940177131
17.823881054
18.3390539347
19.6618992429
20.9747107322
22.2436876835
23.5145339492
24.6808537981
25.7568816705
26.8251245004
27.914674938
28.9827168786
30.0560381317
30.7152602493
31.0530969522
31.7294332136
32.0328950385
32.3452053835
33.1770110725
33.6072068399
33.7866093699
34.3111922821
35.2489469364
36.1638737033
36.7427016704
37.0100500757
37.0490878807
36.9022319229
36.5888564912
36.1123038638
35.4905668395
34.7183380943
33.6834703479
32.2655126088
30.6658849562
28.96895273
26.7757931633
24.2302485367
21.5451462411
18.8140058366
16.1163903519
13.5376303365
11.0600912483
9.26712137509
9.47402414395
12.6300510022
16.3297392279
18.0831681291
17.9026515099
16.14610559
14.3793193488
13.6546821425
13.5611925056
12.9013840945
12.3440268644
12.4073963381
12.1639611617
11.2686595517
9.68991252013
7.25322378634
7.4716149
3.47270979086
5.62468778989
3.94336887554
4.13791634963
4.88969167643
11.999571761
10.4498429059
5.89594470106
6.14401188306
7.21668801476
8.40140458069
9.58352323606
10.6284489514
11.6147275943
13.2852994975
15.3487462833
17.1097678964
17.8091420675
17.2998676621
17.0535021357
17.679271529
18.5605842103
19.6649691108
20.9653373012
22.3108797286
23.6056804515
24.7938925521
25.8551181549
26.9332427525
27.9696800909
29.1251995091
30.0513512022
30.914075618
31.2254217558
31.399232529
32.0884264372
32.4867807082
32.9085523035
33.4747123585
33.9942069822
34.6079710192
35.4188857614
36.2235125691
36.7983197232
37.1026193957
37.1762199384
37.0553795795
36.7611858882
36.3023115781
35.6833518387
34.8835361068
33.8369306231
32.4982737552
30.9182630072
29.0675862927
26.8312589355
24.2761501834
21.5781984555
18.857277676
16.2093044633
13.7489628867
11.7133629085
10.7166660145
11.0654620655
12.6802966725
16.8310808414
19.778172087
19.6716196829
17.843752168
15.3801240621
13.6981111254
12.8667565964
13.0542295409
14.5538887262
14.5568511154
13.2952366799
13.2269259339
16.5906457923
12.9532605857
10.9385278304
5.90746224068
7.73892951117
4.84613271915
5.17019339744
6.86431491107
11.9025554101
8.59593964642
6.47256514287
6.6732983871
7.42744249126
8.53161124868
9.72282880206
11.1881720131
13.3582360029
14.4798220599
15.0968732018
15.494987482
15.7847471562
16.2843101706
17.085384644
17.7912050077
18.6179534338
19.7500003971
21.0490061379
22.4011555559
23.717264454
24.88681592
26.0381838015
27.0237716025
28.1812475452
29.1604175238
30.4898808504
30.8603572483
30.9572662152
31.4450967663
31.7742855853
32.3339226427
32.9900233864
33.6299756094
34.2321556297
34.8778755244
35.6200224075
36.3485317994
36.9092014153
37.2386438791
37.3438363374
37.249884439
36.9777066556
36.5378843847
35.9285936559
35.1263008894
34.0874558633
32.7811964115
31.1964310077
29.2767112266
26.9788104276
24.4020708759
21.7152627982
19.0571675962
16.5661151682
14.4405718334
13.0079627421
12.5940505806
12.5714491146
13.3887624311
16.7155787914
20.0181427673
21.0416482067
19.6906216262
16.8157963486
14.2343476843
13.8409352274
16.131149704
17.0301882944
16.0280320895
15.1558018955
17.8946415144
20.9591680607
16.2059108775
15.3102738853
10.1749926357
9.37297081691
6.04590070676
6.51260194527
12.1974079357
11.7161970789
7.2582652805
7.1238820568
7.33092894852
7.78351312366
8.74713860934
11.2590929516
14.3220217937
14.9084376569
14.802880224
14.3370230948
14.4733191246
15.206321522
16.3291235481
17.0308243273
17.7071380152
18.6820431315
19.8725315722
21.1897062881
22.4828329184
23.8023458244
25.1534149132
26.1269264017
27.3968044758
28.2302137721
29.7365388125
30.3282313608
31.277630366
31.0925018781
31.041033918
31.5940360844
32.3692129327
33.1337183712
33.8327225267
34.4853009715
35.1515206034
35.8581892379
36.5376144866
37.0825776637
37.4273001458
37.5590585815
37.491560157
37.2439418881
36.8275206487
36.2378921397
35.4515576048
34.4316140757
33.1399051421
31.533837655
29.5631747679
27.2380108613
24.6839811415
22.0751229685
19.575988715
17.3724352471
15.6968549978
14.8329074015
14.7778936303
14.0258037499
15.418891848
18.8651510123
21.5464881191
22.447824853
21.2896096374
17.7992470861
15.4823333712
17.189723541
19.3614528279
18.8245410258
17.8498992752
17.9522502712
22.6296745392
24.257785635
19.1770264629
18.9795105205
12.3298982733
9.38211138905
7.33868904618
6.88212122403
12.2001446085
8.87915977502
7.61173720805
7.7657379245
7.95023770173
8.69291018247
9.30320275356
13.8778738542
14.7213600187
14.9229868768
13.9711462679
13.4982838419
14.1383757761
15.5569596749
16.2484159143
16.7704921948
17.7041458043
18.7727483252
19.9668192122
21.2795741813
22.7065267862
24.0745118217
25.165676112
26.7050166692
27.4887959586
29.067343347
29.5476775722
30.754821059
30.8815557457
30.9116844335
30.940992254
31.5875239529
32.4727093732
33.3130585478
34.0588805805
34.7508093445
35.4381258645
36.1313370295
36.7832347274
37.3166509632
37.6716889738
37.8257039495
37.784548202
37.5654138297
37.1794562336
36.6205459737
35.863504494
34.868714895
33.5873323658
31.9675786529
29.9822363707
27.6855117817
25.2269680958
22.7886187003
20.5400183291
18.6557786559
17.3447834104
16.6779636757
16.205081973
16.0917526993
17.5076090728
21.7444270194
23.2286048491
23.0295134303
21.6573925491
19.2197343509
18.7578247335
21.1469688253
21.4819411058
20.6175675732
20.0241745083
22.0598203867
24.8946492001
26.426235048
21.7745014679
20.624924233
12.1269357529
9.20209691414
8.53604963573
12.4602644779
12.3910124133
8.17058692945
8.31698588663
8.50839115769
8.61017657928
9.2358916052
13.5640309778
14.5607463062
14.8062731083
14.5446530492
13.0143888118
13.1706799582
14.7664640415
15.6343336066
15.9290543958
16.6383136247
17.7146305641
18.8998367473
20.1302732544
21.4861917284
22.7806756484
24.3327469273
25.2122220054
26.7109369577
28.393051896
29.2000863003
29.3084078127
30.3393909307
30.8925242005
30.563563488
30.9610521819
31.7392924777
32.6360778075
33.5083200773
34.2998156907
35.0323364262
35.7445126544
36.4402874133
37.0816041856
37.6097901134
37.9736430833
38.1479218755
38.1345707842
37.9492427686
37.6021166648
37.0849496074
36.3692173588
35.409490802
34.1505062904
32.5474430043
30.6058835931
28.41816775
26.1437850686
23.9364286239
21.9129384829
20.2225106195
19.06101525
18.4427033694
18.2085997497
18.4041459752
18.3856782407
22.5774228243
25.3996116769
24.8082431149
23.8273486059
22.5935630569
23.0887323732
24.1897869262
23.3564723922
22.6070403187
22.8008880137
25.2283236998
25.9868245845
26.6572990204
23.7564589083
21.5961980822
11.5159859859
9.26616483012
9.22952145061
13.4850962342
11.5541711412
8.91596037279
9.08552772111
9.41095985423
10.4609594706
9.40604434637
14.3281982764
15.120551104
14.8752505267
13.501582881
12.7718751499
13.292359768
14.8009153827
15.3881369859
15.8203725738
16.6322903888
17.6933647914
18.9346217987
20.2492630807
21.9425821943
23.3898721171
24.2951532417
26.2344965145
26.6481490759
28.5037725242
28.8371821525
30.1094473921
29.8570499428
30.0706873096
30.5108129203
31.1351808069
31.9425764831
32.8330322771
33.7221909474
34.556102864
35.3336291379
36.0769080222
36.7863535254
37.4303848898
37.9611352884
38.3352627357
38.530446883
38.5485154095
38.4037183517
38.1044708606
37.6405683236
36.9802676676
36.0738315769
34.867283716
33.3351570314
31.5193845526
29.5349506517
27.508166986
25.4930711837
23.5421840833
21.9185134947
20.9467686351
20.6481609537
20.7086797756
20.740610571
20.5271242173
21.0515393517
26.1076574539
27.151924842
26.5930294783
26.6988840954
27.2737799586
26.5667017627
25.3247363814
24.9964392778
25.9840002788
27.2848330266
27.2570397012
26.7487632553
25.7781217099
24.4258625908
11.1312158698
9.81263022363
10.3766656265
13.6054802063
9.89364641151
9.95040600798
9.85867806069
10.1548607508
12.9746255209
11.8335946761
15.1606377282
15.430649044
15.0047931891
12.9752101485
12.8478765803
14.3795464389
14.9904880071
15.166866053
15.7689720844
16.7406430513
17.7912066745
18.9765058521
20.1507667762
22.0387641683
24.2068795098
24.2356674549
26.156912152
27.6740380219
28.6877290812
29.6491996691
29.6046395437
29.9941332702
29.8536520114
30.4486990159
31.2994339054
32.1682128711
33.0585035502
33.9575316457
34.828237343
35.6546639371
36.4385757114
37.1724801848
37.8295047753
38.3706738526
38.7598357269
38.9793471225
39.0339827508
38.9377161183
38.6965339824
38.2988081068
37.7123316343
36.8883102866
35.7833698897
34.4001832846
32.8112144127
31.1150930675
29.3196260918
27.3214006215
25.3081285465
23.9226048652
23.4802577043
23.6451092267
23.8275461729
23.6464214828
23.0692974279
21.5867059376
20.6605430619
29.2644507041
31.4537836859
31.7536352715
30.9591930881
29.0201325626
27.7190851651
27.7788319389
28.9235111604
29.3847165662
29.3529942585
29.258607053
29.7285020289
29.9913811525
11.2655164619
10.7374149067
13.6532709833
13.8883668092
10.1649547911
10.753406754
10.6326152327
11.0560007381
12.6482734228
15.1701442876
16.0550935417
15.7685667391
15.327421456
13.111217796
13.0206496483
14.834471395
15.1104026227
15.1534244385
15.7691576582
16.8311878231
18.0796427275
19.2980530681
20.2762615547
21.6528447138
24.3258546699
25.7166812568
25.8718539767
27.7326338248
27.8466424748
29.6291951712
30.3500510545
29.978407471
29.8474935952
30.5502689197
31.4869635576
32.4018178181
33.3070115991
34.2185418241
35.1189620427
35.9945239266
36.8295399032
37.6002182049
38.280382701
38.839955984
39.2509180525
39.5017574983
39.6007047981
39.5615652567
39.3889007066
39.0720396747
38.5829743003
37.8820805531
36.9473891328
35.8135312322
34.5581148473
33.1802528674
31.4702699523
29.3149188821
27.4263193724
26.7943122311
27.2805395231
27.8689738451
28.0516607385
27.6085446024
26.5369369914
24.6250161803
22.0551213263
21.7989028471
33.2468628196
37.548355712
35.4993628931
32.3077244278
30.8342348017
30.9182930409
31.6047591059
32.1283733015
32.8919680524
33.8162106177
34.6250703091
35.4190604492
11.7495747119
11.6722035169
15.332993167
14.7191941637
12.9986480266
12.0223429398
11.6411585328
12.4881351417
12.2797302199
16.1501299608
16.7814748704
16.1910100047
15.5357411858
13.8275621516
13.770279466
15.2601585244
15.165727032
15.246024106
15.8579208497
16.8371634672
18.1710341142
19.7155429717
21.467211752
21.712004624
23.8174181643
26.0167474636
25.7922325841
27.8980863256
29.0790116196
29.0134690864
29.6555036704
29.5807504375
30.0981388098
30.8402561958
31.7270131592
32.6542203496
33.5808679731
34.5114500215
35.4349370534
36.3514099499
37.245570728
38.0706755104
38.7859915682
39.3715376837
39.8130674484
40.1058334461
40.2596603297
40.2871663502
40.1931797169
39.9721902964
39.6074298359
39.0810468953
38.4045708864
37.6331707911
36.7825435485
35.6336513792
33.8778338879
31.7764905589
30.3976622071
31.3083060999
33.6975688309
34.4265619348
34.5622020355
33.9570964837
32.6332074205
30.2331617156
26.6911290911
21.8386658747
28.6051243962
38.675718811
40.6024775795
36.7860999601
35.1201344901
34.9404504429
35.1404070392
35.6576881083
37.5176722029
39.0715598549
39.2981330991
39.7038875521
12.4328426928
12.3702400909
15.160405706
15.2962261967
15.3566088
13.2407225681
12.7745592507
15.2255250997
12.7687237516
17.0189898969
17.3370381578
16.6186402851
15.7315864569
14.5149308121
16.1180107098
16.2803743691
15.4099977252
15.4784623404
16.0826226626
16.9350337151
18.0877651198
19.6846122485
22.5801764983
23.6123726165
23.3410029979
26.0015874349
27.1955854843
27.4845722137
28.9979460686
29.8020236706
29.8984562992
29.6190586464
30.2785529206
31.1379142289
32.0194539692
32.9393193733
33.8746377158
34.8343247211
35.7949161651
36.7422361459
37.6839915646
38.5741897316
39.3453072721
39.9700757988
40.452338186
40.8004989252
41.0232471656
41.1280172151
41.1209287201
41.0076333224
40.7942298739
40.5019420944
40.1819961073
39.8648945559
39.3844378997
38.3301509811
37.0733544733
36.0396238581
34.6467619017
37.2705725319
36.534359156
34.6063386782
31.9689342788
28.9612912509
24.5744683914
19.1516901032
15.8337493181
0.813970972011
0.0343665462858
27.6619532056
36.7932460685
36.5426628785
32.1399228915
31.6326395157
33.8317278009
36.5206220567
41.5266934842
44.5169934933
44.8952485769
45.2717994837
13.1647406621
13.1168439485
12.7677482227
15.680059569
15.9570600003
14.0927950884
13.7832382717
16.2751123382
13.5088974923
17.9308594151
17.8454408139
17.057602212
16.0182845143
14.8837117185
17.244371026
16.9403561524
15.9179991207
15.8964841621
16.4219004484
17.2032327126
18.1234368849
19.5177924203
22.9971882202
24.6424664002
23.6403746345
25.9226840456
27.6340066015
27.1005486526
28.5745965889
29.4291319316
29.2710379521
29.9213551533
30.6729495296
31.4847504531
32.3429035493
33.2699452994
34.2151992669
35.1754983728
36.1761824326
37.1802877212
38.1672322062
39.1129633881
39.9495553995
40.6333225726
41.1744678359
41.5964263451
41.9053229524
42.097284908
42.1815183678
42.1820389547
42.1404645252
42.1434314124
42.2692200643
42.4171017874
42.0862466513
41.3719177322
41.7976375311
34.3849906021
26.6480123084
7.84904577383
5.95809481251e-10
1.20995484867e-13
4.19070493988e-16
4.27568355002e-17
3.39300807941e-18
9.55741919514e-19
1.1249801511e-17
1.14945192076e-16
1.29842732413e-15
3.39137230464e-15
5.63163804281e-12
1.47827742814e-09
1.34895150982e-06
0.000698737213242
1.76606498751
39.5847115842
43.2894421839
48.1672609402
51.6484264634
51.9752681027
14.0712821403
14.1727210112
16.3334992378
16.3854508796
16.4761148717
14.8193441012
14.8510510074
17.1930713105
14.5676762123
18.7385883153
18.3400337559
17.5216220236
16.3835971706
15.3078322558
17.5620315086
17.2303508081
16.4136363817
16.3783254893
16.8115999161
17.5072037319
18.3376610191
19.4619540741
22.4638958941
25.4036244374
25.6950165064
25.3467886155
27.7760808626
28.8640397217
27.7274762175
28.2483228182
29.1869028112
30.1206236889
31.0006560696
31.8472935008
32.7174011154
33.6302171564
34.588998584
35.5769644167
36.5876466506
37.6426509387
38.6977859345
39.7030763141
40.6016959766
41.3549574107
41.979104345
42.5015922609
42.9194105823
43.2132916127
43.3856678052
43.4850880756
43.6289048854
43.9822277015
44.5889449702
44.9917170101
44.2210895767
42.3012851268
27.4404538414
1.42111756181e-19
1.56308194792e-22
2.93021987305e-24
4.96692348866e-26
1.43705420075e-28
4.08379434735e-31
7.06897071974e-36
5.52936987013e-36
1.34240385436e-35
9.04886332504e-35
4.23843706101e-34
1.56568076603e-33
9.94965659105e-33
7.79035900428e-33
6.75855999017e-31
3.84674992017e-28
3.86680449772e-26
2.93425141149e-24
6.75687196714e-22
1.13739417511e-17
39.6464225259
55.7543926061
51.5601847465
14.9253796441
15.1211406035
17.9697065941
17.1318678417
16.7010519816
15.5376365444
15.876354789
17.9915840678
17.97483469
19.7470115364
18.9076200653
18.0825146757
16.8381309078
15.8664781402
17.8975857157
17.4416720472
16.8699202093
16.8597350244
17.2120366679
17.8157692231
18.5964332012
19.6328706596
21.9752815201
25.6094241742
26.9710956669
25.1531019429
27.2080758847
28.9290611751
29.1638974197
28.5652545472
29.204714572
30.2877681277
31.3152446449
32.2403576949
33.0953330396
34.0199295168
34.9880941172
36.0071577755
37.0530373415
38.1426344875
39.2652273599
40.3479236133
41.3095962048
42.1265934302
42.8514652099
43.5290151403
44.1081926179
44.5057391892
44.7151805743
44.890722635
45.2526022303
45.9850368217
47.0592368651
47.0903774249
38.9202039737
15.8153644277
7.85864755737e-26
3.1823730145e-28
9.20290760125e-30
1.33977465004e-31
1.08853859103e-34
1.81633095546e-37
1.28034002625e-38
0
0
0
0
0
0
0
0
1.7807346336e-42
6.00604926472e-40
8.98376951902e-38
5.21209537769e-35
7.28001810643e-32
3.94231586778e-27
5.98688256039e-23
4.66760296255e-16
61.604793232
15.6170623486
15.8344425372
20.0559969503
17.718191353
16.6890932552
16.1625178277
16.6161010105
18.1403852503
19.5442408017
20.8886078456
19.6251139048
18.7771851437
17.5383090881
16.701963959
18.4366856712
17.7955883214
17.3919417422
17.3793888939
17.6466300442
18.1585539263
18.8598496158
19.8168832437
21.7497866198
25.4348014292
27.9011673153
27.3543659153
26.6742080413
28.2454396315
28.9692310533
28.6636618948
29.5763375521
30.6710639877
31.7465086386
32.677010451
33.5608540263
34.4479287854
35.4335259032
36.4685975168
37.5568145224
38.6914724683
39.86770068
41.0332876153
42.0916160185
42.9773554173
43.8065673065
44.6720956147
45.4541639133
45.9576535476
46.1904940573
46.4256461786
47.0044988585
48.1622789392
49.3794803716
37.3994992476
0.0947640450047
1.13775201805e-28
3.73133123243e-32
1.50879624476e-33
2.05719825997e-35
5.64139671597e-38
0
0
0
0
0
0
0
0
0
0
0
0
0
2.29447637199e-41
2.28006127026e-40
4.99838832261e-39
2.42364937978e-37
1.34590811439e-33
1.12028493327e-24
2.15953003761e-29
16.1434676609
16.3533788214
22.0531994846
18.1617523608
16.8839112353
16.7252511172
17.4021169199
17.6377867862
20.4644597977
21.7005137504
20.3073245975
19.4791595824
18.4201845641
18.4845839917
19.1939076956
18.3869632338
18.1027268265
18.0843716481
18.1858609214
18.5834784808
19.172418587
20.0428935614
21.6962387863
25.2213312604
28.2513507856
28.9185181401
26.6520226014
27.3027532308
27.9242247428
28.7047860118
29.8263384501
31.0769992439
32.1740546796
33.1594432229
34.0756626547
35.0154460748
35.9426146419
36.9891877351
38.1036561874
39.2705999092
40.5283685272
41.7914347135
42.9397590868
43.8552304963
44.7396424775
46.0871589611
47.6709391942
48.3986565161
48.0993000552
48.2078741624
48.9090761862
50.2362952832
36.8889142872
6.02078018861e-23
9.07410443546e-28
4.07078592031e-39
4.11357960229e-36
6.71222827963e-38
0
0
0
0
0
0
0
0
0
0
0
0
0
0
0
0
0
0
3.54489405948e-40
2.40054370619e-39
4.42680162103e-37
95.1738992018
16.5774578365
16.754353187
21.9189561324
17.69076117
17.1193566373
17.2001159272
18.2837084582
17.70372643
21.2477729789
22.4423419539
20.9398143297
20.1172057474
19.1039875266
20.5798193846
20.2237918951
19.172644394
18.9180006283
19.1123480742
18.941932602
19.1735417013
19.5802528253
20.3159737146
21.7758025407
24.9941908721
28.0588860046
29.9434359063
29.0020994532
28.3974141641
28.5809795978
28.8431425142
30.0247356338
31.5706192646
32.5850968838
33.6545868258
34.7678779967
35.6003022802
36.5349827505
37.6003906329
38.7488788319
39.9449583474
41.2077054781
42.5518063626
43.8451869895
45.0557051965
46.3451671324
48.0263951042
49.5569828143
50.1394961521
50.4701817886
50.714640269
51.0127584669
40.3665008498
2.73801590394e-22
2.49926175727e-27
3.28483588707e-31
4.46143674534e-33
0
0
0
0
0
0
0
0
0
0
0
0
0
0
0
0
0
0
0
0
0
0
1.09075818745e-39
7.9391229747e-29
17.0548864312
17.2072151828
21.5816201782
17.4116463152
17.4085895213
17.5775099969
19.0372179601
18.1788790787
21.9404325169
23.1651699994
21.5536042159
20.7348811309
19.6590094637
21.3417350989
21.1636700521
20.0059428279
19.7114009554
19.9954734336
19.8407311964
19.9745862728
20.1762265569
20.6490267003
22.0122206236
24.899863524
27.7018007778
30.168479703
30.1146371076
28.985764511
28.2248966564
29.2317461177
30.3954427248
31.918255218
33.2585702391
34.4785668193
35.5472720813
36.298574462
37.2104878639
38.2929009955
39.4739616554
40.7214408331
42.0197461723
43.4567790087
45.0185057431
46.6799947796
47.9990638702
49.0478802394
50.4228677893
51.7302837354
53.6419767541
54.7321295052
44.6292169242
2.4948649402e-21
3.31270434847e-27
5.71258880722e-31
1.17168138271e-33
2.83686601295e-35
9.52239626215e-38
0
0
0
0
0
0
0
0
0
0
0
0
0
0
0
0
0
0
0
0
0
1.83305581935e-40
2.4253002765e-40
17.7561932893
17.9077212804
21.2914602027
17.6908546005
17.9346197299
18.0403509433
19.0783998774
18.8744611157
22.4506844371
23.8478221444
22.1866746975
21.3838150119
20.3075338862
22.014820394
21.9892294134
20.8961740298
20.5375719557
20.8395168713
20.7124472697
20.9095823004
21.0224205976
21.131669896
22.4395461933
25.0111470662
27.4865261157
30.1547915814
30.6177060183
29.7852140805
28.7250468479
29.3772602021
30.8438527115
32.066708194
33.3224476974
34.7272226264
36.3893068363
37.280939447
38.1207864642
39.0976116225
40.2551837501
41.5808098922
42.9936488876
44.5648780642
46.6059861415
48.4197504045
49.2388847306
50.2182982324
52.1686264182
55.733572971
61.5452836677
49.199147139
7.12790683377e-22
1.18407047425e-28
4.89996051303e-33
1.60653624172e-36
1.00801533541e-38
2.04316539504e-38
3.13753963592e-39
0
0
0
0
0
0
0
0
0
0
0
0
0
0
0
0
0
0
0
0
0
1.3548653529e-41
6.15204545587e-41
18.8232716213
18.9389830736
21.5991488177
18.5830062027
19.0314683787
18.8566531699
19.4014549104
20.1198125612
22.5453249952
24.3652903374
22.8676936772
22.0876415901
21.0471721275
22.7806757591
22.8332839394
21.9265491214
21.5205927456
21.8087911496
21.5858900656
21.9274671436
22.1526454915
21.8165304051
22.9520415148
25.3355051345
27.4752742072
29.9460912735
30.8007979442
30.4510341788
30.5103254605
30.1396518525
31.1146058232
32.6454700199
34.4263798913
35.2658335853
36.6890211031
38.2347513077
39.1571202696
40.1818336107
41.2623813261
42.5284935051
44.07437921
46.2093427956
48.7291235076
49.965908144
50.414888864
51.9514000539
56.0987428434
62.3092844252
55.6882561926
33.6128601076
1.79393068444e-30
1.67487890079e-35
1.14600735661e-37
0
0
0
0
0
0
0
0
0
0
0
0
0
0
0
0
0
0
0
0
0
0
0
0
0
0
0
20.3211973645
20.2207386147
22.4103145664
20.3737042244
20.8873679279
20.0613141776
20.3106144363
21.919192583
22.7816647013
24.9717492461
23.64613775
22.8557636089
21.8522885823
23.5783267713
23.6696009485
23.054628386
22.9426727349
23.0718166774
22.54850553
23.0236938266
23.5543235832
22.7804018254
23.3507203502
25.7511776273
27.6757808367
29.7647223508
30.8794211217
30.5815912065
31.6247923761
31.6215486956
32.0296977675
32.3820202916
34.2132545043
36.3065650399
37.5776984226
38.9784310081
40.191108476
41.2697579558
42.4673454944
43.7603197868
45.6198653266
48.5551444667
50.8310810295
51.6441519017
52.5926897587
55.929753885
62.870728449
58.9034264211
34.2920114166
1.60093482199e-32
2.79877197235e-35
1.28152200088e-37
0
0
0
0
0
0
0
0
0
0
0
0
0
0
0
0
0
0
0
0
0
0
0
0
0
0
0
0
21.89743943
21.4124798982
23.2684894145
22.745317697
22.5122975271
21.4354288421
21.2897491282
22.9907846585
22.0978520016
25.4397134831
24.5043117364
23.6786239477
22.7100643461
24.3751934774
24.4374015401
23.9884482068
24.8695040273
24.5779760293
23.6109806817
24.2068583164
24.8024757069
23.9951067271
23.4943147833
25.6801405347
27.7753508168
29.6006795733
30.8444581544
30.5693936985
31.9513288394
32.8200762736
33.3568792701
33.0708427751
34.275374224
36.2207379293
38.4026676343
40.1279681265
41.4446883461
42.5184220789
43.7129986343
45.3208909149
48.0824190134
51.2130737692
53.1071830328
54.2880412573
56.6577304617
61.4758776344
60.4180054722
33.3778463121
4.31065568807e-32
6.24058357461e-35
2.18557275918e-37
0
0
0
0
0
0
0
0
0
0
0
0
0
0
0
0
0
0
0
0
0
0
0
0
0
0
0
0
0
22.6428164794
22.2079274899
23.7833993917
23.7216551208
23.4928761806
22.7052345546
22.3825397981
24.2687824953
23.0738806051
26.0325949353
25.3673829822
24.5287025549
23.6137492822
25.1815915759
25.1897865128
24.744009072
25.775615159
25.6148412684
24.5945669108
25.3247757709
25.4657026702
24.7211213344
24.3486155988
24.5568163563
27.1090672088
28.9313233769
30.4730740055
30.3735223907
31.8860905958
33.2658472613
34.4246290867
34.7131797898
34.6275185836
36.1798508067
38.5423175019
40.9305905882
42.8075155261
44.1442529492
45.3321686387
47.7241050082
51.1469072235
54.0145685765
55.7320143803
57.6931373217
61.3643224726
58.0439121556
35.3819411646
25.0161682487
2.05135351315e-34
5.84236100598e-37
0
0
0
0
0
0
0
0
0
0
0
0
0
0
0
0
0
0
0
0
0
0
0
0
0
0
0
0
0
0
22.6476581325
22.6483189404
24.0460212685
23.8595872734
24.0655562034
23.654777821
23.3068667327
25.5200358725
24.6387499271
26.770783992
26.2688933114
25.3885933075
24.5578522477
26.0125958443
25.9868811995
25.5996760871
26.5040800089
26.4844587556
25.5838923573
26.2383872023
25.3164395187
25.353271308
25.2302902758
25.4501819877
26.2084731809
27.3126814019
29.3723780676
29.8776428936
31.2927710567
33.1130716387
34.725082014
35.9346529868
36.0134155995
36.84720998
38.6657430164
41.0800825762
43.6912686401
45.8363306799
47.6314251939
50.8346091067
54.3207913493
56.792602317
58.3024234171
60.3171400801
56.1100475054
37.7771856534
39.8577546629
7.12549071504e-34
1.59617657611e-36
0
0
0
0
0
0
0
0
0
0
0
0
0
0
0
0
0
0
0
0
0
0
0
0
0
0
0
0
0
0
0
22.7721665564
22.9045520719
24.2295341863
22.9237920235
24.2460215056
24.121433085
23.8774971833
26.0443767154
25.3832078593
27.484976053
27.1737787095
26.2226973976
25.546980985
26.8554490372
26.8065034895
26.5740675154
27.3275388271
27.4602034557
26.7010040867
27.5287093888
26.5349891836
26.8106938692
26.3638016618
26.6475480612
27.8158153176
28.414505851
28.7160644853
29.2580164316
30.5753352677
32.7604017055
34.4342761902
35.9529757272
37.0613782313
37.7753424151
39.7218262793
41.6675909739
44.365713646
47.3712921904
50.433896293
54.2366317267
57.4437334058
59.3254260033
59.4017547892
57.4095633689
57.5211307505
35.1600677018
5.97918603561e-33
1.36119095883e-35
0
0
0
0
0
0
0
0
0
0
0
0
0
0
0
0
0
0
0
0
0
0
0
0
0
0
0
0
0
0
0
0
23.3105107685
23.4089603808
24.406643959
23.1778860205
24.3731812333
24.3120053824
24.2196656434
26.1430281747
25.8440462066
27.969230299
28.0238925613
26.9704742317
26.566152638
27.656919786
27.5605379492
27.4979994449
28.1057791175
28.5052446322
27.8627688432
28.8474331126
28.1828342567
28.6858138315
28.5535547117
27.5600782974
28.4969806765
29.3430553881
29.5551756962
28.6969380713
29.7314244191
32.2942986496
34.2115336935
35.3299958053
36.6081746346
37.8000403949
39.89884773
42.156451773
45.1007113354
48.8824518739
53.4161107973
57.7967376342
60.4191166475
61.1071428903
59.6055338441
54.9141408259
35.5092812669
48.0730576578
9.48531372315e-35
3.84631580315e-37
0
0
0
0
0
0
0
0
0
0
0
0
0
0
0
0
0
0
0
0
0
0
0
0
0
0
0
0
0
0
0
0
24.0104764125
25.0299798786
24.700510175
23.9443211767
24.7377242781
24.5287982864
24.5151273635
26.1807115646
26.2316298089
28.0920874427
28.810584899
27.5908222184
27.4280093293
28.2614300118
28.2169868292
28.1456378045
28.3398229467
29.4159711016
29.0535942198
29.9620468489
29.9259531139
29.8903741626
29.8001589468
29.4331486896
28.720830701
29.2986132832
30.1524543963
27.8155345426
28.7064109623
31.167241852
33.8143748755
35.3684497021
36.7164320793
37.3105770308
39.3103339814
42.0209434911
45.4013383084
50.2368792611
56.419749779
61.313776614
63.0800745942
60.2894675071
58.9057595059
62.0588317632
42.0862553409
6.42923168454e-34
1.640894566e-36
0
0
0
0
0
0
0
0
0
0
0
0
0
0
0
0
0
0
0
0
0
0
0
0
0
0
0
0
0
0
0
0
0
24.4648103829
25.5339272127
25.1851631404
24.5862637043
25.2137796548
24.8757205115
24.8412108616
26.2583722159
26.5771711181
27.9250040445
29.4610087822
28.1322628022
27.8680988123
28.6889691363
28.8699193436
28.6620605269
28.4591295892
30.0079891155
30.2301023653
30.888210065
31.0725665828
31.3152601762
30.293869288
30.299956244
29.7487688716
30.5728449664
31.0942395688
28.8448183765
27.5436030456
29.4676915039
32.4112064286
34.8678595899
36.4238121554
37.1959694595
38.2307902273
41.0202142215
44.8302585804
51.1116398983
59.2689470872
64.9174657352