/*--------------------------------*- C++ -*----------------------------------*\
| =========                 |                                                 |
| \\      /  F ield         | OpenFOAM: The Open Source CFD Toolbox           |
|  \\    /   O peration     | Version:  v1806                                 |
|   \\  /    A nd           | Web:      www.OpenFOAM.com                      |
|    \\/     M anipulation  |                                                 |
\*---------------------------------------------------------------------------*/
FoamFile
{
    version     2.0;
    format      ascii;
    class       volScalarField;
    location    "469";
    object      pa;
}
// * * * * * * * * * * * * * * * * * * * * * * * * * * * * * * * * * * * * * //

dimensions      [0 2 -2 0 0 0 0];


internalField   nonuniform List<scalar> 
6400
(
-0.122276390712
-0.122278027108
-0.122282612689
-0.122291487231
-0.122304480032
-0.122321517259
-0.122342660898
-0.122368692087
-0.122400071757
-0.122437426942
-0.122484523713
-0.122543483402
-0.122612581122
-0.122692053256
-0.122783474017
-0.122888781485
-0.123009194334
-0.123144825295
-0.123294798402
-0.123455908906
-0.123624202564
-0.123800469391
-0.123989824638
-0.124198037498
-0.124429209285
-0.124683753804
-0.124959449173
-0.125254786381
-0.125570098265
-0.125906592172
-0.126265400369
-0.126645708249
-0.127042915432
-0.127452275006
-0.127872140536
-0.12829985059
-0.128735445203
-0.129185884614
-0.129650411039
-0.130119387497
-0.13059426886
-0.131090030053
-0.131615105763
-0.132161747135
-0.132719725882
-0.13328251282
-0.133845146355
-0.134404286297
-0.134956965863
-0.135500809706
-0.136034366953
-0.13655243182
-0.137045746875
-0.13750088084
-0.137916907835
-0.138303530597
-0.138656182579
-0.138959376528
-0.139206377833
-0.139407579833
-0.139569854456
-0.139696748813
-0.139782966734
-0.13985616618
-0.139957554142
-0.140117919526
-0.140326462147
-0.1405376503
-0.140716861251
-0.140860769357
-0.140977865227
-0.141077992646
-0.141167484363
-0.141244406418
-0.141310929446
-0.141367030648
-0.141412379174
-0.141441507216
-0.141459845386
-0.141467514152
-0.122274054027
-0.122275791683
-0.122279902883
-0.122288573741
-0.122302489829
-0.122320427991
-0.12234182643
-0.122366765892
-0.12239689464
-0.122434134626
-0.122480925753
-0.122539023994
-0.122608131467
-0.122688055542
-0.122779416997
-0.122883565587
-0.123003280243
-0.123139164629
-0.12328991448
-0.123451426402
-0.123618120083
-0.123792536368
-0.123981130544
-0.124188905445
-0.124420052831
-0.124674936152
-0.124950510818
-0.125245952571
-0.125561706249
-0.125898472337
-0.126256855781
-0.126637083808
-0.127034868658
-0.127443880305
-0.127863621656
-0.128291324463
-0.12872631837
-0.129176944419
-0.129642357017
-0.130111485575
-0.130583958215
-0.131078910348
-0.131607801394
-0.132157276177
-0.132716374558
-0.133280453501
-0.133844337493
-0.134405101875
-0.134959137382
-0.135502060977
-0.136032323118
-0.136550665716
-0.137051837954
-0.137510025991
-0.137927907568
-0.138319382821
-0.138669155375
-0.138966730562
-0.139213901349
-0.139414663022
-0.139571778301
-0.139699307896
-0.139790507727
-0.139867832358
-0.139972021487
-0.140132641047
-0.140343807862
-0.140554491695
-0.140732035774
-0.14087512676
-0.140991654122
-0.141091725827
-0.141181824527
-0.141259717871
-0.141325111095
-0.141379005413
-0.141420643218
-0.141448495804
-0.141466082349
-0.141471913833
-0.122267473668
-0.122270335089
-0.122273941757
-0.122281842894
-0.12229524223
-0.122315252459
-0.12233844191
-0.122362444583
-0.12239079948
-0.122426928213
-0.122472971015
-0.122530329206
-0.122599131324
-0.122679037018
-0.122769939183
-0.12287113601
-0.122988464113
-0.123127404448
-0.12327992781
-0.123440189069
-0.123603567634
-0.123773266704
-0.123960144374
-0.124169106831
-0.124400158445
-0.124653955686
-0.124929690267
-0.12522580665
-0.125541991692
-0.125878956893
-0.126237103119
-0.126617235266
-0.127016241143
-0.127423887611
-0.127841310367
-0.128270457186
-0.1287047397
-0.129153203122
-0.129619065445
-0.130090689956
-0.13056934667
-0.13106840442
-0.131595148913
-0.132142745006
-0.132702064006
-0.133267150052
-0.133833262153
-0.134396653501
-0.134953674936
-0.135500834732
-0.136035705613
-0.136555082079
-0.137050795744
-0.137512672037
-0.137941984819
-0.138335516559
-0.138681616635
-0.138977063717
-0.139223473651
-0.139424132391
-0.139584604476
-0.139711482662
-0.139806035377
-0.139893335111
-0.140009321521
-0.14017641368
-0.140379665506
-0.140583183869
-0.140760856795
-0.14090536129
-0.141023273319
-0.141123785864
-0.141210864855
-0.141284651986
-0.141347549278
-0.141398675909
-0.141436415996
-0.141461820993
-0.141477505641
-0.141483064978
-0.122258305471
-0.122261163245
-0.122264042312
-0.122271239742
-0.12228288621
-0.122302509507
-0.122331932623
-0.122355799842
-0.122381798599
-0.12241605469
-0.122460914195
-0.122517549886
-0.122586041498
-0.122665043893
-0.122754943906
-0.122858484341
-0.122978040048
-0.123114323432
-0.123260684138
-0.123412026023
-0.123571214083
-0.123742665819
-0.123930388017
-0.124138602346
-0.124369348078
-0.124623113474
-0.124899142212
-0.125195797091
-0.125512555569
-0.125849651017
-0.126208250624
-0.126588397527
-0.126987223359
-0.127397099684
-0.127810692167
-0.128235079239
-0.128672396371
-0.129119928752
-0.12958154155
-0.13005572946
-0.130541990344
-0.131046798787
-0.131574822317
-0.132122476998
-0.132682854726
-0.133250015804
-0.133819084251
-0.134385991748
-0.134946996807
-0.135498579857
-0.136037438825
-0.136559271581
-0.137057436826
-0.13752519617
-0.137959173874
-0.138353067551
-0.13869860002
-0.138993257649
-0.139239095383
-0.139440281944
-0.13960284202
-0.139733657503
-0.139841014911
-0.139946625462
-0.140070472006
-0.140230781572
-0.140430529381
-0.140632591817
-0.14081045257
-0.14095562991
-0.141071745181
-0.141166722231
-0.141247722328
-0.141320509603
-0.141383293709
-0.141430356868
-0.141462382185
-0.141486100122
-0.141502255701
-0.141508834406
-0.122244003592
-0.122244399684
-0.122247926755
-0.122255159648
-0.122267872088
-0.122285782533
-0.122312114665
-0.122338504516
-0.122366007887
-0.122400258163
-0.122444014341
-0.12249995374
-0.122568167056
-0.122649572014
-0.122743326055
-0.122846403154
-0.122960853361
-0.123087539099
-0.123225126635
-0.12337313188
-0.123531966259
-0.12370304714
-0.123890464286
-0.124098372081
-0.124328701695
-0.124582304502
-0.124858271625
-0.125155451465
-0.125472835568
-0.125810662542
-0.126169196565
-0.126550777758
-0.126952225338
-0.127357602086
-0.127768621476
-0.128189914363
-0.128622597038
-0.129070415303
-0.12953394594
-0.130011970452
-0.130504499555
-0.131014907665
-0.131545857763
-0.132095231496
-0.132657803392
-0.133228044032
-0.133801006521
-0.134372409748
-0.134938402232
-0.135495320012
-0.136039349456
-0.136565811591
-0.137068824857
-0.137542362818
-0.137980666853
-0.138376204071
-0.138722272609
-0.139017337156
-0.139264169209
-0.139467980194
-0.139635769136
-0.139775883276
-0.139900006024
-0.14002218309
-0.140150001862
-0.140307986898
-0.140502819832
-0.140701812469
-0.140878999805
-0.141022704525
-0.14113337357
-0.141221922453
-0.141302740601
-0.14137797023
-0.141437435778
-0.141478682569
-0.141507845922
-0.141533309255
-0.141548290876
-0.141553076815
-0.122217666935
-0.122217412011
-0.122223467522
-0.122230723021
-0.12224434464
-0.122263025342
-0.122287318195
-0.122313851368
-0.122343436048
-0.122378439971
-0.122420630033
-0.122476011955
-0.122548411401
-0.122633675947
-0.12272581449
-0.12282419136
-0.122931378545
-0.123050806643
-0.123183603606
-0.123328545442
-0.1234843663
-0.123653767711
-0.123840640586
-0.124048300731
-0.12427830532
-0.124530991141
-0.124807044192
-0.125104466286
-0.125422849042
-0.125761441892
-0.126121427406
-0.126502766322
-0.126901383408
-0.127309162521
-0.127714478783
-0.128128687356
-0.128559804496
-0.129009170245
-0.129475727618
-0.129958228731
-0.130456656149
-0.130972806458
-0.131508023423
-0.132060736013
-0.132626821066
-0.133201253401
-0.133779137973
-0.134356084619
-0.134928159816
-0.135491580406
-0.136042270891
-0.136575396317
-0.137085207494
-0.137565291228
-0.138008493771
-0.138407093808
-0.138755688251
-0.139053750212
-0.139304737535
-0.139514633425
-0.139691138196
-0.139843709962
-0.139986517314
-0.140118848972
-0.140250756697
-0.140412073724
-0.140606122909
-0.140799675338
-0.140971228916
-0.141107914581
-0.141211354276
-0.1412996203
-0.141385682679
-0.141459249569
-0.141512607203
-0.141548766904
-0.141577902782
-0.14160125979
-0.141612779539
-0.141617269231
-0.122177593696
-0.122180415186
-0.122190588974
-0.122201313088
-0.122212257147
-0.122230805865
-0.122256086152
-0.122283061664
-0.122313944364
-0.122349727572
-0.122393618681
-0.12244933001
-0.122524592073
-0.122608178918
-0.122696289015
-0.122788586071
-0.122890394307
-0.123006550206
-0.123136279424
-0.12327588271
-0.123427760326
-0.123595570917
-0.123781354314
-0.123987852969
-0.124217136576
-0.124470563262
-0.124744621856
-0.125042344438
-0.125361898498
-0.125703731762
-0.126064186316
-0.126443094669
-0.126839972016
-0.127240373129
-0.127642596391
-0.128054156605
-0.128485197584
-0.128936676443
-0.129406749891
-0.129893980589
-0.130398244475
-0.130920451235
-0.131461058049
-0.132018602919
-0.132589605005
-0.133169476967
-0.133753457998
-0.134337158013
-0.134916627925
-0.135488025586
-0.136047125078
-0.136588908128
-0.137107346407
-0.137595381176
-0.138045173145
-0.138449397764
-0.138803846481
-0.139108821641
-0.139368062612
-0.139587478586
-0.139775331174
-0.139942476814
-0.140097793216
-0.140239119266
-0.140386308
-0.140551212238
-0.140742440321
-0.140925760769
-0.141085000458
-0.141212364486
-0.141314850014
-0.141410397184
-0.141498817151
-0.141566405575
-0.14161296807
-0.141645067183
-0.14167225819
-0.141688837844
-0.14169402397
-0.141696818915
-0.122130718898
-0.12213644348
-0.122148037873
-0.122163507881
-0.122175052871
-0.122194171221
-0.122218165185
-0.122245848669
-0.122278448545
-0.122311909165
-0.122359242479
-0.122420282073
-0.1224929369
-0.122572958532
-0.122655616998
-0.122741954437
-0.122841295849
-0.122955786011
-0.123080237737
-0.123214368971
-0.123362387292
-0.123527893867
-0.123712137452
-0.123918098829
-0.124147060385
-0.124399303651
-0.124674148246
-0.124967463192
-0.125290451752
-0.125637073794
-0.125996280034
-0.126368122245
-0.126760465348
-0.127155661576
-0.127553346489
-0.127966144122
-0.12839897337
-0.128852819543
-0.129326501431
-0.129818653485
-0.130328923676
-0.1308576482
-0.131404685597
-0.131968471141
-0.132545839382
-0.133132531656
-0.133723972276
-0.134315866277
-0.134904315636
-0.135485460133
-0.1360549555
-0.136607534742
-0.137136738667
-0.137634973319
-0.138094286978
-0.138508119407
-0.138873194693
-0.139189845784
-0.139460702379
-0.139690652229
-0.139888656248
-0.140066352401
-0.140232427859
-0.14039258179
-0.140552888854
-0.140724906097
-0.140907540983
-0.141078157371
-0.141224910602
-0.14134736399
-0.141455490611
-0.141558138592
-0.141643327596
-0.141703516603
-0.141742603874
-0.141769168835
-0.141786034871
-0.141791568187
-0.141786937507
-0.141784141843
-0.122079634932
-0.122087098757
-0.122098616704
-0.122110893417
-0.122125894454
-0.122149492378
-0.122172719541
-0.122200410787
-0.122236210221
-0.122271500691
-0.122315189087
-0.122379566097
-0.122452042756
-0.122527044938
-0.122604762507
-0.122689159037
-0.12278532686
-0.122895460668
-0.123014663168
-0.12314449643
-0.123288742888
-0.123450700635
-0.123631642287
-0.123835548705
-0.124067530512
-0.124316850025
-0.124591764591
-0.124888599133
-0.125208144057
-0.125552132192
-0.12591243314
-0.126286815355
-0.126664213073
-0.127051503956
-0.127449954827
-0.127865118032
-0.128300391836
-0.12875694268
-0.129234354871
-0.129731621812
-0.130248229774
-0.130784063127
-0.131338542981
-0.131909934306
-0.132495173385
-0.133090217617
-0.133690710322
-0.134292529286
-0.134891866791
-0.135484861108
-0.136067051397
-0.136632911961
-0.13717559746
-0.137687295818
-0.138160451179
-0.13858939271
-0.138970992831
-0.139303888619
-0.139587580578
-0.139825929366
-0.140031028801
-0.140218236746
-0.140397991757
-0.140574559519
-0.140747991023
-0.140931433936
-0.141111872025
-0.141263559768
-0.141398608572
-0.141520829181
-0.14163760393
-0.141743524102
-0.141823648766
-0.141876104745
-0.141905779112
-0.141919314847
-0.141916830757
-0.141904557126
-0.14188698099
-0.14187581856
-0.122023747178
-0.122032335585
-0.122045468555
-0.12205667163
-0.122072605985
-0.122095829659
-0.122119108595
-0.122145874589
-0.122179827008
-0.122223137386
-0.122267335604
-0.122329695085
-0.122400697541
-0.122471591725
-0.122543924656
-0.122627552264
-0.122722906911
-0.122827005775
-0.122939917948
-0.123065390975
-0.123206537063
-0.123365364529
-0.123542823706
-0.123741356672
-0.123974178719
-0.124226927381
-0.124492814747
-0.1247921671
-0.125110885992
-0.125455482943
-0.125813936503
-0.126182368028
-0.126555079835
-0.1269350096
-0.127332914966
-0.127750534227
-0.128188665328
-0.128648296405
-0.129129627068
-0.12963219042
-0.130155525291
-0.130699168839
-0.131262141362
-0.131842499904
-0.132437187915
-0.133042306511
-0.13365372244
-0.13426753555
-0.134880059728
-0.135487415927
-0.136085033656
-0.13666717172
-0.137226802952
-0.137756331411
-0.13824905535
-0.138700113894
-0.139104832736
-0.139457267159
-0.139752074989
-0.139995481659
-0.140207405317
-0.140406962548
-0.140601772539
-0.140791122829
-0.140975997687
-0.14116050057
-0.14133377754
-0.141486850515
-0.141612308361
-0.141736869843
-0.141862148073
-0.141970413754
-0.142047552486
-0.142092681358
-0.142108701618
-0.142098374793
-0.142066637893
-0.142028509388
-0.141993004668
-0.141971758805
-0.12196077486
-0.12196887418
-0.12198264764
-0.121996048268
-0.122016135159
-0.122035222011
-0.1220576043
-0.122084313317
-0.122112130976
-0.122158181922
-0.122207785429
-0.122268476837
-0.122337466132
-0.122406593619
-0.122476057882
-0.122556548299
-0.12264963724
-0.122748760409
-0.12285593859
-0.122975978827
-0.123113275345
-0.1232699092
-0.123447435951
-0.123640938569
-0.123863987775
-0.124123023499
-0.124390313845
-0.124683780251
-0.124999709046
-0.125332561456
-0.125693568855
-0.126059658949
-0.126427009547
-0.126804177048
-0.127202254632
-0.127621944276
-0.128062989119
-0.128526046707
-0.129011577731
-0.129519621795
-0.130050048247
-0.130602239935
-0.131174808921
-0.131765542776
-0.13237135073
-0.132988474151
-0.133613020323
-0.134241324274
-0.134869800508
-0.135494552029
-0.136110890118
-0.136712959387
-0.137293813179
-0.137846586823
-0.138365905127
-0.138847434783
-0.139281494481
-0.139654801001
-0.139959300688
-0.140207733326
-0.140430836101
-0.140647618999
-0.140857663153
-0.141054032749
-0.141237321096
-0.141410922408
-0.141576427532
-0.141736437078
-0.141860913618
-0.141995360457
-0.14213220021
-0.142248726455
-0.142328280151
-0.142366591755
-0.142361956958
-0.142315833448
-0.142239609788
-0.142164982854
-0.142100856263
-0.142064869724
-0.121889084565
-0.12189520871
-0.121905018413
-0.121922508021
-0.121947533929
-0.121965371382
-0.121987135167
-0.122015444697
-0.122040626683
-0.12208222383
-0.122135247012
-0.12219532484
-0.122261564233
-0.122329526816
-0.122400559068
-0.12247843385
-0.122566829962
-0.122660608515
-0.122762640055
-0.122876865765
-0.123007691547
-0.123158822192
-0.123339184315
-0.12353700089
-0.123749107759
-0.124001866846
-0.124271942978
-0.124555865491
-0.124875611578
-0.125207721972
-0.125555551143
-0.125912814667
-0.12627713668
-0.126656995275
-0.12705670796
-0.127478363574
-0.127922334569
-0.128389149872
-0.1288793224
-0.129393126382
-0.129930923019
-0.130492343364
-0.131075662438
-0.131678246086
-0.132296947348
-0.132928228404
-0.133568493946
-0.134214280872
-0.134862074957
-0.135507912217
-0.136147003695
-0.136773435402
-0.13738063037
-0.137962911726
-0.138516389996
-0.139037051012
-0.139504505007
-0.139903681117
-0.140225677597
-0.14048253595
-0.140724786979
-0.140965373445
-0.141191447582
-0.141387388302
-0.141555359803
-0.141706976938
-0.141856326691
-0.142002648424
-0.142148284158
-0.14229047431
-0.142458162525
-0.142598324401
-0.142691795276
-0.142724616959
-0.142689951198
-0.142589808976
-0.142436537792
-0.142309205047
-0.142194914602
-0.142134134827
-0.121808648668
-0.121812929368
-0.121817290141
-0.121836708274
-0.121860797242
-0.121881579505
-0.121904264068
-0.121934099068
-0.121961442672
-0.12199989958
-0.122052391473
-0.12211077866
-0.12217362407
-0.122237608546
-0.122310442729
-0.122389592359
-0.122473658771
-0.122562166102
-0.122659358694
-0.122768341389
-0.122891995305
-0.123033896953
-0.123208927266
-0.123416995487
-0.123628078846
-0.123864908162
-0.124138188396
-0.124419499124
-0.124724937649
-0.125055710339
-0.125399346766
-0.125750884001
-0.126111368035
-0.126492371163
-0.126894343019
-0.127318430265
-0.127765460932
-0.12823617226
-0.128731493534
-0.129251735394
-0.12979733491
-0.130368466203
-0.130963540018
-0.131579495495
-0.132212986518
-0.132860796769
-0.133519750927
-0.134186597745
-0.134857772286
-0.135529236033
-0.136196080131
-0.136852417342
-0.137492025786
-0.138110182243
-0.138703070702
-0.139269769979
-0.139772712992
-0.140220244818
-0.140584920092
-0.140849172025
-0.141118007217
-0.141390118722
-0.141636852631
-0.141823098969
-0.141949624258
-0.142044924863
-0.142155538677
-0.142279695974
-0.142419473615
-0.142566947665
-0.142801427581
-0.143003815795
-0.14313279315
-0.143171795707
-0.143102115728
-0.142927076631
-0.142638033
-0.142454264875
-0.142248621137
-0.142148434765
-0.121720357892
-0.121725089912
-0.121731913615
-0.121744453017
-0.121764066152
-0.121786244632
-0.121810164887
-0.121839518631
-0.121871588071
-0.121908316802
-0.121959290738
-0.1220154633
-0.122075187231
-0.122135168878
-0.12220431978
-0.122284545494
-0.122366993824
-0.122452063384
-0.122544923989
-0.12264902827
-0.122766486553
-0.122899331826
-0.12306415657
-0.12327393054
-0.123492017762
-0.123718045584
-0.123986272629
-0.124269107661
-0.124561749082
-0.124882781522
-0.125216988618
-0.125563146863
-0.125926351719
-0.126309490896
-0.126713702654
-0.12714043261
-0.127591018422
-0.128066001308
-0.128566518789
-0.129093730095
-0.129648039954
-0.130229603982
-0.130837233467
-0.13146786833
-0.132118042072
-0.132784920737
-0.133465931538
-0.134157975472
-0.134857355813
-0.135559989288
-0.136261001666
-0.136954649733
-0.137634226043
-0.13829369182
-0.138921090248
-0.139540458757
-0.140081513244
-0.140660947208
-0.141216370277
-0.141428511703
-0.141741743906
-0.142073893241
-0.142344944119
-0.142495886605
-0.142513183449
-0.142558288953
-0.142732037054
-0.142903340724
-0.143060875925
-0.143177939013
-0.143659383633
-0.143993341653
-0.144154896704
-0.144160738751
-0.143988284365
-0.143666465556
-0.142827778268
-0.142598831519
-0.142208460622
-0.142056476372
-0.121622297406
-0.121627549715
-0.121639048115
-0.121644996636
-0.121659885169
-0.121681484442
-0.121705917714
-0.121735734243
-0.121773410935
-0.121807415807
-0.121855928178
-0.121909770738
-0.121966874592
-0.122024445982
-0.122089667244
-0.12216750122
-0.12224769199
-0.122329954228
-0.12241885387
-0.122517940054
-0.122629700428
-0.12275554229
-0.122907490514
-0.123108318114
-0.123336844538
-0.123560155601
-0.123811426185
-0.124099728006
-0.124393258846
-0.124693738874
-0.125016100014
-0.125358153346
-0.125721517474
-0.126106386989
-0.126513044224
-0.126942755989
-0.127396930959
-0.127876787093
-0.12838319591
-0.12891756235
-0.129481190287
-0.13007421416
-0.130695379244
-0.131341767278
-0.132010208582
-0.132698661939
-0.133405306612
-0.134127210247
-0.134860294605
-0.135600581201
-0.136344138584
-0.137086306017
-0.137817405406
-0.138523501001
-0.13914531153
-0.139838760276
-0.140395246497
-0.1411758114
-0.141031334881
-0.140780118844
-0.140604710387
-0.140387175436
-0.140152211397
-0.139914917261
-0.139727233375
-0.139505071157
-0.139183827057
-0.13894352934
-0.138905611094
-0.139049621586
-0.139212133132
-0.139656773397
-0.140288473068
-0.140927592762
-0.141309672801
-0.141493156525
-0.142239206257
-0.14309198906
-0.141995244496
-0.141791222066
-0.121512723901
-0.121517317849
-0.121527027436
-0.121533105841
-0.121545537959
-0.121566602853
-0.121590300804
-0.121618134366
-0.121660024015
-0.121695435448
-0.121741542561
-0.121793379595
-0.121848605698
-0.121905016792
-0.121967061429
-0.122040694925
-0.122117336058
-0.122196471339
-0.122281293568
-0.122375144421
-0.122480689676
-0.122600100705
-0.122741395798
-0.122928633287
-0.123158442253
-0.123388232783
-0.123622557356
-0.123895497432
-0.124191119548
-0.124488584284
-0.124799817696
-0.125135300448
-0.125496754192
-0.125882395851
-0.126291187448
-0.126723655759
-0.127181633341
-0.127666421773
-0.128179370384
-0.128721649297
-0.129295036589
-0.129900349905
-0.130536247838
-0.131199419678
-0.131887051403
-0.132598888843
-0.133334931029
-0.134091890233
-0.134863979805
-0.135648284191
-0.136445252258
-0.137254228205
-0.138058301435
-0.13881392036
-0.139317883601
-0.140278964788
-0.140087908828
-0.139970693317
-0.140003706371
-0.13962638143
-0.139033353996
-0.138227069038
-0.137272989816
-0.136232734475
-0.135213040366
-0.134247787162
-0.133344520444
-0.132612079695
-0.132190596481
-0.132145453206
-0.132401878249
-0.133040120355
-0.13405985846
-0.135335046363
-0.136652373367
-0.137869341637
-0.138835461848
-0.139593269509
-0.140820297094
-0.141108903012
-0.121393153936
-0.121396997281
-0.121406216859
-0.121411349378
-0.121422921264
-0.121442666757
-0.121465026326
-0.121488879713
-0.12152844715
-0.121568535653
-0.121614510566
-0.121664998515
-0.121719131417
-0.121776219544
-0.121834780915
-0.121903804886
-0.121976280041
-0.122051981054
-0.122132355235
-0.122220682357
-0.122319507863
-0.122431482565
-0.122563063686
-0.122735121436
-0.12295521266
-0.123195471921
-0.123424742169
-0.123677556312
-0.123958437351
-0.124251018126
-0.124556884634
-0.12488964316
-0.12524934036
-0.125635047454
-0.126045854088
-0.126481482987
-0.126943177303
-0.127433171305
-0.127952913207
-0.128503847642
-0.129087739076
-0.12970584207
-0.130357418119
-0.131038622311
-0.131746107722
-0.132482409946
-0.133250809159
-0.134046823844
-0.134861280005
-0.135694771915
-0.136557689995
-0.137466388661
-0.138394941052
-0.139475950349
-0.13916236556
-0.138985825307
-0.138987252175
-0.138786328586
-0.138561857469
-0.137991931183
-0.137137158559
-0.135999423054
-0.134660379889
-0.133189692682
-0.131678457477
-0.130186951565
-0.128768906473
-0.12750830985
-0.126516007699
-0.125902928198
-0.125734101891
-0.126028703487
-0.126801872671
-0.128026272025
-0.12963810785
-0.131558080841
-0.133591445691
-0.135560909659
-0.137867926515
-0.140664030515
-0.121265333106
-0.121268023321
-0.121273876337
-0.121279538103
-0.121292646888
-0.121310936469
-0.121332494634
-0.121353476398
-0.121389296259
-0.121430086546
-0.121475107196
-0.121523619711
-0.121575567669
-0.121634144601
-0.121690509263
-0.121754893896
-0.121823101689
-0.121895700713
-0.1219714987
-0.122054074138
-0.122145775062
-0.122249399497
-0.122370990661
-0.122528116594
-0.122733449809
-0.122974036331
-0.123210686069
-0.123450062309
-0.123711887982
-0.123990978968
-0.124289973382
-0.124618692239
-0.124975646838
-0.125360724322
-0.125773479899
-0.126212613261
-0.126678988462
-0.127174507332
-0.127701712302
-0.1282618167
-0.12885677782
-0.129488770343
-0.130157287077
-0.130857802029
-0.131583699281
-0.132340130429
-0.133141491518
-0.133984073715
-0.134842934829
-0.135722158305
-0.136651375692
-0.13766942111
-0.138824976367
-0.138518068528
-0.138195453596
-0.137930117541
-0.137730995786
-0.137321258762
-0.13667554887
-0.135704551298
-0.134481940136
-0.133015214386
-0.13137467464
-0.129619435072
-0.127817308903
-0.126020929697
-0.124286944908
-0.122681294227
-0.121283061536
-0.120197866478
-0.119548264094
-0.119371924431
-0.119691477694
-0.120529261475
-0.121948995423
-0.124047593357
-0.126628668207
-0.129043615689
-0.132713084728
-0.143842978343
-0.121131273171
-0.121132897563
-0.12113488046
-0.121141511921
-0.121155548493
-0.121172024207
-0.121192208366
-0.121212535046
-0.121243060815
-0.12128181413
-0.121324304939
-0.121369697819
-0.12141751441
-0.121473409898
-0.121530674844
-0.121591644789
-0.121655526115
-0.121724691696
-0.121796829679
-0.121874068339
-0.121958696638
-0.12205304377
-0.122164190538
-0.122306343649
-0.122492751595
-0.122720093596
-0.122961910743
-0.123197719182
-0.123445606293
-0.123712067961
-0.123999666708
-0.124320984537
-0.124674558698
-0.125056680151
-0.125470886535
-0.125913782331
-0.126384636575
-0.126886619606
-0.127422324043
-0.127993278681
-0.128600542956
-0.129246554755
-0.129931853264
-0.130652966549
-0.13140363709
-0.132187416705
-0.133016831368
-0.133883348544
-0.134773296097
-0.135698011894
-0.136675452317
-0.137950291704
-0.137458300788
-0.137081912955
-0.137003419101
-0.136714491343
-0.136193040534
-0.135366378939
-0.134244344001
-0.132818964611
-0.13116452756
-0.129299477897
-0.127272781609
-0.125123307843
-0.122897207111
-0.120637239335
-0.118396315141
-0.116236235588
-0.11422941709
-0.11247437421
-0.11109855992
-0.1101812519
-0.109704715917
-0.109675599429
-0.110207413973
-0.111575852455
-0.11374282912
-0.115455515241
-0.116262074278
-0.121282168913
-0.120992089574
-0.120993144716
-0.120993384381
-0.121001040919
-0.121013453098
-0.121026851991
-0.121043208344
-0.121063503983
-0.121088374043
-0.12112361173
-0.121162727364
-0.121204415906
-0.121247985445
-0.121297956722
-0.121354821651
-0.121413460624
-0.121473300945
-0.121537710157
-0.121605928178
-0.121678566414
-0.121756920972
-0.121841592555
-0.121941556826
-0.122068919673
-0.122235628551
-0.122443569194
-0.122676454405
-0.122910591564
-0.123146884389
-0.123401295952
-0.123681503569
-0.123991388319
-0.124337922048
-0.124717697891
-0.125133626598
-0.125580655178
-0.126056513615
-0.126565439809
-0.12711036811
-0.127693312645
-0.128315117365
-0.128977500501
-0.129683646896
-0.130432985006
-0.131216693381
-0.132024455572
-0.132864926376
-0.133743579582
-0.134657266013
-0.135584005428
-0.136588374919
-0.136131111402
-0.135701119786
-0.135675199254
-0.135577541595
-0.135022826627
-0.134102501476
-0.132801846057
-0.131185663592
-0.129281517196
-0.127145224482
-0.124793831945
-0.122257649132
-0.119561156829
-0.116737966176
-0.113826086314
-0.110874851082
-0.10794074373
-0.105085236056
-0.102383813505
-0.09993622658
-0.0978168262513
-0.0959283191611
-0.0941406347101
-0.0924861389712
-0.0913662181531
-0.0907815611661
-0.0871089998778
-0.072419018519
-0.0546282346252
-0.120846740908
-0.120847477579
-0.120847268209
-0.120856042779
-0.12086622666
-0.120875984789
-0.120887434612
-0.120906308069
-0.120924302014
-0.120955134052
-0.120990539382
-0.121028191903
-0.121067659951
-0.121112504903
-0.121165489581
-0.121221065987
-0.121276978238
-0.121336025149
-0.121398424658
-0.121465851531
-0.121538421939
-0.121613568409
-0.121701094658
-0.121813615243
-0.121960865097
-0.122146981002
-0.122364715655
-0.122592706395
-0.1228269749
-0.123066441008
-0.123334891268
-0.12363490696
-0.12397053406
-0.124339661223
-0.124752138905
-0.125205873135
-0.125689362721
-0.126207087039
-0.126761846851
-0.12735731975
-0.127996067875
-0.12867967431
-0.129414371816
-0.130198854494
-0.131010083259
-0.131833160114
-0.132683043218
-0.133591838758
-0.134563124467
-0.135666769888
-0.134771287902
-0.134016988575
-0.134048207417
-0.134157728183
-0.133752432097
-0.132783914768
-0.131381274522
-0.129567874459
-0.127425919721
-0.1249948281
-0.122315514606
-0.119402212076
-0.116276456411
-0.112959147569
-0.109480538512
-0.105876440109
-0.102189364748
-0.0984621080515
-0.0947314740324
-0.0910284399608
-0.0873861397436
-0.0838099250361
-0.0801149781096
-0.0759393896717
-0.0711409860788
-0.066047553875
-0.0601375069314
-0.0467252959705
-0.0100185165681
0.0442453284853
-0.120692510417
-0.120692877678
-0.120693197294
-0.120703136401
-0.1207111769
-0.120717463608
-0.120725225756
-0.120740412144
-0.120751081081
-0.120776572159
-0.120807691322
-0.12084075458
-0.120875628543
-0.120914970915
-0.120962412057
-0.121013814205
-0.121066165115
-0.12111915093
-0.121174157061
-0.121234833873
-0.121300964247
-0.121366994659
-0.121440454421
-0.121537637575
-0.12166594976
-0.121828751553
-0.122025940834
-0.122237847446
-0.122468243404
-0.122703272829
-0.122956590937
-0.123239260611
-0.123564808733
-0.123930242903
-0.124331654257
-0.124782991866
-0.125274717491
-0.125802965568
-0.126371326685
-0.126981639912
-0.127638583379
-0.128350566362
-0.129124841788
-0.129946684028
-0.130779175986
-0.131613575086
-0.132480161414
-0.133443060452
-0.134610255775
-0.133649745033
-0.132712608001
-0.132515398915
-0.132622894833
-0.132382011072
-0.131479486904
-0.129991994867
-0.128033702806
-0.125662767927
-0.122960938582
-0.119970691204
-0.116728650678
-0.113254518353
-0.109573205373
-0.1057106682
-0.101697932807
-0.0975654312459
-0.093339294781
-0.089033436256
-0.0846413968926
-0.0801273878349
-0.0754165790681
-0.0703773942187
-0.0647766390046
-0.0581221520347
-0.0501272016981
-0.0409047031284
-0.0287886034343
-0.00442630500111
0.0490622568697
0.117804450522
-0.120525396543
-0.120525397227
-0.120526225997
-0.120537022416
-0.120542469454
-0.120546822814
-0.120551618612
-0.120561463201
-0.120566498699
-0.120587405684
-0.120613847123
-0.120641709898
-0.120671282544
-0.120704249412
-0.120744630062
-0.120789883503
-0.120838711339
-0.120885019418
-0.120931924588
-0.120984343283
-0.1210417354
-0.121099752788
-0.12115860467
-0.121238498488
-0.121348291898
-0.12148787981
-0.12166127219
-0.121851257099
-0.12206400819
-0.122296958177
-0.122544941746
-0.122811613716
-0.123112853995
-0.123466633792
-0.12386731029
-0.124313824709
-0.124808746895
-0.125346268463
-0.125928488703
-0.126557875382
-0.127240321298
-0.127990094248
-0.12881049534
-0.129668894806
-0.130533440279
-0.131402843443
-0.132276121609
-0.133360149155
-0.13256305031
-0.131633115748
-0.131320877296
-0.131282634413
-0.131059821283
-0.130241836477
-0.12873208145
-0.126644132679
-0.124086782691
-0.121138848848
-0.117879097453
-0.114354914561
-0.110607005719
-0.10666452985
-0.102557233382
-0.0983106655195
-0.0939452306749
-0.0894692119916
-0.0848733951542
-0.0801251931282
-0.0751644554391
-0.0698932342521
-0.0641486136733