/*--------------------------------*- C++ -*----------------------------------*\
| =========                 |                                                 |
| \\      /  F ield         | OpenFOAM: The Open Source CFD Toolbox           |
|  \\    /   O peration     | Version:  v1806                                 |
|   \\  /    A nd           | Web:      www.OpenFOAM.com                      |
|    \\/     M anipulation  |                                                 |
\*---------------------------------------------------------------------------*/
FoamFile
{
    version     2.0;
    format      ascii;
    class       volScalarField;
    location    "522";
    object      alpha;
}
// * * * * * * * * * * * * * * * * * * * * * * * * * * * * * * * * * * * * * //

dimensions      [0 0 -1 0 0 0 0];


internalField   nonuniform List<scalar> 
6400
(
0.874427190975
1.37745074818
2.16648196984
2.65221770852
3.11915618411
3.59658561751
4.23776905124
4.96284209665
5.31936324149
5.90288182437
7.10720686633
7.88425439397
8.51990756271
9.25487388666
10.195125641
11.1769961946
12.02421132
12.8202709129
13.4908285617
13.8505795762
13.9655277757
14.185077329
14.7280763401
15.593886928
16.5561532494
17.4074319948
18.0803429293
18.6952406125
19.3618221198
20.0946062008
20.8386569339
21.3838287579
21.654196573
21.7839756037
21.8063892737
21.6940038053
21.7592049048
22.0964425568
22.0779337624
21.8098172701
21.9465341993
22.6318880967
23.3341969679
23.6919497612
23.7669546565
23.6488158662
23.4071819285
23.0930196783
22.7190213494
22.3052439415
21.7483265587
20.7885926025
19.5527375342
18.0860331495
16.8879702135
16.062863414
14.7884997522
12.6729206007
10.413278755
8.80923789729
7.11577822207
5.36358265109
3.49676998214
4.54157251189
8.5665143389
13.5204490972
16.5323783644
16.2656387919
14.3100189272
12.7354228272
11.9082570558
12.1421066656
12.7061231489
12.6032282174
14.6556367794
14.1003413563
15.9718392402
9.87483496465
12.8699175025
4.81167273868
3.13436722813
2.48995670284
3.08794141475
4.32935444573
4.19415146324
4.04111792943
4.2243153821
4.63962163924
5.23918014823
6.00792465791
6.94503493101
7.8790280837
8.69658265001
9.47763174333
10.2702699023
11.1809788663
12.1363556767
13.0555058611
14.0663707187
14.2435932414
14.1468298644
14.3225707875
14.8179151084
15.6607693793
16.7792734231
17.5584380636
18.1941689392
18.8554932327
19.5420919472
20.2419793482
20.9494962072
21.6077703771
21.8747041139
22.0034606331
22.0697200385
21.8395266094
21.96945618
22.3292863586
22.2402071609
21.792420319
21.8904298754
23.3311334553
24.4444519497
24.6873982429
24.6885139322
24.4548103277
24.0628401248
23.6430669459
23.043124704
22.4120859157
21.951440459
21.7034676852
20.7606645572
18.3115618361
17.2772790906
16.1433360054
14.0713677797
12.0174096623
10.0813560939
8.17922645164
6.46921427398
5.76201903687
3.90629037003
4.92549553839
8.67773681357
14.5532021383
18.3270514179
17.0842354185
14.9503783156
13.0656440269
12.40442884
12.8536242949
13.9738519631
13.4138541097
13.2743803223
12.7570814984
11.5630645489
9.72591843112
8.17544435684
4.26081747189
3.19846991457
2.79330055609
3.30366111581
3.5522073363
4.04035795526
4.45373268142
4.42917753702
4.55147904119
5.14752263985
5.98673488306
6.9286513291
7.88241279555
8.74836989635
9.53579550463
10.1836471729
11.0039886552
13.7044100866
15.7231281767
16.0964921124
15.4198024576
13.9571928939
13.9502451304
14.9583113701
15.8569491274
16.6816278782
17.5442309495
18.3051753284
18.9696341921
19.6349197932
20.3362305342
21.0019769442
21.7701217124
22.0441310198
21.8906730203
22.3637391173
22.1477257034
21.8631748551
22.4777864195
22.4195179724
22.019592687
22.1292534693
22.8117790574
23.5060491682
23.8707147796
23.9704759428
23.8958055383
23.6874014975
23.3662750954
22.935057075
22.4181866123
21.8191078326
21.0268351465
19.914926806
18.7903290362
17.7184877801
15.9685155177
13.9785876614
12.0295739416
10.1407705591
8.36103192905
6.84165918312
5.42676692041
4.47783710526
6.21047621915
11.0245140844
15.5377880668
17.7620077052
17.9052399344
16.3543133958
14.7226219692
14.0730900137
14.011615554
13.3781557181
12.8038378357
12.7865908354
12.4460710968
11.4642564853
9.84148068273
7.40957538082
7.5886180316
3.16675572717
5.46903042456
3.58555467046
3.68107523709
4.36155133543
11.8396958777
10.2127343884
5.15537570581
5.12873420905
5.99117276425
6.95369552231
7.92480458219
8.76643734139
9.58546123853
11.3230341663
13.452543244
15.1142921414
15.4785077082
14.313585191
13.403521683
13.679470541
14.2061226337
14.9127916577
15.8190988709
16.7729857911
17.6763258207
18.4704883798
19.1083884366
19.8038947625
20.4171608432
21.2507446182
21.7557316308
22.3875813228
22.2564300927
21.8330423906
22.2586363776
22.0738885523
21.9047856907
22.0527098689
22.1950179016
22.4615148202
22.9825503593
23.5378225324
23.8974975782
24.0368718537
23.9990964729
23.8191872702
23.519234069
23.1090546939
22.5975559437
21.9720064373
21.1783780097
20.1824144439
19.0477170814
17.7072830401
16.0110028099
14.0844655199
12.1539305937
10.3304879023
8.70044778609
7.36578528941
6.40557915338
6.21155358756
7.39640888729
10.398718749
15.933212512
19.4598886741
19.65963451
18.0219636455
15.6963686662
14.1279347611
13.3753029315
13.5666724696
14.9706589993
14.9056076437
13.5814971023
13.4321766457
16.7073185531
13.1166219874
11.1400951539
5.59669326907
7.52019883995
4.2986729999
4.61615534009
6.5057938985
11.7293432573
8.1303026442
5.56735232657
5.6475919625
6.21515574087
7.10140701732
8.08896021518
9.50647974033
11.8475387615
12.8648074536
13.2206508789
13.1782395989
12.897992022
12.9237644247
13.4578106717
13.8164070213
14.2441015408
15.0041816325
15.927258609
16.9030343102
17.8438558964
18.5992258352
19.3891314614
19.9243578736
20.7787321289
21.2880332599
22.4973535951
22.3067239504
21.8371848107
21.9991536084
21.6790128744
21.7253614664
21.9370479805
22.1814229913
22.4207104621
22.7268012982
23.1651866488
23.6306205313
23.9729570605
24.1369659072
24.1308756005
23.9789866228
23.7031851017
23.3163827308
22.8212242135
22.201977892
21.4268293618
20.474712226
19.3340099974
17.926066402
16.2023054751
14.3074788975
12.4522581633
10.7789228901
9.39516962908
8.3997683094
7.89766167879
8.10828286594
8.54668587264
10.5598229961
15.4236135589
19.533100002
20.9622355381
19.8207574847
17.0823681597
14.6367509524
14.3378290389
16.5900857877
17.4554653733
16.4129848694
15.4896630356
18.1265545235
21.1280981631
16.4521162485
15.5691203809
9.90035844734
9.05647788821
5.35036535537
5.94335636574
12.0077397151
11.4696997016
6.43570283877
6.14130140246
6.26138042016
6.56347906978
7.36093158335
10.0302742201
13.2874236157
13.7063777782
13.3246405009
12.3419681398
11.9029911506
12.1949871054
13.1130969817
13.4400933495
13.6926316258
14.3128969087
15.1545288303
16.1175992781
17.0180119067
17.9730866521
19.0251573498
19.4941505688
20.5308758786
20.8201092572
22.3058549247
22.2458157328
23.0691806585
22.1257353776
21.3339909422
21.3601654755
21.6941015735
22.0483477732
22.3621228425
22.6517968638
22.9781931168
23.3752104781
23.7840318266
24.1065116294
24.2829050846
24.301808747
24.1764695827
23.9277531278
23.5705616796
23.1051966012
22.5150283066
21.7723634116
20.8454221288
19.6896210636
18.2481953869
16.5444575784
14.7439095659
13.0464490775
11.5932665507
10.4909888936
9.80537153121
9.67519802938
10.3628317721
9.49911710647
12.3084695377
17.2898390699
20.8178251235
22.224530001
21.3335328877
17.9946528405
15.8327737823
17.6359318248
19.8352294087
19.3092099268
18.3056484986
18.3725797113
22.9113667497
24.4840724415
19.4927800803
19.2930018737
12.0081200518
8.86057947075
6.50758222255
6.10560122235
11.9347773597
8.27535573629
6.60883035472
6.71589510722
6.82958177862
7.5138676567
7.97605328491
13.0670968736
13.7213521283
13.7374194834
12.3303208117
11.2465489418
11.4683127537
12.7900738872
13.0979874326
13.1271595763
13.7091129812
14.4306632018
15.2741577752
16.2352857111
17.3490812091
18.4229980683
19.0484109716
20.4286524808
20.592252956
22.2177315363
21.9997221472
23.0584765919
22.4488695211
21.8671610971
21.1188945764
21.2847566059
21.762856653
22.204407644
22.5613474394
22.8848590983
23.2296012192
23.6093592498
23.985961882
24.2926821804
24.475708612
24.5142553093
24.4151553824
24.1988015614
23.880821078
23.4593940316
22.9145613387
22.2131889505
21.3110864292
20.1584847105
18.7346329013
17.1156043024
15.4787337267
14.0004597596
12.777651894
11.8479421359
11.3013258394
11.1840120934
11.0282754468
11.0627452892
13.7253245344
19.8676557089
22.2036674583
22.5668590708
21.5349571436
19.2955739067
19.0524785705
21.6033550526
22.0381195617
21.1967602015
20.6027540039
22.5524304003
25.2734896242
26.7172651396
22.1425877615
21.0053944951
11.6975217138
8.45599929327
7.62967043745
12.0668608326
12.0108413511
7.21169860882
7.24060222127
7.37349649495
7.48289859334
8.03781433399
12.8386244003
13.7650630662
13.8190086705
13.2988054558
11.0987958087
10.7958559196
12.3723197701
12.9497806423
12.7086688026
12.9999956985
13.7574015793
14.6226325198
15.4911730627
16.5131182775
17.4501846085
18.8129711464
19.1575659344
20.4395800637
21.9793223527
22.3471263451
21.6652916101
22.4846640551
22.557332762
21.2236008898
21.0893581867
21.4255035037
21.9053320855
22.3732133489
22.7696005215
23.1260097374
23.4899233649
23.8685548686
24.230506443
24.5272328997
24.714530385
24.7702577918
24.6993958975
24.5225202277
24.254738147
23.8911495576
23.406580638
22.7598735771
21.9000639169
20.7891038903
19.4468501853
17.9852230833
16.5668292674
15.296519428
14.1770134977
13.2398824656
12.6579778043
12.462451754
12.4923892101
12.8647558484
13.0011618938
19.9201131746
23.9648518407
24.0056036964
23.4433814466
22.5215991165
23.359733445
24.7121811018
24.0256216536
23.3370793456
23.5366202628
25.8340611292
26.4815225732
27.0414182333
24.1627171775
22.0269970728
10.9366161322
8.32747765055
8.28821902039
13.0287953621
10.9256882358
7.77994064369
7.92431231228
8.18480211016
9.4375364382
8.12129772459
13.6125356664
14.2697853181
13.8477716439
12.0078002791
10.6800183381
10.9350412256
12.4638238594
12.6445433284
12.5874806739
13.0293878285
13.7623430474
14.7169085769
15.6959366314
17.1492859602
18.3793667139
18.7655843157
20.7257313156
20.3062960266
22.2066141148
21.6858644062
22.9578255089
21.7468576532
21.2928236941
21.1212152943
21.2568098614
21.6220986884
22.0822385609
22.5558515095
22.9872221593
23.3809271218
23.7678479892
24.1538024323
24.5133405531
24.8070336563
24.9987461902
25.071762027
25.0336178467
24.9047818225
24.6985051777
24.4068687946
23.9995229945
23.4286680372
22.6439357946
21.6289560653
20.4402540349
19.1996600518
18.0064565818
16.8344060749
15.6131994432
14.5420061984
14.0225413631
14.1421887513
14.5074541365
14.744654128
14.6193781658
16.4780093083
24.0922362878
25.8040184857
25.8348174637
26.4916947879
27.5445094456
27.1834605981
26.1606209099
25.9484868463
26.9149860195
28.0695055732
27.8819125305
27.2430297821
26.212393988
24.836936541
10.3491954599
8.72274241668
9.44615421108
13.081467548
8.86534545392
8.79199987508
8.6139025288
8.87311514077
12.0578875744
10.7484699227
14.4461332907
14.5254579301
13.8995417744
11.2657176979
10.6929649991
12.3214382189
12.7065086581
12.3851718365
12.5544266887
13.1925931283
13.8974527725
14.7967064163
15.6354288867
17.3193829977
19.4814151409
18.7020315119
20.6744838609
21.9083618719
22.4590868867
22.9897682463
22.108903733
22.0540036685
20.96889644
21.024918483
21.422167925
21.8388223404
22.2848387532
22.7549458123
23.213419945
23.6481946292
24.0670847254
24.4686044523
24.8331298991
25.1296858422
25.3292220867
25.4216742497
25.4211439493
25.3496128382
25.2169185903
25.0120156835
24.7018277681
24.2360940333
23.5719715112
22.7189766622
21.7574774298
20.7759254187
19.7302852585
18.4262237533
16.9571479004
15.9407286783
15.8657887497
16.5047061443
17.0824748645
17.2565038282
16.9995068584
15.7698864356
15.9839666058
27.5089112542
30.373877786
31.3728052266
31.2028008945
29.7476846276
28.8016691039
29.057161485
30.1680681951
30.4508438505
30.1512132777
29.8165036842
30.1338518622
30.3076753151
10.2689063969
9.52745721406
12.9029662487
13.2048925943
8.91027764374
9.5347062821
9.29585910884
9.81089457037
11.5099638777
14.2859535612
15.2502935576
14.7710549259
14.1113550457
11.2331778672
10.8394004512
12.8541176685
12.7959230682
12.350955675
12.5825836836
13.3355707039
14.2789693047
15.15860725
15.8277237081
16.9452284229
19.6565291402
20.8272910569
20.2524357641
22.0469962325
21.2166613739
23.0266188969
23.2694951677
21.9873021874
20.9255293695
21.1363360083
21.6196871765
22.0669071978
22.5116130529
22.9780857472
23.4514956725
23.9253930291
24.3866257555
24.8139406256
25.1902840933
25.4946111288
25.7060973591
25.8230256127
25.8665022009
25.8601364189
25.8115290711
25.7082235693
25.5176627671
25.1928999227
24.7058852393
24.0911957568
23.4233752259
22.6741842765
21.5444782975
19.8953615196
18.4814827407
18.0139184199
18.7333570395
19.9234694424
20.6352592824
20.7209956309
20.1218823039
18.6186011313
16.395924175
17.533303818
31.7812258917
37.0201923662
35.6419716487
33.1601605639
32.2766416586
32.7137250594
33.4419729657
33.7032641567
33.9281603117
34.3797474815
34.9588193022
35.6155428936
10.5703951489
10.3714966871
14.529247037
13.8680687541
11.9101977764
10.7385281954
10.1974308384
11.2786128745
10.9270526566
15.2427724577
15.8738252104
15.0872326445
14.1579758105
11.8145721957
11.6020683958
13.3262716295
12.8030920863
12.4253853388
12.7023333029
13.3830119219
14.4365205476
15.6200615655
17.3401249541
17.0922694252
19.1466778714
21.2151864625
20.118736579
22.3285140143
23.0816624887
22.1317363459
22.2786119861
21.2413664822
21.22617298
21.4697285469
21.8745649724
22.320277678
22.7690067819
23.2355287064
23.7099336459
24.2072007105
24.7187416331
25.1914722271
25.5880023727
25.9022246147
26.1302658164
26.278734421
26.3732267901
26.4381318684
26.4807493545
26.4907636868
26.4406394105
26.2970695507
26.0565784262
25.7618751476
25.4110220893
24.7107875495
23.1915594174
21.491353772
20.8010151665
21.3185696862
23.0334010819
24.654512359
25.4493201525
25.5832938299
24.8431482005
22.9882328826
20.1122663414
16.3874764753
26.9238443924
37.7363922294
40.6249644655
37.7669618406
36.9233956809
37.2726120775
37.8085297423
38.0756774511
38.9005530152
39.6030281264
39.5486289361
39.7536554714
11.1378847581
11.0024525209
14.2463126408
14.3234264588
14.321879172
11.839774969
11.2318150787
14.1746881301
11.2529697401
16.0979644609
16.3484082238
15.4145614966
14.2088439306
12.3967101878
14.2962356716
14.3902871904
12.9702962912
12.6356308988
12.9546521647
13.5322573592
14.4019904161
15.6064070823
18.6688334768
19.6099212553
18.6068201694
21.2962488518
22.1910069269
21.8827896973
23.0543668826
23.3348054707
22.6594863683
21.2656192594
21.432642217
21.8059574819
22.1846880004
22.6054052801
23.0425875086
23.524594376
24.0200357633
24.5192636588
25.0567395525
25.5841439168
26.0237009245
26.3568290428
26.6043691524
26.7911622019
26.9440423213
27.0836179857
27.2179834236
27.3437670127
27.4482898816
27.5293244255
27.613531101
27.7034705823
27.5815251638
26.5863764931
24.7688438234
24.0825235756
25.2062066011
27.0978903639
29.7109700164
31.4266959243
31.7445798473
31.6631849229
30.1338655852
27.6078345662
24.3093964216
18.3892119744
19.9238778087
33.3534960834
40.4785113159
41.625991311
40.1756027144
41.1645914483
42.113601761
43.3569870994
44.5319167827
45.0661319839
45.0547454343
45.2450048977
11.7652705858
11.680017553
11.3388863912
14.628135369
14.8283464539
12.5729041354
12.1663107609
15.1332062459
11.8723318066
16.9743987425
16.7724320135
15.7553788019
14.3740207664
12.6866218977
15.4620606221
14.9245275632
13.3738993046
13.0177075673
13.30137983
13.8513485649
14.4930427947
15.5071605806
19.2030632002
20.6800476841
18.9488525807
21.3571947838
22.7239833455
21.313087873
22.6893975993
22.8534288041
21.5197991625
21.6227117992
21.8871223057
22.1920834301
22.5261903103
22.945345499
23.374166099
23.8210585487
24.3413463144
24.8831012426
25.4358301553
25.9942220807
26.4821042624
26.8526785215
27.1312844512
27.3643198837
27.5806316912
27.7912872475
28.0084661345
28.2402691382
28.4963264347
28.8431274389
29.3316412187
29.8304879155
29.6391410746
28.0800646992
27.0292007766
26.2254863384
25.1858672791
25.2998265913
25.2498293398
22.2946444082
15.7102413223
10.6904281348
3.98450592174
1.13383381835
9.3316300765
17.3348625231
22.1036697698
21.9291892491
44.2503997816
48.4256948843
47.8245765014
43.4664754075
40.8054718098
44.4273404806
49.3113056342
50.4531115566
51.8337348907
52.3582357812
12.5716576087
12.6581231105
15.256018325
15.2440881373
15.2464792161
13.1941998773
13.190480405
15.9458431616
12.861105275
17.7270830762
17.1732227602
16.1170533272
14.618509618
13.0614469218
15.7265898373
15.0817589979
13.7773408449
13.4549997085
13.6778693777
14.1639588122
14.7497524942
15.5452131982
18.5754942867
21.4966767882
21.6206623914
20.6949603627
22.9435082971
23.6779171576
21.4229600426
21.2018072489
21.4535971476
21.8599087981
22.2389206398
22.5756132225
22.9280023181
23.3084879438
23.7346230426
24.1959563429
24.6863382007
25.2583281585
25.8590845986
26.4462187987
26.9671770078
27.379005207
27.7066764054
27.9980688142
28.281020734
28.5621356808
28.8395674647
29.1281664692
29.5130332525
30.1551826718
31.0988956475
31.8797485831
31.1395503794
28.4744221714
21.3441900535
0.168592704635
0.000185434492013
3.47623382363e-06
5.89245455246e-08
1.70483330107e-10
4.84476409759e-13
8.38619495424e-18
6.55970657448e-18
1.59254591317e-17
1.07350185715e-16
5.02822276455e-16
1.85742799915e-15
1.18036646647e-14
9.24200593886e-15
8.0179426305e-13
4.56354907238e-10
4.58734059788e-08
3.48101659452e-06
0.000801594006311
13.493349556
54.2557195853
58.0596035047
59.7094170332
13.3259104215
13.5153315402
16.8575311409
15.876302987
15.3084274288
13.8261466911
14.1878745361
16.6198619534
16.5940883603
18.6568481229
17.6296909743
16.5674857335
14.9417334605
13.5831215359
16.0070655992
15.1825558615
14.1709838717
13.902133453
14.0563664045
14.464096411
15.0229249932
15.8026985431
18.0298304226
21.7607114335
23.0075896488
20.3646024759
22.4845683003
23.7225416374
23.3493595985
21.6860201664
21.5589083725
22.0905429944
22.6030515212
23.0143241523
23.3119556035
23.7000224864
24.1133273132
24.5895147935
25.0939931843
25.6663675742
26.3091359941
26.9443643692
27.488521286
27.921860632
28.3075753307
28.7102175205
29.09977332
29.4202380713
29.6488856714
29.9296324863
30.4435048765
31.3396587554
32.6936657978
33.5321476289
27.9534811786
0.24951542743
9.32301930588e-08
3.77537290432e-10
1.09177672889e-11
1.5894267858e-13
1.29137567568e-16
2.1547840694e-19
1.51891717953e-20
0
0
0
0
0
0
0
0
2.11255476804e-24
7.12520988355e-22
1.06577952573e-19
6.18331150182e-17
8.63656867901e-14
4.67692267364e-09
7.1024716766e-05
32.7760304566
62.1359776715
13.9408558203
14.1525520943
19.0283549063
16.3571521128
15.1101583702
14.3891891612
14.8994340479
16.6289231424
18.1813341651
19.7306579032
18.241635394
17.1493597755
15.512663642
14.4032728418
16.4948134335
15.4400862809
14.6473151155
14.4014289399
14.47495141
14.8005609744
15.2912520532
16.0155766577
17.8070452873
21.6369082257
24.0041570374
23.1703453184
21.9493864705
23.087424665
23.0508413885
21.6043473058
22.0206824839
22.5881908828
23.151888183
23.5079123221
23.8211839446
24.1252888144
24.5522848638
25.0103276807
25.537764544
26.1255815711
26.7815043083
27.4661251731
28.0855669403
28.5421460523
28.972444086
29.4903531923
29.9982430287
30.3194795014
30.4532581034
30.6871974525
31.257881909
32.2090694881
33.6015090938
28.4138073365
0.000617380676551
1.3497594786e-10
4.42662339323e-14
1.78994367872e-15
2.44053432269e-17
6.69260837964e-20
0
0
0
0
0
0
0
0
0
0
0
0
0
2.72202657732e-23
2.70492538137e-22
5.92978250899e-21
2.8752695414e-19
1.59670315316e-15
1.32903759645e-06
2.56193449131e-11
14.4203631473
14.6205780147
21.1047819559
16.7213154557
15.1832196528
14.916435662
15.70167956
15.918673978
19.1332941205
20.4977785807
18.8387822777
17.7478141062
16.288055053
16.3264784265
17.1770132654
15.941791026
15.3221199957
15.1013890842
15.002174191
15.2248368715
15.6128376129
16.2624641476
17.7814053756
21.5047236366
24.4196330384
24.8312052708
21.624069897
21.9199856594
21.6706459195
21.729499426
22.3249350781
23.1002040189
23.6601564268
24.0395673666
24.3666502923
24.7590138116
25.0549659999
25.5002147492
26.0217821575
26.6049260708
27.3267549313
28.0723924557
28.729597726
29.1455599891
29.5773617341
30.7956521534
32.4872384385
32.9886463834
31.9292840888
31.8232493477
32.2691739927
33.159277411
27.0251181953
7.1426857516e-05
1.07649630827e-09
4.82933169456e-21
4.8800995042e-18
7.96297751994e-20
0
0
0
0
0
0
0
0
0
0
0
0
0
0
0
0
0
0
4.20544572238e-22
2.847858382e-21
5.25168696965e-19
94.1418623572
14.8471060241
15.0136053662
20.9147806703
16.092093752
15.3565397936
15.3726237064
16.615353795
15.8730249745
19.9342113149
21.2176160383
19.4125632979
18.3076874537
16.8860261616
18.5940906868
18.1381550865
16.6494697282
16.1016387429
16.1803435545
15.7535081078
15.8192667213
16.0345184466
16.5465354118
17.9004155433
21.3581175038
24.2912553401
25.9451347933
24.4743023864
23.376944534
22.7678428714
22.0123018332
22.6433308992
23.7778712044
24.1017225044
24.5677170988
25.1908713148
25.3611028325
25.6566916285
26.1002862961
26.6314081779
27.2102210941
27.8639084659
28.6558422856
29.4523983773
30.3226362557
31.4220648375
33.0376803069
34.295621704
34.1242191721
33.8988006595
34.3471069683
35.191795768
31.4746320814
0.000324821477817
2.96497144621e-09
3.89692859594e-13
5.29277596497e-15
0
0
0
0
0
0
0
0
0
0
0
0
0
0
0
0
0
0
0
0
0
0
1.29400886926e-21
9.41849042403e-11
15.3503412428
15.4953903545
20.5242285701
15.7175815825
15.6383681594
15.7437761472
17.3975547649
16.3177016484
20.6218014953
21.92506546
19.9880675713
18.8775824831
17.3927748541
19.3271321091
19.0292745637
17.4326022064
16.869154321
17.0645277367
16.6569285874
16.637684632
16.662026592
16.872756031
18.1811287158
21.3399602791
24.0174861551
26.2878730401
25.6944286141
23.8558576128
22.0627553912
22.5412651781
23.2018797246
24.294431484
25.0314943629
25.6093115616
26.0411221288
26.0648811811
26.3402674638
26.7991565986
27.3378537024
27.9425300452
28.5942419749
29.4607990999
30.6192919311
32.1968394687
33.2301447363
33.4907212578
34.0741964527
34.4834914633
36.2460026988
38.3492578031
37.8635882558
0.00295975533108
3.92999003581e-09
6.77706632694e-13
1.39001120378e-15
3.36548450784e-17
1.12967891157e-19
0
0
0
0
0
0
0
0
0
0
0
0
0
0
0
0
0
0
0
0
0
2.17462542604e-22
2.87722806441e-22
16.1037174712
16.2496654869
20.1569396921
15.9817327411
16.1979601808
16.218549614
17.3654965485
17.044963809
21.1067120629
22.5974056965
20.6021844355
19.5025744387
18.0278577783
20.0012868262
19.8392363977
18.3174489152
17.7044017065
17.9306670963
17.5363075879
17.6047297146
17.5745477698
17.3629229662
18.6580299158
21.5073290521
23.8927971304
26.3909261524
26.2365958448
24.5306509766
22.5265903294
22.7721210382
23.8751354094
24.4162296817
25.0070589626
25.8145252
26.9963529933
27.1160016357
27.3013995818
27.6006870577
28.0958059566
28.7804089702
29.5457613078
30.5442916349
32.5240726735
34.3247418533
34.4170497575
34.4628893597
35.517459129
38.7542989097
42.9536016062
42.125817775
0.000845611315899
1.40470886502e-10
5.81301376955e-15
1.90589643928e-18
1.19584780511e-20
2.42388658914e-20
3.72218532325e-21
0
0
0
0
0
0
0
0
0
0
0
0
0
0
0
0
0
0
0
0
0
1.60732947364e-23
7.29841084449e-23
17.2446091327
17.3469351886
20.4111248517
16.9224588065
17.3749557088
17.0721591444
17.6414069234
18.3934545802
21.1132372624
23.0936615395
21.2847934161
20.20432813
18.7758371425
20.7687134624
20.6791602077
19.3724498872
18.734515809
18.9519865687
18.4232674391
18.6739011124
18.8140861503
18.0924659891
19.197552843
21.8594002114
23.9561995931
26.2476287705
26.4818088347
25.1434258822
24.6445264284
23.6632960596
24.3162009428
25.3267340022
26.5469779982
26.4115588253
27.1907885241
28.1881843306
28.3636737378
28.7546693337
29.131202489
29.7060782783
30.6184225386
32.5714616345
35.3704120726
36.1993281537
35.8231945951
36.8966913118
41.4881401751
48.4463840821
48.2368900108
3.04167833829e-05
2.12820975649e-12
1.98697399433e-17
1.35955310788e-19
0
0
0
0
0
0
0
0
0
0
0
0
0
0
0
0
0
0
0
0
0
0
0
0
0
0
0
18.8451967296
18.7025439057
21.1969200668
18.8458574473
19.3696599334
18.3439720935
18.5740091608
20.3552449705
21.3016749913
23.7017640378
22.0913728221
20.9939014171
19.6133951656
21.5741389957
21.5145957325
20.538961823
20.2634376492
20.2949833093
19.4024492787
19.8461734086
20.3668941242
19.1543449889
19.6122368681
22.2945675553
24.2139176489
26.1132698942
26.6686039146
25.2817823159
25.8463428418
25.2912667965
25.4357288053
24.9928598724
26.1857602253
27.7308021518
28.1709245241
28.8935449156
29.4297513106
29.8391870262
30.3879561724
30.9836899647
32.4650788418
35.8138746823
38.1247690981
38.3613278297
38.9595675459
42.8571819294
50.8386915047
50.8963191398
4.31455472422e-07
1.89925125715e-14
3.32029206559e-17
1.52031940202e-19
0
0
0
0
0
0
0
0
0
0
0
0
0
0
0
0
0
0
0
0
0
0
0
0
0
0
0
0
20.5471013722
19.9800597059
22.0606740652
21.4112121361
21.1063246217
19.8306409742
19.6122595871
21.5063923812
20.4757987675
24.1728364257
23.004578288
21.863886279
20.5320615549
22.3951225318
22.2922113545
21.5129783281
22.410880647
21.9211296305
20.5111234722
21.1538274321
21.7385950025
20.531607299
19.7498697456
22.2907525363
24.4018786769
26.0181357944
26.7444785964
25.3738669294
26.2328597653
26.6042787762
26.793328514
25.7851549279
26.4896451942
27.6234996903
29.1318629351
30.1493767417
30.7362095747
31.1044281961
31.6238486435
32.7445728625
35.8461078928
39.4311836597
41.1127409845
41.9238974607
44.5334501564
50.4657385342
47.940223232
2.0003557227e-08
5.1138985312e-14
7.40344705896e-17
2.59282998499e-19
0
0
0
0
0
0
0
0
0
0
0
0
0
0
0
0
0
0
0
0
0
0
0
0
0
0
0
0
0
21.3969980282
20.8886439079
22.6207362978
22.479596745
22.1941439585
21.2493064582
20.8285386236
22.9117611707
21.5329359167
24.7795299569
23.9289062728
22.7822616384
21.5269310615
23.2505503407
23.0874930691
22.3352421758
23.3936453435
23.0420937215
21.6029867671
22.456094123
22.4918709564
21.3563415966
20.823243092
21.0389270567
23.9254606473
25.5474096594
26.5554060836
25.3720460961
26.322804007
27.1648448365
27.9041232359
27.6830249408
26.8021525296
27.69601018
29.3954266472
31.0569586543
32.1614009718
32.8078518095
33.3452313499
35.9012397237
40.001291989
43.0812369871
44.4843543004
46.1677824969
50.1778928943
44.079083529
12.6523041366
2.70159822438e-13
2.43360047218e-16
6.93102013457e-19
0
0
0
0
0
0
0
0
0
0
0
0
0
0
0
0
0
0
0
0
0
0
0
0
0
0
0
0
0
0
21.5151245796
21.4814607768
22.9830798471
22.7253955852
22.9049231086
22.3646226071
21.8997521589
24.2955252792
23.2564361222
25.5683478299
24.9154993594
23.7360009148
22.5930117008
24.155531818
23.9573747571
23.2959660608
24.2156084977
24.0275652384
22.7584400576
23.5047183718
22.262075988
22.132074267
21.8934899805
22.1712638047
23.0220897511
24.0042026482
25.7529895992
25.2228254236
25.8985236211
27.2265605596
28.3929054806
29.07865412
28.3871996072
28.5190502087
29.5990411094
31.2258764973
33.0722880433
34.5902645166
36.0548595015
39.9485826921
44.0068284544
46.4514807768
47.3926620796
48.7845584693
42.5826658587
19.717585002
1.83234328e-12
8.45324682336e-16
1.89360636497e-18
0
0
0
0
0
0
0
0
0
0
0
0
0
0
0
0
0
0
0
0
0
0
0
0
0
0
0
0
0
0
0
21.8094502723
21.9208878826
23.3146228986
21.8620872897
23.2331177617
23.0009581919
22.6391386185
24.9401578306
24.1437266364
26.3872599898
25.9481011693
24.6979271375
23.7381304776
25.097490001
24.8743288167
24.3940444614
25.1233303654
25.1234453924
24.0356092865
24.9337488082
23.6360542739
23.8099687683
23.1727601148
23.4781533053
24.8761613471
25.4974937727
25.4291471062
25.0108113451
25.4567328448
27.2127954167
28.4421178259
29.3713101583
29.8160677904
29.6596184986
31.0391049804
32.0184602246
33.8375220696
36.280673025
39.4631090305
44.0930363974
47.6281321283
49.0947432971
47.9206192151
43.0738425228
35.6993892168
11.9264432983
7.09334098984e-15
1.61483378603e-17
0
0
0
0
0
0
0
0
0
0
0
0
0
0
0
0
0
0
0
0
0
0
0
0
0
0
0
0
0
0
0
0
22.565784532
22.6422775189
23.6698100237
22.3224011744
23.5287142935
23.3750602901
23.1786663235
25.1843831983
24.782402606
27.0088801965
26.9669441388
25.610282182
24.949908064
26.0330231451
25.7597930602
25.4626711701
26.0003347654
26.3064415763
25.3587440413
26.3696919386
25.433475482
25.9108627194
25.6531060436
24.465135162
25.6223233223
26.6139481528
26.7249088477
24.9065388405
24.9494802157
27.1612999176
28.6373380489
29.0557396039
29.652400931
30.0541601973
31.414568753
32.6951599126
34.7390548652
38.0313517861
43.0489641476
48.229227622
50.9326276013
50.5648795311
46.4385874803
38.0393266327
21.4518747068
8.06518015743e-14
1.12527966571e-16
4.56303406248e-19
0
0
0
0
0
0
0
0
0
0
0
0
0
0
0
0
0
0
0
0
0
0
0
0
0
0
0
0
0
0
0
0
23.5141262705
24.5466901118
24.1805617147
23.3443798469
24.1118276341
23.8116833567
23.7031689345
25.4036106672
25.3702711008
27.2887420409
27.9595504084
26.4352666572
26.0317624071
26.8090450372
26.6051831699
26.2824758093
26.3263568705
27.3889770205
26.7512618727
27.6282433359
27.4155018589
27.2640983475
27.0933007492
26.6949942016
25.9739194147
26.7608184603
27.7199133843
24.4664310322
24.5201680968
26.527109504
28.7328144029
29.6868132665
30.4809346614
30.1610301571
31.3541409074
33.0212558808
35.3118317258
39.6697886238
46.573578778
52.1186848891
53.5729173312
48.4876211271
44.9452814427
39.944644399
15.2775687851
7.62724765036e-16
1.94665705595e-18
0
0
0
0
0
0
0
0
0
0
0
0
0
0
0
0
0
0
0
0
0
0
0
0
0
0
0
0
0
0
0
0
0
24.2476170641
25.3144078702
24.9357936513
24.2753768524
24.8581165163
24.428343937
24.2978923348
25.7067232408
25.9437560046
27.309844738
28.8502282384
27.233552908
26.7060498246
27.4603245862
27.5238267823
27.0340611759
26.6000989439
28.1702457142
28.1830085533
28.7311657602
28.777049591
28.9086665851
27.6843216299
27.6620376887
27.1987629159
28.4241444525
29.104622276
26.3700644595
24.1903409147
25.6058672551
28.1314479844
29.9476150097
30.7864676867
30.8240425539
31.1239794031
32.9510617583
35.3674018845
40.9612711554
49.8951554678
55.9989304512
54.2571100092
47.3153587229
39.3902134953