/*--------------------------------*- C++ -*----------------------------------*\
| =========                 |                                                 |
| \\      /  F ield         | OpenFOAM: The Open Source CFD Toolbox           |
|  \\    /   O peration     | Version:  v1806                                 |
|   \\  /    A nd           | Web:      www.OpenFOAM.com                      |
|    \\/     M anipulation  |                                                 |
\*---------------------------------------------------------------------------*/
FoamFile
{
    version     2.0;
    format      ascii;
    class       volScalarField;
    location    "267";
    object      alphak;
}
// * * * * * * * * * * * * * * * * * * * * * * * * * * * * * * * * * * * * * //

dimensions      [0 0 -1 0 0 0 0];


internalField   nonuniform List<scalar> 
6400
(
0.838943866955
1.26983788764
1.95550788838
2.27225741874
2.58797206513
2.94035150785
3.51847754125
4.19390296985
4.35041336959
4.70314440442
5.82376995313
6.35604022605
6.75558816992
7.28557399115
8.07272603626
8.88249816048
9.49363565086
10.0810399169
10.6025236238
10.8288024409
10.7564940694
10.7161509993
10.9556824149
11.529537504
12.2011971393
12.7652644387
13.1378731484
13.4627971313
13.8746594929
14.3848547589
14.9403748202
15.2770639432
15.3308140057
15.2755591128
15.1223805507
14.7701891027
14.6062065461
14.8613095436
14.6365360419
14.0783195158
13.968812813
14.4857675493
15.0489589032
15.3170322738
15.3760713646
15.2871941502
15.1274026035
14.961901534
14.7971200055
14.6431466152
14.3428517463
13.4994882921
12.5975710185
11.5705646822
10.9962806645
11.1092864748
10.7265413123
9.26188270727
7.57348700665
6.82929470312
5.84661868986
4.786526854
3.72272015578
5.39514592164
9.49011705371
14.4570173516
17.4704797618
17.1978802879
15.2089471822
13.535324847
12.5854012075
12.6675575147
13.0911155016
12.9002384676
14.820061805
14.2209890205
16.0227267235
9.92722607885
12.8797453769
4.81862281179
3.08879498917
2.40199084812
2.94292946082
4.14053795115
3.82405221222
3.44732335801
3.46883272883
3.75180532411
4.19612117442
4.78488863826
5.53675279454
6.2862656136
6.92303093673
7.53044370831
8.13562622953
8.8471199431
9.59104158128
10.3439171482
11.3871522541
11.3971700323
11.050200219
10.9125003419
11.0287312448
11.5404659201
12.4686632975
12.9081058304
13.220110139
13.6174582581
14.064636551
14.5373333031
15.0338047112
15.5616279385
15.6202066744
15.5839337404
15.5161749108
14.9459846157
14.9154767027
15.1805559285
14.8121545049
13.9423603873
13.7637095277
15.8128003757
17.1266920289
17.2319145722
17.176953229
16.84899813
16.3634333546
15.9597928616
15.3539387832
14.8239917794
14.6975984759
15.1045711767
14.7449250033
11.7932139554
11.489036391
11.0268414527
9.29990879598
7.93227724834
6.77865477725
5.66084633245
4.76043990138
5.16922714972
3.98882171935
5.6157044046
9.55307923342
15.3838944616
19.1260636129
17.9526993358
15.7976271642
13.8518038564
13.0601236443
13.3573625711
14.3241197727
13.6981602127
13.479942189
12.9014596763
11.6558336602
9.78536469948
8.20484866293
4.29281201798
3.06322953202
2.60599285026
3.09373018824
3.1921750968
3.47457995989
3.78369592652
3.70536936772
3.69403538809
4.12171143521
4.76911439534
5.51310685439
6.28183172042
6.97276881563
7.59420909817
8.06199431537
8.69757144918
11.8153789937
13.9397244213
14.1671209287
13.1595248698
10.9013988714
10.3935876169
11.2315483907
11.8061885039
12.2764806403
12.8566476852
13.3551462453
13.7583023986
14.1831911371
14.6788070391
15.1087171701
15.8081245085
15.9182641533
15.4323718895
16.0826053154
15.5356536767
14.7581298703
15.5215820885
15.1081607436
14.2003858552
14.0041510041
14.5720718719
15.1821688066
15.4775499102
15.5598438653
15.514485058
15.3767982918
15.1674306324
14.8871919216
14.5619531708
14.1959559485
13.6941026953
12.9642435472
12.4213696005
12.0391463091
10.6529289823
9.20776935987
7.99421100245
6.9099261179
5.94749449296
5.22258397526
4.53442443642
4.13259646713
6.44485650583
11.5604496802
16.245851489
18.5641230848
18.6967905255
17.1037373533
15.3966166745
14.6339111415
14.4606187405
13.7546404986
13.113037055
13.0155271534
12.6011125084
11.5625539979
9.91308973608
7.4805733539
7.6412699834
2.86703197019
5.33082544226
3.21832419952
3.19035327531
3.81717606588
11.7075734741
10.0240634195
4.48276833808
4.13658484511
4.79469681259
5.53728306766
6.31261521983
6.98088335018
7.68976080634
9.65717594604
11.9626421456
13.6073845908
13.7320522422
11.9746375942
10.3646769621
10.3900198728
10.6686220763
11.0679500767
11.6855857082
12.3703651817
13.0175298537
13.5684952629
13.9239362885
14.4212028019
14.7619928805
15.5108158393
15.7438612147
16.4637916275
16.131111022
15.2293462459
15.7594525762
15.1083221951
14.4108685913
14.3139215738
14.2772331507
14.3715708827
14.7521713705
15.1989408442
15.4873417851
15.6062811271
15.5941715793
15.4809154719
15.2878041771
15.024689849
14.7028847174
14.3174919163
13.8360701136
13.2450330733
12.6031867621
11.7935322634
10.6502758746
9.35798563833
8.17489865872
7.16959430979
6.35652195746
5.75141568288
5.32584688134
5.39462062287
7.13376375626
10.8060136968
16.5448961067
20.1321487422
20.3449761425
18.6833916591
16.3309178311
14.6938194256
13.8484744813
13.9436779735
15.239647
15.1089598544
13.7343350633
13.5327542309
16.7609050229
13.1875300804
11.2250841656
5.30551001713
7.32262151494
3.70422080381
4.02457270461
6.17737082616
11.5872560881
7.72382800062
4.65239239408
4.62531077419
5.01696344852
5.69059095484
6.49661418437
7.96494587848
10.593945088
11.5604545651
11.7274242348
11.3106637372
10.4713758262
10.0288962374
10.4286710041
10.53723218
10.6404737519
11.1322272189
11.7931915626
12.5199655324
13.2292623051
13.7018475732
14.3226138158
14.5335473308
15.3379569623
15.484739745
16.9281922889
16.3084808809
15.44788175
15.6403582091
14.7367354006
14.4284980567
14.3660079696
14.4050745442
14.4784173979
14.622399476
14.9137627997
15.2635640054
15.5324429946
15.6718299636
15.6858538557
15.5950171698
15.420728603
15.1776392485
14.8727406745
14.4993921451
14.0420623169
13.4912769843
12.8282951044
11.9525664153
10.8145007735
9.58810054941
8.49074299413
7.61582226689
6.97574308822
6.56482917595
6.4307082261
6.86795948402
7.84171955263
10.7172012668
15.9793802289
20.1745118123
21.5820591495
20.4006628329
17.6380299305
15.160181861
14.7852241991
16.9221226199
17.7208013704
16.6287174204
15.6603932021
18.2340962977
21.1999633547
16.5510842451
15.6697960887
9.64806210314
8.76340375167
4.58967497892
5.3727284035
11.8453738304
11.2618487645
5.60681084511
5.11464309998
5.17528067621
5.34717088746
6.00526946771
8.96401230463
12.4566278829
12.7475784257
12.1587092871
10.7180308335
9.69316412693
9.5458744601
10.4170756881
10.4427989611
10.3175884698
10.6797810933
11.2819305343
12.0138608092
12.633161573
13.3678173547
14.3365571635
14.3820509989
15.4808520538
15.2817438478
17.1664681149
16.488074308
17.5923621864
16.0114194195
14.5699124766
14.2178774575
14.2929549744
14.4299832699
14.556786322
14.6767270034
14.8423822961
15.0926232957
15.3830086489
15.6287886211
15.7744579609
15.8065620045
15.7351160477
15.5817042789
15.3648485032
15.0898770593
14.7479237903
14.3223040489
13.7881474312
13.0981059209
12.1897096538
11.0897948865
9.96905652648
8.99965878205
8.24987461412
7.7545615873
7.52030805951
7.75388346778
8.93659696886
8.29932469512
12.094884924
17.637128173
21.3543484891
22.7700393055
21.8327939711
18.4864126287
16.319705994
18.0431292888
20.1684719767
19.5955517684
18.5448064666
18.568348482
23.0280695678
24.5695118008
19.605277656
19.4009621785
11.7107713725
8.34994299176
5.5858038893
5.28766844324
11.7104103728
7.70726947296
5.52808209534
5.60720990307
5.67849581983
6.36179617221
6.6905123796
12.4094226117
12.8903705186
12.7839326074
10.9922368436
9.28094363323
9.06629930984
10.4714391201
10.4630592046
10.0075323903
10.3227632306
10.7903923755
11.3907351706
12.1189875299
13.0701710116
14.0475257609
14.29963669
15.8319806057
15.3886083049
17.485910795
16.606364635
17.8733194639
16.6216334351
15.6704026405
14.1603369667
14.0372804973
14.308920316
14.5536522256
14.7195670862
14.8663961022
15.0501960808
15.2840332772
15.5412831204
15.7677783155
15.9138355646
15.9574789076
15.9040699124
15.7763829488
15.5945173816
15.3608799473
15.0608831887
14.6686770272
14.145423958
13.443262822
12.542181348
11.5152905096
10.5194808812
9.67869528032
9.02505553567
8.56734586538
8.44603151228
8.7690127124
9.00867404993
9.50519775988
13.2014207383
19.9927644216
22.6077943534
23.0430360215
21.9878772717
19.7443515722
19.5132626731
22.0148043499
22.4065734689
21.5121328263
20.8716580433
22.7484489395
25.4039752139
26.8093288058
22.2516376315
21.1131573629
11.2934557295
7.6784313307
6.6271327251
11.711741768
11.6799199048
6.20148373979
6.07585725882
6.15947727184
6.34681204961
6.86369147296
12.2324732678
13.0966287138
12.9906812142
12.2832100188
9.42370319578
8.6094686547
10.3344403521
10.7024117141
9.92261331108
9.83899688634
10.3757968459
11.0263109762
11.6241595506
12.4363399333
13.1304764794
14.5550254907
14.4336489988
15.7565216976
17.4006797819
17.5216590637
16.0839126656
17.0365993975
16.8984196497
14.5053637685
14.0507561512
14.1449977391
14.4133375993
14.6831096832
14.8837540652
15.056264906
15.256045012
15.4896831207
15.7315691974
15.9437861389
16.0871345556
16.1391776992
16.1052912268
16.0097668922
15.8719536903
15.6892351275
15.4391557303
15.0849323724
14.5796900891
13.8889149889
13.032132917
12.1055195821
11.230641662
10.4575144383
9.76327327282
9.23437919759
9.15700623546
9.5425920165
10.158810526
11.0875469045
12.0309116744
19.8990480664
24.1868883369
24.3482023298
23.8078310316
22.9357846356
23.82872183
25.1652226016
24.4356709304
23.6872015987
23.8186325482
26.0230592655
26.609315355
27.1310367384
24.2490110473
22.1097672519
10.3731941181
7.2958275736
7.26620095439
12.612918222
10.3323870454
6.52638526866
6.6670287176
6.86129585649
8.45280952819
6.82265080678
13.0057295806
13.5241270108
12.9715809609
10.7152378457
8.7250602347
8.73017161448
10.4627309143
10.2637005442
9.72484204086
9.86693344882
10.3604138382
11.1537638441
11.9006347393
13.2670768122
14.4826681286
14.3869081569
16.7177848955
15.3846041214
17.7387083327
16.3050757007
18.0397539978
15.8643475315
14.935745819
14.3064925598
14.1735294445
14.3098912304
14.5480263954
14.8158251306
15.0486226197
15.2544428598
15.4721316029
15.7105323391
15.9482954203
16.1528024864
16.2922252198
16.3519954037
16.3419859879
16.286201663
16.2005155256
16.0770821144
15.885131573
15.5775122559
15.1049159108
14.4521253444
13.6696607707
12.8523880622
12.0546605113
11.2177879575
10.2869266769
9.59010446672
9.71771382946
10.6577161791
11.7957347286
12.7686369083
13.5341421907
16.4335164312
24.2508912255
25.9785130484
26.1439514006
26.9256170772
28.055996732
27.7015492094
26.6266763863
26.3291590796
27.1859260362
28.2362675805
27.9801625408
27.3023998472
26.2468783262
24.8514345073
9.54934525766
7.47709704932
8.46036525597
12.6045210039
7.78346326981
7.53558252201
7.25817280192
7.50621204987
11.2016943543
9.71168888994
13.8328476479
13.7190602248
12.9443076763
9.70106277097
8.60718283869
10.5114564656
10.7341912776
9.90771002532
9.66325740146
10.0504014242
10.4840828922
11.218490977
11.8152929089
13.451639733
15.8745431934
14.2164654062
16.6093352372
17.7334498055
17.9826100362
18.2907690344
16.6219163113
16.4613384322
14.4082849626
14.1473792121
14.3099386493
14.4852491551
14.6989634622
14.9538263482
15.210328772
15.4562347103
15.7025360849
15.9517783654
16.1899855917
16.3914712156
16.5299097152
16.5980713346
16.6152783178
16.6070256472
16.5820776959
16.5256351193
16.4004193928
16.1511741554
15.7297026302
15.1414661232
14.45545979
13.7321852777
12.8987355351
11.7365090335
10.3604818084
9.70944304667
10.5581830162
12.2719376038
13.7887178004
14.921193996
15.7176027485
15.6359668696
16.6396774363
27.7609357291
30.6371746925
31.8463082143
31.8014580742
30.3676868303
29.3455418682
29.462080778
30.4116513723
30.5650467565
30.1809914721
29.7928722746
30.0688381382
30.2170991553
9.19406709649
8.11585363572
12.1499088836
12.5454218426
7.50730695405
8.22033434046
7.81948068355
8.53474399274
10.3970210552
13.4681819486
14.5313382219
13.8663246344
13.0370843466
9.42955492907
8.68662047216
11.1111896695
10.7376366182
9.79332297199
9.67338657552
10.2018660994
10.9437912614
11.5517877589
12.0078980655
13.0024880114
16.0107706431
17.1550635346
15.8606850851
17.9012522049
16.0632441523
18.338066837
18.3362303037
16.2914087873
14.2714687904
14.2370811909
14.4804864341
14.6708216306
14.8709465671
15.1106167012
15.3727559435
15.6564868388
15.9447032608
16.2141787691
16.4572702318
16.6590226959
16.79937484
16.8799588568
16.9290107588
16.973007146
17.0144263162
17.0318176021
16.9822403292
16.8046647995
16.4562341946
15.9614081777
15.3841209631
14.6839482341
13.5209244441
11.6501214573
10.1088715746
10.1883017402
12.2336156105
14.6782888172
16.4240059364
17.6146225162
18.1963422569
18.0043547972
17.3107626864
18.9475422847
32.3335004063
37.6014451423
36.3750651989
33.9543985887
32.9423531305
33.1467757499
33.6364691
33.7077731904
33.8176790884
34.2108236436
34.7408784901
35.3799230521
9.24205167218
8.84221506171
13.7071002567
12.9942976135
10.7615153254
9.34674655783
8.56988232792
10.0667184989
9.54002197632
14.3959565559
15.0342606424
14.0666412667
12.9004474604
9.80503493447
9.45544620918
11.6221085211
10.6475339465
9.79458061619
9.77980700782
10.2398227165
11.1374249405
11.9917829478
13.9086805637
13.1471662704
15.3953900735
17.5430614679
15.5207738733
18.2185984852
18.7292858163
16.9575334588
16.9096463325
14.8884550298
14.5977177939
14.5596283818
14.7007297764
14.8844411983
15.0758721453
15.3015613341
15.5454832019
15.8419691141
16.1846806822
16.5019158453
16.7561530149
16.956120965
17.1014638764
17.2004646432
17.2860562932
17.3842928144
17.4932623214
17.5870124786
17.6174310501
17.5252972259
17.2817129781
16.9120169173
16.4174616924
15.4842308083
13.4509348905
11.0303343842
10.0808128348
11.5687764944
15.0860521481
17.9849559946
19.7968622432
21.1814496627
21.7697944508
21.3987854506
20.4166793629
19.0381084579
28.6188745075
38.7723550186
41.5790517605
38.7781618745
37.6848091966
37.6843661946
37.881221951
37.8556840222
38.5301732072
39.2124886297
39.107488585
39.3048118993
9.63905173641
9.38777503591
13.3032671314
13.2946911635
13.233881096
10.26734299
9.45586825708
13.1572739253
9.63228528161
15.2347234975
15.4133762213
14.2826548715
12.7844991291
10.2286669989
12.632677662
12.7222593793
10.6926438893
9.93408693505
10.0171375377
10.3963205898
11.1024440631
11.9364995481
15.439750775
16.4353425231
14.6448877251
17.6437146328
18.4151248745
17.6369236093
18.7017626778
18.6961957602
17.4576503072
14.8351158198
14.7849594957
14.8786328287
14.9696702281
15.1163643063
15.2808042601
15.5214407163
15.7820554341
16.0524882733
16.4074979544
16.7852094295
17.0837816984
17.290898984
17.4403145273
17.5623048476
17.6892781178
17.8409220748
18.0114397181
18.1728096202
18.2787508268
18.2880784291
18.1913031579
17.9648244984
17.4203780228
15.7320248687
12.5276102559
10.1484370874
10.6414218515
14.4983554362
19.3167834479
22.2954181335
23.9643960128
25.900045438
26.052766384
24.8696972586
23.2669241746
21.408508993
25.1914310194
36.2154235946
43.3260649347
44.383799242
42.2587526579
42.2029836695
42.2145205159
42.661837274
43.6738363831
44.3152764659
44.3191878291
44.5504870993
10.0932097725
9.94899280667
9.66225271166
13.5088616226
13.6137993571
10.8050167232
10.2726535406
13.9875358688
10.0573422796
16.0684268942
15.7354544377
14.5067092037
12.7963780785
10.3970058295
13.8320935369
13.0720576671
10.9278855516
10.2310404222
10.3263269544
10.729448962
11.1928817149
11.8500086415
16.0528238651
17.437238984
14.8931974026
17.7575428213
18.942620472
16.6631155507
18.3166797423
17.9952010685
15.382659029
15.1911634012
15.2135700336
15.2296821719
15.2567007449
15.4085272791
15.5548980152
15.7193375934
16.006399378
16.3233694926
16.6696371657
17.0662433105
17.4152557224
17.656130484
17.822414872
17.9720774114
18.1413659014
18.3375439623
18.5565592921
18.7677757607
18.9211613532
19.0475830288
19.1497241315
19.0758364049
18.1483900202
14.77573517
10.6291235257
9.8904549419
13.7021195889
20.2672289455
25.6530049924
27.0615760985
25.1159985697
22.926389627
19.7997649224
17.8700928444
17.4559863846
16.9827751023
15.5055103757
16.969196275
42.4178720042
46.4648505456
46.680107326
44.3850238009
44.3288541716
47.1907972596
48.8010812038
49.6211173967
50.7798559611
51.5095960269
10.7157622377
10.775037093
14.0868778838
14.0026718728
13.883402295
11.2356014018
11.2131573149
14.6275165342
10.9095336529
16.756899406
16.0199063779
14.7365668865
12.8676591634
10.6743698474
14.0094438354
13.0267250792
11.1700342491
10.5705024702
10.6400300803
10.9948142861
11.4302048523
11.9405345002
15.2162907566
18.2156547349
18.3062448082
16.838402189
19.1242334378
19.7263275536
16.3260234865
15.5059603481
15.2324943898
15.3683264485
15.4794247932
15.5364592384
15.6126799049
15.6989609606
15.8364602671
16.0212069319
16.2335803395
16.5786244636
16.973154926
17.3824512086
17.7563501342
18.0368872846
18.2457120947
18.4323868474
18.6399031319
18.8872537798
19.13963895
19.3311496158
19.4795994278
19.7303053471
20.0642563179
20.0507218708
17.9363651772
12.2405645915
10.0762213454
13.4858907401
19.5650020442
24.7277422916
24.8522251747
15.6159194687
0.225648644033
3.90593531884e-06
3.05523419504e-06
7.41740606206e-06
4.99991812923e-05
0.000234193373684
0.000865111491407
0.00549764833242
0.0043045359201
0.373441894396
39.9224771524
51.528692969
47.9462907959
49.2116715651
52.8903734773
56.2303953457
58.6676590126
59.1744474062
11.272009341
11.4520728053
15.6117244985
14.4516259974
13.685630315
11.6945234512
12.154038859
15.092850318
15.0886870641
17.5722425637
16.3316227703
15.0322595887
12.9800751175
11.103761433
14.1904331405
12.9382157544
11.429345921
10.9241707985
10.9369294887
11.2229030852
11.6469347473
12.2423706126
14.4746584385
18.4509064946
19.7084930255
16.1272542618
18.6840951709
19.6157587452
18.8913431047
16.1800900314
15.3721238612
15.5694021817
15.7941864744
15.9382933316
15.8972194289
16.0053191795
16.109191101
16.3075418436
16.5289908999
16.8493697195
17.2835117454
17.7355128639
18.1156227026
18.4096828334
18.6808971168
18.9883490677
19.2941052194
19.565421007
19.7140193759
19.8139517587
19.9749958819
20.2594703333
20.8366546462
20.6925220886
15.1510609961
9.67504901408
10.7211484987
12.7217224196
5.0850347612
0.074028784845
6.01468233096e-05
1.00360738655e-07
7.07447452664e-09
0
0
0
0
0
0
0
0
9.83938762037e-13
3.31862174563e-10
4.96395077188e-08
2.87992527173e-05
0.0402254882232
53.5103839165
61.5690954635
58.2283933515
64.2518902744
11.7090762442
11.9149138566
17.8726468837
14.7433538974
13.1550322046
12.1119235528
12.7997107773
14.8749361742
16.6481482234
18.5148504951
16.7802448208
15.4375811383
13.3134060382
11.857421914
14.582601361
13.0191758425
11.7875543765
11.3400440092
11.2736372416
11.4843896483
11.8454810632
12.4083922595
14.1425111404
18.3030990832
20.6693583091
19.6721920868
17.9893283435
18.925946888
18.3309012307
15.629545367
15.8312186424
16.0858876409
16.3993845518
16.393324625
16.365095185
16.3164481975
16.4584252249
16.5966635602
16.8405040782
17.1616527924
17.5835794667
18.0815888678
18.5690062072
18.891369878
19.2158893905
19.6471612045
20.0805985067
20.358181545
20.4259743448
20.4738697875
20.5895621663
20.738100407
20.7363772337
19.5721222212
11.3152528108
6.15032114833
0.0206173416539
0.000833680145952
1.13669778247e-05
3.11713424119e-08
0
0
0
0
0
0
0
0
0
0
0
0
0
1.2678049825e-11
1.2598399679e-10
2.76184217768e-09
1.33917908112e-07
0.000743676872964
77.4392830816
0.49920753928
12.0356350066
12.2276596624
20.0199707902
14.9255485122
12.9513566634
12.5133241314
13.5850450385
13.7886636858
17.5983039419
19.1747074243
17.2233436262
15.8584873911
13.8663471276
13.9646522945
15.1272578565
13.3560746478
12.3573481349
11.9771724445
11.7192642914
11.8367658859
12.0999826387
12.5955168713
14.0440647929
18.1653044867
21.039441411
21.3399210101
17.0498600051
17.2608323456
16.201074524
15.7217836934
16.0391029119
16.6077719134
16.8819080243
16.8534120538
16.8175974021
16.9566968484
16.8430394593
16.9543389512
17.1625045836
17.4512576118
17.9678673929
18.5211594725
19.0282949089
19.3044733899
19.7117808724
21.4420334025
23.8646948097
24.5936826418
22.9297605337
22.6166636238
22.6852086621
22.7504642022
21.9527437537
19.2187472365
17.4478298559
2.24929867897e-09
2.27294417992e-06
3.70881851757e-08
0
0
0
0
0
0
0
0
0
0
0
0
0
0
0
0
0
0
1.95871895038e-10
1.32641212111e-09
2.4460139229e-07
52.7315618279
12.3487428
12.5110639287
19.7104993612
13.9366359429
12.9142214168
12.8468407626
14.4753704963
13.473884657
18.3762046869
19.8094615976
17.6611861271
16.2609075234
14.2700081284
16.4326017424
15.9264624189
13.9034781646
13.0276494392
13.0869344391
12.3934092321
12.3632188287
12.459686749
12.8005739968
14.108979872
18.0107595511
20.8770984279
22.457160171
20.5661301423
19.1545911179
17.8828826492
16.0522717104
16.3604152006
17.4103840697
17.1816112606
17.270680134
17.7421280174
17.4419730184
17.3384457235
17.4284966498
17.6293036428
17.8945841347
18.2544251146
18.8662839786
19.5782057098
20.6874395184
22.3160434132
24.6535876573
26.4153570803
26.3161931355
26.4067607684
27.5670049396
29.3648023664
32.1272696132
31.2677758561
27.6884876137
0.181502470679
0.00246515144104
0
0
0
0
0
0
0
0
0
0
0
0
0
0
0
0
0
0
0
0
0
0
6.02694663422e-10
42.8182550757
12.7631150105
12.9122556895
19.1727563343
13.2474185968
13.0651828504
13.1013492278
15.2089882647
13.7570799668
18.9981906878
20.4296816271
18.1067098691
16.6867629943
14.61943978
17.0422616399
16.6528566129
14.5258543818
13.6785726409
13.8962143357
13.2208006928
13.1212462906
13.04837096
13.0127804483
14.3488280077
17.9751191358
20.5681460191
22.8100972501
21.8138494701
19.3876038394
16.4118070653
16.5897382136
17.0058065951
18.0055029529
18.368644228
18.5247588539
18.5456885427
17.9934819153
17.8873143298
18.0063228409
18.1907762968
18.4689416325
18.8014200273
19.4874074686
20.7281707972
22.9524543161
24.4303458291
24.7108172542
25.6852056238
26.5986492078
29.9784509092
33.9390572814
39.967756685
44.0846202824
40.0848533108
0.315647118495
0.00064740849504
1.56750050242e-05
5.26156711563e-08
0
0
0
0
0
0
0
0
0
0
0
0
0
0
0
0
0
0
0
0
0
1.01284865224e-10
1.3400912784e-10
13.4423899292
13.5957265525
18.5749114526
13.2963726519
13.5440519008
13.4677481433
14.9119023355
14.4252702419
19.3729892915
21.0048421007
18.5927437371
17.1729455008
15.1182917519
17.6169144814
17.3279552283
15.2841761776
14.4181316282
14.6997509618
14.0103965094
14.0330312611
13.9659065203
13.407523297
14.8055678165
18.103884802
20.4158121764
22.904096992
22.2679171356
19.7530862459
16.6536807511
16.7266227715
17.7985838027
17.7981676444
17.9423664231
18.4259592202
19.4956963911
18.974823637
18.7761891316
18.6347293539
18.7573951776
19.1384747424
19.5981505187
20.3599285103
22.9653213012
25.4473552331
25.492031108
25.6612539556
27.2711673768
32.1339704851
38.431343186
43.4712441641
47.8756874547
30.6702673466
0.00270745623197
8.87686043175e-07
5.56975386744e-09
1.1289439715e-08
1.73363667273e-09
0
0
0
0
0
0
0
0
0
0
0
0
0
0
0
0
0
0
0
0
0
7.48626164114e-12
3.39929143603e-11
14.5184949923
14.6073537302
18.5761476444
14.1103716283
14.7010713248
14.2199569168
14.9186648634
15.8481096861
19.141267612
21.3692094116
19.1531382353
17.7435307115
15.7432544999
18.273812741
18.0362641964
16.2349323042
15.3847132297
15.6893795583
14.8003557882
15.0601253144
15.2601025793
14.0910833569
15.2848136763
18.3872444333
20.4402687614
22.6843909154
22.4469623706
20.1345326631
19.2395127091
17.6378179056
18.2703214752
19.014486819
20.004959464
18.8952690301
19.2913974589
20.0788591714
19.6817689127
19.7416222263
19.662944651
19.8418782689
20.4165344449
22.7643900309
26.5407037098
27.4300956033
26.8971447548
28.4589336989
34.5902419505
43.0576765882
48.7003378811
46.3287818592
0.991230194281
9.25448543041e-06
6.33222400729e-08
0
0
0
0
0
0
0
0
0
0
0
0
0
0
0
0
0
0
0
0
0
0
0
0
0
0
0
16.0861500629
15.8566819336
19.1002008143
16.0715602631
16.7672601444
15.4011880471
15.689096035
17.9782195631
19.103560519
21.850403326
19.853751183
18.4135136994
16.4762612498
18.9651363939
18.7386016587
17.3032139884
16.9383734526
17.0338743154
15.6747766757
16.218322497
16.9081454858
15.170761938
15.5791257712
18.7300159493
20.6395585241
22.4421359211
22.6026818024
20.0873471594
20.4207212144
19.3345822223
19.4876565514
18.2054014739
19.0320885274
20.4335390664
20.1836168492
20.4923940765
20.6053172984
20.6097498122
20.8114941433
20.9472397775
22.4730517488
26.9882237267
29.7012841281
29.7320497339
30.4051903721
35.2832340982
44.3981810098
50.2705335412
37.4726373339
0.00884590998078
1.54645177206e-05
7.08100548659e-08
0
0
0
0
0
0
0
0
0
0
0
0
0
0
0
0
0
0
0
0
0
0
0
0
0
0
0
0
17.7836045581
17.0176584486
19.7212018727
18.8093858148
18.4570267362
16.8275024292
16.5619002787
19.0588896355
17.7694905865
22.1811512485
20.680937502
19.176012503
17.310575975
19.6736293879
19.3883737609
18.1758641424
19.2943412541
18.6803354008
16.6838436783
17.5636226651
18.2806103471
16.608186751
15.4516202471
18.6214767434
20.7500178144
22.2266855714
22.6092935781
20.0725862242
20.6592767364
20.6398138503
20.6799677891
18.8735433125
19.4248319383
19.913246972
21.1005022365
21.7034948464
21.7976129967
21.6999033985
21.7857359863
22.7471688849
26.9370046853
31.3679120496
33.040253038
33.6746568406
36.4242025995
42.8817338886
45.7107037148
28.0004857069
0.0238183788941
3.44821286728e-05
1.20763066795e-07
0
0
0
0
0
0
0
0
0
0
0
0
0
0
0
0
0
0
0
0
0
0
0
0
0
0
0
0
0
18.5309011564
17.8303923345
20.0789069118
19.7604109059
19.4280246752
18.2128516327
17.6792225109
20.4133198741
18.7063741779
22.6450729181
21.5139523751
19.9913297705
18.2386268348
20.4194870895
20.0666525176
18.9134865247
20.1877345019
19.6892056683
17.690860608
18.9334171422
18.9026766059
17.2414841871
16.5770102573
16.7469382987
20.2132996446
21.6642743476
22.3359825812
19.9985376231
20.6394538149
21.0686641305
21.5899204765
20.99984575
19.2651291334
19.7665623358
21.2068796461
22.5044907783
23.1052894856
23.343159811
23.419905073
26.8214876981
32.0786844931
35.4887292117
36.6660710548
37.9968162752
41.5391021282
40.1714142984
24.9271615579
0.125829031873
0.000113346828783
3.22817636448e-07
0
0
0
0
0
0
0
0
0
0
0
0
0
0
0
0
0
0
0
0
0
0
0
0
0
0
0
0
0
0
18.4852002783
18.3755243993
20.3115087783
19.8733746655
20.0581113001
19.306304756
18.6694869687
21.73971878
20.4265404269
23.2701323939
22.4049315583
20.843166865
19.2523780702
21.2165802726
20.8237405592
19.8117339407
20.9066775001
20.5737523555
18.7931330116
19.8919704996
18.1311355528
17.8811702247
17.5596790225
17.922861823
18.8426467803
19.6706134016
21.4279624638
19.8533094695
19.9459591267
20.9913429121
21.9509958628
22.334613906
20.8836169797
20.4591704628
21.0852113364
22.3018095531
23.7759178445
25.0413990816
26.5584568395
31.7891320138
36.5664452686
39.0163317379
39.4172842405
39.7266275037
35.2656759712
27.2357877037
0.853428088976
0.000393716524674
8.81961845779e-07
0
0
0
0
0
0
0
0
0
0
0
0
0
0
0
0
0
0
0
0
0
0
0
0
0
0
0
0
0
0
0
18.6791587303
18.7771842935
20.5537236407
18.6097485398
20.2980216455
19.8887360946
19.3392966564
22.2555563622
21.1928435067
23.9465981475
23.3584846616
21.7104491003
20.3650653083
22.0527585463
21.6314344678
20.8548327515
21.6765707964
21.5715637189
20.0145716478
21.2364175491
19.4421163427
19.6456493019
18.778648146
19.1516683442
20.8591858498
21.443278199
21.0261146624
19.6644617643
19.2793164575
20.9094843776
21.9251716831
22.4896622097
22.5036471703
21.5000616616
22.800025762
23.0220955868
24.3430307917
26.7084768777
30.586954774
36.4309595474
40.3136557241
41.498691258
39.2872462596
32.4543629222
30.2268150073
19.2505749754
0.00330377856131
7.52121355789e-06
0
0
0
0
0
0
0
0
0
0
0
0
0
0
0
0
0
0
0
0
0
0
0
0
0
0
0
0
0
0
0
0
19.379627306
19.4533156222
20.779769144
18.9931103123
20.494100759
20.1782625583
19.8192439877
22.3517713792
21.7508543032
24.4377263118
24.3239782052
22.5428627517
21.5733937429
22.8890132386
22.4179511686
21.877412009
22.4072870807
22.6670612151
21.2890324643
22.5666762113
21.2240537492
21.843097826
21.4821622245
19.9060662484
21.3826389962
22.4575180798
22.5249615817
19.537659069
18.5033119458
20.7985821886
22.0483821917
21.8066108892
21.9428966387
21.7424036801
22.8098649696
23.4397452333
25.0728337953
28.4984856207
34.6564846072
40.8160315672
43.543188867
42.2672645411
33.43330615
31.3190338006
28.0378872614
0.0375642018837
5.24107728698e-05
2.1252684922e-07
0
0
0
0
0
0
0
0
0
0
0
0
0
0
0
0
0
0
0
0
0
0
0
0
0
0
0
0
0
0
0
0
20.2728986529
21.5670270644
21.138417865
20.0098169956
20.998168365
20.528735985
20.2877911263
22.4312372455
22.2797339341
24.5566895975
25.2913275849
23.3109518528
22.651875106
23.543474385
23.1861874562
22.6265566715
22.4860085921
23.6796181062
22.6761126226
23.7190533695
23.3018240458
23.0776049351
22.8031297072
22.3314890819
21.3577435129
22.2416110667
23.4737953877
18.6909586896
17.9807567678
19.9332535728
22.0474710818
22.5141074583
23.0312621506
21.7145795402
22.5379795301
23.6491212514
25.4348300929
30.1564751335
38.519976467
44.8406180042
46.1944859596
38.5970858182
32.8992993274
33.0041958963
2.8334083189
0.000355244972787
9.0667061641e-07
0
0
0
0
0
0
0
0
0
0
0
0
0
0
0
0
0
0
0
0
0
0
0
0
0
0
0
0
0
0
0
0
0
20.9421412871
22.2671670134
21.8190961065
20.9241039536
21.69310858
21.0894652522
20.8333339811
22.6084670987
22.8113959244
24.3937113835
26.1706297063
24.0916408912
23.2741994031
24.085810739
24.0721529985
23.3137196861
22.5503105912
24.3895811478
24.1702045391
24.7185977502
24.5968894689
24.6526011268
22.975658035
22.9343031701
22.3718610982
24.0111240364
24.816831253
21.193406923
17.5523844125
18.8102779984
21.3945222989
22.8110686058
23.0393949665
22.3338278368
22.0797302308
23.6328154709
25.3468744785
31.4538654045
42.0585377426
48.8339590189
45.8403455847
33.7256693526
34.7216398787
31.2707361363
0.0121799050032
1.04745442971e-05
3.52004174241e-08
0
0
0
0
0
0
0
0
0
0
0
0
0
0
0
0
0
0
0
0
0
0
0
0
0
0
0
0
0
0
0
0
0
21.4538584573
22.637848851
22.4326094838