/*--------------------------------*- C++ -*----------------------------------*\
| =========                 |                                                 |
| \\      /  F ield         | OpenFOAM: The Open Source CFD Toolbox           |
|  \\    /   O peration     | Version:  v1806                                 |
|   \\  /    A nd           | Web:      www.OpenFOAM.com                      |
|    \\/     M anipulation  |                                                 |
\*---------------------------------------------------------------------------*/
FoamFile
{
    version     2.0;
    format      ascii;
    class       volScalarField;
    location    "563";
    object      alphak;
}
// * * * * * * * * * * * * * * * * * * * * * * * * * * * * * * * * * * * * * //

dimensions      [0 0 -1 0 0 0 0];


internalField   nonuniform List<scalar> 
6400
(
0.880201931611
1.39457887958
2.19982857062
2.71098645756
3.20106175776
3.69815789719
4.35132425439
5.08714451456
5.47445661293
6.09254528404
7.31421204647
8.12806692456
8.80026119021
9.56798555814
10.5354169809
11.5475110249
12.4334139937
13.2656354122
13.9659490586
14.3554098985
14.5090309742
14.7773622151
15.3744794376
16.2928518302
17.3073463932
18.2112227273
18.9389297388
19.6077021788
20.3243443532
21.1036442926
21.8905636952
22.4813171389
22.7994354105
22.9742488244
23.0420420413
22.9842509081
23.1018734614
23.4745348381
23.506494044
23.2996067193
23.4872493224
24.2078117788
24.9403987352
25.3241896268
25.4160443427
25.3075325749
25.0672931499
24.7440696298
24.3507960614
23.9077659578
23.3183738383
22.3376669625
21.056201324
19.5301833867
18.2424759379
17.2763613137
15.8596637523
13.6393741871
11.2864081421
9.52734037002
7.7025497567
5.80639586026
3.85429722944
4.63410271138
8.54022206504
13.4507869548
16.437820135
16.1529631124
14.1855081832
12.6121594614
11.794206554
12.0470770182
12.6324150967
12.5432807444
14.6211519106
14.0739255047
15.9603475854
9.86257786229
12.8675812443
4.81001499283
3.14197547333
2.50447640631
3.11177728119
4.3609589292
4.25464061766
4.13481257758
4.34195441373
4.77811541639
5.40241864557
6.19969952406
7.16625427373
8.12994774557
8.97726131824
9.78746327764
10.6113804714
11.5555233761
12.5467649794
13.4970716541
14.5164082987
14.7279449222
14.6785491494
14.9093569609
15.4666932004
16.365722247
17.5252832099
18.3624616829
19.0555249284
19.7677683104
20.5027216169
21.2499954768
22.0029302209
22.6983357559
23.012245762
23.1842700301
23.2918567712
23.1271670666
23.3030994792
23.6991323193
23.6686985583
23.2974240257
23.4495854834
24.8464663122
25.9502340301
26.2261988394
26.2489902875
26.0380020901
25.6656275087
25.249962021
24.6538490757
24.0118344668
23.5088714774
23.1722127376
22.1512583287
19.7550274793
18.6149298371
17.3719141586
15.2392557099
13.0816037351
11.0225226299
8.9955409962
7.16004130394
6.18224216708
4.26245869294
5.05191883216
8.67227656068
14.4966882216
18.2468747056
16.9767879342
14.8301215156
12.9414214903
12.2916154881
12.7606673911
13.9054441514
13.355185891
13.2300841528
12.7247455492
11.541533344
9.71170105327
8.16834838844
4.25311061807
3.22095618376
2.82373441271
3.3375145369
3.60834160778
4.1263221054
4.55662926501
4.54253247868
4.68577653121
5.30836544831
6.17754776678
7.15042776936
8.13389371975
9.02861362044
9.8440236852
10.5229427409
11.3755209298
14.0325761084
16.0428895326
16.4470746565
15.8305638472
14.4868896885
14.554859828
15.6000619496
16.5533466439
17.4370536148
18.3512658842
19.1623991014
19.8774847228
20.5913792925
21.3380735447
22.0520400995
22.8501529109
23.1670872238
23.0758663215
23.5563840447
23.4064828767
23.2043749408
23.830475976
23.8373545855
23.5201075142
23.6852106839
24.3975059237
25.1170845112
25.5060981381
25.622887118
25.5574488809
25.3509090458
25.0240512967
24.5796227397
24.0412479707
23.4114233843
22.5782052892
21.4141437128
20.2084139662
19.0330409667
17.2192825802
15.1445084518
13.0805327906
11.0617279458
9.14371956726
7.47130417797
5.90225004743
4.85455116117
6.39286130744
11.0532242425
15.4960543589
17.6787521454
17.8024271083
16.2431030132
14.612023846
13.9727458084
13.9246977187
13.2998831758
12.7361592668
12.7348019646
12.4098803194
11.4405332669
9.82385983416
7.39195906264
7.57555069676
3.21508617397
5.49262740559
3.64277398985
3.75502509105
4.44553943903
11.8629280269
10.246594908
5.26681093243
5.28481779516
6.17899606505
7.17501613508
8.17699193429
9.0472839322
9.88767819181
11.6044636072
13.7153581939
15.3855167269
15.7936177292
14.7237649343
13.9141926987
14.235080473
14.8068985508
15.5658836207
16.5230039486
17.5263247694
18.4782383119
19.3204496994
20.0111314112
20.751089274
21.416412383
22.2825555772
22.8392458688
23.4852957662
23.4049458842
23.0625064907
23.5059211504
23.4010914999
23.3157612862
23.5158860398
23.7032958748
24.0117985976
24.567681909
25.152532123
25.5367338163
25.6930325833
25.6644429525
25.4863272683
25.1806302891
24.7569723115
24.2236176142
23.5665307505
22.7291662978
21.6748893082
20.4660848302
19.0429405559
17.2600998439
15.2329099148
13.1801935376
11.2160203065
9.43173359005
7.93730104655
6.84096602068
6.58243327488
7.6673109374
10.4836113854
15.9029249192
19.3871605616
19.5647113753
17.916423985
15.5837598537
14.01712962
13.2737619443
13.4806016521
14.9076399882
14.8569582529
13.5441322962
13.4070763991
16.6938268502
13.0985229846
11.1182009443
5.64501864539
7.55365976051
4.38818423258
4.70598386128
6.56055083717
11.7545190276
8.19959986368
5.70900797467
5.80669868027
6.40220623542
7.32128069367
8.33841603817
9.75722692549
12.0636530332
13.0922761096
13.4823774406
13.5021109705
13.3065235429
13.4014593288
13.9664524323
14.3697592085
14.8509241409
15.6587518589
16.6294780453
17.6520863863
18.6385639802
19.4458570403
20.2766659484
20.8692316502
21.752449871
22.3227918315
23.527480986
23.4109194322
23.0142621747
23.2040133282
22.976011314
23.0893659914
23.3569622175
23.6491689337
23.9313503082
24.2781280456
24.7532037292
25.250042095
25.6173814335
25.7986502236
25.8020831684
25.6521867778
25.3706679679
24.9699878055
24.4519763175
23.7994777935
22.9784220536
21.9659715086
20.7509120532
19.2581951298
17.4396234111
15.4330188927
13.4440562958
11.6180124345
10.0741781912
8.93414660617
8.33522694428
8.50257448624
8.87696235245
10.7020179807
15.4149438685
19.464717295
20.8699565832
19.7181402293
16.9710460398
14.519210639
14.2289839471
16.5072489785
17.3881570918
16.3574682155
15.4454186946
18.0984785369
21.1090859494
16.4256437244
15.5418715976
9.94278056735
9.10548542586
5.46466437057
6.03386580633
12.0359591689
11.5060574331
6.56536471538
6.29725137623
6.42892613771
6.75289364439
7.57430755682
10.2111047051
13.4344182264
13.8759714294
13.5313723728
12.6235426348
12.2716285463
12.6283884693
13.5669911683
13.9443821259
14.2557867228
14.9217185322
15.8073029834
16.814256094
17.7646981071
18.7636688216
19.8460580265
20.3828506096
21.4356573523
21.799672239
23.2620180763
23.2948441887
24.1111649464
23.2735144778
22.5864561883
22.6817343424
23.0701760021
23.4739288654
23.8335048047
24.1662118948
24.5332535702
24.9675970785
25.4087792741
25.7569228537
25.9512980251
25.9803653013
25.8574722474
25.6031234399
25.2314844815
24.7419073826
24.1164268626
23.3255879843
22.336401991
21.104512726
19.573958526
17.7660945471
15.8417814438
14.0007188869
12.3939855448
11.1463765197
10.3484644558
10.1479467729
10.7545691865
9.89858978525
12.4995757359
17.3154906187
20.7668463535
22.1375905876
21.2318999114
17.8766742368
15.7029622222
17.5244938732
19.7430421788
19.2284377793
18.2380300019
18.3175701434
22.8783665494
24.4595265463
19.4602009805
19.2613718914
12.058055383
8.94334782096
6.64526430724
6.23165116197
11.974195488
8.36882102636
6.77103364213
6.88374138665
7.00649478324
7.69635192668
8.18077689875
13.1836950907
13.8659273096
13.905750492
12.5636948578
11.5734408924
11.857973864
13.1828436743
13.543302391
13.6441282826
14.2720360955
15.0382967094
15.9261360743
16.9309713692
18.0807552838
19.185218396
19.8720852852
21.2560733049
21.5084003005
23.0992980781
22.9812122817
24.0387851069
23.5323771123
23.0279870676
22.3932435971
22.6188321455
23.1451051677
23.6338938542
24.0371563357
24.4046052312
24.7903138628
25.207793147
25.6173526374
25.950462912
26.1523407999
26.2019376748
26.1059041972
25.8839769989
25.5508382718
25.1037186069
24.5215355406
23.7697999965
22.8032854161
21.5716519107
20.0531478877
18.3216216429
16.5535079902
14.9315583446
13.568586356
12.5218929447
11.8899906753
11.7124382384
11.5151639675
11.5196181566
13.9891994487
19.9296294464
22.1729024046
22.4823682656
21.4231257448
19.1626890563
18.9097652532
21.4762781775
21.9214657737
21.0950468557
20.516488111
22.4900809376
25.2312521464
26.6871327296
22.1065336084
20.969081374
11.76486333
8.57753447228
7.78017555793
12.1272727176
12.0682200064
7.36683987147
7.41545927736
7.5564570344
7.66045667179
8.2243065576
12.9447828592
13.8816784297
13.9628874042
13.4773465803
11.3794501809
11.1478684639
12.7163416776
13.3318382688
13.1702414699
13.5199269445
14.3177051887
15.2229461983
16.1382990702
17.2010180024
18.1825264642
19.5571508253
19.9748188478
21.2718749601
22.8149958401
23.234744575
22.6666539468
23.495129401
23.6229696168
22.4412367609
22.3732084577
22.7623556482
23.2915147803
23.8071881619
24.2507328327
24.6522318059
25.0578961465
25.4746563396
25.870132422
26.1941340312
26.40136245
26.469219818
26.4021523116
26.21976848
25.9361194964
25.545468791
25.0217594951
24.322767668
23.396501971
22.2037206526
20.7627272728
19.1849178144
17.6369828315
16.2349102184
14.9968835207
13.9641402809
13.3049580704
13.046252575
13.0270418608
13.3633308901
13.4295496438
20.0398223603
23.9677193931
23.9350155497
23.3300907904
22.3744331353
23.1939148009
24.5500803968
23.8725332995
23.2035892969
23.4285962355
25.7607615163
26.4295177541
27.0041346959
24.1255160265
21.9887297297
11.0290343033
8.48380531057
8.44405634363
13.0993701418
11.0240762603
7.96729288706
8.11363343109
8.38390792651
9.59674331695
8.32452394283
13.7184277938
14.3970796503
13.9990745815
12.2277801698
10.9944562181
11.2877370983
12.8018018415
13.0412128778
13.0557449185
13.5474818581
14.3227825823
15.311380611
16.3326379978
17.8108115813
19.0595633703
19.5183903762
21.4522454221
21.1588676261
23.0258949252
22.6331104601
23.8754946369
22.8061839584
22.4399537832
22.3492254318
22.5437150017
22.9612155428
23.4724205818
23.9952557005
24.4746434792
24.9144342293
25.3442430228
25.7692108693
26.1630575601
26.4850993223
26.698137692
26.7846097117
26.7511033526
26.6169372585
26.3943270951
26.0746603282
25.6269744755
25.0027538283
24.1507930115
23.0535201751
21.7666841066
20.4144358975
19.1039600088
17.8190893037
16.4985156937
15.3425619013
14.7409014294
14.7802386868
15.0819033469
15.2700409382
15.0918145968
16.7318138823
24.1263212229
25.7600254737
25.7122555139
26.3133867494
27.3360700619
26.963997799
25.9514715008
25.7697647385
26.7812556337
27.9796438057
27.8210668389
27.1993235173
26.1763149303
24.8035197064
10.4769619029
8.90753187448
9.59968476521
13.1629245493
9.03370903818
8.98273568857
8.81801167201
9.08117252149
12.1993704015
10.9174411933
14.5528963722
14.6622959717
14.0637314036
11.5236408796
11.0219114667
12.6243590067
13.0392811528
12.7925878671
13.0240813927
13.7059447577
14.4566226549
15.3901921561
16.2717481889
17.9747545349
20.1193806398
19.4625230549
21.4031924577
22.6656562628
23.2733324298
23.8534511081
23.0922278057
23.0828930056
22.1378018472
22.2601846471
22.7106184477
23.1809038266
23.6797420017
24.2007704238
24.7083604216
25.1900779384
25.652977346
26.0947956631
26.4949124365
26.8212490331
27.0438085707
27.151444944
27.1567743219
27.080405484
26.9313850997
26.6982757754
26.3477432942
25.8293989543
25.1002329202
24.169296473
23.1177000413
22.0385342695
20.8975106178
19.5047526516
17.9512949319
16.8498985375
16.6736429129
17.2096873973
17.7077662594
17.8166107252
17.4952131609
16.152887553
16.1008522842
27.4645873614
30.2432768793
31.1514327426
30.9227394976
29.4397268162
28.5068950169
28.8127219135
29.9943506126
30.3383180348
30.0830380751
29.7739888448
30.1047278422
30.2842210239
10.4357626566
9.73515548202
13.0250625158
13.3142408948
9.1210291827
9.73581635893
9.51707011137
10.0110615574
11.689505684
14.4223987472
15.3728662627
14.9233143905
14.2940377774
11.5221554365
11.1762592095
13.1472521444
13.1381521353
12.7665318387
13.0524047493
13.8452516509
14.8268462892
15.7514074483
16.4596927042
17.6060932798
20.2932023392
21.4826155923
21.014009972
22.7967825818
22.1081614239
23.8854525428
24.1833035179
23.0282903975
22.1041047247
22.3723783045
22.9086881808
23.4116484158
23.9112320576
24.430680228
24.9550796777
25.4770054836
25.9832448794
26.4524258857
26.8661605296
27.2022007913
27.4389010786
27.5732341703
27.6243681661
27.6143986688
27.550413562
27.4200494864
27.1911366818
26.8176484753
26.2725660054
25.5911120554
24.8497577633
24.0256897437
22.838719825
21.1420413042
19.6400004045
19.0684083363
19.6517921317
20.7120211814
21.3294184728
21.3521272944
20.7162069861
19.1180184447
16.6155408361
17.331732744
31.5684392793
36.7290625545
35.2609904542
32.7173578593
31.8486637001
32.3656208732
33.1991490568
33.5605059641
33.8601266075
34.3472629821
34.9399694967
35.6012813515
10.7719939185
10.5966651632
14.6617603555
14.0083858077
12.0906767612
10.9519288496
10.4394334355
11.4725496071
11.1451109287
15.3840439406
16.0145846176
15.257518098
14.3681040695
12.1290953421
11.9388944326
13.6144024311
13.1573771973
12.8486402646
13.1720414486
13.8914861597
14.9783327722
16.211549395
17.9218380823
17.7473954431
19.7922778734
21.8642615386
20.8988855374
23.0670569112
23.8697923374
23.0457460348
23.2473815179
22.3519271329
22.3996558148
22.7023841632
23.1640600193
23.6668979444
24.1726515654
24.6945789587
25.2230246262
25.7705932665
26.3279229146
26.8435263276
27.2797785545
27.6285109176
27.8846280081
28.0533999546
28.1582436198
28.2219617376
28.2516854983
28.2378641059
28.1544972834
27.9706117722
27.6851048478
27.3426096649
26.9422041237
26.1994174041
24.704670413
23.0248280262
22.2028685063
22.57675541
24.1023397956
25.5678553382
26.2597762196
26.3572132411
25.7209796907
23.9125283565
20.7080750013
15.9817810837
26.3312846947
37.2442360192
40.1136437153
37.1641413238
36.3429904806
36.7936985918
37.4728366836
37.899537714
38.8479564886
39.5885332575
39.5408330315
39.7467358925
11.3628950782
11.2411780482
14.3986527746
14.4867536669
14.4943544515
12.0770491326
11.4940895103
14.3422090648
11.5024068961
16.2425462854
16.5039279357
15.6022954662
14.4440194047
12.7316063815
14.5726193966
14.6732177711
13.3406210673
13.0668248414
13.424780392
14.0379758488
14.9418820112
16.2012066009
19.2202765808
20.1649377478
19.2735474996
21.9378337286
22.8636865432
22.6348136893
23.839949245
24.1815373272
23.6079209766
22.3833220932
22.605785465
23.0363149121
23.4748242693
23.9546966733
24.4513876214
24.9899746186
25.5411396388
26.0948801841
26.6810685642
27.2523353007
27.7332548196
28.1042146849
28.3837747255
28.5948251473
28.7619830162
28.9044537952
29.0306438132
29.1389598277
29.2197491343
29.2745234577
29.3337428026
29.4022403193
29.2594401258
28.2629373978
26.667239026
26.2865054222
26.9522017037
28.5716191525
30.9003921985
32.3311966699
32.3002206696
31.9802990162
30.3624277722
27.7309937149
24.3864555328
17.8264921743
17.6252428477
31.9524959635
39.1566567577
40.2440175923
38.8438104377
40.1482330053
41.4469053643
43.0834349587
44.5360542446
45.0841753009
45.059610705
45.2428326343
12.0131724502
11.9348104478
11.5897812609
14.8064159434
15.0195863644
12.8356120334
12.4450911179
15.3192731244
12.1473723628
17.1263113985
16.9437749277
15.9610979557
14.6315974647
13.0380866427
15.7340497394
15.2318733673
13.7654039792
13.4590753834
13.7752400741
14.3541174843
15.0306102771
16.098158506
19.7414812849
21.2369899355
19.6196201691
21.9858838867
23.3906026725
22.1080705493
23.4731544261
23.7257504324
22.5695951829
22.7368480419
23.0565066563
23.421034684
23.8176488613
24.2961573462
24.7864466311
25.2951848577
25.8724494639
26.4698427869
27.0754842161
27.6810134878
28.2123191857
28.6238267244
28.9391254614
29.2017964282
29.4381340487
29.6581048787
29.8746432339
30.099337858
30.3474251894
30.6887648489
31.1790722283
31.6882589598
31.5027938869
29.9894859258
29.4812111881
27.5852418289
25.5664123267
24.992817827
23.9294514172
19.2042014688
6.51474876173
0.674772249171
0.053547173602
0.0150831584497
0.177540123807
1.81402166183
15.0021798219
19.0314839305
44.4271708375
49.1044649105
48.5520328153
43.9769878403
40.7815483935
43.7728092222
48.9405174086
50.5151052265
51.869705498
52.3658075262
12.8431431142
12.9324201599
15.442222643
15.4405964369
15.4588438263
13.4810239283
13.4811796155
16.155114578
13.1537270931
17.8898299681
17.3625273484
16.3425282344
14.9001204999
13.4257294385
16.0112517358
15.4160536538
14.1890293954
13.9085350154
14.1591824363
14.6714204556
15.2874185397
16.1281237329
19.1385404505
22.052907578
22.1934037701
21.3508275311
23.6080961224
24.378566776
22.2902647943
22.16786108
22.5084142097
22.975118822
23.4114846117
23.807227153
24.2195909111
24.6627357304
25.1518384917
25.6756904597
26.2288752806
26.8585187733
27.5141601236
28.1524670803
28.7205699491
29.1770160188
29.5463508387
29.8744916713
30.1857154238
30.4842132137
30.7714682114
31.0702463648
31.4711337342
32.1360309007
33.1162480762
33.9558426192
33.3321737892
30.047049252
21.4282492814
0.00224275412879
2.46679696777e-06
4.62436247017e-08
7.83861128799e-10
2.2679047312e-12
6.44489019049e-15
1.11559829348e-19
8.72624295067e-20
2.11853112493e-19
1.42805747592e-18
6.68894148777e-18
2.47089832449e-17
1.5702172712e-16
1.22944507134e-16
1.06661044307e-14
6.07079561728e-12
6.10244499507e-10
4.63072489207e-08
1.06634404565e-05
0.179499258248
53.5899820432
58.0397486055
59.7813935555
13.6223593215
13.8126806796
17.0540069682
16.0980202744
15.5556343348
14.1346565863
14.4875861669
16.8567306575
16.829876029
18.836349838
17.8407242137
16.8153076414
15.25109018
13.9592504526
16.3056858939
15.5413898749
14.5991080315
14.3672195883
14.5474924451
14.9797185609
15.5658144503
16.3787179862
18.6134987576
22.3165395928
23.5713269396
21.0589445189
23.1430981196
24.4377383968
24.1378359511
22.6299151801
22.6069380468
23.2035306919
23.7749980761
24.244572583
24.6085485499
25.058503819
25.5374351465
26.077350568
26.6465624466
27.2809168868
27.9811345042
28.6708439238
29.2673385362
29.7506305845
30.183270483
30.6282051459
31.0542194923
31.4034169362
31.6613015591
31.9774278273
32.5362766639
33.4940159019
34.9245430629
36.0020960413
28.9837411719
0.00331925249244
1.24022211319e-09
5.02230104631e-12
1.45236816251e-13
2.11438181384e-15
1.71789054261e-18
2.86646499845e-21
2.02058433256e-22
0
0
0
0
0
0
0
0
2.81028822604e-26
9.47852038997e-24
1.417784617e-21
8.2255323149e-19
1.14890499594e-15
6.22161419087e-11
9.4482722202e-07
7.36623492462
61.9855008546
14.2594227631
14.4718210941
19.2127614672
16.604342867
15.399713044
14.7160489813
15.20925386
16.8966592787
18.4197494167
19.9276019017
18.4756567261
17.4215523453
15.8514551128
14.788071206
16.8069754028
15.8215402393
15.089710705
14.876701273
14.9758811828
15.3248321835
15.8416075001
16.5955560072
18.4011059362
22.1938008572
24.566591315
23.7686115755
22.6230489228
23.806754509
23.868398533
22.5932505945
23.0634003621
23.6916705652
24.3118334096
24.736097117
25.1165261905
25.4899201044
25.9811635171
26.5076239113
27.1011951473
27.754206185
28.472667274
29.2153235393
29.8878793776
30.399203409
30.8832267421
31.4521354075
32.0059588157
32.3687101123
32.5524024546
32.8512005193
33.5051858673
34.5598613894
36.1143507695
29.4294060386
8.21288835936e-06
1.79555731671e-12
5.8886461981e-16
2.38112531882e-17
3.24659269245e-19
8.90303949291e-22
0
0
0
0
0
0
0
0
0
0
0
0
0
3.62105605826e-25
3.59830668847e-24
7.88826790202e-23
3.82491202649e-21
2.12406141592e-17
1.76799142241e-08
3.40808884377e-13
14.757178302
14.9586238646
21.2787875659
16.9918244445
15.5059924947
15.2587477923
16.0149946734
16.2340774242
19.3720771319
20.7090445838
19.0938656564
18.0439990023
16.6536306363
16.6902021939
17.5076434238
16.3445037674
15.7772303616
15.5844192174
15.5129028854
15.7575089331
16.1707034076
16.8484932257
18.3819872287
22.0594835567
24.9827536921
25.4222806915
22.3648226711
22.695022335
22.566489637
22.7171728222
23.3713159846
24.1963496789
24.81629318
25.2684499718
25.6647006409
26.1174288963
26.4898935168
27.0058568132
27.5973000884
28.2499461862
29.0341287997
29.8416785086
30.5585218517
31.0371914504
31.5240148204
32.7374354265
34.3859355578
34.9172960667
34.0233772819
34.0405336289
34.6331240706
35.6723372838
27.8982177935
9.50176817837e-07
1.43204093275e-11
6.42436078164e-23
6.49189615627e-20
1.05929854729e-21
0
0
0
0
0
0
0
0
0
0
0
0
0
0
0
0
0
0
5.59441808451e-24
3.78844752403e-23
6.98621133091e-21
94.054012846
15.1965006097
15.3639829006
21.1057776171
16.4060811807
15.7032889742
15.7292880826
16.931470973
16.2205285296
20.176308144
21.439947872
19.6855923884
18.6247138472
17.2754921527
18.9322294317
18.4885591585
17.0724378458
16.5701326567
16.6606637456
16.2732192317
16.3599145883
16.5997011762
17.1412863569
18.5060918539
21.9119229849
24.856232543
26.5313137992
25.1333630965
24.0986826743
23.5970575218
22.989945977
23.6834927642
24.8543096072
25.265477346
25.8015518067
26.4728866839
26.724151942
27.0956426811
27.6117097371
28.2147967119
28.8663786557
29.593213959
30.4498939361
31.3031465491
32.1988714196
33.2918431788
34.8762528232
36.1382397606
36.0573546886
35.9214015456
36.4546439639
37.4534084407
32.0296485754
4.32103341643e-06
3.94424062841e-11
5.1840040867e-15
7.04087117761e-17
0
0
0
0
0
0
0
0
0
0
0
0
0
0
0
0
0
0
0
0
0
0
1.72139342596e-23
1.25292243998e-12
15.7082951249
15.8534480245
20.7347877026
16.0663808433
15.9994911427
16.1137078569
17.7188109907
16.6833558106
20.8726036737
22.1584441445
20.2773976586
19.2125349689
17.8011643222
19.6802695394
19.398798534
17.8743608879
17.3515726146
17.5536594779
17.1851042558
17.1849423301
17.2319429347
17.4805052322
18.7913370495
21.8945571442
24.5840463933
26.8687644988
26.3463069038
24.6070677722
22.9727596678
23.5112659069
24.2259548959
25.3564041075
26.1619521267
26.8147050975
27.3205695486
27.4356841526
27.7845814537
28.313990778
28.9268053254
29.6060822095
30.3345671915
31.2662026207
32.4610999503
34.0132042671
35.0530483613
35.3998318727
36.0424919747
36.4900196444
38.1564951219
40.3035985943
38.3669594118
3.93730173756e-05
5.22798504123e-11
9.01539216583e-15
1.84910336014e-17
4.47703492964e-19
1.5027886578e-21
0
0
0
0
0
0
0
0
0
0
0
0
0
0
0
0
0
0
0
0
0
2.89285954773e-24
3.82751740943e-24
16.4675898598
16.6132162907
20.3963128681
16.3518130961
16.5670679309
16.6000162197
17.7165106788
17.4168535277
21.371648573
22.8425922937
20.9065899511
19.8536553385
18.4513445552
20.3658920005
20.2238113365
18.7727407267
18.1973185585
18.4270061535
18.0743988538
18.1575456186
18.1437546826
17.9819605352
19.2715485433
22.0661719583
24.4605774095
26.9688958387
26.8958731051
25.3149987786
23.4578203417
23.7472466113
24.8788955735
25.5041239061
26.1723660176
27.0437092322
28.2672564038
28.4840940621
28.7437275798
29.1218754209
29.691985219
30.4477970802
31.287160474
32.3497035177
34.3001333606
36.0654604205
36.2456569998
36.3953537804
37.4946743652
40.5079008701
44.4792993922
42.7626822677
1.12489936868e-05
1.86865535707e-12
7.73293284582e-17
2.53537489507e-20
1.59081177809e-22
3.22444655437e-22
4.95154669943e-23
0
0
0
0
0
0
0
0
0
0
0
0
0
0
0
0
0
0
0
0
0
2.13819739184e-25
9.70892607158e-25
17.6125248852
17.7165826487
20.6793161696
17.3028453781
17.7441420004
17.4629002662
18.0204535063
18.7561496181
21.4078024023
23.3547464897
21.6026299568
20.5696883221
19.2122330167
21.1457636495
21.078047585
19.8377192567
19.2332847118
19.4515180896
18.9719370338
19.2305333148
19.3759198513
18.7172380299
19.819345629
22.4270495561
24.5278365972
26.8327617396
27.1470894195
25.9516286211
25.5242248358
24.6329233532
25.3120771873
26.3759596125
27.6499695773
27.6468754244
28.4955661786
29.5447755293
29.8099526952
30.2686709527
30.7255962063
31.3778962292
32.3594420184
34.3006795335
37.0124493808
37.8829144018
37.6236894975
38.7556058094
43.2383842562
49.830066146
48.7369439007
4.04628223174e-07
2.8311137357e-14
2.64323070161e-19
1.80858558062e-21
0
0
0
0
0
0
0
0
0
0
0
0
0
0
0
0
0
0
0
0
0
0
0
0
0
0
0
19.2128186739
19.0796361904
21.4924312555
19.2181426377
19.7273190879
18.7412471375
18.9680427868
20.6966264372
21.6223358393
23.9770013637
22.4197485802
21.3712988658
20.0600051528
21.9637901984
21.9280699632
21.0130601275
20.7572833519
20.7932179441
19.96237871
20.4035452585
20.9153253428
19.7767039864
20.2485191513
22.8739086613
24.7925987741
26.7104028843
27.3353541788
26.1095175943
26.7252546698
26.2485841347
26.4152551494
26.0847997549
27.3438408037
28.9342566127
29.4749738586
30.2699724199
30.8791154672
31.3602772996
31.9761879916
32.6478958436
34.1472146661
37.3777874917
39.6502970506
39.9580449633
40.6135750875
44.488003902
52.712283376
51.5133067288
5.73956354907e-09
2.52653494575e-16
4.41691635175e-19
2.02244968034e-21
0
0
0
0
0
0
0
0
0
0
0
0
0
0
0
0
0
0
0
0
0
0
0
0
0
0
0
0
20.910717509
20.3649767488
22.3799268958
21.7600450351
21.4638802233
20.2295237292
20.0196565322
21.852278239
20.8530464977
24.4639094037
23.3403634216
22.2509758047
20.9858373371
22.7965298709
22.7196595209
21.9969930677
22.877784999
22.413709893
21.080341138
21.7054267063
22.2834420857
21.1436888688
20.4140271713
22.8826993622
24.988113849
26.6280762462
27.4167825889
26.2104368144
27.1249696519
27.5584810941
27.7844211022
26.883319286
27.6339015399
28.8600782332
30.4310507022
31.5202437436
32.1854467751
32.6286159357
33.2175165702
34.3725445159
37.3619192146
40.8309996047
42.5103945058
43.3440232258
45.8797161057
51.7136003999
49.0045899899
19.8956155444
6.80291420076e-16
9.84865359075e-19
3.44918848457e-21
0
0
0
0
0
0
0
0
0
0
0
0
0
0
0
0
0
0
0
0
0
0
0
0
0
0
0
0
0
21.7664863866
21.2784168856
22.9581056884
22.835923072
22.5584500933
21.6456675121
21.2403730392
23.2575976218
21.9190380661
25.0861712716
24.2724711773
23.1776776924
21.9849548742
23.6622830314
23.5264437896
22.827153594
23.8678760038
23.5429332154
22.1775302817
22.9967186313
23.0477515498
21.9823858125
21.4765819316
21.6999199363
24.5167996355
26.1628562531
27.2321800079
26.2113067577
27.2218867513
28.127710785
28.9103186999
28.7530170121
27.9860340231
28.9468247812
30.7014788442
32.428338542
33.6104373689
34.3237367532
34.9236658098
37.3960086119
41.3387220982
44.3480346584
45.757631526
47.4298673172
51.2841669244
45.1144389732
19.6000763894
3.59388063985e-15
3.23736873349e-18
9.22019375465e-21
0
0
0
0
0
0
0
0
0
0
0
0
0
0
0
0
0
0
0
0
0
0
0
0
0
0
0
0
0
0
21.8955298642
21.870083458
23.3292150245
23.0906904889
23.2715491126
22.7566981649
22.313310077
24.6414755419
23.6364310185
25.8901407804
25.2660054411
24.1384464448
23.0525914197
24.5762503687
24.4060143983
23.7918751482
24.6980377869
24.5348428218
23.3330485717
24.0501732895
22.8731252611
22.7672497254
22.5488166705
22.8220800004
23.6646166957
24.6672822495
26.4346625101
26.0534293841
26.8185105713
28.196069558
29.4049639668
30.1462475657
29.5610578794
29.7756087147
30.9275573273
32.6238425351
34.5336602172
36.0977562525
37.5633999053
41.2919048641
45.2230034678
47.637978334
48.6379856246
50.1595967524
44.6229382921
23.5654757482
6.38016391515
1.12451806594e-17
2.5190256616e-20
0
0
0
0
0
0
0
0
0
0
0
0
0
0
0
0
0
0
0
0
0
0
0
0
0
0
0
0
0
0
0
22.1920928703
22.305955132
23.6633382975
22.2608978671
23.6025422581
23.3915087657
23.0525402938
25.2939115605
24.5294387357
26.7192660204
26.3018191288
25.1051188678
24.1958578223
25.5257763284
25.3312213746
24.8923603844
25.6173883329
25.6368541318
24.6108942072
25.4825001934
24.2486434744
24.4314598771
23.8317213033
24.1361338223
25.4972320705
26.1244008565
26.1136500529
25.8319384345
26.3913461109
28.1800889396
29.452140405
30.4432489582
30.9614335184
30.9169991651
32.3335917082
33.4142408664
35.3076282364
37.7729347608
40.87406744
45.3270785539
48.7738335762
50.2485374373
49.1550645414
44.5258038972
36.8019185688
24.2033721358
9.43612585511e-17
2.1481802245e-19
0
0
0
0
0
0
0
0
0
0
0
0
0
0
0
0
0
0
0
0
0
0
0
0
0
0
0
0
0
0
0
0
22.943915515
23.0221343299
24.0227971342
22.7196289426
23.9007492112
23.7661269369
23.5897062629
25.5465831625
25.1688204167
27.3484312802
27.3193812637
26.0191619017
25.4013732741
26.4665582746
26.2225064434
25.9618283224
26.5063192301
26.8243936553
25.9345607532
26.9255072481
26.0440611003
26.5166013078
26.2814521849
25.1464500363
26.2689829962
27.24785244
27.3777387087
25.7216549083
25.9019890514
28.1252372828
29.6420659761
30.1501962651
30.8219883122
31.3128801001
32.7321030932
34.1042126379
36.2137136936
39.5009235043
44.372452838
49.3895539703
52.0494405926
51.8028652593
48.0655511423
40.8558275703
25.166140682
1.07289435428e-15
1.49693643138e-18
6.07011051018e-21
0
0
0
0
0
0
0
0
0
0
0
0
0
0
0
0
0
0
0
0
0
0
0
0
0
0
0
0
0
0
0
0
23.8858639316
24.8953252966
24.5374430963
23.7307856301
24.4816553463
24.201394358
24.1098960245
25.7715679682
25.7543176448
27.6378294569
28.3061935081
26.8419187354
26.4756594777
27.2480321355
27.0690689436
26.7836553558
26.8543122344
27.9088942052
27.3222861494
28.1910396925
28.0106628229
27.8787448167
27.7276694283
27.3461334054
26.6563545861
27.4287458861
28.3666006824
25.3090427541
25.471323351
27.5035544089
29.734533153
30.7581428542
31.6077799547
31.4127757193
32.6731877232
34.4256642994
36.7930443666
41.1193873075
47.8281711389
53.2303862597
54.68176078
49.8347757864
46.4353666366
40.8265542102
26.9238634098
1.01463709217e-17
2.5895979064e-20
0
0
0
0
0
0
0
0
0
0
0
0
0
0
0
0
0
0
0
0
0
0
0
0
0
0
0
0
0
0
0
0
0
24.6123430158
25.6569809325
25.2869052449
24.6502568498
25.2204734349
24.8113619327
24.6975893462
26.07680175
26.3225172054
27.669154086
29.188137764
27.6319247525
27.1463638833
27.9012460978
27.9810725905
27.5336478042
27.1440371479
28.6925735099
28.7410569438
29.2997211511
29.3728370041
29.5230838924
28.3573153467
28.3464972851
27.897926027
29.073932023
29.7422971885
27.135129093
25.1342155546
26.58789099
29.1227731707
30.9964771615
31.9189262326
32.0549311797
32.4367941256
34.3250597484
36.8401232827
42.3921657639
51.099431678
57.0872616059
55.561839908
49.1295488364