/*--------------------------------*- C++ -*----------------------------------*\
| =========                 |                                                 |
| \\      /  F ield         | OpenFOAM: The Open Source CFD Toolbox           |
|  \\    /   O peration     | Version:  v1806                                 |
|   \\  /    A nd           | Web:      www.OpenFOAM.com                      |
|    \\/     M anipulation  |                                                 |
\*---------------------------------------------------------------------------*/
FoamFile
{
    version     2.0;
    format      ascii;
    class       surfaceScalarField;
    location    "960";
    object      phi;
}
// * * * * * * * * * * * * * * * * * * * * * * * * * * * * * * * * * * * * * //

dimensions      [0 3 -1 0 0 0 0];
oriented        oriented;


internalField   nonuniform List<scalar> 
12640
(
-2.534714414e-07
2.5367696551e-07
-4.7391932315e-07
2.20631466653e-07
-6.58357999841e-07
1.84577679836e-07
-8.09889890202e-07
1.51648930234e-07
-9.22645630028e-07
1.12854112851e-07
-9.96734139484e-07
7.41769231142e-08
-1.05122034798e-06
5.45665414631e-08
-1.1253794218e-06
7.42312652917e-08
-1.22008721347e-06
9.47751881364e-08
-1.30840114596e-06
8.83741151189e-08
-1.38826946301e-06
7.99210630001e-08
-1.46699421601e-06
7.87723265412e-08
-1.53609079333e-06
6.91402861308e-08
-1.59281368332e-06
5.67628066473e-08
-1.64417086404e-06
5.13939872433e-08
-1.70047505976e-06
5.6336911717e-08
-1.7576026323e-06
5.71582388178e-08
-1.80616779297e-06
4.85935192992e-08
-1.84560794789e-06
3.9468291826e-08
-1.88307740518e-06
3.74967056235e-08
-1.92932484939e-06
4.62741931278e-08
-1.98356728249e-06
5.42667220203e-08
-2.03698255348e-06
5.34378329827e-08
-2.08560366013e-06
4.86404126767e-08
-2.1288584651e-06
4.32723490576e-08
-2.16730058112e-06
3.84567640977e-08
-2.20231217396e-06
3.50249387894e-08
-2.23334819903e-06
3.10467214566e-08
-2.25991619858e-06
2.65776139731e-08
-2.28292602997e-06
2.30170601055e-08
-2.30410643865e-06
2.11868781668e-08
-2.3228787939e-06
1.87767101847e-08
-2.33832778275e-06
1.54527954928e-08
-2.35286410654e-06
1.45386458783e-08
-2.36684007159e-06
1.39784684349e-08
-2.37932127481e-06
1.24824541529e-08
-2.39081944439e-06
1.14997727759e-08
-2.40028027626e-06
9.46171574766e-09
-2.40606764788e-06
5.7887717021e-09
-2.4080076804e-06
1.94069471786e-09
-2.40775984675e-06
-2.46611828836e-10
-2.40402806793e-06
-3.73102295136e-09
-2.39394943753e-06
-1.00770174842e-08
-2.37896499466e-06
-1.4982873302e-08
-2.36063072022e-06
-1.83315870104e-08
-2.33845571614e-06
-2.21722204072e-08
-2.31189378712e-06
-2.65578950576e-08
-2.28016127587e-06
-3.17282228063e-08
-2.24305437259e-06
-3.71012323705e-08
-2.20226763588e-06
-4.07806763662e-08
-2.15978342498e-06
-4.24764701692e-08
-2.11277775785e-06
-4.69973435654e-08
-2.05519036138e-06
-5.75772096881e-08
-1.98784596116e-06
-6.73332565663e-08
-1.91075172883e-06
-7.70808869196e-08
-1.82232798093e-06
-8.84095762648e-08
-1.72919580146e-06
-9.31151948476e-08
-1.63295048874e-06
-9.62263898761e-08
-1.52665562493e-06
-1.06272433042e-07
-1.41009813679e-06
-1.16531293972e-07
-1.28730338499e-06
-1.22763616021e-07
-1.14934966637e-06
-1.37919961622e-07
-9.78015806968e-07
-1.713019449e-07
-7.82927912221e-07
-1.9507099833e-07
-6.15559629013e-07
-1.67358356285e-07
-4.95735609506e-07
-1.19822337004e-07
-3.99431393184e-07
-9.63045843989e-08
-3.12363870042e-07
-8.70714523103e-08
-2.30786989371e-07
-8.15848137361e-08
-1.54243970074e-07
-7.65576890202e-08
-8.79486661541e-08
-6.63128751392e-08
-3.68206201675e-08
-5.11448356047e-08
-1.46322416972e-09
-3.53771678356e-08
2.15764663874e-08
-2.30610656334e-08
3.32141235225e-08
-1.16597723674e-08
3.70809161418e-08
-3.88261360943e-09
3.67671288634e-08
3.00878849449e-10
2.9839352945e-08
6.91795337679e-09
1.93720047267e-08
1.04122458141e-08
1.93573770309e-08
-1.3598437098e-07
3.89807023769e-07
-3.1436392087e-07
3.99151276507e-07
-4.82651315762e-07
3.52985390766e-07
-6.4940143012e-07
3.18495797958e-07
-8.44068177617e-07
3.07613242396e-07
-9.85929549993e-07
2.1612507597e-07
-1.0677859678e-06
1.36503759415e-07
-1.14567515991e-06
1.52199051079e-07
-1.23090650291e-06
1.80076441744e-07
-1.32013552241e-06
1.77666223797e-07
-1.40340877793e-06
1.63249146801e-07
-1.47331287816e-06
1.48726184544e-07
-1.53500904767e-06
1.30879893072e-07
-1.59168108862e-06
1.13475620921e-07
-1.64511229164e-06
1.04861066017e-07
-1.70248233443e-06
1.13742227523e-07
-1.75659069086e-06
1.1129722771e-07
-1.79212585857e-06
8.41595202928e-08
-1.8239545028e-06
7.13250494328e-08
-1.86755175784e-06
8.11235080048e-08
-1.92210391438e-06
1.00853290214e-07
-1.98348918698e-06
1.15678861599e-07
-2.04042538629e-06
1.10396015897e-07
-2.08660116173e-06
9.48375586537e-08
-2.12797356983e-06
8.46615238428e-08
-2.16831900052e-06
7.88187255179e-08
-2.20379370384e-06
7.05120380872e-08
-2.23398208847e-06
6.12475041921e-08
-2.2605132225e-06
5.31173476329e-08
-2.28394951116e-06
4.64620692996e-08
-2.30422646547e-06
4.14690785186e-08
-2.32171010846e-06
3.62658459756e-08
-2.33600142097e-06
2.97468940698e-08
-2.34980409943e-06
2.83448963142e-08
-2.36542429392e-06
2.95998486505e-08
-2.37853976241e-06
2.5600500386e-08
-2.38929761927e-06
2.22583115535e-08
-2.40032682608e-06
2.04928680665e-08
-2.41004393845e-06
1.55061403489e-08
-2.41384852025e-06
5.74695845097e-09
-2.40475660641e-06
-9.33840366146e-09
-2.38742768263e-06
-2.1058217556e-08
-2.3726649546e-06
-2.48390950981e-08
-2.35970475656e-06
-2.79404574421e-08
-2.34451050605e-06
-3.35240391256e-08
-2.32600300457e-06
-4.06758300149e-08
-2.3030687394e-06
-4.94889759555e-08
-2.27560081586e-06
-5.91907097678e-08
-2.24299625809e-06
-6.97009076951e-08
-2.2022064456e-06
-8.156314194e-08
-2.15097022772e-06
-9.37057570025e-08
-2.09512332527e-06
-1.02834572708e-07
-2.04340369512e-06
-1.09287209388e-07
-1.98448822045e-06
-1.26235757758e-07
-1.91067942465e-06
-1.50876675787e-07
-1.83072506128e-06
-1.68347086167e-07
-1.74320458126e-06
-1.80618661736e-07
-1.64409996392e-06
-1.9530955157e-07
-1.53632961507e-06
-2.14019821998e-07
-1.41759684869e-06
-2.35234971358e-07
-1.28010106459e-06
-2.60231272262e-07
-1.12830021971e-06
-2.89689679039e-07
-9.55429650833e-07
-3.44148178049e-07
-7.67445827698e-07
-3.83034004326e-07
-5.94969972106e-07
-3.39830313494e-07
-4.58224711893e-07
-2.56566168027e-07
-3.61404245919e-07
-1.93129470706e-07
-2.83274096123e-07
-1.65207217265e-07
-2.08208823478e-07
-1.56661440681e-07
-1.35237072672e-07
-1.49541897307e-07
-7.13099562828e-08
-1.30255139124e-07
-2.25824945373e-08
-9.98878046887e-08
1.1046768052e-08
-6.90237421426e-08
3.29415035559e-08
-4.49748692692e-08
4.56564622186e-08
-2.43939048093e-08
5.11150153751e-08
-9.35889940887e-09
4.92369446969e-08
2.15944324575e-09
4.09429070373e-08
1.51837802663e-08
2.34678427092e-08
2.78745513791e-08
4.27681652211e-08
-1.70620134027e-07
5.60510811129e-07
-2.65354429175e-07
4.94000561894e-07
-4.60593856833e-07
5.48336578286e-07
-6.7607833113e-07
5.34081182961e-07
-8.72100828618e-07
5.03722369706e-07
-9.78667815348e-07
3.22765300605e-07
-1.0346911623e-06
1.9260308857e-07
-1.12080111974e-06
2.38387709097e-07
-1.21905108533e-06
2.7839857179e-07
-1.31346424713e-06
2.72142919809e-07
-1.39995265143e-06
2.49792571602e-07
-1.4732218792e-06
2.22042957852e-07
-1.53556899724e-06
1.93269326976e-07
-1.59380682056e-06
1.71752033188e-07
-1.64132306537e-06
1.52413905868e-07
-1.64717713768e-06
1.19629551001e-07
-1.62867260212e-06
9.28234152346e-08
-1.64678899264e-06
1.02304615991e-07
-1.71606936761e-06
1.40634761448e-07
-1.82300612758e-06
1.88089042462e-07
-1.9246698729e-06
2.02545223349e-07
-1.9896244461e-06
1.80658485738e-07
-2.03800783224e-06
1.5880244815e-07
-2.08689092395e-06
1.43740336877e-07
-2.13198848498e-06
1.29777060164e-07
-2.16998550757e-06
1.16830737882e-07
-2.20359502641e-06
1.04135146654e-07
-2.23394602436e-06
9.16093827774e-08
-2.26062108374e-06
7.98020359398e-08
-2.28417934584e-06
7.00274597573e-08
-2.30358998531e-06
6.08858063849e-08
-2.32048331723e-06
5.31634303717e-08
-2.33659249356e-06
4.58595829614e-08
-2.34701957925e-06
3.87742090656e-08
-2.35910934466e-06
4.16920781896e-08
-2.3775072972e-06
4.39997859267e-08
-2.39012590965e-06
3.4878419217e-08
-2.39861429969e-06
2.89819887001e-08
-2.4087482813e-06
2.56411713321e-08
-2.41490327622e-06
1.19022564773e-08
-2.41481876243e-06
-9.42209447366e-09
-2.40916971543e-06
-2.67067321202e-08
-2.39797307498e-06
-3.60342991234e-08
-2.382773697e-06
-4.3138435327e-08
-2.36419840385e-06
-5.20968771092e-08
-2.34172395919e-06
-6.31476891217e-08
-2.31525669104e-06
-7.59524480888e-08
-2.28442389063e-06
-9.00194246321e-08
-2.24881537214e-06
-1.05303993316e-07
-2.20854868348e-06
-1.21823965707e-07
-2.16381798781e-06
-1.38429000842e-07
-2.1127001809e-06
-1.53944075598e-07
-2.05057537415e-06
-1.71401603148e-07
-1.98074782196e-06
-1.96051768428e-07
-1.90881398503e-06
-2.22795963351e-07
-1.83021930201e-06
-2.46926045596e-07
-1.73946861233e-06
-2.71350539446e-07
-1.63651522055e-06
-2.98242215361e-07
-1.52223187571e-06
-3.28279547736e-07
-1.39557881197e-06
-3.61862843477e-07
-1.25527248409e-06
-4.0051053346e-07
-1.08954850944e-06
-4.55388410064e-07
-8.96605828158e-07
-5.37069980134e-07
-6.9654186274e-07
-5.83088623009e-07
-5.30061361354e-07
-5.06306632151e-07
-4.17729244973e-07
-3.6890122877e-07
-3.22300037158e-07
-2.88563627405e-07
-2.36791602083e-07
-2.50723873089e-07
-1.61253686484e-07
-2.3220845566e-07
-9.3490976273e-08
-2.17315130706e-07
-3.64779347083e-08
-1.87279062342e-07
7.40523452411e-09
-1.4378432436e-07
3.87329276485e-08
-1.00367811551e-07
5.55315001213e-08
-6.17927460235e-08
6.2989636041e-08
-3.18733561266e-08
6.4327003327e-08
-1.07172232446e-08
6.01314474966e-08
6.33988697605e-09
4.99785941049e-08
2.53255129978e-08
2.39426910266e-08
5.3828436896e-08
6.67145280944e-08
-1.2424675035e-07
6.84873444568e-07
-1.74912879461e-07
5.44743753578e-07
-3.90862286208e-07
7.64383216204e-07
-5.70860449624e-07
7.14171231046e-07
-6.00493852013e-07
5.33426968994e-07
-5.54898352957e-07
2.77210907634e-07
-7.45626274547e-07
3.8338703078e-07
-1.01500719135e-06
5.07845389708e-07
-1.18212140922e-06
4.45584437615e-07
-1.29584726586e-06
3.85931163543e-07
-1.39285064293e-06
3.46848934528e-07
-1.47492366007e-06
3.04160898089e-07
-1.53489958588e-06
2.53285089301e-07
-1.54823661379e-06
1.85125198971e-07
-1.52415927045e-06
1.28370391334e-07
-1.52175431058e-06
1.172575415e-07
-1.57661503742e-06
1.4771578173e-07
-1.6821307167e-06
2.07851773556e-07
-1.80048949939e-06
2.59024254037e-07
-1.88284146802e-06
2.7047039066e-07
-1.93607170939e-06
2.558023556e-07
-1.99015808103e-06
2.34769842222e-07
-2.04327080857e-06
2.11937289164e-07
-2.0899131814e-06
1.90402604919e-07
-2.13147116531e-06
1.71352046251e-07
-2.1688026261e-06
1.54177340397e-07
-2.20315212212e-06
1.38497232324e-07
-2.23392608946e-06
1.22394435951e-07
-2.26109352739e-06
1.06978198408e-07
-2.28362395635e-06
9.25650497407e-08
-2.30405133592e-06
8.13184064274e-08
-2.31945894479e-06
6.8575089759e-08
-2.33077665422e-06
5.7180358673e-08
-2.34949992564e-06
5.7500178214e-08
-2.36576424353e-06
5.79581042748e-08
-2.37931457296e-06
5.75516745746e-08
-2.39927262863e-06
5.4837314472e-08
-2.4143411608e-06
4.40512175472e-08
-2.41879974223e-06
3.0099841826e-08
-2.41849525381e-06
1.15980796901e-08
-2.41680392708e-06
-1.11132732468e-08
-2.41207071621e-06
-3.14393036167e-08
-2.40211746975e-06
-4.59868934801e-08
-2.38726678619e-06
-5.79878087817e-08
-2.36836389506e-06
-7.09982348962e-08
-2.34550769909e-06
-8.60015034233e-08
-2.31859893417e-06
-1.02858415245e-07
-2.28736276178e-06
-1.21251779199e-07
-2.25155599081e-06
-1.41106357912e-07
-2.21107186598e-06
-1.62302490998e-07
-2.16523843499e-06
-1.84255933332e-07
-2.11215700705e-06
-2.07017550049e-07
-2.05066113944e-06
-2.32888150396e-07
-1.98304324179e-06
-2.63657849289e-07
-1.90926016866e-06
-2.96565852868e-07
-1.82599179045e-06
-3.30177839026e-07
-1.73077668747e-06
-3.66547411977e-07
-1.62208227087e-06
-4.06916114545e-07
-1.49846526349e-06
-4.51873425278e-07
-1.35752265771e-06
-5.02781340598e-07
-1.19454153048e-06
-5.63470016595e-07
-1.00981764075e-06
-6.40092497984e-07
-8.30443563509e-07
-7.16429322613e-07
-6.65027079107e-07
-7.48494427106e-07
-4.95567964677e-07
-6.75766129301e-07
-3.58703636406e-07
-5.05771135115e-07
-2.56994994765e-07
-3.90282430928e-07
-1.74688172694e-07
-3.33039674325e-07
-1.05565122357e-07
-3.01339086435e-07
-4.34456048142e-08
-2.79440621504e-07
1.29415930566e-08
-2.43675965538e-07
5.30897126228e-08
-1.83946170455e-07
6.98459108411e-08
-1.17140466599e-07
7.46728363858e-08
-6.6637985682e-08
7.66707814421e-08
-3.38889032989e-08
7.28013109261e-08
-6.8659598107e-09
5.86662783164e-08
2.04545180101e-08
4.23202136884e-08
4.16385936366e-08
2.28448476534e-08
7.33159936963e-08
8.95201911674e-08
-3.29137620229e-08
7.17820313907e-07
-1.54594905461e-07
6.66482164286e-07
-3.30359444527e-07
9.40222114858e-07
-4.71803298157e-07
8.55679906529e-07
-4.69260288719e-07
5.30935715473e-07
-5.80400098385e-07
3.88396355316e-07
-8.07527177674e-07
6.10578152632e-07
-9.80159874369e-07
6.80547036966e-07
-1.12766896456e-06
5.93160168843e-07
-1.25698382042e-06
5.15303098171e-07
-1.37150311568e-06
4.61416537501e-07
-1.44140470378e-06
3.74103592325e-07
-1.44046211699e-06
2.52377831747e-07
-1.43058139757e-06
1.75278559723e-07
-1.47444029485e-06
1.72264451307e-07
-1.56611533497e-06
2.08967948863e-07
-1.68068490248e-06
2.62320410254e-07
-1.77722158961e-06
3.04421941805e-07
-1.83604806483e-06
3.17881772885e-07
-1.88204166381e-06
3.16492479267e-07
-1.93630801726e-06
3.1009520411e-07
-1.99232160433e-06
2.90807592126e-07
-2.04394687617e-06
2.63584310968e-07
-2.08988273416e-06
2.36357422879e-07
-2.13082588026e-06
2.12311974838e-07
-2.16870730987e-06
1.92073018642e-07
-2.20236957822e-06
1.72172130308e-07
-2.23370339832e-06
1.5373849552e-07
-2.25994109002e-06
1.3322414195e-07
-2.28219330064e-06
1.14823516546e-07
-2.29777886048e-06
9.69088404255e-08
-2.31589902356e-06
8.66990560664e-08
-2.34063516037e-06
8.19195820402e-08
-2.3568793919e-06
7.37467522626e-08
-2.37514426936e-06
7.62247976007e-08
-2.3962808792e-06
7.86892318142e-08
-2.41080630982e-06
6.9363189409e-08
-2.41970654812e-06
5.29513175416e-08
-2.42331426765e-06
3.37073571236e-08
-2.42331027426e-06
1.15937153184e-08
-2.42148631704e-06
-1.29373711713e-08
-2.41681723175e-06
-3.61084690035e-08
-2.40738613046e-06
-5.54176783022e-08
-2.39288733874e-06
-7.24860752422e-08
-2.37390630694e-06
-8.9978183895e-08
-2.3507557647e-06
-1.09150545079e-07
-2.32342885416e-06
-1.30183050063e-07
-2.29173039856e-06
-1.52947339312e-07
-2.25542592763e-06
-1.77407015012e-07
-2.21418770521e-06
-2.03536053863e-07
-2.16716923898e-06
-2.31268789404e-07
-2.11304281452e-06
-2.61136937466e-07
-2.05135036118e-06
-2.94571816914e-07
-1.98280376972e-06
-3.32194024041e-07
-1.90629685076e-06
-3.73058402133e-07
-1.81876510866e-06
-4.17693610176e-07
-1.71711020066e-06
-4.68183329338e-07
-1.59821468156e-06
-5.25789548672e-07
-1.45880742736e-06
-5.91257854558e-07
-1.29598097015e-06
-6.65585890233e-07
-1.11106938327e-06
-7.48360679265e-07
-9.21820567156e-07
-8.29325727446e-07
-7.57468780879e-07
-8.80769560732e-07
-5.99333185679e-07
-9.06629522078e-07
-4.51585905858e-07
-8.23517648498e-07
-3.16339504814e-07
-6.41029566203e-07
-1.99308453323e-07
-5.07323829569e-07
-1.06153616671e-07
-4.26202469185e-07
-3.32936324373e-08
-3.74204373586e-07
2.9669304461e-08
-3.42411445456e-07
7.93178500136e-08
-2.93335010098e-07
9.70740055543e-08
-2.01715423812e-07
9.71724163019e-08
-1.17253573939e-07
9.78532501346e-08
-6.73318012515e-08
9.55915260454e-08
-3.16453389892e-08
8.42998077321e-08
4.40656582959e-09
6.79525817307e-08
3.67890666964e-08
4.90759345313e-08
6.05174670672e-08
2.39258292749e-08
9.84004030939e-08
1.13454201084e-07
-1.92976405039e-08
7.37178487883e-07
-1.81425659612e-07
8.28660653386e-07
-2.86510544634e-07
1.04536444145e-06
-3.60592085258e-07
9.29816814494e-07
-3.6885473392e-07
5.39235988364e-07
-6.17050938989e-07
6.36644431949e-07
-8.38755833795e-07
8.32347157935e-07
-9.54338370128e-07
7.96193295116e-07
-1.08289390575e-06
7.21770892106e-07
-1.20357983757e-06
6.36041789809e-07
-1.27518915794e-06
5.33070051599e-07
-1.25569400765e-06
3.54642178928e-07
-1.26154028697e-06
2.58256154265e-07
-1.33913840114e-06
2.52910856825e-07
-1.45780113502e-06
2.90964082583e-07
-1.59893247735e-06
3.50137434317e-07
-1.71445782754e-06
3.77881871874e-07
-1.77899471613e-06
3.68991522946e-07
-1.82487357383e-06
3.63790704315e-07
-1.88269473044e-06
3.74341786214e-07
-1.94085979783e-06
3.68286263439e-07
-1.99335243855e-06
3.4332375831e-07
-2.04294794349e-06
3.13200831384e-07
-2.09007815814e-06
2.83506379787e-07
-2.13206315278e-06
2.54313066663e-07
-2.16523922873e-06
2.25263119225e-07
-2.19945228124e-06
2.06396849014e-07
-2.23008944202e-06
1.84385330922e-07
-2.25689213345e-06
1.60034597596e-07
-2.27326005014e-06
1.3119737787e-07
-2.28990481417e-06
1.13558101734e-07
-2.31047946798e-06
1.07277342215e-07
-2.33052369823e-06
1.01966726196e-07
-2.3635907879e-06
1.06816045431e-07
-2.39174281611e-06
1.04378113806e-07
-2.40860817796e-06
9.5555012355e-08
-2.4190961741e-06
7.98508722925e-08
-2.42583390022e-06
5.96883777491e-08
-2.42912868981e-06
3.70012413033e-08
-2.42954772192e-06
1.20119055913e-08
-2.42775706754e-06
-1.4728794695e-08
-2.42299010535e-06
-4.08759765323e-08
-2.4137794118e-06
-6.46287744083e-08
-2.39957259201e-06
-8.66929881237e-08
-2.38064204455e-06
-1.08908506504e-07
-2.35728364775e-06
-1.32508176778e-07
-2.32954574042e-06
-1.57919655496e-07
-2.29726761584e-06
-1.85223411258e-07
-2.26018046568e-06
-2.14491345416e-07
-2.21785925617e-06
-2.45853614978e-07
-2.1695480521e-06
-2.7957503328e-07
-2.114353025e-06
-3.16326008773e-07
-2.05182320618e-06
-3.5709384301e-07
-1.9814903188e-06
-4.02515959244e-07
-1.9012764829e-06
-4.53260299301e-07
-1.8075433161e-06
-5.11410578178e-07
-1.69604135058e-06
-5.79665865342e-07
-1.56227348403e-06
-6.59537575698e-07
-1.40271415529e-06
-7.50795240434e-07
-1.21817402169e-06
-8.50105575143e-07
-1.01998082239e-06
-9.46538064131e-07
-8.3082577134e-07
-1.01846872797e-06
-6.65300794065e-07
-1.04629033133e-06
-5.09263279471e-07
-1.06266260805e-06
-3.6274955595e-07
-9.70041015109e-07
-2.43089625594e-07
-7.60702011757e-07
-1.28378572982e-07
-6.22046649345e-07
-2.61566834352e-08
-5.28437100169e-07
5.75078419691e-08
-4.57878677789e-07
1.2105901283e-07
-4.05969688888e-07
1.45192075895e-07
-3.17476611263e-07
1.36596681375e-07
-1.93131674244e-07
1.29689002139e-07
-1.10355620097e-07
1.25320319134e-07
-6.297889678e-08
1.17605182691e-07
-2.39438347774e-08
1.02039805787e-07
1.99593076487e-08
8.20063856174e-08
5.68095166903e-08
5.93477592821e-08
8.31400366233e-08
3.08586855559e-08
1.26910895732e-07
1.44284226453e-07
-7.29363184096e-08
8.10136073239e-07
-2.53396220938e-07
1.00916379007e-06
-3.47040079959e-07
1.13905235772e-06
-3.2660977097e-07
9.09430224664e-07
-4.36493041259e-07
6.4916193513e-07
-6.93593299945e-07
8.93802530999e-07
-8.21921883727e-07
9.60736465197e-07
-9.25612055074e-07
8.99934958427e-07
-1.02512500925e-06
8.21337615029e-07
-1.14983229873e-06
7.60790333325e-07
-1.1646164212e-06
5.4789073199e-07
-1.16041101575e-06
3.5046710451e-07
-1.24065189507e-06
3.38530632901e-07
-1.34833911806e-06
3.60635092846e-07
-1.49270618776e-06
4.35370295787e-07
-1.62383868786e-06
4.81307600661e-07
-1.69835263117e-06
4.52430157672e-07
-1.75038542923e-06
4.21055986285e-07
-1.81916686794e-06
4.32602236362e-07
-1.88507559468e-06
4.40278523552e-07
-1.94101413434e-06
4.24250154657e-07
-1.99384470336e-06
3.96177248363e-07
-2.04455437493e-06
3.63931288077e-07
-2.08873339443e-06
3.2770331293e-07
-2.12606135464e-06
2.91656579605e-07
-2.16138697703e-06
2.60602139086e-07
-2.1900462593e-06
2.35067488783e-07
-2.22091156162e-06
2.15259875441e-07
-2.2446264754e-06
1.83756698085e-07
-2.26256282059e-06
1.49139198805e-07
-2.28627806375e-06
1.37277837055e-07
-2.31266958419e-06
1.33672240073e-07
-2.34572673517e-06
1.35026528981e-07
-2.3758316288e-06
1.36922591656e-07
-2.40240631945e-06
1.30953354643e-07
-2.41807334165e-06
1.112216569e-07
-2.42714369062e-06
8.89202805462e-08
-2.4331100642e-06
6.56534219917e-08
-2.4364899721e-06
4.03797099092e-08
-2.43726379739e-06
1.27842459999e-08
-2.43552305112e-06
-1.64709183845e-08
-2.43064482619e-06
-4.57555106086e-08
-2.42151141909e-06
-7.37633194017e-08
-2.40750448824e-06
-1.00700883114e-07
-2.38864703689e-06
-1.27766563689e-07
-2.36511252234e-06
-1.56042914371e-07
-2.33691700312e-06
-1.86114766613e-07
-2.30389189854e-06
-2.18247522698e-07
-2.26575330072e-06
-2.52628151433e-07
-2.22209119711e-06
-2.89512854593e-07
-2.17230757817e-06
-3.29355466515e-07
-2.11570458418e-06
-3.72923791399e-07
-2.05153408191e-06
-4.21257664665e-07
-1.97835964378e-06
-4.75683074595e-07
-1.89313770846e-06
-5.38469838767e-07
-1.79128155812e-06
-6.13250877024e-07
-1.66738299496e-06
-7.03548267603e-07
-1.51671742789e-06
-8.10180960334e-07
-1.33861918998e-06
-9.28873579296e-07
-1.14010488556e-06
-1.04860044028e-06
-9.39809477278e-07
-1.1468177799e-06
-7.55513154512e-07
-1.20275561095e-06
-5.81439620456e-07
-1.22035341257e-06
-4.38083084103e-07
-1.2060263691e-06
-2.80938171816e-07
-1.12719788238e-06
-1.50028359656e-07
-8.91627829622e-07
-3.82173321356e-08
-7.3387794997e-07
7.25548378458e-08
-6.39223196732e-07
1.66220592988e-07
-5.51552845746e-07
2.14424729219e-07
-4.54181409268e-07
2.05941665368e-07
-3.09002623183e-07
1.8334812358e-07
-1.70544801011e-07
1.66583932835e-07
-9.36056287522e-08
1.53184828726e-07
-4.95892116713e-08
1.41202065977e-07
-1.19749842619e-08
1.27075998537e-07
3.4071363586e-08
1.03948868309e-07
7.99232018103e-08
7.38815676415e-08
1.13216598716e-07
4.06890287119e-08
1.60048090551e-07
1.849857292e-07
-1.23755397102e-07
9.33952102588e-07
-2.75552197714e-07
1.16100506683e-06
-3.30064239838e-07
1.19361004634e-06
-2.67129884492e-07
8.46528950549e-07
-4.76424300525e-07
8.58499880468e-07
-6.82280792567e-07
1.0997161371e-06
-7.90091063263e-07
1.06859643189e-06
-9.00802563476e-07
1.01069653829e-06
-9.54716220116e-07
8.75288386364e-07
-1.01225275135e-06
8.18367734825e-07
-1.01668751999e-06
5.52353425748e-07
-1.12690360458e-06
4.60715316926e-07
-1.23124380775e-06
4.42905358742e-07
-1.37193835689e-06
5.01367216103e-07
-1.51727833614e-06
5.8074980515e-07
-1.60222385765e-06
5.66289378283e-07
-1.65882417974e-06
5.09062825896e-07
-1.73858136748e-06
5.00844282512e-07
-1.81905769677e-06
5.13108525482e-07
-1.88246494241e-06
5.03713284861e-07
-1.93698821214e-06
4.78798523455e-07
-1.98884005474e-06
4.48052019323e-07
-2.04166601127e-06
4.16777044231e-07
-2.0916563545e-06
3.7771095752e-07
-2.12670708489e-06
3.26722554182e-07
-2.1637163337e-06
2.97624222248e-07
-2.19453446078e-06
2.65896419153e-07
-2.21065195103e-06
2.31386189337e-07
-2.23346515267e-06
2.06576804087e-07
-2.27591057755e-06
1.91590149174e-07
-2.30735816393e-06
1.6872957331e-07
-2.32545828565e-06
1.51775725745e-07
-2.35748168001e-06
1.6705205964e-07
-2.3918023938e-06
1.71244229841e-07
-2.41233722e-06
1.51487971769e-07
-2.42606147155e-06
1.24944866239e-07
-2.43547639214e-06
9.83335841409e-08
-2.44170813311e-06
7.18832517493e-08
-2.44532463473e-06
4.39941352278e-08
-2.44637953174e-06
1.38370707632e-08
-2.44471102276e-06
-1.81414902888e-08
-2.43976013097e-06
-5.07083967358e-08
-2.43066668344e-06
-8.28587237755e-08
-2.4168107856e-06
-1.1455858304e-07
-2.3980173847e-06
-1.46561587295e-07
-2.37429202088e-06
-1.79769536437e-07
-2.34555633695e-06
-2.14851337183e-07
-2.31159931215e-06
-2.52204816585e-07
-2.27213884337e-06
-2.92088040061e-07
-2.22683017973e-06
-3.34820646928e-07
-2.17520362853e-06
-3.80978978463e-07
-2.11658930222e-06
-4.31535045333e-07
-2.04985486727e-06
-4.87987628064e-07
-1.97278879676e-06
-5.5274105002e-07
-1.88156295242e-06
-6.29685419909e-07
-1.7708985923e-06
-7.23905092008e-07
-1.63503146628e-06
-8.39393954869e-07
-1.47025860244e-06
-9.74937647778e-07
-1.27898479865e-06
-1.12013028332e-06
-1.07036255515e-06
-1.25720994414e-06
-8.63573236966e-07
-1.35359737553e-06
-6.70443928847e-07
-1.39587328603e-06
-5.01840254458e-07
-1.38895869905e-06
-3.69282029839e-07
-1.33858135422e-06
-2.3138068973e-07
-1.2651115739e-06
-5.65227989783e-08
-1.06649567175e-06
6.76519862627e-08
-8.58073114275e-07
1.80755834071e-07
-7.52353033433e-07
2.75811197191e-07
-6.4663169363e-07
3.08130662274e-07
-4.86504687254e-07
2.8014181428e-07
-2.81013664882e-07
2.38758380014e-07
-1.29169111042e-07
1.99786698698e-07
-5.46382623841e-08
1.75556178669e-07
-2.53720195685e-08
1.68036719124e-07
-4.46529012313e-09
1.6223730741e-07
3.9862250448e-08
1.37348942904e-07
1.04802310524e-07
9.53323261527e-08
1.55199039196e-07
5.04558861542e-08
2.04953133432e-07
2.35424475699e-07
-1.53187968022e-07
1.08716091385e-06
-2.68644808426e-07
1.27650196914e-06
-2.82491811735e-07
1.20748880229e-06
-3.20781017218e-07
8.84852154625e-07
-5.41250443868e-07
1.07901360949e-06
-6.46727254934e-07
1.20524000888e-06
-7.48796874912e-07
1.17070977907e-06
-8.57912565571e-07
1.11984995531e-06
-9.18302346796e-07
9.35715423337e-07
-9.78976724236e-07
8.79074487192e-07
-1.02155578344e-06
5.94962202682e-07
-1.12316857894e-06
5.62358965341e-07
-1.24472177215e-06
5.64495250172e-07
-1.39654202729e-06
6.53226660191e-07
-1.5208223468e-06
7.05066160867e-07
-1.59005925598e-06
6.35559696977e-07
-1.65304777647e-06
5.72082992728e-07
-1.73426106078e-06
5.82088723448e-07
-1.81141501549e-06
5.90292068867e-07
-1.87806462212e-06
5.70390574569e-07
-1.93593977209e-06
5.36699213123e-07
-1.9847458602e-06
4.96879985e-07
-2.02804472256e-06
4.60094933607e-07
-2.07331265235e-06
4.22995514709e-07
-2.11440041643e-06
3.67824482869e-07
-2.14395429412e-06
3.27190715517e-07
-2.18108634834e-06
3.03038953583e-07
-2.21961355832e-06
2.69921842679e-07
-2.2516995578e-06
2.38669287985e-07
-2.27955315153e-06
2.19449038152e-07
-2.31097923302e-06
2.00159989397e-07
-2.35590476163e-06
1.96704312744e-07
-2.38408036688e-06
1.95229356234e-07
-2.40388683847e-06
1.91050928764e-07
-2.42113835445e-06
1.68738510132e-07
-2.43487789055e-06
1.38682625979e-07
-2.44490875247e-06
1.08362235364e-07
-2.45159883214e-06
7.85708390054e-08
-2.45548153364e-06
4.78742358513e-08
-2.45676968256e-06
1.51225174992e-08
-2.45523973924e-06
-1.96741680074e-08
-2.45031863682e-06
-5.56323245267e-08
-2.441289363e-06
-9.1890836484e-08
-2.42757384643e-06
-1.28276969892e-07
-2.40884429476e-06
-1.6529392161e-07
-2.3849043757e-06
-2.03712111406e-07
-2.35553642692e-06
-2.4422155476e-07
-2.32046082598e-06
-2.87282180933e-07
-2.27938673967e-06
-3.33163312808e-07
-2.23202589113e-06
-3.82180681904e-07
-2.1779928324e-06
-4.35012239074e-07
-2.11656915416e-06
-4.92956435116e-07
-2.04631872748e-06
-5.58235445868e-07
-1.96462174091e-06
-6.34434550624e-07
-1.86749202542e-06
-7.26812812323e-07
-1.749878715e-06
-8.41502785528e-07
-1.60617316397e-06
-9.83089797046e-07
-1.43207321893e-06
-1.14902873991e-06
-1.23051815955e-06
-1.32167974915e-06
-1.00636489941e-06
-1.48135883325e-06
-7.85039723758e-07
-1.57491479062e-06
-5.79855490079e-07
-1.60105476193e-06
-4.02743084626e-07
-1.56605277113e-06
-2.57507509369e-07
-1.48381581199e-06
-1.54507752667e-07
-1.36809568742e-06
-2.64411418698e-09
-1.21838147049e-06
1.67636911914e-07
-1.02839935425e-06
2.8831255119e-07
-8.73082912394e-07
3.98993475099e-07
-7.57339579948e-07
4.34599924778e-07
-5.22127667142e-07
3.82689543863e-07
-2.29108456346e-07
2.96045351995e-07
-4.25252725805e-08
2.16481264478e-07
2.49159308217e-08
1.80790821424e-07
1.03125917114e-08
1.94542996972e-07
-1.82215274402e-08
2.11522641631e-07
2.28698917374e-08
1.82441766851e-07
1.33873022573e-07
1.25656670621e-07
2.11998557392e-07
6.0392434954e-08
2.70183592649e-07
2.9583299025e-07
-1.69111885554e-07
1.25633815818e-06
-2.80570445578e-07
1.38800622481e-06
-2.63444827291e-07
1.19040036795e-06
-3.72195291167e-07
9.93634832297e-07
-5.57523976028e-07
1.26438291882e-06
-6.15267315492e-07
1.26302071331e-06
-7.02662723519e-07
1.25814559143e-06
-7.67723159091e-07
1.18494175074e-06
-8.5804489881e-07
1.02606790105e-06
-8.91091420595e-07
9.12150868883e-07
-9.92264138553e-07
6.96162589767e-07
-1.11422312342e-06
6.84351547875e-07
-1.24642628238e-06
6.9673188579e-07
-1.3872878963e-06
7.94124725789e-07
-1.47836167462e-06
7.96174943033e-07
-1.53929461141e-06
6.96522901847e-07
-1.63055463542e-06
6.63373754762e-07
-1.72086124479e-06
6.7242616274e-07
-1.79685466566e-06
6.66315001538e-07
-1.86742337123e-06
6.40986576512e-07
-1.9341772705e-06
6.03476972786e-07
-1.99190007501e-06
5.54624616963e-07
-2.03034591516e-06
4.98560091789e-07
-2.06191041796e-06
4.54576156288e-07
-2.11302532967e-06
4.18953509088e-07
-2.15040322434e-06
3.6458100433e-07
-2.16764297832e-06
3.20288699835e-07
-2.19348899857e-06
2.95775770127e-07
-2.23234535014e-06
2.77532440888e-07
-2.28067066741e-06
2.67779621973e-07
-2.3256908502e-06
2.45184385653e-07
-2.36160121918e-06
2.32617624134e-07
-2.39614122484e-06
2.29770576705e-07
-2.41690181759e-06
2.11810997218e-07
-2.43210978235e-06
1.83944798734e-07
-2.44526099381e-06
1.51831506026e-07
-2.45567915975e-06
1.18777649335e-07
-2.46284420769e-06
8.57329153082e-08
-2.46698551266e-06
5.20123872959e-08
-2.46843050264e-06
1.65642595585e-08
-2.46704793779e-06
-2.1060148453e-08
-2.46225964169e-06
-6.04241554808e-08
-2.45337562129e-06
-1.00778602931e-07
-2.43983039368e-06
-1.41826112787e-07
-2.42119331843e-06
-1.83935123878e-07
-2.39706366542e-06
-2.27845934229e-07
-2.36701761942e-06
-2.74271767238e-07
-2.33065341119e-06
-3.23650112453e-07
-2.28765012722e-06
-3.76168828427e-07
-2.23775178348e-06
-4.32082144414e-07
-2.18061065833e-06
-4.92153075228e-07
-2.11548231103e-06
-5.58085886588e-07
-2.04084551092e-06
-6.32872692553e-07
-1.95429650773e-06
-7.20985531311e-07
-1.85288620735e-06
-8.28217052583e-07
-1.73330069026e-06
-9.61082852634e-07
-1.58889750003e-06
-1.12749133485e-06
-1.4091429062e-06
-1.3287707822e-06
-1.19928478412e-06
-1.53154835597e-06
-9.48915439282e-07
-1.73173980744e-06
-7.06820583212e-07
-1.81701953828e-06
-4.77335735889e-07
-1.83053248193e-06
-2.70462342246e-07
-1.77292360793e-06
-9.829874394e-08
-1.65595203209e-06
1.87333244248e-08
-1.48512292411e-06
9.79186726603e-08
-1.29758436208e-06
1.67401831595e-07
-1.09792561175e-06
3.584118533e-07
-1.06414968737e-06
5.44482782267e-07
-9.4346384834e-07
6.26997391385e-07