/*--------------------------------*- C++ -*----------------------------------*\
| =========                 |                                                 |
| \\      /  F ield         | OpenFOAM: The Open Source CFD Toolbox           |
|  \\    /   O peration     | Version:  v1806                                 |
|   \\  /    A nd           | Web:      www.OpenFOAM.com                      |
|    \\/     M anipulation  |                                                 |
\*---------------------------------------------------------------------------*/
FoamFile
{
    version     2.0;
    format      ascii;
    class       surfaceScalarField;
    location    "960";
    object      phia;
}
// * * * * * * * * * * * * * * * * * * * * * * * * * * * * * * * * * * * * * //

dimensions      [0 3 -1 0 0 0 0];
oriented        oriented;


internalField   nonuniform List<scalar> 
12640
(
4.91420315068e-08
-5.07274991678e-08
9.28488275613e-08
-4.48575114991e-08
1.30578310542e-07
-3.85544361342e-08
1.6284225079e-07
-3.28926376742e-08
1.8854789254e-07
-2.62827177034e-08
2.07738357252e-07
-1.97547812887e-08
2.24919026609e-07
-1.76918495668e-08
2.48513947352e-07
-2.40510063819e-08
2.78630013524e-07
-3.05137672275e-08
3.09053298606e-07
-3.07629678542e-08
3.39043032129e-07
-3.02690350473e-08
3.70784851262e-07
-3.19902501731e-08
4.02605881569e-07
-3.20433792635e-08
4.33861586521e-07
-3.14612031979e-08
4.66266199039e-07
-3.25895686459e-08
5.02476649946e-07
-3.63932409569e-08
5.40978279438e-07
-3.86657009993e-08
5.79084344175e-07
-3.8259397318e-08
6.16672657109e-07
-3.77104789941e-08
6.56307024354e-07
-3.97415708276e-08
7.01715007564e-07
-4.54986994936e-08
7.52170118505e-07
-5.0545802105e-08
8.04025015339e-07
-5.19333690804e-08
8.5557286635e-07
-5.16278259088e-08
9.06508831901e-07
-5.10033233189e-08
9.57223272272e-07
-5.07846930778e-08
1.00841728461e-06
-5.12524999299e-08
1.05979379743e-06
-5.14399534909e-08
1.11094723927e-06
-5.12045314077e-08
1.16207246413e-06
-5.11815767351e-08
1.21383508333e-06
-5.18062102857e-08
1.26584394054e-06
-5.20595524466e-08
1.31775611375e-06
-5.19529981323e-08
1.37086099935e-06
-5.314954443e-08
1.42499512456e-06
-5.41613752075e-08
1.47939035433e-06
-5.44289025272e-08
1.53383974669e-06
-5.44668814234e-08
1.58709110151e-06
-5.32709170603e-08
1.63818601283e-06
-5.10994170477e-08
1.68706026673e-06
-4.88881444258e-08
1.73436186972e-06
-4.73037532142e-08
1.77840884526e-06
-4.40580914496e-08
1.81705699163e-06
-3.86450911521e-08
1.85161144302e-06
-3.45566130258e-08
1.88337078896e-06
-3.17452595802e-08
1.91202042829e-06
-2.86414727571e-08
1.93718259301e-06
-2.51373040544e-08
1.95821948422e-06
-2.10170886754e-08
1.97504877298e-06
-1.67917087853e-08
1.98924161042e-06
-1.41595037724e-08
2.00278222168e-06
-1.34852487653e-08
2.01336678294e-06
-1.05322966143e-08
2.0157735863e-06
-2.33624427559e-09
2.01147105661e-06
4.37096656969e-09
2.00000748973e-06
1.15515859075e-08
1.9799544096e-06
2.01403730272e-08
1.95979823423e-06
2.02754636053e-08
1.94310499111e-06
1.68295613826e-08
1.92318151826e-06
2.01021874171e-08
1.90060370474e-06
2.27982259929e-08
1.88288472605e-06
1.7998012974e-08
1.86105450045e-06
2.21356889929e-08
1.81109623742e-06
5.02455422578e-08
1.71218162293e-06
9.90723974917e-08
1.59660739492e-06
1.1567464082e-07
1.50132154723e-06
9.53224080297e-08
1.40998169139e-06
9.13709943611e-08
1.31543756005e-06
9.45639608019e-08
1.21172636201e-06
1.03720954874e-07
1.09226955979e-06
1.1943538623e-07
9.62782947908e-07
1.2945455998e-07
8.32677012352e-07
1.30076480269e-07
7.06027768516e-07
1.26594434134e-07
5.69675512917e-07
1.36282013936e-07
4.5135388185e-07
1.18238736668e-07
3.47877904948e-07
1.03427916873e-07
2.74043432117e-07
7.3792502449e-08
1.91126269815e-07
8.28875376253e-08
1.15737971101e-07
7.50900125466e-08
1.15670083002e-07
2.632032623e-08
-7.76725201868e-08
6.10697549943e-08
-8.04041554925e-08
9.5061537624e-08
-7.31591024783e-08
1.2955489446e-07
-6.79020794235e-08
1.7074665673e-07
-6.80114902127e-08
2.02667355125e-07
-5.22054367904e-08
2.25355616202e-07
-4.09088742943e-08
2.50355837711e-07
-4.9506228328e-08
2.78426958582e-07
-5.89888956802e-08
3.08797609126e-07
-6.14578140536e-08
3.39524463045e-07
-6.12868920584e-08
3.68904568928e-07
-6.16086304095e-08
3.9851833246e-07
-6.18931021973e-08
4.29534907973e-07
-6.26852162277e-08
4.62579951809e-07
-6.58532111882e-08
4.99580972014e-07
-7.35721203395e-08
5.37157468046e-07
-7.64176144522e-08
5.70957488308e-07
-7.21811140808e-08
6.06010615331e-07
-7.28850151189e-08
6.47670087532e-07
-8.14854149385e-08
6.96105638623e-07
-9.40350866669e-08
7.49120726505e-07
-1.03631963793e-07
8.02046503017e-07
-1.0495366548e-07
8.52478362441e-07
-1.02120692144e-07
9.0266198596e-07
-1.01270708689e-07
9.54276671056e-07
-1.02449940874e-07
1.00573213642e-06
-1.02783883478e-07
1.05681362457e-06
-1.02563646164e-07
1.10806703443e-06
-1.02526613362e-07
1.15961116036e-06
-1.0276078022e-07
1.21114833988e-06
-1.03406975667e-07
1.2626678669e-06
-1.03611092997e-07
1.31411275253e-06
-1.03455346814e-07
1.36721410448e-06
-1.06272551128e-07
1.42260533345e-06
-1.09602207367e-07
1.47759828977e-06
-1.09429041669e-07
1.53186651101e-06
-1.08768575612e-07
1.58639323853e-06
-1.07794134091e-07
1.64030128001e-06
-1.05034045884e-07
1.69055965412e-06
-9.91376495524e-08
1.73151750738e-06
-8.8286344967e-08
1.76559304541e-06
-7.81232105416e-08
1.8006069911e-06
-7.36774782117e-08
1.83654569521e-06
-7.04757941177e-08
1.8705650102e-06
-6.57720994223e-08
1.90198854695e-06
-6.00355625032e-08
1.92996064872e-06
-5.31065632209e-08
1.95449660132e-06
-4.55134291354e-08
1.97514248392e-06
-3.74220814581e-08
1.98930130917e-06
-2.82655026472e-08
1.99476440181e-06
-1.89172310248e-08
1.99695513565e-06
-1.26550367523e-08
2.00500188258e-06
-1.03322616457e-08
2.00888159064e-06
5.78670868922e-10
2.0008003079e-06
1.9706561501e-08
1.99077902981e-06
3.02755658328e-08
1.9788033872e-06
3.23602631022e-08
1.96126660369e-06
3.45260373279e-08
1.94251097385e-06
3.90351240435e-08
1.92143167095e-06
4.41249121087e-08
1.88816489739e-06
5.15088143379e-08
1.85039172062e-06
6.01827914032e-08
1.79325524483e-06
1.07602063564e-07
1.69170172006e-06
2.00813541484e-07
1.5516453186e-06
2.55785188061e-07
1.410451467e-06
2.3655642725e-07
1.32341601705e-06
1.78414479274e-07
1.26124192225e-06
1.5675316996e-07
1.17855732538e-06
1.86397660383e-07
1.06470993289e-06
2.3328324054e-07
9.27364824641e-07
2.66788552664e-07
7.85514444128e-07
2.71908127558e-07
6.65864878915e-07
2.4620673226e-07
5.75066546023e-07
2.27032305964e-07
4.84673347043e-07
2.08575350155e-07
3.99546036946e-07
1.88497803003e-07
3.0919906338e-07
1.64062186905e-07
2.27522141207e-07
1.64423773478e-07
1.19362647185e-07
1.83194249359e-07
2.34698350415e-07
3.2112146614e-08
-1.10651020182e-07
4.94592915248e-08
-9.84002413933e-08
8.80022866362e-08
-1.12314918747e-07
1.31887375836e-07
-1.12373173074e-07
1.73077121279e-07
-1.09747940248e-07
1.95883356092e-07
-7.54434318674e-08
2.11751132198e-07
-5.71826871986e-08
2.38822459088e-07
-7.70056592942e-08
2.69677686301e-07
-9.02194052687e-08
3.00810931561e-07
-9.29121864474e-08
3.31715896538e-07
-9.24670017748e-08
3.61290542226e-07
-9.14441570453e-08
3.90586362523e-07
-9.14396207151e-08
4.21844266261e-07
-9.41860412881e-08
4.53106637697e-07
-9.73310635653e-08
4.74769903624e-07
-9.54221952628e-08
4.90074024447e-07
-9.18578770362e-08
5.17540440608e-07
-9.97632973607e-08
5.6425946922e-07
-1.196990436e-07
6.26920993973e-07
-1.44244936862e-07
6.90924703957e-07
-1.58130335464e-07
7.44473750778e-07
-1.57277621955e-07
7.93791646889e-07
-1.54351515797e-07
8.45143338219e-07
-1.53555573821e-07
8.96984406095e-07
-1.53179498174e-07
9.47727505101e-07
-1.5326500247e-07
9.98494269788e-07
-1.53607977489e-07
1.04984515375e-06
-1.53978397781e-07
1.1014535039e-06
-1.54185701131e-07
1.15344354618e-06
-1.54809885316e-07
1.20492936178e-06
-1.54939857283e-07
1.25666046546e-06
-1.55394077107e-07
1.30953669118e-06
-1.56372715771e-07
1.36129168954e-06
-1.58072126317e-07
1.41558084072e-06
-1.63914210409e-07
1.47419748463e-06
-1.68074902269e-07
1.52998364228e-06
-1.64568311573e-07
1.58351604356e-06
-1.61345933198e-07
1.63815881652e-06
-1.59682592404e-07
1.69006147955e-06
-1.5105808989e-07
1.73744862799e-06
-1.35678960813e-07
1.78063300889e-06
-1.21321205063e-07
1.81925323814e-06
-1.12295559903e-07
1.8542652968e-06
-1.05493115709e-07
1.88629415727e-06
-9.77910978165e-08
1.91502950169e-06
-8.87678032071e-08
1.9404941143e-06
-7.855225735e-08
1.96249274594e-06
-6.74983540383e-08
1.98075690009e-06
-5.56561007031e-08
1.99551382327e-06
-4.29963323571e-08
2.00724169653e-06
-3.06010016659e-08
2.0146551402e-06
-2.00243732046e-08
2.01351710881e-06
-9.13087596631e-09
2.00671210173e-06
7.44894688177e-09
2.00134383428e-06
2.51644909976e-08
1.9944427005e-06
3.72743750003e-08
1.98108913686e-06
4.58424358993e-08
1.96225793243e-06
5.35058986992e-08
1.94027584469e-06
6.12071742092e-08
1.91499162681e-06
6.96180324231e-08
1.88531046884e-06
8.14217357735e-08
1.83038014433e-06
1.15330565837e-07
1.7164573397e-06
2.2170499848e-07
1.55154108354e-06
3.65827100885e-07
1.41787737596e-06
3.89510096722e-07
1.35365171177e-06
3.00798787661e-07
1.28018497138e-06
2.51890732731e-07
1.18381462777e-06
2.53123441788e-07
1.0762908719e-06
2.93931198961e-07
9.55217765157e-07
3.54371390068e-07
8.38060114321e-07
3.83960535058e-07
7.46894064496e-07
3.63067274429e-07
6.66076250374e-07
3.26997842502e-07
5.79733814322e-07
3.13318993705e-07
4.76164778481e-07
3.12070882111e-07
3.71042704982e-07
2.93532903178e-07
2.8153521258e-07
2.53502237013e-07
2.13696405876e-07
2.32203594264e-07
9.22031631519e-08
3.04203251444e-07
3.26927707764e-07
2.19929240241e-08
-1.33061357271e-07
3.02780968754e-08
-1.07124689577e-07
7.13674527496e-08
-1.539839755e-07
1.06993206224e-07
-1.48567920167e-07
1.1447490618e-07
-1.17641791512e-07
1.06439961387e-07
-6.76217579574e-08
1.47346837054e-07
-9.83621925404e-08
2.08931956756e-07
-1.3895599599e-07
2.52582788128e-07
-1.34224639659e-07
2.87083894739e-07
-1.27723906686e-07
3.19659920699e-07
-1.25333063244e-07
3.50396627458e-07
-1.22464539576e-07
3.78224473994e-07
-1.19537441372e-07
3.96531621268e-07
-1.12735458329e-07
4.0754165586e-07
-1.08541070311e-07
4.26076625818e-07
-1.14106215939e-07
4.63839877673e-07
-1.29744285175e-07
5.20090670812e-07
-1.56122214483e-07
5.83718761428e-07
-1.83438645848e-07
6.38331542467e-07
-1.9896621885e-07
6.84674310502e-07
-2.04580041485e-07
7.33574560567e-07
-2.06271966235e-07
7.84592399241e-07
-2.05460600987e-07
8.35142684144e-07
-2.041852668e-07
8.85558504096e-07
-2.03674042247e-07
9.36176438253e-07
-2.03950428687e-07
9.87585715461e-07
-2.05086183548e-07
1.03940736821e-06
-2.05858157648e-07
1.09170350055e-06
-2.06543490241e-07
1.14364654534e-06
-2.06808187619e-07
1.19644436118e-06
-2.07795436835e-07
1.24787302322e-06
-2.06873321899e-07
1.29901807158e-06
-2.07563407081e-07
1.35661341411e-06
-2.15700215666e-07
1.4144601843e-06
-2.21794211397e-07
1.47141647161e-06
-2.25052077766e-07
1.5325092715e-06
-2.25683475737e-07
1.59112846752e-06
-2.19980479065e-07
1.64273095029e-06
-2.11306083335e-07
1.69064432845e-06
-1.98984024907e-07
1.73728016146e-06
-1.82329949331e-07
1.78155377616e-06
-1.65601179986e-07
1.82159804477e-06
-1.52350293465e-07
1.85739449133e-06
-1.41291944269e-07
1.8895779709e-06
-1.29979956336e-07
1.91833420224e-06
-1.17519978351e-07
1.94369142717e-06
-1.03906657533e-07
1.96554946834e-06
-8.93428637405e-08
1.98381742015e-06
-7.39101043371e-08
1.99859883486e-06
-5.7751686977e-08
2.00959533169e-06
-4.15692571477e-08
2.0153828775e-06
-2.57704109257e-08
2.01500349204e-06
-8.70377473848e-09
2.01121888206e-06
1.13019028841e-08
2.00543295473e-06
3.10296319025e-08
1.99549882196e-06
4.73139829005e-08
1.98012777547e-06
6.13329966873e-08
1.95915091059e-06
7.46335578381e-08
1.9322176444e-06
8.83095021768e-08
1.89660748761e-06
1.05410730854e-07
1.84200958438e-06
1.36182079406e-07
1.74972742258e-06
2.07760516275e-07
1.62923788478e-06
3.42321894766e-07
1.51530185041e-06
4.79867373578e-07
1.39074370735e-06
5.14111390799e-07
1.26905588675e-06
4.22490565071e-07
1.17227342361e-06
3.48655460087e-07
1.08829606046e-06
3.37100581372e-07
1.00687138789e-06
3.75380531775e-07
9.18896199674e-07
4.4239118749e-07
8.20655411622e-07
4.82226472578e-07
7.17210152872e-07
4.66509452561e-07
6.06080575402e-07
4.38087692506e-07
4.93748416611e-07
4.25596750152e-07
3.89154397568e-07
4.16595073563e-07
2.81136250586e-07
4.01468491335e-07
1.86545764761e-07
3.47973082632e-07
1.25268805678e-07
2.93281361703e-07
6.45038830163e-08
3.65035518568e-07
3.91170755233e-07
3.63109406797e-09
-1.37162962022e-07
2.49802070059e-08
-1.28841660436e-07
5.63687129322e-08
-1.85887040911e-07
8.23838860549e-08
-1.75083363381e-07
8.02731341169e-08
-1.15824923989e-07
1.04996227338e-07
-9.25453475293e-08
1.55450397518e-07
-1.49095561949e-07
1.93275346863e-07
-1.77124954249e-07
2.29448033981e-07
-1.70721853344e-07
2.65668733292e-07
-1.64265214572e-07
3.01399251002e-07
-1.61381873442e-07
3.27237114594e-07
-1.48587965529e-07
3.37836697122e-07
-1.30384880639e-07
3.49211780596e-07
-1.24307687015e-07
3.78221564472e-07
-1.37707645878e-07
4.25016884005e-07
-1.61041355139e-07
4.82340206394e-07
-1.87196521722e-07
5.37144447755e-07
-2.11052322669e-07
5.81391520652e-07
-2.27807742206e-07
6.23113725916e-07
-2.40807402251e-07
6.69897949241e-07
-2.514745469e-07
7.19494158925e-07
-2.55971404733e-07
7.69695204282e-07
-2.55754714675e-07
8.1981894992e-07
-2.54397728942e-07
8.7014612955e-07
-2.54080213781e-07
9.21356254619e-07
-2.55237311087e-07
9.72794211159e-07
-2.56589053529e-07
1.02545465037e-06
-2.58584943589e-07
1.07757749364e-06
-2.58730166218e-07
1.13025101808e-06
-2.59546261837e-07
1.18112079653e-06
-2.587226978e-07
1.23552593284e-06
-2.61328318563e-07
1.29506046872e-06
-2.67137804369e-07
1.35276457383e-06
-2.73438438359e-07
1.41338852537e-06
-2.82444599904e-07
1.4765423768e-06
-2.88233052756e-07
1.53544114958e-06
-2.84606268379e-07
1.59063478201e-06
-2.75199815407e-07
1.64232345435e-06
-2.63015313573e-07
1.69125042911e-06
-2.47931463092e-07
1.73855126524e-06
-2.29645975496e-07
1.78354459686e-06
-2.10610431165e-07
1.82464126354e-06
-1.93458700086e-07
1.86133811652e-06
-1.78002093609e-07
1.89400448903e-06
-1.62655394013e-07
1.92295073904e-06
-1.4647540272e-07
1.94829416789e-06
-1.29253239735e-07
1.97000886279e-06
-1.11058579864e-07
1.98805450177e-06
-9.19486006682e-08
2.00236776423e-06
-7.20538033978e-08
2.01250274352e-06
-5.16829057111e-08
2.01755642815e-06
-3.07950481953e-08
2.01744342003e-06
-8.54528700021e-09
2.01363996428e-06
1.5163051058e-08
2.00644924846e-06
3.83025674347e-08
1.99416904505e-06
5.9686104861e-08
1.97504726675e-06
8.05745832504e-08
1.94720988945e-06
1.0259843377e-07
1.90755674974e-06
1.28104017958e-07
1.84997165007e-06
1.6312498776e-07
1.76509269087e-06
2.21180578725e-07
1.65407685838e-06
3.18877852013e-07
1.54803031408e-06
4.48450714976e-07
1.45953460841e-06
5.68410571171e-07
1.37137827045e-06
6.02282362951e-07
1.2542276481e-06
5.39621058796e-07
1.12335068089e-06
4.79521164715e-07
1.01078773584e-06
4.49680373045e-07
9.21468576578e-07
4.64740422075e-07
8.38425347155e-07
5.25471069234e-07
7.40037845041e-07
5.80635759299e-07
6.31319022698e-07
5.75214773163e-07
5.23776836254e-07
5.4560448666e-07
4.15636219567e-07
5.3369806858e-07
3.069126628e-07
5.25248691625e-07
2.07298131936e-07
5.00971891653e-07
1.47600238898e-07
4.07594602698e-07
9.13936926161e-08
3.49483097303e-07
3.58610622817e-08
4.20135323203e-07
4.2709147243e-07
7.45143297919e-10
-1.3804437904e-07
2.83214666742e-08
-1.567313968e-07
4.43419305266e-08
-2.02355604846e-07
5.65349295172e-08
-1.87637864772e-07
5.63922460869e-08
-1.15887850845e-07
1.0645429939e-07
-1.42838028577e-07
1.52281181798e-07
-1.95233838391e-07
1.76758542802e-07
-2.01909289633e-07
2.06737905653e-07
-2.01037760429e-07
2.38513721559e-07
-1.96369098833e-07
2.62883789322e-07
-1.86062628651e-07
2.65269936316e-07
-1.51222404553e-07
2.76772591666e-07
-1.42076578799e-07
3.09613102503e-07
-1.57304753159e-07
3.59092226094e-07
-1.87329531361e-07
4.19564783697e-07
-2.21653122531e-07
4.75694277095e-07
-2.43467827742e-07
5.18387833795e-07
-2.53885901425e-07
5.58190104486e-07
-2.67743517765e-07
6.04590690153e-07
-2.87334010195e-07
6.52762524296e-07
-2.99764367778e-07
7.00838530699e-07
-3.04155996309e-07
7.50132612753e-07
-3.0514907573e-07
8.00684352202e-07
-3.05039300963e-07
8.51421692852e-07
-3.04903305699e-07
9.00913345112e-07
-3.04805437367e-07
9.53603518522e-07
-3.0935406304e-07
1.00605832547e-06
-3.11109709374e-07
1.05934467871e-06
-3.12083523585e-07
1.10899246071e-06
-3.09257676481e-07
1.16235207875e-06
-3.12140556002e-07
1.21937890315e-06
-3.18402110762e-07
1.2785141599e-06
-3.26310245658e-07
1.34703037471e-06
-3.41985938595e-07
1.41526561652e-06
-3.50710107599e-07
1.47692381858e-06
-3.49921892691e-07
1.53435669345e-06
-3.42070640609e-07
1.58929707779e-06
-3.30169617229e-07
1.64187521999e-06
-3.15621502233e-07
1.69218976038e-06
-2.98270143116e-07
1.74054398454e-06
-2.78022278284e-07
1.78637424793e-06
-2.56460373173e-07
1.82845350621e-06
-2.3555850058e-07
1.86612448726e-06
-2.15693067602e-07
1.89947305371e-06
-1.96024444519e-07
1.92876080445e-06
-1.75781510645e-07
1.95413792172e-06
-1.54647079921e-07
1.97562279907e-06
-1.32555476529e-07
1.99317450191e-06
-1.09507494846e-07
2.00667990836e-06
-8.55580940229e-08
2.01579291858e-06
-6.07868150759e-08
2.02007712987e-06
-3.50563775195e-08
2.01963342292e-06
-8.06596041474e-09
2.01494725725e-06
1.99084342404e-08
2.00527004368e-06
4.80462958827e-08
1.98829416519e-06
7.67583354624e-08
1.96101466245e-06
1.0794264665e-07
1.91972972247e-06
1.43993725232e-07
1.8595947271e-06
1.88334253619e-07
1.77598071445e-06
2.46824065283e-07
1.66852601295e-06
3.28704781171e-07
1.55114606349e-06
4.36310965748e-07
1.45598047265e-06
5.43670019312e-07
1.36195048044e-06
6.62492814719e-07
1.25501537951e-06
7.09223903616e-07
1.15591986991e-06
6.38686838501e-07
1.04134439399e-06
5.94091565379e-07
9.29223270981e-07
5.6178878555e-07
8.38967742256e-07
5.55013805267e-07
7.52553918749e-07
6.11923205088e-07
6.51524132416e-07
6.81690046268e-07
5.56331457179e-07
6.7041030486e-07
4.50823928321e-07
6.51099022186e-07
3.39697839583e-07
6.44789564393e-07
2.35125159799e-07
6.29753768754e-07
1.64736626683e-07
5.71295837514e-07
1.08626563744e-07
4.63603511905e-07
5.86109245655e-08
3.99263691534e-07
2.5272292037e-08
4.53607198323e-07
4.52107547055e-07
9.68336597559e-09
-1.48038912815e-07
3.86143530546e-08
-1.85992568061e-07
5.00164683783e-08
-2.14181551996e-07
4.11635004426e-08
-1.79107013101e-07
6.14862583723e-08
-1.36415701377e-07
1.12445948876e-07
-1.94066214683e-07
1.36803567426e-07
-2.19880553082e-07
1.57441496491e-07
-2.22874731212e-07
1.79881907703e-07
-2.23784561955e-07
2.1089681235e-07
-2.27723694652e-07
2.15605239944e-07
-1.91048134306e-07
2.22618140549e-07
-1.58437338746e-07
2.52980348679e-07
-1.72601046039e-07
2.93961248034e-07
-1.98423607753e-07
3.50970025294e-07
-2.44485540144e-07
4.07100451201e-07
-2.77945943234e-07
4.47962498247e-07
-2.84486989813e-07
4.85840666844e-07
-2.91909417036e-07
5.3349324393e-07
-3.15534308225e-07
5.82604932963e-07
-3.36578674445e-07
6.29764898261e-07
-3.4704923111e-07
6.77728783459e-07
-3.52235317459e-07
7.27375915569e-07
-3.5489838487e-07
7.76615310814e-07
-3.54376588141e-07
8.25559847161e-07
-3.5393794239e-07
8.76078729909e-07
-3.55406855344e-07
9.27362071288e-07
-3.60713711103e-07
9.81102288397e-07
-3.64921603171e-07
1.03253134459e-06
-3.63581837389e-07
1.08371541803e-06
-3.6050676034e-07
1.14305048427e-06
-3.7153010419e-07
1.20507840831e-06
-3.80475953024e-07
1.27377227244e-06
-3.95040541233e-07
1.34340987248e-06
-4.11657945038e-07
1.41140788106e-06
-4.18744620956e-07
1.47333259547e-06
-4.1188437782e-07
1.53137144203e-06
-4.00146084886e-07
1.58739705848e-06
-3.86230435328e-07
1.6415378014e-06
-3.69794756804e-07
1.69352419669e-06
-3.50287158677e-07
1.74323502281e-06
-3.27761859757e-07
1.79014434636e-06
-3.03398678742e-07
1.83329170529e-06
-2.78735209429e-07
1.87199903478e-06
-2.54431286961e-07
1.90614338187e-06
-2.30200124614e-07
1.93585280071e-06
-2.05522713712e-07
1.96123262145e-06
-1.80056899552e-07
1.98230022313e-06
-1.53649887928e-07
1.99903650226e-06
-1.26263875799e-07
2.01138681347e-06
-9.79206762745e-08
2.01920642838e-06
-6.86051342775e-08
2.02233519272e-06
-3.81711172212e-08
2.02072069225e-06
-6.41406535518e-09
2.01386328878e-06
2.68100018888e-08
1.99978924113e-06
6.21979249126e-08
1.9748145915e-06
1.01789418143e-07
1.93451868759e-06
1.48323842261e-07
1.8746896704e-06
2.03882538699e-07
1.7931816056e-06
2.69908564952e-07
1.6934620514e-06
3.46604192489e-07
1.58713854029e-06
4.35075063051e-07
1.49044820364e-06
5.33058765054e-07
1.39353513331e-06
6.4064039145e-07
1.29150005243e-06
7.64549052231e-07
1.15889251147e-06
8.41787136908e-07
1.05189643648e-06
7.45654296784e-07
9.66651989312e-07
6.79267367137e-07
8.69383697605e-07
6.59046579774e-07
7.69992153614e-07
6.54426693145e-07
6.73212084954e-07
7.08736486656e-07
5.88774303474e-07
7.66153522499e-07
4.97999825307e-07
7.61200800785e-07
3.83427166379e-07
7.65671401828e-07
2.69175608107e-07
7.59016930632e-07
1.75399639869e-07
7.2348651332e-07
1.25212205682e-07
6.21388746963e-07
6.59091717483e-08
5.22825396708e-07
1.98149105887e-08
4.45389753584e-07
9.87172894422e-09
4.63072421233e-07
4.62076856264e-07
1.7469698606e-08
-1.65627743755e-07
3.93223468756e-08
-2.08159951404e-07
4.42441532373e-08
-2.19384985288e-07
2.74899038254e-08
-1.62562456453e-07
6.29833870573e-08
-1.72128248206e-07
9.92682858785e-08
-2.30625766312e-07
1.17876255169e-07
-2.38793234471e-07
1.37762551467e-07
-2.43057527157e-07
1.47278067433e-07
-2.33642765539e-07
1.66020818648e-07
-2.46750678877e-07
1.65224557804e-07
-1.9046810558e-07
1.9564815013e-07
-1.89029601627e-07
2.2991571971e-07
-2.0701574465e-07
2.79811852913e-07
-2.48471045022e-07
3.34534736475e-07
-2.99376520374e-07
3.75038110685e-07
-3.18622771324e-07
4.09134684853e-07
-3.18746488263e-07
4.55724087326e-07
-3.38651356965e-07
5.06627805461e-07
-3.66584737108e-07
5.54116085153e-07
-3.84207474854e-07
6.00763433368e-07
-3.93826593104e-07
6.48480491429e-07
-4.0006797973e-07
6.9911023459e-07
-4.05640791686e-07
7.49932608214e-07
-4.05302956131e-07
7.97253010309e-07
-4.01350642232e-07
8.50670224676e-07
-4.08912598722e-07
9.01285896767e-07
-4.11411044962e-07
9.51433160837e-07
-4.15144544452e-07
1.00299269711e-06
-4.15210340896e-07
1.06954227572e-06
-4.27118639173e-07
1.13147488883e-06
-4.33518640883e-07
1.19369788203e-06
-4.42742217207e-07
1.26540584119e-06
-4.66788843647e-07
1.33904798621e-06
-4.85341504819e-07
1.40460994964e-06
-4.84349481538e-07
1.46673794947e-06
-4.74055674205e-07
1.52684676755e-06
-4.60297239027e-07
1.58504615307e-06
-4.44470860694e-07
1.64125888046e-06
-4.26047037996e-07
1.69522239595e-06
-4.042889537e-07
1.74662002308e-06
-3.79197185544e-07
1.79491821326e-06
-3.51735254463e-07
1.83933177457e-06
-3.23189055612e-07
1.87919798194e-06
-2.94340167878e-07
1.91422850115e-06
-2.65275633256e-07
1.94438058879e-06
-2.3572086407e-07
1.96965175282e-06
-2.05373101034e-07
1.99002815982e-06
-1.7406694572e-07
2.0055361704e-06
-1.41805630063e-07
2.01625530747e-06
-1.08660613343e-07
2.02225272921e-06
-7.46105566753e-08
2.02350716748e-06
-3.94103767408e-08
2.0196146982e-06
-2.49772445563e-09
2.00906628701e-06
3.74145793123e-08
1.98836557931e-06
8.29373186401e-08
1.95230298999e-06
1.37904928086e-07
1.89609710056e-06
2.04573764679e-07
1.81824136271e-06
2.81783423315e-07
1.72143355682e-06
3.66742691593e-07
1.61672876982e-06
4.51323819639e-07
1.5182509038e-06
5.33589296441e-07
1.42972217147e-06
6.21637851943e-07
1.34730720291e-06
7.23102567547e-07
1.27757831501e-06
8.34311465342e-07
1.16337548164e-06
9.5600479856e-07
9.83529475395e-07
9.25493413715e-07
8.61928168868e-07
8.00808476327e-07
7.64237302759e-07
7.56637520389e-07
6.74405071245e-07
7.44192338047e-07
6.07805900346e-07
7.75395700944e-07
5.45340125803e-07
8.28688092635e-07
4.44202214357e-07
8.62386950441e-07
3.19283300916e-07
8.90607562624e-07
2.01747115763e-07
8.76537944267e-07
1.19773727063e-07
8.05422461947e-07
6.26832614178e-08
6.78424741523e-07
9.35365236789e-09
5.76053610255e-07
-3.10596500851e-08
4.85515946347e-07
-2.2112008327e-08
4.54328816309e-07
4.39675033202e-07
2.0368171373e-08
-1.86341793732e-07
3.31109172403e-08
-2.21221845989e-07
2.87663262266e-08
-2.1535307697e-07
3.11495555157e-08
-1.65144435803e-07
6.74898443322e-08
-2.08708557776e-07
8.13493148378e-08
-2.44770371325e-07
9.72114805103e-08
-2.54956398137e-07
1.15778446116e-07
-2.61928383063e-07
1.21387563659e-07
-2.39521738881e-07
1.32340752477e-07
-2.57991635218e-07
1.45938091582e-07
-2.04244045652e-07
1.73824204729e-07
-2.17073923349e-07
2.09398831966e-07
-2.42729709388e-07
2.61792791345e-07
-3.01025820316e-07
3.07655441773e-07
-3.45432641879e-07
3.38188384448e-07
-3.49342928339e-07
3.75458169869e-07
-3.56184709683e-07
4.23825607163e-07
-3.87177744083e-07
4.72978685362e-07
-4.1589102099e-07
5.20505770028e-07
-4.31876547202e-07
5.67715645837e-07
-4.41164793223e-07
6.14286842518e-07
-4.46767666209e-07
6.6226427269e-07
-4.5374054516e-07
7.12197458216e-07
-4.55344638275e-07
7.59422336232e-07
-4.48677625353e-07
8.1144400926e-07
-4.61026569583e-07
8.66393369656e-07
-4.66443902426e-07
9.24483462265e-07
-4.73313278343e-07
9.85267836054e-07
-4.76068040671e-07
1.04561144881e-06
-4.87525161016e-07
1.11059972254e-06
-4.98556775532e-07
1.18768296224e-06
-5.19870167747e-07
1.26155035674e-06
-5.40700261815e-07
1.32896657571e-06
-5.52804775994e-07
1.39439869894e-06
-5.49831721454e-07
1.45858782974e-06
-5.38294809849e-07
1.52132549869e-06
-5.23083746784e-07
1.58218894249e-06
-5.05381769985e-07
1.64091012347e-06
-4.84815131497e-07
1.69721795949e-06
-4.60643693971e-07
1.75070282685e-06
-4.32730175352e-07
1.80078121094e-06
-4.01863817267e-07
1.8467479793e-06
-3.69209043728e-07
1.88796188391e-06
-3.3561097119e-07
1.92398955499e-06
-3.01363491451e-07
1.95457732607e-06
-2.66370385758e-07
1.97956512085e-06
-2.30421005967e-07
1.99888179164e-06
-1.93438865445e-07
2.01261038616e-06
-1.55577727802e-07
2.02099309875e-06
-1.17074631417e-07
2.02432493363e-06
-7.79496518037e-08
2.0226583347e-06
-3.77388848018e-08
2.01525394903e-06
4.94049660323e-09
1.99960596839e-06
5.30932871743e-08
1.97079424248e-06
1.11764297635e-07
1.9222314067e-06
1.86496690587e-07
1.85073616003e-06
2.76089308678e-07
1.7595016893e-06
3.72993939493e-07
1.65055563428e-06
4.75667104044e-07
1.53840218089e-06
5.63485336194e-07
1.44104301961e-06
6.30987784315e-07
1.36113006769e-06
7.01616411443e-07
1.29936213209e-06
7.84994970328e-07
1.24908833428e-06
8.84690049236e-07
1.19919944069e-06
1.00604590185e-06
1.01846823442e-06
1.1061605884e-06
7.7454074572e-07
1.04451805234e-06
6.60385231567e-07
8.70542396913e-07
5.99652329851e-07
8.04848636794e-07
5.72613328565e-07
8.02411017209e-07
5.15123752315e-07
8.86234201692e-07
3.99820480572e-07
9.77732488997e-07
2.5963926166e-07
1.03079374044e-06
1.3182600923e-07
1.00435906436e-06
4.06679544897e-08
8.96539109055e-07
-2.96894099933e-08
7.48667861827e-07
-7.67352238635e-08
6.22991664064e-07
-9.47148237395e-08
5.03555053926e-07
-6.22883306543e-08
4.2136601976e-07
3.77518827722e-07
2.06055338324e-08
-2.07056308767e-07
3.02766344268e-08
-2.31143664007e-07
1.89106236899e-08
-2.04211726508e-07
3.14967746623e-08
-1.77958525628e-07
5.87365731962e-08
-2.36230704788e-07
6.33363851454e-08
-2.49667758896e-07
7.44818308901e-08
-2.66380666436e-07
8.46294620937e-08
-2.72365236416e-07
9.98058977737e-08
-2.54936741934e-07
9.5877679196e-08
-2.54274086265e-07
1.19307843323e-07
-2.27843519721e-07
1.50121665641e-07
-2.48024846274e-07
1.85467207244e-07
-2.78233271931e-07
2.30564865726e-07
-3.46311000481e-07
2.65958809688e-07
-3.81020592088e-07
2.91565582956e-07
-3.75135509435e-07
3.34683363732e-07
-3.99476133244e-07
3.84451275492e-07
-4.37111899848e-07
4.32908558643e-07
-4.64505226044e-07
4.81479071087e-07
-4.80593010703e-07
5.30430730962e-07
-4.90261694546e-07
5.78398522306e-07
-4.94869075741e-07
6.23391512926e-07
-4.98857148804e-07
6.71824566186e-07
-5.03895707188e-07
7.24624915801e-07
-5.01581298365e-07
7.739775885e-07
-5.10475237934e-07
8.27386665715e-07
-5.19944942753e-07
8.79705298887e-07
-5.25716488435e-07
9.47862295152e-07
-5.44295867653e-07
1.01814820714e-06
-5.5787189598e-07
1.09257519769e-06
-5.73034172636e-07
1.16746118597e-06
-5.94801133232e-07
1.24538417827e-06
-6.18671854983e-07
1.31575867416e-06
-6.23234531891e-07
1.3827239317e-06
-6.16853842062e-07
1.44921263557e-06
-6.04839721683e-07
1.51487084368e-06
-5.88796975556e-07
1.5787988095e-06
-5.69364977242e-07
1.64046030447e-06
-5.46532533813e-07
1.6995149167e-06
-5.19756111655e-07
1.75550902287e-06
-4.88784193854e-07
1.80781038337e-06
-4.54228458414e-07
1.85571134706e-06
-4.17177759966e-07
1.89854531345e-06
-3.78517709916e-07
1.93573550222e-06
-3.38630194181e-07
1.96678223916e-06
-2.97494460368e-07
1.9912898314e-06
-2.55003136921e-07
2.00908032131e-06
-2.11293536295e-07
2.02028550644e-06
-1.66836984933e-07
2.02534064757e-06
-1.22157401603e-07
2.02478545359e-06
-7.74094685849e-08
2.01886208258e-06
-3.17990474341e-08
2.00671240613e-06
1.71028600493e-08
1.98531496616e-06
7.44773696478e-08
1.94888239084e-06
1.48190104919e-07
1.88912003287e-06
2.46278578508e-07
1.80584566755e-06
3.59269392281e-07
1.70715724579e-06
4.71730477179e-07
1.57705480331e-06
6.0564505847e-07
1.43961104992e-06
7.00839323972e-07
1.33748447907e-06
7.33093062273e-07
1.26850368288e-06
7.706680183e-07
1.22707497674e-06
8.26540965092e-07
1.20308763311e-06
9.08900778477e-07
1.19165860674e-06
1.01760571756e-06
1.13155310979e-06
1.16624723368e-06
8.57993605808e-07
1.31795236955e-06
5.51113818484e-07
1.17718771066e-06
5.10108452557e-07
8.45603558577e-07
5.56925780566e-07
7.5544565239e-07
5.0563769872e-07
9.37495648262e-07
3.71585893744e-07
1.11183552122e-06
2.061546752e-07
1.19630941417e-06
5.22398214313e-08
1.15834245361e-06
-7.43239651948e-08
1.02312959042e-06
-1.48656166008e-07
8.2304197129e-07
-1.87354666285e-07
6.61514836021e-07
-1.65955626245e-07
4.81826237104e-07
-9.82074587121e-08
3.53902733005e-07
2.78999764396e-07
1.60653493065e-08
-2.23494940464e-07
2.31475543808e-08
-2.38528294746e-07
1.54919505266e-08
-1.96786604668e-07