/*--------------------------------*- C++ -*----------------------------------*\
| =========                 |                                                 |
| \\      /  F ield         | OpenFOAM: The Open Source CFD Toolbox           |
|  \\    /   O peration     | Version:  v1806                                 |
|   \\  /    A nd           | Web:      www.OpenFOAM.com                      |
|    \\/     M anipulation  |                                                 |
\*---------------------------------------------------------------------------*/
FoamFile
{
    version     2.0;
    format      ascii;
    class       volScalarField;
    location    "361";
    object      alpha;
}
// * * * * * * * * * * * * * * * * * * * * * * * * * * * * * * * * * * * * * //

dimensions      [0 0 -1 0 0 0 0];


internalField   nonuniform List<scalar> 
6400
(
0.850926710649
1.30663786408
2.02798855775
2.40462178076
2.77352798176
3.1693014046
3.7665831023
4.4555168005
4.68279980423
5.11902783597
6.26359494583
6.88473566872
7.36892224792
7.97161408123
8.80989910175
9.6778238933
10.3724328224
11.0315208772
11.5998571391
11.8644355102
11.8491313801
11.893893825
12.236785042
12.9101343491
13.681690792
14.3437234281
14.8196234877
15.2440550913
15.7410501331
16.323428468
16.9370958965
17.340777329
17.4640938074
17.4646499494
17.3620380145
17.0860677385
16.9964273734
17.2628000673
17.1024613755
16.6440591936
16.6251458585
17.2099945798
17.8301977458
18.1312488037
18.1922694194
18.0886422296
17.8941644146
17.668530657
17.4216445021
17.169540622
16.7777911976
15.9136603252
14.8927749249
13.7029192733
12.8962353391
12.6549827388
11.9479781595
10.2558872785
8.37452890908
7.33968834424
6.12407332755
4.84652193558
3.50997518911
5.05565069635
9.15683088696
14.1348249358
17.1571863124
16.893977552
14.9229596904
13.2872968345
12.3821461491
12.5161124921
12.985569582
12.824026748
14.7810040053
14.1951143957
16.0129575314
9.91837813664
12.8782477337
4.81759568711
3.10396953988
2.43144699799
2.99159549161
4.20320778027
3.94865989039
3.65185853619
3.73170765654
4.06103837906
4.55945981629
5.21120284812
6.02800123175
6.84191725449
7.54115380577
8.2082266404
8.87851863143
9.65934588713
10.4764584533
11.2834325488
12.2986567392
12.3599140521
12.0938305051
12.0633194244
12.3158426971
12.9449662224
13.9300582082
14.4906880678
14.9161538197
15.4018634747
15.9275174359
16.4737021766
17.0380024651
17.5985022886
17.7227213816
17.7328165274
17.6965361569
17.2467473544
17.2582142011
17.5413126183
17.2692342759
16.5562975412
16.4819883464
18.2406436386
19.4646658998
19.6200807491
19.5836381741
19.2961390156
18.8557901003
18.4537422874
17.8638400612
17.3065044332
17.0553572905
17.2088879592
16.6244872991
13.9275816765
13.3482440723
12.6508819318
10.8250680068
9.21091634188
7.77829588295
6.38481639316
5.19777330025
5.26488373509
3.85128973349
5.33440062009
9.23835420984
15.0991477147
18.8608178265
17.6731052463
15.532059079
13.6126164265
12.8671021394
13.2149972379
14.2300934518
13.6270664004
13.4327887791
12.8717351089
11.6391784576
9.77616379798
8.2006647752
4.28832871229
3.10831188679
2.66928465039
3.16505885501
3.31704391691
3.67410494919
4.01851032167
3.956039367
3.99164148215
4.47838826015
5.19344975534
6.00738305853
6.84070552854
7.59216474686
8.27052008472
8.7992478381
9.49722220116
12.4394678702
14.5185057118
14.7891076969
13.8895379186
11.9235596032
11.6039019727
12.4914841952
13.1813630483
13.779172734
14.4559884793
15.0420183571
15.5322167752
16.0356374623
16.5946851824
17.1029785968
17.8088430095
17.9637187559
17.5964420426
18.1420252846
17.7082786491
17.1189587991
17.7897652272
17.5092636771
16.8020269193
16.7262321902
17.3369429171
17.9781748521
18.2970064251
18.3822174728
18.3228594365
18.1567465686
17.9050865625
17.569598249
17.1764554606
16.7308714157
16.1298030377
15.2616959833
14.4991511776
13.8626163328
12.3693088966
10.7391668656
9.26737879625
7.90423155358
6.66603312685
5.68619933201
4.7752009136
4.19326170905
6.32916516929
11.3669967794
16.0090089006
18.3067443892
18.4502829723
16.8769272413
15.1990143182
14.4755633242
14.3399308013
13.6601724465
13.041217118
12.96653207
12.5716413312
11.5468548516
9.90326816654
7.47178062475
7.63519419026
2.96869515919
5.37614672998
3.34577231843
3.36427813931
4.00723947225
11.7501478368
10.0840737158
4.70782872406
4.48081286382
5.21088134573
6.03223946622
6.8764957729
7.60422212283
8.34696278926
10.2140190036
12.4481863383
14.0934635777
14.2959467594
12.7460096209
11.4004444632
11.5107428811
11.8725182127
12.3799817246
13.0976366018
13.8734382014
14.6059267247
15.2359615075
15.687737553
16.2442293979
16.6785282864
17.438276208
17.7671747203
18.4241283497
18.1479832898
17.4257930432
17.8801323174
17.4044774717
16.9170900902
16.9068741332
16.9273321066
17.0795876037
17.5105288516
17.9967712918
18.3098011272
18.433815519
18.4101180634
18.2710926247
18.0386827209
17.7229615203
17.3347169229
16.8663078107
16.2760018311
15.5408503228
14.7239791084
13.7296631573
12.3967495103
10.8883982968
9.45213038307
8.17536550919
7.10247174179
6.27840202412
5.69886929789
5.68046524324
7.21342392365
10.6719975284
16.3544320331
19.9290608068
20.1446645003
18.4969032566
16.1594823868
14.5490221835
13.7357867689
13.8599014663
15.1827079025
15.0688536219
13.7074704756
13.5179852088
16.7544384168
13.180597487
11.2179205614
5.40250891027
7.38769967165
3.91488247154
4.23316415861
6.28657679418
11.6327976564
7.85741805108
4.97276200072
4.98257741551
5.43503517724
6.18390854015
7.05200214869
8.48974818096
11.0056812304
11.9869412873
12.2155458573
11.9272515809
11.2913339239
11.0244003595
11.4608266779
11.6539901465
11.8732340062
12.4567377232
13.2063931228
14.0159477543
14.8001089664
15.369492895
16.0363567703
16.3625950039
17.1616395187
17.4433115203
18.7643298204
18.3012372188
17.5782888856
17.7239295482
17.0482834658
16.8689937987
16.9041995775
17.0117829962
17.1376103858
17.3355596392
17.6784657335
18.0693637685
18.3636634427
18.5103693471
18.5158380289
18.4024146739
18.1919636967
17.8986610128
17.528025172
17.0700595856
16.5027424144
15.8120902364
14.9833161074
13.9251951954
12.5895012372
11.1416462096
9.79875159019
8.67344845875
7.8108764138
7.23304590699
6.99425089454
7.35390117127
8.12677054827
10.703382305
15.8319557323
20.0020055571
21.4212102467
20.2580705885
17.5109783036
15.0514973368
14.6982100839
16.8572936132
17.6702610606
16.59049379
15.6333118133
18.2204859293
21.1937372315
16.5453529075
15.6661451045
9.73141977153
8.86058739597
4.85934949795
5.56836538877
11.8980445671
11.3289997734
5.89417160153
5.47834287171
5.55664721684
5.7718798935
6.47530913247
9.31605921476
12.7239890457
13.0568828835
12.5354431997
11.2521255281
10.4416819263
10.4584281618
11.329892377
11.4612357277
11.4749577727
11.9253935463
12.6076580067
13.4152941778
14.1314182494
14.9367389153
15.9156548254
16.1185696577
17.1634257843
17.1518025669
18.8437776715
18.4051473229
19.3649858431
18.0179153861
16.8232616389
16.6110811506
16.7759431584
16.9854263171
17.1725502414
17.3472000639
17.5662581047
17.8670722452
18.1989524705
18.4713138999
18.6271492702
18.6541164244
18.5638188884
18.3777559209
18.1131804041
17.7736784886
17.3476581888
16.8144143267
16.1467912453
15.2992857217
14.2126603336
12.9146508023
11.5772461349
10.3846062609
9.42905195858
8.7612546749
8.39948759308
8.51760333563
9.51361681381
8.83073543569
12.2508010967
17.5869624136
21.2415407729
22.6580271552
21.7414925809
18.4120257344
16.2541964699
17.9812185058
20.1134666005
19.5501571791
18.5091327254
18.5431638353
23.0186194017
24.5675650302
19.6073062121
19.406219162
11.808986576
8.52229606471
5.91331441562
5.57280631097
11.7826314898
7.89762292502
5.9125849055
6.00034293712
6.08309249351
6.75915604468
7.13157356203
12.6200013079
13.16019819
13.0916030636
11.4287926778
9.94551532281
9.8952060575
11.2497074574
11.3513566511
11.0777348441
11.4856126159
12.0400886601
12.7217610927
13.5266566675
14.5250882285
15.5191379622
15.9070362557
17.3508683957
17.1420437393
19.0200780156
18.3925477303
19.549736439
18.5371011164
17.7036334369
16.4959180183
16.4718492851
16.8107145896
17.118859411
17.346895094
17.5514935351
17.7885966734
18.0721527759
18.3707855724
18.6251544719
18.7841218607
18.82642979
18.7582730398
18.6016451004
18.3750511631
18.0795554202
17.6989027924
17.2048661142
16.557066722
15.7076919139
14.6379128545
13.4246259982
12.2348734262
11.2108279876
10.4011746242
9.81490150864
9.56612706989
9.74454698574
9.86773211242
10.2235889735
13.5175336786
20.0501624015
22.5769777734
22.9966267458
21.958406337
19.7289883011
19.4830854454
21.9696089731
22.3630068859
21.4766545317
20.8434204557
22.7346824671
25.405288233
26.8177760936
22.2694054291
21.1367735236
11.4273522311
7.94652653964
6.98176084224
11.8281023443
11.7871316578
6.55466554058
6.489893896
6.59056281153
6.74122651305
7.26713435435
12.4279736174
13.3124223079
13.259543902
12.6114511973
9.98447986507
9.36461422614
11.0174071111
11.4535944255
10.8738769802
10.9276377695
11.5377642281
12.2587526403
12.9503888024
13.829474288
14.6049680155
15.980821505
16.0317377775
17.3148486872
18.9007116097
19.0982006342
17.9477332443
18.8192968132
18.7370977112
16.76394279
16.4167434797
16.5909333892
16.9272800052
17.2604574652
17.5250362632
17.758227676
18.0124006552
18.2949264977
18.5781103246
18.8198132732
18.9790245369
19.033703525
18.9893103625
18.8688385542
18.6901984257
18.4503072927
18.126192657
17.6799087603
17.0636130029
16.2422504853
15.2368196346
14.1513131032
13.1230572981
12.2185683267
11.4168948145
10.775481722
10.5344713449
10.7312397732
11.1710116987
11.938654014
12.6391162249
20.0699049136
24.2661698799
24.3990785501
23.8583778074
22.9733324655
23.8267358127
25.143232551
24.4161802602
23.6713869604
23.8101827768
26.0305758169
26.6341257861
27.1623958054
24.2938695157
22.1681164218
10.5613989687
7.65802009565
7.62380777875
12.7492300686
10.5296538369
6.9718285168
7.11269906614
7.33103575535
8.78689815242
7.27214616907
13.2014964811
13.7680143792
13.2567922224
11.1414901203
9.3977028199
9.49354993557
11.1314404593
11.0694080917
10.7097877403
10.9572374532
11.5316605086
12.3724473629
13.1968495521
14.5817763677
15.7817222951
15.8668089998
18.0260951217
17.049344312
19.1936917848
18.1171493577
19.6322979592
17.8275422458
17.0643630856
16.6035014601
16.5566435289
16.7658159279
17.0755421377
17.4093014051
17.7066763241
17.9744199581
18.2482926679
18.5362557529
18.8156385953
19.0513334657
19.2100525932
19.2766171648
19.2602446992
19.183826414
19.0625503066
18.8890857005
18.6334556499
18.2488997016
17.6863063662
16.930479555
16.0345511228
15.1032514562
14.205903826
13.2915761985
12.2950011792
11.4897885918
11.3920969237
12.0606992459
12.9765644552
13.7535685661
14.2742961021
16.7946213253
24.4163218162
26.1575115698
26.2821285216
27.008545899
28.090649718
27.7223476906
26.6496648249
26.3508263241
27.2129327521
28.2800577889
28.0435378991
27.3790113341
26.3398810495
24.9631343969
9.82041926404
7.91955972568
8.80006928359
12.7598191397
8.15695791719
7.97706787062
7.73826226182
7.98720320329
11.4879724039
10.0608719984
14.0306782407
13.9836075121
13.2559976766
10.2276468151
9.33362044659
11.1179390531
11.3923832136
10.7523158233
10.6613853882
11.1339677454
11.6614781776
12.4443128753
13.1226191854
14.7628704092
17.0639045974
15.742890673
17.9429281227
19.0961330847
19.4455281118
19.8207103412
18.448118854
18.2932614126
16.6211540692
16.4646529077
16.7014430526
16.954732949
17.2435348386
17.5675576721
17.8892658925
18.1967930477
18.500126915
18.8004312817
19.0817063569
19.3164587673
19.4776341369
19.5571897412
19.5726189504
19.5483862868
19.4942692382
19.3976281535
19.2236119667
18.9196528789
18.4401478772
17.7917678926
17.0459267491
16.2700867737
15.3981156255
14.2167326204
12.8359884626
12.0579707143
12.5528778312
13.9265041032
15.2038668268
16.0920835188
16.6014955387
16.2222808872
16.9993544813
27.9681421473
30.8436129904
31.9784374727
31.8907110843
30.4571276298
29.4406492044
29.5490816939
30.4939712857
30.6626491435
30.3037627279
29.9400414582
30.2344831016
30.3946498624
9.56417185634
8.61891108284
12.4025212895
12.7636589219
8.0018143775
8.67935218609
8.34312190474
8.97480917624
10.7741316832
13.7394105533
14.7662496567
14.1646754413
13.3899746162
10.0479145404
9.43864325
11.6918465951
11.43036665
10.6713540965
10.6801511921
11.2840045871
12.0897608597
12.7931106866
13.3174086426
14.3435039802
17.220320398
18.3571078479
17.3309294222
19.2535006031
17.8036275887
19.8636191436
19.9349345038
18.1620035486
16.5214080598
16.5590096869
16.879439366
17.1537659946
17.433219865
17.7459423533
18.076284764
18.4212238022
18.7658605739
19.0881468523
19.3766135221
19.6141789256
19.7809779127
19.8776612338
19.929857253
19.9633590937
19.9834039076
19.9730541705
19.8944248481
19.6931205137
19.3326503702
18.8397477416
18.2774004226
17.6000360684
16.4767405227
14.711144736
13.2059381013
13.0105366465
14.5267221744
16.641421144
18.1833725257
19.1120259579
19.3756860256
18.8249422565
17.7708457287
19.2505313586
32.5296885023
37.7638403616
36.5330633246
34.1432395481
33.1594951494
33.3450223661
33.8034330672
33.8806603184
34.0299925068
34.4582241268
35.0095752494
35.6509733566
9.7051054593
9.38597111775
13.983354208
13.2886194521
11.1541769508
9.83125435564
9.14866312106
10.4785361231
10.0170123066
14.6762899986
15.3111208023
14.4048569101
13.3180763673
10.5045990512
10.202450183
12.186372916
11.3774651391
10.7026408985
10.7926787213
11.327033508
12.2689025959
13.2455610872
15.0626907756
14.4925363056
16.6466563317
18.7503111062
17.0791190717
19.5610859424
20.148270942
18.6801409759
18.6768717791
17.0415952196
16.8332077217
16.8853468561
17.1108356409
17.37912374
17.6541344967
17.9576452253
18.2769158548
18.6379931932
19.0341109526
19.4021488389
19.7048295515
19.944720159
20.1205206048
20.2403190054
20.334345905
20.4284063404
20.5251256868
20.6058253553
20.6321454799
20.55709809
20.3630081976
20.0799161311
19.6982428759
18.8909046407
17.0781134196
14.9312465728
13.9239742778
14.8244584162
17.6414928101
20.3509939384
22.0808079874
23.1984895288
23.41012648
22.5933207789
21.1086387138
19.2456329315
28.6770343386
38.9057673691
41.7800311644
39.1105651878
38.1240646992
38.0802577612
38.1642268721
38.1207879332
38.872282947
39.6000737995
39.5187784143
39.7100756571
10.1639467638
9.95919826051
13.6187922981
13.6427899184
13.6030417904
10.8189720093
10.0884811715
13.4959918807
10.1959581966
15.5191150621
15.722712346
14.6587716372
13.2608614837
10.9891897998
13.1893314241
13.2728003326
11.4688963866
10.8705381248
11.0362894482
11.4809209949
12.234355704
13.2064886875
16.518153318
17.47726964
15.9814001095
18.845332991
19.6472183944
19.031224743
20.1195246037
20.2000831008
19.1519219063
17.0177312824
17.0237184924
17.208921869
17.3935631919
17.6284574536
17.881635372
18.198429401
18.5345422957
18.8805250503
19.2934793692
19.7180968875
20.0632855844
20.3141742719
20.4993412438
20.6472089832
20.7880849103
20.9423726059
21.1104222729
21.2753214647
21.4066202819
21.4827058311
21.5125660362
21.4828937479
21.1775604004
19.7940443323
17.1567915478
15.3561018525
15.5332497395
18.1429287852
22.1607970364
25.451836035
27.2576374265
28.6654407371
28.2388379278
26.5623285424
24.415299141
21.6907450566
24.8716289258
36.1364468786
43.3865369152
44.8409679325
43.1263147734
42.9525312012
42.66187025
43.0252016462
44.2141703946
44.9011118082
44.8992416746
45.0884976649
10.6818165965
10.5615591196
10.2492680607
13.8859150334
14.0264865964
11.4294575491
10.9465613431
14.3709742872
10.6927726805
16.365864774
16.0791921921
14.9226423819
13.3270587329
11.201785818
14.3748456091
13.6918267241
11.769539204
11.2006059006
11.3598587901
11.8077596212
12.3258602245
13.1140614813
17.1007830368
18.5134372538
16.2734962215
18.940629069
20.1823897826
18.2229215829
19.7404655743
19.5833013296
17.4743698831
17.3724723995
17.4643409321
17.5728261151
17.7002204634
17.9350653407
18.1724382697
18.4295250959
18.7891006905
19.1777694662
19.590849643
20.037937751
20.4309987612
20.7155831688
20.921984386
21.1033990917
21.2928695729
21.4989592392
21.7239769552
21.9536035757
22.1659861239
22.4136158484
22.7308937067
22.9796068337
22.4452467868
19.8262362508
17.1885827438
17.6550384416
20.0257282103
24.0292294748
27.2595288558
27.5926436368
24.9123971927
21.4282809478
16.9972101706
14.9026729208
15.6813152715
16.6783529849
16.1896509025
16.8599217171
42.306677594
45.9901806973
46.4689302795
44.6512746166
43.7912155968
46.424069478
49.4129572872
50.4760332717
51.5270534148
52.0920194581
11.3726453895
11.4436211292
14.4792723006
14.4215064413
14.3484085567
11.931824599
11.9151832587
15.073537448
11.5950747825
17.07446395
16.4029077401
15.1978896485
13.4609893165
11.5143269689
14.5816926574
13.721559111
12.073580522
11.5768414085
11.6966842945
12.0911233213
12.5714968193
13.1819587816
16.3446439131
19.311177601
19.3969647081
18.1231199528
20.3839912092
21.0159486554
18.0423945805
17.4402718211
17.3577209104
17.5729031432
17.7659816413
17.9098764833
18.0707126555
18.2504149259
18.4796607409
18.7517477894
19.0545511407
19.4696467219
19.9285437051
20.3932112044
20.8126004265
21.1354564075
21.3850140327
21.6102173964
21.8465638911
22.1058850795
22.3650425627
22.5909244307
22.8325012616
23.2537128817
23.893481625
24.3241291502
22.8500401173
19.2290465483
18.3064723583
18.495443435
19.8116898281
17.3980510822
1.37167815376
0.00396860522904
1.12779097635e-05
1.95218483393e-10
1.5270047691e-10
3.70721643843e-10
2.49895698367e-09
1.1704974993e-08
4.32382360516e-08
2.74772233044e-07
2.15140524724e-07
1.86646102171e-05
0.0106232818777
1.06786651063
35.446905709
48.1814194958
51.0247808622
56.209003451
59.4029222977
59.4447765076
12.0027255524
12.1870841575
16.0311835014
14.9359362116
14.2453956197
12.4555900888
12.8728346274
15.6153756405
15.6012491102
17.9292782722
16.7643181728
15.5478329156
13.6515743076
11.9767172614
14.7971520958
13.7036531676
12.3840314689
11.9648867796
12.0236526839
12.3460927618
12.8101971177
13.4646280962
15.6818791988
19.5585180022
20.8000224233
17.5697046745
19.9335571404
20.9690818581
20.3486612826
18.0282313278
17.4780521482
17.7839578493
18.0989189562
18.3224074504
18.393004027
18.5859472939
18.7891475859
19.072919834
19.3842131186
19.7829580711
20.2795416626
20.7866032409
21.217078594
21.5541335501
21.8614537734
22.2003036997
22.5346736502
22.8167805479
22.9812575115
23.1241564794
23.3810585735
23.8709988001
24.8063715083
25.0720453932
21.2517371286
16.0405194355
2.17026398679
0.00878852181049
0.000254149824062
3.69995556126e-06
3.00613570603e-09
5.01602550814e-12
3.53581940088e-13
0
0
0
0
0
0
0
0
4.91772180532e-17
1.6586457564e-14
2.48098051355e-12
1.43938544276e-09
2.01046821405e-06
0.108871992158
52.637163884
53.2627603461
63.5387506266
12.5056929125
12.7140264779
18.2573436901
15.2953662107
13.8390926059
12.9264291598
13.5387041003
15.4792276876
17.1705926527
18.9190264679
17.270605516
16.01638476
14.075535237
12.7528265166
15.2222360652
13.8507294547
12.786902965
12.4108051683
12.390127861
12.6350503334
13.0347888346
13.6487604295
15.3940166846
19.418009703
21.7788100141
20.823718989
19.2994639941
20.296064417
19.8910126488
17.682763792
17.9381956427
18.2927376355
18.6756861394
18.7896684649
18.8719555459
18.9390445886
19.1659116519
19.4066688872
19.7374213896
20.1403211281
20.6324561007
21.1833169623
21.7028416577
22.0623943303
22.415942448
22.8725283679
23.3269630112
23.6060768121
23.6674577904
23.7221257145
23.8923705581
24.1811382488
24.5652547516
23.8686682604
15.2584499551
0.00314204475087
1.03045387102e-06
4.16672987242e-08
5.68121074866e-10
1.5579423862e-12
0
0
0
0
0
0
0
0
0
0
0
0
0
6.33648398444e-16
6.29667487488e-15
1.38036756189e-13
6.69321142999e-12
3.71689389156e-08
30.3442143504
0.000596381277414
12.8890709399
13.0841648026
20.3783472939
15.5434886
13.7407777998
13.3733650214
14.3253367467
14.5339274592
18.1187802873
19.6165721311
17.7683189291
16.5012658832
14.7139385865
14.7823646578
15.8165657021
14.2492281961
13.3960560975
13.0695516986
12.8651563467
13.0132537861
13.3134697119
13.8581875002
15.3243617883
19.281664225
22.1684752304
22.4950631364
18.6121170458
18.8290582251
18.0746604183
17.7854280201
18.1863031681
18.8073849456
19.1656951371
19.2769624153
19.3594722479
19.565561587
19.5913925358
19.8081058244
20.1136055422
20.4926845655
21.0616120205
21.6661946052
22.2092575841
22.5183212688
22.9101336258
24.3992584218
26.5124243161
27.133423298
25.6721288447
25.3477453721
25.3307016834
25.1303975032
24.4249350146
18.8599358544
0.0250592763257
1.12419853623e-13
1.13601654769e-10
1.85366593934e-12
0
0
0
0
0
0
0
0
0
0
0
0
0
0
0
0
0
0
9.78966909776e-15
6.6294022174e-14
1.22251673263e-11
85.7912288511
13.2442914226
13.4078630407
20.1091470308
14.6904838487
13.7842111455
13.7515414858
15.221236468
14.3216548165
18.9024658782
20.280962003
18.2545449814
16.9604214744
15.1907291415
17.1707424054
16.6767804628
14.8566905998
14.1067653139
14.1619487341
13.5672733152
13.5637762581
13.6944630154
14.0926045419
15.4091762918
19.1284142798
22.0175087335
23.613576906
21.8607760976
20.5431512471
19.5058668978
18.093251973
18.503446276
19.5533058168
19.52502813
19.7372410728
20.2299792028
20.0934004761
20.1216069302
20.3234237955
20.6258411656
20.9851284086
21.4322634534
22.0828976146
22.7964370514
23.7675571651
25.1451809158
27.1765544674
28.7349113778
28.596931402
28.5728955166
29.4733495999
30.6934239311
31.8519027792
27.3944540384
0.0690202448418
9.07148587102e-06
1.23208165617e-07
0
0
0
0
0
0
0
0
0
0
0
0
0
0
0
0
0
0
0
0
0
0
3.01226539965e-14
0.00219248828159
13.6919054898
13.8389519421
19.622605267
14.1240323597
13.9839681999
14.0485133467
15.97106593
14.6659830503
19.5461833724
20.9317172574
18.74684384
17.4388230801
15.5987520161
17.8251708396
17.4656533695
15.5402040909
14.8005353265
14.997649227
14.4223257792
14.3431071067
14.2945717388
14.3480352219
15.662032371
19.0971186696
21.7204927115
23.9618376427
23.0981828142
20.8698702768
18.3554652394
18.6279329426
19.1086815266
20.1097560271
20.5953238894
20.8923723387
21.0485003743
20.7034311329
20.7179818249
20.939716022
21.2334645328
21.6072424731
22.0324670857
22.7529660231
23.9210791563
25.8405960643
27.1103278961
27.3529293377
28.1575094243
28.9053417522
31.8752963337
35.4327155037
40.4823899679
39.4299972477
0.0914844811892
1.57760297419e-05
3.23574494252e-08
7.83436093589e-10
2.62972903732e-12
0
0
0
0
0
0
0
0
0
0
0
0
0
0
0
0
0
0
0
0
0
5.06221331527e-15
6.69777058814e-15
14.3991270131
14.5492142524
19.1080430232
14.2586566054
14.4918264939
14.4547831876
15.7760038234
15.3542165207
19.9595560982
21.5414606157
19.2797080457
17.9764637337
16.1489827189
18.4356203898
18.191571735
16.3467518175
15.5748879041
15.8220590935
15.2447827113
15.2742050925
15.2059326654
14.7774069837
16.1218680016
19.2379362589
21.5768541256
24.0591203494
23.5860076456
21.3612807106
18.6875005739
18.7988428353
19.8484718227
20.0437922214
20.3377578588
20.9187758519
21.9965345108
21.7098069662
21.6270374519
21.6311427753
21.8668909721
22.3299255445
22.8728768874
23.6951095385
25.994377739
28.1704674992
28.1894562136
28.2600760822
29.6400973877
33.9940922451
39.9479577269
45.0176841069
42.4348059856
0.00326995897108
1.35318548904e-07
4.4366511202e-11
2.7837606466e-13
5.64245723395e-13
8.66470881819e-14
0
0
0
0
0
0
0
0
0
0
0
0
0
0
0
0
0
0
0
0
0
3.74163042797e-16
1.69896443383e-15
15.499964617
15.5944275821
19.2041250535
15.1235033225
15.6545429822
15.2455794491
15.8892333483
16.744204266
19.8152854622
21.953500482
19.8854487393
18.5962989402
16.8204823392
19.1331148892
18.9496880578
17.3377156905
16.5638835907
16.8204736641
16.0705206872
16.3150683773
16.4750269889
15.4746914678
16.6203766537
19.5446506726
21.6134498114
23.8669702418
23.7882683247
21.8358512957
21.0698783744
19.6950775047
20.3002385131
21.1237431536
22.1727244672
21.4362887936
21.9541819177
22.788364114
22.5926561847
22.7445306914
22.8134470853
23.11162416
23.7857205181
25.9180523112
29.2667679639
30.0961279691
29.5590302057
30.8790526805
36.4446225104
44.201214138
50.1395562434
37.0839938001
4.95416435309e-05
4.62538793613e-10
3.16484290266e-12
0
0
0
0
0
0
0
0
0
0
0
0
0
0
0
0
0
0
0
0
0
0
0
0
0
0
0
17.0802137329
16.8863733436
19.8293857428
17.0690448614
17.6917447246
16.4624531282
16.7240583262
18.8064610579
19.8622234538
22.4814283315
20.6259084142
19.3116912082
17.5929227399
19.8666176242
19.7021815961
18.4442077649
18.1051433162
18.1614909611
16.9840851901
17.4751271513
18.0834261421
16.5426311485
16.9583910915
19.9202129483
21.8317965852
23.66319189
23.9532676353
21.8583588527
22.2568790253
21.3614723007
21.4728153619
20.5121975664
21.4590181235
22.8777482213
22.8786836304
23.3184601362
23.5657389475
23.6944436235
23.9936325174
24.2786738244
25.7354207289
29.7371920873
32.2758862554
32.3373693222
32.9234194998
37.4311439621
45.9426715289
51.4685959276
10.0436590656
4.42118209779e-07
7.72915946984e-10
3.53908357192e-12
0
0
0
0
0
0
0
0
0
0
0
0
0
0
0
0
0
0
0
0
0
0
0
0
0
0
0
0
18.779360334
18.0944380271
20.5454990445
19.7383516807
19.4016736385
17.9131623981
17.6639955184
19.9142884055
18.7247669476
22.8634188715
21.4857087411
20.1155047218
18.4589687798
20.6170924896
20.3997409697
19.3549495751
20.3763119777
19.799473033
18.0311374272
18.8016356067
19.4550478226
17.9539604605
16.9359816509
19.8467609233
21.9700786962
23.4911331034
23.9839682831
21.8821449035
22.5505928617
22.6656424817
22.7348506327
21.2283207644
21.7969795752
22.5275980109
23.8073442611
24.5391112485
24.7952949964
24.8455882636
25.0679807796
26.0488839059
29.7455890664
33.8409667137
35.4973532238
36.1579085131
38.8297205545
45.1254853532
46.9989238413
0.465653866338
1.19044157801e-06
1.72341534464e-09
6.03573301273e-12
0
0
0
0
0
0
0
0
0
0
0
0
0
0
0
0
0
0
0
0
0
0
0
0
0
0
0
0
0
19.5680332375
18.9459938053
20.9830260521
20.7373107851
20.4206831372
19.3127242101
18.8223805681
21.2901907842
19.7096506666
23.3798958172
22.3534166748
20.9709410538
19.4122586131
21.4045384876
21.1222535791
20.1232228989
21.3036708802
20.8533111993
19.0709547265
20.1414709118
20.1276874572
18.6669942257
18.0376051786
18.2161317991
21.4500286298
22.9619977177
23.7418153993
21.8332517819
22.5706547209
23.1451017499
23.7269012233
23.2508054712
21.8357469977
22.4624459739
23.9664234783
25.3731626848
26.1416880285
26.5003049546
26.7259304892
29.7268934028
34.5231121192
37.8131568461
39.0564315747
40.4887638351
44.0529438836
42.1506237292
1.65292535986
6.28892973486e-06
5.66506974802e-09
1.61344119284e-11
0
0
0
0
0
0
0
0
0
0
0
0
0
0
0
0
0
0
0
0
0
0
0
0
0
0
0
0
0
0
19.5892184724
19.5106744595
21.2675435244
20.9030792915
21.084181219
20.4161053241
19.8469857241
22.6413242143
21.4334277278
24.068191848
23.2817573825
21.8632195263
20.4461380877
22.2433929083
21.9228668561
21.0443791536
22.0620642483
21.7780471271
20.1940327512
21.1357360138
19.5751951268
19.3607328463
19.0568422768
19.372870857
20.2588553208
21.1406974524
22.8715630736
21.6826300258
21.9860304223
23.1222991604
24.1360257711
24.6107644727
23.4337845485
23.2003150661
23.9728258525
25.3136593505
26.8978984135
28.2208152501
29.6678908127
34.3401510493
38.8588926645
41.3111806534
41.9042570691
42.4969609872
38.4232433625
24.2005491582
4.26543000882e-05
1.96779353879e-08
4.40804160563e-11
0
0
0
0
0
0
0
0
0
0
0
0
0
0
0
0
0
0
0
0
0
0
0
0
0
0
0
0
0
0
0
19.8260102865
19.9286647036
21.5468605734
19.8041628401
21.3603397572
21.0217276486
20.5467548043
23.2095460438
22.250388774
24.8016006444
24.267559943
22.7690796995
21.5718967177
23.1214489172
22.7734658835
22.1081723277
22.8863016384
22.8152062149
21.4376592846
22.5159142308
20.9116800308
21.0878804115
20.2970875186
20.6300162534
22.210010649
22.8005117718
22.4959430544
21.4788173276
21.410709181
23.0646906168
24.1350431599
24.8159003563
24.9650978357
24.27594561
25.5534643417
26.0471690149
27.5284642523
29.8791862452
33.4377539924
38.8116992055
42.5813369035
43.8794213697
42.1060120755
36.9517423686
29.9306500576
0.0016141274652
1.6512271391e-07
3.7590993813e-10
0
0
0
0
0
0
0
0
0
0
0
0
0
0
0
0
0
0
0
0
0
0
0
0
0
0
0
0
0
0
0
0
20.5533039241
20.6267189841
21.8281107796
20.2218671825
21.5982824831
21.3476392801
21.0532883463
23.3666098171
22.8430006224
25.3459077515
25.2564802329
23.6352223453
22.7827355915
23.9982688768
23.5996708292
23.1482643522
23.6752788779
23.9462733921
22.7310670537
23.8892296786
22.6991925511
23.246852914
22.9122072843
21.4756986062
22.8158188868
23.8548576473
23.9156778406
21.3561597731
20.7460730838
22.9732321774
24.2862919835
24.2847437775
24.5681243918
24.5721784563
25.7096853911
26.5626813253
28.31184667
31.6345428121
37.3176811268
43.1148843723
45.8224481956
44.7848516335
37.335311874
33.8731387225
3.8799973169
1.87745723444e-06
2.61948822955e-09
1.06220830091e-11
0
0
0
0
0
0
0
0
0
0
0
0
0
0
0
0
0
0
0
0
0
0
0
0
0
0
0
0
0
0
0
0
21.4745997118
22.6591802984
22.2537351062
21.2456416781
22.1384068986
21.7367655569
21.5481121158
23.5051320269
23.3984451618
25.5308902657
26.2373607978
24.4287920075
23.864790432
24.7039322376
24.4005194634
23.9258735234
23.8534790108
24.98760696
24.1201339819
25.0842476197
24.7378043333
24.5277196617
24.2827390662
23.8250878819
22.9409124829
23.7815773723
24.887069159
20.6804301502
20.2557358983
22.1989089995
24.3238351424
24.957139135
25.5390407626
24.5945831857
25.5166085766
26.804903035
28.7417285682
33.2668202745
41.0560453853
47.1038235352
48.4718993176
41.8523311356
37.7750405207
31.2346615
0.000141613628925
1.77551288384e-08
4.5315359376e-11
0
0
0
0
0
0
0
0
0
0
0
0
0
0
0
0
0
0
0
0
0
0
0
0
0
0
0
0
0
0
0
0
0
22.1763392162
23.3928605094
22.9711603879
22.1728215694
22.8600128618
22.3255455525
22.1187112285
23.7376456359
23.9505414513
25.4444307269
27.12573806
25.2205903221
24.5110010882
25.29404405
25.303716043
24.6414381994
24.0034914536
25.7259870559
25.5895465664
26.1259310295
26.0609006241
26.1338222403
24.6256356925
24.5765332915
24.0406263496
25.5077743114
26.2543381192
22.9378794041
19.8658965761
21.1539928927
23.6854501801
25.2391618142
25.680740343
25.2348003978
25.1498704924
26.7508301683
28.697417846
34.5439226965
44.514608906
51.0397551955
48.364959479
37.9181305987
36.1980306378
4.44415773844
6.08751141146e-07
5.23517284592e-10
1.7593153863e-12
0
0
0
0
0
0
0
0
0
0
0
0
0
0
0
0
0
0