/*--------------------------------*- C++ -*----------------------------------*\
| =========                 |                                                 |
| \\      /  F ield         | OpenFOAM: The Open Source CFD Toolbox           |
|  \\    /   O peration     | Version:  v1806                                 |
|   \\  /    A nd           | Web:      www.OpenFOAM.com                      |
|    \\/     M anipulation  |                                                 |
\*---------------------------------------------------------------------------*/
FoamFile
{
    version     2.0;
    format      ascii;
    class       volVectorField;
    location    "361";
    object      Ua;
}
// * * * * * * * * * * * * * * * * * * * * * * * * * * * * * * * * * * * * * //

dimensions      [0 1 -1 0 0 0 0];


internalField   nonuniform List<vector> 
6400
(
(5.02949397428e-05 6.90732611734e-05 0)
(0.0001393590351 5.42953268425e-05 0)
(0.000204872356337 4.55161749783e-05 0)
(0.000279773191609 4.19191816481e-05 0)
(0.000334290699166 2.75012313013e-05 0)
(0.000373220584353 1.54202220764e-05 0)
(0.000391023268426 1.07779111945e-05 0)
(0.000403898671894 1.75079012721e-05 0)
(0.000455140113874 2.65657819577e-05 0)
(0.000509804402804 2.61411054722e-05 0)
(0.000528228347711 2.35053434842e-05 0)
(0.000579382429276 2.6536038774e-05 0)
(0.00062581490534 2.53776133858e-05 0)
(0.000664573001188 2.17709411007e-05 0)
(0.000692950601216 1.99599160283e-05 0)
(0.000723826520843 2.25534833318e-05 0)
(0.000764439536647 2.37247710041e-05 0)
(0.000799651364194 2.16480035994e-05 0)
(0.000825094077866 1.78920357719e-05 0)
(0.000847783134241 1.58421774802e-05 0)
(0.000878122910185 2.06606098762e-05 0)
(0.000918608647241 2.66324124997e-05 0)
(0.000964491934082 2.88633958247e-05 0)
(0.00100778651128 2.93369180312e-05 0)
(0.00105004217392 2.82002772784e-05 0)
(0.00109106023198 2.63671186145e-05 0)
(0.00113318449867 2.62523068543e-05 0)
(0.001173785007 2.5652471499e-05 0)
(0.00121008096467 2.40820348753e-05 0)
(0.00124271392566 2.28067989664e-05 0)
(0.00127158459252 2.31499397208e-05 0)
(0.00130314300912 2.30262874069e-05 0)
(0.00133607928182 2.18076625953e-05 0)
(0.00136608520621 2.27215291082e-05 0)
(0.00139562638412 2.31429963079e-05 0)
(0.00143313415519 2.38592851432e-05 0)
(0.00147057948294 2.58122261568e-05 0)
(0.00149176697992 2.52470819274e-05 0)
(0.00152727951049 2.41325491053e-05 0)
(0.00157320650837 2.57991402208e-05 0)
(0.00161594991209 3.33946437378e-05 0)
(0.0016511897025 3.51436834817e-05 0)
(0.00168343289094 2.55353367268e-05 0)
(0.00171048508987 1.91455246649e-05 0)
(0.00173019698808 1.67402374915e-05 0)
(0.0017460167197 1.4117800449e-05 0)
(0.00175720718693 1.17032856984e-05 0)
(0.00176206591878 8.3974980602e-06 0)
(0.0017613043118 5.70627513856e-06 0)
(0.00175629161843 8.17502304263e-06 0)
(0.00175376533626 1.62092115697e-05 0)
(0.00177326257899 1.61561120271e-05 0)
(0.00176580391674 -5.11598827031e-06 0)
(0.00174763718476 -1.43717923012e-05 0)
(0.0017065549354 -2.15276624217e-05 0)
(0.00160914775968 -3.86859813857e-05 0)
(0.00151036949552 -3.35841172856e-05 0)
(0.00145824396707 -2.01139481803e-05 0)
(0.0014357185814 -2.64010088664e-05 0)
(0.00132746204033 -3.15321880229e-05 0)
(0.00126816726183 -1.55865956961e-05 0)
(0.00119600250397 -3.09688707778e-05 0)
(0.00124619420104 -8.70508230308e-05 0)
(0.000959938462652 -8.29655806839e-05 0)
(0.000774313892015 -5.46056286468e-05 0)
(0.000682982400189 -3.72190435104e-05 0)
(0.000624327399063 -3.47953018929e-05 0)
(0.000576174601458 -3.41301118879e-05 0)
(0.00052513870759 -3.46701857625e-05 0)
(0.00046000251982 -3.57500920497e-05 0)
(0.000392924206629 -3.52415504776e-05 0)
(0.00032245286016 -3.25027422786e-05 0)
(0.000259103837764 -2.98707674075e-05 0)
(0.000214297778763 -2.89223634225e-05 0)
(0.000151536208765 -2.15827839725e-05 0)
(0.000123972634843 -1.76752306055e-05 0)
(7.77696596846e-05 -1.04218418274e-05 0)
(7.60480075251e-05 -1.26431232288e-05 0)
(3.18015848316e-05 -8.11914206546e-06 0)
(2.341018302e-05 -1.44178359528e-05 0)
(1.88367929185e-05 9.48189417246e-05 0)
(8.12628766211e-05 0.000107461353211 0)
(0.000142172598309 9.92272819054e-05 0)
(0.00018089000052 7.94607173975e-05 0)
(0.000266170802599 7.89608841561e-05 0)
(0.000349221016028 5.6470485507e-05 0)
(0.000399166747326 3.49127784106e-05 0)
(0.000433371138922 4.75800099883e-05 0)
(0.000470034912227 6.43090662231e-05 0)
(0.000511679725619 6.36053509556e-05 0)
(0.000552073937305 6.05749630819e-05 0)
(0.000589709870832 6.11629223936e-05 0)
(0.000625432687755 5.6082691987e-05 0)
(0.000658795544168 4.85712762362e-05 0)
(0.000693390728947 4.56755231065e-05 0)
(0.000728411857868 5.59795462022e-05 0)
(0.000764692251341 6.01803370752e-05 0)
(0.000794256423729 4.30329206331e-05 0)
(0.000791681655413 3.05275124728e-05 0)
(0.000819875131214 3.15528298143e-05 0)
(0.000859821506038 4.64493667273e-05 0)
(0.000907882768079 6.6225588196e-05 0)
(0.000964463529139 7.21014117983e-05 0)
(0.00101351368024 6.61187904232e-05 0)
(0.00104254661798 6.1381523793e-05 0)
(0.00109050069142 6.03579303854e-05 0)
(0.00113570203989 5.79186093557e-05 0)
(0.00117319728096 5.36132201355e-05 0)
(0.00120772038575 4.92371103581e-05 0)
(0.0012409081274 4.59502019924e-05 0)
(0.00127253436909 4.54834416975e-05 0)
(0.00129495406557 4.41232514077e-05 0)
(0.0013269856386 3.94809763091e-05 0)
(0.00135472748477 4.28340171258e-05 0)
(0.0013794104807 4.76234072743e-05 0)
(0.00142872644046 4.51705064636e-05 0)
(0.00145826490343 4.8545382241e-05 0)
(0.00148090915949 5.26673588482e-05 0)
(0.00152487925746 5.1388316552e-05 0)
(0.00158552074601 4.93568197452e-05 0)
(0.0016319188657 4.31657597515e-05 0)
(0.00157721514606 3.39742598438e-05 0)
(0.00156844710859 2.96256045948e-05 0)
(0.00160064315654 2.8202505648e-05 0)
(0.00162417464891 2.63176270792e-05 0)
(0.00165387274488 2.28895294044e-05 0)
(0.00168537949765 1.70988156556e-05 0)
(0.00170524197831 9.42002169413e-06 0)
(0.00173008126712 1.28958108978e-06 0)
(0.00174414859821 -5.05284368092e-06 0)
(0.00173083301354 -7.04878292574e-06 0)
(0.00167467283102 -9.6140582214e-06 0)
(0.00162445208743 -1.55475412627e-05 0)
(0.00174588028292 -3.66140588869e-05 0)
(0.00168464328242 -7.60401846915e-05 0)
(0.0016315807084 -0.000100671820669 0)
(0.00165036238263 -9.43779501719e-05 0)
(0.00161749643385 -8.02838949623e-05 0)
(0.00156658503332 -9.32031311481e-05 0)
(0.00151903747019 -0.000113349100701 0)
(0.00148926735787 -0.000131767593158 0)
(0.00117098874219 -0.000139222609017 0)
(0.00124302130423 -0.000239140995942 0)
(0.000964747878924 -0.000241957287218 0)
(0.000786571573892 -0.000181386124612 0)
(0.000651566910298 -0.000124846511323 0)
(0.000575494325072 -9.38614171111e-05 0)
(0.000550548264239 -8.81234388736e-05 0)
(0.000502713160038 -9.45809974327e-05 0)
(0.000447704944975 -0.000104293560197 0)
(0.000377254368498 -0.000106245892103 0)
(0.000305406162999 -9.78366535366e-05 0)
(0.00023701926397 -8.09625690239e-05 0)
(0.000199271044325 -7.26108200582e-05 0)
(0.00015917247814 -6.21573553071e-05 0)
(0.000126217617496 -5.20443945224e-05 0)
(9.65793316516e-05 -4.10023369385e-05 0)
(7.21203856926e-05 -3.71817868902e-05 0)
(4.32489491595e-05 -3.59558204787e-05 0)
(1.92492664518e-05 -5.5044550689e-05 0)
(2.80802721045e-05 0.000164498474948 0)
(7.88731251705e-05 0.00018018392947 0)
(0.000120962534618 0.000170639665738 8.09975049768e-29)
(0.000211031616307 0.000176766290101 -7.7356414007e-29)
(0.000297506294799 0.000178032422264 -7.0236912653e-29)
(0.000348152050626 0.00014438017427 6.4654940064e-29)
(0.00038320974319 7.84354327993e-05 -6.56609530731e-29)
(0.00041865862398 8.62479340479e-05 6.50286447313e-29)
(0.000457703110873 0.00010624866076 0)
(0.000502140020771 0.000109976824636 0)
(0.00054635281402 0.00010506752962 0)
(0.000585423606686 9.87233221598e-05 0)
(0.000620950696102 9.0597685274e-05 0)
(0.000653253961608 8.55911774941e-05 0)
(0.000686593694552 8.33008775033e-05 0)
(0.000721083756946 7.54557728878e-05 0)
(0.000651034368898 5.54155477675e-05 0)
(0.000633840982283 4.4115649577e-05 0)
(0.00066203898832 5.24193407483e-05 0)
(0.000719800392989 8.17374710971e-05 0)
(0.000846687823198 0.000117410816603 0)
(0.000922682770762 0.000129548646334 0)
(0.000950758470153 0.000122541199131 0)
(0.000999562915944 0.000113913242801 0)
(0.00105082125481 0.000109013946997 0)
(0.00109152226154 0.000105685430235 0)
(0.0011293557549 9.91850619017e-05 0)
(0.00116687074331 9.20409894589e-05 0)
(0.0012017956096 8.57812768536e-05 0)
(0.00123256276369 8.12680334443e-05 1.35036145299e-28)
(0.00126737854561 7.73629199265e-05 -1.3110831325e-28)
(0.00128277482972 7.39174541756e-05 0)
(0.00130945376263 7.03800764196e-05 0)
(0.00135704522483 6.87998887334e-05 0)
(0.00134523068803 7.93208444266e-05 0)
(0.00139351068838 8.79940269464e-05 0)
(0.00146196147813 8.61007013847e-05 0)
(0.00145625244351 9.12535530874e-05 0)
(0.00150927658238 0.000103366424267 0)
(0.00158060282601 9.87566324984e-05 0)
(0.00163021637454 6.98478779044e-05 0)
(0.0016590942513 4.80765353385e-05 0)
(0.00168526126563 5.09825996601e-05 0)
(0.00171030535281 5.57275201266e-05 0)
(0.00173044119521 5.4518176805e-05 0)
(0.00174645084724 5.0014470482e-05 0)
(0.00175896588171 4.10679389512e-05 0)
(0.00176809589744 2.99204044028e-05 0)
(0.00177409194149 1.65126298404e-05 0)
(0.00177678286535 -1.49322371935e-06 0)
(0.00177647568104 -2.03953095517e-05 0)
(0.00177230956071 -2.87414101884e-05 0)
(0.00176048044803 -2.08544954179e-05 0)
(0.00172006988672 -4.66739321205e-05 0)
(0.00165986543555 -9.23946866139e-05 0)
(0.00166213102601 -0.000110025043648 0)
(0.00164598729419 -0.000113704881008 0)
(0.00160043961146 -0.000123665523968 0)
(0.00154267803189 -0.000143461208539 0)
(0.00147824316601 -0.000178267351822 0)
(0.00139167357027 -0.000245702327508 0)
(0.0012907704397 -0.000316704230277 0)
(0.00121779349951 -0.000449705269491 0)
(0.000905953532093 -0.000421698697838 0)
(0.000685436522044 -0.000282815908336 0)
(0.000614187735784 -0.000202202834185 0)
(0.000571388571185 -0.000161781327796 0)
(0.000515376756142 -0.000146834025118 0)
(0.000460431293628 -0.000155602909543 0)
(0.000399561639649 -0.000168369912252 0)
(0.000331132772556 -0.000167134458451 0)
(0.000269417679064 -0.000150366714646 0)
(0.000226321345734 -0.000131669786192 0)
(0.000188541877256 -0.000117423630952 0)
(0.00014909661364 -0.000102830502073 0)
(0.000112682270462 -8.65108134409e-05 0)
(8.15514996152e-05 -7.09285905528e-05 0)
(5.86595015675e-05 -6.65433141048e-05 0)
(3.89264382263e-05 -7.68192679265e-05 0)
(9.48587543681e-06 -7.27802991804e-05 0)
(2.72538266978e-05 0.000247436253354 0)
(3.57110411117e-05 0.000163783146009 0)
(9.88108168094e-05 0.000259653858945 0)
(0.000185051528532 0.00026446115792 0)
(0.000254679769045 0.000224465823234 0)
(0.000140875382511 8.45871402348e-05 0)
(0.000175653627802 8.6684375199e-05 0)
(0.000337786330121 0.000164609217677 0)
(0.00042617333968 0.000177604465819 0)
(0.000481812276303 0.000163415670142 0)
(0.000534468078573 0.000152202934184 0)
(0.000578403625286 0.000138996305556 0)
(0.000615231470665 0.000125891317832 0)
(0.000640413798709 0.000104431290675 0)
(0.000602155654578 7.17497244307e-05 0)
(0.000570519828135 4.94795955106e-05 0)
(0.000575979783432 4.79503048831e-05 0)
(0.000622637854694 7.63932152502e-05 0)
(0.00072464892654 0.000126330912936 0)
(0.000832012308565 0.000178511433823 0)
(0.000870823154265 0.000190232416357 0)
(0.000911822345049 0.000179340692695 0)
(0.000960036220437 0.00016920244117 0)
(0.00100402680647 0.000161534946399 0)
(0.00104450317963 0.000152741462469 0)
(0.00108262474668 0.000143724979599 0)
(0.0011185231104 0.00013547852649 0)
(0.00115913373432 0.000127373224107 0)
(0.00118922654593 0.000118950595885 0)
(0.0012285523401 0.00011245146228 0)
(0.00124546472713 0.000105490745436 0)
(0.00128540526159 9.8996040383e-05 0)
(0.001282705502 8.94991545398e-05 0)
(0.00131429698868 9.45693334506e-05 0)
(0.00137991237141 0.000111422510154 0)
(0.00137730273117 0.000126013112093 0)
(0.00144232594989 0.000134187036401 0)
(0.00151477062719 0.000142010934172 0)
(0.00155520952106 0.000150911927362 0)
(0.00158943428021 0.000139826331109 0)
(0.00162409639966 0.000111012560037 0)
(0.00165580311269 8.66577958519e-05 0)
(0.00168456884861 7.80955616981e-05 0)
(0.00170994287125 7.527513426e-05 0)
(0.00173055201431 7.02411005009e-05 0)
(0.0017470245758 6.19328447977e-05 -1.26933139477e-28)
(0.00175996084754 5.02800101753e-05 1.2788279461e-28)
(0.00176946718147 3.59860972967e-05 0)
(0.0017755463259 1.9124386139e-05 0)
(0.00177796969489 -3.5373799373e-07 0)
(0.00177612103926 -1.98783378034e-05 0)
(0.00176771830293 -3.64681398448e-05 0)
(0.00174929878947 -5.5122141293e-05 0)
(0.00171937322606 -8.68886927413e-05 0)
(0.00168736566081 -0.000116260057358 0)
(0.00165902076584 -0.000134664713776 0)
(0.00162251758181 -0.000156019766099 0)
(0.00156866492099 -0.000182931389372 -2.50307671435e-28)
(0.00149700582872 -0.000219157513396 2.88046569769e-28)
(0.00140613320928 -0.000273074968402 0)
(0.00129276309975 -0.000349949074354 0)
(0.00116555904983 -0.000451359920441 0)
(0.0010545301979 -0.000591774710995 0)
(0.000894033805409 -0.000601315711781 0)
(0.00073284286885 -0.000437470107057 0)
(0.000586590142451 -0.000274480365956 0)
(0.000517918525632 -0.000215758106789 0)
(0.00046644634486 -0.000205143549657 0)
(0.000414287983391 -0.000215299470604 0)
(0.000364610561711 -0.000233519125302 0)
(0.000305987341873 -0.000233363258397 0)
(0.000248549798102 -0.000211094161626 0)
(0.000197899448258 -0.000182159282979 0)
(0.000148270331998 -0.000152580880941 0)
(0.000112374040525 -0.000134609051642 0)
(8.08474346738e-05 -0.000121040531724 0)
(5.16016292723e-05 -9.95625100295e-05 0)
(2.78767726263e-05 -7.17837220019e-05 0)
(1.97515624264e-05 -8.24387106785e-05 0)
(6.26910885337e-06 -9.09499171699e-05 0)
(1.04057221356e-06 0.000243786307862 0)
(1.71691952007e-05 0.000199937060952 0)
(8.98143475785e-05 0.000342937099191 0)
(0.000156570738802 0.000317248073582 0)
(0.000162260346986 0.000203436017187 0)
(0.000127031298459 0.000113033704931 0)
(0.000220384974835 0.000189261340047 0)
(0.00034782537607 0.000275281409814 0)
(0.000397197080172 0.00025076611541 0)
(0.000457561233506 0.000222814779239 0)
(0.000513475053117 0.000207913000961 0)
(0.000560179284166 0.000184390139157 0)
(0.000563512890609 0.000132706493879 0)
(0.000512865730204 7.87673217898e-05 0)
(0.000526953497234 6.16846943973e-05 0)
(0.000567071299423 7.26516392629e-05 0)
(0.000637439979276 0.000108971511427 0)
(0.00072909938941 0.000166091238228 0)
(0.000798861045284 0.000211304246595 0)
(0.000820296862992 0.000221034800045 0)
(0.000860063132591 0.000225767998724 0)
(0.000910807716592 0.000226148522145 0)
(0.000954026738051 0.000216325979848 0)
(0.000995655554092 0.000203560487571 0)
(0.00103446499321 0.000191557446785 0)
(0.00106997907857 0.000181805100892 0)
(0.00111161570465 0.000172453836233 0)
(0.00113862921446 0.000161592423991 0)
(0.00118485917786 0.000152622315752 0)
(0.00119756159705 0.000140826451554 0)
(0.00124869511492 0.00013332343584 1.28832085292e-28)
(0.00122832791815 0.000120009760821 -1.19951585527e-28)
(0.00128708328263 0.000121739582429 0)
(0.00134141382676 0.000130296358474 0)
(0.00134652437387 0.000146656731622 0)
(0.00142396459536 0.00017639498112 0)
(0.00147524551487 0.000195053640083 0)
(0.00151873336461 0.000193536119243 0)
(0.00155539974582 0.000184656556784 0)
(0.00158861756394 0.000168907552373 0)
(0.00162232974443 0.000144733871037 0)
(0.00165493348728 0.000121729258804 0)
(0.00168464425058 0.000107538925653 0)
(0.00171045695014 9.84029739822e-05 0)
(0.00173172451684 8.88206803352e-05 0)
(0.0017489255363 7.67496405941e-05 0)
(0.0017624575185 6.17362229706e-05 0)
(0.0017723270037 4.39333780136e-05 0)
(0.00177826620833 2.3282197126e-05 0)
(0.00177972743788 -1.36106171279e-07 0)
(0.00177573308318 -2.51820043214e-05 0)
(0.00176435739518 -5.11186921457e-05 0)
(0.00174360370546 -8.02102654083e-05 0)
(0.00171377591773 -0.000114379129535 0)
(0.00167941729236 -0.000146855577419 0)
(0.00164162191574 -0.000176752191746 0)
(0.00159245231024 -0.000212402705183 0)
(0.00152349182704 -0.000258192696931 0)
(0.00143080290509 -0.000316785919028 0)
(0.0013147645626 -0.000391386965464 0)
(0.0011826502779 -0.000482085199428 0)
(0.00105381254201 -0.000587314720816 0)
(0.000942526365897 -0.000697698000162 0)
(0.000864706651869 -0.000724330842079 0)
(0.000736336611082 -0.00057168358223 0)
(0.000596333932543 -0.00039228192084 0)
(0.000505451919145 -0.000306010718293 0)
(0.000429283882672 -0.000273441623672 0)
(0.000366134346384 -0.000272299850337 0)
(0.000313490772014 -0.000287382867958 0)
(0.000260181137277 -0.000293650626684 0)
(0.000203266065073 -0.000267812105682 0)
(0.00014873553914 -0.000219612483873 0)
(0.000110983562299 -0.000190443280626 0)
(7.70402432048e-05 -0.000172400594144 0)
(4.71838998332e-05 -0.000151982287371 0)
(2.64489923553e-05 -0.000113590634619 0)
(1.51031190617e-05 -8.67486495548e-05 0)
(7.6826598935e-06 -9.79068224944e-05 0)
(1.15632275264e-06 -9.6511806729e-05 0)
(-1.67479016211e-06 0.000226302007696 0)
(2.18218468102e-05 0.000243540850742 0)
(9.08921739577e-05 0.000389848860501 0)
(0.000125896022167 0.000321453846122 0)
(9.22076159004e-05 0.000156665947352 0)
(0.000127061425972 0.00016206768275 0)
(0.00028023515085 0.000312064592568 0)
(0.000333535115128 0.000331855369777 0)
(0.000375782527712 0.000305234769359 0)
(0.000428252691112 0.000281566250587 0)
(0.000481946929429 0.000246960502878 0)
(0.000444500862793 0.000169096669393 0)
(0.000404555124546 0.000100392953469 0)
(0.00044073423555 8.80038064038e-05 0)
(0.00048862274984 0.00010476276881 0)
(0.000579410728806 0.000148709464433 0)
(0.000679741084006 0.000201013201435 0)
(0.000749248290742 0.000232564076792 0)
(0.000758344667755 0.000235505815249 0)
(0.000803988154093 0.00025562563535 0)
(0.000860279465316 0.000274326850945 0)
(0.000902315578305 0.000271456674901 0)
(0.000942728523093 0.0002590131684 0)
(0.00098119207133 0.000244723566637 0)
(0.00102507155897 0.000232220045906 0)
(0.00106065171985 0.000216940483582 0)
(0.00107740542433 0.000205286412205 0)
(0.00113698295937 0.000198287313839 0)
(0.00113627984664 0.000179739517135 0)
(0.00120369260004 0.00016854552791 0)
(0.00116233557059 0.000147641137858 0)
(0.00124548146817 0.000154130500238 0)
(0.00121880200923 0.000154248497081 0)
(0.00130260439293 0.000174910569381 0)
(0.00138672087998 0.000208107264972 0)
(0.00143972679651 0.000235187661742 0)
(0.00148077168665 0.000239376383272 0)
(0.00151836418802 0.000231688321175 0)
(0.00155347715117 0.000218699889295 0)
(0.00158756013805 0.000201094475679 0)
(0.00162143576514 0.000178495189017 0)
(0.00165432082681 0.00015559599385 0)
(0.00168464717631 0.000137260879358 0)
(0.00171110499439 0.000122577661954 0)
(0.00173329774095 0.000108235358137 0)
(0.00175141445887 9.21545964162e-05 0)
(0.00176571593672 7.34589632822e-05 0)
(0.00177597150241 5.17745262245e-05 0)
(0.00178156461013 2.67462929602e-05 0)
(0.00178170764564 -1.77391589788e-06 0)
(0.0017753556616 -3.34519506846e-05 0)
(0.00176103634694 -6.80932615034e-05 0)
(0.00173762110901 -0.000106049496743 0)
(0.00170551652128 -0.000146460910976 0)
(0.00166615889656 -0.000186959231214 0)
(0.00161761238094 -0.000230524037136 0)
(0.00155275162152 -0.000284414160593 0)
(0.00146529717231 -0.00035232949436 0)
(0.00135504907731 -0.000433654630596 0)
(0.00122571887602 -0.000523430647732 0)
(0.00109247792059 -0.000616876452696 0)
(0.000973319176945 -0.000702260071444 0)
(0.000820451026343 -0.000731788867269 0)
(0.00084116945088 -0.000845659661995 0)
(0.000664513358089 -0.000666148280045 0)
(0.000544337090376 -0.000480090204324 0)
(0.000468770790978 -0.000394861455053 0)
(0.000387891428477 -0.000348976746017 0)
(0.000314632000708 -0.000332108365405 0)
(0.000260790913095 -0.000350168986181 0)
(0.000206785121932 -0.000357711227529 0)
(0.000149859647258 -0.000306511233531 0)
(0.000107748939541 -0.000257011459823 0)
(7.19938376061e-05 -0.000230376367559 0)
(3.81861269504e-05 -0.000204687881811 0)
(1.71163709447e-05 -0.000172120921545 0)
(6.70404586429e-06 -0.000120805836638 0)
(6.36358524101e-07 -9.51831730395e-05 0)
(-2.60144053063e-06 -0.000102078156986 0)
(-1.37212728516e-06 -9.66036059155e-05 0)
(7.22896602785e-06 0.000245190468224 0)
(5.18701353039e-05 0.000319234088372 0)
(0.000119181475543 0.000423014892412 0)
(0.000130088539089 0.000392169167791 0)
(8.50257113315e-05 0.000195752342025 0)
(0.000184710842549 0.000289041878598 0)
(0.000289929801432 0.00038292258509 0)
(0.000316576962396 0.000371540620041 0)
(0.000356998513332 0.000346569072886 0)
(0.000382790394133 0.00031760859232 0)
(0.000449644376335 0.000269299392604 -3.00428155768e-28)
(0.000342290273617 0.000135078693863 1.73401475303e-28)
(0.000396513207667 0.000124272198902 0)
(0.000427071920568 0.000135542368944 0)
(0.000506086865889 0.000182629368484 0)
(0.000615518897997 0.00025034325228 0)
(0.000689506108128 0.000275666380732 0)
(0.000683627866419 0.000253902705909 0)
(0.00073410805526 0.0002732496947 0)
(0.000804219329646 0.000310841561072 0)
(0.000845721781503 0.00032076790977 0)
(0.00088881571965 0.00031398518676 0)
(0.000930666984796 0.000301222367149 0)
(0.000970760606188 0.000284602988738 0)
(0.00100118564013 0.000264383421857 0)
(0.00102157627518 0.000244662306814 0)
(0.00107641340663 0.000237940106574 0)
(0.00106364686748 0.000223780320334 0)
(0.00114785014671 0.000213095493686 0)
(0.00109745106988 0.000173942221427 0)
(0.00118700985551 0.000179538461123 0)
(0.00116844932585 0.000184924126139 -1.15423457553e-28)
(0.00125353206506 0.000205415843598 1.21579291759e-28)
(0.0013033603464 0.000242522481107 0)
(0.00139924615927 0.000279021348046 0)
(0.00144317363048 0.000285146819875 0)
(0.00147927716355 0.000278608313832 0)
(0.00151515159158 0.000267446321331 0)
(0.00155120036024 0.000252965215454 0)
(0.0015865218032 0.000234667813124 0)
(0.00162085465556 0.000212429869274 0)
(0.00165409958765 0.000188933980355 0)
(0.00168498248399 0.000167330708653 0)
(0.00171224494076 0.000147912053523 0)
(0.00173547707449 0.000128922761095 0)
(0.00175472107657 0.000108621904216 0)
(0.00176994284428 8.58218463387e-05 0)
(0.00178056828355 5.96446332215e-05 0)
(0.00178568345255 2.93892794458e-05 0)
(0.00178436685963 -5.32620784016e-06 0)
(0.00177560809294 -4.44775434454e-05 0)
(0.00175823851408 -8.77966207187e-05 0)
(0.00173142419611 -0.000134715321947 0)
(0.0016949490011 -0.000184361282791 0)
(0.00164806279729 -0.000237263798609 0)
(0.00158720917659 -0.000298161525295 0)
(0.00150663066312 -0.000372704242249 0)
(0.00140374733957 -0.000461179750296 0)
(0.00128347181726 -0.000557645183563 0)
(0.00115831476172 -0.000652718789235 0)
(0.00103983400912 -0.000736056723984 0)
(0.000935772386661 -0.000801860168666 0)
(0.000853932322058 -0.00086672423465 0)
(0.000806773049574 -0.000925007472012 0)
(0.000653666813467 -0.000777864290874 0)
(0.000482509328111 -0.000551896544899 0)
(0.000423932647907 -0.000478459734549 0)
(0.000348707614676 -0.000437533034659 0)
(0.000271239693004 -0.000415417342111 0)
(0.00020756730268 -0.000420513781065 0)
(0.000153129416839 -0.000401749519247 0)
(0.00010622437938 -0.000341335395378 0)
(6.67988884719e-05 -0.000301740139498 0)
(2.70934163815e-05 -0.000267775965238 0)
(-1.47490809301e-06 -0.000229995374662 0)
(-1.20784184516e-05 -0.000175910748928 0)
(-1.49524591887e-05 -0.000128916682008 0)
(-1.70488625882e-05 -9.83682260628e-05 0)
(-1.44724992456e-05 -9.79194831911e-05 0)
(-4.69066895789e-06 -9.30428625354e-05 0)
(1.57366225742e-05 0.000285101837195 0)
(7.47110277027e-05 0.00039289992977 0)
(0.000133389493784 0.000436848027362 0)
(7.92272921012e-05 0.000255760404037 0)
(8.80019358047e-05 0.000243488393498 0)
(0.000217398450436 0.00040620431748 0)
(0.000264303287407 0.000421759417018 0)
(0.000302593323089 0.000410258700283 0)
(0.000321740958919 0.000372403934963 0)
(0.000363814745649 0.000344706525979 0)
(0.000290406589445 0.00020124133402 0)
(0.000333353101393 0.000159792766822 0)
(0.000380260146385 0.000164596845013 0)
(0.000420630007762 0.000194322221703 0)
(0.000539382123095 0.000279491302318 0)
(0.000625498281128 0.000324158111742 0)
(0.000613856339293 0.000289898415073 0)
(0.000654010719303 0.000292030509707 0)
(0.000734103300256 0.000337194716264 0)
(0.000789182198027 0.000362905015788 0)
(0.000827161917584 0.000363174993772 0)
(0.000866040056004 0.000354574629383 0)
(0.000912348523432 0.000344668054418 0)
(0.000951050336422 0.000325432884467 0)
(0.0009950579876 0.000296575126436 0)
(0.00099548645991 0.000276891962441 0)
(0.0010627239643 0.000268670898504 0)
(0.00106678706584 0.000247657995519 0)
(0.0010624704137 0.00022295305279 0)
(0.00110079605223 0.000214239108697 0)
(0.00120019599669 0.000225344453275 0)
(0.00119261332575 0.000222091308373 0)
(0.00122287408416 0.000260674003463 0)
(0.00135138361625 0.00032072862358 0)
(0.00139716757103 0.000338208684243 0)
(0.00143725430623 0.000329131872506 0)
(0.00147477364203 0.000316602624784 0)
(0.00151136549571 0.000303660685762 0)
(0.00154847021224 0.000288497121319 0)
(0.00158513231403 0.000269606816185 0)
(0.00162037932097 0.000246931968988 0)
(0.00165412155155 0.00022229699884 0)
(0.00168569761824 0.000197872557644 0)
(0.00171401424525 0.000174354309915 0)
(0.00173852713419 0.000150947206775 -1.22698047291e-28)
(0.00175911776461 0.000126279208826 1.22344930031e-28)
(0.00177540958713 9.8905160267e-05 0)
(0.00178646095318 6.75108623886e-05 0)
(0.00179111048358 3.11259597343e-05 0)
(0.0017883576497 -1.07516825437e-05 0)
(0.00177720222171 -5.81898487749e-05 0)
(0.001756559689 -0.000110845232147 0)
(0.00172555402974 -0.000168144245942 0)
(0.00168314076995 -0.000230047790299 0)
(0.00162710124694 -0.000298812959843 0)
(0.00155366468233 -0.000379007651355 0)
(0.00145973245044 -0.000473100390757 0)
(0.00134785774117 -0.000576864460108 0)
(0.00122806208788 -0.000680492775831 0)
(0.00111153736006 -0.000772270642229 0)
(0.00100328988056 -0.000839705065734 0)
(0.000912888242904 -0.000887307510037 0)
(0.000844361358259 -0.000931404941706 0)
(0.00078793803379 -0.0009791641148 0)
(0.000765015371932 -0.00100059363995 0)
(0.000491199639263 -0.000680445089824 0)
(0.00036959887382 -0.000561648111273 0)
(0.000291155920596 -0.000516254003473 0)
(0.000212729550964 -0.000485149895559 0)
(0.000152980088959 -0.000472320091803 0)
(0.000107383112082 -0.000437105850072 0)
(6.38216153935e-05 -0.000386350949219 0)
(1.71296774739e-05 -0.000348156100043 0)
(-2.29675915683e-05 -0.000301726868476 0)
(-4.39429003288e-05 -0.000244268470496 0)
(-4.63979654075e-05 -0.000177983236402 0)
(-4.55081854307e-05 -0.000131370250973 0)
(-3.9709673835e-05 -9.72563265328e-05 0)
(-2.91294516545e-05 -8.58426654763e-05 0)
(-1.03144336594e-05 -8.070265151e-05 0)
(2.23361491746e-05 0.000336177953699 0)
(8.57737669868e-05 0.000452962685846 0)
(0.000109046284271 0.000445716146634 0)
(7.44349982589e-05 0.00027973023253 0)
(0.000125479236321 0.000323974395609 0)
(0.00022441041881 0.000461358204175 0)
(0.000239062988072 0.000457283232335 0)
(0.000288863026849 0.000445378548467 0)
(0.000270566959344 0.000365788273369 0)
(0.000356699135609 0.000385880992888 0)
(0.00027507345949 0.000220708311197 0)
(0.000333692084044 0.00020391974483 0)
(0.000369560638501 0.000213053045702 0)
(0.000446084514793 0.000279907980743 0)
(0.000550547628699 0.000366670418473 0)
(0.000603330806486 0.000367684751971 0)
(0.000588501404701 0.00032184544281 0)
(0.000650059293863 0.000351534973651 0)
(0.000718689788986 0.000396199828059 0)
(0.00076603099576 0.000410075043648 0)
(0.000809587146135 0.000405683191911 0)
(0.000843049207418 0.000392760268425 0)
(0.000885484484483 0.000381532519048 0)
(0.000909949745844 0.000358904249952 0)
(0.000926557522598 0.000317300568871 0)
(0.000999424519538 0.000309794176596 0)
(0.0009591986383 0.000286748036946 0)
(0.0010854779583 0.000283977443343 0)
(0.0010375533358 0.000257467792639 0)
(0.00115783126892 0.000273133167318 0)
(0.00110985856266 0.000251829955137 0)
(0.00123211046273 0.000281237835956 0)
(0.00129115369803 0.000336678115648 -1.31902438749e-28)
(0.00134891913133 0.000380424509511 1.35435492414e-28)
(0.00139045710811 0.000382726037836 0)
(0.00142985467678 0.000370255617632 0)
(0.00146917932623 0.000355833112855 0)
(0.00150725962843 0.000341407648384 0)
(0.00154529351344 0.000325398028803 0)
(0.00158302871045 0.000305847631212 0)
(0.00161951912831 0.00028233737966 0)
(0.00165428952179 0.000256222040251 0)
(0.00168684455323 0.000229207764496 0)
(0.00171646662973 0.000202080911442 0)
(0.00174264128678 0.00017450411075 0)
(0.00176489635738 0.00014531636349 0)
(0.00178246129998 0.000112873289896 0)
(0.001794128344 7.55171369196e-05 0)
(0.00179855736441 3.20976027539e-05 0)
(0.00179460142557 -1.79153471766e-05 0)
(0.00178117538534 -7.46161374415e-05 0)
(0.00175719408486 -0.00013784150898 0)
(0.00172149276468 -0.000207469425785 0)
(0.00167223982297 -0.00028446597352 0)
(0.00160644586242 -0.000371391623337 0)
(0.00152116681862 -0.000470675994572 0)
(0.00141709854058 -0.000580328241743 0)
(0.00130210757215 -0.000692102247705 0)
(0.0011893742389 -0.000797793165703 0)
(0.00108237091948 -0.000887514229039 0)
(0.000977314283812 -0.000940493001333 0)
(0.00088442825712 -0.000962543142791 0)
(0.000816617917331 -0.000987071709415 0)
(0.000767460346462 -0.00102277000359 0)
(0.000754387263373 -0.00105849442327 0)
(0.000627653922197 -0.00094190202671 0)
(0.000349739834338 -0.000658740404773 0)
(0.000228322637166 -0.00060337020837 0)
(0.000160289380647 -0.000560803723193 0)
(0.000108737168123 -0.000519470557435 0)
(6.5456844939e-05 -0.000477313602579 0)
(1.4923153066e-05 -0.00044145201792 0)
(-4.03661815116e-05 -0.00039724564087 0)
(-7.97449751385e-05 -0.00033059786023 0)
(-9.35175265645e-05 -0.000249912455098 0)
(-9.18386023503e-05 -0.000178361892493 0)
(-8.46147608983e-05 -0.000124633564558 0)
(-6.83280356675e-05 -8.57496267184e-05 0)
(-4.4109818223e-05 -6.43416914158e-05 0)
(-1.52646403201e-05 -5.51877043151e-05 0)
(2.76977066986e-05 0.00040057335326 0)
(9.59917082811e-05 0.000496725421356 0)
(9.82414525741e-05 0.000436621709591 0)
(7.46085707873e-05 0.000299335381273 0)