/*--------------------------------*- C++ -*----------------------------------*\
| =========                 |                                                 |
| \\      /  F ield         | OpenFOAM: The Open Source CFD Toolbox           |
|  \\    /   O peration     | Version:  v1806                                 |
|   \\  /    A nd           | Web:      www.OpenFOAM.com                      |
|    \\/     M anipulation  |                                                 |
\*---------------------------------------------------------------------------*/
FoamFile
{
    version     2.0;
    format      ascii;
    class       volScalarField;
    location    "184";
    object      alphak;
}
// * * * * * * * * * * * * * * * * * * * * * * * * * * * * * * * * * * * * * //

dimensions      [0 0 -1 0 0 0 0];


internalField   nonuniform List<scalar> 
6400
(
0.829363848713
1.23999795782
1.89645686868
2.1627103567
2.43381994594
2.75028583067
3.31525015367
3.98300906133
4.0797568492
4.35959907499
5.46556954911
5.9196990571
6.24570081926
6.71280714119
7.45885338127
8.22104242865
8.75980382833
9.28682329326
9.77279706456
9.97393613144
9.86103750752
9.75373389663
9.90744295616
10.3981944804
10.9848168966
11.4661349793
11.7500790801
11.9890126075
12.3290535526
12.7800273282
13.2905570907
13.571775806
13.5679718997
13.469946337
13.281089838
12.8678044909
12.6411427367
12.9043043131
12.6294844153
11.9843460242
11.7844479162
12.2220182112
12.7179394183
12.9508053213
13.0092667924
12.9362776842
12.8128897768
12.7096112527
12.6275883291
12.5672623785
12.3478993288
11.4909844277
10.6941210343
9.81815941351
9.46076035924
9.90754792928
9.81014912946
8.53084449685
6.9859143056
6.46202157717
5.63731844947
4.71272202013
3.78544415445
5.51535202013
9.59929953106
14.5493335802
17.5459899519
17.2539409403
15.2395084546
13.534547071
12.5527187423
12.6102894676
13.0219994419
12.8223606603
14.7611675926
14.1652050201
15.9937649912
9.89208223959
12.8723822372
4.81323522287
3.07684406623
2.37864784656
2.90425932236
4.09130693806
3.72484173027
3.2802044677
3.25104758715
3.49496794589
3.89405688593
4.42994109951
5.12707041273
5.82243318493
6.40727223756
6.9651992814
7.5153291883
8.16790670458
8.85015960452
9.56076688476
10.6441571884
10.6167660481
10.2074624565
9.98070651474
9.97573559003
10.3838213188
11.2732574052
11.6040080544
11.8161202806
12.1395575783
12.5222834069
12.9353119235
13.3761642089
13.88721069
13.8930921066
13.8254695624
13.7446679793
13.0632007946
13.0101383212
13.2734490036
12.8196274585
11.7995280046
11.5139606355
13.9195947297
15.3264808577
15.3854432326
15.3131071116
14.9386088247
14.3955970222
13.9782401552
13.337471393
12.8178945144
12.8085527171
13.4611500821
13.3172048984
10.0396328472
9.99522930898
9.72969218731
8.0505191757
6.89287956105
5.97029131163
5.06788627746
4.37875697827
5.04956561813
3.97844001769
5.68981759723
9.64536812216
15.4610444778
19.1860540263
17.998373584
15.8188685138
13.8435356945
13.0222722719
13.2978188696
14.2565801618
13.6185517501
13.4017723742
12.8304763492
11.5987533995
9.74195376563
8.18144523658
4.26660970211
3.02773654243
2.55547413525
3.03637328165
3.0894603652
3.30709975477
3.58789101348
3.49899732424
3.44800357073
3.82595572104
4.41604268166
5.10055484155
5.81505396172
6.45561795349
7.02992395395
7.44810884574
8.03293192898
11.326241949
13.4938937357
13.6914481141
12.6006332939
10.0855083605
9.40238597633
10.2083393248
10.6809600986
11.0362126351
11.5339745716
11.9602528942
12.2912322065
12.6520996701
13.1001229416
13.4630624111
14.1736313263
14.2561537876
13.659347262
14.4467990789
13.8024611114
12.8378070934
13.7285565192
13.1846017877
12.0676549257
11.7396255066
12.2590971827
12.8338684805
13.1056362639
13.185827879
13.1544126169
13.0438707987
12.873652766
12.6433246532
12.377035984
12.0761989461
11.6557595952
11.0511599233
10.719739278
10.5716336548
9.24431642019
7.94257772415
6.9410071168
6.07873355513
5.32385518057
4.78000082007
4.23575460384
3.93836462549
6.41204432826
11.5968758846
16.2975625713
18.6101459994
18.7241795011
17.1085377946
15.3765438774
14.5896659644
14.3950009435
13.6666688405
13.0118794905
12.9189052182
12.5171801816
11.4948260449
9.85559454999
7.41852117395
7.59273818594
2.78566612678
5.2957238416
3.11354109144
3.04364003343
3.65963128435
11.6750887643
9.97888338062
4.3048115246
3.85190040086
4.44939124603
5.12401291681
5.84100791961
6.46055018525
7.14565228708
9.21596721236
11.5876757916
13.2355487895
13.3003460035
11.3708671629
9.51797152368
9.47251297535
9.68306139062
9.9880071411
10.519655447
11.128599583
11.7058268329
12.1940663951
12.466949666
12.9228708857
13.18123424
13.9399392696
14.0838955382
14.891355273
14.5227391867
13.4461412723
14.0849679737
13.2637018396
12.3433362544
12.1614516232
12.0766935939
12.1187457728
12.4479975215
12.8528035572
13.1154457089
13.228589943
13.22657735
13.1362889753
12.9778970204
12.7606821197
12.4957974222
12.1804672377
11.7922207513
11.3281827922
10.8390531262
10.1844990936
9.19503185302
8.0730441482
7.08716120372
6.28793822319
5.66293134289
5.20888047443
4.88528847502
5.0204599138
6.94499370748
10.7765952499
16.5616630066
20.1492394129
20.3470180121
18.6651097175
16.2890358151
14.6243271636
13.7507948922
13.8324639633
15.1404199719
15.0163316569
13.647214805
13.4600579161
16.7144370723
13.1176519752
11.1355920199
5.22930893349
7.27203452711
3.52677234857
3.84991658014
6.09160702559
11.5527146489
7.62011807291
4.38503082094
4.3271454053
4.66882176786
5.27875728585
6.03462997411
7.54165031674
10.2742812913
11.2300660423
11.3490346843
10.8277127423
9.81115380269
9.2067354403
9.58570918154
9.62429132421
9.62431819942
10.0387836993
10.626055034
11.2854584276
11.9359846047
12.3256653359
12.9204363288
13.0264501255
13.8599747137
13.8757994103
15.4663928843
14.7005273763
13.7152036587
13.9881117956
12.8521017188
12.4186799317
12.2612313804
12.2383924073
12.2675907037
12.3626298161
12.6032705161
12.9109646076
13.153100531
13.2834505878
13.3032602667
13.2308491233
13.0868492696
12.8860985078
12.6366644611
12.3347421716
11.9709996706
11.540031872
11.0172926636
10.2916105656
9.30989012985
8.2516138626
7.33540245549
6.64128649045
6.15793180115
5.86308633747
5.80273355276
6.31196674572
7.45705141667
10.5708987482
15.9450879052
20.1572306384
21.5515428485
20.3498005594
17.5612374276
15.0504378908
14.6597339922
16.8141930714
17.6177880675
16.5251888835
15.5579442487
18.1493188182
21.1279637284
16.4369167963
15.5428321776
9.58307506996
8.68738247685
4.36253179058
5.21424378249
11.8049701803
11.2105828628
5.37072565084
4.8068308064
4.85562567722
4.99354426968
5.61782080688
8.69012261864
12.2534213725
12.5115252355
11.8704998372
10.3020490791
9.08934927585
8.79177278252
9.67966880882
9.61503629545
9.36267678845
9.65061133144
10.1872609479
10.8592117888
11.3957996472
12.0755479182
13.0558282302
12.9525946493
14.1328799088
13.7494032518
15.8540175773
14.9403234659
16.2134311396
14.4193840954
12.7374837344
12.2461333473
12.2364376771
12.3079688387
12.3824047701
12.4544469852
12.5711957158
12.7724812671
13.0209540483
13.2386636422
13.3715878388
13.4049877964
13.347002448
13.2191433856
13.0410493561
12.8194101795
12.5474121823
12.2115843089
11.7883579111
11.227147184
10.4605568165
9.51158801593
8.54759661402
7.73239558211
7.12006247003
6.74412415229
6.60416706102
6.93961682441
8.32157479307
7.64539488388
11.8059218231
17.528509102
21.2872505895
22.695252016
21.7346695056
18.3505052699
16.1598488086
17.9123491638
20.0546368036
19.4749029094
18.4207016399
18.4349684395
22.9167099567
24.4622540854
19.4393440126
19.2249993557
11.6342239422
8.21269463138
5.3093036612
5.05235338492
11.655532091
7.55682468826
5.20188715808
5.27436974619
5.33946420834
6.03670411535
6.3323585479
12.2503238684
12.6832361331
12.5491203431
10.6556708788
8.74710962436
8.38097678878
9.85064388166
9.75018758614
9.1263342801
9.36200248241
9.75681532904
10.2910694554
10.9583383088
11.8785810632
12.8595912686
12.9873133364
14.6314202526
13.9607807786
16.298410856
15.1801057167
16.5741847537
15.100452886
14.0597135632
12.2364301408
12.0225448808
12.2346832215
12.4242727944
12.5351825037
12.6299857182
12.7645917329
12.9504196436
13.1659864717
13.3628090555
13.4926690212
13.5327993415
13.4875934937
13.3806000258
13.2334310984
13.0493931089
12.8147602673
12.5050497646
12.0817340285
11.4953363906
10.7224609697
9.8297151729
8.96392936575
8.23760984282
7.67831280806
7.3055198523
7.29201428613
7.74980882759
8.06800742224
8.65356586435
12.7534641043
19.7940043223
22.4575761196
22.8866620462
21.8037784515
19.532112473
19.3258698228
21.8741828709
22.266169784
21.3635844493
20.7099153621
22.579540299
25.2360285485
26.6523357123
22.0242403351
20.8574928875
11.1888007651
7.45996040303
6.32936515
11.6218034005
11.5980542912
5.90887931966
5.72505667942
5.79431256458
6.02188718116
6.53558138204
12.0836914457
12.9321530527
12.7844603188
12.0327166781
8.97975104873
7.98604929144
9.79130349443
10.1068678315
9.14657928954
8.93809537495
9.41573481418
10.0105542497
10.5283556456
11.2901148654
11.9176754291
13.4119325359
13.1316446055
14.5136564609
16.2248742057
16.2889204541
14.5792932739
15.6332367454
15.4635517195
12.6458412552
12.0960454714
12.1196715027
12.3294842094
12.5442732007
12.6874377436
12.8041595145
12.9530986677
13.1394573008
13.3395613957
13.5200036386
13.6434821707
13.6870876509
13.6560971071
13.5762111252
13.46818053
13.329348025
13.1369356286
12.8542351921
12.4339140846
11.8401677028
11.08876248
10.2663139808
9.48056726245
8.7721904738
8.12599747288
7.67309523561
7.75469130426
8.31371625884
9.0611072225
10.0896226918
11.1841484852
19.5595603878
23.9156306924
24.0753888778
23.525360993
22.6641501686
23.6163518667
24.9891890549
24.2530938796
23.4957168201
23.6045799255
25.7970596561
26.360711852
26.8876838491
23.9398079213
21.7376780557
10.2250000449
6.99439188125
6.96972872293
12.5075610171
10.177793117
6.14978920482
6.2908517832
6.46410341697
8.18515827386
6.45405404455
12.8567611337
13.335739216
12.7523206617
10.3837416954
8.17433198626
8.09858501899
9.93353425589
9.61534407951
8.91311115619
8.96425841434
9.3913163627
10.1537276792
10.8377894053
12.2001554564
13.4502941896
13.1861089491
15.7019426199
14.0262576755
16.6081660684
14.8275485418
16.8060134821
14.2763485846
13.2013240683
12.4063879182
12.2018575943
12.2772056653
12.453390713
12.6635773958
12.8380535763
12.9863932804
13.1507850383
13.3407448392
13.53602053
13.7064756115
13.8217648702
13.8680278809
13.8558788977
13.8105369101
13.7485183968
13.6610344789
13.5157219905
13.2639711929
12.8547310474
12.2708416374
11.5583765992
10.8015870575
10.0417678127
9.21613566949
8.28691151665
7.66523580012
8.03897613784
9.2462004366
10.5418870779
11.6079066802
12.49234395
15.7457100861
23.8559252531
25.5314425368
25.7287227002
26.5849737043
27.7903621736
27.4589513079
26.3835668087
26.0787941577
26.9107492766
27.9287974357
27.6340623468
26.9236638676
25.8080286838
24.342062758
9.33281629194
7.10359486689
8.18382563138
12.4854583826
7.4788493137
7.16765413187
6.85349922102
7.10410211154
10.975935519
9.43423728564
13.68235143
13.5142338665
12.7044549793
9.28265051594
8.0031394162
10.0305404615
10.2146938071
9.22229887311
8.8373381129
9.15388110204
9.50860868592
10.211983678
10.7421011809
12.387399266
14.9420006117
12.9679615228
15.5683490238
16.6736510261
16.8410720292
17.1000093402
15.1548928878
15.0213806961
12.5849552946
12.2332896816
12.3339558612
12.4422288308
12.5904616517
12.7842950344
12.9818149359
13.1703887704
13.3620354659
13.5606662363
13.7542949663
13.9189723408
14.0290365788
14.0781678564
14.087861078
14.0848326525
14.0766729981
14.0460256698
13.9526598568
13.7376432047
13.348667396
12.7883540038
12.1220708365
11.4027926855
10.5505401478
9.34221677732
7.88169308522
7.32672611368
8.61874927015
10.671748547
12.3347139984
13.5603974873
14.4778723478
14.5177423599
15.6693572571
27.2414582885
30.1049524305
31.4116806161
31.4373293593
30.0258678851
29.0210156817
29.1393604576
30.0634199067
30.16332853
29.7155219887
29.2542205846
29.464022505
29.5663493345
8.89341008047
7.6896414509
11.9502382872
12.3753634942
7.09391395949
7.84070501229
7.37724899222
8.1758393556
10.0956418736
13.2558954323
14.350231058
13.6341699849
12.7639666299
8.92740656089
8.05954491568
10.6544176672
10.185581476
9.07467151961
8.83825619136
9.30551310308
10.0008454894
10.526757401
10.9320513423
11.9121512696
15.0558032416
16.2210026123
14.6838011525
16.8515835996
14.646756431
17.1530003998
17.0978973561
14.8170310207
12.4089265539
12.3240576241
12.5015906077
12.6184697739
12.7488322749
12.9234940486
13.1233783429
13.3501185564
13.5839110318
13.8001395777
13.9955160027
14.1571681672
14.2646153649
14.320666881
14.3567384916
14.400285942
14.4508084316
14.4821129182
14.4459140343
14.2738613111
13.9154272845
13.3915369309
12.7666257009
12.0056089126
10.7597247574
8.69512700988
6.97633996047
7.385533689
10.096869898
12.869313258
14.7170785693
15.9492605784
16.6049285616
16.5424874138
15.9862337649
17.7576544255
31.7003214318
37.0586386842
35.8650659784
33.4744340748
32.5160262163
32.7498705156
33.2119224703
33.2091806305
33.216452739
33.4898439924
33.9164823885
34.5088962944
8.86066304298
8.38304376299
13.4884917096
12.760696784
10.4452736732
8.94786592882
8.07990232422
9.7367476547
9.15247766214
14.1770365117
14.8188531994
13.8022494524
12.5737651809
9.2261000844
8.8365728885
11.1820472046
10.0621579361
9.04649744825
8.93879269185
9.33822499826
10.2099177076
10.9514176384
12.9860390698
12.0511379171
14.4032649475
16.6002651338
14.2542197311
17.175190756
17.6268046412
15.5801473988
15.5166073904
13.1083442367
12.7559629936
12.6441020677
12.7146604252
12.8256041509
12.943124752
13.0988993883
13.27259226
13.508226713
13.7997211353
14.0654248872
14.267669058
14.4223216958
14.5299228874
14.5990835043
14.6662285427
14.7580461435
14.8680053835
14.9627628828
14.9846056313
14.8617581893
14.5533429728
14.0788521115
13.4520923426
12.3800940493
10.0818000876
7.26855695381
6.29610202055
8.47457212002
12.7162478288
15.9010070329
17.7709052072
19.0736098485
19.6571202637
19.4047304198
18.6480649437
17.4307429377
27.7293989357
38.0397857322
40.8841497167
38.0884265638
37.1299093063
37.2438900487
37.4365606379
37.2920672411
37.7951076971
38.2801686241
37.9888461993
38.086105717
9.20457405945
8.90833267879
13.0551261202
13.0173784214
12.938958122
9.80919733449
8.919719253
12.8920362686
9.16849235184
15.0139079982
15.1720566743
13.9880528489
12.4093403063
9.59353002296
12.1932682768
12.2945720734
10.0657970883
9.15872452068
9.17062198271
9.49822939087
10.1753155478
10.8823945931
14.5854881608
15.627347124
13.5722355419
16.7058926632
17.4620959023
16.5492068637
17.6031541556
17.5361669593
16.1423622926
13.0272380944
12.9476327768
12.9628697722
12.9741487015
13.0451559618
13.1308265411
13.3046322164
13.4954848348
13.6921428565
13.9903895478
14.320472314
14.5683781488
14.7250060583
14.830238402
14.9168403662
15.0202430797
15.1599231792
15.3238154335
15.4731360481
15.546198241
15.4826511877
15.2551977565
14.8263391249
14.0490482665
12.1028688712
8.33257886107
5.3769285467
6.09214894868
11.0088498159
16.4644221329
19.8514782041
21.5788266614
23.1934950227
23.3254237507
22.2122250853
20.8056000511
19.3730761852
23.9357591845
35.2351234363
42.2366643748
43.3502177568
41.4771660035
41.768580518
41.8645165294
42.134681495
42.8453407491
43.1513897414
42.8960725219
42.9463625106
9.60323407748
9.43542987256
9.17700048516
13.2104181559
13.2839908828
10.2824047121
9.70271394274
13.685935822
9.53085517912
15.838614062
15.4670354085
14.1804418888
12.3761212548
9.72380817873
13.4063156237
12.5833222922
10.240517131
9.4250779518
9.46750291496
9.8395304973
10.2648433279
10.8042495052
15.2281206719
16.5911976022
13.773505394
16.8369315617
17.9785305046
15.4145472772
17.2165150091
16.7604702568
13.6487927599
13.388435637
13.3644907754
13.3045024206
13.2454727976
13.3296904473
13.396180103
13.4752429043
13.6971155208
13.9452192396
14.2239268605
14.5680400613
14.8682811576
15.0576494908
15.1739922635
15.281761419
15.4220583722
15.6012711187
15.8096257056
16.000303786
16.0944579211
16.1052583047
16.0049312782
15.6204912201
14.3779774498
10.5324810426
5.0825716197
2.94616147412
8.37783502976
15.6736450675
21.7093276361
24.8222421438
24.2513950956
22.3446121847
19.4092984569
17.6445877747
16.9334672212
15.706172777
12.7056319604
14.45101166
41.7562846998
45.2193301665
46.1498417607
45.5448507256
45.3668346374
47.2363399363
47.9435398753
48.2003949108
49.1807351948
49.6341351418
10.1657980585
10.2128098339
13.7779439513
13.6710476833
13.5104814486
10.6485471905
10.6218337556
14.2726875998
10.3396710159
16.5126910559
15.7206418792
14.3739066384
12.3942285605
9.9713316914
13.5608975928
12.4727342046
10.4261414083
9.73213668193
9.76196935613
10.0895235112
10.4946644188
10.9201974647
14.319658174
17.3489608119
17.4587304614
15.8245028739
18.1378372092
18.728234697
14.9429233189
13.9215660646
13.4677791985
13.5479343514
13.5960059059
13.5844727286
13.5946638137
13.6020888992
13.6599706775
13.7675710615
13.8941072257
14.1728834765
14.5024667381
14.8526462867
15.1747058981
15.4034855814
15.5600735699
15.6965881662
15.8671084896
16.1010297038
16.3509718192
16.5152304356
16.5801028518
16.6822787239
16.7459006723
16.3056220692
13.8749833647
7.42214930657
0.0174249869488
5.3014467452
13.9383125181
21.9497079425
25.255389445
20.8609814253
13.2148284891
0.0245243081116
0.0191829865668
0.0465718801787
0.313931293595
1.47043665219
5.43180033315
14.1435261066
10.9022657969
31.5787509021
50.2659331712
50.6496894579
47.9959918817
50.9567935757
52.8051170048
55.3154176499
57.5877781405
57.7964067468
10.6569699277
10.8322189997
15.2806154518
14.0653889235
13.2315231507
11.0496075932
11.5527923583
14.6721229755
14.6781342453
17.2962809648
15.9926260895
14.6252696101
12.4383498404
10.3732359543
13.7143756446
12.3223035604
10.6392072335
10.0565783523
10.0334857882
10.2947633917
10.6920585902
11.2437241021
13.5032044917
17.5738573125
18.8552448775
14.9586315208
17.7125255211
18.5569738006
17.7627759276
14.6951078968
13.6357481444
13.7450072767
13.8988122841
13.9854210148
13.8473095885
13.8884914636
13.9045976971
14.0293498581
14.1669675472
14.4118963261
14.7832102339
15.174930284
15.495085019
15.7340402173
15.955605429
16.2204643509
16.4922603251
16.7599273809
16.9084695899
16.9881577544
17.0824681296
17.2024047651
17.4801070939
16.9838323243
11.1967455422
0.000284616697028
3.49388691664
11.2927042406
18.4939295024
18.3601100987
0.377645584571
0.000630137848217
4.44187061117e-05
0
0
0
0
0
0
0
0
6.17788452532e-09
2.08367255349e-06
0.000311673000813
0.18082269402
42.54454717
59.0019122686
59.7564949247
67.2273251512
66.0402846302
11.0366131984
11.2398250521
17.5731303075
14.3007306973
12.5913503711
11.4207556462
12.1855819359
14.385272757
16.2294504362
18.1992973979
16.3937182845
14.9777112384
12.689723693
11.1099083176
14.080451067
12.3448750538
10.9573709781
10.4478618519
10.3455715648
10.5334225829
10.8686635699
11.3940781069
13.1289503674
17.4229237071
19.7974567539
18.779004283
16.966178896
17.8589598545
17.1087589814
13.9211951285
14.0967750815
14.2732244247
14.544959536
14.436677462
14.3157462071
14.1659270034
14.2409669201
14.2856761577
14.4508972268
14.6930629841
15.042638768
15.4817652897
15.9293753058
16.1995925985
16.4766415675
16.8672082912
17.2799660508
17.5790503786
17.6954820176
17.7951468638
17.9139631874
18.0015170531
17.8399428559
16.7677625377
10.2526621206
0
5.62548277923
5.18009152211
0.0713701696815
0.00019571640162
0
0
0
0
0
0
0
0
0
0
0
0
0
7.96020350521e-08
7.9101933396e-07
1.73408576928e-05
0.000840834210533
4.6693453115
71.9669177365
44.7719480599
11.3136982667
11.5029324834
19.7435495319
14.4274841362
12.2928824392
11.7838823456
12.9755851952
13.1744858258
17.1840148383
18.8284207727
16.7917712046
15.3448512035
13.1647663075
13.2963643482
14.5831817585
12.6273389604
11.4922635692
11.068763235
10.7671688662
10.8649309862
11.1037488046
11.5624224491
13.0041404719
17.2858089426
20.1492637878
20.438751985
15.7798894581
16.0074832864
14.6610289285
14.0113068508
14.2680898961
14.8122408885
15.0290178547
14.8760198052
14.7408553385
14.8408648323
14.5971553949
14.6148837391
14.7338598392
14.9352221796
15.4024138604
15.8963171127
16.3539224612
16.5802912018
16.9949369023
19.0017055201
21.757021514
22.6218493855
20.8200298097
20.6183535553
20.8294489728
21.128336056
21.1060537733
19.5462536546
18.471756802
1.41227361272e-05
0.0142711998122
0.00023286665198
0
0
0
0
0
0
0
0
0
0
0
0
0
0
0
0
0
0
1.22982648513e-06
8.32818182733e-06
0.00153578577713
57.9505431546
11.5905931425
11.7520657457
19.4030337036
13.3183096474
12.182941765
12.0798923386
13.8649150407
12.767530543
17.9597733374
19.4394218386
17.1897264771
15.6997315368
13.5035040302
15.8397047245
15.3284581635
13.1215675637
12.1275078442
12.2017629411
11.4182681122
11.3723781676
11.4476901388
11.7423823484
13.0526914879
17.1329622609
19.9798197563
21.553888398
19.5554171324
18.0797041722
16.6077876735
14.3717814418
14.6020118981
15.6839132457
15.2701983742
15.2576418282
15.7448966719
15.2952890351
15.0738473769
15.0655964436
15.1750539333
15.3527622912
15.6225070189
16.1909907159
16.890758989
18.1486829822
20.0386494008
22.6681103419
24.6135600218
24.5758998959
24.8662962715
26.4048079927
28.6080125286
31.8606074296
33.3517095545
31.3527766478
26.6541729666
15.2680894041
0
0
0
0
0
0
0
0
0
0
0
0
0
0
0
0
0
0
0
0
0
0
3.78415626897e-06
97.5041235222
11.9764168216
12.1279221096
18.8244574861
12.5161416017
12.2917055791
12.2989517617
14.5869059991
12.9965134269
18.5657560775
20.0351641314
17.5963928045
16.0811359426
13.8017749489
16.411894799
15.9995071024
13.6892063359
12.7419643036
12.990169741
12.2228608486
12.1139085305
12.0307822888
11.9160167053
13.2844355758
17.0966668917
19.6630140412
21.9137170679
20.8138604626
18.2307434397
14.8115161694
14.9154022026
15.3003107074
16.3314540903
16.5954476764
16.6337845141
16.5435111471
15.7983346262
15.5921717022
15.627844624
15.7150362337
15.906863454
16.1478462227
16.7962012718
18.1075192021
20.643441606
22.294876352
22.5584340135
23.6579785126
24.7330578596
28.6364525006
33.2300389672
39.8807035403
44.0093036472
45.056990015
42.842876389
4.06490228598
0.0984191036166
0.000330359523547
0
0
0
0
0
0
0
0
0
0
0
0
0
0
0
0
0
0
0
0
0
6.35940188207e-07
8.41406954453e-07
12.631873513
12.7884529739
18.157315776
12.4845429217
12.7474550486
12.6318228088
14.1976176818
13.6500360043
18.9096813984
20.5821267577
18.0429673947
16.5231578139
14.2553961548
16.9571353183
16.6301465026
14.4046718612
13.4528768655
13.7791072329
12.9851523794
13.0112858532
12.9597071141
12.2818511548
13.7440950227
17.2178243717
19.5057142776
22.0064053655
21.2395339979
18.4754702579
14.9672867399
15.0297498089
16.1570555761
15.9797384486
16.0002275952
16.4153525703
17.5074572882
16.7672572814
16.4839062358
16.2140834285
16.2428739166
16.5579203855
16.940234286
17.6350930724
20.5710543079
23.323009459
23.3210013494
23.4856558293
25.2034997137
30.4796246029
37.2822935895
43.3310314426
47.8866847171
43.7530980944
16.8540348304
0.00557353981879
3.49709733523e-05
7.08833289281e-05
1.08850342991e-05
0
0
0
0
0
0
0
0
0
0
0
0
0
0
0
0
0
0
0
0
0
4.70042056779e-08
2.13432286337e-07
13.687005017
13.7699743268
18.0763479339
13.2509136099
13.9028172527
13.3504155909
14.1049329577
15.1082506413
18.6035398752
20.9068353867
18.5646441087
17.0510085522
14.8395452955
17.5798240905
17.2947955555
15.319568874
14.4025628842
14.7654623222
13.7450485922
14.0298064278
14.282296919
12.9581994752
14.2102635658
17.4833203074
19.5225674773
21.7647294679
21.4016917117
18.7691485569
17.7743846703
15.9698232579
16.6620788655
17.3512238687
18.3127953278
16.8495680468
17.1520767823
17.9252854973
17.3480217519
17.3483057306
17.1434326809
17.2231150371
17.7072585971
20.3124928839
24.4997173907
25.3926016954
24.7667549844
26.4003217573
32.8508175948
41.5844596037
47.5645939985
46.537703507
36.2048328349
0.0581064030976
0.000397583164876
0
0
0
0
0
0
0
0
0
0
0
0
0
0
0
0
0
0
0
0
0
0
0
0
0
0
0
15.2449123365
14.9800258751
18.5096815357
15.2293081136
15.9983742877
14.4997680462
14.815595364
17.3040505923
18.4924512759
21.3484747729
19.2309440257
17.6812890887
15.5384835999
18.2354160763
17.953467033
16.3536812507
15.9724690259
16.1173282792
14.5860356043
15.1916938644
15.9707273777
14.0555907506
14.4679476333
17.799342514
19.708464273
21.4916790973
21.5533357236
18.6634873206
18.9559303722
17.7044808311
17.9339506822
16.3480580111
17.0778774795
18.5011794295
18.0284184655
18.2399741357
18.2517563127
18.1659432546
18.3043176904
18.3162845619
19.9650535813
25.0070371529
27.8564176068
27.8168669086
28.4756227475
33.515984378
42.807599926
48.5646183346
38.0203270571
17.7500427518
0.0970975109465
0.000444597122373
0
0
0
0
0
0
0
0
0
0
0
0
0
0
0
0
0
0
0
0
0
0
0
0
0
0
0
0
16.9426800061
16.0974001107
19.0443851237
18.0334502725
17.6690978815
15.9045900359
15.6248991329
18.3614538895
16.9805681055
21.6364334173
20.0301053237
18.4074539092
16.3460148359
18.9081297361
18.5622151704
17.1938660129
18.412324183
17.7735405714
15.5624033191
16.5604047768
17.3459694697
15.5223736929
14.2417308316
17.6652653563
19.7966138109
21.2411557539
21.5425909217
18.6199093557
19.1508130589
19.0212208716
19.0610872379
16.9803414259
17.55804733
17.8204215506
18.9530981162
19.4688125391
19.4397666529
19.2368454598
19.2247076652
20.224231088
24.9525206801
29.6881560223
31.3723992078
31.9723704831
34.7415924884
41.2741511402
44.0159224522
28.1357456256
21.5756712647
0.216503930272
0.00075823853106
0
0
0
0
0
0
0
0
0
0
0
0
0
0
0
0
0
0
0
0
0
0
0
0
0
0
0
0
0
17.6522942219
16.8748099674
19.3295862451
18.939699102
18.5951628671
17.2778531258
16.70373945
19.696331749
17.873790596
22.0563153623
20.8333777118
19.1872575687
17.2532823149
19.6181206266
19.2023950492
17.9071974182
19.2768627431
18.7414149787
16.5418190156
17.9637271486
17.9243546141
16.079311674
15.3964870861
15.566979068
19.2527117549
20.652569977
21.2449432774
18.5300420209
19.102206981
19.4098560136
19.8975819532
19.229341827
17.2041968252
17.6147527034
19.0373563364
20.2678627823
20.7434748444
20.9140231045
20.8993183106
24.7644987595
30.4583217206
33.9870615486
35.1389466583
36.4163144917
39.9268374036
38.3191365272
23.6260274787
24.5510630869
0.711673984755
0.00202688435262
0
0
0
0
0
0
0
0
0
0
0
0
0
0
0
0
0
0
0
0
0
0
0
0
0
0
0
0
0
0
17.5439424683
17.4034716619
19.5152310067
19.0052437181
19.1946439634
18.3631605594
17.6616853944
20.9995761174
19.5903491986
22.6256924474
21.6915336282
20.0028308832
18.2507665195
20.3786614822
19.9214540371
18.7877267871
19.9620338523
19.590139925
17.6278058597
18.8912928833
16.9446651147
16.6712525993
16.3464384638
16.7659264166
17.7227910271
18.5063680181
20.3082515415
18.3983407821
18.3085190592
19.2878275796
20.2237749027
20.5466668895
18.8616622657
18.2844840757
18.8102339589
19.955362818
21.3718789493
22.6395780344
24.3006395176
30.0855999358
35.1037126084
37.592807558
37.9073513664
38.0679580367
32.9461210424
25.1603881529
25.2048932176
2.47203923556
0.00553759913643
0
0
0
0
0
0
0
0
0
0
0
0
0
0
0
0
0
0
0
0
0
0
0
0
0
0
0
0
0
0
0
17.6971950961
17.7914131499
19.7235605732
17.5826071231
19.4018443154
18.9245601508
18.3034533902
21.4673836253
20.308883913
23.2507141675
22.6160357926
20.8349762352
19.3533171035
21.1775314714
20.6912055287
19.8146265337
20.6831561671
20.5526510773
18.8311446261
20.2024515115
18.2340687856
18.4772815853
17.5512999042
17.973392754
19.8031470329
20.3878886624
19.888674766
18.2329480585
17.5578208559
19.1926583643
20.1879716189
20.6697737957
20.5907173776
19.3112154902
20.6944513931
20.700731723
21.9242161667
24.3733486124
28.6131094062
34.8909643408
38.8989311083
40.0575386561
37.6124615739
29.8257351737
27.3402236529
27.5445860942
18.2912720078
0.0472236592801
0
0
0
0
0
0
0
0
0
0
0
0
0
0
0
0
0
0
0
0
0
0
0
0
0
0
0
0
0
0
0
0
18.370738606
18.4460668808
19.8968122994
17.932830428
19.5591144107
19.1798912696
18.7582996175
21.5071612536
20.8345218705
23.6932667253
23.5597256216
21.6362088018
20.5608030041
21.976807636
21.442260494
20.8238394824
21.3610613209
21.6161110875
20.0909401199
21.4934963269
20.0141609959
20.7136512667
20.3403876687
18.6459189841
20.2581137743
21.3678752262
21.4616291247
18.1112071022
16.6743786728
19.0747613082
20.2936150231
19.8485021669
19.8826970084
19.5266226099
20.5827279712
21.0523852964
22.6476725263
26.2497289133
32.8753667131
39.3543613103
42.133964916
40.7295388588
30.8816959738
28.0384014029
28.8781982548
25.4213063734
0.329073022798
0.00133439842363
0
0
0
0
0
0
0
0
0
0
0
0
0
0
0
0
0
0
0
0
0
0
0
0
0
0
0
0
0
0
0
0
19.2347403388
20.6380139724
20.1892043497
18.9413358531
20.0278360616
19.49276945
19.2013006882
21.5307166003
21.3382370853
23.751242398
24.5135742446
22.380335372
21.6366232529
22.5830140914
22.1805997977
21.548493478
21.3473360005
22.6031232901
21.4792880992
22.6079290871
22.1329245742
21.9085902495
21.6162305312
21.144622292
20.096576752
21.0241761341
22.3888720148
17.0987284761
16.1317650333
18.1306613109
20.2637998854
20.6048713674
21.1102437007
19.4730729116
20.2628363665
21.2684716652
22.9931693213
27.9801984055
36.8645655252
43.4217042516
44.8177258317
36.5954017706
29.9288037511
31.2204245277
29.8800560295
2.23048679933
0.00569273880326
0
0
0
0
0
0
0
0
0
0
0
0
0
0
0
0
0
0
0
0
0
0
0
0
0
0
0
0
0
0
0
0
0
19.8701390632
21.3035952418
20.8318769858
19.8410901448
20.6951387159
20.0250126794
19.7214196501
21.6542103927
21.8501479293
23.5165441978
25.3828381443
23.1497160458
22.2365157723
23.079163629
23.0493699664
22.2093134301
21.3311782791
23.2890795621
22.9995566797
23.5696609411
23.4031784573
23.4542558737
21.628810886
21.6086441004
21.032959282
22.8386836767
23.7059660765
19.8435815634
15.6745994079
16.9421924923
19.6108196145
20.9249802535
20.9902835012
20.0858216235
19.7388966037
21.3255833231
22.9066547351
29.3387801463
40.4814367499
47.4583228708
44.2710230148
30.839363633
31.7792255226
33.5939005088
26.4904388262
0.0657668216961
0.000221013870456
0
0
0
0
0
0
0
0
0
0
0
0
0
0
0
0
0
0
0
0
0
0
0
0
0
0
0
0
0
0
0
0
0
20.3560957859
21.6413080585
21.4156479862
20.4511227727
21.3720570218
20.7378233258
20.3336450588
21.9678750963
22.4371788042
22.8713433408
25.9649625871