/*--------------------------------*- C++ -*----------------------------------*\
| =========                 |                                                 |
| \\      /  F ield         | OpenFOAM: The Open Source CFD Toolbox           |
|  \\    /   O peration     | Version:  v1806                                 |
|   \\  /    A nd           | Web:      www.OpenFOAM.com                      |
|    \\/     M anipulation  |                                                 |
\*---------------------------------------------------------------------------*/
FoamFile
{
    version     2.0;
    format      ascii;
    class       volScalarField;
    location    "883";
    object      p;
}
// * * * * * * * * * * * * * * * * * * * * * * * * * * * * * * * * * * * * * //

dimensions      [0 2 -2 0 0 0 0];


internalField   nonuniform List<scalar> 
6400
(
0.143065538366
0.143068897873
0.143078540746
0.143097534132
0.143126078348
0.143164231681
0.143211958882
0.14327035314
0.143340707672
0.14342511235
0.143529924598
0.143658581084
0.14380870457
0.143980223811
0.14417509307
0.144396034659
0.144645061937
0.144922412679
0.145225957917
0.145550363381
0.145890504639
0.146248388146
0.146631904998
0.147049102149
0.147504839724
0.1479990409
0.148528379886
0.149090232681
0.149684037633
0.150310246669
0.150969077589
0.151658431806
0.152372402394
0.153104925108
0.153853003619
0.154614161235
0.155388851827
0.156181991151
0.156991900349
0.157810286627
0.158637440045
0.159483595089
0.160353537366
0.161239218809
0.16212933895
0.16301547626
0.163891091873
0.164750850532
0.165589812968
0.166403537169
0.16718809483
0.167937549661
0.16864257164
0.169292458805
0.169884110116
0.170419791362
0.170894851426
0.171300598776
0.1716349449
0.171904201541
0.172114790871
0.172271086205
0.172378820475
0.172454374609
0.172519212791
0.172589046682
0.172662404308
0.172723828474
0.172765282059
0.172789690793
0.172801896585
0.172805530966
0.172802759878
0.172795559964
0.172785049418
0.172772954695
0.172760596419
0.17275138523
0.172744857228
0.172741994595
0.143060719601
0.143064311217
0.143073143603
0.143091682848
0.14312167749
0.143161241344
0.143209424697
0.143266082049
0.143334405708
0.143418530225
0.143522985817
0.143650678282
0.14380108504
0.143973496548
0.144168481587
0.144388076434
0.144636305884
0.144914252546
0.145218963087
0.145543746853
0.145882036163
0.146237988594
0.146621032644
0.147038374994
0.147494624666
0.147989554241
0.148519282654
0.149081770386
0.149676509916
0.15030346952
0.150962518121
0.151652381317
0.152367304577
0.153100034821
0.153848278193
0.154609800304
0.155384645164
0.156178450015
0.156989657002
0.157809247092
0.158636587583
0.159483748166
0.160356623353
0.161244601218
0.162136086603
0.163023718151
0.163900954259
0.164762614554
0.16560342903
0.166417986261
0.167202310494
0.167952921557
0.168661640637
0.1693135246
0.169906725887
0.170444515611
0.170918405659
0.171321751029
0.171655365593
0.171923467567
0.17213148226
0.172286503762
0.172394280635
0.172470902069
0.17253704615
0.17260729526
0.17268043919
0.172739338602
0.172777821218
0.172799884651
0.172810131333
0.172812039575
0.172807445149
0.172798061957
0.172785876361
0.172772501495
0.172759783052
0.172749772784
0.172742844384
0.172740387955
0.143047046081
0.143052915193
0.143061055893
0.143078173861
0.143107174464
0.143150875281
0.143202584886
0.143257652337
0.143322920096
0.143405322743
0.143508926699
0.143636094038
0.143786806201
0.143960024516
0.144155030251
0.144371369586
0.144617205111
0.1448992287
0.145206640496
0.145529963941
0.14586434475
0.146215702444
0.146598037015
0.147017584811
0.147474856258
0.147969887724
0.148500837257
0.149065101152
0.149661438218
0.150289734709
0.150949717941
0.151640756147
0.152357666743
0.15309042282
0.153837905356
0.154601009137
0.155376606425
0.15617046759
0.156983362588
0.1578064373
0.158639600847
0.159491416769
0.160365400763
0.161254250594
0.16214779974
0.163038087317
0.163918624886
0.164783808861
0.165628278645
0.166446958653
0.167235388152
0.167988205096
0.168696673195
0.169351821089
0.169951086297
0.170490609791
0.170962863038
0.171364384859
0.17169615362
0.17196193531
0.172167555294
0.172319448441
0.172426430415
0.17250645722
0.172578303166
0.172650345361
0.172717699134
0.172769814791
0.172803482118
0.172821456331
0.172827939043
0.17282575801
0.172816856019
0.172803533178
0.172788155232
0.172772365536
0.172757986624
0.172746522501
0.172738985389
0.172736043194
0.143027140245
0.143033235172
0.143040435482
0.143056308836
0.143081989306
0.143125664241
0.143189863917
0.143245225575
0.143305887897
0.143385296335
0.143487459709
0.143614331523
0.143765739581
0.143939079873
0.144133905989
0.144353812841
0.144603130964
0.144882314709
0.145181666038
0.145494731834
0.145825617376
0.146180466676
0.146565314825
0.146985754969
0.147444251171
0.14794078764
0.148473616404
0.149040096103
0.149638736456
0.150268951207
0.150930978662
0.151623707675
0.15234237325
0.153077854067
0.153823775121
0.154585169566
0.155364181604
0.156159634721
0.156972683489
0.157800443776
0.158641605497
0.15950009768
0.160377755687
0.161269341111
0.16216631471
0.163060807103
0.163946128141
0.164816414297
0.165666210019
0.166490343991
0.167283750301
0.16804041482
0.168752615967
0.169413044357
0.170016718366
0.170557695426
0.171029558721
0.171429547212
0.1717588508
0.172021402217
0.172223324992
0.172372855099
0.172482868431
0.172570446865
0.172646556716
0.1727145456
0.172775124611
0.172819605946
0.172845350233
0.172855998087
0.17285555903
0.172846436635
0.172831074123
0.172811941196
0.172791107755
0.172771516107
0.172754675301
0.172739966636
0.172729470943
0.172725044973
0.142995766594
0.142997470568
0.143006290715
0.143022716074
0.143051251843
0.143092771818
0.1431522818
0.14321225595
0.143276491615
0.143356418972
0.143457444375
0.143584235894
0.143736929663
0.143915457656
0.144117215666
0.144337522084
0.144579840571
0.144846387634
0.145135510506
0.1454459578
0.145778184436
0.146134698298
0.146521357868
0.146943614492
0.147403825551
0.147902282191
0.148437227826
0.149006499467
0.149608141953
0.150241400631
0.15090566709
0.15160176013
0.152324167863
0.153058496239
0.153803985899
0.154565119791
0.155343846335
0.156142489664
0.156960242592
0.157794443194
0.15864386445
0.159510056272
0.16039339493
0.161289693491
0.162191734436
0.163091992395
0.163983653121
0.164860641301
0.165717370139
0.166548494896
0.167348537461
0.168111235364
0.168829399536
0.169495982182
0.17010445426
0.170647773832
0.171119976228
0.171518808921
0.171845766027
0.172105331404
0.172304891878
0.17245519632
0.172570882429
0.172664612689
0.172739754951
0.172803525678
0.172856647418
0.17289101349
0.172905195042
0.17290416076
0.1728927271
0.172873825194
0.172849866725
0.172822321668
0.172794238359
0.172768833033
0.172746041496
0.172724392165
0.172709984781
0.172704441386
0.142939334545
0.142939973946
0.142953927551
0.142971287142
0.143003115101
0.143047209307
0.143103438826
0.143164346363
0.143233767238
0.143316206844
0.143415988953
0.143543397987
0.143704768143
0.143891909521
0.144092918781
0.144307048917
0.144539660614
0.144797343935
0.145081587238
0.14538990013
0.145720650872
0.146077709207
0.146466412995
0.146891089272
0.147353637311
0.147853977253
0.148391721897
0.148964061792
0.149569764384
0.150206908599
0.150875460254
0.151573829699
0.152296699354
0.153034522702
0.153778296808
0.154537173144
0.155318238451
0.156121954597
0.156946081814
0.157787999455
0.15864634494
0.159521294038
0.160412171244
0.161315233616
0.162224178016
0.163131888293
0.16403153225
0.164916882545
0.165782219135
0.166622029162
0.167430578963
0.168201480703
0.168927638604
0.169601635672
0.170215832487
0.170762654952
0.171236521064
0.171635626436
0.171961946461
0.172220922992
0.172421475312
0.172575910409
0.172698123135
0.17279269444
0.172864971443
0.172922974165
0.172967211567
0.172988450263
0.17298629118
0.172967958356
0.172941167551
0.172909494046
0.17287368641
0.17283480956
0.172796781004
0.172761869291
0.172728728939
0.172698237212
0.172679180348
0.172670846622
0.142853665214
0.142860600401
0.142882768985
0.142907974383
0.142936411402
0.142981518033
0.143039792353
0.143103549094
0.143176997405
0.143262662382
0.143366825809
0.143498450609
0.143667639793
0.143854058071
0.144050563732
0.144256904578
0.144483386335
0.144738470756
0.145020476069
0.145324080397
0.14565238782
0.146010310979
0.146400891289
0.146827634873
0.147292928873
0.147797198044
0.148336640668
0.148912563853
0.149523182852
0.150167193585
0.150840000046
0.151539167569
0.152263229341
0.152998348911
0.153742609927
0.154503391398
0.155288692992
0.156098625885
0.156930293264
0.157780950579
0.158649048958
0.159533904913
0.160434078734
0.161345938476
0.162263743047
0.163180734398
0.164090133713
0.164985631176
0.16586140358
0.166711804772
0.167530925642
0.16831222296
0.169048384411
0.169731428532
0.170353003319
0.170905423243
0.171383576714
0.171786166183
0.172115681019
0.172378279351
0.172583761652
0.172744205071
0.172869318214
0.172962467715
0.173035219376
0.173086054311
0.173113516222
0.173113921034
0.173089213093
0.173048640628
0.173002335079
0.17295404995
0.172902422108
0.172849402475
0.172797560668
0.172747407887
0.172699207155
0.172658900049
0.172634449914
0.17262291341
0.142751861524
0.142764854941
0.142790061678
0.142825405343
0.1428569739
0.14290446318
0.142961579542
0.143028840041
0.143107399189
0.143191646128
0.14330478527
0.143449516034
0.143617336536
0.143800415586
0.143990474567
0.14419005243
0.144415606791
0.144670995783
0.144948395639
0.145247338002
0.145573754956
0.145932064451
0.146324324226
0.146754130133
0.147223075721
0.147730721115
0.148274320264
0.148851136188
0.149468841267
0.150122071859
0.150797438099
0.151495082961
0.152218136847
0.152952555602
0.15369753748
0.154463824578
0.155255606939
0.15607272774
0.156912788479
0.157773135859
0.158651964092
0.159547979954
0.160459177323
0.161381852896
0.162310559618
0.163238805808
0.164159904496
0.165067525451
0.165955777606
0.166818906934
0.167650852286
0.168444861908
0.169193279483
0.169887635805
0.170519300151
0.171080902587
0.171567950047
0.171979395103
0.172317354995
0.172587622154
0.172799890713
0.172964657164
0.173090105624
0.173183434991
0.173251909736
0.173297171385
0.173301308401
0.17327189314
0.173217870447
0.173149082587
0.173077278865
0.173006637609
0.172936084146
0.172866104998
0.17279484704
0.172722057275
0.172655209282
0.172603816359
0.172573926749
0.172560522006
0.142639039007
0.142655536231
0.142681303615
0.14271270147
0.142752031649
0.142808430018
0.14286668979
0.142936346224
0.143023688219
0.143114086622
0.143225986532
0.143379917512
0.143550926422
0.143728808393
0.143913277504
0.144112802213
0.144337971845
0.144590556046
0.144863684544
0.145160034415
0.145485191156
0.145843149731
0.146235671303
0.146667692969
0.147144023614
0.147654138342
0.148202370197
0.148786844365
0.149406942084
0.15006247565
0.150743920387
0.151447231294
0.15216269553
0.152894596761
0.153645248773
0.154419090142
0.155218698578
0.156044064335
0.156893422265
0.157764418152
0.158655067148
0.159563597336
0.160487550751
0.161423065796
0.162364801893
0.163306438172
0.164241396718
0.16516337165
0.166066423149
0.166944693876
0.167791975695
0.168601304298
0.169364737224
0.170073611913
0.170719545633
0.171295909873
0.171798721986
0.17222600725
0.172577439824
0.172857856383
0.173078209522
0.173247860779
0.173373836967
0.173461581598
0.173515495522
0.17354679922
0.173537877341
0.173470631828
0.173378788104
0.173272609072
0.173164581875
0.173065079775
0.172974668219
0.172886241649
0.172788412319
0.172682734436
0.172592398265
0.172529183144
0.172493677515
0.172479360402
0.142513269272
0.142531906906
0.142561860775
0.142592452861
0.142635063519
0.142692224103
0.142753458999
0.142823906222
0.142912521236
0.143020495259
0.143138240468
0.143293045197
0.143465470105
0.143640332068
0.143819678707
0.14402221688
0.144250704498
0.144498707719
0.144766716544
0.145060880337
0.14538592599
0.145744736956
0.146137991054
0.146569368876
0.147052209791
0.147570949845
0.148117587121
0.1487088288
0.149334676669
0.149995012544
0.150680504116
0.151383343538
0.152099219583
0.152830525529
0.153586594401
0.154368951804
0.155177622253
0.156012380746
0.156872032914
0.157754668481
0.158658298555
0.159580792158
0.160519282922
0.161469694256
0.162426685992
0.163384040512
0.164335286807
0.165274164959
0.166194684917
0.167090871344
0.167956382076
0.168784124781
0.169566111651
0.170293968093
0.170960159901
0.171559080669
0.172086530679
0.172537166809
0.172905798062
0.173199137948
0.173434062592
0.173614068261
0.173739622828
0.173811884389
0.173836894174
0.173827784029
0.173793479319
0.173717351044
0.173579947467
0.173419277911
0.173257903198
0.173124367601
0.173017813291
0.172915160638
0.172782318904
0.172623350602
0.17249998397
0.172424352346
0.172382535253
0.172367704215
0.142369070045
0.142386828682
0.14241957834
0.142455579835
0.142507071731
0.142559570752
0.142622188927
0.142695774573
0.14277761499
0.142895667316
0.143028491782
0.143184718579
0.14335807898
0.143534355362
0.143713589556
0.143917408297
0.144147735254
0.144393152292
0.144657473472
0.144948653196
0.145272957645
0.145634123632
0.146032857684
0.146464807082
0.146944116451
0.147475259465
0.148030688054
0.148622688035
0.149251119457
0.149908573915
0.150601234407
0.151308312666
0.152024300741
0.152759245775
0.153522208912
0.15431352874
0.155132119643
0.155977403883
0.156848454909
0.157743781808
0.15866158964
0.159599555679
0.16055443113
0.161521866288
0.162496460601
0.163472081494
0.164442372904
0.165401109934
0.166342215013
0.167259569395
0.168146741267
0.168996697968
0.169801822693
0.17055465549
0.171249043707
0.171880175453
0.172442164622
0.172924067984
0.173314436353
0.173628284725
0.173896751779
0.174098808861
0.174221868742
0.174264552893
0.174237565067
0.174159381743
0.174056105771
0.173963144083
0.173825463084
0.173595529721
0.17334466095
0.173171178171
0.173064485197
0.172970346801
0.172791404261
0.17252693045
0.172352248486
0.172269318474
0.172224112577
0.172214785734
0.142202167315
0.14221645307
0.142243263801
0.142288679528
0.142351269147
0.142405136911
0.142469808349
0.142550672598
0.142631762787
0.142747341397
0.142891974815
0.143052662197
0.143226544158
0.14340599319
0.143593054535
0.143800339852
0.144030066204
0.144273182688
0.144535585557
0.144824085722
0.145145038221
0.145504815949
0.145913317605
0.146357166527
0.146832440901
0.147364375096
0.147928917944
0.148520591853
0.149158325476
0.149821945145
0.15050941862
0.151215116892
0.151935368178
0.152679581057
0.153451625103
0.154252593173
0.155081898204
0.155938816007
0.156822485654
0.157731668789
0.158664875505
0.159619847015
0.160593023988
0.161579701042
0.162574385148
0.163571072259
0.164563555661
0.16554561086
0.166510992413
0.167453394845
0.168366376173
0.16924327476
0.170077444419
0.170862981507
0.171595086856
0.172268226957
0.172874944731
0.173401919101
0.173822655693
0.174168918268
0.174522701192
0.174771290414
0.174892231531
0.174887894107
0.174780755091
0.174597208866
0.174367485431
0.17420578484
0.174109840333
0.173802150068
0.173393381378
0.173175276788
0.173115968108
0.173108662704
0.172869696741
0.172338898339
0.172089650498
0.172041039994
0.172005187643
0.17202540645
0.142012138906
0.142023532281
0.142041443505
0.142092060436
0.142156395258
0.142218987318
0.142288552696
0.142377646302
0.142467324728
0.142582856044
0.142733124642
0.142897312963
0.143071577024
0.143250560406
0.1434480465
0.143666258499
0.14389640848
0.144137963285
0.144399876158
0.144687434595
0.145005030974
0.145358976109
0.145769248398
0.146234035821
0.146716885592
0.147239522436
0.147815495293
0.148414433827
0.149046316287
0.149714780425
0.150405959679
0.151112285171
0.151837292536
0.152590852542
0.153373556119
0.154185508037
0.155026537477
0.155896147635
0.156793737344
0.15771819788
0.158668173293
0.15964165816
0.160635044448
0.161643274727
0.16266069947
0.163681524063
0.164699790209
0.165709233056
0.166703296703
0.167675403015
0.168619228979
0.169528971623
0.170399722723
0.171227425098
0.172006896659
0.172728270065
0.173393993541
0.174009813717
0.174475535639
0.174884859273
0.175489456684
0.17578679424
0.175856927218
0.175737972962
0.175472026262
0.175103257808
0.174633768323
0.174297233071
0.174182498289
0.17405460609
0.173244597264
0.172987243331
0.173087853882
0.173442068641
0.173114531413
0.171950803542
0.171617231197
0.171745156433
0.171707676484
0.171823303968
0.141800123997
0.141813230678
0.14183647534
0.141876364241
0.141935440711
0.142003983987
0.142079787374
0.14217382136
0.142277012986
0.142396496479
0.142551583211
0.142719171216
0.14289543392
0.143074824193
0.143276363709
0.14350502684
0.143740445551
0.143984662321
0.14424814409
0.144536597153
0.14485323517
0.145202177437
0.145608543294
0.146086279918
0.146586054115
0.147107763327
0.147687763063
0.148296495728
0.148926445926
0.149593348499
0.150282550949
0.150991828052
0.151728089628
0.152493057747
0.153287362816
0.154111469496
0.154965553829
0.155849105163
0.156761754764
0.157702919233
0.158671347654
0.15966505855
0.160680551811
0.161712634484
0.162755564071
0.163803871474
0.164852003309
0.165893608798
0.166921589074
0.167928946961
0.168909658761
0.169859547719
0.170776400933
0.171657504136
0.172492251131
0.173261476362
0.174035235347
0.174858015465
0.175201638422
0.175125603029
0.175316386957
0.17553844908
0.175606959199
0.175504240525
0.175275312417
0.174964151071
0.174614048726
0.17430351257
0.174063533977
0.173677477742
0.173273675819
0.173199345465
0.173537866593
0.174437868685
0.174559570689
0.170435937558
0.170298447613
0.171382148708
0.171283688224
0.171690783458
0.141561215388
0.141576120116
0.141609968805
0.141640188234
0.141692934003
0.141763495951
0.141844489651
0.141944922001
0.142064224928
0.142187415843
0.142346378055
0.142517883964
0.142697902065
0.142881215278
0.143086157122
0.143320556133
0.143561835482
0.143811464266
0.144078695589
0.144369423012
0.14468732255
0.145035230809
0.145433855455
0.145911180709
0.146436486881
0.146968172106
0.147538658472
0.148162592033
0.148803365568
0.149458741696
0.150144251778
0.15086028063
0.151607272505
0.152384672302
0.153192079301
0.154029754691
0.154898076045
0.155797044715
0.156726302715
0.15768552011
0.158674025234
0.159689924663
0.160729631515
0.161787883595
0.162859071626
0.163938366816
0.16502091365
0.166100261866
0.167168348973
0.168217358462
0.169241906596
0.170240711779
0.171215273736
0.172161852986
0.17305467597
0.173841787079
0.174533342179
0.174740793513
0.174963002411
0.175137050347
0.17525402111
0.175405394934
0.175456028153
0.175355409946
0.17512892111
0.174813774173
0.174447592686
0.174076662747
0.173728684834
0.173366334832
0.173032529218
0.172849720556
0.172867557928
0.172906734417
0.171795855603
0.170895538094
0.171939058292
0.172803125349
0.170188772586
0.17178044721
0.14129074017
0.141305361503
0.141338872555
0.141371651801
0.141422502674
0.141495269115
0.14157955349
0.141681721493
0.141816594221
0.141952428335
0.142115240862
0.142291710052
0.142477457939
0.142667755103
0.142878040518
0.143116231303
0.143362488812
0.143618456114
0.143890831761
0.144185021925
0.144505119563
0.144854564493
0.145248341569
0.145719640546
0.146262714695
0.146814714325
0.147380303805
0.147999547595
0.148651880053
0.149314678964
0.149998586279
0.150718666705
0.151475369261
0.152265594275
0.153087132938
0.153939552525
0.154823484228
0.155739203338
0.156686692882
0.157665697282
0.158675938489
0.159716002954
0.160782265862
0.161869152662
0.162971215014
0.164084924784
0.165206937095
0.16633057738
0.167445716289
0.168543323026
0.169619386504
0.170677044761
0.171723305689
0.172759015158
0.173735509229
0.174090413154
0.174339505392
0.174593623
0.174810007594
0.174969864295
0.175060228434
0.175125570349
0.175107082184
0.174963879315
0.174705748232
0.174361372439
0.173962560527
0.173542182257
0.173122602107
0.172705201758
0.172294781943
0.171948007661
0.171692525126
0.171425385544
0.17093631377
0.170706604976
0.171092164664
0.17104758379
0.172061780573
0.173704596113
0.14099053713
0.141004572339
0.141039954627
0.14107405591
0.141126277028
0.14120045916
0.141287689369
0.141388379343
0.141527800623
0.14168162109
0.141853497186
0.142036853193
0.142230462489
0.142432061267
0.142648998765
0.142891297685
0.143142638421
0.143405679557
0.143684159608
0.143982942047
0.144306108139
0.14465762855
0.145049160109
0.145512562646
0.146059200305
0.146641024428
0.147219340962
0.147828084467
0.148477741961
0.149145548298
0.149835565974
0.150564365254
0.151331809386
0.152135078111
0.152971628342
0.153840259362
0.15474111704
0.15567503462
0.156642297627
0.157642921717
0.158676784925
0.159742957906
0.160838215529
0.16195656395
0.163092254807
0.164243522056
0.165409818474
0.166584570301
0.167754592596
0.168908854339
0.170043950493
0.171168296665
0.172298056968
0.173362253933
0.173597791632
0.17385372363
0.174142819892
0.174383452102
0.17456483412
0.174683530151
0.174732673037
0.174719105263
0.174620070044
0.174412324511
0.174098328836
0.1736974755
0.173234261879
0.172733396132
0.172214493989
0.171690604409
0.171152651583
0.170622066384
0.170139294521
0.169694227473
0.169260758684
0.168988810488
0.169276732044
0.170206981368
0.172282727192
0.174631025538
0.140663506868
0.140675977917
0.140707227065
0.1407460797
0.140804582424
0.140880689663
0.140972690524
0.141073936337
0.141214253916
0.14137981698
0.141560316347
0.141750368982
0.1419506838
0.142167324709
0.142395016464
0.142642104298
0.142899553762
0.143171431585
0.143457534128
0.143762218293
0.144089561209
0.144443703943
0.144834739535
0.145291842544
0.14583519573
0.14643786456
0.147040869327
0.147649456296
0.148291182968
0.148958553922
0.149656418232
0.150395108287
0.151174332061
0.151991150248
0.152843783648
0.153730401193
0.154650106131
0.155603721761
0.156592525029
0.157616557825
0.158676009892
0.159770639129
0.160897634611
0.162050446661
0.163221899752
0.164412708925
0.165629172559
0.166864732019
0.168097699813
0.169317241377
0.170517628225
0.171720788085
0.172846779042
0.173127265136
0.173385997498
0.173633904581
0.173882828481
0.174080451986
0.174209538977
0.174264462254
0.174239183025
0.174131446079
0.173931481341
0.17362807328
0.173222244791
0.172726838304
0.17215977831
0.171539284105
0.170880254997
0.170191869809
0.169477188471
0.168720136784
0.167938392259
0.167168770375
0.166435533542
0.165888858286
0.165895314582
0.166725990279
0.168932318439
0.170949191178
0.140313627862
0.140324788466
0.140350271989
0.140394436306
0.140458448371
0.140536351012
0.140632459926
0.140738752704
0.140877591238
0.141050243872
0.141237192765
0.141432783862
0.141637055895
0.141864243038
0.142108735422
0.142363898911
0.14262879075
0.142910944888
0.143207747471
0.143520738569
0.143854243824
0.144211837069
0.144604030775
0.145056977487
0.145592044318
0.146197720591
0.146827092244
0.147452980188
0.148095580891
0.148763267249
0.149464079401
0.150211088012
0.151002250071
0.151832205077
0.152702310001
0.153608721609
0.154548491032
0.155523806682
0.156536223713
0.157586118202
0.158673493902
0.159798525787
0.160959365734
0.162150311359
0.163364768147
0.164603726021
0.165872842124
0.167164512801
0.168466027644
0.169771330544
0.171047011929
0.172257796735
0.172577880593
0.172860817119
0.17311997465
0.17334638661
0.173536451671
0.173665708444
0.173716599772
0.173681316972
0.173554888398
0.17333392399
0.173013398707
0.172588327191
0.17205975507
0.171435806714
0.170728261649
0.169948886516
0.169106547767
0.16820466076
0.167243564828
0.16616943327
0.164971977426
0.163691404594
0.162339059946
0.160970068913
0.159704911243
0.158469205858
0.156792784965
0.153567770378
0.139942765299
0.139953808669
0.139977870494
0.140026824421
0.14009163256
0.140168917405
0.140264336097
0.140377378428
0.14051460001
0.140691964507
0.140884534655
0.141085600637
0.141294843895
0.141527075144
0.141786450792
0.1420538257
0.142328637004
0.142621103127
0.142929993694
0.143254617558
0.143597805392
0.14396061512
0.144355495768
0.144807319548
0.145335174459
0.145937148989
0.146581335164
0.147228056137
0.147876161887
0.148546810582
0.149256693083
0.150010923272
0.1508122014
0.151657012435
0.152545643159
0.153472953418
0.154434838563
0.155433858874
0.156471894855
0.157549846729
0.158667921397
0.159826583473
0.161025971086
0.16226317333
0.163528907842
0.164815053233
0.166127659546
0.167473000003
0.168858052709
0.170296197954
0.171613658631
0.171962849199
0.172259616893
0.172542990401
0.17277902076
0.172957358807
0.17307248075
0.173110683417
0.173058865353
0.172909698709
0.17265900217
0.172303836793
0.171841263946
0.171268904081
0.170587278258
0.169800453997
0.16891417649
0.167933171446
0.166858640891
0.165685783782
0.164406772899
0.162939439152
0.161205637737
0.15919968158
0.156863251555
0.154072787567
0.150640561399
0.14627587175
0.140880338539
0.139310806442
0.139547743404
0.139559339838
0.139584608242
0.139638558413
0.139703511973
0.139779277783
0.139871315179
0.139988934566
0.140122699007
0.140303043213
0.140501336217
0.140708114895
0.140923553006
0.141162100678
0.141431708337
0.141711725561
0.141998572446
0.142302241166
0.142622602136
0.142960207724
0.143316760582
0.143687729062
0.144086630121
0.144539939945
0.145063205838
0.145659399858
0.146308893047
0.146971686665
0.147636734942
0.148315317047
0.14903368394
0.149797626233
0.150607424362
0.151462628518
0.152367688752
0.153319033372
0.154306928273
0.15533250972
0.156398192362
0.157506229236
0.158658149943
0.159855233746
0.161101285429
0.162392603
0.16370752695
0.165034276889
0.166388402551
0.167796898092
0.169308524125
0.170952447018
0.171321578381
0.171610868138
0.171905553148
0.172158298042
0.172341464248
0.17244627467
0.172466300302
0.1723924619
0.172216159118
0.171931865007
0.171536302899
0.171027145012
0.170402237053
0.169659631491
0.168798288903
0.167818086722
0.166718422864
0.165495894986
0.164141487149
0.162637017253
0.160949967083
0.159023422444
0.156679197436
0.153770115798
0.150141802616
0.145399371959
0.138733349848
0.128357166766
0.1091098092
0.0627990426879
0.139120723115
0.139132801369
0.139161464301
0.1392211063
0.13928708275
0.139361952776
0.139452826061
0.139572101471
0.139701661542
0.139882359518
0.140086023368
0.140298502886
0.140520254127
0.140765361254
0.141043298409
0.141335440881
0.14163681679
0.141953105094
0.142284600083
0.142634970911
0.143007493993
0.143390605804
0.143794540552
0.144251035618
0.144773334009
0.145363703075
0.14601180584
0.146680588218
0.147366371516
0.148066965381
0.148794351313
0.149564009038
0.150385395048
0.151256334649
0.152173504416
0.153144237228
0.154160235706
0.15521579781
0.156313241874
0.157454391413
0.158642793103
0.159885555889
0.161189736228
0.162538520253
0.163899035668
0.165267498744
0.166676342011
0.16817276679
0.16963764136
0.170749796722
0.17102045975
0.171254011206
0.171499132287
0.171688825115
0.171790717001
0.171796288604
0.171699490956
0.171493948429
0.17117427208
0.170736791731
0.170179077075
0.169499080267
0.168694484917
0.167762408218
0.166699303864
0.165500455203
0.164158584921
0.162661595642
0.160989518975
0.159110451658
0.156974357849
0.154511617793
0.151505179362
0.147643131816
0.142642423779
0.135915175915
0.126243617768
0.111224130888
0.0859737131187
0.0440397092572
0.13865060004
0.138663070879
0.138695061142
0.138760861662
0.13882773894
0.138905404473
0.138997183866
0.139116481725
0.139245408075
0.139427566422
0.13963668286
0.139854741119
0.140082595112
0.140333748476
0.14061831138
0.140920266273
0.141238545031
0.141569931215
0.141913455964
0.142276433177
0.142665614254
0.143066263907
0.143477528358
0.143936755378
0.144461486714
0.145048822391
0.145694306967
0.146364149179
0.14706019462
0.147787050214
0.148538703786
0.1493189512
0.150140853689
0.151023223065
0.151961275646
0.152951795202
0.153993716501
0.155080739816
0.156212459218
0.157391119147
0.158622820924
0.15992285801
0.161291978438
0.162697041227
0.164111263775
0.165548674322
0.167069496034
0.168642825322
0.169914606563
0.17035607566
0.170608577483
0.170824757783
0.171006488917
0.171107618182
0.171104863341
0.170989837628
0.170757481675
0.170403744868
0.16992560721
0.169320917881
0.168587854643
0.167724229585
0.166726859687
0.16559105262
0.164310076072
0.162874278174
0.161269527105
0.159474795886
0.157458709821
0.155174592203
0.152553004157
0.149489700118
0.145832255602
0.14117870404
0.135008338723
0.126749256019
0.115299597704
0.0987763845641
0.0738578795175
0.0394994430562
0.138128577134
0.138143428973
0.138177025939
0.13824312977
0.138314725113
0.13840126139
0.138498654729
0.138621667244
0.138757631631
0.138937106202
0.139151025757
0.13937468716
0.139608671308
0.139865626978
0.140155680586
0.140463591651
0.140795301723
0.141145793694
0.141504716924
0.141882433044
0.142287436371
0.142710013571
0.143137547588
0.143597565901
0.144124752402
0.14471239043
0.145356559864
0.146027866021
0.146727570051
0.14747186361
0.148251247129
0.149055604874
0.149887493096
0.150772994852
0.151722781777
0.15273593648
0.153806077204
0.154926395267
0.156094136125
0.157314060176
0.158601117279
0.159969884799
0.161405127039
0.162873222045
0.164368300181
0.165921863646
0.167519416675
0.168856475113
0.169464273969
0.169806059483
0.17009282799
0.170290995463
0.17039412357
0.170390365393
0.170265963727
0.17001396501
0.169631511373
0.169117073008
0.168469615066
0.167688141791
0.166771112563
0.165715793636
0.164517621223
0.163169554937
0.161661300997
0.159978183569
0.15809940908
0.155995490508
0.153624547447
0.150926987097
0.147817699514
0.144174241693
0.13982072287
0.134470324237
0.127531084113
0.118264456546
0.105830568946
0.0888760029146
0.0649587345091
0.0346984163277
0.137560610874
0.13757944842
0.137613442354
0.137673182029
0.137752751745
0.137848881272
0.137955075601
0.138086399812
0.138236065399
0.138412305391
0.138627951137
0.138856442161
0.139096710041
0.139359798292
0.139655811118
0.139970294817
0.140309825081
0.140677614471
0.141055478694
0.141451933091
0.141873361641
0.142317796398
0.142773124348
0.143245937532
0.143769623876
0.144356630716
0.144999814351
0.145673726215
0.146375578518
0.147128504243
0.147927340947
0.148762667356
0.149618439769
0.150511475149
0.151467575164
0.152495102593
0.153591196823