/*--------------------------------*- C++ -*----------------------------------*\
| =========                 |                                                 |
| \\      /  F ield         | OpenFOAM: The Open Source CFD Toolbox           |
|  \\    /   O peration     | Version:  v1806                                 |
|   \\  /    A nd           | Web:      www.OpenFOAM.com                      |
|    \\/     M anipulation  |                                                 |
\*---------------------------------------------------------------------------*/
FoamFile
{
    version     2.0;
    format      ascii;
    class       volVectorField;
    location    "395";
    object      Ua;
}
// * * * * * * * * * * * * * * * * * * * * * * * * * * * * * * * * * * * * * //

dimensions      [0 1 -1 0 0 0 0];


internalField   nonuniform List<vector> 
6400
(
(5.19866167925e-05 7.21697945982e-05 0)
(0.000143709001779 5.64513277227e-05 0)
(0.000211129573391 4.69897705489e-05 0)
(0.000287671692829 4.30668365625e-05 0)
(0.000343592028676 2.84875303393e-05 0)
(0.000383696796641 1.64268876717e-05 0)
(0.000402867434862 1.18080094148e-05 0)
(0.000417302033637 1.84958625893e-05 0)
(0.000469740784788 2.7445852445e-05 0)
(0.000525236946035 2.69822098364e-05 0)
(0.000545421397637 2.43132801615e-05 0)
(0.000597320657116 2.71415957049e-05 0)
(0.000644718722936 2.59309738685e-05 0)
(0.000684448646786 2.23918133862e-05 0)
(0.000714124665786 2.06703725587e-05 0)
(0.000746270635627 2.32606184915e-05 0)
(0.000787895817341 2.44169114467e-05 0)
(0.000824329892976 2.23733778367e-05 0)
(0.000851363629565 1.87498530839e-05 0)
(0.00087607066377 1.69059331638e-05 0)
(0.000908609968975 2.17249648121e-05 0)
(0.000951029776882 2.75627938393e-05 0)
(0.0009984282059 2.96351273456e-05 0)
(0.00104308198074 2.99359375717e-05 0)
(0.00108650415456 2.87287978512e-05 0)
(0.00112872055996 2.69203128291e-05 0)
(0.00117192919034 2.67254969828e-05 0)
(0.00121352543153 2.60833043933e-05 0)
(0.00125087768363 2.45231956076e-05 0)
(0.00128459268926 2.32698143322e-05 0)
(0.00131461906214 2.35341626679e-05 0)
(0.00134709258648 2.33625358859e-05 0)
(0.00138092192994 2.21840053422e-05 0)
(0.00141195200622 2.30457839168e-05 0)
(0.00144262919659 2.3484781455e-05 0)
(0.00148097647013 2.41628225667e-05 0)
(0.00151889416256 2.59412170689e-05 0)
(0.00154153672391 2.53990426845e-05 0)
(0.00157768492272 2.4259092884e-05 0)
(0.00162368970195 2.55731408219e-05 0)
(0.00166568004628 3.21513091306e-05 0)
(0.00169955520351 3.34818729951e-05 0)
(0.00173059199668 2.46545434648e-05 0)
(0.00175726169602 1.8754350111e-05 0)
(0.00177718445711 1.65391752545e-05 0)
(0.00179338714822 1.4120669413e-05 0)
(0.00180520831591 1.18356999201e-05 0)
(0.0018110143245 8.69278540541e-06 0)
(0.00181139926329 6.04625708307e-06 0)
(0.00180743107185 8.11492288961e-06 0)
(0.0018054154505 1.53159687439e-05 0)
(0.00182278826781 1.51015944327e-05 0)
(0.00181598087499 -4.33763154473e-06 0)
(0.00179944621212 -1.30834866649e-05 0)
(0.00176072194571 -2.00536691178e-05 0)
(0.00166855460283 -3.63000083064e-05 0)
(0.00157414236252 -3.1819903907e-05 0)
(0.00152452474595 -1.92020110767e-05 0)
(0.00150304283076 -2.53736864425e-05 0)
(0.00139856748878 -3.03549022972e-05 0)
(0.00134168896509 -1.37788858681e-05 0)
(0.00126947282027 -2.85073559731e-05 0)
(0.00134315416221 -8.74284710767e-05 0)
(0.00104169592885 -8.66861220246e-05 0)
(0.00084005681728 -5.72142323943e-05 0)
(0.000744662856713 -3.8590053132e-05 0)
(0.000684111355637 -3.61385073538e-05 0)
(0.000635014876761 -3.5448757856e-05 0)
(0.000582980692986 -3.60829450679e-05 0)
(0.000515068376654 -3.7463825561e-05 0)
(0.000444511326042 -3.72955194196e-05 0)
(0.000368863769609 -3.48583472804e-05 0)
(0.000299732823245 -3.26239142785e-05 0)
(0.000250854692665 -3.22877081449e-05 0)
(0.000179191097811 -2.44844820214e-05 0)
(0.000148132454677 -2.03615793762e-05 0)
(9.36837380467e-05 -1.21405777655e-05 0)
(9.2434553657e-05 -1.50405291089e-05 0)
(3.878586215e-05 -9.77436039242e-06 0)
(2.85273561673e-05 -1.75835908011e-05 0)
(1.95099266345e-05 9.92340364501e-05 0)
(8.4205678279e-05 0.00011234484532 0)
(0.000147343449292 0.000103310631225 0)
(0.00018774472005 8.27385879653e-05 0)
(0.000275480753831 8.21233537332e-05 0)
(0.000359801461001 5.91261263257e-05 0)
(0.000410472850333 3.75334286966e-05 0)
(0.000445726272277 5.03014001642e-05 0)
(0.000483656137961 6.69003479628e-05 0)
(0.000526569061892 6.61275027308e-05 0)
(0.000568154843869 6.28734013058e-05 0)
(0.000606993074697 6.31283870871e-05 0)
(0.000643960261778 5.79818831547e-05 0)
(0.000678525087877 5.0574741222e-05 0)
(0.000714233028401 4.78315374102e-05 0)
(0.0007503761122 5.80055824878e-05 0)
(0.000787867858178 6.22663496653e-05 0)
(0.000818913263832 4.57699835427e-05 0)
(0.000819055084732 3.36188662787e-05 0)
(0.000849239532002 3.48978240018e-05 0)
(0.00089128936112 4.96858587657e-05 0)
(0.000940943902741 6.88404042802e-05 0)
(0.00099838740539 7.42049894168e-05 0)
(0.00104835307701 6.81333670951e-05 0)
(0.00107928966694 6.33118918727e-05 0)
(0.00112799152403 6.21012013231e-05 0)
(0.00117411036596 5.95897913945e-05 0)
(0.00121278528615 5.53161359069e-05 0)
(0.00124848858221 5.09858763685e-05 0)
(0.00128282298467 4.77301571941e-05 0)
(0.00131545350768 4.71441418647e-05 0)
(0.00133940814078 4.5703160916e-05 0)
(0.00137244291342 4.1259650148e-05 0)
(0.00140144612326 4.44034429327e-05 0)
(0.00142770462665 4.89834569558e-05 0)
(0.00147699962039 4.67849181136e-05 0)
(0.00150780469712 4.98035097568e-05 0)
(0.00153167616947 5.34746399437e-05 0)
(0.00157566682197 5.20629611311e-05 0)
(0.00163540260712 4.96482622065e-05 0)
(0.00168070714862 4.32160821499e-05 0)
(0.00163336074482 3.42184760643e-05 0)
(0.0016264767011 2.98808174145e-05 0)
(0.00165833494273 2.84085682175e-05 0)
(0.00168196349829 2.65199506138e-05 0)
(0.00171087182543 2.31396617251e-05 0)
(0.00174110485518 1.75120559537e-05 0)
(0.00176038536338 1.00713827979e-05 0)
(0.00178397184868 2.14105553746e-06 0)
(0.00179750572845 -4.18762695572e-06 0)
(0.00178552968236 -6.56689344569e-06 0)
(0.001733010661 -9.35274605751e-06 0)
(0.00168686196009 -1.52333598563e-05 0)
(0.00179775614204 -3.52250245912e-05 0)
(0.00174003838262 -7.26498390721e-05 0)
(0.00168801663098 -9.63962463568e-05 0)
(0.00170332935008 -9.05580056337e-05 0)
(0.0016719626758 -7.73501370207e-05 0)
(0.00162358333768 -8.9632455323e-05 0)
(0.00157926378354 -0.000108325081805 0)
(0.00155589008834 -0.000125326949339 0)
(0.00124021777466 -0.000133684227291 0)
(0.00133190640033 -0.000241930181763 0)
(0.00104371336503 -0.000253578301978 0)
(0.000852617263916 -0.000191382925064 0)
(0.000708957074029 -0.000130873722875 0)
(0.000629515039547 -9.74562979409e-05 0)
(0.000606602120493 -9.10012651678e-05 0)
(0.000558355825299 -9.82095436864e-05 0)
(0.000502117962616 -0.000109520540826 0)
(0.000427777802127 -0.000113010752813 0)
(0.000350498288134 -0.000105573172771 0)
(0.000275342270812 -8.86439637628e-05 0)
(0.000234538610264 -8.09753237885e-05 0)
(0.000189568767261 -7.05503514802e-05 0)
(0.000151929921109 -6.00548194809e-05 0)
(0.000117385070745 -4.79967135191e-05 0)
(8.83625094133e-05 -4.44072614033e-05 0)
(5.32211389133e-05 -4.35253112977e-05 0)
(2.389171896e-05 -6.73071812135e-05 0)
(2.89840679843e-05 0.000172176411221 0)
(8.15313225278e-05 0.000188184529671 0)
(0.000125209194101 0.000177683915154 7.99103256514e-29)
(0.000217503546401 0.000183034758013 -7.59695893193e-29)
(0.000305603791643 0.000183384262835 -6.86329766704e-29)
(0.000357773280258 0.000149017459324 6.30847873359e-29)
(0.000394268954191 8.28742531259e-05 -6.39571683659e-29)
(0.00043080490278 9.07386249125e-05 6.31250161201e-29)
(0.000471130426536 0.000110728093751 0)
(0.000516838875402 0.000114137979526 0)
(0.000562236174856 0.000108881374644 0)
(0.000602517147004 0.000102206223206 0)
(0.000639228611861 9.3935551412e-05 0)
(0.000672700128267 8.88670353039e-05 0)
(0.000707431595761 8.6879540789e-05 0)
(0.000743258929532 7.97214036809e-05 0)
(0.000676936366496 6.00907491616e-05 0)
(0.000661217099868 4.89368827817e-05 0)
(0.000691539228611 5.75401028669e-05 0)
(0.000751805236704 8.68703383299e-05 0)
(0.000879112016075 0.000121829305709 0)
(0.000955094322121 0.000133096576418 0)
(0.000985202986395 0.000125859036262 0)
(0.0010348550037 0.00011707036315 0)
(0.00108681901979 0.000111940669227 0)
(0.00112868943668 0.000108413959856 0)
(0.00116782495481 0.000101963204686 0)
(0.00120657451017 9.48884207034e-05 0)
(0.0012427303215 8.86785268945e-05 0)
(0.0012749029971 8.41449371959e-05 1.29365454361e-28)
(0.00131057449483 8.02498295795e-05 -1.25552326784e-28)
(0.00132789501568 7.67632366363e-05 0)
(0.00135613791978 7.32663580398e-05 0)
(0.00140377989995 7.18897084345e-05 0)
(0.00139605995103 8.19038112073e-05 0)
(0.00144473061055 9.00709567303e-05 0)
(0.00151161448476 8.81233119636e-05 0)
(0.00150961460759 9.25704769967e-05 0)
(0.00156156955855 0.000103192797836 0)
(0.00163049909714 9.79552719355e-05 0)
(0.00167847278625 7.03462870647e-05 0)
(0.00170660775059 4.94320113076e-05 0)
(0.00173214921004 5.14067451441e-05 0)
(0.00175696841347 5.54546511738e-05 0)
(0.00177721966432 5.40036902551e-05 0)
(0.00179349581347 4.94113443872e-05 0)
(0.00180638950829 4.06780361977e-05 0)
(0.00181596954106 2.98367683301e-05 0)
(0.00182246211209 1.68386321701e-05 0)
(0.00182560106085 -4.71563921298e-07 0)
(0.00182549001952 -1.86760400991e-05 0)
(0.00182141454901 -2.70590885306e-05 0)
(0.00181042192446 -2.07808123062e-05 0)
(0.00177273755901 -4.57681272774e-05 0)
(0.00171557766793 -8.95681438598e-05 0)
(0.00171550890948 -0.000106877388949 0)
(0.0016991760019 -0.0001103619167 0)
(0.00165529727515 -0.000119309986676 0)
(0.00159990460213 -0.00013741197435 0)
(0.00153857188126 -0.000169789155397 0)
(0.00145496662993 -0.000235428052146 0)
(0.00135690331468 -0.000306836546109 0)
(0.00129071555767 -0.000453447275572 0)
(0.00097056259074 -0.000438038104394 0)
(0.000738353886423 -0.000295895548121 0)
(0.000666513874367 -0.000210540336659 0)
(0.000624806054002 -0.000166954078095 0)
(0.000567956883541 -0.000150918806747 0)
(0.000512046507507 -0.000161105390835 0)
(0.000449286530448 -0.000176443891541 0)
(0.000377342436409 -0.00017735169727 0)
(0.000311786844085 -0.000161629494653 0)
(0.000266292746913 -0.000143621683963 0)
(0.000225207250752 -0.000130653711617 0)
(0.0001802558474 -0.000116893774675 0)
(0.000137847292355 -0.000100075889533 0)
(0.000101030708616 -8.33710252631e-05 0)
(7.33825074415e-05 -7.98109642499e-05 0)
(4.89162994216e-05 -9.36845208193e-05 0)
(1.20327730711e-05 -8.93538094415e-05 0)
(2.80475426453e-05 0.000258168878755 0)
(3.72504955469e-05 0.000171819795643 0)
(0.000102031812617 0.000269452088465 0)
(0.000189977668741 0.000273255478692 0)
(0.000262145272095 0.000232408529558 0)
(0.000146844682936 8.8994127371e-05 0)
(0.000183540460331 9.15747209612e-05 0)
(0.000350552779998 0.000171766076276 0)
(0.000439413577803 0.000183901284089 0)
(0.000496374713798 0.000169167175671 0)
(0.000550084394057 0.000157488987043 0)
(0.00059514245317 0.000143927752287 0)
(0.000633230365089 0.000130730658935 0)
(0.000659885782945 0.000109800171742 0)
(0.000624550184439 7.78390723185e-05 0)
(0.000594510769002 5.58784331976e-05 0)
(0.000601377899571 5.45725545446e-05 0)
(0.000650070891711 8.32564912268e-05 0)
(0.00075404095806 0.000133323275083 0)
(0.000861073367431 0.000184309987737 0)
(0.000901481056064 0.000195331029744 0)
(0.00094403527449 0.00018420515163 0)
(0.000993349986434 0.000173747970278 0)
(0.00103853908808 0.000165743319183 0)
(0.00108034834583 0.000156829726009 0)
(0.00111983773518 0.000147832445401 0)
(0.00115721985491 0.000139619719453 0)
(0.00119891398193 0.000131545531637 0)
(0.00123069864543 0.000123178258261 0)
(0.00127081789315 0.000116673110604 0)
(0.00128995658251 0.000109806767322 0)
(0.00133019397511 0.000103400435382 0)
(0.00133077204554 9.42838989532e-05 0)
(0.00136409071521 9.91746241667e-05 0)
(0.00142866620185 0.000115248804727 0)
(0.00142979420322 0.000128882066232 0)
(0.0014935618023 0.000136026694781 0)
(0.00156341466267 0.000142410787638 0)
(0.00160346005778 0.000149600388344 0)
(0.0016378779582 0.00013818551605 0)
(0.00167235764412 0.000110302918065 0)
(0.00170348224781 8.67424290343e-05 0)
(0.00173165724844 7.81130775786e-05 0)
(0.00175671459262 7.50634031158e-05 0)
(0.00177728359114 6.99698972314e-05 0)
(0.00179388465179 6.17541286092e-05 -1.20536421946e-28)
(0.00180707100346 5.03546888874e-05 1.2144170654e-28)
(0.00181692185626 3.64136679165e-05 0)
(0.00182341932565 1.99717212883e-05 0)
(0.00182628343594 9.759984639e-07 0)
(0.00182484544021 -1.81382082939e-05 0)
(0.00181696709761 -3.45250515732e-05 0)
(0.00179951010841 -5.30351839704e-05 0)
(0.00177080661048 -8.41061119945e-05 0)
(0.00173955489598 -0.000113154698746 0)
(0.00171162031357 -0.000131514306926 0)
(0.00167588408204 -0.000151813061525 0)
(0.00162339848778 -0.000177004375247 -2.39691465648e-28)
(0.00155358006942 -0.000211138007677 2.7704302947e-28)
(0.001464448652 -0.000263108343529 0)
(0.00135135172827 -0.000339750215807 0)
(0.00122201997653 -0.000445075449064 0)
(0.0011075405051 -0.000596479239823 0)
(0.00094974478457 -0.000619017398301 0)
(0.000787706709696 -0.000454979201798 0)
(0.000634939681468 -0.000283428390214 0)
(0.000565477348974 -0.000221168067383 0)
(0.000514471723759 -0.000210143265492 0)
(0.000462377434005 -0.000222156328702 0)
(0.000412927128797 -0.000243852541921 0)
(0.000352984691701 -0.000246654095099 0)
(0.000293062782931 -0.000226065944649 0)
(0.000238199922576 -0.000198836945582 0)
(0.000181280439153 -0.000170610360026 0)
(0.000139485221536 -0.000153885528585 0)
(0.00010229603268 -0.000140958845682 0)
(6.67311506148e-05 -0.000118074454403 0)
(3.63957085099e-05 -8.67783084515e-05 0)
(2.57817816122e-05 -0.000101167283744 0)
(8.30533764642e-06 -0.000112295729328 0)
(1.11600199092e-06 0.000255022318565 0)
(1.8049858681e-05 0.000209467510498 0)
(9.23549308752e-05 0.000354489948154 0)
(0.000160711422203 0.000328297917279 0)
(0.000168175280757 0.000212958587174 0)
(0.000132400062927 0.000119331995385 0)
(0.000229534048143 0.000197969099833 0)
(0.000358741586387 0.000284159389024 0)
(0.000409535812968 0.000258789434984 0)
(0.00047145366439 0.000230210601946 0)
(0.000528670930227 0.000214713788426 0)
(0.000576724835552 0.000191075615253 0)
(0.000582300803973 0.000140109850555 0)
(0.000533298123203 8.62143882993e-05 0)
(0.000548531237417 6.94920257466e-05 0)
(0.00059048030469 8.09827651961e-05 0)
(0.000662741825742 0.000117712371887 0)
(0.000755259696057 0.000174441563175 0)
(0.000825331555112 0.000218705449758 0)
(0.000849117377591 0.00022834399356 0)
(0.000890530043462 0.000232687561129 0)
(0.000942370694557 0.000232374862843 0)
(0.000986988812827 0.000222183709586 0)
(0.0010300132979 0.000209238875289 0)
(0.00107027151727 0.000197149689969 0)
(0.00110735124898 0.000187333279161 0)
(0.00115012633629 0.00017800284054 0)
(0.00117923218909 0.000167242487402 0)
(0.00122607414649 0.000158229146312 0)
(0.00124154876348 0.00014659852778 0)
(0.00129244558869 0.000139088655022 1.23551137357e-28)
(0.00127610885409 0.000126223237598 -1.15506080115e-28)
(0.00133475792294 0.000127827009426 0)
(0.00138941636571 0.000136015442874 0)
(0.00139808954547 0.000151570929589 0)
(0.0014732368998 0.000178975641549 0)
(0.0015239707185 0.000195388403626 0)
(0.00156704338174 0.000192834613056 0)
(0.00160367561426 0.000183402745004 0)
(0.00163701038857 0.000167464467725 0)
(0.00167050747576 0.000143627044591 0)
(0.0017025820539 0.000121045955933 0)
(0.00173173027094 0.000106975343346 0)
(0.00175714618537 9.78610998725e-05 0)
(0.00177822693552 8.83986382137e-05 0)
(0.00179540357568 7.65742042215e-05 0)
(0.00180905177699 6.19346445813e-05 0)
(0.00181916757441 4.45917824804e-05 0)
(0.00182547605623 2.4457174204e-05 0)
(0.00182741230832 1.58575673888e-06 0)
(0.00182398230868 -2.29464578855e-05 0)
(0.00181331201528 -4.84643152757e-05 0)
(0.00179346377288 -7.7222693288e-05 0)
(0.00176457673759 -0.000111027317925 0)
(0.00173092521055 -0.000143309188408 0)
(0.00169367960429 -0.000172834997912 0)
(0.00164512849259 -0.000207340067141 0)
(0.00157688869253 -0.000251447337104 0)
(0.00148465977905 -0.000308520572549 0)
(0.00136785378034 -0.000382791723008 0)
(0.00123291430112 -0.000475414110973 0)
(0.00110001330757 -0.000585310561054 0)
(0.000984688969788 -0.000702771687155 0)
(0.000911500906713 -0.000738625876344 0)
(0.000787873485834 -0.000589472586285 0)
(0.000643746025087 -0.000403706323462 0)
(0.000551306354354 -0.000313002830186 0)
(0.000474510383712 -0.000279038355324 0)
(0.0004113915594 -0.000279327478551 0)
(0.000359697319235 -0.000297995826207 0)
(0.000307032899917 -0.000308698121347 0)
(0.00024735131218 -0.0002868946568 0)
(0.000185341603544 -0.000241269741678 0)
(0.000141520811936 -0.000214647856809 0)
(0.000101428748764 -0.000198696520234 0)
(6.4969860393e-05 -0.000178812112857 0)
(3.76768242482e-05 -0.000136380732188 0)
(2.184848833e-05 -0.000106071154868 0)
(1.16698646041e-05 -0.000121190196601 0)
(2.10531558257e-06 -0.00012009508417 0)
(-1.69875399394e-06 0.000236929900376 0)
(2.2761691411e-05 0.000254768236582 0)
(9.32736522866e-05 0.00040296395288 0)
(0.000129723389491 0.000334504395545 0)
(9.57113843084e-05 0.000164808751204 0)
(0.000132305225016 0.000170531937577 0)
(0.000289253856859 0.000323402643096 0)
(0.000343205792609 0.000342246782978 0)
(0.000387174234775 0.000315203280132 0)
(0.000441460723062 0.000291044931186 0)
(0.000496903223582 0.000256054378458 0)
(0.000461786151458 0.000178175831261 0)
(0.000421853318316 0.000108645903591 0)
(0.000459500564387 9.6660112084e-05 0)
(0.000509490227558 0.000114300330458 0)
(0.000602624142895 0.00015900786519 0)
(0.000703751082656 0.000210813167425 0)
(0.000773680172063 0.00024166628207 0)
(0.000785705937608 0.000245097699681 0)
(0.000832810016227 0.000264785694605 0)
(0.000889956785399 0.000282484842799 0)
(0.000933509642022 0.000279134072589 0)
(0.000975455852013 0.000266425648454 0)
(0.00101554347007 0.000251943790038 0)
(0.00106067255215 0.00023923436641 0)
(0.00109781992175 0.000224106389409 0)
(0.00111729168324 0.000212574803667 0)
(0.00117695736071 0.000205399951463 0)
(0.00118003661852 0.000187215915577 0)
(0.00124663460586 0.000175895348609 0)
(0.00121072336179 0.000155619102793 0)
(0.00129210726945 0.000161644451145 0)
(0.00127013814109 0.000161689862545 0)
(0.00135344893099 0.000181480589977 0)
(0.00143603647464 0.000212323529979 0)
(0.00148829415909 0.000236699694579 0)
(0.00152922787005 0.000239424027556 0)
(0.00156684712357 0.000230893057235 0)
(0.00160201829918 0.000217381046705 0)
(0.00163602917239 0.000199487041914 0)
(0.00166959049354 0.000176913274877 0)
(0.00170193010454 0.000154222571207 0)
(0.00173164589996 0.000136076224791 0)
(0.0017575938368 0.000121590847381 0)
(0.00177943161072 0.000107538673124 0)
(0.00179735801856 9.18681939601e-05 0)
(0.00181163090208 7.36983672936e-05 0)
(0.00182203319682 5.26285173353e-05 0)
(0.00182796428216 2.82725682405e-05 0)
(0.00182862993482 4.44926545596e-07 0)
(0.00182295596237 -3.05787661767e-05 0)
(0.00180944568476 -6.46724124861e-05 0)
(0.00178690832175 -0.000102243224238 0)
(0.00175560352374 -0.000142451847926 0)
(0.00171682793744 -0.00018288083071 0)
(0.001668610401 -0.000226157905049 0)
(0.0016037996052 -0.000279293533764 0)
(0.00151576025812 -0.000346337217803 0)
(0.00140363305627 -0.000427492525484 0)
(0.0012709979462 -0.000518479703182 0)
(0.00113332265258 -0.000614535507171 0)
(0.001010203093 -0.000703972819966 0)
(0.000855346120564 -0.000739345840347 0)
(0.000879003756567 -0.00085593205419 0)
(0.00070577596695 -0.000680808590728 0)
(0.00058449552866 -0.000490794552022 0)
(0.000510174914345 -0.000402165086689 0)
(0.00043022694772 -0.000354505494833 0)
(0.000357858594001 -0.00033832119487 0)
(0.00030694243614 -0.00036043445867 0)
(0.000254252520794 -0.00037494719291 0)
(0.000191689084181 -0.00032956084994 0)
(0.000143047127026 -0.000284376509408 0)
(0.000101383328123 -0.000261851277818 0)
(5.99193284432e-05 -0.000238527922364 0)
(3.19783807137e-05 -0.000205460685755 0)
(1.52525948643e-05 -0.000147369666683 0)
(5.23355569505e-06 -0.000118085511035 0)
(-4.63924221635e-07 -0.000127936453732 0)
(-8.64423569956e-07 -0.0001214255714 0)
(7.52243463157e-06 0.000256659323237 0)
(5.35211062322e-05 0.000332886444389 0)
(0.000121755371069 0.000437092735121 0)
(0.000133251764 0.000406990161027 0)
(8.8280557415e-05 0.000206199090288 0)
(0.000191147066716 0.000301947957985 0)
(0.000297518232908 0.000395256110956 0)
(0.000325435339089 0.000383491408839 0)
(0.00036738778718 0.000358487827578 0)
(0.000395359473459 0.000329521806279 0)
(0.000463949395284 0.000280959277774 -2.92553848174e-28)
(0.000356908267271 0.000144767990491 1.71299071022e-28)
(0.000412490174573 0.000134117610733 0)
(0.00044499716248 0.000146215670471 0)
(0.000526808369516 0.000194529081474 0)
(0.00063745829635 0.0002619720758 0)
(0.00071175063895 0.000286423792874 0)
(0.000709220082718 0.000265522381569 0)
(0.000761352406311 0.000284702498369 0)
(0.000832008772486 0.000321041155623 0)
(0.000875045989197 0.000330319712218 0)
(0.000919628563778 0.000323267641895 0)
(0.00096308900505 0.000310288363252 0)
(0.00100480697499 0.000293509068952 0)
(0.00103713788848 0.000273361469336 0)
(0.00106018596878 0.000253975297864 0)
(0.00111556676698 0.000246976611214 0)
(0.00110696210281 0.000233047710041 0)
(0.00119002938182 0.000222132207288 0)
(0.0011453527413 0.000184051910764 0)
(0.00123370264404 0.000189013601983 0)
(0.00121901245244 0.000193975387341 -1.11559538731e-28)
(0.00130328456335 0.00021368874008 1.16868327244e-28)
(0.00135478130276 0.000248620709901 0)
(0.00144768784341 0.000281802947727 0)
(0.0014918001165 0.000286224867532 0)
(0.00152811301274 0.000278645775106 0)
(0.0015641162658 0.000266661693514 0)
(0.00160009964541 0.000251510969714 0)
(0.00163517214837 0.000232732937028 0)
(0.00166906666918 0.000210287964661 0)
(0.00170166797749 0.000186829341126 0)
(0.00173182373448 0.000165413194745 0)
(0.00175841192802 0.000146303434404 0)
(0.00178109279029 0.000127759672115 0)
(0.0017999476817 0.000108047798079 0)
(0.00181497312108 8.59716670342e-05 0)
(0.00182563915566 6.06300466681e-05 0)
(0.00183106531093 3.12801255813e-05 0)
(0.00183031836541 -2.52636907444e-06 0)
(0.00182233412327 -4.08567951758e-05 0)
(0.00180585511675 -8.35448127487e-05 0)
(0.00177992381934 -0.000130130981898 0)
(0.00174414937102 -0.000179767579966 0)
(0.00169759922305 -0.000232894404433 0)
(0.00163656530993 -0.000294043470006 0)
(0.00155494759424 -0.000368809224318 0)
(0.00144967652677 -0.00045795187422 0)
(0.00132534116696 -0.000555760319511 0)
(0.00119496329642 -0.000652647476552 0)
(0.00107155934725 -0.00073818712524 0)
(0.000964029257155 -0.000806465719701 0)
(0.000880748535699 -0.000872642202255 0)
(0.000835045693298 -0.000933096699648 0)
(0.000686783715022 -0.000790169681681 0)
(0.000514815365204 -0.00055993843749 0)
(0.000460713760938 -0.000483262024301 0)
(0.000389587090455 -0.000440874471813 0)
(0.000315390305016 -0.000419708795306 0)
(0.00025521813408 -0.000430175380145 0)
(0.000200675161624 -0.000420813197088 0)
(0.000148238492875 -0.000368483947353 0)
(0.00010355108135 -0.000336177256198 0)
(5.58557972455e-05 -0.000307720323237 0)
(1.81988550172e-05 -0.000272358721654 0)
(-3.51324183242e-07 -0.000214152988027 0)
(-8.98869898919e-06 -0.000160760568115 0)
(-1.55927583599e-05 -0.000124573418157 0)
(-1.50345850043e-05 -0.000124783854293 0)
(-5.05369124003e-06 -0.000118538741216 0)
(1.63694323013e-05 0.000298221256053 0)
(7.66329874648e-05 0.000408117878466 0)
(0.000135841302934 0.000451876575853 0)
(8.1847794061e-05 0.000268304744408 0)
(9.143270072e-05 0.000255914035959 0)
(0.000223287496521 0.000420985738234 0)
(0.000271080714115 0.000435557486386 0)
(0.000310528226656 0.000423755279886 0)
(0.000331496747892 0.000386629805799 0)
(0.000375311899985 0.000358833113393 0)
(0.000302423375553 0.000212846703698 0)
(0.000346642732273 0.000171145506942 0)
(0.00039532733721 0.000176364822272 0)
(0.000438073206079 0.000207222389952 0)
(0.000559299844078 0.000293341902312 0)
(0.000645525213526 0.00033690154243 0)
(0.000636932106633 0.000303290544393 0)
(0.000679078491879 0.000305681276863 0)
(0.00076003555284 0.000349754190362 0)
(0.000816296862895 0.000374458470742 0)
(0.000856062361651 0.00037437987513 0)
(0.000896704076853 0.000365576126544 0)
(0.000944407258336 0.000355351471287 0)
(0.000984908772902 0.000336064520523 0)
(0.00103031373253 0.000307603116107 0)
(0.00103425892473 0.000288139286086 0)
(0.00110192088758 0.000279824570223 0)
(0.00110916627367 0.000259030000803 0)
(0.00110748141977 0.000234601177384 0)
(0.00114777012503 0.000225727070403 0)
(0.00124618384823 0.000236025015249 0)
(0.00124218404743 0.000232742862634 0)
(0.00127464870141 0.000269513861335 0)
(0.00139943491007 0.000325353170836 0)
(0.00144598436121 0.000340454215787 0)
(0.00148644800361 0.000330283189936 0)
(0.00152425749598 0.000316754438306 0)
(0.0015609518837 0.000302821307844 0)
(0.00159786791568 0.000286758250751 0)
(0.00163410218064 0.000267168695236 0)
(0.0016687361843 0.000244081516855 0)
(0.00170167926368 0.000219330368759 0)
(0.00173234026991 0.000195049816919 0)
(0.0017597487371 0.000171906853356 0)
(0.00178345547859 0.000149088554114 -1.16522050639e-28)
(0.00180340829563 0.000125210406976 1.16198915814e-28)
(0.0018192999672 9.88155781217e-05 0)
(0.00183026703031 6.85585789991e-05 0)
(0.00183519579918 3.33967556025e-05 0)
(0.00183306334592 -7.29080711266e-06 0)
(0.00182277925992 -5.37119500843e-05 0)
(0.00180313105296 -0.000105687287524 0)
(0.00177303971857 -0.000162767554885 0)
(0.00173122200548 -0.000225007673386 0)
(0.00167520794674 -0.000294630383855 0)
(0.00160081741078 -0.00037611080372 0)
(0.00150457314532 -0.000472022396501 0)
(0.00138855628408 -0.000578203125915 0)
(0.00126265561622 -0.000684550917734 0)
(0.00113923633397 -0.000778124139078 0)
(0.00102547456764 -0.00084662361554 0)
(0.000931813924237 -0.000894570618292 0)
(0.00086239752831 -0.000938324033882 0)
(0.000806826734838 -0.000985353110577 0)
(0.000791074522187 -0.00100836845024 0)
(0.00051860329703 -0.000685465098243 0)
(0.000400730634539 -0.000561431611945 0)
(0.000329265671135 -0.000514495664316 0)
(0.000256483183803 -0.00048541292286 0)
(0.000201623617541 -0.000480132682033 0)
(0.000156765468517 -0.00045705398433 0)
(0.000109776859283 -0.000418134608358 0)
(5.70364724676e-05 -0.000390973351594 0)
(6.19354541827e-06 -0.000352291966036 0)
(-2.64119513073e-05 -0.000296207630061 0)
(-3.84819289081e-05 -0.000222802685984 0)
(-4.42858745706e-05 -0.000169165398248 0)
(-4.32908977842e-05 -0.000127284531959 0)
(-3.40353158182e-05 -0.000112309656545 0)
(-1.24033090025e-05 -0.000104478490262 0)
(2.30886602264e-05 0.000351105713803 0)
(8.73781914077e-05 0.000468935491966 0)
(0.000111029063317 0.000461932808726 0)
(7.68405244607e-05 0.000293345758964 0)
(0.000129468090673 0.000338913075645 0)
(0.000229408607139 0.000476764995419 0)
(0.000245229811772 0.000472500022574 0)
(0.000295908716736 0.00046040332018 0)
(0.000279544345578 0.000381504497662 0)
(0.000366683569337 0.00040204907406 0)
(0.000285849996435 0.000233962693459 0)
(0.000345861836634 0.000216951324862 0)
(0.000383737244373 0.00022687943492 0)
(0.000463092773419 0.000295335837977 0)
(0.000568415699469 0.000381524566675 0)
(0.000622252376217 0.000382330518007 0)
(0.000610723753978 0.00033756058287 0)
(0.000673669193155 0.000366710783302 0)
(0.000743431117063 0.00041012674838 0)
(0.000792539449551 0.000423389836137 0)
(0.000837851256092 0.000418733316869 0)
(0.000873534862239 0.000405706760315 0)
(0.000917663426408 0.00039422826565 0)
(0.000944225567878 0.000371690264052 0)
(0.000963873662651 0.000330993056269 0)
(0.00103690925174 0.000322951954527 0)
(0.00100142258555 0.000300204461596 0)
(0.00112575949094 0.000297127071401 0)
(0.00108323745459 0.00027094138101 0)
(0.00120125593271 0.000285452840255 0)
(0.00115924079217 0.000264574160708 0)
(0.00127962820167 0.000292618733527 0)
(0.00133958478727 0.00034468943273 -1.26000024344e-28)
(0.00139721796417 0.000384913392594 1.28849463056e-28)
(0.00143979085172 0.000385500365604 0)
(0.00147985368364 0.000371758323512 0)
(0.00151947658495 0.000356085127484 0)
(0.00155760649103 0.000340413760644 0)
(0.00159536146203 0.000323233253049 0)
(0.00163251191438 0.000302724936968 0)
(0.0016681704165 0.00027857762098 0)
(0.00170190063799 0.000252177590473 0)
(0.00173327226234 0.000225227559331 0)
(0.00176167128618 0.000198504749127 0)
(0.00178669523287 0.000171652708523 0)
(0.00180798764019 0.000143491823527 0)
(0.00182489635199 0.00011235685167 0)
(0.00183632236544 7.65385145917e-05 0)
(0.00184098672398 3.47584352909e-05 0)
(0.00183770767366 -1.37013796445e-05 0)
(0.00182528893923 -6.91599796991e-05 0)
(0.00180243702362 -0.000131653170608 0)
(0.00176773620641 -0.00020128567792 0)
(0.00171903116688 -0.000279159978114 0)
(0.00165287826248 -0.000367928524482 0)
(0.00156594672878 -0.00047006075369 0)
(0.00145850601061 -0.000583287162913 0)
(0.00133808140155 -0.000699684918766 0)
(0.00121681230355 -0.000810248126199 0)
(0.0010991570337 -0.000901391704758 0)
(0.000986425914399 -0.000952680944598 0)
(0.000890791829341 -0.000972084165608 0)
(0.000823048665644 -0.000993670293481 0)
(0.000776051088879 -0.00102603649632 0)
(0.000769049905319 -0.00106036132909 0)
(0.000651842065633 -0.00094259653623 0)
(0.00037635611066 -0.000652870082316 0)
(0.000263821387748 -0.000593571678846 0)
(0.000205144562163 -0.000554419514811 0)
(0.000160576061703 -0.000523222037115 0)
(0.000120439029768 -0.000496528894769 0)
(6.88903210717e-05 -0.000478189507691 0)
(5.53046496728e-06 -0.000450855307413 0)
(-4.88735874861e-05 -0.000395349072628 0)
(-7.93511950939e-05 -0.000314224540621 0)
(-9.03640310685e-05 -0.00023246751409 0)
(-9.16308802938e-05 -0.000168917346216 0)
(-8.01513155444e-05 -0.000119332326487 0)
(-5.54174634722e-05 -8.83686127935e-05 0)
(-2.00673123386e-05 -7.22998244877e-05 0)
(2.84046716779e-05 0.000417201941451 0)
(9.72635487287e-05 0.000513081898607 0)
(9.99347602905e-05 0.000453773852432 0)
(7.69255645535e-05 0.000314302317264 0)
(0.000167516443128 0.000459536522664 0)