/*--------------------------------*- C++ -*----------------------------------*\
| =========                 |                                                 |
| \\      /  F ield         | OpenFOAM: The Open Source CFD Toolbox           |
|  \\    /   O peration     | Version:  v1806                                 |
|   \\  /    A nd           | Web:      www.OpenFOAM.com                      |
|    \\/     M anipulation  |                                                 |
\*---------------------------------------------------------------------------*/
FoamFile
{
    version     2.0;
    format      ascii;
    class       volScalarField;
    location    "924";
    object      p;
}
// * * * * * * * * * * * * * * * * * * * * * * * * * * * * * * * * * * * * * //

dimensions      [0 2 -2 0 0 0 0];


internalField   nonuniform List<scalar> 
6400
(
0.142829383329
0.142832732215
0.14284235114
0.142861316153
0.142889863906
0.142928070759
0.142975901718
0.143034435994
0.143105003984
0.143189747607
0.143294957473
0.143424046516
0.143574730783
0.143746947817
0.143942632961
0.144164500301
0.144414594256
0.144693201117
0.144998234016
0.14532446807
0.145666951373
0.146027748952
0.146414690069
0.146835723032
0.14729562694
0.147794335045
0.148328600969
0.148895850169
0.149495515436
0.150128021259
0.150793554995
0.151490030925
0.152211655742
0.152952473644
0.153709506899
0.154480357583
0.155265480273
0.156069542188
0.156890831642
0.157721287154
0.158561085678
0.15941995142
0.160302344926
0.16120033403
0.162102759367
0.163001219327
0.163889163663
0.164761207829
0.165612357826
0.166438107501
0.167234442099
0.167995422506
0.16871180547
0.169373086665
0.169976062766
0.170522629089
0.171008124746
0.171424116094
0.171768564126
0.17204748263
0.172267096313
0.172431690212
0.172547100694
0.17262953629
0.172700906145
0.172778010553
0.172860494334
0.172931883435
0.172982694673
0.173015526794
0.173035574794
0.173047045505
0.173052512159
0.173053504944
0.173051159237
0.173046825633
0.173041438636
0.173037054148
0.173033761107
0.173032287979
0.142824586598
0.142828168572
0.142836987438
0.142855495456
0.142885460972
0.142925048627
0.142973324225
0.14303014545
0.143098709461
0.143183164443
0.143288021482
0.143416173692
0.143567135415
0.143740220464
0.143936008643
0.144156551799
0.144405855163
0.144685034381
0.144991185998
0.145317762462
0.145658441127
0.14601737616
0.146403881477
0.146825085124
0.147285505053
0.147784929025
0.148319590735
0.148887473264
0.149488059468
0.150121307908
0.150787077446
0.151484069582
0.152206632097
0.152947675086
0.153704887283
0.154476119265
0.155261439452
0.156066188258
0.156888779647
0.157720473117
0.158560574183
0.159420500097
0.160305733687
0.161205958205
0.162109744791
0.163009691337
0.163899250228
0.164773176333
0.165626162315
0.166452786057
0.167248983833
0.168011108243
0.168730979752
0.169394180233
0.16999865195
0.170547184902
0.171031552877
0.171445240696
0.17178891617
0.172066645726
0.17228373284
0.17244698755
0.172562346688
0.172645777171
0.172718323074
0.172795753315
0.172878036993
0.172946960302
0.172994852704
0.17302540946
0.173043586445
0.173053486992
0.173057432514
0.17305673408
0.173052974621
0.173047478192
0.17304151818
0.17303644446
0.173032799025
0.173031473153
0.14281095956
0.142816804591
0.14282494741
0.142842043785
0.142871015038
0.142914698094
0.142966451887
0.143021682698
0.143087210939
0.143169954341
0.143273967711
0.143401607111
0.143552871676
0.143726747325
0.143922545483
0.14413990254
0.144386844831
0.14466992835
0.144978675321
0.145303806248
0.145640691423
0.145995216104
0.146381082736
0.146804449928
0.147265895423
0.147765457972
0.148301329531
0.148870961621
0.149473129798
0.1501077077
0.150774421444
0.151472595293
0.152197108924
0.152938235531
0.153694778658
0.154467572865
0.155253715786
0.156058644566
0.156882971113
0.15771814239
0.158563943514
0.159428462599
0.160314933056
0.161216147423
0.162122049021
0.163024680267
0.163917531052
0.164794955742
0.165651555543
0.166482216659
0.167282410337
0.168046718349
0.168766478042
0.169432840847
0.170043059708
0.170593237709
0.171076009576
0.171487860283
0.171829632675
0.172104961378
0.172319500915
0.172479549773
0.172593968202
0.172680531866
0.172758563453
0.172837833772
0.172914192523
0.17297623418
0.173019517823
0.173046262581
0.173061003342
0.173067250902
0.173067225956
0.173062943659
0.17305648811
0.173048962497
0.173041479309
0.173035153065
0.173030907451
0.173029200273
0.14279107011
0.142797148863
0.142804381369
0.142820246758
0.142845914759
0.142889577947
0.142953685041
0.143009221596
0.143070159329
0.143149929213
0.143252512407
0.143379860825
0.143531815511
0.143705822801
0.143901421282
0.144122166934
0.144372418227
0.144652691369
0.144953558181
0.145268753019
0.145602303905
0.145960258474
0.146348610749
0.146772897878
0.147235572932
0.147736631865
0.148274363481
0.148846189166
0.149450640117
0.15008713346
0.150755874564
0.151455745692
0.152182027179
0.152925810654
0.153680957338
0.154452252156
0.155241776171
0.156048415333
0.156873130391
0.157713002988
0.158566663687
0.15943778207
0.160327982702
0.161232020695
0.162141404038
0.163048267245
0.163945899729
0.164828401912
0.165690279325
0.166526319899
0.167331411396
0.168099513829
0.168822936522
0.169494398499
0.170108865493
0.170660430759
0.171142745594
0.171552977324
0.171892170342
0.172164101437
0.172374723163
0.172532153805
0.172649228669
0.172742967778
0.172825011084
0.172900143847
0.172969718736
0.173024325765
0.173060031609
0.173079794826
0.17308783507
0.173087293408
0.173081146752
0.173072044772
0.173061434757
0.173050833941
0.173041149464
0.173032338141
0.173025959923
0.173023237418
0.142759702262
0.142761444418
0.142770300795
0.142786728271
0.142815241341
0.142856757745
0.142916251659
0.142976337124
0.143040825615
0.143121089869
0.143222536086
0.143349800806
0.143503024187
0.14368207169
0.143884375144
0.144105442539
0.144348790338
0.144616714249
0.144907636275
0.145220304613
0.145555188388
0.14591482005
0.146304998269
0.146731109759
0.147195504393
0.147698475536
0.148238315514
0.148812907878
0.149420341567
0.150059852094
0.150730837468
0.151434016398
0.15216396144
0.152906782533
0.153661628965
0.154432839371
0.155222335477
0.156032266583
0.156861738204
0.157708050921
0.158569904638
0.15944868133
0.160344599926
0.161253421142
0.162167927545
0.163080586447
0.163984561304
0.164873741965
0.165742500674
0.166585451139
0.16739707872
0.168171104323
0.168900350079
0.169577781754
0.170196881373
0.17075066509
0.171233191705
0.171642105582
0.171978723494
0.172247335061
0.172455148461
0.172612839203
0.172735080647
0.172834661594
0.172915812579
0.172986635155
0.173048651377
0.173093333545
0.173117870604
0.173126235972
0.173123339191
0.173113220485
0.173099490763
0.173083818983
0.173067654358
0.173052590797
0.173038524697
0.173024846897
0.173015467728
0.173011725937
0.142703371857
0.142704066625
0.142718015588
0.142735396766
0.142767208193
0.142811271509
0.142867546612
0.142928559476
0.142998198214
0.143080952741
0.143181182917
0.143309035948
0.143470718592
0.143658179926
0.143859711536
0.144074695875
0.144308538944
0.144567797278
0.14485392894
0.145164509528
0.145498004501
0.145858236704
0.146250476175
0.146679010796
0.147145744144
0.147650616088
0.148193229745
0.14877087726
0.149382332527
0.15002571029
0.150700912395
0.151406380942
0.152136904697
0.152883177492
0.153636585081
0.154405887836
0.155197888362
0.156012966482
0.156848851625
0.15770288785
0.158573640465
0.159461160395
0.160364647761
0.161280288854
0.162201750154
0.163121893351
0.164033858116
0.164931378767
0.165808689518
0.166660232207
0.167480238377
0.168262305521
0.168999347162
0.169683974148
0.170308595958
0.170865695004
0.171349667674
0.171758558364
0.172094114294
0.172361546739
0.172569631123
0.172730716136
0.172858834734
0.172959078772
0.173037357227
0.173102616494
0.173156054692
0.173187977333
0.173196465742
0.173187442761
0.173168928736
0.173146440861
0.17312245377
0.17309783908
0.173074477987
0.173052863406
0.173031730869
0.173011480525
0.172998228003
0.172992257232
0.142617901063
0.142624849635
0.142646932693
0.142672120098
0.142700606542
0.142745721952
0.142804006636
0.142867890666
0.142941536506
0.143027498993
0.143132045892
0.143264054344
0.143433373145
0.143620083241
0.143817186737
0.144024552719
0.144252410495
0.144509092174
0.144792993942
0.145098999125
0.145430158039
0.145791292436
0.146185438315
0.146616076038
0.147085568699
0.147594316961
0.148138678283
0.148719876978
0.149336213336
0.149986330435
0.150665762372
0.151372127995
0.152103928865
0.152847833548
0.153601947621
0.15437336633
0.155169733249
0.155991100514
0.156834570228
0.157697369658
0.158577879621
0.159475313623
0.160388128024
0.161312614492
0.162242983427
0.163172440939
0.164094171077
0.165001817487
0.165889501925
0.166751524948
0.16758193881
0.168374186964
0.169120974874
0.169814370994
0.170446093579
0.171008498065
0.17149640115
0.171908292323
0.172246380197
0.172516596076
0.172728667575
0.172894857811
0.173025200848
0.173123759097
0.1732020645
0.173260490852
0.173298229856
0.173310458656
0.173296752166
0.173264796284
0.173225822671
0.173186630623
0.173148420122
0.173113111877
0.173080989969
0.173049969613
0.173018670644
0.172990538959
0.172972201609
0.172963318671
0.14251627628
0.142529245177
0.142554333813
0.14258956338
0.142621190527
0.142668734216
0.142725895189
0.142793289588
0.142872016152
0.142956621614
0.143070032189
0.143214922044
0.143382899079
0.143566304689
0.143757115428
0.143957888463
0.144184823368
0.144441759812
0.14472116881
0.145022645542
0.145352000447
0.145713569695
0.146109430027
0.14654313877
0.147016280313
0.147528414372
0.148076883548
0.148659100023
0.149282377568
0.149941530302
0.150623624324
0.151328719112
0.152059713321
0.152803197238
0.153558320471
0.154335333351
0.155138265004
0.155966901273
0.15681882538
0.157691355549
0.158582620995
0.159491238074
0.160415109303
0.161350455427
0.162291771302
0.163232517989
0.164165960043
0.165085707838
0.165985801145
0.166860419607
0.167703455167
0.168508141988
0.16926685253
0.169971187598
0.170612598186
0.171183738239
0.171680001345
0.172100079531
0.172445793029
0.172722734676
0.172940517953
0.173110051474
0.17323997792
0.173337992712
0.17341163669
0.173464145847
0.173480254509
0.173465668711
0.173423941077
0.173362047431
0.173294214001
0.173230481393
0.173174606169
0.173127968434
0.173085958499
0.1730427372
0.17299838471
0.172960294574
0.172935531218
0.17292382751
0.142403585814
0.142420018329
0.142445668286
0.142477044066
0.142516377055
0.142572723889
0.142631084895
0.142700897218
0.142788347707
0.142879057141
0.14299130804
0.143145252269
0.143316384232
0.143494711501
0.143680062415
0.143880809364
0.144107371714
0.144361560556
0.144636809757
0.144935777387
0.145263950917
0.145625255222
0.146021460805
0.146457435326
0.146937831019
0.147452512211
0.148005567899
0.148595293125
0.149221055356
0.149882647336
0.150570799965
0.151281512782
0.152005520371
0.152746871484
0.153507759082
0.154292393433
0.155103230812
0.155940199363
0.156801496305
0.157684730865
0.158587857231
0.159509022707
0.160445686495
0.161393913594
0.162348301401
0.163302472996
0.164249788729
0.165183866261
0.166098677533
0.166988280376
0.167846404687
0.168666065404
0.169439353554
0.170157688875
0.170812781473
0.171398031087
0.171909351371
0.17234452208
0.172702946462
0.172989213902
0.173213759446
0.173386826417
0.173515968627
0.173607309638
0.173666121306
0.173704438102
0.173708669542
0.173663461512
0.173587792123
0.17348433648
0.173370824688
0.173271387174
0.173196010364
0.173140146473
0.173089702573
0.173032051783
0.172969783548
0.172918305439
0.172884543723
0.172869370934
0.142277892553
0.142296426065
0.142326229075
0.142356807834
0.142399435279
0.142456549283
0.142517908938
0.142588544733
0.142677355778
0.142785439132
0.142903480815
0.14305832836
0.143230897454
0.143406338569
0.143586711528
0.143790433874
0.144020252014
0.144269993531
0.144540259046
0.144837115021
0.145165231983
0.145527467519
0.145924493278
0.146359957388
0.146846794584
0.147369981183
0.14792171366
0.14851807715
0.1491495898
0.149815992686
0.150508306096
0.151218853094
0.151943532445
0.152684653577
0.153451106329
0.154244333774
0.155064316435
0.15591077026
0.156782448637
0.157677392464
0.15859355084
0.159528719657
0.160479958107
0.161443120334
0.162412803105
0.16338272605
0.164346342534
0.165297295629
0.16622948303
0.167136819294
0.168012875941
0.168850520293
0.169641786727
0.170378381595
0.171052881192
0.171659772762
0.172194896559
0.172652806791
0.173028093133
0.173326981439
0.17356391176
0.173745027739
0.173871485787
0.173945448022
0.17397423613
0.173973118736
0.173954315762
0.173914995766
0.173805333662
0.173637215788
0.17344633364
0.173296410772
0.173202564102
0.173147035913
0.173097043239
0.173022465224
0.172929853062
0.17285783244
0.172809334871
0.172788675866
0.142133723779
0.142151380537
0.142183973709
0.142219898684
0.14227130935
0.14232388886
0.142386666755
0.142460442078
0.14254264027
0.142660747607
0.142793705179
0.142950011058
0.143123562678
0.143300499486
0.14348083814
0.143685869654
0.143917532208
0.144164799656
0.144431492373
0.144725460057
0.145052897168
0.145417544649
0.14582005503
0.146256203114
0.146739778746
0.147275107467
0.147835555958
0.148432854119
0.149067074769
0.14973100744
0.150430438111
0.151145399781
0.151870544229
0.152615530731
0.153389012277
0.154191300916
0.155021298453
0.155878375465
0.156761547652
0.157669264222
0.158599660433
0.15955034398
0.160518001283
0.161498220315
0.162485538739
0.163473755757
0.164456425691
0.165427204623
0.1663798748
0.167308174596
0.168205548362
0.169064884077
0.169878547308
0.170639124189
0.171340596708
0.171978417514
0.172547176477
0.173036169447
0.173433781067
0.173754724324
0.174020264152
0.174219332613
0.174339552924
0.174380435706
0.174353640031
0.174281880314
0.17419781965
0.174180252121
0.174099538712
0.173842109813
0.173501635703
0.17327649809
0.173173828219
0.173146605532
0.173123852393
0.173026558305
0.172868737614
0.172764530314
0.172692599284
0.172667557984
0.141966810473
0.141981037773
0.142007797705
0.142053052838
0.14211541632
0.142169422988
0.14223428723
0.142315307418
0.142396811812
0.142512556729
0.142657208925
0.142817992934
0.14299214734
0.143172320678
0.14336045869
0.143568987154
0.143800146472
0.144045244747
0.144310124191
0.144601517419
0.144925726448
0.145289134588
0.145701347099
0.146149250061
0.146629064513
0.147165329162
0.147734838157
0.148332117439
0.148975478332
0.149645619096
0.150340392925
0.151054423501
0.151784095923
0.152538399887
0.153321064828
0.154133114277
0.154973930261
0.155842741496
0.156738629059
0.15766029049
0.158606154412
0.159573886173
0.16055987093
0.161559353652
0.162566783375
0.163576082711
0.164580942318
0.165574997744
0.166551834318
0.16750496356
0.168427769247
0.1693134468
0.170155244804
0.170947200852
0.171684638364
0.172362589272
0.172975058934
0.17350932808
0.173939110636
0.174301362407
0.174639845902
0.174878143053
0.174990995868
0.174979486702
0.174863449103
0.174672971564
0.174440389749
0.174481158404
0.174546833679
0.174135925047
0.173489470607
0.173151963427
0.173072433065
0.173144777965
0.173220059932
0.173082875943
0.17275261317
0.172615788936
0.172511257945
0.172498696591
0.141776743618
0.141788125434
0.141806131926
0.141856535025
0.141920670065
0.141983325987
0.142053067228
0.142142280102
0.142232313742
0.142348086779
0.142498352221
0.14266267884
0.142837318004
0.143017157905
0.143215674275
0.143435069231
0.143666795036
0.143910476641
0.144174973227
0.144465523346
0.144786516092
0.145144314156
0.145558485996
0.146027029153
0.146514445282
0.147041904568
0.147622689442
0.148227300101
0.148865302716
0.149540381597
0.15023910014
0.150954138529
0.151688850529
0.152452624462
0.153246050775
0.154069196724
0.154921848836
0.155803459733
0.156713361091
0.157650382177
0.158613085406
0.159599375447
0.160605586341
0.161626625924
0.162656797584
0.163690230002
0.164720850367
0.165742237623
0.166747640744
0.167730256431
0.168683526559
0.169601419372
0.170478780639
0.171311249526
0.172093619089
0.172816893494
0.173486761174
0.174108789892
0.174586448624
0.175065057477
0.175587164436
0.175860907411
0.175917619607
0.175784984104
0.175491143404
0.175068244282
0.174398912434
0.174483106206
0.174611198521
0.174620845383
0.173167567133
0.172699414543
0.172757220411
0.173090801313
0.173491975827
0.173266445463
0.17249600891
0.172393840021
0.172220696063
0.172284319274
0.141564661947
0.141577745635
0.141601009033
0.141640867241
0.141699836156
0.141768391563
0.141844334333
0.141938497955
0.142041909846
0.142161676583
0.142316769034
0.142484543348
0.14266126937
0.142841619978
0.143044283906
0.143274101819
0.143511188899
0.143757649726
0.144023828838
0.144315384357
0.144635549589
0.144988535077
0.145399054428
0.145880571164
0.146384818935
0.146911624637
0.147496537969
0.148110997847
0.14874748193
0.14942132062
0.150118572592
0.150836939476
0.151582964645
0.152358252029
0.153163398399
0.153998818343
0.15486463309
0.155760292594
0.156685356655
0.157639158872
0.15862037078
0.159626923462
0.160655249262
0.161700125265
0.162755774683
0.163816652632
0.164877083703
0.165930553927
0.166969754936
0.167987424171
0.168977238044
0.169934707982
0.170857222343
0.171741325968
0.172576137641
0.1733425043
0.174115406944
0.174931193536
0.175251299348
0.175215890383
0.175402010539
0.175611222282
0.175667195687
0.175554447555
0.175317047257
0.17500386054
0.174672352678
0.174509432391
0.174419044038
0.173843413473
0.17313826245
0.172889282288
0.173072365357
0.173652678999
0.174401290083
0.17426596827
0.171314077556
0.172004028076
0.171718346665
0.172077804623
0.141325708936
0.141340583883
0.141374307988
0.141404656214
0.1414573977
0.141527954311
0.141609052739
0.141709583678
0.141828935
0.141952462243
0.142111470614
0.142283210103
0.142463762734
0.142648087644
0.142854230498
0.143089848471
0.143332904615
0.143584896225
0.143854954114
0.14414892829
0.144470505854
0.14482260425
0.145225696682
0.145707159883
0.146236732377
0.14677362814
0.147349564964
0.147979065685
0.148626477056
0.149289611937
0.149983687275
0.150709059222
0.151465981196
0.152253842977
0.153072220791
0.153921332604
0.154801503684
0.155712679679
0.156654443251
0.157626378668
0.158627714188
0.1596564718
0.160709000327
0.161780008465
0.162863857789
0.1639556432
0.165050384862
0.166141477521
0.167220660497
0.168279820777
0.169313192599
0.170319136973
0.171298737501
0.17224701497
0.173137538923
0.17391555356
0.174605214017
0.174810954602
0.175030074369
0.175206985264
0.175332342845
0.175478871423
0.175519511768
0.175409926203
0.175176571703
0.174859615199
0.174504884007
0.174189951611
0.173904279533
0.173477626209
0.173012626893
0.172718722739
0.172717663461
0.172938166955
0.173061579444
0.172460408819
0.172739793094
0.173094039771
0.170348502539
0.17201799221
0.14105525271
0.141069866046
0.14110330888
0.14113617019
0.141187054357
0.141259785085
0.141344155975
0.14144645421
0.141581204395
0.141717276699
0.141880187751
0.142056926577
0.142243258833
0.142434582922
0.142646122307
0.142885642208
0.14313380343
0.143392258048
0.143667607773
0.143965218296
0.144289188907
0.144642996262
0.145041507414
0.145517355366
0.146064798261
0.146622053267
0.147193608844
0.147818899479
0.148477987255
0.149148838079
0.149841821447
0.150571597439
0.151338472342
0.15213934408
0.152972013742
0.153836017605
0.154731923527
0.155659955384
0.156620030642
0.157611817975
0.158634930508
0.15968785363
0.160766900796
0.161866480429
0.162981120379
0.164107195933
0.165241221675
0.166376414007
0.16750253129
0.168610204992
0.169694838991
0.1707592136
0.17181044053
0.172847011708
0.173832987598
0.174170053007
0.174413904498
0.174665170828
0.174878962845
0.175039432108
0.175134079425
0.17519671807
0.175171335589
0.175022023255
0.174761240924
0.174420871273
0.174037881364
0.17365156499
0.173262095606
0.172820355174
0.172340228486
0.171945015178
0.171749899163
0.171707174994
0.171679763635
0.171531636008
0.171678581889
0.17126826311
0.172216910405
0.173868729598
0.140755113595
0.140769156736
0.140804470482
0.140838639056
0.14089088793
0.140965022229
0.141052316255
0.141153191237
0.141292499052
0.141446339183
0.141618272033
0.141801903825
0.141996120418
0.142198710016
0.142416960641
0.142660716561
0.142914098183
0.143179754078
0.143461371958
0.143763773063
0.144091042
0.144447167917
0.144843718918
0.14531210346
0.145863545831
0.146450585484
0.147035178691
0.147650622824
0.148307592957
0.148983893526
0.149683390899
0.150422141002
0.151199996311
0.152014130313
0.152861995876
0.15374236415
0.154655332467
0.155601667165
0.156581593794
0.157595050043
0.158641812996
0.159720840913
0.160828825302
0.161959767188
0.163107922212
0.164271395338
0.165449450916
0.166635487911
0.167816415639
0.16898079523
0.170124089034
0.171254262328
0.17238751551
0.173450064389
0.173682235052
0.173933701365
0.174219842472
0.174457113538
0.174635649852
0.174753609722
0.174803499649
0.17478817365
0.174685143833
0.174473956762
0.174159464437
0.173763134722
0.173311246481
0.17282803011
0.172321905065
0.171787381174
0.171223972322
0.17069145808
0.170276098501
0.169983311148
0.169772980061
0.169623968268
0.16976471755
0.170450798671
0.172455142011
0.174816129375
0.140428203647
0.140440698089
0.140471930363
0.14051080058
0.140569247911
0.140645293816
0.140737299806
0.140838732193
0.140978954009
0.141144386894
0.141324882779
0.141515206115
0.14171616005
0.141933714475
0.14216273234
0.142411419187
0.142671051625
0.1429456669
0.143235087443
0.143543615347
0.143875325333
0.14423437689
0.144630770788
0.145093288466
0.145641929378
0.1462500848
0.14685959958
0.147475528016
0.148125298391
0.148801770202
0.149509530333
0.150258513868
0.151048446693
0.151876397962
0.152740554464
0.153639056302
0.154570986849
0.155537122543
0.156538650591
0.157575556166
0.158647927552
0.159755389866
0.160895036357
0.162060322753
0.163244157869
0.164447050239
0.165674844718
0.166921129796
0.168165117474
0.169395416061
0.170604078032
0.171812244433
0.172938667345
0.173216173282
0.173471927557
0.173716203787
0.173961820497
0.174155782622
0.174281773592
0.174334970599
0.174308875775
0.174199652192
0.173997378038
0.173692330977
0.173287262456
0.172796369495
0.172238201138
0.171629791012
0.170980922112
0.170294506407
0.169579464891
0.168840664194
0.168120492757
0.167463227902
0.166873357933
0.166396058237
0.166289769124
0.166939035796
0.169059093417
0.171059578949
0.140078526254
0.140089714414
0.140115227564
0.140159341637
0.140223211962
0.140301028018
0.140397073461
0.14050345833
0.140642232912
0.140814641737
0.141001512573
0.14119734848
0.141402294146
0.141630390635
0.141876125548
0.142132992417
0.142400212842
0.142685240877
0.142985537592
0.143302621505
0.143640791
0.144003660584
0.144401618545
0.144860466157
0.145401416093
0.146013234697
0.1466494644
0.147283242872
0.14793457355
0.148611970385
0.149323264127
0.150081013554
0.150883242621
0.151724702115
0.152606549449
0.153524992107
0.154477124087
0.155465030146
0.156490197933
0.157552957666
0.158653252069
0.159791122609
0.160964580712
0.162167846649
0.163394327301
0.16464484403
0.165924825711
0.167227196601
0.168540321082
0.169857470887
0.171141861587
0.172354437747
0.172671531595
0.172952271241
0.173208159697
0.173430511079
0.173616640583
0.173742219679
0.173789943603
0.173752376326
0.173624395284
0.173402005774
0.173080121447
0.172654573066
0.172127509618
0.171507905952
0.170807783991
0.170038108281
0.169205624706
0.16831219085
0.167361914857
0.166313444861
0.165169583994
0.163970913316
0.162707082885
0.161369255479
0.160021844496
0.158636293712
0.156832740726
0.153499772879
0.139708006501
0.139719065191
0.139743146042
0.139791941294
0.139856560199
0.139933729287
0.140029047179
0.140142024306
0.140279173438
0.14045618815
0.140648576528
0.140849820569
0.141059714071
0.141292891961
0.141553434497
0.141822554628
0.142099814946
0.142395327198
0.142707911811
0.143036893577
0.143385067901
0.143753580121
0.144154714637
0.144613003213
0.145147408053
0.145756272639
0.146408005841
0.147063288769
0.147721036666
0.148402128878
0.149122978952
0.149888534437
0.15070135395
0.151558007632
0.152458616285
0.153398130375
0.154372491919
0.155384135667
0.156434905874
0.157525677038
0.158656624721
0.159828098003
0.161039985568
0.162289088037
0.16356620131
0.164863604926
0.1661872653
0.167543315526
0.168939911373
0.170391353006
0.171712931155
0.172060313346
0.172355443047
0.172636029945
0.172868412266
0.173042605783
0.173153696712
0.173188192715
0.173133113261
0.172981356407
0.172728764462
0.172372219187
0.171908824208
0.171336683622
0.170657010986
0.169874436738
0.168994899285
0.168022813366
0.166958720251
0.165797865156
0.164534900181
0.163094667714
0.161404952809
0.159456861561
0.157174997376
0.154399666958
0.150909451521
0.146425589753
0.14090190345
0.139209226931
0.139313565699
0.139325154171
0.139350390683
0.139404038321
0.139468734183
0.139544319731
0.139636213272
0.139753603886
0.139887246723
0.140067120457
0.140265084219
0.140471926556
0.140687932595
0.140927396581
0.141198140106
0.1414799191
0.141769300782
0.142076184726
0.14240048631
0.142742755095
0.143104653622
0.143481798431
0.143887537928
0.144347981023
0.144878558218
0.145482481954
0.146140370764
0.146812624076
0.147488166465
0.148178150001
0.148908172056
0.149684056008
0.150506044761
0.151373691
0.152291096743
0.153254718058
0.154255094003
0.155293243802
0.156371584225
0.157492343935
0.158657018906
0.159866787052
0.161124990664
0.162427605558
0.163753709602
0.165092115823
0.166457977209
0.167876541075
0.169398916753
0.171044364019
0.171418988585
0.171709320101
0.172002629492
0.172252537832
0.172431940746
0.172532569419
0.172548468156
0.172470814371
0.172291149758
0.172004107985
0.171606499844
0.171096004048
0.170470570851
0.169728575763
0.168869432014
0.167893415988
0.166800133058
0.165586167949
0.164242439336
0.162751155858
0.161081123908
0.159179599394
0.156870696263
0.154003187539
0.150410810249
0.145677617541
0.138973487975
0.128512313229
0.109160183163
0.0627502436696
0.138887498665
0.138899537666
0.138928077064
0.138987249456
0.139052851879
0.139127418556
0.139218027669
0.139336917177
0.139466245796
0.139646342569
0.139849481167
0.140061853862
0.140284034307
0.140529981348
0.140809016777
0.141102914876
0.141406867508
0.141726528216
0.142062236257
0.142417621827
0.142795910813
0.143185722583
0.14359717378
0.144061592776
0.144592093013
0.145191177997
0.145848709628
0.146528121398
0.147225408439
0.147938362793
0.14867843072
0.149460940669
0.150295144315
0.151178967301
0.152109085167
0.153092361042
0.154120749894
0.155188695374
0.156298521712
0.157452163604
0.158653140632
0.159908207014
0.161223776956
0.162583379542
0.163955462525
0.165336460477
0.166758303512
0.168263997738
0.169728000669
0.170858806069
0.171119320293
0.171353599648
0.171597555448
0.171784190874
0.171882170905
0.171883477176
0.171782456799
0.171573003642
0.17124988661
0.170809570262
0.17024973579
0.169568421959
0.168763445738
0.167832164817
0.166771348789
0.165576581812
0.16424080068
0.162752036303
0.16109047424
0.159224627649
0.157105338862
0.154664297287
0.151684696895
0.147852404698
0.142876383703
0.136155479985
0.126459562941
0.111383101215
0.0860571046532
0.044040791797
0.138418865766
0.138431254987
0.138463013846
0.138528163869
0.138594504663
0.1386716508
0.138762970094
0.13888169917
0.139010180258
0.13919154475
0.139399878234
0.139617589825
0.139845664561
0.14009752017
0.140383114362
0.140686801357
0.141007655013
0.141342549763
0.141690566169
0.142058953455
0.142454414477
0.142862355978
0.143281895766
0.143749957485
0.144283934635
0.144881143581
0.145537292364
0.146219085957
0.146928039358
0.147668419124
0.148433865256
0.149228078474
0.150063941057
0.150959860768
0.151911128927
0.152914454915
0.153968689716
0.155067769188
0.156211417512
0.157402076576
0.158645824406
0.159957253243
0.161336808293
0.162752486116
0.164178246717
0.165627259715
0.167160260695
0.168744287532
0.170031969546
0.170468864797
0.170715631544
0.17092799445
0.171106616024
0.171204159209
0.171197288907
0.171077874638
0.17084118226
0.170483424813
0.170001753177
0.16939414665
0.168658900847
0.167793941614
0.166796224404
0.165661248197
0.164382514241
0.16295060401
0.161351582308
0.159564583669
0.157558412522
0.155286672433
0.152680320934
0.149635407937
0.145998899765
0.141366329321
0.13521284805
0.126958168781
0.115492648677
0.0989304037388
0.0739550977562
0.0395293581364
0.137899037999
0.137913730106
0.137946986079
0.138012304304
0.138083116269
0.138168805552
0.138265432639
0.138387594036
0.138522761322
0.138701224393
0.138914027755
0.139137012139
0.139370918823
0.139628353513
0.139919307277
0.140228900904
0.140563186687
0.14091727179
0.141280932921
0.141664488562
0.142076389779
0.142506965569
0.142943604184
0.143413534939
0.143951137528
0.144549992284
0.145206301797
0.145891059874
0.146605306221
0.147364704643
0.148159371954
0.148978966087
0.149826050743
0.150726181309
0.151689783389
0.152715821937
0.153797991483
0.154929750194
0.156108686259
0.157339749777
0.158637599625
0.160016289712
0.161461172048
0.162939671475
0.164445301615
0.166005900605
0.167616975191
0.168958055913
0.169577823222
0.16992138621
0.170203840516
0.170397390076
0.17049634117
0.170488334462
0.170359441847
0.170102828739
0.169715872342
0.169197272214
0.168546163216
0.167761676868
0.166842386162
0.16578567193
0.164587099627
0.163239784645
0.161733611361
0.160054084257
0.158180572354
0.156083730101
0.153721813133
0.151035374329
0.147939419139
0.144311407112
0.139974897029
0.134639580338
0.127709759322
0.11844381208
0.105999066991
0.0890173212165
0.0650561450882
0.0347425855035
0.137334025974
0.137352599115
0.137386127473
0.137444987329
0.137523460849
0.137618367213
0.137723386852
0.137853445141
0.138001802681
0.138176706736
0.138390851123
0.138618242207
0.138858030217
0.139121266614
0.139417946439
0.139733977014
0.140076075432
0.140447514687
0.140830323078
0.14123307723
0.141662077946
0.14211532648
0.142580756055
0.143064701715
0.143600243743
0.144199991959
0.144856995645
0.145546128523
0.146264429576
0.147034436007
0.14785053276
0.14870278451
0.149575231664
0.150484174636
0.15145494686
0.152495596593