/*--------------------------------*- C++ -*----------------------------------*\
| =========                 |                                                 |
| \\      /  F ield         | OpenFOAM: The Open Source CFD Toolbox           |
|  \\    /   O peration     | Version:  v1806                                 |
|   \\  /    A nd           | Web:      www.OpenFOAM.com                      |
|    \\/     M anipulation  |                                                 |
\*---------------------------------------------------------------------------*/
FoamFile
{
    version     2.0;
    format      ascii;
    class       surfaceScalarField;
    location    "457";
    object      phi;
}
// * * * * * * * * * * * * * * * * * * * * * * * * * * * * * * * * * * * * * //

dimensions      [0 3 -1 0 0 0 0];
oriented        oriented;


internalField   nonuniform List<scalar> 
12640
(
-1.95680845187e-07
1.96058044119e-07
-3.73941789146e-07
1.78539506435e-07
-5.29762295582e-07
1.56025537188e-07
-6.5980290317e-07
1.30199908005e-07
-7.5308342439e-07
9.34331713349e-08
-8.08012473123e-07
5.50899062711e-08
-8.43941654947e-07
3.60778083674e-08
-9.04378727397e-07
6.05716866203e-08
-9.91008812908e-07
8.67500908663e-08
-1.07133104347e-06
8.04255883437e-08
-1.14455095169e-06
7.33026019987e-08
-1.22203324741e-06
7.75562931258e-08
-1.29046354482e-06
6.84969297591e-08
-1.34445945988e-06
5.40583978178e-08
-1.3919880754e-06
4.75872703202e-08
-1.447509938e-06
5.55856659174e-08
-1.50477596238e-06
5.73260229886e-08
-1.55024915534e-06
4.55319065028e-08
-1.58176416124e-06
3.15595705915e-08
-1.60799515974e-06
2.6266946181e-08
-1.64804832643e-06
4.00822927571e-08
-1.70440352522e-06
5.63844226467e-08
-1.76451173631e-06
6.01328565964e-08
-1.82180581802e-06
5.73188898332e-08
-1.87328778269e-06
5.15017083906e-08
-1.91857245427e-06
4.53044878612e-08
-1.96049777059e-06
4.19391693579e-08
-1.99752139354e-06
3.70374466824e-08
-2.02803758064e-06
3.05220008864e-08
-2.05334959281e-06
2.53169041709e-08
-2.07729610471e-06
2.39420024822e-08
-2.09838771908e-06
2.10863117115e-08
-2.11366211525e-06
1.526315517e-08
-2.1284357496e-06
1.47581640877e-08
-2.14259218341e-06
1.41262008004e-08
-2.15476483749e-06
1.2141579895e-08
-2.16807527347e-06
1.32667556389e-08
-2.17977580387e-06
1.16497809395e-08
-2.18662506767e-06
6.78707371997e-09
-2.19106086814e-06
4.37475225959e-09
-2.20117516787e-06
1.0048523158e-08
-2.20962964702e-06
8.39566175689e-09
-2.20216120039e-06
-7.52941947247e-09
-2.18337370701e-06
-1.88469344624e-08
-2.15864710827e-06
-2.47916148262e-08
-2.12701635119e-06
-3.16938843209e-08
-2.08794810718e-06
-3.91375129108e-08
-2.03975688997e-06
-4.82599941711e-08
-1.98253791607e-06
-5.72946799987e-08
-1.92244412921e-06
-6.01698537572e-08
-1.86608062597e-06
-5.64522650118e-08
-1.80275291442e-06
-6.34191985355e-08
-1.70937563324e-06
-9.34788624017e-08
-1.59234094821e-06
-1.17148753912e-07
-1.45746452665e-06
-1.35003398653e-07
-1.29753488651e-06
-1.60066982061e-07
-1.13236041565e-06
-1.65344543075e-07
-9.67966992501e-07
-1.64605858811e-07
-7.83310589186e-07
-1.84920115549e-07
-5.80009260957e-07
-2.0363019511e-07
-3.66499061825e-07
-2.13927193604e-07
-1.39644687952e-07
-2.27379036133e-07
1.486807025e-07
-2.88956135876e-07
3.46804262034e-07
-1.98572042804e-07
4.49802293906e-07
-1.03261816484e-07
5.07974504235e-07
-5.83535483236e-08
5.40011071011e-07
-3.21996600668e-08
5.56301062894e-07
-1.6468976982e-08
5.57403010274e-07
-1.30906260206e-09
5.4108754859e-07
1.6083361495e-08
5.09045934366e-07
3.18007033492e-08
4.65127013754e-07
4.36892488313e-08
4.12336268458e-07
5.25782861311e-08
3.4639875756e-07
6.57369174479e-08
2.835384911e-07
6.26829721321e-08
2.2445587093e-07
5.89146177022e-08
1.80234956732e-07
4.40469750758e-08
1.27573991121e-07
5.24786805076e-08
7.78295460791e-08
4.95393702413e-08
7.76257279572e-08
-1.00279039711e-07
2.96474662529e-07
-2.32622052956e-07
3.11068744923e-07
-3.60303435697e-07
2.83847080729e-07
-4.937204813e-07
2.6373837757e-07
-6.64504552855e-07
2.64358162933e-07
-7.96111879657e-07
1.86842938267e-07
-8.70369020935e-07
1.10489345367e-07
-9.38051046048e-07
1.28388656095e-07
-1.01162992247e-06
1.60450655882e-07
-1.0926586589e-06
1.61550697778e-07
-1.1699416363e-06
1.50672839772e-07
-1.23284661166e-06
1.40531258227e-07
-1.28900993012e-06
1.24732759393e-07
-1.3425156064e-06
1.07631224387e-07
-1.39383142371e-06
9.89798512251e-08
-1.45179172692e-06
1.13610738661e-07
-1.50298649882e-06
1.08586768161e-07
-1.52374522689e-06
6.63331685954e-08
-1.53919415903e-06
4.70485123857e-08
-1.57301759456e-06
6.01160859763e-08
-1.62708658983e-06
9.41825202429e-08
-1.69959397739e-06
1.28912662381e-07
-1.76961857639e-06
1.30188532754e-07
-1.82248826864e-06
1.10206603447e-07
-1.87019506427e-06
9.92348094042e-08
-1.92028540736e-06
9.54071764796e-08
-1.96314173612e-06
8.48166091225e-08
-1.99787358167e-06
7.17744434186e-08
-2.027870577e-06
6.05321144454e-08
-2.05384495089e-06
5.1287178558e-08
-2.07487171334e-06
4.49730159811e-08
-2.09191093305e-06
3.81155633498e-08
-2.10330937571e-06
2.66553343557e-08
-2.1153409623e-06
2.67643777771e-08
-2.1340065587e-06
3.27736598878e-08
-2.14716278463e-06
2.52523014272e-08
-2.15834003122e-06
2.44018255768e-08
-2.17617336856e-06
2.94226569208e-08
-2.19563419058e-06
2.61939072078e-08
-2.20443364929e-06
1.31034209295e-08
-2.17763874517e-06
-1.68019583685e-08
-2.13221114878e-06
-3.70962023579e-08
-2.10584319648e-06
-3.39503567914e-08
-2.09238296337e-06
-3.23737994098e-08
-2.0790332968e-06
-3.81994406304e-08
-2.06331977247e-06
-4.74776356642e-08
-2.04089120247e-06
-6.16282197191e-08
-2.01115478772e-06
-7.80699608558e-08
-1.97160987607e-06
-9.69077957562e-08
-1.91148271035e-06
-1.20377229426e-07
-1.82313979277e-06
-1.44871148134e-07
-1.72726298283e-06
-1.59384709688e-07
-1.6607182707e-06
-1.60118620542e-07
-1.58158830411e-06
-1.96393420961e-07
-1.46428769192e-06
-2.52427153017e-07
-1.33954503505e-06
-2.84958753872e-07
-1.19712360965e-06
-3.07945484738e-07
-1.02471402502e-06
-3.37239967975e-07
-8.34935041028e-07
-3.74980393039e-07
-6.20237914791e-07
-4.18684522765e-07
-3.64553418736e-07
-4.70029941915e-07
-1.03350466125e-07
-4.89086240156e-07
1.61748918793e-07
-5.54639400114e-07
3.48730668433e-07
-3.85971266275e-07
4.44354899375e-07
-1.99133886346e-07
4.87571317559e-07
-1.01743609779e-07
5.23095756029e-07
-6.78838905663e-08
5.51836757329e-07
-4.53872587448e-08
5.59360695709e-07
-9.03713638809e-09
5.42317311911e-07
3.28986559297e-08
5.02797442971e-07
7.10882186635e-08
4.49476233227e-07
9.67935482634e-08
3.98204013959e-07
1.03645288803e-07
3.55408666103e-07
1.08330150602e-07
3.07954677614e-07
1.09939589468e-07
2.60064563181e-07
1.06607392142e-07
2.05660538594e-07
9.82504441726e-08
1.53410579302e-07
1.04507554383e-07
8.12365732584e-08
1.21409744726e-07
1.58700896408e-07
-1.32506566727e-07
4.29196891579e-07
-1.96017265954e-07
3.74729253905e-07
-3.55853481201e-07
4.4382892794e-07
-5.43024355083e-07
4.51059893569e-07
-7.11285074802e-07
4.32765446238e-07
-7.94447231964e-07
2.70122046701e-07
-8.33776184853e-07
1.49927605727e-07
-9.0869922959e-07
2.03430997767e-07
-9.97089056965e-07
2.48947646584e-07
-1.08388659504e-06
2.484404059e-07
-1.16402345406e-06
2.30889295021e-07
-1.23072073078e-06
2.073091879e-07
-1.28738780121e-06
1.81483385169e-07
-1.34206913577e-06
1.62397578997e-07
-1.38064489934e-06
1.37633779942e-07
-1.35475375528e-06
8.77862115892e-08
-1.29514222346e-06
4.90180938643e-08
-1.29059846981e-06
6.18236909895e-08
-1.35615427394e-06
1.12631021236e-07
-1.48764450432e-06
1.91634498297e-07
-1.62461039125e-06
2.31177294451e-07
-1.70563603058e-06
2.09970900065e-07
-1.76047580381e-06
1.85054420295e-07
-1.82118889981e-06
1.70947042239e-07
-1.8775026332e-06
1.55569203425e-07
-1.92176797881e-06
1.39693831968e-07
-1.95989354019e-06
1.22955710396e-07
-1.9943648468e-06
1.06259852995e-07
-2.02385441621e-06
9.00274432169e-08
-2.04973711018e-06
7.71765724708e-08
-2.06821019929e-06
6.3445962924e-08
-2.08268625082e-06
5.25873645356e-08
-2.09815952145e-06
4.21194585376e-08
-2.09865304024e-06
2.72427889044e-08
-2.10535501838e-06
3.94406959968e-08
-2.13423912721e-06
5.40978184193e-08
-2.14974552762e-06
3.985727974e-08
-2.16060687748e-06
4.02292734415e-08
-2.18673934823e-06
5.22629630067e-08
-2.2085646685e-06
3.48697638039e-08
-2.22001276884e-06
-5.41712043644e-09
-2.22128343702e-06
-3.58854069048e-08
-2.2094540274e-06
-4.58453565485e-08
-2.19003087691e-06
-5.18590966252e-08
-2.16553840309e-06
-6.27585713337e-08
-2.13478805795e-06
-7.82912830157e-08
-2.09824210416e-06
-9.82417040174e-08
-2.05493152861e-06
-1.21445979093e-07
-2.00395388492e-06
-1.47955750671e-07
-1.94632921713e-06
-1.78071518677e-07
-1.88244916385e-06
-2.08828562204e-07
-1.80529100009e-06
-2.36625236579e-07
-1.69773757527e-06
-2.67765420558e-07
-1.57729124707e-06
-3.16941539413e-07
-1.46327965552e-06
-3.66558464584e-07
-1.33580636991e-06
-4.12574451248e-07
-1.17879905907e-06
-4.65127773237e-07
-9.93566883379e-07
-5.22686611941e-07
-7.83965757193e-07
-5.84847046837e-07
-5.51934605902e-07
-6.51038939266e-07
-3.11525074605e-07
-7.10835507706e-07
-4.49887758071e-08
-7.56098182844e-07
1.56930795012e-07
-7.57038767599e-07
3.07344885855e-07
-5.36728898366e-07
4.15225196456e-07
-3.07237317322e-07
4.9600318539e-07
-1.82691249473e-07
5.40478891647e-07
-1.12517626325e-07
5.52932467546e-07
-5.80077202203e-08
5.44333653394e-07
-6.25869038966e-10
5.16765604563e-07
6.02601226083e-08
4.80302167994e-07
1.07340915809e-07
4.48008775885e-07
1.28875856766e-07
4.13496856836e-07
1.3794988323e-07
3.68517996204e-07
1.53105672619e-07
3.10241448243e-07
1.6802269747e-07
2.48736024145e-07
1.67912722275e-07
1.93500787868e-07
1.53270227677e-07
1.47947999236e-07
1.49839693093e-07
6.49779416337e-08
2.04148154631e-07
2.23543603033e-07
-9.41216759362e-08
5.23410083984e-07
-1.21739330051e-07
4.02448866667e-07
-3.08953361957e-07
6.31188469553e-07
-4.57943491831e-07
6.00200469722e-07
-4.57810399885e-07
4.32737917244e-07
-3.92709512671e-07
2.05068563884e-07
-5.45021242242e-07
3.02301528411e-07
-7.91661598954e-07
4.50163510947e-07
-9.53573386622e-07
4.10955341403e-07
-1.06148273891e-06
3.56436913487e-07
-1.15352016742e-06
3.23014730791e-07
-1.22962955796e-06
2.83511919636e-07
-1.27831516626e-06
2.30262238352e-07
-1.26348149587e-06
1.47649593938e-07
-1.2008903005e-06
7.51092750388e-08
-1.17321966316e-06
6.01594902469e-08
-1.22060152555e-06
9.64335530161e-08
-1.33821380508e-06
1.79465117754e-07
-1.48924429867e-06
2.63694393305e-07
-1.59340437902e-06
2.95830597979e-07
-1.6489310409e-06
2.86740863102e-07
-1.70874675937e-06
2.69819033796e-07
-1.7716281264e-06
2.47967339238e-07
-1.8255415844e-06
2.24887201678e-07
-1.87292481569e-06
2.02978497244e-07
-1.91493195636e-06
1.81720790379e-07
-1.95416638389e-06
1.62209463416e-07
-1.98862473865e-06
1.4072971668e-07
-2.01913286903e-06
1.20546949528e-07
-2.04180586308e-06
9.98563383921e-08
-2.06281329441e-06
8.44574266395e-08
-2.07284931081e-06
6.26236784342e-08
-2.07247293496e-06
4.17319054227e-08
-2.09631315282e-06
5.1058358919e-08
-2.11495463214e-06
5.80505464396e-08
-2.13020415445e-06
6.93022479919e-08
-2.17379475096e-06
8.33962651032e-08
-2.21004570651e-06
7.64229211062e-08
-2.21924005727e-06
6.14012355562e-08
-2.21961661679e-06
3.51845566564e-08
-2.22281836117e-06
-2.27821370955e-09
-2.22383491702e-06
-3.49354610407e-08
-2.21508151148e-06
-5.46625490452e-08
-2.19748862692e-06
-6.95173623692e-08
-2.17339079614e-06
-8.6919008134e-08
-2.14312499818e-06
-1.08621181238e-07
-2.10678222573e-06
-1.34646433436e-07
-2.0637534603e-06
-1.64538801185e-07
-2.01340732766e-06
-1.98365128279e-07
-1.95543886871e-06
-2.36106913704e-07
-1.88782197355e-06
-2.76513176739e-07
-1.80523508908e-06
-3.19286078766e-07
-1.70436106296e-06
-3.68718070739e-07
-1.59304563371e-06
-4.28348352508e-07
-1.46831627933e-06
-4.91393956402e-07
-1.32149750921e-06
-5.59522225368e-07
-1.1481797703e-06
-6.38604306827e-07
-9.45217386456e-07
-7.25844438635e-07
-7.13490279691e-07
-8.16812520758e-07
-4.61479504149e-07
-9.03335975007e-07
-2.05776568355e-07
-9.66871059293e-07
2.03446552099e-08
-9.82587545427e-07
1.59681639753e-07
-8.96738877628e-07
3.22309591269e-07
-6.99661076401e-07
4.5402180358e-07
-4.3917528215e-07
5.14509929572e-07
-2.43344159635e-07
5.4626457782e-07
-1.44419252268e-07
5.60421877883e-07
-7.23182427805e-08
5.57598785695e-07
2.02668571404e-09
5.39002201337e-07
7.86651375436e-08
5.06444766536e-07
1.39689181845e-07
4.60323367748e-07
1.74791391646e-07
3.97977676123e-07
2.00104483751e-07
3.30198774892e-07
2.2071617717e-07
2.66700600047e-07
2.31338756012e-07
2.0008886878e-07
2.34330202375e-07
1.3744155449e-07
2.15747823411e-07
9.34708388637e-08
1.93656522832e-07
4.82544581291e-08
2.49162512106e-07
2.71715663425e-07
-1.56358711408e-08
5.39159527138e-07
-1.09446118e-07
4.96342424029e-07
-2.62019341828e-07
7.83897353103e-07
-3.63473453678e-07
7.01787425204e-07
-3.33190741972e-07
4.02524054219e-07
-4.13455880813e-07
2.85374472888e-07
-6.16379370743e-07
5.05287205253e-07
-7.74614569692e-07
6.08487074604e-07
-9.02174546409e-07
5.38601473319e-07
-1.01899811142e-06
4.73353797713e-07
-1.12540970817e-06
4.29528561808e-07
-1.17426641917e-06
3.32462372172e-07
-1.13907270047e-06
1.95150623353e-07
-1.10281110434e-06
1.11448672024e-07
-1.13624944188e-06
1.08590776039e-07
-1.22946833782e-06
1.5341557773e-07
-1.36322811223e-06
2.30229010426e-07
-1.48460243149e-06
3.00877047977e-07
-1.54876962627e-06
3.27901712775e-07
-1.5888359195e-06
3.3593785258e-07
-1.64671833218e-06
3.44662584283e-07
-1.71050183815e-06
3.33639689048e-07
-1.76901933762e-06
3.06518372292e-07
-1.82030932949e-06
2.76209188646e-07
-1.86593869347e-06
2.48634735737e-07
-1.90924834515e-06
2.25056230979e-07
-1.9456014548e-06
1.98579251853e-07
-1.9807578421e-06
1.75903043045e-07
-2.00745702526e-06
1.47260742195e-07
-2.03049936716e-06
1.22911000333e-07
-2.03958150445e-06
9.3545816312e-08
-2.05608896645e-06
7.91266398933e-08
-2.09137799182e-06
7.70053390313e-08
-2.10441034745e-06
6.40622107984e-08
-2.13104346505e-06
8.46435413062e-08
-2.17398191104e-06
1.12194759081e-07
-2.20212765213e-06
1.11491887713e-07
-2.21939924612e-06
9.3642634623e-08
-2.22676716884e-06
6.87120330232e-08
-2.22897241353e-06
3.73292503525e-08
-2.23141985691e-06
1.03942359808e-10
-2.23146769756e-06
-3.49535519914e-08
-2.22382511379e-06
-6.23722143421e-08
-2.20771879547e-06
-8.568832006e-08
-2.18452746481e-06
-1.10174005036e-07
-2.15495848441e-06
-1.38250663206e-07
-2.11909088538e-06
-1.70573562793e-07
-2.07643854481e-06
-2.07248626756e-07
-2.02625949376e-06
-2.48602263783e-07
-1.96745854047e-06
-2.94964965435e-07
-1.89763654919e-06
-3.46395144618e-07
-1.81325034391e-06
-4.03730897026e-07
-1.71280150288e-06
-4.69232659591e-07
-1.59753958624e-06
-5.43682990504e-07
-1.4630256168e-06
-6.25996074873e-07
-1.30224135001e-06
-7.20416891981e-07
-1.1105043692e-06
-8.3047805859e-07
-8.85361902376e-07
-9.51156482057e-07
-6.31375256495e-07
-1.0710032555e-06
-3.65203812306e-07
-1.16974573101e-06
-1.14226574151e-07
-1.21811693083e-06
8.44251618833e-08
-1.18152475388e-06
2.10895206789e-07
-1.02348659929e-06
3.87280769617e-07
-8.76317507258e-07
5.18444713001e-07
-5.70554440654e-07
5.77405410482e-07
-3.02465198649e-07
5.93617481188e-07
-1.60771773473e-07
5.9095697037e-07
-6.97973005803e-08
5.78027174286e-07
1.48033709791e-08
5.54314962236e-07
1.02200312406e-07
5.09186858243e-07
1.84628119019e-07
4.40693893261e-07
2.4310393438e-07
3.66316263898e-07
2.74334404979e-07
2.95150272427e-07
2.91718978898e-07
2.2570614248e-07
3.00616094753e-07
1.60596165266e-07
2.99263058849e-07
1.17899822145e-07
2.58280130529e-07
7.64029075556e-08
2.35003798845e-07
3.25968954673e-08
2.92823204325e-07
3.04212520891e-07
-6.77881861768e-09
5.45959654591e-07
-1.38402448199e-07
6.28041816193e-07
-2.20252645872e-07
8.6586481434e-07
-2.66662633157e-07
7.48287857872e-07
-2.5631609376e-07
3.92222045416e-07
-4.59823120403e-07
4.889307769e-07
-6.64108511596e-07
7.09648341972e-07
-7.57760203441e-07
7.02215532776e-07
-8.61611698041e-07
6.42547949085e-07
-9.56992842248e-07
5.68835498553e-07
-9.98191187785e-07
4.70824935152e-07
-9.44856503152e-07
2.79203573375e-07
-9.32875243479e-07
1.83222373201e-07
-1.00021595477e-06
1.78829512005e-07
-1.11688919712e-06
2.25299311666e-07
-1.27623588838e-06
3.12798630567e-07
-1.41640404019e-06
3.70439131249e-07
-1.48163440794e-06
3.66153443653e-07
-1.51916999862e-06
3.65482762412e-07
-1.58348468984e-06
4.00297492971e-07
-1.65002678191e-06
4.11248173447e-07
-1.70688408467e-06
3.90537747309e-07
-1.76090217259e-06
3.60574263226e-07
-1.81408257074e-06
3.2942245407e-07
-1.86136309575e-06
2.95946968637e-07
-1.89264718309e-06
2.56365184366e-07
-1.93068578429e-06
2.36642019014e-07
-1.96147992574e-06
2.06717334571e-07
-1.98928393519e-06
1.75080683941e-07
-1.99593484591e-06
1.29574174817e-07
-2.00723041139e-06
1.04846698463e-07
-2.02897267626e-06
1.00861360087e-07
-2.04915053039e-06
9.71615616713e-08
-2.10930012881e-06
1.24178765078e-07
-2.16520582807e-06
1.40508138437e-07
-2.19742038347e-06
1.44365704673e-07
-2.21633083588e-06
1.30356523997e-07
-2.22863306079e-06
1.05895164204e-07
-2.2358938879e-06
7.59185232327e-08
-2.23988227762e-06
4.12570011998e-08
-2.24248421087e-06
2.64036630116e-09
-2.24202818555e-06
-3.54781915376e-08
-2.2350359151e-06
-6.94326049783e-08
-2.2202540126e-06
-1.00537041286e-07
-2.1982557079e-06
-1.32236095057e-07
-2.16963983449e-06
-1.66927757306e-07
-2.13449161082e-06
-2.0577955346e-07
-2.09231718842e-06
-2.49478153895e-07
-2.04219754492e-06
-2.98774420569e-07
-1.98270591062e-06
-3.54508638848e-07
-1.91157243479e-06
-4.17574987239e-07
-1.82610207475e-06
-4.89251572708e-07
-1.72428572561e-06
-5.71095092753e-07
-1.60370618507e-06
-6.64318112894e-07
-1.45849093462e-06
-7.71281407263e-07
-1.28200361119e-06
-8.96991902555e-07
-1.07038229998e-06
-1.04221535293e-06
-8.24682464867e-07
-1.19699792121e-06
-5.54593502171e-07
-1.3412617389e-06
-2.81345751401e-07
-1.44318827338e-06
-3.64314371187e-08
-1.46324637618e-06
1.51387252863e-07
-1.36956412848e-06
3.10163874637e-07
-1.18249538e-06
4.59131663911e-07
-1.02552006021e-06
5.61539611902e-07
-6.73149023461e-07
6.16833674231e-07
-3.57903676888e-07
6.38727308829e-07
-1.82796384537e-07
6.35288837133e-07
-6.64907339414e-08
6.18105626065e-07
3.18445068694e-08
5.79583516374e-07
1.40563580265e-07
5.05647198637e-07
2.58395703552e-07
4.21469663527e-07
3.2714636105e-07
3.38484210016e-07
3.57170831849e-07
2.59563019022e-07
3.70500052456e-07
1.89206519966e-07
3.70783026238e-07
1.4034142068e-07
3.47949488827e-07
1.00462061542e-07
2.98012383497e-07
6.2314236386e-08
2.73008356737e-07
2.99111001013e-08
3.2504407356e-07
3.34069744666e-07
-5.18629223985e-08
5.97894007998e-07
-2.08362424637e-07
7.84618940653e-07
-2.79228011723e-07
9.3684502188e-07
-2.37759354133e-07
7.06899622657e-07
-3.12530503478e-07
4.67035019454e-07
-5.42218444183e-07
7.18679040716e-07
-6.55874990158e-07
8.23374790796e-07
-7.34866731807e-07
7.81297488924e-07
-8.03731409443e-07
7.11498867458e-07
-8.99235939225e-07
6.64445134164e-07
-8.79712377151e-07
4.51386061989e-07
-8.51429162829e-07
2.5097563468e-07
-9.16285972358e-07
2.48120172383e-07
-1.01240014359e-06
2.7497422997e-07
-1.16503849361e-06
3.7797358218e-07
-1.31800584829e-06
4.65814547073e-07
-1.38839053867e-06
4.40874836656e-07
-1.42674307832e-06
4.0455377753e-07
-1.50403263007e-06
4.42820174274e-07
-1.58184107652e-06
4.78154971304e-07
-1.6433981979e-06
4.72852810134e-07
-1.70058159782e-06
4.47765806569e-07
-1.75589500493e-06
4.15926329358e-07
-1.80143633085e-06
3.75002095678e-07
-1.83669076226e-06
3.31235482447e-07
-1.87233686347e-06
2.92040479282e-07
-1.89715153286e-06
2.61481607846e-07
-1.92994207841e-06
2.39528099878e-07
-1.94757122429e-06
1.92728093216e-07
-1.95649777539e-06
1.38513063796e-07
-1.98441491788e-06
1.32764301613e-07
-2.0205904619e-06
1.37026790475e-07
-2.07432482505e-06
1.50871757957e-07
-2.12895185227e-06
1.78772421403e-07
-2.18274474608e-06
1.94264932459e-07
-2.21151043066e-06
1.73092663072e-07
-2.22744025954e-06
1.46243731344e-07
-2.23889112526e-06
1.17298089821e-07
-2.24731769404e-06
8.42906124457e-08
-2.25285884422e-06
4.6736996367e-08
-2.25596249681e-06
5.67727357758e-09
-2.25547648999e-06
-3.60340489037e-08
-2.24905769176e-06
-7.59223683295e-08
-2.23544904276e-06
-1.14215198587e-07
-2.21472689623e-06
-1.53025227676e-07
-2.18724371442e-06
-1.9447364131e-07
-2.15298436118e-06
-2.40096670982e-07
-2.11141115057e-06
-2.91104904724e-07
-2.06153823352e-06
-3.48697190774e-07
-2.0018818109e-06
-4.14207743011e-07
-1.93032007923e-06
-4.8918240442e-07
-1.84417848364e-06
-5.75423273686e-07
-1.74027479354e-06
-6.75036369386e-07
-1.61387661258e-06
-7.90757311565e-07
-1.45821889877e-06
-9.26991725276e-07
-1.26724790827e-06
-1.0880408914e-06
-1.03875155085e-06
-1.27080713553e-06
-7.76570390567e-07
-1.45929905207e-06
-4.91525152299e-07
-1.62645001156e-06
-2.03617106098e-07
-1.73126122226e-06
5.45914987997e-08
-1.72163585073e-06
2.66041632971e-07
-1.58121040387e-06
4.51726904468e-07
-1.36838655293e-06
5.31123576068e-07
-1.10512263586e-06
6.2793428865e-07
-7.70139237963e-07
6.84287441606e-07
-4.14391480729e-07
7.21448608283e-07
-2.20084558943e-07
7.2318138273e-07
-6.83534352955e-08
6.86513308359e-07
6.83757443448e-08
6.08268555721e-07
2.18659837547e-07
5.0893998112e-07
3.57595756992e-07
4.09749218597e-07
4.26193158693e-07
3.0967802465e-07
4.57123839953e-07
2.21458575637e-07
4.58517018337e-07
1.56237053694e-07
4.35835440319e-07
1.23023267814e-07
3.80985751598e-07
8.45215351693e-08
3.36348254638e-07
4.78464864715e-08
3.09531263964e-07
2.71011063709e-08
3.45687002615e-07
3.61098477518e-07
-9.56207221523e-08
6.93532847448e-07
-2.33518009819e-07
9.22594417972e-07
-2.63300591615e-07
9.66693056863e-07
-1.80865635345e-07
6.24509541538e-07
-3.53415502369e-07
6.39631938726e-07
-5.44365941288e-07
9.09694351955e-07
-6.27131830411e-07
9.06221198306e-07
-7.12851933036e-07
8.67098041986e-07
-7.29209521956e-07
7.27959546066e-07
-7.58211840278e-07
6.93529954802e-07
-7.29173729062e-07
4.22406601625e-07
-8.2145711193e-07
3.43300517064e-07
-9.08102991752e-07
3.34798652594e-07
-1.04341299854e-06
4.10320462951e-07
-1.20202526314e-06
5.36632894058e-07
-1.28453707591e-06
5.48380637821e-07
-1.32292762284e-06
4.79318246395e-07
-1.4071539596e-06
4.88831409475e-07
-1.50081813622e-06
5.36536809936e-07
-1.56982505725e-06
5.4721487e-07
-1.62738007135e-06
5.30458383074e-07
-1.68308721447e-06
5.03517267238e-07
-1.74255523013e-06
4.75439877085e-07
-1.79836631795e-06
4.30855161902e-07
-1.82731254061e-06
3.6021645684e-07
-1.86659580728e-06
3.31357271505e-07
-1.89396344215e-06
2.88877075151e-07
-1.89663809491e-06
2.42226169108e-07
-1.91389154127e-06
2.0999788122e-07
-1.97829705116e-06
2.02927841085e-07
-2.01948553224e-06
1.73954002049e-07
-2.03482527221e-06
1.52351954479e-07
-2.09329819397e-06
2.09321782445e-07
-2.16145973899e-06
2.46906035455e-07
-2.19672758702e-06
2.2950186159e-07
-2.22057442579e-06
1.96905259862e-07
-2.23787551487e-06
1.63505151336e-07
-2.25088845378e-06
1.30265294549e-07
-2.26085724013e-06
9.42061534083e-08
-2.26789127686e-06
5.37105131698e-08
-2.27178926354e-06
9.50791078743e-09
-2.2716567641e-06
-3.62384585865e-08
-2.2659384643e-06
-8.17147746905e-08
-2.25350446485e-06
-1.26723462374e-07
-2.23411016768e-06
-1.72492058136e-07
-2.20786220341e-06
-2.20790593676e-07
-2.17463227143e-06
-2.73392269285e-07
-2.13386896476e-06
-3.31927481288e-07
-2.08463715763e-06
-3.97981054685e-07
-2.02554253717e-06
-4.73354219173e-07
-1.9544825834e-06
-5.60271008342e-07
-1.86843488257e-06
-6.61510837874e-07
-1.76298960169e-06
-7.80506872497e-07
-1.63200748755e-06
-9.21774710718e-07
-1.46853656028e-06
-1.09051571489e-06
-1.26755690098e-06
-1.28908162649e-06
-1.02752260577e-06
-1.51092737391e-06
-7.50157651469e-07
-1.73677431066e-06
-4.38862942996e-07
-1.93786237111e-06
-1.13924094902e-07
-2.05634160894e-06
1.83630473448e-07
-2.01934927917e-06
4.2652477084e-07
-1.82428286998e-06
5.99418877135e-07
-1.54146797264e-06
6.99837504601e-07
-1.20573947024e-06
7.7242546983e-07
-8.42909492313e-07
8.04098653967e-07
-4.46206800174e-07
8.17797992818e-07
-2.33907040713e-07
8.03880578011e-07
-5.45628788265e-08
7.40397594442e-07
1.31728365598e-07
6.37626121188e-07
3.21308876076e-07
5.22095064424e-07
4.7299229454e-07
3.95281387025e-07
5.52911827104e-07
2.71375585275e-07
5.80831598644e-07
1.74230689635e-07
5.55544806237e-07
1.20121862103e-07
4.89731566065e-07
9.34371404924e-08
4.07502630639e-07
6.70786694753e-08
3.6254973127e-07
3.2996463533e-08
3.43487145335e-07
1.72178688669e-08
3.61310218577e-07
3.78218377624e-07
-1.25084234984e-07
8.18697964337e-07
-2.28954211052e-07
1.02654209521e-06
-2.14249578199e-07
9.52067590994e-07
-2.28775849348e-07
6.39077553601e-07
-4.24756037944e-07
8.3566642709e-07
-5.11050186818e-07
9.96060338225e-07
-5.88415251289e-07
9.83669299932e-07
-6.69442343743e-07
9.48211817017e-07
-6.96058171932e-07
7.54649576216e-07
-7.25633608178e-07
7.23189664917e-07
-7.42910573191e-07
4.39726739364e-07
-8.2375073989e-07
4.24177756773e-07
-9.26356430813e-07
4.37434328774e-07
-1.07942122069e-06
5.63424334898e-07
-1.21365923981e-06
6.70931143576e-07
-1.26384015515e-06
5.98623288909e-07
-1.31342763982e-06
5.28960365137e-07
-1.40077235435e-06
5.76230052786e-07
-1.48522570129e-06
6.21046161697e-07
-1.55455295149e-06
6.16596448814e-07
-1.613580966e-06
5.89535437737e-07
-1.66184561452e-06
5.51834112637e-07
-1.70418673114e-06
5.1783235388e-07
-1.74872461271e-06
4.75436963374e-07
-1.78738201062e-06
3.98915667197e-07
-1.81404393513e-06
3.58054331315e-07
-1.85761927337e-06
3.32480976252e-07
-1.90515000686e-06
2.89781555378e-07
-1.94518875376e-06
2.50056588544e-07
-1.97538558289e-06
2.33134622015e-07
-2.01719566382e-06
2.15759057078e-07
-2.09730305163e-06
2.324442261e-07
-2.14574679864e-06
2.57744334356e-07
-2.17816005429e-06
2.79296168856e-07
-2.20657924966e-06
2.57896747447e-07
-2.23054017041e-06
2.20836749611e-07
-2.24981973077e-06
1.82748849681e-07
-2.2647398025e-06
1.45141136411e-07
-2.27624794692e-06
1.0566201477e-07
-2.28474384141e-06
6.2145106604e-08
-2.28981681607e-06
1.45119658443e-08
-2.29051724193e-06
-3.56136338017e-08
-2.28571372191e-06
-8.65986865492e-08
-2.274528359e-06
-1.37992085153e-07
-2.2565382474e-06
-1.90565548494e-07
-2.23159890609e-06
-2.45812403368e-07
-2.19952013772e-06
-3.05546463076e-07
-2.1598529444e-06
-3.71665144553e-07
-2.11182331896e-06
-4.4607619932e-07
-2.05419093479e-06
-5.31027012501e-07
-1.9849055677e-06
-6.29615117345e-07
-1.90046900484e-06
-7.45971713308e-07
-1.79556782455e-06
-8.85448135957e-07
-1.6633611901e-06
-1.05402580792e-06
-1.49734888883e-06
-1.25657108752e-06
-1.29317908363e-06
-1.49332261477e-06
-1.04554478849e-06
-1.75864812132e-06
-7.46939087361e-07
-2.03545993063e-06
-3.89891932325e-07
-2.29502658337e-06
-9.47523713713e-09
-2.43689117274e-06
3.26952115053e-07
-2.35593961196e-06
5.86769740073e-07
-2.08426906233e-06
7.80869320526e-07
-1.73575067979e-06
9.23698805485e-07
-1.34874918994e-06
9.9889582367e-07
-9.18286727165e-07
1.01328453291e-06
-4.60759469412e-07
9.59449320778e-07
-1.80217909233e-07
9.14890100472e-07
-1.01308482098e-08
8.24350523085e-07
2.22141218683e-07
6.91632499627e-07
4.53903368579e-07
5.41409970179e-07
6.23125752004e-07
3.71682076892e-07
7.22451830921e-07
2.14914058721e-07
7.37549747323e-07
1.05998328564e-07
6.64206256523e-07
5.96141363049e-08
5.35990269205e-07
4.75432241525e-08
4.19394523394e-07
4.37296957854e-08
3.6620787761e-07
2.1608150294e-08
3.65443683821e-07
7.63057174362e-09
3.75113854323e-07
3.85792055872e-07
-1.45066783365e-07
9.63779139713e-07
-2.40316033848e-07
1.12184755082e-06
-1.96457477647e-07
9.08258197304e-07
-2.76371053444e-07
7.19043136686e-07
-4.45046402366e-07
1.00441234333e-06
-4.76119281594e-07
1.02721486209e-06
-5.42548413372e-07
1.05017240036e-06
-5.75223040966e-07
9.8096887278e-07
-6.38893922479e-07
8.18383512835e-07
-6.37927474945e-07
7.22276489639e-07
-7.17758317824e-07
5.19597970083e-07
-8.18025613289e-07
5.24472726225e-07
-9.32550791984e-07
5.51996910987e-07
-1.07346886892e-06
7.0439606152e-07
-1.15542507716e-06
7.52947357194e-07
-1.18959692511e-06
6.3285382213e-07
-1.27954508903e-06
6.18965136411e-07
-1.37775669634e-06
6.74499451929e-07
-1.45830074571e-06
7.01648096321e-07
-1.53195574821e-06
6.9030669743e-07
-1.60035244951e-06
6.57991547988e-07
-1.65959010805e-06
6.11127830052e-07
-1.69326123053e-06
5.51555539206e-07
-1.7186795783e-06
5.00905471345e-07
-1.77699091207e-06
4.5726802789e-07
-1.80905609769e-06
3.9015619221e-07
-1.81361900134e-06
3.3707901125e-07
-1.83593559537e-06
3.12126799156e-07
-1.88998275082e-06
3.04121342819e-07
-1.96456446924e-06
3.0772401107e-07
-2.03312254747e-06
2.84312425357e-07
-2.09041196796e-06
2.8971913312e-07
-2.1559715092e-06
3.23286376089e-07
-2.19205047193e-06
3.15359999128e-07
-2.2183760731e-06
2.84204022518e-07
-2.24267168529e-06
2.45108058858e-07
-2.26380336304e-06
2.03847775577e-07
-2.28069598096e-06
1.61993006189e-07
-2.29372363377e-06
1.18639108821e-07
-2.3035606834e-06
7.19223788589e-08
-2.30997034946e-06
2.08517539701e-08
-2.31192266239e-06
-3.37401902428e-08
-2.30835171864e-06
-9.02564293871e-08
-2.29853176804e-06
-1.47905398262e-07
-2.28203300368e-06
-2.07162568389e-07
-2.25854654344e-06
-2.6939781012e-07
-2.22780079343e-06
-3.36392592067e-07
-2.18952908565e-06
-4.10028480805e-07
-2.14332722182e-06
-4.92350342048e-07
-2.08833633649e-06
-5.86102752528e-07
-2.02259760016e-06
-6.95384061105e-07
-1.94240160819e-06
-8.26218076425e-07
-1.8417433035e-06
-9.86157731809e-07
-1.71355524902e-06
-1.18225288251e-06
-1.5520953143e-06
-1.41809540529e-06
-1.35263116608e-06
-1.69284019773e-06
-1.0982665475e-06
-2.01308820291e-06
-7.69253656037e-07
-2.36458498465e-06
-3.51479915599e-07
-2.71287497914e-06
8.38901687461e-08
-2.8723616216e-06
4.4812743432e-07
-2.72031818745e-06
7.36022479473e-07
-2.37232497937e-06
9.76973668372e-07
-1.97686894295e-06
1.17711231071e-06
-1.5490547066e-06
1.34650801666e-06
-1.08785243765e-06
1.4633708372e-06
-5.77798580606e-07
1.31619944881e-06
-3.32086374333e-08
1.04660715198e-06
2.59324153721e-07
9.15979698683e-07
3.52654778639e-07
7.58020749633e-07
6.11768079224e-07
5.59669232694e-07
8.21327868203e-07
3.30327539086e-07
9.51782965199e-07
1.2719884728e-07
9.40418773614e-07
-1.56153357025e-09