/*--------------------------------*- C++ -*----------------------------------*\
| =========                 |                                                 |
| \\      /  F ield         | OpenFOAM: The Open Source CFD Toolbox           |
|  \\    /   O peration     | Version:  v1806                                 |
|   \\  /    A nd           | Web:      www.OpenFOAM.com                      |
|    \\/     M anipulation  |                                                 |
\*---------------------------------------------------------------------------*/
FoamFile
{
    version     2.0;
    format      ascii;
    class       surfaceScalarField;
    location    "23";
    object      phi;
}
// * * * * * * * * * * * * * * * * * * * * * * * * * * * * * * * * * * * * * //

dimensions      [0 3 -1 0 0 0 0];
oriented        oriented;


internalField   nonuniform List<scalar> 
12640
(
-1.54729358583e-07
1.51327940374e-07
-3.16744701209e-07
1.57507408778e-07
-4.83231395569e-07
1.62283815538e-07
-6.4543248922e-07
1.57175034141e-07
-7.49393420614e-07
9.96278225322e-08
-7.41450378008e-07
-9.53785022768e-09
-6.64244232769e-07
-7.77376434986e-08
-6.58119736609e-07
-7.07678838631e-09
-7.48047198714e-07
8.81456769506e-08
-8.23416279126e-07
7.30208916747e-08
-9.12817668494e-07
8.57535715895e-08
-1.1336169265e-06
2.15903768296e-07
-1.38805964079e-06
2.47783507372e-07
-1.51332963656e-06
1.2025712839e-07
-1.52812292902e-06
1.26930967062e-08
-1.67245215485e-06
1.45212404836e-07
-1.94555770632e-06
2.77281367871e-07
-2.10557022634e-06
1.66909221911e-07
-2.03507824026e-06
-6.43954252972e-08
-1.77567020565e-06
-2.54913363346e-07
-1.50651490226e-06
-2.64016288788e-07
-1.27707261474e-06
-2.23471094306e-07
-1.0896112121e-06
-1.82519787951e-07
-1.02642009905e-06
-6.48301608168e-08
-1.05202866838e-06
1.81298426956e-08
-1.05139639864e-06
-1.35942289994e-08
-1.19539396019e-06
1.2871976271e-07
-1.35151162384e-06
1.3845928999e-07
-1.51319261254e-06
1.3369668378e-07
-1.60818482761e-06
7.84769259406e-08
-1.50348589552e-06
-1.20943766133e-07
-1.23158983709e-06
-2.95801727334e-07
-1.01560788168e-07
-1.16158221869e-06
2.32745162622e-06
-2.45962420293e-06
5.33150952747e-06
-3.02249202011e-06
8.18234892895e-06
-2.86348413432e-06
1.07721330185e-05
-2.59698315543e-06
1.30942225129e-05
-2.32748709926e-06
1.51511227974e-05
-2.06024602085e-06
1.69306676133e-05
-1.78282832845e-06
1.84112336333e-05
-1.48306300058e-06
1.95584252512e-05
-1.15014208639e-06
2.03342797162e-05
-7.78407721571e-07
2.07013947531e-05
-3.70239774177e-07
2.06530142422e-05
4.55329556722e-08
2.0194686929e-05
4.54818306468e-07
1.9298781346e-05
8.92641456115e-07
1.79009151533e-05
1.39365513947e-06
1.59458197271e-05
1.95167234242e-06
1.34034540528e-05
2.53782372376e-06
1.02473076914e-05
3.15242816176e-06
6.3374073899e-06
3.90907571776e-06
2.08646802044e-06
4.25295341759e-06
-1.31300473406e-06
3.40335748938e-06
-2.88077056255e-06
1.57093757226e-06
-2.72346873605e-06
-1.56123093748e-07
-1.43105317573e-06
-1.29245431674e-06
6.34177688373e-07
-2.06625236074e-06
3.04356962589e-06
-2.41047699044e-06
6.26744761696e-06
-3.22536611476e-06
9.96248312633e-06
-3.6966369481e-06
1.18462123231e-05
-1.88425718359e-06
1.13624042849e-05
4.82625823781e-07
1.08134287471e-05
5.47465799605e-07
1.07302390841e-05
8.18485849559e-08
1.07740151845e-05
-4.49556578455e-08
1.07745927793e-05
-1.77714785081e-09
1.0762333945e-05
1.09070626765e-08
1.06872638784e-05
7.36239471451e-08
1.04674904802e-05
2.18256057632e-07
1.00646671266e-05
4.01223888641e-07
9.45446657993e-06
6.08459486098e-07
8.63985432137e-06
8.12683118525e-07
7.47468434814e-06
1.16289451304e-06
6.28943846919e-06
1.18267419335e-06
5.12286825321e-06
1.16359280465e-06
4.223763035e-06
8.95965609567e-07
3.05548812488e-06
1.1646362714e-06
1.86730904283e-06
1.18148519136e-06
1.86365817893e-06
-6.53415154212e-08
2.1333589526e-07
-1.53021255083e-07
2.41672821174e-07
-2.39364020524e-07
2.44967945195e-07
-3.34645831075e-07
2.49423678722e-07
-5.28183653969e-07
2.90654938098e-07
-7.66792583434e-07
2.26113025136e-07
-9.47423337549e-07
1.00157990773e-07
-1.06834002711e-06
1.10961395726e-07
-1.18593710827e-06
2.01908501225e-07
-1.34332307232e-06
2.24631887162e-07
-1.52584956017e-06
2.62999767856e-07
-1.64176860414e-06
3.26630440336e-07
-1.70747839502e-06
3.10818565932e-07
-1.82845724519e-06
2.40842735018e-07
-1.99033402263e-06
1.77830057656e-07
-2.00622497834e-06
1.66103218657e-07
-1.7902962428e-06
6.882447373e-08
-1.36812819925e-06
-2.51853274258e-07
-1.12390989847e-06
-3.0697402612e-07
-1.0500910562e-06
-3.26540659241e-07
-9.76959711678e-07
-3.35003707728e-07
-9.82251489396e-07
-2.15467864334e-07
-1.10734363861e-06
-5.84404018105e-08
-1.06860411567e-06
-1.11281278446e-07
-1.0458808663e-06
-1.42770611179e-08
-1.37849494882e-06
2.95543387124e-07
-1.96194535025e-06
6.65354712311e-07
-2.15539342567e-06
2.88535140437e-07
-8.63442549798e-07
-1.20132326824e-06
1.905364474e-06
-2.72044682377e-06
5.08507907243e-06
-3.31594673899e-06
8.57487760957e-06
-3.795247623e-06
1.18771501377e-05
-4.47115963687e-06
1.45568827931e-05
-5.14963950163e-06
1.69955476304e-05
-5.46894426244e-06
1.95793265318e-05
-5.45499581151e-06
2.22617161151e-05
-5.28374684992e-06
2.49609188231e-05
-5.03109354756e-06
2.76181671914e-05
-4.71953383327e-06
3.01863443537e-05
-4.35363890405e-06
3.2631268786e-05
-3.92900570917e-06
3.49210931446e-05
-3.44177200224e-06
3.7029647098e-05
-2.8875281991e-06
3.89236984381e-05
-2.26558574888e-06
4.05420203146e-05
-1.57305833721e-06
4.18006177871e-05
-8.04631011243e-07
4.26550864138e-05
3.82435388939e-08
4.30946571102e-05
9.5376970711e-07
4.30789307758e-05
1.9679328745e-06
4.2538341283e-05
3.07870008334e-06
4.14751105923e-05
4.21628760855e-06
4.01012900536e-05
5.28304147464e-06
3.84071249074e-05
5.94772786027e-06
3.61310863961e-05
5.67990135387e-06
3.34474180253e-05
4.25480434884e-06
3.16258025009e-05
1.66554659912e-06
3.1804692549e-05
-1.4721747395e-06
3.36457523777e-05
-3.90870579286e-06
3.53055202588e-05
-4.072680966e-06
3.22527593915e-05
-1.74465703744e-07
2.29033273593e-05
5.65279612299e-06
1.49407414475e-05
6.07765064916e-06
1.17836376058e-05
3.63961000299e-06
1.07035463579e-05
1.62765111232e-06
1.03185947062e-05
4.66336729719e-07
1.0020925469e-05
2.51918545638e-07
1.01004652166e-05
-8.2251172492e-08
1.03632351502e-05
-2.52989038947e-07
1.04791438368e-05
-4.35837366036e-08
1.03277637634e-05
3.68158989588e-07
9.85706097496e-06
8.70323878796e-07
9.13027209034e-06
1.33344095729e-06
8.42396287593e-06
1.51681211642e-06
7.8473462542e-06
1.7367129249e-06
7.06665308834e-06
1.96007408423e-06
6.18307096392e-06
2.04350292269e-06
5.07789665335e-06
1.99653956961e-06
3.8823255244e-06
2.35518184572e-06
2.08923436883e-06
2.9691782151e-06
3.9459198301e-06
-9.51892660794e-08
3.07368209218e-07
-1.20854287981e-07
2.63657687198e-07
-2.83220659344e-07
4.03755011518e-07
-5.43441163063e-07
5.06607096386e-07
-7.56785364227e-07
5.01607755203e-07
-8.13885029373e-07
2.80680697567e-07
-8.34820959334e-07
1.17390156185e-07
-9.5485590439e-07
2.25242287938e-07
-1.15249016006e-06
3.92334771285e-07
-1.35211213959e-06
4.17920997754e-07
-1.52635840768e-06
4.325044437e-07
-1.61261628713e-06
4.12625905044e-07
-1.63683390638e-06
3.38371304841e-07
-1.61388189638e-06
2.2203234326e-07
-1.46069659229e-06
2.9520671597e-08
-1.02738100973e-06
-2.63465069153e-07
-6.6244321644e-07
-2.96558241674e-07
-6.13242535614e-07
-3.01644947885e-07
-6.10246223901e-07
-3.10061412313e-07
-6.77940904983e-07
-2.60114255004e-07
-8.72807552024e-07
-1.3944823122e-07
-8.94347289769e-07
-1.98117035686e-07
-7.95496935342e-07
-1.64082910963e-07
-9.74225437638e-07
5.55161214292e-08
-1.82196971378e-06
7.91750152145e-07
-2.5497424713e-06
9.65219071951e-07
-1.38556643169e-06
-5.50979436162e-07
1.66990306067e-06
-2.79671555029e-06
4.67368027237e-06
-4.2220743698e-06
7.26386356975e-06
-5.3198682205e-06
1.00369854585e-05
-6.09336387643e-06
1.29702243879e-05
-6.73009967514e-06
1.58307600019e-05
-7.33467047766e-06
1.85183446036e-05
-7.84128749407e-06
2.11716839019e-05
-8.12786144046e-06
2.38976044902e-05
-8.18609229643e-06
2.66871405293e-05
-8.07830381056e-06
2.94991175874e-05
-7.84691323366e-06
3.22888655536e-05
-7.51276828332e-06
3.50165262701e-05
-7.08378841235e-06
3.76475202422e-05
-6.56230547523e-06
4.01525643465e-05
-5.94837678512e-06
4.25059677366e-05
-5.24243486976e-06
4.468475604e-05
-4.4452975986e-06
4.66684711066e-05
-3.55765908712e-06
4.84419419329e-05
-2.57848116106e-06
4.99855742765e-05
-1.5056414046e-06
5.12718672072e-05
-3.32170198861e-07
5.22977953707e-05
9.42618043552e-07
5.30412207627e-05
2.33610832885e-06
5.34507313129e-05
3.80701667852e-06
5.34957040417e-05
5.23772760557e-06
5.30577952452e-05
6.38437541969e-06
5.19851284127e-05
6.75092178513e-06
5.05520372638e-05
5.68669505894e-06
5.01798688835e-05
2.03612839338e-06
5.12182560981e-05
-2.51152683418e-06
4.95189151517e-05
-2.21026786029e-06
4.18714120577e-05
3.57463084877e-06
3.18247568749e-05
9.87272295338e-06
2.44664707326e-05
1.30113398425e-05
1.81213461698e-05
1.24249828332e-05
1.25836805771e-05
9.17979410104e-06
9.59207105993e-06
4.62035790748e-06
9.08634849154e-06
9.72775006486e-07
9.53623930282e-06
-1.97867854758e-07
9.84589700484e-06
-3.92230955413e-07
9.90454424918e-06
-3.12301939223e-07
9.81633109799e-06
4.3733549655e-08
9.56316507235e-06
6.2008078788e-07
9.27636624204e-06
1.15543641829e-06
9.15290943209e-06
1.45469781343e-06
8.97484057108e-06
1.69208045535e-06
8.44437019527e-06
2.26382779834e-06
7.47290880235e-06
2.9275759126e-06
6.29428913905e-06
3.21751547766e-06
5.1392839288e-06
3.14734122463e-06
4.07959954805e-06
3.40995559253e-06
1.88664478438e-06
5.15231079516e-06
5.83121404065e-06
-6.36963712033e-08
3.66588025559e-07
-5.52214721622e-08
2.53317122492e-07
-3.33317715367e-07
6.78268517599e-07
-5.02543875774e-07
6.74219536188e-07
-3.79789185206e-07
3.77864715548e-07
-2.18173835515e-07
1.18067826771e-07
-2.95636963658e-07
1.92229200339e-07
-6.48694857365e-07
5.71248162721e-07
-1.03981207165e-06
7.75133628339e-07
-1.31074328564e-06
6.83466466236e-07
-1.49834387089e-06
6.19855055211e-07
-1.51311377217e-06
4.31210045691e-07
-1.33161450745e-06
1.61745190204e-07
-9.8358693785e-07
-1.21484936343e-07
-6.92546826927e-07
-2.59460430447e-07
-6.42355696504e-07
-3.1528811451e-07
-6.25978777788e-07
-3.14985990334e-07
-6.55513539348e-07
-2.74249980945e-07
-8.31108385018e-07
-1.38843831795e-07
-1.01059333848e-06
-8.24620867514e-08
-9.97174835089e-07
-1.58473174972e-07
-1.09048796607e-06
-1.12882014458e-07
-1.49837417888e-06
2.2590092672e-07
-2.97803963981e-06
1.47348232259e-06
-3.3103452512e-06
1.05845878163e-06
-8.47015300783e-07
-1.53172225625e-06
2.20198609228e-06
-3.61847457717e-06
4.75584964223e-06
-5.3613592031e-06
7.28106239991e-06
-6.75570830007e-06
9.84221363015e-06
-7.88791895769e-06
1.25356860361e-05
-8.79029993519e-06
1.53371390907e-05
-9.53298103347e-06
1.81575732353e-05
-1.01566333949e-05
2.09524859704e-05
-1.06395800394e-05
2.37563125217e-05
-1.09361817176e-05
2.66024856263e-05
-1.10374965565e-05
2.94848259528e-05
-1.09655835058e-05
3.23760092998e-05
-1.07427999604e-05
3.52423999196e-05
-1.03831296277e-05
3.80494807388e-05
-9.89444916419e-06
4.07652616128e-05
-9.2809963572e-06
4.33605448316e-05
-8.54626687689e-06
4.58099941348e-05
-7.69397782741e-06
4.80917109369e-05
-6.72890933804e-06
5.01884444694e-05
-5.65590919342e-06
5.20877115384e-05
-4.47911590611e-06
5.37815715256e-05
-3.20054331193e-06
5.52682522647e-05
-1.81966082961e-06
5.65465008324e-05
-3.36068964141e-07
5.76179227762e-05
1.26425149182e-06
5.84215750099e-05
3.00276004308e-06
5.88386059277e-05
4.81938400958e-06
5.86714862683e-05
6.54961496601e-06
5.75198742852e-05
7.90051434935e-06
5.47463484002e-05
8.45773505246e-06
4.91877387861e-05
7.59351175572e-06
4.06561069626e-05
6.01986062405e-06
3.07200875802e-05
7.72647782085e-06
2.34175025615e-05
1.08784278113e-05
1.95281141338e-05
1.37636159387e-05
1.69563250639e-05
1.55860556934e-05
1.37841286936e-05
1.55999958675e-05
1.01739569502e-05
1.27927663023e-05
8.32062404854e-06
6.4783162437e-06
8.62782328081e-06
6.67610677819e-07
8.89647722038e-06
-4.657463915e-07
9.13261156902e-06
-6.28224900147e-07
9.36547877099e-06
-5.45401599412e-07
9.5602133408e-06
-1.51778981951e-07
9.69688331487e-06
4.82036438971e-07
9.76081894057e-06
1.0894002721e-06
9.58999057849e-06
1.62270019358e-06
8.85870710504e-06
2.42009848825e-06
7.79285822999e-06
3.32599656481e-06
6.69524927644e-06
4.02103331545e-06
5.3591867145e-06
4.5490101956e-06
3.88476466732e-06
4.61677534735e-06
2.75283086072e-06
4.53742102918e-06
1.48704633902e-06
6.41597380653e-06
7.31271966739e-06
3.54534391154e-09
3.62632726641e-07
-6.24303152154e-08
3.16633277996e-07
-3.31044616219e-07
9.45092800271e-07
-3.30820950916e-07
6.74222085477e-07
-2.08098998294e-07
2.54294586368e-07
-2.36021868462e-07
1.44120929371e-07
-4.68785736719e-07
4.19603801072e-07
-9.24671754228e-07
1.01894564971e-06
-1.158851469e-06
1.003116708e-06
-1.25836633639e-06
7.80667344571e-07
-1.19752848153e-06
5.61627889005e-07
-9.8020385866e-07
2.16633448907e-07
-7.43161297688e-07
-7.3053625039e-08
-6.77337058293e-07
-1.86502845694e-07
-6.94950779235e-07
-2.43623194486e-07
-7.41029547516e-07
-2.71738757695e-07
-8.35399184231e-07
-2.23967942292e-07
-1.06286677036e-06
-5.31282324432e-08
-1.15275280708e-06
-5.33208432174e-08
-1.04756644694e-06
-1.91588691535e-07
-1.10931080386e-06
-1.0392427869e-07
-1.36630346705e-06
1.26344212689e-07
-2.81513452365e-06
1.62077783153e-06
-2.99062756427e-06
1.5869876534e-06
-6.4225587141e-07
-1.31784220811e-06
1.75854987079e-06
-3.94508155496e-06
4.15590901994e-06
-6.02300471721e-06
6.55259997276e-06
-7.76433913209e-06
9.01879660206e-06
-9.22832929991e-06
1.15807358687e-05
-1.04555684778e-05
1.42605021067e-05
-1.14744436169e-05
1.70415749211e-05
-1.2317293846e-05
1.98834844257e-05
-1.3001917848e-05
2.27603877911e-05
-1.35205010594e-05
2.56737241145e-05
-1.3854385325e-05
2.86275649265e-05
-1.39965258221e-05
3.16103411393e-05
-1.39536571262e-05
3.45983067016e-05
-1.37357327702e-05
3.75613784201e-05
-1.33508546142e-05
4.04675607816e-05
-1.28047647745e-05
4.32851677382e-05
-1.21023635767e-05
4.59846837114e-05
-1.12490797799e-05
4.85397861425e-05
-1.02520905363e-05
5.09287119784e-05
-9.12051454969e-06
5.31351457918e-05
-7.86485078486e-06
5.51488718737e-05
-6.49515104431e-06
5.69646285487e-05
-5.01851536237e-06
5.85792257898e-05
-3.43627835259e-06
5.99841144391e-05
-1.74283723369e-06
6.11698426495e-05
7.6935241301e-08
6.20873493427e-05
2.08370281209e-06
6.2573360404e-05
4.33179263697e-06
6.23342420057e-05
6.78697043782e-06
6.08040146855e-05
9.42874385191e-06
5.70759866989e-05
1.21842191452e-05
4.88424613348e-05
1.58258730439e-05
3.78292419602e-05
1.70331024014e-05
2.82415152252e-05
1.73151713983e-05
2.18719547386e-05
1.72496216958e-05
1.81505918747e-05
1.7487614391e-05
1.5392795165e-05
1.83465331416e-05
1.19138400998e-05
1.90827286328e-05
8.25364631867e-06
1.64597716087e-05
6.66217939502e-06
8.07254153469e-06
8.3357258704e-06
-1.00344889294e-06
8.92883951698e-06
-1.05742694037e-06
9.04240945611e-06
-7.41075278499e-07
9.15481821787e-06
-6.57729490505e-07
9.37812887108e-06
-3.75587777184e-07
9.69753372769e-06
1.61150628191e-07
9.81923031585e-06
9.65102476689e-07
9.29685437259e-06
2.14186817174e-06
8.3651407197e-06
3.34834258482e-06
7.36973217057e-06
4.31746929591e-06
6.19951942005e-06
5.18642482009e-06
4.79742866759e-06
5.9459107247e-06
3.67714623131e-06
5.73378596871e-06
2.52508180526e-06
5.68642430271e-06
1.13860875435e-06
7.79357776953e-06
8.45114575513e-06
-1.00062648636e-09
3.61295662017e-07
-1.22738838262e-07
4.37292516258e-07
-2.33735569933e-07
1.05486203077e-06
-2.10525627647e-07
6.49900384374e-07
-1.69421213566e-07
2.1215581246e-07
-3.08362316898e-07
2.79993602277e-07
-7.77842744188e-07
8.82523851727e-07
-1.10005068027e-06
1.33378571169e-06
-1.10044727341e-06
1.00045966871e-06
-9.5184083391e-07
6.34273761712e-07
-7.22888521113e-07
3.34230010541e-07
-5.6323904809e-07
5.80106688073e-08
-5.60776344194e-07
-7.60708353536e-08
-6.11415323852e-07
-1.37832464065e-07
-6.83249916263e-07
-1.74371860787e-07
-8.21248859175e-07
-1.37655887904e-07
-1.09341794753e-06
4.11673837235e-08
-1.15607165528e-06
4.56508814966e-09
-1.02586209006e-06
-1.86666603081e-07
-1.13535792511e-06
-9.09509247294e-08
-1.41035192057e-06
1.58598090449e-07
-2.31742203026e-06
1.00185446825e-06
-2.99739096316e-06
2.23861892738e-06
-1.13132164498e-06
-3.10416302692e-07
1.03893705676e-06
-3.50062184986e-06
3.20088987134e-06
-6.11315586909e-06
5.44020970874e-06
-8.26733565763e-06
7.77470870328e-06
-1.01040207068e-05
1.0220975007e-05
-1.16805698855e-05
1.27882735791e-05
-1.30291804947e-05
1.54796950685e-05
-1.41716018022e-05
1.8282567879e-05
-1.51251821757e-05
2.11738716035e-05
-1.58979833734e-05
2.41342935568e-05
-1.64859467875e-05
2.71536169286e-05
-1.68790838316e-05
3.02223226904e-05
-1.70708578555e-05
3.33237003788e-05
-1.70606543226e-05
3.64333263011e-05
-1.68508285941e-05
3.9521617526e-05
-1.64442978057e-05
4.25563220813e-05
-1.58442857824e-05
4.55046950436e-05
-1.50551684365e-05
4.83353066532e-05
-1.40838015169e-05
5.10199982595e-05
-1.29405880989e-05
5.35358925999e-05
-1.16400012243e-05
5.58674409608e-05
-1.01998139538e-05
5.80075459213e-05
-8.63858286139e-06
5.99566251331e-05
-6.97084937409e-06
6.17181784103e-05
-5.20104983498e-06
6.32900715758e-05
-3.31773268359e-06
6.46532122541e-05
-1.28897999245e-06
6.57825921092e-05
9.51881451441e-07
6.65422589111e-05
3.57012302675e-06
6.66106077534e-05
6.7170087179e-06
6.53720375325e-05
1.06656554893e-05
6.1287327538e-05
1.62670871765e-05
5.36371939461e-05
2.34748382154e-05
4.3894913035e-05
2.67751064535e-05
3.54297174656e-05
2.57809129924e-05
2.94508441766e-05
2.32301209388e-05
2.61600667557e-05
2.0780250548e-05
2.49729143162e-05
1.95356193229e-05
2.32575697039e-05
2.08006670279e-05
1.75202738151e-05
2.21955251264e-05
9.69207966097e-06
1.59043738216e-05
8.3569921787e-06
3.33313526109e-07
8.47707724419e-06
-1.17683351831e-06
8.64576054696e-06
-9.09378934267e-07
8.92880815514e-06
-9.40866765493e-07
9.41497187604e-06
-8.62764755121e-07
9.88368299351e-06
-3.09724851263e-07
9.70654791696e-06
1.1390956229e-06
8.99948142054e-06
2.84538478003e-06
8.17768573277e-06
4.16618949929e-06
7.20760219248e-06
5.28293864725e-06
6.01347348064e-06
6.37554847541e-06
4.81904362099e-06
7.13589880544e-06
3.6192704784e-06
6.92885953514e-06
2.44205284216e-06
6.85856029047e-06
1.23311763153e-06
9.00211954722e-06
9.67823084312e-06
-4.39406155877e-08
4.04126098971e-07
-2.64085530995e-07
6.5550850037e-07
-3.39519439669e-07
1.12981977047e-06
-2.41768512583e-07
5.51088784211e-07
-2.4788748047e-07
2.1642016255e-07
-5.76074095198e-07
6.03031056438e-07
-9.75728615209e-07
1.27483612525e-06
-1.02715200958e-06
1.38195193714e-06
-8.34769428604e-07
8.08324344905e-07
-7.20575925352e-07
5.21406815884e-07
-6.33433470883e-07
2.48460817694e-07
-5.69136239005e-07
-7.05254885446e-09
-5.98298104499e-07
-4.87851296959e-08
-6.48211340287e-07
-9.08961091081e-08
-7.54595437003e-07
-7.24806456066e-08
-1.02016771757e-06
1.21626688183e-07
-1.09309743494e-06
1.09363243668e-07
-9.78773457787e-07
-1.13845340547e-07
-1.06516261896e-06
-1.08585865336e-07
-1.26914429679e-06
1.04036003214e-07
-1.39625727414e-06
2.69901515474e-07
-2.44202700009e-06
2.00645641216e-06
-1.88495633941e-06
1.64552877888e-06
7.19831315532e-08
-2.28256384314e-06
2.0671777694e-06
-5.50301760578e-06
4.11334018912e-06
-8.16456525716e-06
6.27654940077e-06
-1.04356663597e-05
8.57278290511e-06
-1.24060118472e-05
1.10089352867e-05
-1.41231420493e-05
1.35872581569e-05
-1.56142176941e-05
1.630481764e-05
-1.68957087653e-05
1.91508079018e-05
-1.79773887029e-05
2.21087340031e-05
-1.88619414329e-05
2.51617524179e-05
-1.95449987632e-05
2.82948265023e-05
-2.00182857539e-05
3.14917896703e-05
-2.02739875684e-05
3.47317601815e-05
-2.03067443933e-05
3.79882838213e-05
-2.01132990429e-05
4.12302214145e-05
-1.96919487344e-05
4.44233385386e-05
-1.90428197194e-05
4.75320021092e-05
-1.81689632766e-05
5.05212203151e-05
-1.70778729555e-05
5.33591090295e-05
-1.57831137954e-05
5.60201298049e-05
-1.43054826508e-05
5.84887005094e-05
-1.26727335133e-05
6.07622621566e-05
-1.09164263769e-05
6.28513789311e-05
-9.06424650974e-06
6.47752149671e-05
-7.12914377585e-06
6.65525734529e-05
-5.09929353787e-06
6.81909853248e-05
-2.93140069713e-06
6.96857417057e-05
-5.46387780757e-07
7.10470325131e-05
2.20592490215e-06
7.22004214355e-05
5.56111249669e-06
7.31650741537e-05
9.69869126494e-06
7.45121355639e-05
1.49179935147e-05
7.70337816613e-05
2.0951370522e-05
7.85301972055e-05
2.52774526383e-05
7.73800187519e-05
2.69304966617e-05
7.35798485525e-05
2.70297058758e-05
6.74656289092e-05
2.68930952077e-05
5.94647927914e-05
2.75334823453e-05
5.02290707486e-05
3.00306501944e-05
3.83633870047e-05
3.40580279456e-05
2.00310757797e-05
3.42322025459e-05
1.01768836097e-05
1.01853582454e-05
8.27902933026e-06
7.20573057282e-07
8.4550596315e-06
-1.08598441407e-06
9.14065672372e-06
-1.62753506032e-06
9.87346578916e-06
-1.59754301978e-06
1.0107256355e-05
-5.46572997142e-07
9.70269537351e-06
1.53982921076e-06
9.10428451581e-06
3.43971210389e-06
8.33677621687e-06
4.92919349225e-06
7.33241596735e-06
6.28231830644e-06
6.14714446469e-06
7.55558517145e-06
5.14724817946e-06
8.13065339381e-06
3.774532673e-06
8.29827523488e-06
2.41073696498e-06
8.2199546424e-06
1.37139479759e-06
1.00306125547e-05
1.10503129942e-05
-7.95936831129e-08
4.82003030359e-07
-3.71846293167e-07
9.46331624909e-07
-3.23520966328e-07
1.0791059939e-06
-1.57669854003e-07
3.84121991156e-07
-3.05055963633e-07
3.608635872e-07
-7.30611232388e-07
1.02404251703e-06
-9.00415028661e-07
1.44079018142e-06
-8.76811823767e-07
1.35679189003e-06
-6.29035528138e-07
5.61767375395e-07
-5.73716554365e-07
4.66383855073e-07
-5.08809092299e-07
1.83012228958e-07
-5.84528461442e-07
6.68801162984e-08
-6.29505063265e-07
-6.88773859619e-09
-7.04067096993e-07
-2.00923717045e-08
-8.89437599609e-07
1.07946700113e-07
-9.79578151109e-07
2.05500025845e-07
-9.32594257432e-07
5.83549551536e-08
-1.02893388749e-06
-2.3147611808e-08
-1.26375814313e-06
1.171311356e-07
-1.55294727143e-06
3.75705633426e-07
-2.03314232276e-06
7.28059706575e-07
-2.6592274696e-06
2.58945789703e-06
-8.98269814963e-07
-1.35673050648e-07
8.722250763e-07
-4.06246505827e-06
2.70375644974e-06
-7.34069720961e-06
4.65803556667e-06
-1.01243950343e-05
6.76259391121e-06
-1.254609071e-05
9.02784283907e-06
-1.46775338817e-05
1.14572453996e-05
-1.65593203978e-05
1.40502122391e-05
-1.82142593763e-05
1.68019544545e-05
-1.96545748701e-05
1.97027811815e-05
-2.08851830025e-05
2.27389068269e-05
-2.19049035153e-05
2.58944839254e-05
-2.27073334118e-05
2.91523297371e-05
-2.32828788009e-05
3.2492728991e-05
-2.36210971661e-05
3.5891666097e-05
-2.37123193243e-05
3.93200894395e-05
-2.35482212872e-05
4.27441362661e-05
-2.31223083885e-05
4.61260310299e-05
-2.24308128189e-05
4.94254489887e-05
-2.14742611563e-05
5.26015213999e-05
-2.02596349069e-05
5.56158706151e-05
-1.88029802851e-05
5.84372781881e-05
-1.71322847535e-05
6.10479855886e-05
-1.52887329837e-05
6.34504749433e-05
-1.33241414901e-05
6.56700008165e-05
-1.1288968366e-05
6.77493896232e-05
-9.21371794999e-06
6.97378462335e-05
-7.09291659545e-06
7.16795990651e-05
-4.87817337612e-06
7.36093132093e-05
-2.48089050519e-06
7.55886874652e-05
2.22213301828e-07
7.77029348794e-05
3.44308559208e-06
8.00708282538e-05
7.32744291376e-06
8.30929773889e-05
1.18926825752e-05
8.71138939739e-05
1.69278102192e-05
9.09158104902e-05
2.14732261689e-05
9.29453001758e-05
2.48987736247e-05
9.23919812197e-05
2.75803850584e-05
8.89396897934e-05
3.03414843578e-05
8.24619761308e-05
3.40049108216e-05
7.30225195083e-05
3.9462047185e-05
5.9508654588e-05
4.75622214765e-05
3.68003064275e-05
5.69323974037e-05
1.32465965218e-05
3.3735660459e-05
7.37057402873e-06
6.5942442646e-06
7.57944172657e-06
-1.29692749345e-06
8.8100363296e-06
-2.86098550097e-06
9.94576090796e-06
-2.73678555186e-06
1.02823098673e-05
-8.87310091148e-07
1.00622124623e-05
1.75561085206e-06
9.56097263247e-06
3.93637242514e-06
8.75137368748e-06
5.73373192738e-06
7.70906067829e-06
7.31938857907e-06
6.63146965094e-06
8.6281425055e-06
5.52750224999e-06
9.23036942697e-06
4.1033576735e-06
9.71750281938e-06
2.41197184081e-06
9.90501536092e-06
1.27575823585e-06
1.11682094246e-05
1.23183761965e-05
-1.09709192988e-07
5.89247076299e-07
-4.42965953146e-07
1.27757648789e-06
-2.76152059198e-07
9.11223476118e-07
-2.47260739884e-07
3.53825965434e-07
-5.45907933111e-07
6.57364605014e-07
-7.16593966203e-07
1.18972359231e-06
-8.28791318938e-07
1.552462384e-06
-7.34817878337e-07
1.26342664724e-06
-6.59605460094e-07
4.86114708065e-07
-6.48554705304e-07
4.54728227264e-07
-6.01813881379e-07
1.34445350698e-07
-6.39084498467e-07
1.01465159933e-07
-6.92902197112e-07
4.35311051822e-08
-8.00370918622e-07
8.28253227761e-08
-1.04985795052e-06
3.51204666731e-07
-1.11328023208e-06
2.64772762586e-07
-1.04695094192e-06
-1.20947737035e-08
-1.1236756599e-06
4.60082572792e-08
-1.35876362421e-06
3.3820220249e-07
-1.61315441737e-06
6.21385499945e-07
-1.97891006722e-06
1.07004505501e-06
-1.72542021855e-06
2.30752351079e-06
-2.31180275934e-07
-1.64369699552e-06
1.34656832661e-06
-5.64819503579e-06
3.05037230658e-06
-9.05085188091e-06
4.91791314446e-06
-1.19981677568e-05
6.9649563437e-06
-1.4599544813e-05
9.19812798064e-06
-1.69174573868e-05
1.16193263839e-05
-1.89875582715e-05
1.42268984073e-05
-2.0829130465e-05
1.70158127539e-05
-2.24508744857e-05
1.99772719956e-05
-2.38540556301e-05
2.3099020645e-05
-2.50340198026e-05
2.63658436495e-05
-2.59815152919e-05
2.9759707386e-05
-2.66840641552e-05
3.32589329256e-05
-2.71276196911e-05
3.68371817129e-05
-2.72977928754e-05
4.04627023293e-05
-2.71808705292e-05
4.40981709829e-05
-2.67647754127e-05
4.7701004133e-05
-2.60404959433e-05
5.12242452164e-05
-2.50042164857e-05
5.46182924578e-05
-2.36602384016e-05
5.78340116224e-05
-2.20251527914e-05
6.08292402021e-05
-2.01338383309e-05
6.35790471371e-05
-1.8044769865e-05
6.60899286395e-05
-1.58411627405e-05
6.84068328034e-05
-1.36119335305e-05
7.06053777153e-05
-1.14183088998e-05
7.27733198575e-05
-9.26691086782e-06
7.49916018097e-05
-7.10256482198e-06
7.73247424769e-05
-4.82003491831e-06
7.98283473025e-05
-2.28720390875e-06
8.26174564701e-05
6.48511270292e-07
8.57816924256e-05
4.15809827266e-06
8.94185136058e-05
8.25129884436e-06
9.35735949572e-05
1.27684731234e-05
9.7684317988e-05
1.73584245757e-05
0.000100794043498
2.17846637778e-05
0.000102128952626
2.62404001143e-05
0.000101228707258
3.12350659758e-05
9.78384072141e-05
3.73863287655e-05
9.18781153539e-05
4.54112756854e-05
8.33234663309e-05
5.6105755223e-05
6.99851931341e-05
7.02611110618e-05
3.79597442387e-05
6.57519045762e-05
9.9613885567e-06
3.45854504714e-05
6.18663323175e-06
2.47205396541e-06
8.57590204937e-06
-5.25548098927e-06
1.05720950418e-05
-4.73880945142e-06
1.10951540636e-05
-1.41582148042e-06
1.09486079344e-05
1.89691248632e-06
1.03618253155e-05
4.51778306802e-06
9.39338960445e-06
6.69687244766e-06
8.2367209699e-06
8.47088313174e-06
7.13163469641e-06
9.72809345697e-06
5.82377982953e-06
1.05330915229e-05
4.32380533563e-06
1.12139398144e-05
2.47235635065e-06
1.17545347306e-05
1.05578764716e-06
1.25710456399e-05
1.33751017526e-05
-1.68966072653e-07
7.56548742185e-07
-4.9124669831e-07
1.59490211329e-06
-2.8808610506e-07
7.06732171874e-07
-3.2175329716e-07
3.86428648844e-07
-6.11725958609e-07
9.44069764992e-07
-4.9349110158e-07
1.07211006607e-06
-7.3365063182e-07
1.78992407769e-06
-5.25810559294e-07
1.05534493106e-06
-5.54034506073e-07
5.14013428737e-07
-5.35545839169e-07
4.34174750215e-07
-6.10763834999e-07
2.0749909452e-07
-6.73462717347e-07
1.60839512511e-07
-7.43246847432e-07
1.10073554731e-07
-8.79528005908e-07
2.14748286869e-07
-9.74167367379e-07
4.40319038143e-07
-9.11869156953e-07
1.99288331242e-07
-1.00081205904e-06
7.19683885713e-08
-1.11041171232e-06
1.47054710233e-07
-1.30210030696e-06
5.20292047221e-07
-1.65702535171e-06
9.60173266781e-07
-1.8550264544e-06
1.25694831217e-06
-1.07966363172e-06
1.50771727264e-06
1.87128449006e-07
-2.92259394801e-06
1.59365832782e-06
-7.06257067711e-06
3.17413356256e-06
-1.06381370208e-05
4.95098743734e-06
-1.37816422587e-05
6.93441581299e-06
-1.6589721666e-05
9.12918912861e-06
-1.9119110299e-05
1.15365142361e-05
-2.14020021405e-05
1.41547534969e-05
-2.34546753692e-05
1.69793682165e-05
-2.52829942154e-05
2.00027334857e-05
-2.68850151995e-05
2.32138706586e-05
-2.82528457069e-05
2.65984605696e-05
-2.93738170103e-05
3.01384087165e-05
-3.02317726978e-05
3.38111927938e-05
-3.08081607259e-05
3.75888580439e-05
-3.10832137119e-05
4.1437211545e-05
-3.10369457882e-05
4.53151661577e-05
-3.0650396075e-05
4.91743955572e-05
-2.99073471623e-05
5.29594815345e-05
-2.87968171709e-05
5.66085582855e-05
-2.73167708727e-05
6.0055492394e-05
-2.54793982028e-05
6.32379698791e-05
-2.33234954348e-05
6.61139201018e-05
-2.09277468097e-05
6.86906166702e-05
-1.84247500096e-05
7.10404280036e-05
-1.59685996653e-05
7.32866129144e-05
-1.36713331081e-05
7.55688497556e-05
-1.15561051633e-05
7.80091369451e-05
-9.54993073994e-06
8.06925818808e-05
-7.51074848216e-06
8.3667121849e-05
-5.26905515293e-06
8.69756266719e-05
-2.667323834e-06
9.06882251911e-05
4.38412504094e-07
9.47783686917e-05
4.15440401183e-06
9.91177189274e-05
8.42277569028e-06
0.000103371063863
1.30987002824e-05
0.00010701622201
1.81327843419e-05
0.000109559746475
2.36892469009e-05
0.000110671944663
3.01140434496e-05
0.000110207625126
3.78400520869e-05
0.000108252368468
4.7354352593e-05
0.000105281346313
5.90641970125e-05
0.000102011355403
7.35194639811e-05
8.8180832146e-05
7.95700699196e-05
5.05768864185e-05
7.21761138952e-05
1.65119289846e-05
3.65270863916e-05
9.54722361569e-06
1.70023198958e-06
1.18088936843e-05
-7.00751551903e-06
1.25695307888e-05
-2.18259467444e-06
1.23166306112e-05
2.144134065e-06
1.14301075888e-05
5.3990066194e-06
1.02054904277e-05
7.9164338694e-06
8.85680300714e-06
9.81462327721e-06
7.49044595446e-06
1.10898809853e-05
5.97110548897e-06
1.20483746386e-05
4.34484114541e-06
1.2835132931e-05
2.58948802989e-06
1.35019076773e-05
1.05760032678e-06
1.41053932862e-05
1.44246998607e-05
-2.28348424597e-07
9.81331633312e-07