/*--------------------------------*- C++ -*----------------------------------*\
| =========                 |                                                 |
| \\      /  F ield         | OpenFOAM: The Open Source CFD Toolbox           |
|  \\    /   O peration     | Version:  v1806                                 |
|   \\  /    A nd           | Web:      www.OpenFOAM.com                      |
|    \\/     M anipulation  |                                                 |
\*---------------------------------------------------------------------------*/
FoamFile
{
    version     2.0;
    format      ascii;
    class       volScalarField;
    location    "173";
    object      alphak;
}
// * * * * * * * * * * * * * * * * * * * * * * * * * * * * * * * * * * * * * //

dimensions      [0 0 -1 0 0 0 0];


internalField   nonuniform List<scalar> 
6400
(
0.828228503804
1.23643441372
1.88938814562
2.1494810395
2.41515936221
2.72728130163
3.29083786315
3.95790083561
4.04733927906
4.31808106428
5.42263680171
5.86695966588
6.18377429752
6.64302170743
7.38413342533
8.14054423449
8.6702188695
9.18975338679
9.67156252005
9.87002302128
9.75256681004
9.63727383152
9.78041085478
10.2608693059
10.8368118428
11.3077687329
11.5804778782
11.8084218741
12.139355044
12.5828830928
13.0879008832
13.3620239867
13.3508458454
13.2475059531
13.0544287836
12.6334470459
12.398547009
12.6638607965
12.3827912533
11.7262180153
11.5132273445
11.9381993921
12.4233594419
12.6505536001
12.7084047329
12.6370389735
12.5181670294
12.4230346467
12.3518815318
12.3034330083
12.0936507777
11.2305900394
10.4463964686
9.5897373113
9.26098657051
9.7535632818
9.69384403059
8.43767941184
6.90941592144
6.41318002668
5.60727585148
4.69889902217
3.78717425392
5.52591095541
9.60985578614
14.5585597866
17.5536784779
17.2597368042
15.2427324955
13.5345417216
12.5493826817
12.6043594794
13.0148045874
12.8142209068
14.7550057582
14.1593496726
15.9907238768
9.88837629546
12.8716064
4.81266643505
3.0754405302
2.37589514765
2.89969243809
4.08552885784
3.71311750824
3.26016625125
3.22470963643
3.46384514343
3.8574186977
4.38683682599
5.07725614297
5.76598206028
6.34449278401
6.89638437114
7.43971025049
8.08497508371
8.75961182734
9.46521348245
10.5546555496
10.5229762627
10.1063432513
9.86863704996
9.84816225876
10.242984565
11.1282510735
11.444922884
11.6441939766
11.9583560549
12.3330345616
12.7386319958
13.1724494035
13.6820324879
13.6812913421
13.6100755637
13.5284436673
12.8319389987
12.7768142312
13.0406470546
12.5754756284
11.5347182277
11.2335453951
13.6934880888
15.1127807234
15.165373335
15.0902620762
14.7083932699
14.1559064676
13.7350082051
13.0870588738
12.5666367171
12.5722440499
13.2578928117
13.1428241874
9.81138507016
9.8019438817
9.56065992827
7.88258090219
6.75161852521
5.85872686215
4.98373562685
4.32149737136
5.02950456203
3.97070547527
5.69468037386
9.65370638877
15.468538967
19.1920572538
18.0030201123
15.8210569941
13.8426927431
13.01835499
13.2916286766
14.2495407481
13.6102254451
13.3935746861
12.8230117836
11.592735898
9.7373656205
8.17897194963
4.26383364112
3.02356975763
2.54949867203
3.02956025708
3.07710728324
3.28672351566
3.56414653875
3.47413494367
3.41827247495
3.79014035972
4.37318886427
5.05037558584
5.75824034269
6.3926625938
6.96122506807
7.3734205924
7.95211244518
11.2687548621
13.4419449043
13.6362202276
12.5356910006
9.98834236594
9.28230623084
10.0849875539
10.54455531
10.8848972241
11.3722671985
11.7895998357
12.1115809164
12.4645048578
12.9069057775
13.2612151018
13.9742517788
14.0539054319
13.4420893043
14.2502425721
13.5934036037
12.6027481277
13.5131477466
12.9510168119
11.8040278429
11.4561493729
11.9678705229
12.5368216808
12.8047118799
12.8840538264
12.8539197164
12.7463718857
12.580631837
12.356060261
12.0964482122
11.8026397054
11.391120589
10.8019417621
10.4990331101
10.3820398297
9.0578518845
7.77227254409
6.79726823796
5.96316339803
5.23466330966
4.71419490532
4.1890535115
3.90594071201
6.40379028983
11.598893796
16.3020705894
18.6144510932
18.7267634006
17.1088823701
15.3743649778
14.5850119685
14.388136758
13.6574591053
13.0012672219
12.9087516069
12.5083390057
11.4876713109
9.84950549334
7.41192499778
7.58758663779
2.77603329856
5.29163879061
3.10095012547
3.02574833966
3.6405997223
11.6713347527
9.97369835744
4.28384938131
3.81747371339
4.40755533589
5.07374749248
5.78358064429
6.39724701627
7.07976055287
9.1638714975
11.5439862561
13.1924145933
13.2502236469
11.2998916317
9.41572100953
9.36150194925
9.56373386956
9.85669825538
10.377498362
10.9770437667
11.5456688745
12.0263381328
12.2887374523
12.7400701076
12.9877044998
13.7489748129
13.8809209203
14.7017113246
14.3293116976
13.2287578674
13.8844096133
13.0398933167
12.0872570171
11.8931280224
11.8019307383
11.8367585914
12.1583246042
12.5565708805
12.8149846738
12.9266834822
12.9253532554
12.8374085126
12.6828190016
12.4707510692
12.2122732273
11.9048421534
11.5274427116
11.0789164246
10.60864781
9.97276226492
9.00141147656
7.89962499614
6.93787985789
6.16454444934
5.56361952603
5.1295016207
4.82001545368
4.96470574167
6.9160543429
10.7697651192
16.5619123753
20.1502063034
20.3467018898
18.6628421958
16.2844223379
14.616926648
13.7405050174
13.8207907221
15.1300262848
15.0066157625
13.6380464922
13.4523838268
16.7095287692
13.1102351966
11.1260614582
5.22037877725
7.26613940127
3.50516380867
3.8287183353
6.08155094178
11.5487355588
7.60802753686
4.3525638781
4.29090590458
4.62656080439
5.22869393081
5.97859582882
7.49124039791
10.2369912342
11.1915340471
11.3048554416
10.7709801915
9.73231446358
9.10691951818
9.48400327118
9.51398300969
9.50077764403
9.90562307627
10.4837966466
11.1349730247
11.77846864
12.15766382
12.7501164899
12.8423431074
13.6812634611
13.6792337559
15.2912210413
14.5059142211
13.5040943951
13.7900034863
12.6213791479
12.1704379002
11.9995373209
11.9681635484
11.991456959
12.0796819406
12.3129025196
12.6141838232
12.8519862496
12.980416584
13.0002715662
12.9295379889
12.7887056551
12.5926075239
12.3494227569
12.0556918941
11.7029348495
11.2863401404
10.7804705435
10.0725990988
9.10917472403
8.07059898329
7.17613779324
6.50457782737
6.04156520713
5.76247689981
5.71243141295
6.23157434893
7.40118111108
10.5487021593
15.9386048592
20.1538677802
21.5473763243
20.3438240909
17.5527624579
15.0386920053
14.6465142345
16.8029259372
17.6070435104
16.5143588008
15.547177648
18.1403780343
21.1203462057
16.4247652029
15.52928244
9.57549059268
8.67849606472
4.33487969881
5.1953631535
11.8002907904
11.204660704
5.34235442276
4.76916208305
4.81670275152
4.95063896501
5.57110725585
8.65817918125
12.2299989674
12.4842385529
11.8371165567
10.2533761542
9.01721974308
8.70027524644
9.59140170682
9.51550798735
9.24664793308
9.52535264196
10.0540015132
10.7187730079
11.2449730431
11.9182013303
12.9013560792
12.7783478093
13.9713672027
13.562862392
15.6987721859
14.7532682308
16.050479512
14.2287286056
12.5140590091
12.0029776574
11.9814444734
12.0439957342
12.1113737032
12.176887285
12.2867958858
12.4809996395
12.7231812373
12.9364196382
13.0669098291
13.0997309391
13.0427364654
12.9174103054
12.7435289634
12.5279333091
12.2640312359
11.9387361282
11.5286105524
10.9825579828
10.2324777118
9.30089694905
8.35493914302
7.5577468852
6.96196691032
6.60155347201
6.47444866182
6.82395792012
8.23546600394
7.55048981178
11.7649742444
17.512528101
21.2775697765
22.6857342745
21.7232751997
18.3355150914
16.142798671
17.8987420868
20.0428939463
19.4624269911
18.4077920961
18.4209824405
22.9049682311
24.4508839067
19.4216206938
19.2061532937
11.6252922674
8.19650076528
5.27560697516
5.02403031579
11.6492106862
7.53913825269
5.1619631882
5.23364927034
5.29821653723
5.99770026419
6.28958883352
12.232055675
12.6592364872
12.52198058
10.6165465289
8.68355476555
8.29787799709
9.77696933651
9.66524070329
9.01953043857
9.24519572454
9.6310032301
10.1572402855
10.8172066333
11.7342338313
12.7169583384
12.8284611193
14.4889646629
13.7879844173
16.1591203956
15.0093280092
16.4213042201
14.9184555403
13.8671668941
11.9996807138
11.7733826073
11.9774526388
12.1596416435
12.2630771837
12.3507098745
12.4784221181
12.6573343028
12.86669934
13.0588695342
13.1858433481
13.2247508989
13.1798451467
13.0747840045
12.9313819372
12.7530248349
12.5260254955
12.2259980974
11.8143661847
11.2413557069
10.4830914486
9.60537617934
8.75391416293
8.0400549104
7.49120948577
7.12860587068
7.12935277228
7.60496729851
7.93201702511
8.52842801128
12.6897559394
19.76624215
22.4372880924
22.8671528482
21.7824232043
19.5087946981
19.3062451918
21.8599352924
22.2520149647
21.3484912291
20.6932478678
22.5618960115
25.218288855
26.6356345531
21.9998346949
20.8299424205
11.1765735675
7.43386142677
6.29319483294
11.6113566434
11.5886066011
5.87358268979
5.68216496203
5.7496497856
5.98276805965
6.49637262316
12.0665428687
12.9131831946
12.760582863
12.0037796555
8.92740509012
7.91061002106
9.72700619295
10.0364801992
9.05319326967
8.82858372622
9.29906938763
9.88725695449
10.3950611202
11.1510279355
11.7704956141
13.2753763091
12.974413747
14.3654826362
16.0860278786
16.1434958951
14.398018787
15.4666097526
15.2939355065
12.4175823563
11.8550303439
11.8692419244
12.071316189
12.2787515407
12.4140538837
12.5230289022
12.6648184896
12.8443834198
13.0383040163
13.2138305237
13.3339475621
13.3756922119
13.3443429461
13.2658191562
13.161069034
13.02737804
12.8418328233
12.5676253939
12.1572371292
11.5745925016
10.8349246151
10.023610757
9.24662809378
8.54349434032
7.90029720648
7.45535494569
7.55788325636
8.13796125411
8.89990701192
9.93994018889
11.0566718761
19.5116851897
23.8793802596
24.0413548223
23.492525216
22.6347138413
23.5949066689
24.9721615843
24.2354764504
23.4768550648
23.5828463287
25.7735462426
26.3343423868
26.8616014892
23.9063686564
21.6971767183
10.2076247514
6.95795980947
6.9339697535
12.495324986
10.1597116748
6.1038369694
6.24496717987
6.41560218848
8.15345859194
6.40981203122
12.8395988078
13.3138605692
12.7269091907
10.3450778255
8.10811224503
8.02210354241
9.87111608814
9.53806445635
8.81483167282
8.85456214657
9.27353504488
10.0327778055
10.7092495259
12.0719098874
13.3278225005
13.0417024956
15.5829399418
13.8620872748
16.475502956
14.6486666599
16.6612273516
14.0846506872
12.9905290113
12.1724121185
11.9587054613
12.026179826
12.1941806346
12.3966520633
12.5631375415
12.703469317
12.8603319492
13.0433222345
13.2323272809
13.3975682137
13.5089297957
13.5526889884
13.539603248
13.4950997111
13.4357994056
13.3527429605
13.2132599328
12.9684219886
12.5668061767
11.9908805394
11.2860735362
10.5351414332
9.77736374856
8.94888901255
8.01419159933
7.39821374693
7.80329234474
9.04171545334
10.3531806665
11.4287036022
12.330188776
15.6436188491
23.8024317968
25.4748210192
25.6803311222
26.5490012143
27.765022093
27.4372579317
26.3618937924
26.0553828541
26.8834488466
27.8968987869
27.5970545822
26.8824828692
25.7598776073
24.2857932412
9.30724511329
7.05809640773
8.15081732399
12.4716963672
7.44244950609
7.12314363864
6.80418745102
7.05533123146
10.9494343632
9.40153392928
13.6650208402
13.4904237105
12.6766539161
9.23328123876
7.929855073
9.97379122663
10.1535506333
9.14022506568
8.73712309882
9.04503756073
9.39004466619
10.0903244849
10.6123564531
12.2596009836
14.8322921428
12.8172411665
15.446146579
16.5494106296
16.706873983
16.9600779231
14.9789112809
14.8509170967
12.3617708052
11.9980543522
12.0907630223
12.1902863174
12.3298525205
12.5154865329
12.704922558
12.8854960161
13.069390161
13.2607124146
13.4477585441
13.6068355481
13.712402312
13.7583208369
13.7664759672
13.7638286142
13.7578331865
13.7307627568
13.6419231479
13.4317838227
13.0473531089
12.4907964106
11.8269380805
11.1074513108
10.2505162679
9.03144161659
7.54938552767
6.99669582548
8.34474968827
10.4326793666
12.1073928778
13.3426853671
14.2798275737
14.3433199442
15.529058498
27.1750344922
30.042675447
31.3675698023
31.4055460657
29.9992658416
28.9959696961
29.1117616993
30.030019086
30.1215474207
29.6648365296
29.1942342629
29.3961077016
29.4930023105
8.85758912718
7.63762619224
11.9267914938
12.3555435847
7.0438249786
7.79498180976
7.32330823903
8.13292475807
10.0600191659
13.2310769366
14.3292283485
13.6071147714
12.7322263029
8.8674246398
7.98338842581
10.6008052506
10.1202689263
8.98819916692
8.73681452873
9.19667151947
9.88682063135
10.4024933807
10.8020700368
11.7813012105
14.9431001893
16.1118060819
14.5437146734
16.7287854818
14.4760857983
17.0140775426
16.9528119746
14.6422815559
12.1801494826
12.0896272019
12.2586181627
12.3658525689
12.4869667723
12.6528840204
12.8442121773
13.0629827704
13.2890107791
13.4974911144
13.6857944797
13.8413564443
13.9436661971
13.9957865997
14.0297170233
14.0731727118
14.1253066559
14.1593024957
14.1261533781
13.9564606027
13.5986216959
13.073144633
12.4445558395
11.6781077238
10.4230895621
8.328399299
6.56380193237
7.00233717638
9.78825269332
12.5849752796
14.4379934069
15.67175247
16.3417762146
16.3063884904
15.7839476741
17.5965654429
31.6276398658
37.0063859882
35.8262332137
33.4455183339
32.4914295089
32.7211810078
33.1729659405
33.1560534386
33.1482282384
33.4061820557
33.8204956793
34.4077413194
8.81488684254
8.32712752475
13.462815626
12.7332105871
10.4077780336
8.89996687229
8.02008449066
9.69769853071
9.10625884322
14.1514817929
14.7937596932
13.7713681325
12.5355941524
9.15619853758
8.76176307285
11.1306925656
9.9926899236
8.95616099458
8.83663522528
9.22874303753
10.0980984933
10.8249863212
12.8765258516
11.9196289834
14.2861052946
16.4897915225
14.1022027054
17.0531645198
17.4977950331
15.4160118501
15.3519059028
12.8905528051
12.5306804062
12.4096989861
12.4713208201
12.5728298254
12.6805502977
12.8268986992
12.9908746951
13.2179604842
13.502121995
13.7602613522
13.9547178882
14.102453255
14.2041838372
14.2686789224
14.3330559821
14.4242824986
14.5353301252
14.6319759651
14.6552979719
14.5318973433
14.2194270041
13.7369211286
13.1004250006
12.0209283826
9.69973323941
6.83127640112
5.8228136037
8.0598460018
12.3540448986
15.5495450497
17.4229291112
18.7056645539
19.2925765259
19.063650922
18.3540609991
17.1919886579
27.6288758466
37.9768595132
40.8414402644
38.0635170104
37.1149290957
37.2224509764
37.3972912054
37.2259292017
37.7036049632
38.1638522588
37.8509392744
37.9378321764
9.1522927786
8.85017811006
13.0260943066
12.9846997349
12.9041500809
9.75392777168
8.85425734835
12.8610571753
9.11281075429
14.9882241657
15.1439165288
13.9536199606
12.3653577531
9.51646110006
12.1416467282
12.244787978
9.99113781865
9.06484356621
9.06784288601
9.38936365752
10.0636753314
10.7543870022
14.4847139379
15.5332856944
13.4448440329
16.5961802582
17.3512137837
16.4220007169
17.4749406843
17.4010742882
15.9884118823
12.8058455236
12.7238266756
12.7290703022
12.730188954
12.79143397
12.8666834929
13.0316090742
13.2128537825
13.3990115817
13.6890493072
14.0120493184
14.2522397924
14.4010478135
14.4993413078
14.5804144933
14.680389446
14.818989053
14.9835548522
15.1341221473
15.2072267235
15.1401801058
14.903765025
14.4593185616
13.6679006973
11.7178514734
7.91414518926
4.90631716924
5.55760261377
10.5223671235
15.9902741433
19.4006784673
21.1578323425
22.6965695729
22.8434193192
21.7420327543
20.3686478608
19.0651213194
23.7933317051
35.1461074069
42.1891470662
43.3402475212
41.486099936
41.7666444933
41.830319635
42.0496440078
42.7192808017
42.9870370398
42.7032651966
42.7365443271
9.54410528279
9.37319009588
9.11866310144
13.1753919064
13.2450774894
10.2191072978
9.63324175813
13.6506482495
9.46743410765
15.811970606
15.4357368022
14.142297663
12.32672425
9.64208945633
13.3564976789
12.5259760009
10.1581439288
9.32731862804
9.36328806947
9.73197481403
10.1531742477
10.6776506405
15.131338673
16.4919513421
13.6397999745
16.7296312644
17.8660985256
15.2664737451
17.0886489043
16.6162094667
13.4370286416
13.1682407371
13.1394682011
13.0700398552
13.0000438492
13.0758639792
13.1318943172
13.1993820581
13.412400716
13.65074449
13.9195639933
14.2557475621
14.5483593139
14.7295122724
14.8377963096
14.9388472761
15.0748243937
15.2523746863
15.461429099
15.6535340585
15.7464253258
15.7517055638
15.6381801425
15.2305258472
13.9761030258
10.1390508926
4.70566031046
2.4617120657
7.70423283419
15.0142062703
20.9899079421
24.2778481792
23.9315035516
22.1189026935
19.1585084686
17.2819374036
16.3666522202
14.8849233258
11.8102414592
14.1083168125
41.7338111575
45.2937140789
46.3179598928
45.6688774316
45.3780623453
47.1116173975
47.7556334479
47.9584531742
48.9180430209
49.3511429779
10.0992421344
10.1445887874
13.7418118366
13.6321402774
13.46641818
10.5771619759
10.5499627362
14.2309340943
10.2709321413
16.4844674761
15.6857552096
14.3314842328
12.3383789937
9.88601517455
13.5084949219
12.4073777018
10.3366270647
9.63039981385
9.65552352142
9.98017575096
10.3821445819
10.797310889
14.2139781292
17.2470267288
17.3601877892
15.7055684133
18.0224368906
18.6122385219
14.7782176819
13.7303693311
13.2523249469
13.3262464348
13.3668505576
13.3470695176
13.3493781258
13.3468110524
13.3943556417
13.491773593
13.6064172679
13.8758486915
14.195868984
14.5369853797
14.8507057652
15.0708409309
15.2185219714
15.3465447391
15.511118864
15.7437965403
15.996070129
16.1620444144
16.2250581201
16.3223180689
16.3706985285
15.8957649102
13.4747854864
7.14579226588
0
4.33056229174
12.8793788182
21.1192411868
24.9201957475
20.9616448295
13.450724855
0.0781500319529
0.0611291868594
0.14840760879
1.00038461896
4.68574570303
10.4482074327
14.3241059771
10.3453526071
31.3338308935
50.0670526909
50.6637972851
48.2994556195
50.8012885672
52.658914734
54.9593173815
57.2633652773
57.4662473877
10.5823443028
10.7569204897
15.2418503574
14.0199189418
13.177551932
10.9709917798
11.4800458733
14.6223088628
14.6296598833
17.2643147176
15.9530728066
14.5775826492
12.3740848249
10.2846592818
13.6587766966
12.2493159026
10.5438995097
9.95135668045
9.92404846078
10.1827263709
10.5772436413
11.1240235404
13.3879727774
17.4708141858
18.7557634191
14.8195716129
17.5995904711
18.433243553
17.6316406569
14.518339919
13.4250005993
13.5235938347
13.66895884
13.7491561984
13.5986622115
13.631771855
13.636408941
13.7516074514
13.8777472084
14.1120208855
14.4740391964
14.8563062091
15.1665626292
15.3958798117
15.608179843
15.8648310015
16.1302637639
16.3974861979
16.548312524
16.6315892721
16.7300987945
16.8504406952
17.1221334476
16.6069116137
10.9853361118
0.000906969683544
2.69854171527
10.1420226865
18.0829908226
19.090702091
1.20341884333
0.00200801966558
0.000141546227773
0
0
0
0
0
0
0
0
1.96866664233e-08
6.63990502377e-06
0.000993188262909
0.576216024167
47.4780561986
58.5703822672
59.9067368182
67.1544322647
65.9067874307
10.954920046
11.1577731389
17.5383445401
14.248500062
12.5237985083
11.3364657772
12.1115947187
14.3271233474
16.1800185847
18.1625624837
16.3484933336
14.923669243
12.6151679757
11.0194665054
14.0218326723
12.264664395
10.8570822524
10.339806091
10.2332824566
10.4187465179
10.7513073583
11.2725591114
13.0083768559
17.3198525178
19.695615827
18.6755761838
16.8472727014
17.7349279694
16.9659765521
13.7131556696
13.8867688212
14.0540852145
14.322039048
14.2010075509
14.0685865846
13.9058688134
13.9728688355
14.0051178536
14.1598106977
14.3908567229
14.7296896875
15.1594611663
15.6000098058
15.8604902981
16.1274011216
16.5084931718
16.9159030806
17.2173351458
17.3418380106
17.4552414496
17.5917081401
17.7058864222
17.5712360701
16.5624554036
10.3118940864
0
5.06780826673
8.07446624157
0.227430719583
0.000623676842204
0
0
0
0
0
0
0
0
0
0
0
0
0
2.53662674377e-07
2.52069032664e-06
5.52589935101e-05
0.00267943218301
14.879501743
71.3645437528
49.2330898034
11.2259269871
11.4148060731
19.7116261552
14.3685836524
12.2134588802
11.6949987356
12.9026031332
13.1008957355
17.1353174405
18.7880512485
16.7411784351
15.2843338522
13.0803966162
13.2165740195
14.5195093495
12.5403873832
11.3876712138
10.9589847441
10.6521233207
10.7478983391
10.9842278279
11.4387420831
12.8803382825
17.1830920526
20.0452631376
20.3341083864
15.6288060202
15.8597569369
14.4758267365
13.8039913557
14.0539112932
14.5966323143
14.8074551223
14.6384800445
14.4911047531
14.5877519216
14.3268487033
14.3324455271
14.4395737837
14.6288356089
15.0889476365
15.5732850109
16.0219550311
16.238784595
16.6520643663
18.6975794774
21.4969980041
22.3773490501
20.5525518008
20.367852634
20.6151079097
20.994241552
21.0590516275
19.7569185138
18.786639224
4.50040129403e-05
0.0454771125961
0.00074206115052
0
0
0
0
0
0
0
0
0
0
0
0
0
0
0
0
0
0
3.9190087921e-06
2.65388802389e-05
0.0048939895474
59.087973966
11.4984177148
11.6597997621
19.3675538071
13.2445139602
12.0943872309
11.9865199888
13.7921107488
12.6824062214
17.9110165043
19.3962793255
17.1343925472
15.633508594
13.4110767782
15.7696559584
15.2581274916
13.0280306022
12.0186579996
12.0955466181
11.3005684012
11.2532430683
11.3265398258
11.6157423058
12.9270574386
17.0307712028
19.8752776393
21.4490256157
19.4381364975
17.9555865385
16.4589648599
14.1692513723
14.3905292841
15.4788310769
15.041233568
15.0163422474
15.5083529657
15.0395215614
14.8029051122
14.782184533
14.8798598734
15.0460092074
15.302962698
15.8646526792
16.5613628871
17.8402669294
19.7661662596
22.4315014429
24.3948789665
24.3568015971
24.6647227822
26.2456281136
28.5144849908
31.9086838112
33.4683853238
31.7299929026
27.4378580846
23.0333720995
0
0
0
0
0
0
0
0
0
0
0
0
0
0
0
0
0
0
0
0
0
0
1.20587268758e-05
98.899743109
11.8807892519
12.0326201113
18.7842118426
12.4280553652
12.198007682
12.2013551609
14.5128736371
12.9046771499
18.5152393081
19.989168189
17.536429822
16.009562801
13.7030748322
16.3373820727
15.9223526888
13.5888742075
12.6287565446
12.8816165744
12.1025432434
11.9929983423
11.9093722821
11.7846481333
13.1581497631
16.9947268708
19.5578399615
21.8100777583
20.6981641215
18.0966840048
14.6193312348
14.7142534651
15.0973274699
16.1347754226
16.3869149207
16.4109399428
16.3073878579
15.5373257833
15.3191340956
15.3450193964
15.4199566857
15.600858236
15.8297635376
16.4730277184
17.7946713186
20.374186025
22.0464729974
22.3011083881
23.4064453356
24.4880094573
28.4447583135
33.0932031222
39.8292123864
44.2003226711
45.0585429215
43.7600036331
12.9533621128
0.313625813924
0.00105273540047
0
0
0
0
0
0
0
0
0
0
0
0
0
0
0
0
0
0
0
0
0
2.02650960844e-06
2.68125730914e-06
12.5333928897
12.6903986923
18.1087918102
12.3861540196
12.6511066901
12.5302212443
14.1120425493
13.5566267258
18.8555645569
20.5328121982
17.9782747224
16.4462379342
14.1511431946
16.8791727276
16.5475644363
14.2990717576
13.3363549386
13.6691070529
12.8616683707
12.8888940575
12.8402456776
12.1471140034
13.6186680086
17.1152441451
19.4002492141
21.9028760114
21.1205981192
18.3259107395
14.7642028796
14.8269598643
15.9638332082
15.7641053394
15.7696826803
16.1775685104
17.2744634043
16.5060193107
16.2136689256
15.928055645
15.9459415115
16.2536240745
16.6265826312
17.3137520649
20.2980985026
23.0850648517
23.0731859507
23.2295371468
24.9505284012
30.2665137573
37.1054128344
43.1846295516
47.7999924657
43.9884918259
26.3338038669
0.0177608400998
0.000111439746739
0.000225879335533
3.46866372095e-05
0
0
0
0
0
0
0
0
0
0
0
0
0
0
0
0
0
0
0
0
0
1.49785272593e-07
6.80130910161e-07
13.5860405022
13.6682039178
18.0177906176
13.1464692339
13.806553885
13.2447228088
14.0066842158
15.0197040908
18.5404180516
20.852793876
18.4952824809
16.9688907717
14.7303096384
17.4977814649
17.2068820544
15.2095767754
14.2842589461
14.6554588246
13.6180443187
13.9067285592
14.1668960973
12.823036511
14.0835676576
17.3787933368
19.4164862802
21.6587970833
21.2810655444
18.6084985923
17.602139475
15.772256706
16.4745330829
17.1578554827
18.1172828268
16.6085475597
16.9004551879
17.6739062516
17.0743219699
17.0691804375
16.8495603313
16.918171636
17.3924561202
20.0378990897
24.2802674935
25.1729432497
24.5327020969
26.1712744677
32.6569098141
41.4120871942
47.3952729578
46.3047233582
36.6043600337
0.185163929522
0.00126695264542
0
0
0
0
0
0
0
0
0
0
0
0
0
0
0
0
0
0
0
0
0
0
0
0
0
0
0
15.1428960407
14.8733266652
18.439855893
15.1273038914
15.9060636977
14.3901574796
14.7097771395
17.2240643465
18.4203742107
21.2896806083
19.1574360399
17.5943315619
15.4251417067
18.1491001734
17.8602435964
16.239507416
15.856666544
16.0086173158
14.4550643161
15.0695686321
15.8607976989
13.9232828716
14.3369533496
17.6917308672
19.6010627376
21.3823170649
21.4326524116
18.4961288429
18.7843685242
17.5127887503
17.7546188955
16.1297733747
16.8479842722
18.2766755347
17.776461812
17.9774900663
17.9783530437
17.8832931657
18.0160960015
18.0147093211
19.6864493599
24.8001481345
27.6674991001
27.6200993006
28.2776663398
33.3383391956
42.6492511775
48.4017222216
37.7612890839
19.517876302
0.309414379745
0.0014167689935
0
0
0
0
0
0
0
0
0
0
0
0
0
0
0
0
0
0
0
0
0
0
0
0
0
0
0
0
16.8408969725
15.9852177527
18.9637778304
17.9401234277
17.5743991597
15.7923994182
15.5109716609
18.2786875616
16.886264136
21.5725387208
19.9532264992
18.3160646772
16.2295154468
18.8175253138
18.464047946
17.0758351023
18.3076291186
17.6662825801
15.4275685076
16.4417680587
17.2366421884
15.3943197995
14.0982529678
17.5550062066
19.6867517278
21.1278709062
21.4202398129
18.4497074497
18.9746329339
18.8321296409
18.873815473
16.7587213506
17.3426824493
17.5760824583
18.7040316213
19.2112094423
19.1688101585
18.9554187713
18.9336732321
19.9442291134
24.747399493
29.5224121334
31.2102529063
31.80844265
34.5828895997
41.1227021644
43.854679844
27.7206131663
22.4729402018
0.689919119906
0.00241622985491
0
0
0
0
0
0
0
0
0
0
0
0
0
0
0
0
0
0
0
0
0
0
0
0
0
0
0
0
0
17.5458258443
16.7582485594
19.2399284954
18.8407148741
18.4947924368
17.1642862208
16.5849704345
19.6111749285
17.7740609916
21.9871656028
20.7529275429
19.091529705
17.1343963447
19.5231999042
19.0996480428
17.786442636
19.1687733948
18.6291202137
16.4038386969
17.849859744
17.8098761792
15.941660921
15.2574890498
15.4288802413
19.1426725969
20.536556437
21.1201004016
18.3587558511
18.9233885843
19.2166069464
19.7017121899
19.0255245793
16.9641979389
17.3649857396
18.7883726571
20.01283479
20.4750263103
20.6406841432
20.619342118
24.5502181964
30.3002478153
33.8459514224
34.998596869
36.2743043924
39.7822578438
38.1444344383
23.1440918209
24.8565085035
2.2678456165
0.00645894172433
0
0
0
0
0
0
0
0
0
0
0
0
0
0
0
0
0
0
0
0
0
0
0
0
0
0
0
0
0
0
17.4295355032
17.2850071021
19.419752263
18.9004061993
19.0904812032
18.2487143595
17.5388589047
20.9115352971
19.4902216556
22.5497284899
21.6070931324
19.9026513278
18.1300640699
20.2793143544
19.8141136119
18.6650589457
19.8499526443
19.4735305418
17.488163463
18.7738069935
16.8037036069
16.5279671658
16.2036668188
16.6313046859
17.5934640888
18.3720102884
20.1805893674
18.2298138082
18.1176220668
19.0898900055
20.0247723999
20.3415474698
18.6285821397
18.0339399839
18.5498257126
19.6892057837
21.1017538262
22.374057056
24.060111378
29.9169898142
34.9666320156
37.4644315055
37.7751655111
37.9234575869
32.7410311358
24.7811604582
25.3492920373
7.87748809747
0.0176463102439
0
0
0
0
0
0
0
0
0
0
0
0
0
0
0
0
0
0
0
0
0
0
0
0
0
0
0
0
0
0
0
17.5776251365
17.6713894417
19.6238908533
17.4571987351
19.2936645759
18.8075566579
18.1771323701
21.3733582336
20.2027264095
23.1683891204
22.5280358353
20.7304605674
19.2315566002
21.073631316
20.5792607424
19.6902055607
20.5651052874
20.4317714474
18.6895491623
20.0808979515
18.090703859
18.339906272
17.4073156482
17.8365379355
19.6821350268
20.2675999997
19.759547049
18.0684257389
17.3569236075
18.9942799005
19.9892925328
20.4624351862
20.3737703045
19.0609086224
20.4589195691
20.44116691
21.6563575916
24.1214672198
28.4112922099
34.7436095384
38.7698882284
39.9307287759
37.4662404454
29.587215665
27.0438228697
27.3259682239
23.832861935
0.150484591242
0
0
0
0
0
0
0
0
0
0
0
0
0
0
0
0
0
0
0
0
0
0
0
0
0
0
0
0
0
0
0
0
18.2477080597
18.3233352683
19.790426645
17.8032201679
19.4460928833
19.0586035688
18.6288538325
21.406060867
20.7243240692
23.6049141068
23.4690337418
21.5278350263
20.4391364572
21.8683511865
21.3260038111
20.6980178331
21.2365078208
21.4913583743
19.9478350839
21.3671623657
19.8709268816
20.5815519156
20.2075837097
18.4991123251
20.1291533908
21.243684483
21.342050708
17.9483931952
16.460232819
18.876928324
20.0940769555
19.6251332539
19.648855671
19.2757729719
20.3341364325
20.7873684203
22.3832030054
26.0134637468
32.699111923
39.217625364
42.0072196053
40.5928799192
30.6435645748
27.7360047942
28.5914929893
26.5044238494
1.04863579146
0.00425224144837
0
0
0
0
0
0
0
0
0
0
0
0
0
0
0
0
0
0
0
0
0
0
0
0
0
0
0
0
0
0
0
0
19.1078745853
20.5255248981
20.0742344559
18.8106875529
19.9102993573
19.366691405
19.0686377482
21.4225433101
21.2249029174
23.6552673234
24.4211943947
22.2689994463
21.5147699408
22.4685001543
22.0606885919
21.4198087879
21.2111797971
22.475336089
21.3366993854
22.4770426065
21.9953260626
21.771896875
21.4780232976
21.0074199733
19.9509334388
20.8846250067
22.2668778535
16.9153783854
15.9165033138
17.9241242684
20.0618538485
20.3896441495
20.8968370947
19.2219821812
20.0115441193
21.0082267407
22.7313164761
27.7572483343
36.7050540425
43.2911748087
44.694485306
36.4090540438
29.6417839599
30.9358037475
30.2174815003
7.10774851814
0.0181406838207
0
0
0
0
0
0
0
0
0
0
0
0
0
0
0
0
0
0
0
0
0
0
0
0
0
0
0
0
0
0
0
0
0
19.7388406044
21.1865988244
20.7119333938
19.7085451482
20.5740140847
19.8952702076
19.5854989998
21.539165766
21.7343522304
23.4115342785
25.2891731431
23.0369887717
22.1119143095
22.958797131
22.9273285368
22.0774254238
21.184896087
23.1585318875
22.860636464
23.4342296268
23.2627027017
23.3140359964
21.4706207086
21.454216893
20.8779377383
22.7052499921
23.5808538041
19.6918548641
15.4571329294
16.7288252136
19.4106851951
20.7142047081
20.7621172907
19.8363691088
19.4827814173
21.0785818687
22.6495994139
29.127304835
40.3328640498
47.3333280343
44.127762883
30.5549159489
31.490783205
33.4570697943
29.05105547
0.20957489172
0.000704290655604
0
0
0
0
0
0
0
0
0
0
0
0
0
0
0
0
0
0
0
0
0
0
0
0
0
0
0
0
0
0
0
0
0
20.2214027288
21.5200375332
21.2917700608
20.3153391023
21.2480166499
20.6059518643
20.194716973
21.8465823749
22.3197271703
22.7550425093
25.8691239946
23.9140495976
22.5371744923
22.7370340882