/*--------------------------------*- C++ -*----------------------------------*\
| =========                 |                                                 |
| \\      /  F ield         | OpenFOAM: The Open Source CFD Toolbox           |
|  \\    /   O peration     | Version:  v1806                                 |
|   \\  /    A nd           | Web:      www.OpenFOAM.com                      |
|    \\/     M anipulation  |                                                 |
\*---------------------------------------------------------------------------*/
FoamFile
{
    version     2.0;
    format      ascii;
    class       volScalarField;
    location    "167";
    object      alphak;
}
// * * * * * * * * * * * * * * * * * * * * * * * * * * * * * * * * * * * * * //

dimensions      [0 0 -1 0 0 0 0];


internalField   nonuniform List<scalar> 
6400
(
0.827638586515
1.23457967162
1.88570756042
2.14258159397
2.40542204972
2.71527665668
3.27811416102
3.94483253614
4.0304449826
4.29640458143
5.40025119825
5.83941293954
6.15139166024
6.60649720453
7.34502063537
8.09839356776
8.62326670446
9.13884774717
9.618466581
9.81553190033
9.69568975988
9.57618523344
9.7137238975
10.1887217541
10.7589810312
11.2244209095
11.4911300138
11.7131859142
12.039229496
12.4787488506
12.9807913224
13.2510639966
13.2358756365
13.1296285936
12.9342386509
12.5090549923
12.2696123745
12.5360853919
12.2515755579
11.588723331
11.3684083578
11.7862167863
12.265241187
12.4891430502
12.546497394
12.4758611065
12.359322463
12.2685386517
12.2032382951
12.1611663223
11.9564806308
11.0896286037
10.3122588662
9.4661117299
9.15304317489
9.67075813888
9.63155387497
8.38789176723
6.86853079975
6.38713023213
5.59121178875
4.69143167698
3.78791523648
5.53138725176
9.61538714308
14.5634231837
17.5577565139
17.2628412676
15.2445055945
13.5346313992
12.5477282006
12.6013347359
13.0110989336
12.8100037869
14.7518006338
14.156293238
15.9891326869
9.88643259446
12.8711989284
4.81236717288
3.07471315451
2.37446636181
2.89732075804
4.08253090025
3.70702673003
3.24972859564
3.21096680302
3.44759604669
3.83828272377
4.36431416197
5.05121646753
5.73646150504
6.31165352032
6.86037652067
7.40011951426
8.04152695892
8.7121476368
9.4151224157
10.5078263988
10.4738989777
10.0534159637
9.80991903304
9.78119552727
10.1689502078
11.0520456477
11.3611888849
11.5535899237
11.8627921259
12.2331575447
12.6347625583
13.0647772992
13.5735802765
13.5692469611
13.4960692139
13.4139866388
12.7092686589
12.6530157456
12.9170940863
12.4456956453
11.3935995449
11.0837122021
13.5736446024
14.9995514889
15.0486007514
14.9718603228
14.5858064135
14.0279264282
13.6048703674
12.95271153
12.4315697851
12.4452493426
13.1489366805
13.0496345079
9.68788443494
9.69761039883
9.46942801187
7.79155420708
6.67513004672
5.79839339965
4.93825855029
4.29055928097
5.01870947778
3.96646447008
5.69719007132
9.65808549293
15.4724997406
19.1952532631
18.005527552
15.8222923949
13.8423497938
13.0163983061
13.2884671218
14.2459123066
13.6059087263
13.3893064424
12.8191116189
11.5895825529
9.73495553219
8.17767082272
4.26237012584
3.0214102141
2.5463970647
3.02602064127
3.07067406424
3.27608905024
3.5517578146
3.46117229287
3.40275823891
3.7714407049
4.35080120579
5.02414609691
5.72853338108
6.35973552336
6.92528340508
7.33433609846
7.90980844415
11.2388358186
13.4149369837
13.6075112612
12.5019084352
9.93754928003
9.21930201034
10.0202986884
10.4729156979
10.8052935002
11.287122744
11.6996912727
12.0168673688
12.3655401742
12.8049390538
13.1545853418
13.8689713616
13.947091232
13.3271058241
14.1465215212
13.4829131061
12.4780476245
13.3991919092
12.8270675616
11.6635085997
11.3045274694
11.8117925128
12.3773397805
12.6429215559
12.7216206483
12.6920093841
12.5859249698
12.4224613044
12.200868007
11.9447317863
11.6545694514
11.2477311788
10.6668872942
10.379649275
10.2796972062
8.95686509402
7.67995277938
6.71939898423
5.90061272832
5.1864297402
4.67864269346
4.16388159944
3.88858702468
6.39943162753
11.5999754468
16.304481816
18.6167790958
18.7282051463
17.1091608876
15.3733239882
14.5826666855
14.3846204231
13.6527006515
12.9957551217
12.9034577763
12.5037127994
11.4839149182
9.84630129068
7.40844601372
7.58486720084
2.77103396138
5.28952485663
3.09439855774
3.01641178724
3.63068051351
11.6693923985
9.97101781257
4.2729603674
3.7995042726
4.38570860158
5.04747678274
5.75355603344
6.36414867661
7.04532930867
9.13676463869
11.5212976514
13.1700209976
13.2241827891
11.2629151837
9.36215886535
9.30329955791
9.5011364353
9.78773084593
10.3027611653
10.897316158
11.4613728137
11.9380262143
12.1948180859
12.6437308488
12.8855848184
13.6482881995
13.7737142079
14.6017462838
14.2273304652
13.1137378451
13.7785530601
12.9213593746
11.9509307517
11.7499467628
11.6551375114
11.685918431
12.0031166815
12.3975759878
12.6534798369
12.7641947361
12.7630450342
12.6761901793
12.5234892486
12.3140480317
12.0588881572
11.7555929909
11.3839593001
10.9437972012
10.4837431778
9.85795299183
8.89639979604
7.80555123257
6.8569202676
6.09768412294
5.50988791634
5.08666503426
4.78494979821
4.93494573352
6.90079176445
10.7662448483
16.562123662
20.1508085543
20.3466473403
18.6617743004
16.2821297071
14.6131664102
13.7352128916
13.8147470451
15.1246238714
15.0015465921
13.6332439976
13.4483498215
16.7069431055
13.1063191935
11.1210219121
5.21575317026
7.26308915134
3.49389714864
3.81766991999
6.07633789496
11.5466779693
7.6017623361
4.33561583127
4.27197918706
4.60448963141
5.20253735107
5.94932777885
7.46499381279
10.217642377
11.1715355934
11.2819091719
10.7414639702
9.69115081092
9.05461331155
9.43074108218
9.45617189626
9.43592537322
9.83566929426
10.4090221146
11.0558409592
11.6956176359
12.0692190321
12.6604955346
12.7453127724
13.5872123284
13.575520132
15.1990777437
14.4032817369
13.3925267704
13.6855308827
12.4990705004
12.0384567774
11.8600861721
11.8239481169
11.8439236209
11.928312134
12.1573221457
12.4549102189
12.6901421971
12.8173173918
12.8369883065
12.7669619101
12.627652155
12.4338929469
12.1939283107
11.9044907694
11.5575736809
11.1486989554
10.6519328062
9.95368969032
9.00016732589
7.97226657649
7.08963050635
6.43040135477
5.97857754375
5.70823297734
5.66398146433
6.18866472006
7.37165888424
10.5371790461
15.9353502923
20.1522569148
21.5453525367
20.3408565715
17.5484876892
15.0326929599
14.6397066305
16.7970967077
17.601459344
16.5087029337
15.5415306322
18.1356724476
21.1163260846
16.4183358019
15.522103351
9.57156566101
8.67389627371
4.32046503086
5.18555529619
11.7978707092
11.2015981424
5.32758099562
4.74947803994
4.79637429811
4.92823864298
5.54674338984
8.64161536529
12.2178775308
12.4701067576
11.8198113195
10.2280837203
8.97957714301
8.65236407549
9.54527616527
9.46342699238
9.18577954117
9.45959298496
9.98401245596
10.6449984969
11.1656786296
11.8354650597
12.8202406027
12.6866221304
13.8865829597
13.464597324
15.6173868398
14.6547444475
15.9649412278
14.1283158465
12.3958389805
11.8738610602
11.8457576286
11.903314069
11.9667499506
12.0285943941
12.1346429017
12.3248233597
12.5633817695
12.7739711285
12.9029129083
12.9351926348
12.8785105011
12.7543398776
12.5825391174
12.3700370912
12.1103657552
11.7906518199
11.3875324311
10.8496308445
10.1084614293
9.18628955532
8.2501109552
7.46272515824
6.8760394579
6.52430803962
6.4045011012
6.7619546307
8.18975681002
7.50015900228
11.7436508486
17.5043661227
21.2727274782
22.680989289
21.7175516184
18.3279181789
16.134090743
17.8917552684
20.0368300461
19.4559398012
18.4010399035
18.4136346155
22.8987758456
24.4448668471
19.4122161867
19.1961388156
11.6206707899
8.18810623345
5.25804129161
5.00929246346
11.6459445385
7.52996835933
5.14111338043
5.21237806303
5.27668416123
5.97738428261
6.26732961434
12.2226128669
12.6468108042
12.5079265836
10.5962511639
8.65042311779
8.25439381109
9.73855475042
9.62089426759
8.96356212649
9.18391862271
9.5649627666
10.0869702267
10.7430903831
11.658458654
12.6421816312
12.7450178138
14.4143732377
13.6971401263
16.0862861534
14.9196339726
16.3411946862
14.8227193652
13.7657768338
11.8741406087
11.6409898521
11.840576527
12.0186471951
12.1179072774
12.2015101961
12.3253251382
12.5003003427
12.7060889156
12.8955050285
13.0206713905
13.0586681538
13.0136763924
12.9094214985
12.7678373695
12.5923590096
12.3693224076
12.0743961497
11.6689785417
11.1031358348
10.3527344168
9.48313636222
8.63943265314
7.93236999075
7.38935207051
7.03262709424
7.04161782276
7.52731535113
7.85938906237
8.46197032555
12.6565301875
19.7519953917
22.4270306371
22.8573521213
21.7716751263
19.4970068005
19.2962842513
21.8526618395
22.2447180755
21.3406338127
20.6845097179
22.5526015287
25.2088992386
26.6267635
21.9868326319
20.8152408231
11.1702464245
7.4203058431
6.27435389627
11.6059547982
11.5837251235
5.85520542582
5.65977502589
5.72632755455
5.96238951617
6.4759702696
12.0576757414
12.9033750141
12.7482239925
11.988796421
8.90018181758
7.87117026965
9.69351541034
9.99981451282
9.00435595093
8.77116988937
9.23788271365
9.82258329386
10.3250925849
11.0780334314
11.6932394222
13.2038766193
12.8918950648
14.2878687328
16.0133963117
16.0673994384
14.3027312789
15.3791906747
15.204911291
12.2967317821
11.7271545414
11.7361894146
11.9339870036
12.1373305624
12.2682375066
12.3728585186
12.5106019156
12.6862903296
12.8766382918
13.0492575133
13.1672935931
13.2077598029
13.1759426335
13.0978918077
12.9946739887
12.86354845
12.6815292733
12.4117546728
12.0066054352
11.4298621466
10.6964731491
9.89113828551
9.11886871038
8.41858391021
7.77716623288
7.33707389217
7.45179072973
8.04370614027
8.81375789295
9.86032920301
10.9896311482
19.4870788078
23.8609831756
24.0242451159
23.4760712285
22.6199686389
23.5841441575
24.9635339017
24.2264102111
23.4670163744
23.5714109
25.7611047739
26.3203097019
26.8476698726
23.8884555069
21.6754328569
10.1986301894
6.93900250764
6.91536715647
12.4889989244
10.150351979
6.07987120839
6.22103011634
6.3902908043
8.13699836339
6.38677951374
12.8307281845
13.3025385895
12.7137560329
10.3250252267
8.07355430803
7.98212638928
9.83863683661
9.49775385426
8.76338104055
8.79706406723
9.21177633648
9.96939543575
10.641868919
12.0047428491
13.2638303136
12.9660360104
15.5208467964
13.7759205477
16.4062089144
14.55463918
16.5855073107
13.983793593
12.8793038594
12.0484425236
11.8297123478
11.892868974
12.0563543858
12.2545353692
12.416549345
12.5523764804
12.7049754727
12.8839836003
13.0693592089
13.2315178325
13.3404721232
13.38258091
13.3686894926
13.3243512277
13.2662554985
13.1853549384
13.0488119929
12.8075240908
12.4098650843
11.8381060209
11.1373300391
10.3894769019
9.63271819946
8.8026325516
7.86510049006
7.25303604085
7.67635642686
8.93201242861
10.2520282587
11.3330275079
12.2445948554
15.5910147306
23.775388948
25.4464355636
25.656325654
26.5312676586
27.7525109921
27.4263806166
26.3507718066
26.0431294983
26.8689984485
27.8798992268
27.5772135366
26.860315009
25.7338762771
24.2553250124
9.29399527397
7.03439491887
8.13368006443
12.4645879846
7.42354155092
7.09996992601
6.77847277608
7.02991231662
10.935698749
9.38456980906
13.6560665813
13.4781020064
12.6622638466
9.20762520246
7.89155538583
9.94427536797
10.1217558012
9.09738100353
8.68464237389
8.98800608528
9.32789029368
10.0265995169
10.5443801347
12.1927128898
14.7750681543
12.7382527559
15.3823943335
16.4845900463
16.6367819433
16.8869343808
14.8865194696
14.7615498401
12.2438441315
11.8734833855
11.9618326824
12.0565611235
12.1913494961
12.3724267525
12.5573356183
12.7334004438
12.9128985354
13.1000420102
13.283275717
13.4390443541
13.5418734429
13.5857308748
13.5927284886
13.5899762202
13.5848638882
13.5594661323
13.4728365468
13.2651155616
12.8829369662
12.3282222731
11.6655115142
10.9457661274
10.0861425379
8.86116069797
7.36745647445
6.81708908233
8.19756438806
10.3040924162
11.9847409565
13.2256239582
14.1747076736
14.2527512712
15.4584575357
27.142326444
30.0122812673
31.3463437677
31.3902340449
29.9861623267
28.9831751422
29.0972221447
30.0121437406
30.0990368425
29.6373907725
29.1616153725
29.3590258047
29.4528403246
8.83900526275
7.61052743034
11.9146557126
12.3452960244
7.0177483072
7.77119764226
7.29518070724
8.11061632968
10.0415372239
13.2182254751
14.3183668868
13.5931088479
12.7157908789
8.8361888439
7.94359414013
10.5729576375
10.0862810152
8.94302208458
8.68368705463
9.1396492044
9.82711489772
10.3373834645
10.7340113374
11.7128733984
14.8843119941
16.0549373312
14.4705044678
16.6647585926
14.3865893368
16.9415280132
16.8769860363
14.5506297337
12.05913764
11.9655764909
12.1299060169
12.2318609106
12.3478821228
12.5089463684
12.6954857274
12.9097557077
13.1313681063
13.3354143205
13.5196223802
13.6715906379
13.7707904086
13.8204318413
13.8528514759
13.8959242778
13.9486228986
13.9837932904
13.9520341788
13.7833686492
13.4255999182
12.8990170961
12.2682070573
11.4986280086
10.2386091493
8.12730145332
6.33722915675
6.79492503117
9.62322382168
12.4313232779
14.2859339171
15.5208156521
16.2005538019
16.182482879
15.6824707738
17.5197219447
31.5936682221
36.9822037968
35.8082432631
33.4317530436
32.478947854
32.7057965876
33.1516468629
33.1269616562
33.1107870403
33.3600873339
33.7672928721
34.3515048914
8.79111439642
8.29801417402
13.4495293668
12.718981913
10.3883381078
8.87506972405
7.98889793545
9.67744131409
9.08224737818
14.1382568037
14.7807773313
13.7553774819
12.5158121728
9.11973492388
8.72272002926
11.1040532472
9.95652471022
8.90893787715
8.78314099548
9.17139612867
10.039588236
10.7587233216
12.8193872025
11.850906671
14.2250382261
16.4322498006
14.0226697251
16.9895779246
17.4305235624
15.330087404
15.2656967528
12.7756102271
12.4116242591
12.2857395249
12.3425146277
12.4388707449
12.5412011442
12.6823248066
12.8408753118
13.0631378955
13.3431090725
13.5968996762
13.7868491364
13.9305154626
14.0287089946
14.090295434
14.1527943642
14.2433458702
14.354659022
14.4520337266
14.475884934
14.3519139209
14.0369625163
13.5498065563
12.9077348022
11.8240669291
9.49030747377
6.59045415736
5.56484282798
7.83883036724
12.1614300825
15.3585229118
17.2307107937
18.5023859015
19.0941061748
18.8810850556
18.2041002715
17.0824482873
27.5868683924
37.9503334016
40.8230357935
38.0526345404
37.1073852061
37.2101324603
37.3745902294
37.1888261621
37.6525056452
38.0986587594
37.7728313501
37.8535265618
9.1251362787
8.81992662716
13.0110841222
12.9677834598
12.8861226927
9.7251865929
8.82013935058
12.8450290624
9.08385999652
14.9749450602
15.129360065
13.935791397
12.3425528499
9.47623074047
12.1148492252
12.2189795773
9.95224479666
9.0157473794
9.01403735614
9.33237083565
10.0052815672
10.687319446
14.432208998
15.4844136882
13.3784162375
16.5390804883
17.2935603633
16.3557712577
17.408126612
17.3306488094
15.9079628091
12.6889611705
12.6056853007
12.6055416218
12.601161817
12.6570863464
12.7266171862
12.8866259359
13.0625065016
13.2427638751
13.5281207638
13.8470198154
14.0827208641
14.226935647
14.3210728808
14.3987318767
14.4964405586
14.6340782006
14.7986724815
14.9496211876
15.0224851782
14.9532835891
14.7117341296
14.2584808873
13.4590560889
11.5071383495
7.68543686568
4.64966500557
5.2744785424
10.2658026625
15.7403921787
19.1542886076
20.9204854854
22.415934025
22.5783078337
21.4861447624
20.1482281228
18.9359392267
23.7417254457
35.1110069453
42.1714022491
43.3380879444
41.4905594067
41.7629414602
41.8076571061
42.0005694037
42.647444718
42.8928453948
42.5902474656
42.6129544234
9.51338563657
9.34082932782
9.08836643198
13.1572758306
13.2249300367
10.1861801038
9.59705525131
13.6323937232
9.43445462543
15.7982071338
15.4195519322
14.1225510831
12.301106242
9.59944145564
13.330663323
12.4962147877
10.1151926293
9.27618826829
9.30875021471
9.67571265749
10.0947864585
10.6113826365
15.0809866609
16.4403257757
13.570043668
16.6738745031
17.8076327667
15.1892349055
17.0221376836
16.5409756153
13.3254480889
13.0520623407
13.0207693365
12.9462690063
12.8703450219
12.9416109096
12.9919153138
13.0530147923
13.2610895279
13.493939452
13.7571476817
14.0887492796
14.3768913984
14.5531961623
14.6566635294
14.7536034513
14.8867903424
15.0630342893
15.272125418
15.4647313799
15.5567095392
15.5588331948
15.4380059091
15.0174580408
13.7564879361
9.92505453773
4.50230521098
2.20769094559
7.35012138336
14.6685494129
20.6251281409
23.9762671812
23.7344662502
21.9810497659
19.004666961
17.0512327952
15.9930231878
14.4375318455
11.4996026407
14.0296572268
41.731129122
45.3333409123
46.3985637043
45.7227662404
45.3687637412
47.038251604
47.6465428384
47.8154765064
48.7534424805
49.1735191855
10.0646583758
10.1091230378
13.7231421463
13.6120224534
13.4436059652
10.5400141742
10.5125597131
14.2093246136
10.2351943943
16.46989833
15.6677204827
14.3095274652
12.3094066879
9.84151082338
13.4813418701
12.3734416037
10.28993318
9.57720284237
9.59984633117
9.92299971973
10.3233347369
10.7330671068
14.1589769467
17.1940065524
17.3090482163
15.6437410225
17.9624150093
18.5519542639
14.692187878
13.6300599367
13.138853857
13.209435689
13.2460507831
13.2218535397
13.2199321766
13.2119432319
13.2538352126
13.3456478688
13.4536864116
13.717854099
14.0324363719
14.3683348843
14.67716827
14.8921684562
15.0344957435
15.1573595212
15.3181981416
15.5497889143
15.8029966528
15.9696269402
16.0314814146
16.1261925227
16.166622888
15.6728920162
13.2567780925
6.99578143353
0
3.80763438967
12.3058952672
20.669594614
24.7149221059
20.9879695673
13.5501085397
0.147053072595
0.11502534968
0.279255098478
1.88240015158
7.26997707722
11.1932772513
13.8584795803
9.70065811939
31.2144634986
49.9813950642
50.701072766
48.4497839148
50.6967618194
52.5641940566
54.7339658622
57.0285311796
57.2267916561
10.5435614914
10.7177793709
15.2218229093
13.9964019103
13.1495917585
10.9300784732
11.4422285188
14.5965112354
14.604563391
17.2478128031
15.9326276319
14.5529017635
12.3407295586
10.2384860701
13.6299830802
12.2114033738
10.4941825094
9.89636778484
9.86683782757
10.1241717723
10.5172589952
11.0615192867
13.3279567253
17.4172652664
18.7041320598
14.7471397862
17.540965086
18.368882377
17.563420413
14.4258341293
13.3141434162
13.4070593854
13.5479424047
13.6247511126
13.4675800801
13.4963336474
13.4947070869
13.6046537572
13.724430529
13.952732715
14.3094575726
14.6862710065
14.9907482085
15.2143306766
15.4209914755
15.6725634459
15.9339844461
16.2005318204
16.3521672265
16.4370805491
16.5379754137
16.6592063689
16.9292015437
16.4047726708
10.8753094283
0.00170662347004
2.2488811403
9.482853077
17.789907962
19.3734254948
2.26444486467
0.00377844326196
0.000266344199588
0
0
0
0
0
0
0
0
3.70439360593e-08
1.24941527352e-05
0.00186885893807
1.08425210732
49.6617142354
58.3270973379
59.9037658156
66.9169210827
65.7052990775
10.9124681657
11.1151300265
17.5204028635
14.2214853217
12.4887648394
11.2926110923
12.0731731118
14.2970017806
16.1544386345
18.1435934292
16.3251139253
14.8956957328
12.5764384584
10.9723644912
13.9914896616
12.222986742
10.8047746734
10.2833781841
10.1746195373
10.3588475881
10.6900272859
11.2091279724
12.9455629111
17.2663467239
19.6427760275
18.6219978762
16.7856154796
17.6705224599
16.8916355855
13.6037889122
13.7763761851
13.9388947677
14.2049413394
14.0770937337
13.9385140967
13.7688383147
13.8314916011
13.8569069647
14.0057800795
14.2306111594
14.563355865
14.98772693
15.4240618513
15.6787134198
15.9393417526
16.3144445186
16.7183892738
17.0207905464
17.1492242063
17.2697550413
17.416228159
17.5466239271
17.4308716631
16.4647801209
10.3618762849
0
4.62087680153
8.85470560655
0.427951022941
0.00117355800965
0
0
0
0
0
0
0
0
0
0
0
0
0
4.77311073811e-07
4.74312355772e-06
0.000103979545256
0.00504182436622
26.9585508801
71.0251905063
51.5593617995
11.1803249978
11.3690165052
19.6951819746
14.3381211403
12.1722380628
11.6487789031
12.8647574894
13.0627304241
17.1101482629
18.7672110559
16.7150255687
15.2530046409
13.0365439305
13.1751383155
14.4865468158
12.4951947368
11.3331337272
10.9017083212
10.5920614392
10.6868081581
10.9218555412
11.3742078917
12.8158492955
17.1298217473
19.9913412643
20.2798861065
15.5501516058
15.7828883054
14.378919771
13.6951593178
13.9414258428
14.483516517
14.6912615524
14.5137097082
14.3598203461
14.4547585677
14.1845314078
14.1835164002
14.2841437301
14.466698614
14.9227748161
15.4015952164
15.8449819646
16.0561072279
16.4681438988
18.5346570075
21.3578130517
22.246045004
20.4076852631
20.2316499051
20.4990714074
20.9241208625
21.0419251716
19.9111201528
18.9194090165
8.46829900974e-05
0.0855732105654
0.00139631897148
0
0
0
0
0
0
0
0
0
0
0
0
0
0
0
0
0
0
7.37430644626e-06
4.99375852426e-05
0.00920890474652
59.5723944841
11.4505434252
11.611877581
19.3492870019
13.2063041012
12.0484140589
11.9379923367
13.754401268
12.6382307002
17.8858435446
19.3740177072
17.1057942675
15.5992278002
13.3630299832
15.7333632572
15.2217047802
12.9794084024
11.9619233768
12.0402281513
11.2391624597
11.1910988648
11.2633642857
11.5496823755
12.8616378193
16.9778217849
19.8211236663
21.3947066879
19.3773481581
17.8912396082
16.3815127965
14.0630479265
14.2796184884
15.371502138
14.9211550719
14.8897064866
15.3844654822
14.9053260943
14.6605057878
14.6330458108
14.7243152475
14.8841389894
15.1339866625
15.6917449558
16.3865291708
17.6768417617
19.6223034845
22.30661236
24.278715055
24.2390508556
24.5552873904
26.1586742896
28.4641360594
31.9371070295
33.5436894657
32.1337668882
27.7857283704
25.0439100297
0
0
0
0
0
0
0
0
0
0
0
0
0
0
0
0
0
0
0
0
0
0
2.26906220554e-05
99.4056810708
11.8311432678
11.9831442399
18.7634957967
12.3823915279
12.1493795197
12.150657265
14.4745592982
12.857021115
18.4891768422
19.9654447034
17.5054460269
15.9725180304
13.6517777234
16.2987936944
15.8823909282
13.5367226695
12.5697849959
12.8251262678
12.0398174817
11.9299800977
11.8461241749
11.7161246899
13.0924297002
16.9419519678
19.5034101632
21.7564663143
20.638250061
18.0271360578
14.5187859865
14.6088690194
14.9911508544
16.0321137451
16.2779858849
16.294419934
16.1838549171
15.4004959501
15.1758903969
15.196570731
15.2648961779
15.4398762805
15.6622122926
16.3026791448
17.6300796845
20.2334234601
21.916779208
22.1658269075
23.2727962293
24.3561844202
28.3408087765
33.0182690487
39.8020785324
44.3009981482
45.0541919889
44.17205521
23.0498055851
0.590142299754
0.00198090738289
0
0
0
0
0
0
0
0
0
0
0
0
0
0
0
0
0
0
0
0
0
3.81323535151e-06
5.04525866304e-06
12.4822907083
12.6395196488
18.083803466
12.3351166066
12.6011359182
12.477467489
14.0677203681
13.5081904253
18.8276536751
20.50738539
17.9448541836
16.4064327682
14.0969760621
16.8388218949
16.5047990232
14.2442007011
13.2757062501
13.6119234156
12.7973364429
12.8251627706
12.7780958615
12.0768556705
13.5534451342
17.0621669479
19.3457132968
21.8493734005
21.0590379206
18.2481861382
14.6579424096
14.7208997158
15.8630392383
15.6514083284
15.6490922498
16.0532357148
17.1527775966
16.3692676867
16.0722431334
15.778230473
15.7903516975
16.0941356785
16.4621132252
17.1454386933
20.1564641194
22.9622872526
22.9447593488
23.0957281614
24.8172507435
30.1536140504
37.0109941629
43.1053534347
47.7596911561
44.0724474395
29.0088004308
0.0334201540714
0.000209693544042
0.000425031820152
6.52690274358e-05
0
0
0
0
0
0
0
0
0
0
0
0
0
0
0
0
0
0
0
0
0
2.81847415975e-07
1.27978629831e-06
13.5336806266
13.6154160875
17.9876087126
13.0922898338
13.7566745426
13.1898654658
13.9557494623
14.9738588278
18.5078450641
20.8249326007
18.4594567399
16.9264034453
14.6735756468
17.4553350318
17.1613631005
15.1524488951
14.2227450101
14.5983375099
13.5519188353
13.8427073229
14.1069517147
12.7526128264
14.0177069634
17.3247191922
19.3616645822
21.6040815875
21.2186639028
18.5249416866
17.5124290011
15.6691468827
16.3768971987
17.0572059931
18.0155715324
16.4826616936
16.769034088
17.5427525238
16.9313439603
16.9234587529
16.6960896695
16.7589183066
17.228206109
19.8960783543
24.168236708
25.0608899261
24.4127889083
26.0537251534
32.5575136786
41.3232429679
47.306565784
46.1762295368
36.7193070244
0.348418600601
0.00238399492214
0
0
0
0
0
0
0
0
0
0
0
0
0
0
0
0
0
0
0
0
0
0
0
0
0
0
0
15.0900276247
14.8179948373
18.4038273987
15.0744484663
15.8582915236
14.3332896211
14.6549070626
17.1827283703
18.3831648447
21.2593718238
19.119478336
17.5493500165
15.3663029091
18.1044571093
17.8119834304
16.1802327788
15.7965395288
15.9522306957
14.3869074368
15.0061220991
15.8037904527
13.8544413277
14.2688658801
17.6360583824
19.545584946
21.3258559407
21.3702724853
18.409121377
18.6951000839
17.4129370716
17.661493014
16.0159781819
16.7280233841
18.1597700049
17.6451104402
17.8407007575
17.8359280529
17.7361300298
17.8661393214
17.8579165649
19.5428182414
24.6952003597
27.5723393744
27.5210082218
28.1783623384
33.2503294169
42.571016482
48.3189683645
37.617636759
19.9170714019
0.582217743352
0.00266590081214
0
0
0
0
0
0
0
0
0
0
0
0
0
0
0
0
0
0
0
0
0
0
0
0
0
0
0
0
16.7881937019
15.9270536857
18.9221533331
17.8918455602
17.5254071736
15.7342277406
15.4518867364
18.2359349085
16.8374906308
21.5396057095
19.9135416523
18.2688034548
16.169073591
18.7706779422
18.4132399064
17.0145893262
18.2533947626
17.6107101432
15.3574483877
16.3802301154
17.1800097481
15.3278198438
14.0236295929
17.4980094362
19.6300321378
21.069416381
21.3570522123
18.3613079445
18.8830621999
18.7338158385
18.7765909216
16.6433659256
17.2308094533
17.448817775
18.5744513206
19.0773558789
19.0280902032
18.809405562
18.782797071
19.7999286488
24.6435237182
29.4396125782
31.129622291
31.7272734748
34.5055397155
41.0505706482
43.7767174475
27.5084345773
22.622446514
1.29820454181
0.00454656275092
0
0
0
0
0
0
0
0
0
0
0
0
0
0
0
0
0
0
0
0
0
0
0
0
0
0
0
0
0
17.4907097157
16.6978352543
19.1936130251
18.7895093615
18.442869928
17.1054432448
16.5233941992
19.5672095043
17.7224885657
21.9515272872
20.7114121649
19.0420388426
17.0727579467
19.4741363378
19.0464879503
17.723828661
19.1128161612
18.5709670541
16.3321575807
17.7909128533
17.7506306453
15.8702237034
15.1853729944
15.3573550058
19.0859580682
20.4767776102
21.0557035293
18.2699186499
18.8305695957
19.1162513541
19.6001048344
18.9198353939
16.8393981596
17.2351371694
18.6592302321
19.8807255199
20.3360565163
20.4994562617
20.4751724816
24.4415306671
30.2214797987
33.776377379
34.9296654745
36.2050051718
39.712587301
38.0620049429
22.9194034754
24.9352035605
4.26735162794
0.0121536383612
0
0
0
0
0
0
0
0
0
0
0
0
0
0
0
0
0
0
0
0
0
0
0
0
0
0
0
0
0
0
17.3703060196
17.2236455487
19.3704332139
18.8461853897
19.0366157791
18.1894575698
17.4752014959
20.8660944105
19.4384752343
22.5105730288
21.5635293139
19.8508741527
18.0675304007
20.2279786716
19.758598244
18.6015067283
19.7919683346
19.4131864785
17.4157176015
18.7130508583
16.7306395451
16.4536958267
16.1297005961
16.5617201486
17.5267623914
18.3027580681
20.1148477866
18.1425840989
18.0185539034
18.9872239322
19.9217141163
20.2353356768
18.5077071532
17.9039635811
18.4149416823
19.5516302419
20.9624318744
22.2376274123
23.9376890186
29.832766725
34.8992728464
37.4018727102
37.7107325926
37.8522132122
32.6370800614
24.5884833386
25.3072569389
14.4983481445
0.0332046459417
0
0
0
0
0
0
0
0
0
0
0
0
0
0
0
0
0
0
0
0
0
0
0
0
0
0
0
0
0
0
0
17.5157328838
17.6092605203
19.5724213876
17.3922425917
19.2377422396
18.7470058089
18.1116900352
21.3248291437
20.1478668958
23.1259529788
22.4826497317
20.6764589769
19.168524285
21.0199584502
20.5213859913
19.6257968462
20.5040525971
20.369255671
18.6161721704
20.0180843634
18.0164756644
18.2688443175
17.3328111509
17.7658457842
19.6198288702
20.2057620886
19.6931477756
17.983419078
17.2526986845
18.8915601268
19.8866316019
20.3553333782
20.2617029291
18.9313547568
20.3375362612
20.3075158342
21.5188221406
23.9930566933
28.3098916587
34.6710479546
38.7073304376
39.8695891834
37.3945962649
29.4652765495
26.8789645618
27.1630655533
25.0653758888
0.283163307389
0
0
0
0
0
0
0
0
0
0
0
0
0
0
0
0
0
0
0
0
0
0
0
0
0
0
0
0
0
0
0
0
18.1840444874
18.2598310941
19.7354857907
17.736108938
19.3876806748
18.9958549475
18.5618211845
21.3538774743
20.6673932757
23.5593718135
23.4222765933
21.4718598861
20.3762058487
21.812340272
21.2659245246
20.6329357375
21.1721081627
21.4268770326
19.8737493143
21.3019060699
19.7968369795
20.5133276547
20.1390231699
18.4232756353
20.0627578264
21.1798883306
21.280727833
17.8644508587
16.349116665
18.7746918461
19.9911931158
19.5098865549
19.5282251886
19.1463715464
20.2062530382
20.6513011086
22.2481029039
25.8940888406
32.6116867611
39.1512189104
41.9466404787
40.5274731082
30.5269248634
27.5860445627
28.4321884999
26.8850353277
1.97319324527
0.00800134247897
0
0
0
0
0
0
0
0
0
0
0
0
0
0
0
0
0
0
0
0
0
0
0
0
0
0
0
0
0
0
0
0
19.0422395607
20.4674204419
20.0148407501
18.7430754485
19.8495648519
19.3014790645
18.9999671414
21.3667048246
21.1663717702
23.6057886473
24.373588489
22.2115189768
21.451791183
22.4093691709
21.9987513678
21.3532887377
21.1407655132
22.4093283527
21.2629608139
22.4094669961
21.9242670317
21.7013512812
21.4067373066
20.9367333647
19.8759425647
20.8129514451
22.2044104509
16.8208425537
15.8049839327
17.8174846648
19.9578921701
20.2789738396
20.7873558228
19.0929424441
19.8827613056
20.875238064
22.5983131383
27.6456154017
36.6268886384
43.2286143437
44.6362370438
36.3200101692
29.503263055
30.8077969001
30.2591143161
13.3744828083
0.0341348970454
0
0
0
0
0
0
0
0
0
0
0
0
0
0
0
0
0
0
0
0
0
0
0
0
0
0
0
0
0
0
0
0
0
19.6709248085
21.1261728233
20.6499745212
19.6399821023
20.5114419734
19.8281839744
19.5151678164
21.4797762897
21.6745722173
23.3573831753
25.2409278557
22.9788235867
22.0475472082
22.8966550138
22.864330727
22.0092905312
21.1092393209
23.0911411997
22.788888236
23.3643425529
23.1902197356
23.2417371544
21.3889960729
21.3746330264
20.7981586549
22.6368575693
23.5168734243
19.6140984438
15.3447077361
16.618772859
19.3079089698
20.6061083144
20.6452033289
19.7086150012
19.3520189335
20.9530912376
22.5198029619
29.0222920852
40.2608209258
47.2740001295
44.0600470848
30.418173752
31.3517327375
33.338816797
29.7583547027
0.394352132635
0.0013252471217
0
0
0
0
0
0
0
0
0
0
0
0
0
0
0
0
0
0
0
0
0
0
0
0
0
0
0
0
0
0
0
0
0
20.1517509512
21.4574175217
21.2277894616
20.2451225982
21.1839581322
20.5377937007
20.122855561
21.7839643653
22.2591203314
22.6950450306
25.8197796405
23.8560090314