/*--------------------------------*- C++ -*----------------------------------*\
| =========                 |                                                 |
| \\      /  F ield         | OpenFOAM: The Open Source CFD Toolbox           |
|  \\    /   O peration     | Version:  v1806                                 |
|   \\  /    A nd           | Web:      www.OpenFOAM.com                      |
|    \\/     M anipulation  |                                                 |
\*---------------------------------------------------------------------------*/
FoamFile
{
    version     2.0;
    format      ascii;
    class       volScalarField;
    location    "25";
    object      pa;
}
// * * * * * * * * * * * * * * * * * * * * * * * * * * * * * * * * * * * * * //

dimensions      [0 2 -2 0 0 0 0];


internalField   nonuniform List<scalar> 
6400
(
-0.12925827801
-0.129266074429
-0.129287440044
-0.129324482596
-0.129370368886
-0.129421868562
-0.12948215303
-0.129558469688
-0.129642844415
-0.129723256675
-0.12982563534
-0.129968163636
-0.130118627338
-0.130270551773
-0.130441948702
-0.130665657303
-0.130908571976
-0.131148094288
-0.131411300876
-0.131727229941
-0.132050701877
-0.132341641641
-0.132591021728
-0.132812072543
-0.133019875615
-0.133250743063
-0.133472957757
-0.133679245488
-0.133861233897
-0.13401460913
-0.134170971757
-0.134449669825
-0.134729119486
-0.134889481433
-0.135029408673
-0.135179691885
-0.135311781543
-0.13543749508
-0.135555270435
-0.135669861503
-0.135786986443
-0.135912553766
-0.136050937072
-0.136204298438
-0.136373553066
-0.136559887039
-0.136767555605
-0.13700546461
-0.137274020337
-0.137559097953
-0.137840010103
-0.138128542224
-0.138517236702
-0.138903712226
-0.1392768592
-0.139657435235
-0.140094866092
-0.140543117172
-0.140990162085
-0.14143759349
-0.141882123512
-0.142287977426
-0.142609870297
-0.142813263706
-0.142921603764
-0.142906544263
-0.142751846585
-0.142511064734
-0.142253254599
-0.142000834781
-0.141746526007
-0.141477007569
-0.141172740646
-0.140867840581
-0.140556530594
-0.140248352119
-0.139965214923
-0.139770381736
-0.139633085636
-0.139567774038
-0.129245845857
-0.129253419079
-0.12927054691
-0.1293066942
-0.129361249544
-0.129424990326
-0.129491900817
-0.129560492794
-0.129634728798
-0.129717675602
-0.129818023734
-0.129945175282
-0.13009124256
-0.13025900353
-0.130442741988
-0.130640098618
-0.13085465535
-0.131102596173
-0.131403814737
-0.131768670607
-0.132100892973
-0.132389328447
-0.13262696207
-0.13282329672
-0.133031746419
-0.133285008527
-0.133480315723
-0.133702798178
-0.13387480258
-0.134014171545
-0.134138709038
-0.134271373076
-0.13442085248
-0.134524882924
-0.134531383535
-0.134447778647
-0.134306512537
-0.134146507973
-0.133996666933
-0.133884526693
-0.133833299558
-0.133861333759
-0.133980096274
-0.134193116092
-0.134496306635
-0.13488026175
-0.135332208742
-0.135841746607
-0.13639544613
-0.13695212678
-0.137450486874
-0.137885839628
-0.138280681903
-0.138675334872
-0.139048831941
-0.139410772738
-0.139815365011
-0.140283969246
-0.14080430069
-0.141325405118
-0.141828822941
-0.14234086969
-0.142734631881
-0.142948718839
-0.143055417263
-0.143041103345
-0.142868619859
-0.142613668456
-0.142346569681
-0.142083575838
-0.14181896846
-0.14153328308
-0.1412020294
-0.140864308785
-0.140536795498
-0.140224878931
-0.139952802333
-0.139750014201
-0.139602982671
-0.139554539504
-0.129213851676
-0.129226248866
-0.129238659557
-0.129272026317
-0.129327792937
-0.129400883886
-0.129481535532
-0.129551726732
-0.129620292201
-0.129702425713
-0.129799540979
-0.129918329476
-0.130062347888
-0.130229132469
-0.130414926114
-0.13060795088
-0.130838389074
-0.131185531026
-0.131556999061
-0.131927169998
-0.132244391795
-0.132464707433
-0.132669846301
-0.132896431845
-0.133120736998
-0.133350707858
-0.133531328699
-0.133719200711
-0.133886884873
-0.13399784563
-0.134075504131
-0.134139943802
-0.134232834656
-0.1343329281
-0.134376622833
-0.134368187579
-0.134343723182
-0.134345171485
-0.134399225735
-0.134525287271
-0.134733546173
-0.135025316803
-0.135391324857
-0.135811706582
-0.136260582169
-0.136714454712
-0.137158184792
-0.137584140606
-0.137984969476
-0.138337136678
-0.138611527987
-0.138812531583
-0.138983220167
-0.13919661772
-0.139455661688
-0.139740910754
-0.140068777211
-0.140470397875
-0.140961752375
-0.141522960442
-0.142119957351
-0.14267059003
-0.143021023947
-0.143204019439
-0.143270460651
-0.143204661459
-0.143026060545
-0.142761647072
-0.142463025364
-0.142164072367
-0.141865307436
-0.141541902085
-0.14119472362
-0.140849054801
-0.140506924042
-0.140181699125
-0.139908097463
-0.13969787001
-0.139556948331
-0.139495622165
-0.129174334689
-0.129185711717
-0.129190148274
-0.129222681151
-0.129272860546
-0.12934839212
-0.12945902521
-0.129524736577
-0.129588631317
-0.129667794568
-0.129764450738
-0.129877283502
-0.130015738866
-0.130181077469
-0.130391096034
-0.130665194972
-0.131022051627
-0.131392666784
-0.131733888186
-0.132005959861
-0.132233182399
-0.132457408406
-0.132685365965
-0.132869965582
-0.133055448686
-0.13325749816
-0.133444169023
-0.133587811004
-0.133693290673
-0.133740106151
-0.133748398758
-0.133756721501
-0.133798735797
-0.133861336907
-0.133916760496
-0.133969552613
-0.134038832315
-0.134148482948
-0.134314978726
-0.134550343055
-0.134859918312
-0.135241806172
-0.135685666945
-0.136173149217
-0.136682086788
-0.137191916147
-0.13768680508
-0.138153430882
-0.138574661929
-0.13893647022
-0.139228038414
-0.139460003974
-0.139663288632
-0.139874605065
-0.140102958835
-0.140352495859
-0.140634871152
-0.141011934166
-0.141505857101
-0.14208183816
-0.142656570771
-0.143129209129
-0.14342225669
-0.143553064012
-0.14356899209
-0.143480343371
-0.143267633156
-0.142970645446
-0.142631757326
-0.142291661285
-0.141959000616
-0.141615373628
-0.14124946876
-0.14085062986
-0.140446640177
-0.140102451519
-0.139830115362
-0.139588120815
-0.139408743438
-0.139319184378
-0.129116761432
-0.129114602727
-0.129119999664
-0.129155545848
-0.129208200356
-0.129280116997
-0.129376939626
-0.129448725549
-0.129527288425
-0.129612094874
-0.129711122593
-0.129826223678
-0.129983860352
-0.130209086889
-0.130506933491
-0.130836537765
-0.131178185615
-0.131493217775
-0.131744073891
-0.131982261334
-0.132244085989
-0.132464686832
-0.13264761023
-0.132822145862
-0.133046094872
-0.13325261549
-0.133423933021
-0.133558061565
-0.133647974915
-0.133681287377
-0.133673463949
-0.133661032529
-0.133678244048
-0.133723880002
-0.133788899109
-0.133875788154
-0.13399291455
-0.13415322263
-0.134368513854
-0.134648691964
-0.134997990666
-0.135413128777
-0.135882386878
-0.136387056859
-0.13690472339
-0.137413665367
-0.137896084729
-0.13833722159
-0.138725288674
-0.139052332998
-0.139315779591
-0.139528240733
-0.1397208733
-0.139928422269
-0.14018355146
-0.140518669195
-0.140957131753
-0.141527365252
-0.142171443318
-0.142804256465
-0.143341715804
-0.143697110746
-0.143862141438
-0.143923080181
-0.143873963584
-0.143786663647
-0.143593369755
-0.143286540991
-0.142901662718
-0.142500892361
-0.142119287503
-0.141732504062
-0.141289431064
-0.140793295069
-0.140336889743
-0.139962364039
-0.139635095732
-0.139297074078
-0.139080840678
-0.138988120912
-0.129001358068
-0.12900051633
-0.129020179443
-0.129052274838
-0.129111202221
-0.129198478642
-0.129275705006
-0.12935768513
-0.129444265986
-0.129541019319
-0.129641243927
-0.129778585226
-0.130007274001
-0.130298989478
-0.130618285817
-0.130936759024
-0.131228241785
-0.131465214646
-0.131704399241
-0.131989324042
-0.132216044378
-0.132396613622
-0.132567414569
-0.132758594058
-0.132966788574
-0.133178017401
-0.133343604697
-0.133479804767
-0.13357525846
-0.133605982888
-0.133592054601
-0.133577050976
-0.133588663125
-0.13362906652
-0.133697566207
-0.133799051907
-0.133941375158
-0.134135687144
-0.134393276553
-0.134722994745
-0.13512737831
-0.135600591144
-0.136127899084
-0.136687177308
-0.137252114789
-0.137796311159
-0.138297183585
-0.138737585971
-0.139107841683
-0.139406538146
-0.139639779574
-0.139820796945
-0.139975729497
-0.140147930105
-0.14039824422
-0.1407877724
-0.141374308294
-0.142062117272
-0.142729047025
-0.143296760718
-0.143664406138
-0.143812064015
-0.143928752263
-0.144082096223
-0.144098169632
-0.144090126266
-0.14396738013
-0.143684550554
-0.143265996279
-0.14280123758
-0.1423538078
-0.141871615801
-0.141295833206
-0.140705107108
-0.140177626029
-0.139731992453
-0.13928634266
-0.138852703966
-0.13859581264
-0.138451924595
-0.128821361548
-0.128838030702
-0.128889633401
-0.128935105745
-0.128989129484
-0.129083641509
-0.129165732962
-0.129250116017
-0.129342011279
-0.129453825616
-0.129574205009
-0.129755336657
-0.130057882878
-0.130374524406
-0.130693396618
-0.130966018274
-0.131188361285
-0.131419540232
-0.131717772866
-0.131945014677
-0.132122013565
-0.132261105446
-0.132445304738
-0.132641501975
-0.132865189336
-0.133063850319
-0.133234895636
-0.13337832187
-0.133472655808
-0.133503013181
-0.133496885375
-0.133493271983
-0.133511874769
-0.133556387181
-0.133631251166
-0.133745453007
-0.133909873635
-0.134136701919
-0.134436995071
-0.13481778569
-0.135278605037
-0.13580938461
-0.136390002262
-0.136992248245
-0.137584373569
-0.138136691589
-0.138626138206
-0.139038863378
-0.139369786643
-0.13962234012
-0.139808107152
-0.139945249773
-0.140059761087
-0.140198913551
-0.140427858222
-0.140803155201
-0.14133709728
-0.141941731188
-0.142539590066
-0.143059652581
-0.143424410252
-0.143629145167
-0.143839289696
-0.144131113697
-0.144356688651
-0.144534367938
-0.144488798839
-0.144226238354
-0.143772525117
-0.143229397128
-0.142660980693
-0.142018756229
-0.141294097035
-0.140589787338
-0.139953589183
-0.13936825389
-0.138756571456
-0.138233219093
-0.137931127493
-0.137727933385
-0.128607988063
-0.128633105055
-0.128714624643
-0.128796850872
-0.128872057343
-0.128944794695
-0.12903961994
-0.129123003426
-0.129228882058
-0.129340396092
-0.129501682691
-0.129780466872
-0.130089552039
-0.130418359943
-0.1307029529
-0.130909326191
-0.131124810055
-0.131422329749
-0.131686615462
-0.131858647692
-0.1320188634
-0.1321681914
-0.132345616198
-0.132531304687
-0.132762918267
-0.132962462371
-0.133136048121
-0.133278111455
-0.13336375648
-0.133392335559
-0.133394603417
-0.133401101357
-0.133425946547
-0.13347468771
-0.1335559079
-0.133682443889
-0.13386844374
-0.134127715344
-0.134471224747
-0.134903950964
-0.13542150855
-0.136008073069
-0.136636553938
-0.13727189276
-0.13787732102
-0.138421517481
-0.138883396825
-0.139253520636
-0.139532343179
-0.139727965158
-0.139856714379
-0.139943401015
-0.140016510453
-0.140113388946
-0.140280912473
-0.140556390461
-0.140951235319
-0.141442979528
-0.141991414106
-0.142540714036
-0.14301830178
-0.143385340056
-0.143707605786
-0.144159564011
-0.144913269113
-0.145257114415
-0.145264237001
-0.144982200837
-0.144457286328
-0.143785090573
-0.143038559429
-0.142197417509
-0.141305753766
-0.140446483266
-0.139642954198
-0.138848599317
-0.138078966896
-0.137450968998
-0.1370983103
-0.13687057357
-0.128378268798
-0.128404562338
-0.128501405719
-0.128578718307
-0.128694361443
-0.128796050699
-0.128877973678
-0.128969065134
-0.129100150264
-0.129235686589
-0.12941482523
-0.129752153794
-0.130087245334
-0.130406979226
-0.130638517711
-0.130835582404
-0.131066550101
-0.131368843638
-0.131589332058
-0.131749246842
-0.1318942598
-0.132074455676
-0.132265787523
-0.132451978593
-0.132659365324
-0.132857590778
-0.133033459657
-0.133164478944
-0.133239359699
-0.133267241085
-0.133276839055
-0.133291462097
-0.133322291459
-0.133377080603
-0.133467921221
-0.133610925577
-0.133823015613
-0.134119317355
-0.134510066197
-0.134997039728
-0.135570295046
-0.136206712057
-0.136871432982
-0.137522878929
-0.138120641644
-0.138633903481
-0.139046639086
-0.139357698122
-0.139576223426
-0.13971601395
-0.13979450707
-0.139837825964
-0.139878559781
-0.139949402073
-0.140086052816
-0.140320184097
-0.140666649719
-0.141124624622
-0.141678137471
-0.142284290066
-0.142870451567
-0.143368851366
-0.143796326839
-0.144362080591
-0.145385584039
-0.146341296823
-0.146385637115
-0.146023432766
-0.145379220986
-0.144526029593
-0.143532973895
-0.142449839176
-0.141350195533
-0.140277536666
-0.139232951053
-0.138195903504
-0.13725758175
-0.136522622731
-0.136090132876
-0.135852455274
-0.128137653262
-0.128170668054
-0.128275238163
-0.128378200921
-0.128479373052
-0.128613511539
-0.128680002151
-0.128778269667
-0.128912545096
-0.129111690168
-0.129353849959
-0.129689868943
-0.130040679361
-0.130337945805
-0.130524040852
-0.130732155322
-0.131012673529
-0.131274079611
-0.131455949594
-0.131606005877
-0.131750364217
-0.131924426984
-0.132073423871
-0.132323510958
-0.132538364876
-0.132747254117
-0.132930195016
-0.133055082537
-0.133124949517
-0.133155713238
-0.13317209826
-0.133192437011
-0.133227214025
-0.133287015403
-0.133387489068
-0.133547932161
-0.133787564998
-0.134121978993
-0.134559333959
-0.135096643153
-0.135717126802
-0.136389894659
-0.137072933401
-0.137719788439
-0.138288989948
-0.138753627849
-0.139106194467
-0.139355754765
-0.13951948637
-0.139613984732
-0.139653320391
-0.139657539872
-0.139660642407
-0.139701474233
-0.139815065704
-0.140034966897
-0.140385823102
-0.140876468282
-0.141498265461
-0.142213615421
-0.142948894761
-0.143616647727
-0.144185695039
-0.144794420413
-0.145723061761
-0.146894883443
-0.147691867538
-0.147536433895
-0.146623717239
-0.145489730197
-0.144183569309
-0.142810082045
-0.141438237186
-0.140076602351
-0.138720372099
-0.137412620531
-0.136265535289
-0.135375180192
-0.134792188994
-0.134469663169
-0.127874121324
-0.127919632422
-0.128014014664
-0.128169645015
-0.128289957733
-0.12838313403
-0.128446068567
-0.128551135357
-0.128686424
-0.128924692988
-0.129242189469
-0.129582282693
-0.129945739041
-0.130222567988
-0.130404559632
-0.130601683655
-0.130906213605
-0.131144777435
-0.13130450492
-0.131437088199
-0.13161069104
-0.131755564787
-0.131848563505
-0.132145083221
-0.13240924241
-0.132651647283
-0.132847650753
-0.132974208544
-0.133044565172
-0.133077809697
-0.133095660263
-0.133114407719
-0.133146213181
-0.133205627409
-0.133312355011
-0.133488764773
-0.133755493552
-0.134127034446
-0.134607594311
-0.135187773008
-0.135843124653
-0.136535514834
-0.137217718007
-0.137841496984
-0.138368496802
-0.138779757788
-0.139078703119
-0.139282990452
-0.13941194384
-0.139478478495
-0.139490218612
-0.139459867411
-0.139419483396
-0.139419080257
-0.139507028549
-0.139723701084
-0.14009555845
-0.140632178616
-0.141324215208
-0.142136621233
-0.143004366609
-0.143845135401
-0.144608485185
-0.14534991431
-0.146210616044
-0.147275348107
-0.148482314968
-0.148902758731
-0.148366253342
-0.14677720064
-0.145052513749
-0.143310473392
-0.141580552766
-0.13983956571
-0.138106737637
-0.136462102485
-0.135007418066
-0.133845437102
-0.133003998447
-0.132507138377
-0.127579182416
-0.127628521743
-0.127688878301
-0.127863572126
-0.128056990731
-0.128129728321
-0.128188775144
-0.128302227665
-0.128451341017
-0.128695243369
-0.129070165815
-0.129428887515
-0.129798750031
-0.130053100028
-0.130267551768
-0.130487821854
-0.130778223225
-0.130992681748
-0.131141989329
-0.131271482428
-0.131439213392
-0.131593326614
-0.131721056436
-0.131993378113
-0.132292187397
-0.132573222764
-0.132785862758
-0.132918172293
-0.132989098109
-0.133019629014
-0.133030618071
-0.133039245149
-0.133061361402
-0.133116317138
-0.133227839327
-0.133420577299
-0.133714993926
-0.134122439404
-0.134641005848
-0.135253220487
-0.135926569277
-0.136617294729
-0.137277032561
-0.137861825738
-0.138342177417
-0.138711162741
-0.138982223325
-0.139175107072
-0.139299707779
-0.139355032012
-0.139340242353
-0.139267874548
-0.139174601411
-0.139120791685
-0.139172914853
-0.139384757523
-0.139779637161
-0.140354593566
-0.141084432451
-0.14193118155
-0.14283996391
-0.143750187367
-0.144627675951
-0.145512345287
-0.146510667743
-0.147687111398
-0.148928242936
-0.149929747311
-0.149799747846
-0.148552532086
-0.146236078606
-0.143988487614
-0.141791857486
-0.139565901157
-0.137360247343
-0.135267138422
-0.133368802121
-0.131795283872
-0.130657730443
-0.129954726537
-0.127246830973
-0.127289323765
-0.127305949644
-0.127499473466
-0.127686053161
-0.127794510499
-0.127889366554
-0.12802003214
-0.128201909607
-0.128446102581
-0.128862840157
-0.129238707688
-0.129608824177
-0.129841206295
-0.13008044246
-0.130356532045
-0.130623013314
-0.130816476699
-0.130962817745
-0.131101488407
-0.131258469554
-0.131419157874
-0.131608355621
-0.131856095941
-0.132174334847
-0.132492831775
-0.132723731203
-0.13286208535
-0.132930988205
-0.132953512458
-0.132951731635
-0.132945755279
-0.132956112546
-0.133006876382
-0.133125054351
-0.133336268754
-0.133659099755
-0.134099629502
-0.134647565868
-0.135275346614
-0.135941930689
-0.136601033865
-0.137211006812
-0.137742954543
-0.138186345138
-0.138548748519
-0.138846985573
-0.139088011137
-0.139253520166
-0.13931557606
-0.139266502767
-0.139132237163
-0.138970145582
-0.138858515085
-0.138876378616
-0.13908037192
-0.13949475245
-0.140096353001
-0.140826837448
-0.141631094499
-0.142459114411
-0.143272378092
-0.144066996266
-0.14490380268
-0.145913644349
-0.147214666987
-0.148727388992
-0.150172960977
-0.150882184788
-0.150153677354
-0.147940671737
-0.14497448737
-0.142086309412
-0.139255547758
-0.13646269394
-0.133776121116
-0.131245803563
-0.129122172418
-0.127621415937
-0.126707488759
-0.126887786066
-0.126935509041
-0.126994661529
-0.127118366312
-0.127286844091
-0.127402261751
-0.127546248669
-0.127707261608
-0.127927801347
-0.128184045729
-0.128629823209
-0.12901848806
-0.129389719355
-0.129611115143
-0.129836771926
-0.130167283941
-0.130433651435
-0.130615326806
-0.130762587477
-0.130901081046
-0.131050514677
-0.13121794882
-0.131447235356
-0.131694428212
-0.132036688217
-0.132391196619
-0.132639647699
-0.132782891463
-0.132848044123
-0.132860547148
-0.132844866716
-0.132824832033
-0.132825558791
-0.1328751463
-0.133002891337
-0.133234298155
-0.13358458954
-0.134052560887
-0.13461651727
-0.135235501153
-0.135858559912
-0.136441254501
-0.136961883925
-0.137428057668
-0.13786637014
-0.138299602971
-0.138724463026
-0.139105405025
-0.139365641048
-0.139439720253
-0.13932943779
-0.13909995277
-0.138849762698
-0.138682463739
-0.138681441986
-0.138890074252
-0.139311372862
-0.139902539816
-0.140580924858
-0.141255106426
-0.141867319458
-0.142398098055
-0.142872024611
-0.14337732895
-0.144075289168
-0.145160346712
-0.146711910947
-0.148527197043
-0.150268225843
-0.150921270892
-0.149356908644
-0.146480463396
-0.142745326893
-0.138965425227
-0.135477162016
-0.131991969734
-0.128599810854
-0.125717312935
-0.123644778014
-0.122342775682
-0.126495032438
-0.126543745822
-0.12666012742
-0.126752058316
-0.126870704133
-0.126964984033
-0.127151806986
-0.127360824481
-0.127638814606
-0.127916795862
-0.128372730413
-0.128772298264
-0.129146721923
-0.129371264287
-0.129600411208
-0.129955153749
-0.130221425175
-0.13039903044
-0.130544197305
-0.130672636046
-0.130815305092
-0.131025361397
-0.131257316727
-0.131516109872
-0.131881017584
-0.132261752728
-0.132523475464
-0.132670474261
-0.132732184116
-0.132736007563
-0.13270889802
-0.132678179716
-0.132672892417
-0.132724352518
-0.132863504614
-0.13311504942
-0.133489750598
-0.133976621266
-0.134538196372
-0.135114397328
-0.135640673273
-0.13607898209
-0.136447930734
-0.136829955384
-0.137329282423
-0.137985152983
-0.13870082608
-0.139337893191
-0.139723756199
-0.139768767672
-0.139540066247
-0.139178037127
-0.138832260728
-0.13862922881
-0.138643342778
-0.138882815547
-0.139300163677
-0.139819638671
-0.140346642776
-0.140770083978
-0.141013918197
-0.141063798188
-0.140966864984
-0.140832277664
-0.140835889286
-0.141208395241
-0.142183868782
-0.143845094216
-0.145847665671
-0.147227510351
-0.148132603151
-0.14754385266
-0.143736703141
-0.139222397283
-0.134718086847
-0.130010843803
-0.125426638557
-0.121383001966
-0.118244069568
-0.116390561929
-0.126072053307
-0.126109881716
-0.126202992812
-0.126320369232
-0.126420960762
-0.126505795994
-0.12669387292
-0.126912296408
-0.127282949495
-0.127655229866
-0.128088649014
-0.12849815697
-0.128875972898
-0.129121496626
-0.129363581476
-0.129730071081
-0.129992253693
-0.130175521242
-0.130318865359
-0.130444677656
-0.130587250726
-0.130843251881
-0.13104621006
-0.13131515352
-0.13170172235
-0.132101926188
-0.132374164191
-0.132525271183
-0.132585733459
-0.132584190559
-0.132549552656
-0.132511969137
-0.132503657579
-0.132558650603
-0.132709322351
-0.132979342508
-0.133373825768
-0.133868682861
-0.134404121288
-0.134891806428
-0.135246151614
-0.135436631743
-0.135542982684
-0.135788492127
-0.136455969117
-0.137632312478
-0.138878436637
-0.139857888938
-0.140314576781
-0.140227368842
-0.139824769115
-0.139326403863
-0.138915368582
-0.138725917529
-0.138803030912
-0.139099277776
-0.139500926564
-0.139877028594
-0.140116729375
-0.140121035218
-0.139816646745
-0.139190750193
-0.138297511366
-0.137251717921
-0.136217512282
-0.135398967144
-0.135031878072
-0.13533902269
-0.136340421928
-0.137670462358
-0.13910022053
-0.139740661304
-0.140205656006
-0.13916110702
-0.135008031366
-0.128286071024
-0.121750685566
-0.115566629644
-0.11072354239
-0.107983469631
-0.125637178619
-0.125664509376
-0.125751356556
-0.125873127587
-0.125961992042
-0.12605648347
-0.126215519851
-0.12642520869
-0.126815006257
-0.127293595185
-0.127753549805
-0.12818154643
-0.128559604241
-0.128856399359
-0.129120647251
-0.129489707151
-0.129744419592
-0.129946113059
-0.130095942696
-0.13022239544
-0.130371067875
-0.130632881315
-0.130806506471
-0.131076332584
-0.131481649687
-0.131906510841
-0.13219332708
-0.132351842062
-0.132414863811
-0.132412074858
-0.132373835316
-0.13233246993
-0.132322866149
-0.13238163503
-0.132542790728
-0.13282896804
-0.133238275048
-0.133729269959
-0.134210816163
-0.134553331816
-0.134636268267
-0.134423371167
-0.134069956565
-0.134060136048
-0.135085597293
-0.137164174709
-0.139041396882
-0.140257800659
-0.140801679864
-0.140617499528
-0.140077170998
-0.139499848423
-0.139093016174
-0.138979928759
-0.139155046952
-0.139500139598
-0.139832390204
-0.139964726455
-0.139763362799
-0.139153011375
-0.138092005487
-0.136590366664
-0.134711708819
-0.132555129256
-0.130249523768
-0.127921748588
-0.125687078645
-0.123658549279
-0.12197213709
-0.120752917078
-0.120227431211
-0.120687515385
-0.122995150822
-0.125697136544
-0.126355981442
-0.125102434583
-0.11878582315
-0.108206631103
-0.100281000532
-0.0964483614551
-0.125203455262
-0.125219026394
-0.125283959559
-0.12539574026
-0.125499533744
-0.1256046961
-0.125749517939
-0.125947175976
-0.126339212973
-0.126887828205
-0.127372748712
-0.127814233563
-0.128174249236
-0.128534055639
-0.12885995078
-0.129222022689
-0.129469818684
-0.129700833982
-0.129863923097
-0.129998881756
-0.130149016233
-0.130395069594
-0.13054163894
-0.130799163838
-0.131215770208
-0.131670284505
-0.131982073184
-0.132154468218
-0.132225039451
-0.132225438068
-0.132187179731
-0.132144369831
-0.13213433245
-0.132196428953
-0.132366812044
-0.132667314007
-0.133087964986
-0.133565701729
-0.133969169435
-0.134117164462
-0.133842234896
-0.133093699945
-0.132187904449
-0.132140973789
-0.13410754089
-0.136856267483
-0.138777510215
-0.140175368789
-0.140909012897
-0.14081634108
-0.140263470103
-0.139699355069
-0.139366971978
-0.139368779549
-0.139632192569
-0.139960300537
-0.140107914542
-0.139848869611
-0.139033544475
-0.137613436981
-0.135600243912
-0.133036735429
-0.13001276092
-0.126626692354
-0.122947043007
-0.119013475886
-0.114787220957
-0.110163933275
-0.105060638282
-0.0995868246851
-0.0943362767702
-0.0906040483722
-0.0905077701458
-0.0945652489747
-0.0999460198089
-0.102781522531
-0.101509699625
-0.0972455979179
-0.0867480219868
-0.0815152179845
-0.124772093675
-0.124780800088
-0.124822362963
-0.124910512194
-0.125038358966
-0.125144861628
-0.125281341029
-0.125490088416
-0.125850724816
-0.126450697502
-0.126955682262
-0.127406350738
-0.127756187229
-0.12811679011
-0.128531113718
-0.128912774282
-0.12916490191
-0.129427119796
-0.129610442935
-0.129761338231
-0.129928098299
-0.130154824872
-0.130264710515
-0.130492745976
-0.130905568983
-0.131390781446
-0.131738931007
-0.131934676852
-0.132019142483
-0.132027395794
-0.131992690274
-0.131950639839
-0.131940982637
-0.132006188251
-0.132185216912
-0.132499678381
-0.132931151079
-0.133391957229
-0.133706242602
-0.133642650885
-0.133001057179
-0.131790987299
-0.130745921884
-0.13156705485
-0.134871437564
-0.137451102284
-0.138624924091
-0.140111008982
-0.141153666566
-0.141096139977
-0.140535593348
-0.139977868051
-0.139725595616
-0.139822305422
-0.140100896467
-0.140281254081
-0.140067330556
-0.139221126531
-0.137604359743
-0.135200254981
-0.132086692242
-0.128361923472
-0.124125471605
-0.119488311351
-0.114492089974
-0.109067885779
-0.103057573856
-0.0961733480743
-0.0881072005306
-0.0787762970232
-0.0687187036116
-0.0594077032601
-0.0530975455193
-0.0514476186775
-0.0539868534517
-0.0581950685206
-0.0611982102985
-0.0610460830856
-0.0605325636716
-0.0584037096278
-0.124331889964
-0.124329599387
-0.124365923639
-0.124438196573
-0.124588729709
-0.124680209962
-0.124795070356
-0.125035915919
-0.125368452857
-0.125986820981
-0.126504782498
-0.126967152761
-0.127311997926
-0.127672899516
-0.128154261399
-0.128566246202
-0.12883768806
-0.12910934884
-0.129325972561
-0.12950065065
-0.12969989317
-0.129908154043
-0.129980678993
-0.130167480464
-0.130556927332
-0.131066365861
-0.131459440925
-0.131689635114
-0.131796202332
-0.131818278319
-0.131791162627
-0.131752745287
-0.131745172584
-0.131814424204
-0.132003060299
-0.132333626456
-0.132779120006
-0.133225745128
-0.133452593503
-0.133200151115
-0.132305987485
-0.131028102776
-0.130588180861
-0.132671554074
-0.136563845809
-0.138752635946
-0.139302057123
-0.140931267607
-0.142415213084
-0.141930479605
-0.141047547227
-0.140364290557
-0.140121578627
-0.140231007454
-0.140401642399
-0.140270059787
-0.1395067919
-0.137887327257
-0.135320519059
-0.131841153681
-0.127586429005
-0.122725457638
-0.117385475568
-0.111652838429
-0.105567974003
-0.0990186188948
-0.0917185395176
-0.0832841300368
-0.0733099930846
-0.0616319616372
-0.0486884270901
-0.0357168146874
-0.024383514943
-0.0157606191203
-0.00944956806284
-0.00392314902951
0.000844222021867
-0.000383467460982
-0.0116856294909
-0.00248115041257
-0.123859022324
-0.123843356774
-0.123892285402
-0.123980123356
-0.124127507716
-0.124204802998
-0.124276380543
-0.124554611025
-0.124884696577
-0.125485939902
-0.126018280924
-0.126492682933
-0.126842429416
-0.12720809501
-0.127731631929
-0.128175568652
-0.128483818129
-0.12877331299
-0.129009502048
-0.129196648803
-0.129413634384
-0.129624165298
-0.129697407886
-0.129836374952
-0.130183040746
-0.130700164837
-0.131140366315
-0.13141444589
-0.131551876975
-0.131594875324
-0.131581370626
-0.131550837679
-0.131548730822
-0.131625022653
-0.13182673739
-0.132178223683
-0.132643755734
-0.133077915243
-0.133212487063
-0.132801996641
-0.131832591454
-0.130918394014
-0.131476230775
-0.134625449359
-0.138355563076
-0.140036382618
-0.140661503689
-0.144703384202
-0.14543243286
-0.143569727472
-0.141852222783
-0.140830480728
-0.140471652171
-0.140471175239
-0.140393675062
-0.139799209642
-0.138342302474
-0.135834094352
-0.132257978681
-0.127737607706
-0.122481873631
-0.11672412299
-0.110633005813
-0.104268395715
-0.0976035012018
-0.090507983764
-0.0826658625006
-0.0736492378466
-0.0630951700547
-0.0509156854054
-0.0375310008397
-0.0238557161359
-0.0108034383957
0.00151377494549
0.0142745290936
0.0291305032748
0.0456922877079
0.058749948717
0.0609774928904
0.0665672561326
-0.123320372685
-0.123282854665
-0.123366942107
-0.123512929683
-0.123627669611
-0.123694782913
-0.123723182091
-0.124005662218
-0.124357002426
-0.124925387318
-0.125483836473
-0.125977556783
-0.126341000526
-0.126711081083
-0.127258637278
-0.127727072757
-0.128089915336
-0.128409952609
-0.128655633011
-0.128847808652
-0.12906609248
-0.129295227935
-0.129426054287
-0.129513251626
-0.129800341785
-0.130301701013
-0.130782074047
-0.13110632543
-0.131281995581
-0.131352389106
-0.131359194404
-0.131343400946
-0.131352804085
-0.131441802994
-0.131663095305
-0.132043666408
-0.132536766375
-0.132952318529
-0.132963357628
-0.132417848852
-0.131631952597
-0.131425176929
-0.133193232196
-0.136824321961
-0.1402110666
-0.141857847315
-0.143993019259
-0.150479881562
-0.149005991133
-0.145413119938
-0.142703629998
-0.141231556517
-0.14064261432
-0.140401985172
-0.139939032163
-0.138756586543
-0.136516271426
-0.133088393627
-0.128554229881
-0.123153305225
-0.117189980516
-0.110942279731
-0.10458570713
-0.0981272899514
-0.0914241615005
-0.084255209611
-0.0763457681776
-0.0673512706587
-0.0570243773836
-0.045423662769
-0.0329894656368
-0.020333507995
-0.00772960415148
0.00536933587216
0.020223663742
0.0377919088927
0.0582231026835
0.0820331876813
0.109999600396
0.138391094857
-0.122668228974
-0.122620680934
-0.122709067246
-0.122940671435
-0.123020468584
-0.123102605782
-0.123090834337
-0.123352549557
-0.123730619232
-0.124287797476
-0.124892608386
-0.125409023186
-0.125798984416
-0.126173633886
-0.126726247642
-0.127206794031
-0.127627051694
-0.128004677584
-0.128263833805
-0.128466606745
-0.128709304614
-0.12902160785
-0.129180166473
-0.129206163929
-0.129423299882
-0.129882686305
-0.130388199738
-0.130764189678
-0.13098549126
-0.131089236053
-0.131121273365
-0.131127020247
-0.131156440376
-0.13126834499
-0.131519902271
-0.131943498267
-0.13248185029
-0.132891697387
-0.132793453791
-0.132241988784
-0.131896704335
-0.132721793873
-0.135720096785
-0.139315077367
-0.142334452157
-0.144616908146
-0.151221659302
-0.156123908932
-0.152054550702
-0.146802567407
-0.143244827385
-0.141345651171
-0.140463731572
-0.139879709007
-0.138927688624
-0.137088835562
-0.134061470185
-0.129794636498
-0.124470032248
-0.118428036794
-0.112049798124
-0.105632338795
-0.0993058352509
-0.0929965836508
-0.0864462134156
-0.0793221093701
-0.071341252003
-0.0623274236932
-0.0522221581091