/*--------------------------------*- C++ -*----------------------------------*\
| =========                 |                                                 |
| \\      /  F ield         | OpenFOAM: The Open Source CFD Toolbox           |
|  \\    /   O peration     | Version:  v1806                                 |
|   \\  /    A nd           | Web:      www.OpenFOAM.com                      |
|    \\/     M anipulation  |                                                 |
\*---------------------------------------------------------------------------*/
FoamFile
{
    version     2.0;
    format      ascii;
    class       surfaceScalarField;
    location    "25";
    object      phi;
}
// * * * * * * * * * * * * * * * * * * * * * * * * * * * * * * * * * * * * * //

dimensions      [0 3 -1 0 0 0 0];
oriented        oriented;


internalField   nonuniform List<scalar> 
12640
(
-2.09106569048e-07
2.11327991475e-07
-4.29236575334e-07
2.1962482115e-07
-6.54861393963e-07
2.24701286753e-07
-8.74044394477e-07
2.17401619437e-07
-1.0139885164e-06
1.39533091229e-07
-1.00710503559e-06
-5.24248774374e-09
-9.13357132839e-07
-9.22245310179e-08
-9.17852156974e-07
5.61164776703e-09
-1.05280512251e-06
1.35335913642e-07
-1.17176951056e-06
1.1862344216e-07
-1.3089712345e-06
1.35825628247e-07
-1.61970362864e-06
3.0848128184e-07
-1.96907270641e-06
3.46220540912e-07
-2.15815355736e-06
1.86906027222e-07
-2.21247387869e-06
5.38436986022e-08
-2.43635617181e-06
2.25189533798e-07
-2.81577477063e-06
3.82164426346e-07
-3.04710798795e-06
2.35441510204e-07
-2.98000385673e-06
-6.3600599177e-08
-2.65369838788e-06
-3.24483948072e-07
-2.31197094037e-06
-3.40908812838e-07
-2.01801775635e-06
-2.91393966929e-07
-1.75556454011e-06
-2.6162273625e-07
-1.62852228064e-06
-1.27571298368e-07
-1.58181947339e-06
-4.71413022117e-08
-1.45774649046e-06
-1.276636539e-07
-1.47677706802e-06
9.18982939896e-09
-1.6139843593e-06
1.26673106744e-07
-1.62017406803e-06
-5.10462567202e-09
-1.4820441106e-06
-1.49861924256e-07
-1.65253353193e-06
1.59123030976e-07
-2.31366822353e-06
6.45218094779e-07
-2.58010387818e-06
2.45980976426e-07
-1.84535227433e-06
-7.55902184921e-07
6.49982148794e-08
-1.91992722745e-06
2.27609052099e-06
-2.21709855869e-06
4.48240815939e-06
-2.207862851e-06
6.5671312639e-06
-2.08610235434e-06
8.46689578114e-06
-1.89959967063e-06
1.01289167658e-05
-1.66278902093e-06
1.15106886748e-05
-1.38172804072e-06
1.25690669009e-05
-1.05939132824e-06
1.32734539859e-05
-7.04579163234e-07
1.36117894321e-05
-3.39642423583e-07
1.3625810753e-05
-1.39604687593e-08
1.33416668647e-05
2.83014743566e-07
1.27374042974e-05
6.0409972509e-07
1.17752820171e-05
9.63091788543e-07
1.042801067e-05
1.34866246838e-06
8.65481654104e-06
1.77497791606e-06
6.2623588911e-06
2.40217877064e-06
3.67975806213e-06
2.58715248092e-06
1.83903648751e-06
1.84772700004e-06
3.1677575469e-07
1.5332848181e-06
-6.41094086288e-07
9.63498709675e-07
-6.7351313474e-07
3.43700912736e-08
8.28159546279e-08
-7.5650708864e-07
1.31658942438e-06
-1.23369523373e-06
2.49422494899e-06
-1.17461278566e-06
4.15942366511e-06
-1.66066863906e-06
6.32842414222e-06
-2.16497681015e-06
7.73746348416e-06
-1.40346308819e-06
7.90573495924e-06
-1.63484342652e-07
8.01715054005e-06
-1.08778140933e-07
8.27842776752e-06
-2.60506170747e-07
8.53528020518e-06
-2.56423949872e-07
8.71112699573e-06
-1.75412097688e-07
8.84399701469e-06
-1.32081212395e-07
8.90421568007e-06
-5.8882245167e-08
8.82780460824e-06
7.83540510517e-08
8.5797973459e-06
2.50187850563e-07
8.13882985898e-06
4.43084373332e-07
7.49630411073e-06
6.44714345895e-07
6.54466287275e-06
9.54062316999e-07
5.5420660923e-06
1.00504733574e-06
4.52499722615e-06
1.01946155831e-06
3.72268180275e-06
8.03880061183e-07
2.68979384184e-06
1.03496017108e-06
1.64695091398e-06
1.04929589701e-06
1.64869207214e-06
-8.82595333553e-08
2.97783088327e-07
-2.07440971613e-07
3.38043076547e-07
-3.25695631649e-07
3.41060360135e-07
-4.56470734429e-07
3.4698834899e-07
-7.18717979987e-07
4.01649441773e-07
-1.03738749846e-06
3.13847345088e-07
-1.27941900645e-06
1.51112608773e-07
-1.44757376644e-06
1.74364594996e-07
-1.61174511629e-06
2.98845904822e-07
-1.82963945807e-06
3.34551029309e-07
-2.07960273546e-06
3.83733255688e-07
-2.23604606483e-06
4.63014996193e-07
-2.33661329927e-06
4.46525381644e-07
-2.51208843979e-06
3.63370054394e-07
-2.74228523453e-06
2.87267865007e-07
-2.80800694432e-06
2.94627509365e-07
-2.56757915161e-06
1.46575025356e-07
-2.02350837398e-06
-3.06750820898e-07
-1.69109209902e-06
-3.95456381738e-07
-1.60615682328e-06
-4.0937188736e-07
-1.53161985574e-06
-4.15807759932e-07
-1.60005583006e-06
-2.2518690043e-07
-1.81847630491e-06
-4.43644681945e-08
-1.71817778264e-06
-2.28934331336e-07
-1.6056548916e-06
-1.65853140165e-07
-2.14489616276e-06
3.99681922491e-07
-2.91690584939e-06
7.66957795102e-07
-3.69164107945e-06
8.80793909675e-07
-4.97788539778e-06
1.25403677127e-06
-5.49920043882e-06
3.43100262208e-07
-4.10748338432e-06
-1.24696816606e-06
-1.13400403178e-06
-2.33280529967e-06
2.36654714614e-06
-3.25542519787e-06
5.68043057676e-06
-4.07408601568e-06
8.45998358456e-06
-4.70233296736e-06
1.1180479862e-05
-4.94151898853e-06
1.39012376499e-05
-4.92987799581e-06
1.65800886059e-05
-4.76712994171e-06
1.91755347289e-05
-4.49500008497e-06
2.16456883489e-05
-4.13419926286e-06
2.3958038766e-05
-3.69345176756e-06
2.60786647569e-05
-3.18078226157e-06
2.79772059148e-05
-2.60210231159e-06
2.96037251058e-05
-1.96647260557e-06
3.08679635928e-05
-1.27674054142e-06
3.16992565735e-05
-5.47893841284e-07
3.21127669598e-05
1.92382026673e-07
3.21085724867e-05
9.67637540463e-07
3.16520648798e-05
1.80711758103e-06
3.07376158872e-05
2.68950696256e-06
2.95803143798e-05
3.55828361949e-06
2.80149571919e-05
4.15318322409e-06
2.55521878794e-05
4.31381155557e-06
2.29351848167e-05
4.15206823455e-06
2.05617809585e-05
3.33761833637e-06
1.92295268622e-05
1.36723384081e-06
2.00251751906e-05
-1.54967929085e-06
2.26742191999e-05
-3.87749807362e-06
2.5217025344e-05
-3.71047058885e-06
2.36384886433e-05
-7.21978155379e-08
1.69167126739e-05
4.56694976646e-06
1.06066843509e-05
4.91168649572e-06
8.35383248535e-06
2.09491993278e-06
7.99931002276e-06
2.4881387276e-07
8.05325796623e-06
-3.13619128016e-07
8.0708069335e-06
-2.73765848124e-07
8.30368127322e-06
-4.07660861885e-07
8.64028295821e-06
-4.67730758897e-07
8.83213714211e-06
-2.49193052161e-07
8.78995959786e-06
1.22379822288e-07
8.47190926517e-06
5.70346429183e-07
7.91880294912e-06
9.98259937763e-07
7.34361504869e-06
1.22211577674e-06
6.83907205661e-06
1.46103425926e-06
6.15824548886e-06
1.68852970748e-06
5.3820995256e-06
1.79799467681e-06
4.40376100854e-06
1.78558717589e-06
3.35471008847e-06
2.08717020132e-06
1.80094278977e-06
2.60505409396e-06
3.45614769437e-06
-1.28894483831e-07
4.29209649555e-07
-1.61887310078e-07
3.68908038951e-07
-3.82045140852e-07
5.59617001905e-07
-7.3273328228e-07
6.97133495566e-07
-1.02101104041e-06
6.90449820217e-07
-1.09886837821e-06
3.91924197394e-07
-1.1281643239e-06
1.7931995907e-07
-1.29442214004e-06
3.38411620368e-07
-1.56247182219e-06
5.6427255106e-07
-1.8313778567e-06
6.00950788988e-07
-2.06852970169e-06
6.2000985526e-07
-2.19536044882e-06
5.91555680132e-07
-2.2467844926e-06
5.01657241029e-07
-2.24047767395e-06
3.61055153969e-07
-2.05407527248e-06
1.04769307039e-07
-1.46592025009e-06
-2.90959575841e-07
-9.46347113294e-07
-3.73300409504e-07
-8.80692096452e-07
-3.72841351792e-07
-9.08197657485e-07
-3.68688422408e-07
-1.07174793059e-06
-2.48300212248e-07
-1.43900316986e-06
-5.25410475945e-08
-1.51789711992e-06
-1.49810728873e-07
-1.39605833594e-06
-1.68044905349e-07
-1.86669829896e-06
2.32709053911e-07
-2.7905349251e-06
7.43356174897e-07
-3.26168874982e-06
8.56012940442e-07
-4.26743883193e-06
1.74740081782e-06
-5.21501961792e-06
1.79837801678e-06
-4.17648895044e-06
1.93826729936e-07
-1.36189161229e-06
-2.47803564293e-06
1.6358849787e-06
-4.24322176006e-06
4.72904226697e-06
-5.42149198187e-06
7.80797078926e-06
-6.33193468521e-06
1.07747355234e-05
-7.0402796285e-06
1.35900191627e-05
-7.51915272778e-06
1.63742823064e-05
-7.7274888852e-06
1.91550417071e-05
-7.71273806084e-06
2.19115798442e-05
-7.52494711095e-06
2.46106045677e-05
-7.19535864077e-06
2.72180950301e-05
-6.74215457122e-06
2.97017299975e-05
-6.17764560419e-06
3.20323934545e-05
-5.51119972976e-06
3.41826576019e-05
-4.7522577551e-06
3.6126909401e-05
-3.90989405264e-06
3.78434902548e-05
-2.99254928154e-06
3.93052940871e-05
-2.00811869179e-06
4.04628773955e-05
-9.63754258235e-07
4.13108173821e-05
1.21500135025e-07
4.18502101367e-05
1.26812975999e-06
4.20562391468e-05
2.48291640131e-06
4.19126097685e-05
3.7009558187e-06
4.12737254191e-05
4.79120379529e-06
3.99919328404e-05
5.59439141202e-06
3.82888077706e-05
5.85374173905e-06
3.65989715626e-05
5.02690046164e-06
3.5966144705e-05
2.00079535345e-06
3.65376415469e-05
-2.11805770773e-06
3.48502479538e-05
-2.18640122821e-06
2.878581482e-05
2.35917403792e-06
2.11899545673e-05
7.52999132042e-06
1.56800486599e-05
1.00817118507e-05
1.14738706091e-05
9.12429557806e-06
8.2395481676e-06
5.33370855123e-06
7.08946513133e-06
1.39930950765e-06
7.21649101568e-06
-4.39518286051e-07
7.78659712752e-06
-8.43170643859e-07
8.20195359911e-06
-8.22167935971e-07
8.39562898974e-06
-6.60214725942e-07
8.44205445725e-06
-2.94104755977e-07
8.31949998035e-06
2.46714741997e-07
8.12179783728e-06
7.69929063645e-07
8.00327689097e-06
1.11887960674e-06
7.80566902901e-06
1.42210594615e-06
7.30491141544e-06
1.96456592322e-06
6.44542795614e-06
2.5510306324e-06
5.41360245721e-06
2.833260194e-06
4.38603232429e-06
2.8149913337e-06
3.43345667935e-06
3.04225481978e-06
1.57919068238e-06
4.46839173761e-06
5.03485572959e-06
-8.57352776791e-08
5.11272542103e-07
-7.14419336674e-08
3.54239124175e-07
-4.44581776024e-07
9.31285262728e-07
-6.75327325805e-07
9.28216727854e-07
-5.1547097693e-07
5.30868570423e-07
-2.98595472067e-07
1.74494463414e-07
-4.06470121505e-07
2.85740698063e-07
-8.86504456489e-07
8.14611465515e-07
-1.4056838652e-06
1.07970898378e-06
-1.76244901484e-06
9.56589346328e-07
-2.01722587022e-06
8.76919350464e-07
-2.0549604146e-06
6.3426817765e-07
-1.82783233355e-06
2.7963247258e-07
-1.35861108133e-06
-1.04374292656e-07
-9.48205385866e-07
-3.04313964948e-07
-8.68116944921e-07
-3.72302825013e-07
-8.75825555307e-07
-3.66918230734e-07
-9.70884595331e-07
-2.79679480676e-07
-1.32167575483e-06
-2.19996865518e-08
-1.65868351429e-06
8.37797961231e-08
-1.71016700549e-06
-7.00743252574e-09
-1.98837984762e-06
1.23691133616e-07
-2.77831202118e-06
6.11858692085e-07
-3.60722656734e-06
1.04687203923e-06
-3.77974628568e-06
9.00305003124e-07
-5.28444334884e-06
2.32952805786e-06
-6.10035073788e-06
2.53220944909e-06
-3.92701681602e-06
-3.87473054247e-07
-4.98319765133e-07
-3.23716368936e-06
2.49548668215e-06
-5.47038126584e-06
5.35576562624e-06
-7.09965751597e-06
8.25221448837e-06
-8.3135964756e-06
1.11655635573e-05
-9.24194393541e-06
1.40578467899e-05
-9.93148364162e-06
1.69195780879e-05
-1.03812473102e-05
1.9777443406e-05
-1.05867766452e-05
2.26336110898e-05
-1.05703296413e-05
2.54670911043e-05
-1.03599429854e-05
2.82478952261e-05
-9.97716533431e-06
3.09429927699e-05
-9.43812449513e-06
3.35205039558e-05
-8.7554510704e-06
3.59502262341e-05
-7.94107535953e-06
3.82052564642e-05
-7.00691473273e-06
4.02617590395e-05
-5.96592950488e-06
4.21013298717e-05
-4.831194955e-06
4.37104105493e-05
-3.61611187869e-06
4.50812938044e-05
-2.33306902918e-06
4.61987800789e-05
-9.94664264114e-07
4.70696000961e-05
3.98189100502e-07
4.76786124173e-05
1.87368767174e-06
4.79584571502e-05
3.42036790078e-06
4.77787696437e-05
4.97021601823e-06
4.69512001235e-05
6.42099093317e-06
4.52151972378e-05
7.58901183225e-06
4.20441245151e-05
8.19777027715e-06
3.62948467649e-05
7.75217792884e-06
2.81224353191e-05
6.05746616035e-06
1.91316753671e-05
6.80770370913e-06
1.28087260224e-05
8.68462255837e-06
9.91619074772e-06
1.04240426988e-05
8.53829653656e-06
1.14627773113e-05
7.04703769661e-06
1.06179425096e-05
5.70065845233e-06
6.68165833245e-06
6.08458621569e-06
1.02192505551e-06
6.93009926118e-06
-1.28266858889e-06
7.38996651664e-06
-1.30106413242e-06
7.77212946164e-06
-1.20270407451e-06
8.11518818383e-06
-1.00180702052e-06
8.37771781663e-06
-5.55251896077e-07
8.54472129958e-06
8.12183116371e-08
8.60615517667e-06
7.10449209515e-07
8.42648422321e-06
1.30089470501e-06
7.765932329e-06
2.08528852826e-06
6.82058536936e-06
2.91271475378e-06
5.83588597883e-06
3.5386914949e-06
4.65449988084e-06
4.01726675665e-06
3.35777183138e-06
4.11547023078e-06
2.34913851525e-06
4.05424955031e-06
1.23892721123e-06
5.57771891083e-06
6.27862643182e-06
7.88895349427e-09
5.04850154913e-07
-8.04334067415e-08
4.40844477322e-07
-4.38870302915e-07
1.29087141569e-06
-4.42527015543e-07
9.33859933837e-07
-2.75542546057e-07
3.6366364506e-07
-3.183706192e-07
2.15965229561e-07
-6.44567532288e-07
6.0811401596e-07
-1.23033991517e-06
1.39639245497e-06
-1.52661354828e-06
1.37373545487e-06
-1.67466687543e-06
1.10587820593e-06
-1.62004057104e-06
8.26901715152e-07
-1.32976315481e-06
3.47796655985e-07
-9.90982583321e-07
-5.67539290976e-08
-8.86647967518e-07
-2.08012888183e-07
-9.24942710303e-07
-2.67581874369e-07
-1.02349338618e-06
-2.7555732534e-07
-1.22093178373e-06
-1.72058645777e-07
-1.64135338945e-06
1.36350055147e-07
-1.81298685259e-06
1.44388816847e-07
-1.69953552019e-06
-3.63417078946e-08
-1.97362212253e-06
2.61445281581e-07
-2.70867659401e-06
8.51896381467e-07
-3.40001342568e-06
1.29491601649e-06
-3.68149413613e-06
1.31367512473e-06
-4.93996901936e-06
2.13497446872e-06
-6.07671599937e-06
3.4336868212e-06
-3.7610673867e-06
2.06121140419e-07
-6.85965629797e-07
-3.46141118048e-06
2.24934815079e-06
-6.16894634329e-06
5.03441769766e-06
-8.25185637062e-06
7.81702782384e-06
-9.87881463267e-06
1.06554244839e-05
-1.11488215128e-05
1.354475769e-05
-1.21291439213e-05
1.64651389532e-05
-1.28508683082e-05
1.94051729306e-05
-1.3321419856e-05
2.23622869992e-05
-1.35445763438e-05
2.53238933081e-05
-1.35329753803e-05
2.82659239889e-05
-1.3302904384e-05
3.11574753041e-05
-1.28695818481e-05
3.3965239024e-05
-1.22464070488e-05
3.66557775689e-05
-1.1446322956e-05
3.91976332101e-05
-1.04828816455e-05
4.15622965152e-05
-9.37135513722e-06
4.37257773999e-05
-8.12889148699e-06
4.56696252808e-05
-6.77442050599e-06
4.73819639221e-05
-5.32753543906e-06
4.88566233697e-05
-3.80676682276e-06
5.00898603902e-05
-2.22685089459e-06
5.10851685023e-05
-5.9640697979e-07
5.18342131355e-05
1.1249698916e-06
5.22610608157e-05
2.99369629834e-06
5.22279722395e-05
5.00346468949e-06
5.14704502288e-05
7.17878542117e-06
4.94876355174e-05
9.57199401627e-06
4.54631659772e-05
1.22231514568e-05
3.75125962237e-05
1.57041339898e-05
2.70416021582e-05
1.65295977386e-05
1.785093378e-05
1.59986002626e-05
1.15280376567e-05
1.50067057648e-05
7.89076254882e-06
1.40610509833e-05
5.7930149477e-06
1.35601692379e-05
3.61005298991e-06
1.28032067553e-05
2.50984896434e-06
7.79513616678e-06
4.74900588223e-06
-1.20858568418e-06
6.6295695432e-06
-3.15772898819e-06
7.39224711674e-06
-2.059633111e-06
7.77112512192e-06
-1.57902727951e-06
8.08594304647e-06
-1.31494148203e-06
8.40787036348e-06
-8.75667873111e-07
8.72789961879e-06
-2.3703865427e-07
8.80427631753e-06
6.36218916157e-07
8.29216083792e-06
1.81546677184e-06
7.42074335009e-06
2.95921833092e-06
6.48692073792e-06
3.84918325871e-06
5.41229890128e-06
4.61628919333e-06
4.16150755025e-06
5.27163937038e-06
3.15778163238e-06
5.12046030576e-06
2.13475659696e-06
5.0783867302e-06
9.61690331783e-07
6.75856843491e-06
7.23914333283e-06
1.78573731402e-09
5.00710831496e-07
-1.61692980807e-07
6.04906652158e-07
-3.07038346221e-07
1.43692074155e-06
-2.76476562893e-07
9.03832410011e-07
-2.19004114114e-07
3.05622633179e-07
-4.13633815529e-07
4.08356118356e-07
-1.03341078076e-06
1.22403901409e-06
-1.42857009204e-06
1.78740520169e-06
-1.44265436677e-06
1.38909037049e-06
-1.26722030558e-06
9.34045630424e-07
-9.65966573113e-07
5.28766225097e-07
-7.23545628449e-07
1.06889111905e-07
-7.11635827586e-07
-6.85277747215e-08
-7.91565606592e-07
-1.29485336923e-07
-9.19860262995e-07
-1.41253497845e-07
-1.17078582677e-06
-2.7839433506e-08
-1.63643275864e-06
2.8948972361e-07
-1.72846188755e-06
2.24213796512e-07
-1.53802946811e-06
-5.10723902266e-08
-1.85936494322e-06
2.79376024415e-07
-2.46378406368e-06
8.58563193952e-07
-2.97367386684e-06
1.35422980086e-06
-3.11256228912e-06
1.42684308774e-06
-3.37491330496e-06
1.56434828306e-06
-5.35651448692e-06
4.08196903935e-06
-4.12586818781e-06
2.18614851929e-06
-1.27271325182e-06
-2.64592854949e-06
1.45397818159e-06
-6.18282216522e-06
4.11996079032e-06
-8.83032347089e-06
6.80798191702e-06
-1.09365996229e-05
9.56545218819e-06
-1.26338190269e-05
1.24111340292e-05
-1.39925539443e-05
1.53388238139e-05
-1.50554372326e-05
1.83324886925e-05
-1.58438411779e-05
2.13765963006e-05
-1.63654377481e-05
2.44559728853e-05
-1.66243101371e-05
2.75496846149e-05
-1.66272207915e-05
3.06296118483e-05
-1.63834168616e-05
3.36626428202e-05
-1.59030740561e-05
3.66131458411e-05
-1.51972303341e-05
3.94452359976e-05
-1.42784989415e-05
4.21245812949e-05
-1.31621294852e-05
4.46202256376e-05
-1.18666930525e-05
4.69063476521e-05
-1.04145840973e-05
4.89642402841e-05
-8.83178176168e-06
5.07837523112e-05
-7.14647462219e-06
5.23631994044e-05
-5.38554502676e-06
5.37059725079e-05
-3.56893953668e-06
5.48130134547e-05
-1.70288842416e-06
5.57082423861e-05
2.30164694969e-07
5.6339635247e-05
2.36290613426e-06
5.65737300704e-05
4.7702908711e-06
5.6159455317e-05
7.59409752297e-06
5.45832510193e-05
1.11491891827e-05
5.06443654016e-05
1.61625522514e-05
4.36706409294e-05
2.26776074196e-05
3.43738846463e-05
2.58252384974e-05
2.52229889492e-05
2.51474018703e-05
1.74760673194e-05
2.27512318998e-05
1.18075632341e-05
1.97268261793e-05
8.41009828972e-06
1.69556913258e-05
6.57926153603e-06
1.46409092613e-05
4.40241758281e-06
9.98116925815e-06
5.113376979e-06
-1.90063886669e-06
6.14713107661e-06
-4.18404679574e-06
7.0070131322e-06
-2.91541742627e-06
7.60820902437e-06
-2.17735366887e-06
8.15125065136e-06
-1.85596063948e-06
8.71850358902e-06
-1.4413700799e-06
9.12850887538e-06
-6.45412096666e-07
8.88542445049e-06
8.81342932508e-07
8.14766124686e-06
2.55544218272e-06
7.30372122959e-06
3.80556132496e-06
6.34769542776e-06
4.80783994346e-06
5.22812298171e-06
5.73875718856e-06
4.14409537582e-06
6.35761292122e-06
3.08522094851e-06
6.18260558132e-06
2.04511146321e-06
6.12233707859e-06
1.01561401156e-06
7.78599052578e-06
8.25961720384e-06
-5.62787408524e-08
5.56661631308e-07
-3.48058504891e-07
8.95728456011e-07
-4.39835929019e-07
1.53128768064e-06
-3.0243307252e-07
7.66957851367e-07
-3.15266588356e-07
3.17265785466e-07
-7.59115427172e-07
8.48429232319e-07
-1.26929215085e-06
1.72937201163e-06
-1.33701492745e-06
1.856802174e-06
-1.09861879735e-06
1.15228177885e-06
-9.51072655027e-07
7.90299499095e-07
-8.0228912177e-07
3.82239413484e-07
-7.06855867587e-07
1.1759872621e-08
-7.55336366052e-07
-2.10119511449e-08
-8.42508262972e-07
-4.46567999227e-08
-1.0378326248e-06
5.06623147165e-08
-1.49022205903e-06
4.21274059083e-07
-1.57257960424e-06
3.69025362512e-07
-1.36581653897e-06
1.4177073017e-08
-1.58519558751e-06
1.62677061822e-07
-2.1775863343e-06
8.62681634212e-07
-2.86338801109e-06
1.53828010148e-06
-2.89464017322e-06
1.3866450374e-06
-2.69340519534e-06
1.21058086815e-06
-4.64756831404e-06
3.48955021248e-06
-5.33143800909e-06
4.73623119281e-06
-2.33371961254e-06
-8.15143550358e-07
3.44495277639e-07
-5.31947146684e-06
2.86712737017e-06
-8.70026257486e-06
5.42565115952e-06
-1.13850357147e-05
8.07598948476e-06
-1.35844558891e-05
1.08411715059e-05
-1.53973498899e-05
1.3726267687e-05
-1.68764665909e-05
1.67226851577e-05
-1.80510476483e-05
1.98143855137e-05
-1.89350748219e-05
2.29823084056e-05
-1.95332134097e-05
2.6204641444e-05
-1.9846700833e-05
2.94546349347e-05
-1.98773909804e-05
3.27000295322e-05
-1.96289885282e-05
3.59041236306e-05
-1.91072966747e-05
3.90276085591e-05
-1.83207196104e-05
4.20304265973e-05
-1.72812057625e-05
4.48738621496e-05
-1.60053173082e-05
4.7522606473e-05
-1.45150905207e-05
4.9947371002e-05
-1.2838964516e-05
5.2128096443e-05
-1.10121195715e-05
5.40573157747e-05
-9.07536975897e-06
5.57418199949e-05
-7.06981234949e-06
5.72005402257e-05
-5.02758795377e-06
5.84591926056e-05
-2.96153899571e-06
5.9547213114e-05
-8.57686870753e-07
6.05084308047e-05
1.40220130211e-06
6.13091233422e-05
3.9705569759e-06
6.19135102474e-05
6.99089929589e-06
6.23557616609e-05
1.07080062699e-05
6.30426922004e-05
1.54761217313e-05
6.44947028107e-05
2.12252237362e-05
6.47450683752e-05
2.55736621646e-05
6.25657105084e-05
2.73250174547e-05
5.82697071106e-05
2.70450417579e-05
5.23673785127e-05
2.56262618455e-05
4.54293294823e-05
2.38914322853e-05
3.76085018192e-05
2.24591251529e-05
2.73533024466e-05
2.02424545017e-05
1.30863227559e-05
1.2379023511e-05
7.25125938416e-06
1.65453544338e-06
6.99383435823e-06
-2.65441924355e-06
7.77063704571e-06
-2.95119587528e-06
8.72344854613e-06
-2.80667544758e-06
9.47707974257e-06
-2.19342635078e-06
9.5920501176e-06
-7.58911840021e-07
9.04996950117e-06
1.42503557216e-06
8.31648245705e-06
3.29075864303e-06
7.45131760354e-06
4.6728020704e-06
6.42137735949e-06
5.84017537768e-06
5.29352596531e-06
6.86891922432e-06
4.36678111218e-06
7.28751624065e-06
3.17000023311e-06
7.38068333315e-06
1.98483283105e-06
7.30818306911e-06
1.10442711223e-06
8.67518554796e-06
9.36229588113e-06
-1.05513065607e-07
6.60747917728e-07
-4.88165727414e-07
1.27819529553e-06
-4.20686076032e-07
1.46291984331e-06
-1.92334773366e-07
5.3815274863e-07
-3.89992275909e-07
5.12865426152e-07
-9.53387508887e-07
1.40928406974e-06
-1.15804578643e-06
1.93369863657e-06
-1.13981824062e-06
1.83901673992e-06
-8.09401933947e-07
8.26003526262e-07
-7.39118058799e-07
7.21726099114e-07
-6.16397801365e-07
2.60166356125e-07
-7.16205704295e-07
1.10948022135e-07
-7.89084937679e-07
4.970195062e-08
-9.18942162536e-07
8.28523308505e-08
-1.23959738707e-06
3.68077204287e-07
-1.38753607903e-06
5.659663266e-07
-1.24769256589e-06
2.27088517132e-07
-1.41790370078e-06
1.8058618309e-07
-1.86163582459e-06
5.99097003219e-07
-2.33681475547e-06
1.33185525024e-06
-2.54328798029e-06
1.74411841408e-06
-2.53693041009e-06
1.36851285459e-06
-2.93524099394e-06
1.59851479758e-06
-5.3665289754e-06
5.87833341794e-06
-3.40757258342e-06
2.76240253724e-06
-9.15711501018e-07
-3.30478734505e-06
1.45531305691e-06
-7.6852854944e-06
3.84623760726e-06
-1.10868432343e-05
6.34327374965e-06
-1.38792167133e-05
8.98020300198e-06
-1.62196665445e-05
1.17693277693e-05
-1.81854365295e-05
1.47100028968e-05
-1.98164483292e-05
1.77919008324e-05
-2.11324526945e-05
2.09979873093e-05
-2.21408208087e-05
2.43065379121e-05
-2.28415555918e-05
2.76913924876e-05
-2.32314386847e-05
3.11211997674e-05
-2.33071340015e-05
3.45592598189e-05
-2.30669814749e-05
3.7964270342e-05
-2.25122075388e-05
4.1291712766e-05
-2.16480078715e-05
4.44955821094e-05
-2.04848599771e-05
4.753059811e-05
-1.9040063382e-05
5.03544756832e-05
-1.73387043835e-05
5.29314756161e-05
-1.54156762704e-05
5.52374968447e-05
-1.33179613512e-05
5.72671990256e-05
-1.11049837046e-05
5.90386351009e-05
-8.84135805291e-06
6.05920704213e-05
-6.58131394823e-06
6.1982478174e-05
-4.35236807886e-06
6.32681240625e-05
-2.14371797701e-06
6.45602023584e-05
1.10020984956e-07
6.5940429207e-05
2.59073316266e-06
6.747862889e-05
5.45354664638e-06
6.93453903652e-05
8.84210158782e-06
7.18888938652e-05
1.2933179049e-05
7.5396262661e-05
1.77180493656e-05
7.87851542127e-05
2.21847308359e-05
8.07728245221e-05
2.53372759143e-05
8.0648451868e-05
2.71692407906e-05
7.80319612327e-05
2.82423506515e-05
7.27168463908e-05
2.92046268857e-05
6.45300841178e-05
3.0643716694e-05
5.19427401622e-05
3.28294880038e-05
2.95388450427e-05
3.47820600376e-05
1.08660511353e-05
2.03308787918e-05
6.85258502659e-06
1.36267934711e-06
7.62886853925e-06
-3.72410976016e-06
9.03480117508e-06
-4.20954724471e-06
1.00104639713e-05
-3.16732741286e-06
1.0042205813e-05
-7.89433105141e-07
9.52017749474e-06
1.94818858904e-06
8.76136292199e-06
4.05101501284e-06
7.78213383519e-06
5.65390916428e-06
6.67098084438e-06
6.95330811062e-06
5.61138471625e-06
7.93091730185e-06
4.59209058356e-06
8.30842870018e-06
3.35947913289e-06
8.61678830344e-06
1.94568130593e-06
8.72664829573e-06
1.00262088749e-06
9.61511504213e-06
1.0370242178e-05
-1.4737618014e-07
8.05966407915e-07
-5.73440962356e-07
1.70423183452e-06
-3.4650374984e-07
1.23665762954e-06
-3.06420359504e-07
4.975668062e-07
-7.0111440759e-07
9.06800937974e-07
-9.22716456834e-07
1.62765884012e-06
-1.05903100974e-06
2.0723785714e-06
-9.43046664075e-07
1.72636603841e-06
-8.27427831613e-07
7.11384141235e-07
-7.89831240584e-07
6.85629429214e-07
-7.21737953523e-07
1.91603022971e-07
-7.7932512656e-07
1.67197816808e-07
-8.66218978293e-07
1.34425005942e-07
-1.05712826542e-06
2.69976735932e-07
-1.47818279265e-06
7.86829055784e-07
-1.48494774305e-06
5.71170904164e-07
-1.39439969256e-06
1.34763701842e-07
-1.56451453732e-06
3.45323088691e-07
-1.99577204014e-06
1.02336725308e-06
-2.27806987567e-06
1.61237040923e-06
-2.30008821946e-06
1.76630177775e-06
-2.18580128042e-06
1.25415466994e-06
-2.75910681824e-06
2.14534010727e-06
-4.53845492995e-06
7.63968520492e-06
-2.15970770635e-06
3.80126904559e-07
4.47069522876e-08
-5.50552255663e-06
2.2288529237e-06
-9.86510654893e-06
4.5215054326e-06
-1.33763888179e-05
6.97286654153e-06
-1.6328670858e-05
9.60477573322e-06
-1.88505001781e-05
1.2424301587e-05
-2.10043394616e-05
1.5428316169e-05
-2.28200631151e-05
1.86055640446e-05
-2.43093978051e-05
2.19381291812e-05
-2.54731391268e-05
2.54023315282e-05
-2.63055445086e-05
2.89687878725e-05
-2.67977137728e-05
3.26021079515e-05
-2.69402753262e-05
3.626084608e-05
-2.67255551611e-05
3.98981433838e-05
-2.61493332488e-05
4.34627312839e-05
-2.5212423023e-05
4.69005019964e-05
-2.39224652578e-05
5.01569315785e-05
-2.22963731416e-05
5.31790218675e-05
-2.03606563191e-05
5.59193536186e-05
-1.81559958887e-05
5.83444459711e-05
-1.57430919504e-05
6.0448183424e-05
-1.32089652784e-05
6.22622904961e-05
-1.06559341931e-05
6.38551373102e-05
-8.17492892838e-06
6.53206115405e-05
-5.8188274444e-06
6.67631250293e-05
-3.58730180088e-06
6.82957987784e-05
-1.4234532005e-06
7.00863186151e-05
7.99814263411e-07
7.22486445045e-05
3.29123596637e-06
7.48978372503e-05
6.19327994086e-06
7.81983763587e-05
9.63315348671e-06
8.22824833265e-05
1.36345430788e-05
8.66693035139e-05
1.77987294788e-05
9.04039269439e-05
2.16036589754e-05
9.26159855403e-05
2.49583598691e-05
9.26821448061e-05
2.81768830852e-05
9.01593454071e-05
3.17264950532e-05
8.46784322485e-05
3.61219410706e-05
7.56681717558e-05
4.18360632399e-05
6.07476221341e-05
4.97013594416e-05
3.292638296e-05
4.81534574256e-05
9.63373625277e-06
2.46584389508e-05
7.19822550526e-06
-1.28450747997e-06
9.61675201063e-06
-6.62517920876e-06
1.10922233794e-05
-4.64042419871e-06
1.10466292982e-05
-7.42662417606e-07
1.04138498845e-05
2.58195376759e-06
9.44851298693e-06
5.01755466919e-06
8.24765749646e-06
6.85620312552e-06
7.00010194256e-06
8.20262476345e-06
5.89446798716e-06
9.03838434997e-06
4.7009120927e-06
9.50515874023e-06
3.41691560987e-06
9.90221420264e-06
1.92286785159e-06
1.02211804348e-05
8.22853709613e-07
1.07244860544e-05
1.11907552774e-05
-2.24986441962e-07
1.03007620064e-06
-6.28074451903e-07
2.10331450262e-06
-3.54898560936e-07
9.63201906017e-07
-3.99425759702e-07
5.42016231271e-07
-7.90381224639e-07
1.29618511689e-06
-6.37138118869e-07
1.47797044736e-06
-9.2410195542e-07
2.35833334213e-06
-6.53445570001e-07
1.45791115589e-06
-6.96101997467e-07
7.54342128688e-07
-6.29209015599e-07
6.18384325675e-07
-7.21764365397e-07
2.83361813765e-07
-8.15774953057e-07
2.58961754534e-07
-9.2346343573e-07
2.39802852491e-07
-1.1558999289e-06
5.00612470651e-07
-1.32572356841e-06
9.53265834642e-07
-1.16355435451e-06
4.08181320674e-07
-1.32363544964e-06
2.91520744325e-07
-1.55661655568e-06
5.73649776842e-07
-1.92455743661e-06
1.38939025441e-06
-2.24524601889e-06
1.93455574022e-06
-1.98708390903e-06
1.50535093599e-06
-1.9174707099e-06
1.17972735329e-06
-3.31992185598e-06
3.5411967893e-06
-3.10875143744e-06
7.40084979081e-06
-1.21797880295e-06
-1.51125387713e-06
7.18742855509e-07
-7.4380401806e-06
2.7587522577e-06
-1.19015473407e-05
4.9666942064e-06
-1.55820617977e-05
7.37593463986e-06
-1.87366704264e-05
1.00030273296e-05
-2.14769547413e-05
1.28532648227e-05
-2.38542655486e-05
1.5923113139e-05
-2.58897276721e-05
1.92013389202e-05
-2.75874868657e-05
2.26697450538e-05
-2.89414101296e-05
2.63034036372e-05
-2.99390791438e-05
3.00704860376e-05
-3.05646730921e-05
3.39318797014e-05
-3.08015828897e-05
3.78411630376e-05
-3.06347739009e-05
4.17449797904e-05
-3.00531265125e-05
4.5583519669e-05
-2.90510045945e-05
4.92918644757e-05
-2.76309047267e-05
5.28031313578e-05
-2.58077430157e-05
5.60481677398e-05
-2.36059188338e-05
5.8959925994e-05
-2.10679042296e-05
6.14853046143e-05
-1.82687584159e-05
6.36119900663e-05
-1.53359934178e-05
6.53884030698e-05
-1.2432935272e-05
6.69212128128e-05
-9.70860520955e-06
6.83550477866e-05
-7.25394288841e-06
6.98479746342e-05
-5.08173640712e-06
7.1549713169e-05
-3.12677141327e-06
7.36081282498e-05
-1.25991367096e-06
7.61761958379e-05
7.22373587019e-07
7.93425990553e-05
3.02657554497e-06
8.3158265155e-05
5.8175909744e-06
8.7602312964e-05
9.19104965931e-06
9.23815831412e-05
1.30203950902e-05
9.68775061811e-05
1.71090711015e-05
0.000100413067026
2.14242429833e-05
0.000102434382298
2.6156646771e-05
0.000102542605825
3.16181243443e-05
0.000100492352487
3.81699310839e-05
9.62578329345e-05
4.60667172956e-05
9.01892258852e-05
5.5766046088e-05
7.71257748099e-05
6.12156856803e-05
4.49799285472e-05
5.6807210384e-05
1.58567191944e-05
2.78437291885e-05
1.13000950494e-05
-2.06372400221e-06
1.2772676986e-05
-6.11080329157e-06
1.25842756489e-05
-5.52611404303e-07
1.16338917645e-05
3.53341786969e-06
1.0260178476e-05
6.39231332665e-06
8.76079934218e-06
8.35661430276e-06
7.32703777812e-06
9.6379029855e-06
6.0011772206e-06
1.03664502789e-05
4.64327691453e-06
1.08646590364e-05
3.29096559885e-06
1.12584271843e-05
1.93405526804e-06
1.15828567277e-05
7.92316781856e-07
1.18621705843e-05
1.19884056923e-05
-2.97443508235e-07
1.32460319425e-06
-5.15128011831e-07