/*--------------------------------*- C++ -*----------------------------------*\
| =========                 |                                                 |
| \\      /  F ield         | OpenFOAM: The Open Source CFD Toolbox           |
|  \\    /   O peration     | Version:  v1806                                 |
|   \\  /    A nd           | Web:      www.OpenFOAM.com                      |
|    \\/     M anipulation  |                                                 |
\*---------------------------------------------------------------------------*/
FoamFile
{
    version     2.0;
    format      ascii;
    class       volVectorField;
    location    "25";
    object      Ua;
}
// * * * * * * * * * * * * * * * * * * * * * * * * * * * * * * * * * * * * * //

dimensions      [0 1 -1 0 0 0 0];


internalField   nonuniform List<vector> 
6400
(
(0.000297558152463 0.000444034236103 0)
(0.000894898935297 0.000411345288518 0)
(0.00133995699742 0.000406894196634 0)
(0.00204441037325 0.000463522166091 0)
(0.00257682082283 0.000307146000468 0)
(0.00292202963355 3.42369069969e-05 0)
(0.00257296890415 -0.000101369498179 0)
(0.00222445028437 1.27649668128e-05 0)
(0.00255546654374 0.00017361975115 0)
(0.00340556645119 0.000219291299338 0)
(0.00289686696749 0.000160086725779 0)
(0.00388165380294 0.000407006097412 0)
(0.00484137476088 0.000615985188088 0)
(0.00615118931626 0.000547742986502 0)
(0.00603039312345 0.000279241042392 0)
(0.00607349267573 0.000566204628938 0)
(0.00737026366421 0.001161317581 0)
(0.00873057234923 0.00123475595067 0)
(0.00883976578346 0.000497689934864 0)
(0.00836388486019 -0.000245604656118 0)
(0.00762961689553 -0.000449110802624 0)
(0.00681283645197 -0.000507131612259 0)
(0.00606670807874 -0.000411313895698 0)
(0.00509605350329 -0.000160907107663 0)
(0.00516608061411 -0.000203166512758 0)
(0.00547787800674 -0.000429068099052 0)
(0.00601243027985 7.78827100197e-05 0)
(0.00718470391542 0.000413276667138 0)
(0.00742929948043 0.00165963780257 0)
(0.00724109712131 0.00334941927218 0)
(0.00738968793954 0.00388301837358 0)
(0.0124687968896 0.00892516403818 0)
(0.0246277726996 0.0276018176957 0)
(0.0396939925359 0.0662919525788 0)
(0.0530752665445 0.0743722220197 0)
(0.0756487447115 0.0546281914594 0)
(0.088344905847 0.0211351137471 0)
(0.0979346185316 -0.00922038845066 0)
(0.105238727863 -0.034312683105 0)
(0.111291212142 -0.0544289846319 0)
(0.11627661643 -0.0695713925867 0)
(0.120314377037 -0.0794224311206 0)
(0.123497506854 -0.0835422654084 0)
(0.125891384623 -0.0816170813861 0)
(0.127500036567 -0.0736699599805 0)
(0.128205731647 -0.0601302705138 0)
(0.127503325546 -0.0430451829927 0)
(0.123233128415 -0.0240609618737 0)
(0.116152097027 -0.00541769638912 0)
(0.104709410522 0.0079693512073 0)
(0.0861143670299 0.013686287542 0)
(0.0453357477722 0.0109034239992 0)
(0.0364621679156 0.00525107058346 0)
(0.028667230915 0.0024483041307 0)
(0.0165112515449 0.0032508385541 0)
(0.00786831860988 0.00222219875021 0)
(0.00620975751133 0.00184506799378 0)
(0.00615837753352 0.00152713401893 0)
(0.00664295712666 0.000909031180404 0)
(0.00569456678049 0.000204372401215 0)
(0.00493863614464 -0.000157532339598 0)
(0.00408306651514 -0.000646553697473 0)
(0.00285131548953 -0.0010156978777 0)
(0.000814470933255 -0.000678575067188 0)
(-0.000574400740618 -0.000356554520936 0)
(-0.00133305004598 -0.000213675350903 0)
(-0.00175873661145 -0.000113715475576 0)
(-0.00202591261588 -6.51924658092e-05 0)
(-0.00222299404447 -3.86687125393e-05 0)
(-0.00238585542477 -3.780247023e-06 0)
(-0.00255702652874 3.53688213303e-05 0)
(-0.00266953462472 8.83200441506e-05 0)
(-0.00266393112764 0.00015987023859 0)
(-0.00265136081272 0.000262317617722 0)
(-0.00226270477468 0.000224957688503 0)
(-0.002190437975 0.000220001673119 0)
(-0.00157051139395 0.000118035323845 0)
(-0.00172009426702 0.000222410723173 0)
(-0.000807059294064 0.000159132572911 0)
(-0.000621117939412 0.000260185604049 0)
(9.7257087821e-05 0.000552455770914 0)
(0.000427663231946 0.000683686520104 0)
(0.00076282832064 0.000702218322936 0)
(0.000938199316008 0.000546988910135 0)
(0.00148207475987 0.000546360304145 0)
(0.00233838855692 0.000401311843742 0)
(0.00320805162166 6.74487644707e-05 0)
(0.00369471569343 0.000226200552481 0)
(0.00411754788268 0.000625733714669 0)
(0.00472934116313 0.000621391659025 0)
(0.00531774218242 0.000730140969916 0)
(0.00595840284972 0.00116047262499 0)
(0.00640770993925 0.0012278317352 0)
(0.00659227929549 0.000855185910407 0)
(0.007349283136 0.000585436304364 0)
(0.00784823703723 0.000987325818335 0)
(0.00780437721933 0.000921315450855 0)
(0.00693701715233 -0.000604672765239 0)
(0.00460636155129 -0.0011196285565 0)
(0.0049519633408 -0.00158210355411 0)
(0.00491322934655 -0.00173452603915 0)
(0.00475648916739 -0.00139088600179 0)
(0.00514468911532 -0.00133577131449 0)
(0.00671952667301 -0.00189644025691 0)
(0.00454269382778 -0.0011930029248 0)
(0.00620365899597 -0.00115419276811 0)
(0.0122018440386 0.00139014890268 0)
(0.0173825871392 0.00725829415453 0)
(0.0244698034069 0.0176855954047 0)
(0.0405003773476 0.0465838458482 0)
(0.0560404529222 0.0662087150115 0)
(0.0766625064367 0.0786170877514 0)
(0.0865087490169 0.0782670442366 0)
(0.0830254343998 0.0632082193762 0)
(0.0889268013282 0.0541782942847 0)
(0.100770679568 0.0497899550297 0)
(0.111629632026 0.0489055512716 0)
(0.121956373329 0.052693532936 0)
(0.131165419524 0.0590007123589 0)
(0.139397661108 0.0662874475506 0)
(0.146299018282 0.0733185275249 0)
(0.151471003911 0.0789370194699 0)
(0.154494087141 0.0819732921677 0)
(0.155007997776 0.0812937036736 0)
(0.152767466481 0.0759974058669 0)
(0.147730773385 0.0658143259189 0)
(0.14022048451 0.0519239880386 0)
(0.130413374127 0.0351265327687 0)
(0.119502411447 0.017367983287 0)
(0.10824226808 -0.000451229713744 0)
(0.0986722192212 -0.0168075745557 0)
(0.0914040658778 -0.030089068875 0)
(0.0856631990532 -0.0380616943852 0)
(0.0801187955352 -0.0382587422942 0)
(0.0746942255528 -0.0319112842389 0)
(0.0682134059834 -0.0224663949078 0)
(0.057295767986 -0.0129209003874 0)
(0.0442494788573 -0.0094371452953 0)
(0.0327358991953 -0.00874668217379 0)
(0.0221822865962 -0.00829135486778 0)
(0.0112937050876 -0.00573122124374 0)
(0.00423114528975 -0.0027556543134 0)
(0.00309801741974 -0.00325166534524 0)
(0.00085765450408 -0.00256424893383 0)
(-0.000563552896426 -0.00145703186021 0)
(-0.00130237416593 -0.000794907378896 0)
(-0.00169521221644 -0.000601872389847 0)
(-0.00201823994588 -0.000592876631323 0)
(-0.00222707153172 -0.000552010456322 0)
(-0.00244062243921 -0.000461165636483 0)
(-0.00260034866485 -0.000315589378252 0)
(-0.0027203381987 -0.00010752879296 0)
(-0.00267121725135 5.24354751853e-05 0)
(-0.00274024574859 0.000200988994197 0)
(-0.00262729280832 0.000320171451042 0)
(-0.0024652370161 0.000378053631545 0)
(-0.00218820770717 0.000374712492023 0)
(-0.00188704313948 0.00050797608022 0)
(-0.00124021570644 0.00066979352765 0)
(-0.00046640339648 0.00115272579053 0)
(0.00015142803029 0.000944385888162 0)
(0.000409176394745 0.0011279436685 0)
(0.000661501732686 0.00117939045197 9.67013646837e-29)
(0.00144077945274 0.00141267398433 -1.07881599131e-28)
(0.0024858679265 0.00174853788587 -1.29075687796e-28)
(0.00281269709221 0.00138171553105 1.22595757699e-28)
(0.00285707416998 0.000643383941142 -1.24680789546e-28)
(0.00330043911024 0.000854941715822 1.52034714835e-28)
(0.00390892951567 0.00125547453492 0)
(0.00463881627122 0.00137288798991 0)
(0.00546387346956 0.00147043205659 0)
(0.00589414498346 0.00160654575194 0)
(0.00617872378168 0.00154673976868 0)
(0.00619895114274 0.00132869320719 0)
(0.00607616844655 0.00068892557491 0)
(0.00576657058426 -0.000494444197139 0)
(0.0026597810372 -0.000866802672162 0)
(0.00254937703849 -0.00113871309851 0)
(0.00259940726304 -0.00127402550918 0)
(0.00277292965493 -0.00109915178541 0)
(0.00370720360531 -0.00114912209655 0)
(0.00564452965052 -0.00133722238622 0)
(0.00399055289161 -0.000782937181719 0)
(0.00479270339061 -0.000547202870914 0)
(0.00830667674014 0.000820106799303 0)
(0.0142291578722 0.00786643962607 0)
(0.0207630553417 0.0196736301769 0)
(0.0364787359145 0.0423360059606 0)
(0.0506943086104 0.0670526748331 0)
(0.0612213514081 0.081005628644 4.52611171639e-27)
(0.0822755745184 0.0841617601405 -4.48864137436e-27)
(0.0961659268786 0.0744554404818 0)
(0.10001099374 0.0603346351057 0)
(0.102774193 0.0458794460574 0)
(0.109407461781 0.0371500680217 0)
(0.117404192217 0.0322311424944 0)
(0.124918941695 0.0280730061153 0)
(0.131365008133 0.0240928948666 0)
(0.135736930953 0.0192007749179 0)
(0.137608857088 0.0130960273472 0)
(0.136491685054 0.00577464094031 0)
(0.132209927829 -0.00249960498678 0)
(0.124988625995 -0.0112664065002 0)
(0.115479395918 -0.0198850407709 0)
(0.104638968356 -0.0275201487501 0)
(0.0934507355855 -0.0333619176964 0)
(0.0826778591307 -0.0367652603792 0)
(0.0726670673695 -0.0379213106782 0)
(0.0633220988801 -0.0380625144458 0)
(0.055437816137 -0.0371914470854 0)
(0.0496502117063 -0.035224381505 0)
(0.046209525777 -0.0315809098283 0)
(0.0445465940557 -0.0268709096825 0)
(0.043484780144 -0.0220995508565 0)
(0.0420109050888 -0.0178411378769 0)
(0.03955145125 -0.0141812574865 0)
(0.0351463036129 -0.0119139870052 0)
(0.028482308254 -0.0109664498126 0)
(0.019994362131 -0.0103772215451 0)
(0.0141606328206 -0.010053918768 0)
(0.010153000333 -0.00928834903524 0)
(0.0064261632686 -0.00788901137768 0)
(0.00282860238357 -0.00579683421396 0)
(0.000431215516779 -0.00366304904613 0)
(-0.000786620384434 -0.00178579489936 0)
(-0.00138572419071 -0.00110337539925 0)
(-0.00176465321133 -0.000893869370636 0)
(-0.00202784956558 -0.000797555112593 0)
(-0.00223661687178 -0.000669020706675 0)
(-0.00240209800058 -0.000494291569726 0)
(-0.00255193654613 -0.000289683901114 0)
(-0.00271692502731 -0.000100637011154 0)
(-0.00290981673619 2.68041026884e-05 0)
(-0.00298226859736 0.000256959949973 0)
(-0.00285039913156 0.000545504211005 0)
(-0.00258771651361 0.000677479667486 0)
(-0.00224772418772 0.000731303047522 0)
(-0.00189078977903 0.00103467279241 0)
(-0.00143362892405 0.00165693974038 0)
(-0.000287185012841 0.00186143181885 0)
(0.000157649463647 0.00151210502709 0)
(0.000124522869045 0.000863341738805 0)
(0.000610694407054 0.00198253111953 0)
(0.00173799529036 0.00251578708755 0)
(0.00192037284617 0.00182665554793 0)
(0.0006391670487 0.000415376323201 0)
(0.000707123989411 0.000420560920483 0)
(0.00155415972256 0.00125938117134 0)
(0.00342438282746 0.00235064428742 0)
(0.00419984561859 0.00228529386403 0)
(0.00531246839435 0.00236141497621 0)
(0.00558389301013 0.00208089504515 0)
(0.00543330825344 0.001367446851 0)
(0.00467451650323 0.000208296245242 0)
(0.00287850030933 -0.000602357996994 0)
(0.0026662559334 -0.00103752537342 0)
(0.00259612564814 -0.00129639946715 0)
(0.00254446141862 -0.00121767517039 0)
(0.00290090045886 -0.00104605245976 0)
(0.0045956051142 -0.000819753937417 0)
(0.00492960361462 -0.000307618119627 0)
(0.00533765335056 -0.000240285511945 0)
(0.00672360484418 0.000515309212523 0)
(0.0106659315115 0.00507872453485 0)
(0.0154474030283 0.0130661472017 0)
(0.0216001828821 0.0254555570562 0)
(0.0441466403244 0.0600319667391 0)
(0.0498099717301 0.0773235534914 0)
(0.0540357335481 0.09034125746 0)
(0.0736995990449 0.085871970781 0)
(0.0925915282401 0.0779057207997 0)
(0.102329745333 0.0671553618709 0)
(0.107598302919 0.0566241571959 0)
(0.112915371779 0.047594071993 0)
(0.11928228575 0.0409617399544 0)
(0.125154065312 0.0354570867802 0)
(0.12972948446 0.029521409791 0)
(0.132384529763 0.0230714542504 0)
(0.132444383093 0.0158378912171 0)
(0.129726681231 0.00792009285455 0)
(0.124251433849 -0.000525537932092 0)
(0.116386755943 -0.0093020250242 0)
(0.106763437139 -0.0181433159635 0)
(0.0961448312232 -0.0266903405804 0)
(0.0852247269012 -0.0345274713003 0)
(0.0745070631516 -0.0411990794869 -7.63240365887e-28)
(0.0643057479284 -0.0463610418325 7.58260605561e-28)
(0.0548282899195 -0.0497778462438 0)
(0.0463711752002 -0.0512633698024 0)
(0.0390417687871 -0.0508614380581 0)
(0.0333107629023 -0.0486164077321 0)
(0.0292104183837 -0.0444340480757 0)
(0.0263247968619 -0.0387707973759 0)
(0.0239589498834 -0.0325783337651 0)
(0.0216085067818 -0.0268176398221 0)
(0.0187513522296 -0.0213137922398 0)
(0.0147237172129 -0.0154094842786 0)
(0.0111835790172 -0.0120364763821 -5.82619183037e-28)
(0.00890971287023 -0.0100177106795 4.68882994918e-28)
(0.00834105871737 -0.0094582610673 0)
(0.00732843989529 -0.00899876066892 0)
(0.00540981515711 -0.00820556198931 0)
(0.00251941209771 -0.00697206189505 0)
(-3.92728807515e-05 -0.00441562721752 0)
(-0.0010806936824 -0.0023054720762 0)
(-0.00147720623763 -0.00146244402217 0)
(-0.00176783866941 -0.00118482406715 0)
(-0.00203136908745 -0.00107775993462 0)
(-0.00226578997059 -0.000950122263085 0)
(-0.00250978352989 -0.000783335213062 0)
(-0.00275556430904 -0.000599136685246 0)
(-0.00300271571965 -0.000411293889173 0)
(-0.00311096224891 -6.69569636297e-05 0)
(-0.00290463205872 0.000429376291488 0)
(-0.0026971945041 0.000808150739735 0)
(-0.00242140492875 0.00106516770166 0)
(-0.00199153718052 0.00124893471453 0)
(-0.00131167153257 0.00136654834504 0)
(-0.0010903331099 0.00208649688294 0)
(-0.000252083722425 0.00259868785772 0)
(-1.70770909151e-05 0.00134478688346 0)
(2.20848361377e-05 0.00103806835789 0)
(0.000777577200924 0.00329465882575 0)
(0.00138317916213 0.00267580250692 0)
(0.000866894476018 0.00111934626925 0)
(0.000571219022003 0.000509116849503 0)
(0.000918539116391 0.00101642219328 0)
(0.00266418236816 0.00309772261621 0)
(0.00400536044295 0.0036672176787 0)
(0.00444754502691 0.00313415313544 0)
(0.00464719746979 0.00263572570887 0)
(0.00417559477182 0.00145490163186 0)
(0.00300623451011 2.78360381918e-05 0)
(0.00245011834892 -0.000606410790496 0)
(0.00269099139427 -0.00105217397844 0)
(0.0029391860802 -0.00129388881278 0)
(0.00322733983018 -0.00113504838571 0)
(0.00375939202335 -0.000642404281337 0)
(0.00571468041593 3.90718599419e-05 0)
(0.00461551151116 -5.08632186753e-05 0)
(0.00496162833451 -6.41807806659e-06 0)
(0.00690036138414 0.00107552538186 0)
(0.00912828318509 0.00525391230776 0)
(0.0140728996693 0.0139838910547 0)
(0.0203152331135 0.0224248795709 0)
(0.0460412399125 0.0571984636767 0)
(0.0564858855289 0.0732285506128 0)
(0.0583376591227 0.0830178810556 0)
(0.0653640916155 0.080459394912 0)
(0.0839033861141 0.0697165841695 0)
(0.0977973547117 0.0629609326526 1.95096036078e-27)
(0.10548658964 0.056620490117 -1.6067599625e-27)
(0.111357634347 0.0501738517971 0)
(0.117023514149 0.0440421012949 0)
(0.12214319985 0.0384967047339 0)
(0.125776334287 0.0328810255203 0)
(0.127539227091 0.0265437886592 0)
(0.127107519219 0.0195716989161 0)
(0.124279180011 0.011946939805 0)
(0.119188896006 0.00382962568993 0)
(0.112126109213 -0.00456291444514 0)
(0.103547496046 -0.0129314617692 0)
(0.0939883232331 -0.0209162298177 0)
(0.0839687284201 -0.0281333154118 0)
(0.0739276064276 -0.0342622633622 0)
(0.0641850707285 -0.0390092503191 0)
(0.0549986096565 -0.0421320787914 0)
(0.0466135357364 -0.0435431524703 0)
(0.039329757539 -0.0431818873031 0)
(0.0334978445384 -0.0413384252564 0)
(0.0292976998247 -0.0379553685801 0)
(0.0267385653362 -0.0333640596119 0)
(0.025280820911 -0.0284349719411 0)
(0.0242066387851 -0.0239580797402 0)
(0.0227352324939 -0.0200971273237 0)
(0.0197549014089 -0.0163702370211 0)
(0.0138222218342 -0.0112842827329 0)
(0.0109868859252 -0.00931006508772 0)
(0.00932104430395 -0.00849702589205 0)
(0.008400007193 -0.00811793306206 0)
(0.00777940922425 -0.00796223251237 0)
(0.00706264851016 -0.00822717626485 0)
(0.00329103549869 -0.00717611944947 0)
(-0.00064258699543 -0.00415743434809 0)
(-0.00130653061074 -0.00224244143082 0)
(-0.00147012347471 -0.00160964243144 0)
(-0.00174902748469 -0.00146196363256 0)
(-0.00204737554358 -0.00139374530094 0)
(-0.0023375135068 -0.00129033858877 0)
(-0.00264253846926 -0.00115969849967 0)
(-0.00299157907268 -0.000980750827661 0)
(-0.00320607412073 -0.000530681194643 0)
(-0.00305758827446 0.000165502994707 0)
(-0.00291691450635 0.000710098763122 0)
(-0.00269717653208 0.00113107554384 0)
(-0.00239319539871 0.00152099017899 0)
(-0.00188779810934 0.00173890120357 0)
(-0.00135148417514 0.00193176351817 0)
(-0.00100673338212 0.0027889818761 0)
(-0.000147176615725 0.00310157341831 0)
(-4.05525771252e-06 0.00121681051136 0)
(9.09772438653e-05 0.00130717329264 0)
(0.000846169526983 0.00372676793068 0)
(0.000863872404285 0.00207770134037 0)
(0.00049081050823 0.000732443141218 0)
(0.000581682222044 0.000697614814247 0)
(0.00164647972484 0.00226203445679 0)
(0.00386078030646 0.00474504153157 0)
(0.00395361692728 0.00396703319887 0)
(0.00385181397392 0.00300373181861 0)
(0.00323337079187 0.00179686117292 0)
(0.00199531913469 0.00033552243182 0)
(0.00185798586758 -0.000322808970197 0)
(0.00219186602482 -0.000673016538323 0)
(0.00251392211737 -0.000836718044023 0)
(0.00307251251914 -0.000792532938487 0)
(0.00387139041286 -0.000255918104827 0)
(0.00579849092915 0.000619399033023 0)
(0.00390865354863 0.000116616867481 0)
(0.00434960627431 0.00025794463641 0)
(0.0064231893971 0.00200434957909 0)
(0.00803995235083 0.00652545453561 0)
(0.00990551707509 0.0131111404142 0)
(0.0156652275996 0.0259087886819 0)
(0.0334159911049 0.0509089845004 0)
(0.0544679002731 0.0791398698643 0)
(0.0618606672728 0.0889108440325 0)
(0.0634966988244 0.0832986980627 0)
(0.0749269573838 0.0696698068622 0)
(0.0897009980444 0.0607182053165 0)
(0.0999149902498 0.0567369256158 0)
(0.106570329131 0.0527306197862 0)
(0.112209782947 0.0480441698723 0)
(0.117175389915 0.0430156372305 0)
(0.120862651709 0.0377171439748 0)
(0.122735914362 0.0317232676477 0)
(0.122657925839 0.0247181768875 0)
(0.120543293095 0.0167643072828 0)
(0.116422528655 0.00792607016189 0)
(0.11050373839 -0.00158150086717 0)
(0.103077727323 -0.0114578351328 0)
(0.094512208219 -0.0213329184284 0)
(0.0852038406628 -0.0307976962573 0)
(0.0755338611101 -0.0394284560294 0)
(0.0658507907215 -0.0467373516284 0)
(0.0564868468566 -0.0521865789792 0)
(0.0477885959174 -0.0552630592276 0)
(0.0401927692366 -0.0556238866517 0)
(0.034143505252 -0.0533797068742 0)
(0.0300014043346 -0.0490806772121 0)
(0.0277851641319 -0.0435530629387 0)
(0.0271917134269 -0.0373204527925 0)
(0.0277254234596 -0.0309783533347 0)
(0.028606640231 -0.0250098414894 0)
(0.0287910324131 -0.0196591296923 0)
(0.0267508197712 -0.0147538205753 0)
(0.0220842137816 -0.0105710960203 0)
(0.0194117795871 -0.008693673809 0)
(0.0176136540808 -0.00812753364385 0)
(0.0166039081648 -0.00822670658992 0)
(0.0182799974257 -0.0102244111239 0)
(0.0225150956233 -0.0161331007554 0)
(0.0152396857872 -0.0164839791404 0)
(0.0025985276251 -0.00639345126412 0)
(-0.000583634805456 -0.00193202795632 0)
(-0.000981510616213 -0.00180806177979 0)
(-0.00146503472821 -0.00177512956306 0)
(-0.0019735753343 -0.00175639564001 0)
(-0.00241806266322 -0.00169712815056 0)
(-0.00289901580498 -0.0016478786685 0)
(-0.00328457447209 -0.00129025322404 0)
(-0.00324717870823 -0.000431965527623 0)
(-0.00313507577443 0.000330349720943 0)
(-0.00306846919526 0.000881109416012 0)
(-0.00281568846637 0.001422928813 0)
(-0.00253810667056 0.0019772191401 0)
(-0.00195956916613 0.00217138293613 0)
(-0.00144792418769 0.00239014242458 0)
(-0.00109466579207 0.00330357161514 0)
(-0.00020538331429 0.003615148182 0)
(5.51419601895e-05 0.00133932382983 0)
(0.000358553306984 0.00194350224817 0)
(0.00131878265372 0.00416973968704 0)
(0.00116558002811 0.00290913860958 0)
(0.000512163303042 0.000817492270972 0)
(0.00102066761775 0.00148837281345 0)
(0.0030479488872 0.00453722366347 0)
(0.00383925244521 0.00509258970462 0)
(0.00348541958657 0.0035561823135 0)
(0.00242736400116 0.00197916533916 0)
(0.00288965495614 0.00120600007635 -5.23505777879e-28)
(0.00171955754877 -7.32830182923e-05 1.94373478943e-28)
(0.0021601628886 -0.000381745193122 0)
(0.00228771608657 -0.000539335889217 0)
(0.00271103586122 -0.000535706328835 0)
(0.00355371931525 -3.22369455086e-05 0)
(0.00539157754139 0.00090041626003 0)
(0.00330157636053 0.000210828016649 0)
(0.00357274704373 0.000123033455558 0)
(0.00515195681813 0.00176020792038 0)
(0.00608532841905 0.00465623797537 0)
(0.00792947218208 0.0113664297908 0)
(0.0104891506555 0.0180688383642 0)
(0.0195803911464 0.039957886243 0)
(0.0478590894318 0.0901304176156 0)
(0.0582641495858 0.0981418563497 0)
(0.062661416572 0.0947389229667 0)
(0.0691228146805 0.077321471389 0)
(0.0808386748778 0.0641494938654 0)
(0.092421804161 0.0580672301998 0)
(0.100407652281 0.0553438794509 0)
(0.106224248782 0.0521522525399 -1.1620934957e-27)
(0.111178187536 0.0480033861495 1.03024512876e-27)
(0.115140248282 0.0431240533833 0)
(0.11758225701 0.0374738912025 0)
(0.118218918642 0.0307377849224 0)
(0.117022869366 0.0227466502358 0)
(0.11400385804 0.0135712625448 0)
(0.10925388558 0.00336128980741 0)
(0.102966652114 -0.00759026906128 0)
(0.095396865792 -0.0188880915635 0)
(0.0868551807664 -0.0300448728342 0)
(0.0776805201169 -0.0404785413358 0)
(0.0682339220633 -0.0495135554704 0)
(0.0589144556963 -0.0564149612985 0)
(0.050195541303 -0.0605107157342 0)
(0.0426018887313 -0.0614300230713 0)
(0.0366430762494 -0.0592556202773 0)
(0.0327056913882 -0.054533172735 0)
(0.0309007421816 -0.0481066480632 0)
(0.0310255665688 -0.0408639181007 0)
(0.0326605820935 -0.0332613068499 0)
(0.035355441182 -0.0258046957162 0)
(0.038487643105 -0.0191689441503 0)
(0.0412825521686 -0.0141025358363 0)
(0.0429899780107 -0.0111853088282 0)
(0.0430182359195 -0.010456937449 0)
(0.0411867682391 -0.011225336458 0)
(0.0376379421163 -0.0129586300062 0)
(0.0327312799245 -0.0147626415644 0)
(0.0273435613408 -0.0164254036963 0)
(0.0225609986432 -0.0181224400918 0)
(0.0177570162737 -0.019791300668 0)
(0.0101361044138 -0.0186306055036 0)
(0.000823589559866 -0.00323507298355 0)
(-0.000284768056727 -0.0025317040474 0)
(-0.00120190196985 -0.00249862180192 0)
(-0.00201160697178 -0.00247630732523 0)
(-0.00269878426431 -0.00239067206339 0)
(-0.00325579820075 -0.00215128583918 0)
(-0.00347421382975 -0.00136757677533 0)
(-0.00337756870421 -0.000356699988846 0)
(-0.00343033771154 0.000372663249943 0)
(-0.00333420384601 0.00102309982613 0)
(-0.00312017030178 0.00172711240765 0)
(-0.00275721912844 0.0023319350914 0)
(-0.00229314746578 0.00270084260254 0)
(-0.00158322282042 0.00288707772272 0)
(-0.00120475597024 0.0037806406338 0)
(-0.000275554973248 0.00420892222197 0)
(8.78168408649e-05 0.00159938771955 0)
(0.000695883894759 0.00286052084603 0)
(0.00167917625881 0.00398503978906 0)
(0.000563976048063 0.00125096082292 0)
(0.000520242917755 0.00101838336296 0)
(0.00172821501681 0.00304290830444 0)
(0.00302938521523 0.00501762845822 0)
(0.00360542614938 0.00517915447592 0)
(0.00241383275073 0.00252852635611 0)
(0.00247406864188 0.00182746331037 0)
(0.00159025700657 0.000487110879561 0)
(0.00198872170501 -7.79154944508e-05 0)
(0.00222239833053 -0.000203287437746 0)
(0.00233174908295 -0.000236238631259 0)
(0.00304316056226 0.000156056527866 0)
(0.00477537370323 0.00119986944313 0)
(0.00301515133191 0.000641734036647 0)
(0.0031691067319 0.000307542300104 0)
(0.00389219482504 0.00124266871947 0)
(0.00647784637697 0.0044114553634 0)
(0.00605384855266 0.00694591978182 0)
(0.00533681002862 0.012675613581 0)
(0.012209234111 0.0318392894315 0)
(0.0348917975989 0.0922553100645 0)
(0.0509396622613 0.113496781354 0)
(0.0583160932685 0.110695894987 0)
(0.0634084917172 0.0923221208487 0)
(0.072771278018 0.073063752497 0)
(0.0837072103711 0.0626746646052 0)
(0.092983386938 0.0585116238095 0)
(0.0995470496226 0.0562719289469 0)
(0.104589420706 0.0532703308497 0)
(0.108747858387 0.0491444883121 0)
(0.11176744632 0.0440030920495 0)
(0.113262760464 0.0377396719418 0)
(0.113089523958 0.0301129146035 0)
(0.111262409305 0.021027135185 0)
(0.107824793687 0.0105637338895 0)
(0.1028812513 -0.00108151724014 0)
(0.0966036693948 -0.0135609997019 0)
(0.089212998027 -0.0263806911029 0)
(0.0809801617791 -0.0388887133059 0)
(0.0722295779486 -0.050277355751 0)
(0.0633582420608 -0.0596342322972 0)
(0.054852747185 -0.0660775900462 -5.4296718644e-28)
(0.0472746482314 -0.0689477949716 5.42249696494e-28)
(0.0411825194443 -0.0680141878809 0)
(0.0370011678572 -0.063542424016 0)
(0.0349196929178 -0.0562320156989 0)
(0.0348888294747 -0.0470574662022 0)
(0.0365699016431 -0.0371735256633 0)
(0.0394964824394 -0.0275035424065 0)
(0.0430477831068 -0.0187779101958 0)
(0.0466033140825 -0.0116631654057 0)
(0.0494602004499 -0.00675376719913 0)
(0.0509356364562 -0.00446054114331 0)
(0.0505627790736 -0.00483292686263 0)
(0.0482015982172 -0.00747383286418 0)
(0.0441317205886 -0.0114907163224 0)
(0.0389142605066 -0.0160457778347 0)
(0.0332487080961 -0.0203965508536 0)
(0.0277881998874 -0.023617419975 0)
(0.022667301449 -0.0246255257081 0)
(0.016075866359 -0.0222847122 0)
(0.00480388883771 -0.00799445246459 0)
(0.000303458140196 -0.00416228187221 0)
(-0.00103376387224 -0.00355262781903 0)
(-0.00210129147564 -0.00338466514339 0)
(-0.00294410534626 -0.00307914935022 0)
(-0.0034962389679 -0.00248634579682 0)
(-0.00365991613897 -0.00143285162919 0)
(-0.00371937004945 -0.000441280021915 0)
(-0.00384316466968 0.000333349147803 0)
(-0.00374730647922 0.00114019631934 0)
(-0.00355774649768 0.00200347411237 0)
(-0.00314202558425 0.00268931721791 0)
(-0.00271140614407 0.00323386196928 0)
(-0.0018644042281 0.00353355900804 0)
(-0.00126143851028 0.00428977290835 0)
(-0.000252759704873 0.00484820657446 0)
(0.000102048408913 0.00192823717147 0)
(0.00106008561264 0.00403772456291 0)
(0.00148957620011 0.00368998066126 0)
(0.000639548704977 0.00135704584873 0)
(0.000913476332302 0.00164779620506 0)
(0.00259186170291 0.00480471165746 0)
(0.00263359877611 0.00542108930722 0)
(0.0033463053805 0.00497107664812 0)
(0.00167134208721 0.00183858759451 0)
(0.00324705670859 0.00211138275596 0)
(0.00177676108929 0.000410445151555 0)
(0.00222758176225 0.00021286180278 0)
(0.00229946126454 8.74145592749e-05 0)
(0.0025919841433 0.000268973486093 0)
(0.00377713106203 0.00138794193475 0)
(0.00497842111636 0.00189808235006 0)
(0.00297559171574 0.000675855001594 0)
(0.0034379188587 0.00110292265234 0)
(0.00448389210659 0.00309072588537 0)
(0.00607663027836 0.00636960441287 0)
(0.00634929345675 0.0100903511321 0)
(0.00504762585989 0.0158135169707 0)
(0.0113497396417 0.0471781718758 0)
(0.0381223896595 0.128568617351 0)
(0.0476885502592 0.132628419372 0)
(0.0529375220664 0.116029527033 0)
(0.0640783650753 0.0885734020311 0)
(0.0742978423636 0.0718202459142 0)
(0.0841949798036 0.0638521580908 0)
(0.0919675253151 0.0606068478306 0)
(0.0975888480923 0.058341307712 0)
(0.101968633372 0.0551545723735 0)
(0.105412228691 0.0507411762918 -8.41785399902e-28)
(0.107678956071 0.0451009312563 7.65782612127e-28)
(0.108516631651 0.0380816602427 0)
(0.107864991319 0.0294793887298 0)
(0.10575920158 0.0192239690545 0)
(0.102253779635 0.00740037686248 0)
(0.0974432868315 -0.00575492449357 0)
(0.0914657114958 -0.0198105727271 0)
(0.0845039348786 -0.0341198857436 0)
(0.0768075659683 -0.047812822334 0)
(0.0687216407579 -0.0598389552163 0)
(0.060713833834 -0.0690845892976 0)
(0.0533521309979 -0.074571991614 0)
(0.0472298299495 -0.0756755099734 0)
(0.0428481767038 -0.0723067630291 0)
(0.0405085912507 -0.0649739726526 0)
(0.0402491653076 -0.0547318005206 0)
(0.0418460873738 -0.0429930333266 0)
(0.0448949973431 -0.0312620058682 0)
(0.0487173280993 -0.0209388149972 0)
(0.0527966200373 -0.0126181472908 0)
(0.0563212550468 -0.00698517340182 0)
(0.0586459844239 -0.00426973095208 0)
(0.0592332524649 -0.00440221961705 0)
(0.0577778162276 -0.00700610223515 0)
(0.0543231247975 -0.0113093245115 0)
(0.0492631415624 -0.01634104881 0)
(0.0432337552467 -0.0212031565442 0)
(0.0370417184748 -0.0251436222816 0)
(0.0314845616651 -0.0275272684809 0)
(0.0269527442815 -0.0279317648339 0)
(0.0224116426707 -0.0260706210318 0)
(0.0141872777132 -0.0206247260524 0)
(0.00303883946777 -0.00642754794627 0)
(-0.00105394813213 -0.00479247423229 0)
(-0.00238561351706 -0.00476024764807 0)
(-0.00333612060063 -0.00393317409616 0)
(-0.00382458233895 -0.00284121300701 0)
(-0.00403444549604 -0.00164217517299 0)
(-0.00425969646269 -0.000657169930016 0)
(-0.00438261352029 0.000253046497454 0)
(-0.0042877972142 0.00123958623606 0)
(-0.00404707440151 0.00223016598335 0)
(-0.00366516229766 0.00306212425718 0)
(-0.00311526275701 0.00377001381587 0)
(-0.0022337529014 0.00435133144865 0)
(-0.00134428074195 0.00501638436397 0)
(-0.000182936355011 0.0055367120823 0)
(0.00014505345995 0.00243152333843 0)
(0.00150573255651 0.00540428305366 0)
(0.001318298529 0.00303863650642 0)
(0.000683444502555 0.00133989536916 0)
(0.00169935600255 0.00294890539878 0)
(0.00184681657845 0.00382183611461 0)
(0.00230201506196 0.00589531999727 0)
(0.00257485759502 0.00429580096751 0)
(0.00140715954311 0.00160795946433 0)
(0.00230858286886 0.00144306713458 0)
(0.00185986406188 0.00046370994536 0)
(0.00225130925659 0.000487128529464 0)
(0.00229527120308 0.000442004289455 0)
(0.00281445740349 0.000983592221307 0)
(0.00459796715638 0.00261648859258 0)
(0.00262529000671 0.00128090740071 0)
(0.00279075434867 0.000974306369282 0)
(0.00331611056754 0.00194924168377 0)
(0.00473149908153 0.00487006779715 0)
(0.00498116725122 0.00735000385147 0)
(0.00551938153769 0.0118802387901 0)
(0.00504032177274 0.0202044841157 0)
(0.0114323324495 0.063249447802 0)
(0.0342341172154 0.143727912327 0)
(0.0398696923444 0.142956344207 0)
(0.0484963417304 0.115041220663 0)
(0.063493304688 0.0865504473947 0)
(0.0741443611563 0.0722374448325 0)
(0.0831349845345 0.0657879306244 0)
(0.0899182205955 0.062843930762 0)
(0.0948632964188 0.0603332689995 0)
(0.0986688523571 0.0568460518667 0)
(0.101501138489 0.052075931898 0)
(0.103189317547 0.0459185367833 0)
(0.103593864577 0.0381730069565 0)
(0.102710686282 0.028638457631 0)
(0.100585470287 0.0172462671727 0)
(0.0972683633553 0.00409482789074 0)
(0.092829876577 -0.0105160752448 0)
(0.0873732676634 -0.0260333674839 0)
(0.0810572143023 -0.041625716454 0)
(0.07413378718 -0.0561968085174 0)
(0.0669822412292 -0.0684717406145 0)
(0.0601119029577 -0.0771678742148 0)