/*--------------------------------*- C++ -*----------------------------------*\
| =========                 |                                                 |
| \\      /  F ield         | OpenFOAM: The Open Source CFD Toolbox           |
|  \\    /   O peration     | Version:  v1806                                 |
|   \\  /    A nd           | Web:      www.OpenFOAM.com                      |
|    \\/     M anipulation  |                                                 |
\*---------------------------------------------------------------------------*/
FoamFile
{
    version     2.0;
    format      ascii;
    class       volScalarField;
    location    "239";
    object      alphak;
}
// * * * * * * * * * * * * * * * * * * * * * * * * * * * * * * * * * * * * * //

dimensions      [0 0 -1 0 0 0 0];


internalField   nonuniform List<scalar> 
6400
(
0.835656929974
1.25964356953
1.93536182498
2.23506767204
2.5357033743
2.87589138139
3.44924925933
4.12168613667
4.25801937887
4.58641670185
5.70147590301
6.20771690531
6.58267233987
7.09160651584
7.86464603734
8.65817886064
9.24509662635
9.81210326638
10.3211538085
10.5381488539
10.4512843338
10.38775322
10.5981095607
11.1437762668
11.7867953315
12.3229201371
12.6657665593
12.9619165839
13.3495684788
13.8396308199
14.3795555281
14.6974950846
14.7317919588
14.6617177511
14.4957960762
14.1227139071
13.9377470065
14.1935773324
13.9515393184
13.3644255201
13.2264394115
13.7198025406
14.2630899021
14.5205915958
14.579728106
14.4962537172
14.3483492762
14.2029270763
14.0649546371
13.9419094043
13.669198264
12.8263697697
11.9601421942
10.9832478111
10.4801575458
10.7012865188
10.4130699515
9.01161052513
7.37378490143
6.7051476424
5.77815259595
4.76598369161
3.75178327751
5.4428041643
9.53252968105
14.4928339817
17.4999422295
17.2200884395
15.2216774543
13.5363548669
12.5744896595
12.6473260604
13.066228851
12.8718957438
14.7984425508
14.2003974167
16.0119777812
9.91415212435
12.8769965752
4.81660930148
3.08467543697
2.39395986764
2.9296354061
4.12355244145
3.78995607935
3.39035256693
3.39492874383
3.66472015058
4.09372526147
4.66461469316
5.39799560394
6.12920662325
6.74835024193
7.33895726445
7.92556566222
8.61720835263
9.34028421729
10.0784996065
11.1334420385
11.1301950513
10.7614878236
10.5935134818
10.6694913079
11.1467493475
12.0607569146
12.4642523567
12.7430200795
13.1153542793
13.5405987135
13.9929185942
14.4704994608
14.9914521275
15.0320207704
14.9843577266
14.9106893875
14.3042328142
14.2646603991
14.5276962163
14.1310850075
13.2128400809
13.0007529547
15.156457132
16.5002122678
16.5904250327
16.5301295701
16.18831189
15.6861555357
15.2799677313
14.6656621131
14.1415750143
14.0538993536
14.5404799365
14.2510165392
11.2051489151
10.9855801252
10.5903900535
8.88528638658
7.58833441296
6.51245561195
5.46780127606
4.63944531386
5.13388395225
3.99337060784
5.64758193436
9.58995544851
15.4142810355
19.1497919782
17.9711866931
15.8070509933
13.8502496886
13.0474319888
13.3363627771
14.2998163491
13.6691957532
13.4512709576
12.8752624888
11.634658326
9.76920252532
8.19610713637
4.28300922802
3.05099227273
2.58864731276
3.07408238608
3.15723536829
3.41797682767
3.71738267855
3.63519665436
3.61049073916
4.02137028465
4.64945104542
5.37341689386
6.12380284905
6.79765401725
7.40307896426
7.85390642559
8.47212348238
11.6462340781
13.7847329304
14.0013462373
12.9647370898
10.6207313235
10.0555675564
10.8815504381
11.4222768121
11.8545841705
12.4070269237
12.8809459002
13.2595925419
13.6626277499
14.1415002263
14.5489699455
15.2502610705
15.3499493218
14.8280209063
15.5189206254
14.9393198063
14.1021073029
14.9027623003
14.4476150787
13.4743280445
13.237789715
13.7912811381
14.3909606392
14.6792176051
14.7611698278
14.7207029213
14.5922704594
14.3962167522
14.1329981399
13.8281001532
13.485081449
13.0118330267
12.3240361822
11.8497378709
11.5443463065
10.1830038214
8.78840792579
7.6468035585
6.63782295387
5.74611729578
5.08280419812
4.44336215883
4.07659394707
6.43974994774
11.5771990292
16.2673583158
18.5832730907
18.7088733701
17.1073620418
15.3908945598
14.61898664
14.4374904285
13.7230086374
13.0762604008
12.9801177174
12.570133524
11.5373996997
9.89165558855
7.45740319595
7.62309191104
2.83911607269
5.31866329612
3.18267509371
3.14084878927
3.7637164439
11.6962667875
10.0082727801
4.42146302565
4.03992020399
4.67755682019
5.39736743185
6.15302289057
6.80467198775
7.50497904616
9.50517315173
11.8324378961
13.4778807958
13.5816807364
11.7656725023
10.0757483882
10.0770784331
10.3324475554
10.7002592409
11.2890368279
11.9480802255
12.5713785805
13.1006838249
13.4284117595
13.9106987939
14.224131581
14.974057638
15.1781042305
15.9236629803
15.5775195344
14.6195525957
15.1811765627
14.4752406627
13.7083625904
13.5845157329
13.5318070993
13.6091272169
13.9737921291
14.4078158597
14.6885044077
14.8060680505
14.797746326
14.6925389035
14.5114379024
14.2641571839
13.9620407298
13.6009468749
13.151533329
12.6034038103
12.0131058076
11.2564931223
10.1664148397
8.93313501088
7.81782160887
6.88290556999
6.13387276349
5.57975305685
5.18802351496
5.27838953882
7.07692598925
10.8014846089
16.5545880684
20.1412121827
20.3482676512
18.6790416375
16.3177382582
14.6701749351
13.8140357801
13.9037548571
15.203623714
15.0750429195
13.702187444
13.5057315255
16.7435286496
13.1613474913
11.1915270588
5.27921876909
7.30511207453
3.64431754596
3.96549452032
6.14777566134
11.5752120436
7.68790495014
4.56186389724
4.5243702703
4.89900661648
5.55114663504
6.33997873547
7.81995162796
10.4831495525
11.4458815216
11.5962095007
11.1436530867
10.2449822178
9.74933077519
10.1409064302
10.2256627019
10.2946609653
10.7602904717
11.3962199615
12.0999390326
12.7888616979
13.2335974643
13.8440488504
14.0204858371
14.8318416162
14.9365008924
16.4246721176
15.7572495721
14.8556186739
15.0704717375
14.0932423985
13.7449309561
13.6521723599
13.6710656742
13.7296931281
13.85779524
14.1331987439
14.4700170857
14.7308649967
14.8679175817
14.8844508856
14.8003071459
14.6366863286
14.408335334
14.1226381191
13.7739228616
13.3486616241
12.8386819631
12.223541132
11.3994031634
10.3156011491
9.14783561665
8.11336334969
7.30048861451
6.71344948023
6.341082694
6.23119466576
6.69215481675
7.72140788579
10.6743548197
15.9727487087
20.1724970424
21.5744889006
20.3852485454
17.6128626728
15.1225789587
14.7410836765
16.8835452952
17.6835489583
16.5908934068
15.6226261335
18.2025570066
21.1729926497
16.5082180963
15.6220449544
9.62559088247
8.73714152188
4.51299574538
5.31855469885
11.8313346069
11.2440058108
5.52645251072
5.01089674679
5.06720608519
5.22734364539
5.87351774479
8.86913604344
12.3857634993
12.6653668444
12.0583840547
10.5739452034
9.48627010334
9.2895359217
10.1644334139
10.1597363099
9.99270505054
10.329785282
10.9095584549
11.6207578522
12.2122307674
12.9277840445
13.8980601917
13.8951818156
15.0173240834
14.7590145824
16.7115976847
15.9574586862
17.1136130142
15.4623093039
13.9433723321
13.5470936798
13.594860476
13.7105054686
13.8199962326
13.9241860417
14.0740272987
14.3087684253
14.5861436242
14.8234556994
14.9656623616
14.9989059568
14.9326304086
14.7884121925
14.5851464896
14.3286428923
14.0107733695
13.6159676942
13.1198574044
12.4741665421
11.6149261597
10.5677866998
9.50219041862
8.58697089272
7.88497973796
7.42974865247
7.22633012577
7.49299608296
8.73837567855
8.09437741032
12.0050170877
17.6059787495
21.3362498746
22.7480465134
21.8016189346
18.4412210984
16.2649559515
17.9973836334
20.128013036
19.5520399433
18.4995276894
18.5191778516
22.9865564061
24.529205978
19.5427592681
19.3345211364
11.6843028058
8.30278928498
5.49254056901
5.20770899562
11.6912839279
7.65544438597
5.41821920455
5.49504174531
5.56385077333
6.25097949673
6.5681267965
12.3538525462
12.8183771952
12.702155095
10.8753096373
9.09778234056
8.83339388636
10.2578926455
10.2182659212
9.7075122476
9.99601804104
10.4389796079
11.0166805915
11.7238808146
12.6635689567
13.6400985657
13.8513085062
15.4172251986
14.9003572548
17.0728133757
16.1153977034
17.4215975886
16.0970527923
15.1143218482
13.5055009288
13.3528267631
13.6048828169
13.8313585576
13.979202447
14.1090749872
14.2770054208
14.4956240116
14.7399033631
14.9574229219
15.098950184
15.1422470839
15.0923679377
14.9723232422
14.8026976164
14.5862381846
14.3087339394
13.9448950074
13.4561114619
12.7941276962
11.9379289735
10.9585245341
10.0092513579
9.20963498763
8.58946588831
8.16057811126
8.0742264908
8.44151836088
8.70992904906
9.23951103695
13.0618464121
19.9323450564
22.563079354
22.994960187
21.9287662992
19.6739323244
19.4494865242
21.9658926225
22.3567349065
21.4585226506
20.8125997853
22.6860325262
25.3411812085
26.75011224
22.1655596039
21.016161435
11.2573016306
7.60391524224
6.52652940814
11.6805616145
11.6514270227
6.1021703136
5.95766308392
6.03643404477
6.23631551022
6.75162979945
12.1806239448
13.0393499956
12.9189902569
12.1959477387
9.27067657162
8.39749171761
10.1474572186
10.4971334633
9.65756549107
9.53277429535
10.0492571021
10.6804965301
11.2513876301
12.0457967299
12.7171909577
14.1620177822
13.9884490806
15.3284125794
16.9933749201
17.0942256625
15.5677950377
16.5511029063
16.4004345811
13.8720595595
13.3860018247
13.4568885106
13.7057229704
13.9572602556
14.1391104501
14.2935523639
14.4769948869
14.6956508251
14.9245411604
15.1271418612
15.2648279402
15.3149941568
15.2829587322
15.1934239003
15.0661723615
14.8986312436
14.6683535765
14.3387216409
13.8628830333
13.2060584043
12.3866484672
11.4976929114
10.6559800694
9.90793356579
9.23255816346
8.72956546276
8.70304497648
9.14718107611
9.8110997519
10.7785964578
11.7756086039
19.7961664792
24.1043875614
24.263631568
23.7177605729
22.846653459
23.7569801285
25.1039426626
24.3703919992
23.6176707936
23.7401566978
25.9392530928
26.5160634487
27.0388775571
24.1312922094
21.9677828506
10.3221151507
7.19371352098
7.16563977194
12.5763944704
10.2790102822
6.39942317261
6.54013522355
6.72737990736
8.36097511099
6.69711713983
12.9538203499
13.4587909294
12.8954057564
10.6003781146
8.53726825404
8.5155683344
10.280250788
10.0412861285
9.44853488067
9.56011030633
10.0309095428
10.8127262784
11.5380460583
12.9017818512
14.1266514513
13.9757081953
16.3647430804
14.9203288365
17.3458624298
15.7999509246
17.6105840374
15.3199131299
14.3425649589
13.6603220497
13.5031096246
13.6188857753
13.8363887687
14.0851100197
14.2988598516
14.4861165473
14.6867573941
14.9098599098
15.1344417516
15.328659104
15.4611255528
15.5174461364
15.5076727224
15.4561367251
15.3788839026
15.2678055432
15.0917263921
14.803187545
14.3525136975
13.7240423912
12.9669386554
12.1726200213
11.3911533222
10.5624016111
9.63646683928
8.96570218859
9.17210551217
10.2028179697
11.3997087578
12.4123652649
13.2258917239
16.2334003054
24.1324815539
25.8415620011
26.0140247046
26.8157268385
27.9667628001
27.6162165726
26.5380820708
26.2369340153
27.0842720762
28.1218923186
27.8500608414
27.1585354016
26.0788206784
24.6556166039
9.47504235422
7.35116766594
8.36602930611
12.5631445797
7.67958814038
7.41096605606
7.12161759799
7.37013502325
11.1238611847
9.6162618702
13.7804088973
13.6480687993
12.8609828412
9.55702021079
8.40226020507
10.3457502554
10.5548948047
9.67319758768
9.38247182242
9.74555664434
10.1525035766
10.8752532319
11.4492687674
13.0872351774
15.5515286501
13.7900290006
16.2481357098
17.3652939682
17.58643993
17.8771124634
16.1176367451
15.9624805799
13.7869851157
13.4958146926
13.6374143087
13.7902823132
13.9822228482
14.2169278896
14.4541674106
14.6815738327
14.9104563196
15.1437933172
15.3682380539
15.5586430501
15.6888627174
15.751886804
15.7676124563
15.761817199
15.7428391501
15.6950664466
15.5803480512
15.3423956693
14.9319160334
14.3536221538
13.6754168964
12.955542793
12.1193544219
10.946662139
9.55074238826
8.93469128271
9.92523993085
11.7582520206
13.3311171913
14.5056403858
15.3529781565
15.3205856695
16.367843941
27.6071566709
30.4755176485
31.7092738503
31.6796298115
30.2447916222
29.2226484923
29.3398791285
30.2815470769
30.4157003473
30.0063688063
29.5879140496
29.8357879674
29.9646793409
9.09144223844
7.97234012953
12.0811790064
12.4866250331
7.36747133719
8.0914462511
7.67036551959
8.41231881302
10.2935442718
13.3948478089
14.4684944838
13.7859770282
12.9423447495
9.25787003956
8.47408282092
10.953397887
10.547677968
9.54810127479
9.38966576307
9.89715225469
10.6224384666
11.2028590955
11.6410114101
12.6293023794
15.6807144966
16.8305165635
15.4556653992
17.5362923685
15.5783918381
17.9260036627
17.9051717636
15.7808701325
13.6376971716
13.584937952
13.8062126046
13.9720662722
14.1490277768
14.3672561569
14.6091057119
14.8744566559
15.145387027
15.3982424334
15.6267006806
15.8164539151
15.9472836316
16.0210900217
16.066938654
16.1114449989
16.156027923
16.1776606513
16.1316824452
15.9548524977
15.6020432313
15.0967056798
14.5029751636
13.7824351852
12.5932520933
10.6664008551
9.08282056508
9.26588081396
11.5366175717
14.1058854117
15.8856217995
17.1045362457
17.7281333654
17.5941267043
16.957773785
18.6283923642
32.1520242459
37.4367096906
36.2055099306
33.7753104953
32.7684662298
32.9882170377
33.4755584822
33.5251113581
33.594773121
33.937007585
34.4215712342
35.0391103697
9.11245159669
8.68745003823
13.6318835534
12.9139992561
10.6532613208
9.21112900439
8.40480940913
9.95353542455
9.40766234066
14.3202904001
14.9597285061
13.9752604017
12.7874759972
9.60830216191
9.24522103551
11.4696613675
10.4464818822
9.53983134898
9.49413074542
9.93339164491
10.8208549074
11.6381555409
13.5910677163
12.7722479248
15.052907706
17.2159640193
15.0870227734
17.8559115567
18.3459497432
16.483029526
16.4272056715
14.282144486
13.9696157818
13.9062160499
14.0233524097
14.1826268914
14.3495237534
14.5521903645
14.7733452999
15.0502665282
15.3767163493
15.6779573017
15.9164025059
16.1029310352
16.237425942
16.3281496287
16.408886074
16.5056274357
16.6147665629
16.7077809321
16.7333685375
16.6283116243
16.3600052636
15.9519698472
15.4090311632
14.4231195899
12.3016032214
9.7680064388
8.81763377818
10.52269248
14.3308315594
17.3495467652
19.148414431
20.527963654
21.1475632782
20.8456143543
19.9597786201
18.6549944041
28.3986580592
38.5672602729
41.3535314845
38.5069223773
37.4252582145
37.4880260583
37.7107364043
37.6627927217
38.2682036283
38.8623776662
38.6729274187
38.824096378
9.49166397385
9.22585273567
13.2177242005
13.1994803898
13.1326888478
10.1120398176
9.27532453669
13.065656166
9.47453883666
15.1582759532
15.3299514702
14.1808870166
12.6550163123
10.0134704641
12.4810609299
12.5739111387
10.477775114
9.67044780517
9.72957076313
10.0908606894
10.7858533024
11.5781371953
15.1447528527
16.1544106466
14.275996823
17.3182116232
18.0833302027
17.2591474613
18.3192820144
18.2915738232
16.999567048
14.2194766141
14.1570859977
14.224297852
14.2883700438
14.4095730338
14.5478424024
14.7662416599
15.0041392126
15.2510827617
15.5881866981
15.9512109623
16.2345792011
16.4269219435
16.5637986044
16.6760780617
16.7967990193
16.9451999882
17.1130811846
17.2685274395
17.3599195485
17.3398162707
17.1929915841
16.8915362246
16.2576176934
14.4595147888
11.0580227435
8.4930981881
9.07538471361
13.2971406809
18.4605289125
21.6099039029
23.1331258734
25.0388648501
25.2408877187
24.1318491357
22.6390786719
20.9529094985
24.9445515743
35.9845874794
42.9964678696
43.9415636085
41.8198457319
41.9631928432
42.0862872679
42.534014956
43.4131609039
43.889861468
43.7660129341
43.9119802761
9.927320724
9.77552732563
9.49757637341
13.4061830411
13.5006549124
10.6283292133
10.0806226883
13.8835147186
9.87870303077
15.9887471029
15.6426902927
14.3940481551
12.6515723879
10.1690360209
13.6848987588
12.9033266768
10.6931055536
9.95731610162
10.0345615505
10.4263562184
10.8759256898
11.4940141334
15.767370103
17.1443349654
14.5094430211
17.4376575481
18.6074805649
16.2330089659
17.9331759183
17.5653619681
14.7920927355
14.5764211238
14.5815148392
14.5715330742
14.5694694509
14.698007371
14.8176594121
14.954095779
15.2196753891
15.5145767102
15.8397013153
16.2202657194
16.5548951359
16.7810388196
16.9334846843
17.0719559882
17.233785675
17.4254579824
17.6403572562
17.841785028
17.9697644058
18.0486835545
18.0715567936
17.8811251818
16.8202331972
13.2074545857
8.48341522774
7.50348847657
11.8416243108
18.596731515
24.6249239513
26.7365004728
24.9535703715
22.8694514186
19.9230863046
18.1644506255
17.6952925336
17.0252600212
15.3286860775
16.8955646942
42.4322380431
46.1395847479
45.8564839899
44.7017471729
44.9007694831
47.5535146778
48.6208211926
49.1177912244
50.1585573254
50.7582051653
10.5299319933
10.5853445913
13.9804279499
13.8885863523
13.7556168528
11.0376479447
11.0136823045
14.50560117
10.7164188721
16.6721018
15.9164995606
14.6114197599
12.7049250516
10.4363675898
13.8543415051
12.8361273727
10.9166098893
10.2859469458
10.3416747846
10.6864809923
11.1107017314
11.5923368629
14.9068238496
17.9161717014
18.0116408586
16.4876145137
18.7820327542
19.3786513064
15.8503098086
14.9638501431
14.6314483629
14.746901695
14.8357733422
14.8688487518
14.9218675281
14.9812865729
15.0919681669
15.2509266919
15.4354275014
15.7590643754
16.133240359
16.5245962892
16.8834515987
17.1496761055
17.3446823906
17.518549603
17.7171268574
17.9617925028
18.2128410892
18.3917037413
18.5041102467
18.6903527123
18.9143098876
18.7444788583
16.4673385067
10.0480181314
6.56433524252
11.0766156914
18.1272595855
24.4029151324
25.717327516
18.9623101766
4.31163971695
7.46336674199e-05
5.83786760889e-05
0.00014173000113
0.000955372263806
0.00447491034457
0.0165303411502
0.105047734727
0.0822500313071
7.13563740101
48.8462259068
52.1239449969
46.9986132116
50.4233147028
53.1889339407
55.9297485926
58.2657190129
58.6210844375
11.064574041
11.2431488426
15.497739252
14.3190613074
13.5306032099
11.477451214
11.9507683831
14.9488626785
14.9479376347
17.4765786072
16.2145780479
14.8919964672
12.7945377116
10.8564793179
14.0258794909
12.726938179
11.1606396131
10.6297403077
10.6299510454
10.9068008976
11.3209067364
11.9007961215
14.1406873134
18.1478905117
19.4124310365
15.7263333874
18.3461621894
19.2480761882
18.4977994082
15.6682326661
14.7788616904
14.9456430984
15.1455516529
15.2687740563
15.194914845
15.2795182848
15.3539214423
15.527329858
15.7212592445
16.0172536457
16.4316064055
16.8654400571
17.2283580291
17.5076405735
17.7667898359
18.0649971232
18.3642765149
18.6375689824
18.7874121494
18.8774556198
19.0043554822
19.2096754073
19.6530807971
19.397884917
13.3793854133
5.96481700499
8.83731174963
14.3712474117
15.7663973846
1.41452411692
0.00114927095326
1.91766872193e-06
1.3517734829e-07
0
0
0
0
0
0
0
0
1.88008638989e-11
6.34114217052e-09
9.48499708151e-07
0.000550289155808
0.768618900414
57.2371574643
59.5411860527
62.6483081211
64.8696249249
11.4825177282
11.6875281067
17.7691090608
14.5917053924
12.9635792459
11.8794313707
12.5916581236
14.7076992127
16.5046717518
18.4058328393
16.6470540119
15.2794224343
13.1008212948
11.6042336815
14.409059872
12.7884460297
11.5055901175
11.0372044337
10.9582451584
11.1604741905
11.5119494471
12.0614657735
13.7947196967
17.9986269916
20.3673020666
19.3613386489
17.6338290522
18.5546727481
17.9060413772
15.0475675216
15.2378820263
15.4650457761
15.7620480119
15.7211157124
15.6610404019
15.5781409235
15.6964662297
15.8035303654
16.021076645
16.3165211265
16.7155954507
17.1957912541
17.6721602876
17.9811544453
18.2956346292
18.7203537872
19.1533459992
19.4431567895
19.5311469069
19.5950898713
19.6969957038
19.7769122358
19.6252241947
18.4522167907
9.3881154618
5.34037683136
0.393951178009
0.0159297586029
0.000217197463165
5.95614472003e-07
0
0
0
0
0
0
0
0
0
0
0
0
0
2.42249109863e-10
2.40727174136e-09
5.27726123782e-08
2.5588710001e-06
0.01420999783
75.8608737802
9.53873692698
11.7926123088
11.983714909
19.9241527648
14.755204412
12.7286284846
12.2679563732
13.3779632603
13.5800497152
17.456066205
19.0552374133
17.0748589547
15.6821622601
13.6281323121
13.7367393737
14.939558369
13.1072138831
12.0637945155
11.6686140945
11.3956320224
11.5056415399
11.7596979859
12.2421314216
13.6874756554
17.8607957419
20.7313367046
21.0268048779
16.6142577236
16.8281851889
15.6741342208
15.1378746104
15.4331936405
15.9908900492
16.2435765098
16.1732553853
16.1032148748
16.2264147696
16.0695857278
16.1491500407
16.327360546
16.5873323707
17.0875021276
17.6226681488
18.1159520627
18.3793384426
18.7926222995
20.6123196199
23.146506458
23.9280056826
22.2352523194
21.9708844408
22.0855627502
22.1440477968
21.3770655536
18.6459860665
18.4590204207
4.29790551637e-08
4.34308676772e-05
7.08672072541e-07
0
0
0
0
0
0
0
0
0
0
0
0
0
0
0
0
0
0
3.74267279868e-09
2.53447620168e-08
4.67378424691e-06
52.1721171572
12.0936415098
12.2556463097
19.6039244219
13.72636824
12.6675376667
12.5888535917
14.2675864077
13.2348501129
18.2329833008
19.6818734433
17.4991617748
16.0685090644
14.0102571539
16.2293101339
15.7208317165
13.6369322576
12.7223727962
12.7852638927
12.061911756
12.0254830806
12.1137503507
12.438628527
13.7466893213
17.7064432681
20.5662298888
22.1433513131
20.2146651669
18.7794121621
17.4394992219
15.4768420702
15.7572267661
16.8139765951
16.5237951835
16.5776102252
17.0498664618
16.6996326943
16.5561825589
16.6125214233
16.7820865312
17.0176186325
17.3479116603
17.9456109486
18.6543153423
19.810078817
21.5227769321
23.9605003237
25.7932808146
25.7314595105
25.912232473
27.2327851761
29.2249088977
32.0248683665
31.3619232155
30.0000714348
3.46810531327
0.0471035175372
0
0
0
0
0
0
0
0
0
0
0
0
0
0
0
0
0
0
0
0
0
0
1.15161438667e-08
76.6274914957
12.4985081668
12.6483710362
19.0521864465
13.0001610042
12.8044390601
12.8314109558
14.9971033317
13.5001059921
18.8493438065
20.2937250549
17.9315336747
16.4793956594
14.3426453862
16.8263194207
16.42885233
14.2411990134
13.361031086
13.5873478613
12.8815403721
12.7777528349
12.7000354641
12.6379115913
13.9833468884
17.6701641946
20.2542904736
22.4982325772
21.4656913794
18.9845850519
15.8637918793
16.0155534378
16.4178525238
17.4241156294
17.7526361418
17.8680014909
17.8501156836
17.2335854197
17.0922862668
17.1814695762
17.3321932542
17.580151666
17.8812239064
18.5534366373
19.8147779129
22.137110819
23.6737514941
23.956508037
24.9868853556
25.9782137372
29.5651170601
33.8172365411
40.330679483
44.1364447776
43.1651645804
6.0313088008
0.0123705249472
0.000299514204995
1.00536751933e-06
0
0
0
0
0
0
0
0
0
0
0
0
0
0
0
0
0
0
0
0
0
1.9353267089e-09
2.56061400459e-09
13.1698499178
13.3242165809
18.4308977911
13.0229686123
13.2754113361
13.1865385209
14.6696473109
14.163146179
19.2135683273
20.8592966744
18.4042801315
16.9507876843
14.8264909176
17.3909987996
17.0891485484
14.9853366091
14.0908708097
14.3856349155
13.6618633725
13.6844567698
13.6207147977
13.0227267549
14.440321272
17.7959676992
20.099922077
22.5915489884
21.9099690807
19.3103951638
16.0772241101
16.1435605608
17.229712698
17.1699699905
17.2712052473
17.7292927966
18.8027598804
18.2087789366
17.9785963297
17.7927028962
17.8814873205
18.2376217404
18.6690733644
19.4059679705
22.1119586466
24.6815791629
24.7126354198
24.8867449514
26.5442638843
31.562147424
38.0595857517
43.4917833829
48.3683830953
40.5159355569
0.0517334188808
1.69616902257e-05
1.06425509851e-07
2.15715883717e-07
3.31259102616e-08
0
0
0
0
0
0
0
0
0
0
0
0
0
0
0
0
0
0
0
0
0
1.43045676883e-10
6.49528386394e-10
14.238967088
14.325974675
18.4046908341
13.8215348365
14.4315673605
13.9275904199
14.64402015
15.5970956351
18.9568263896
21.2102560755
18.9517017699
17.5071221091
15.4379047331
18.0363768709
17.7829302732
15.9242557569
15.0515688092
15.3737219763
14.4416461212
14.7083186481
14.9237384926
13.7032542533
14.9146350941
18.0729460669
20.1214026368
22.3641278008
22.0827997784
19.6627673811
18.7322202596
17.0622173336
17.7104294102
18.4340645078
19.4119006986
18.1851877985
18.5476001136
19.3265001442
18.8678612055
18.9037762948
18.7801307296
18.9223158715
19.463006268
21.8854243433
25.7934203952
26.681631177
26.1154232731
27.7018189224
33.9454428587
42.5114769593
48.2035874577
46.8634711405
18.1979073142
0.000176832469402
1.2099460488e-06
0
0
0
0
0
0
0
0
0
0
0
0
0
0
0
0
0
0
0
0
0
0
0
0
0
0
0
15.8033059959
15.5625231205
18.8987925485
15.7881303502
16.5071651678
15.0983457254
15.3949767617
17.7484669967
18.8946147667
21.6781621352
19.6408621033
18.1639097635
16.1595585497
18.7156835121
18.4706998227
16.9812698178
16.6101181382
16.7202468088
15.3048087351
15.8671843391
16.5847405732
14.7880022597
15.1963694916
18.4064098102
20.315740886
22.1111030247
22.2365531648
19.5953110639
19.912657722
18.7701568798
18.9441117691
17.5613029885
18.3538470104
19.7579470212
19.432266133
19.7053092026
19.7810047891
19.7512676744
19.9271020763
20.0171195241
21.573156376
26.2562575265
29.0120006154
29.0127781029
29.6736357072
34.6029166353
43.7834519216
49.5850950528
38.4087260419
0.169025508525
0.000295492264504
1.35302140293e-06
0
0
0
0
0
0
0
0
0
0
0
0
0
0
0
0
0
0
0
0
0
0
0
0
0
0
0
0
17.5007321006
16.7093268483
19.4914261198
18.5474020717
18.1908200502
16.5175991076
16.2472395503
18.8213902583
17.5019433093
21.9944659831
20.458703064
18.9143683724
16.9848942634
19.4121701081
19.1067207088
17.8430271039
18.9931237082
18.3697908765
16.3029244438
17.2195956759
17.9579696189
16.2346339821
15.0364474682
18.2886629743
20.4184171867
21.8834510686
22.2367824287
19.57001976
20.1356522524
20.0777625454
20.114562772
18.2161326807
18.7709600053
19.1839327886
20.3490440956
20.9186949053
20.9678213993
20.8301646006
20.8783613944
21.8435197654
26.2031920965
30.7344272061
32.4051893269
33.0188743735
35.7634084657
42.2444954613
45.0182004027
29.06856366
0.455115823421
0.00065887617516
2.3075114737e-06
0
0
0
0
0
0
0
0
0
0
0
0
0
0
0
0
0
0
0
0
0
0
0
0
0
0
0
0
0
18.2357209567
17.5105301956
19.8253259376
19.4839006491
19.1472602974
17.898972046
17.3521246398
20.1694677206
18.4245258522
22.4435288332
21.2817840039
19.7179498937
17.905940159
20.1460478585
19.7722598944
18.5723061527
19.8768447861
19.365231842
17.3006912229
18.5999065517
18.5654338161
16.8432484029
16.1708817157
16.3400038355
19.8784701602
21.3119253869
21.95488163
19.4897086947
20.1051168722
20.4922507215
20.9995442366
20.3799497591
18.5472804564
19.015079728
20.4443837328
21.715286592
22.2701622028
22.4796374342
22.5189748122
26.0651815309
31.4675560199
34.9146056579
36.0756426493
37.3762687972
40.8940519649
39.4249170412
25.3482045611
2.40431070922
0.0021658037914
6.16832132364e-06
0
0
0
0
0
0
0
0
0
0
0
0
0
0
0
0
0
0
0
0
0
0
0
0
0
0
0
0
0
0
18.1697102592
18.0501851269
20.0425176891
19.5812807389
19.7673902473
18.9897363154
18.3319724449
21.4883843968
20.1436093107
23.0501130957
22.1618913787
20.5578614411
18.9141956242
20.9310005878
20.5167072054
19.4644490083
20.5845052949
20.2379893445
18.3974530604
19.5481943354
17.7261169037
17.4671442925
17.1428355661
17.5230793423
18.4544543866
19.2670671414
21.0366722684
19.3478450064
19.3780009832
20.3991493678
21.3476639768
21.707970196
20.1760807219
19.6972957566
20.2853349587
21.4726728162
22.9220786751
24.1816516264
25.7377377303
31.1514782274
36.0095514981
38.468152968
38.8302798593
39.0790396555
34.3392451886
27.2316703292
15.0741387499
0.00752304013293
1.68523136462e-05
0
0
0
0
0
0
0
0
0
0
0
0
0
0
0
0
0
0
0
0
0
0
0
0
0
0
0
0
0
0
0
18.350575405
18.4472940883
20.2736751235
18.2665036576
19.9965917356
19.5653311011
18.992740668
21.9885287213
20.8944610618
23.7096741746
23.1059190024
21.4136599535
20.0234427905
21.7548658097
21.3118491831
20.5020012807
21.338316328
21.2242046151
19.6128303714
20.8818692232
19.0299369669
19.2446620243
18.3566150615
18.7443139142
20.4917400845
21.0752361796
20.6281746107
19.1654477457
18.6830447517
20.3115299884
21.3167765391
21.8504600691
21.8292144785
20.7309525833
22.051359959
22.196653926
23.478913518
25.8646821384
29.8582984915
35.8494557444
39.7728481408
40.9428712712
38.640860934
31.4617496824
29.3504281006
25.6358200871
0.063127801729
0.000143713529655
0
0
0
0
0
0
0
0
0
0
0
0
0
0
0
0
0
0
0
0
0
0
0
0
0
0
0
0
0
0
0
0
19.0425677891
19.1166266725
20.4827271076
18.6392803272
20.1800636188
19.8438220542
19.4646297827
22.066372314
21.442004275
24.184906079
24.0643620804
22.235946941
21.2314261726
22.5790209343
22.0866906014
21.5199742118
22.0516752218
22.3092042058
20.8822869898
22.1992688577
20.810981454
21.4546786203
21.0880938049
19.47144265
20.9917112816
22.077923491
22.1515726148
19.0392660717
17.8714901872
20.1967338752
21.432937501
21.1206813948
21.2183234765
20.9611928201
22.0182941152
22.5888317062
24.201321576
27.6779120345
33.9918149263
40.2615445836
43.0035598855
41.6749793197
32.4647662458
30.0717007457
29.0413895379
0.717767684672
0.00100145237242
4.06091163517e-06
0
0
0
0
0
0
0
0
0
0
0
0
0
0
0
0
0
0
0
0
0
0
0
0
0
0
0
0
0
0
0
0
19.9267354512
21.25562742
20.8202774682
19.6535773999
20.6728759063
20.1822972463
19.9250540161
22.1277673618
21.9627915424
24.2839757201
25.0274712573
22.9963207565
22.3090572519
23.217860285
22.8452013521
22.260983018
22.1002097629
23.313371221
22.2695588206
23.3391035459
22.901835644
22.6759118316
22.3943166576
21.9210509777
20.9216524111
21.8195240573
23.0935485455
18.1384471528
17.3407714364
19.3041224332
21.4212917218
21.8423599422
22.3495749274
20.9218868893
21.726831696
22.7955866662
24.5519551417
29.3550394171
37.897263949
44.3008771804
45.6672515884
37.8427771042
31.7967047502
32.7160107967
22.4157091906
0.00678793502384
1.73244428596e-05
0
0
0
0
0
0
0
0
0
0
0
0
0
0
0
0
0
0
0
0
0
0
0
0
0
0
0
0
0
0
0
0
0
20.5854336547
21.9449464343
21.489066295
20.5634962601
21.3591975924
20.7340877745
20.4626289687
22.2877885246
22.4881572846
24.0977121065
25.9037405272
23.7735123298
22.9241652508
23.7453877791
23.7257932829
22.9396373564
22.1383517926
24.0152935797
23.7719901547
24.3261968595
24.1887764245
24.2415319236
22.5146459541
22.4784450734
21.9101691578
23.6035532111
24.4286706219
20.7200515235
16.9018636966
18.1580086681
20.766399199
22.1456646839
22.3149099771
21.536972527
21.2435432535
22.7988460165
24.4588183431
30.6679105967
41.4610994291
48.3083760148
45.2407049556
32.6596665265
33.7009943586
32.70267708
0.232730679084
0.000200145059155
6.72601062901e-07
0
0
0
0
0
0
0
0
0
0
0
0
0
0
0
0
0
0
0
0
0
0
0
0
0
0
0
0
0
0
0
0
0
21.0892497371
22.3053048909
22.0934215927
21.1905515964