/*--------------------------------*- C++ -*----------------------------------*\
| =========                 |                                                 |
| \\      /  F ield         | OpenFOAM: The Open Source CFD Toolbox           |
|  \\    /   O peration     | Version:  v1806                                 |
|   \\  /    A nd           | Web:      www.OpenFOAM.com                      |
|    \\/     M anipulation  |                                                 |
\*---------------------------------------------------------------------------*/
FoamFile
{
    version     2.0;
    format      ascii;
    class       volScalarField;
    location    "537";
    object      alpha;
}
// * * * * * * * * * * * * * * * * * * * * * * * * * * * * * * * * * * * * * //

dimensions      [0 0 -1 0 0 0 0];


internalField   nonuniform List<scalar> 
6400
(
0.87657199584
1.38376803224
2.17878468111
2.6739387648
3.14943548979
3.63412417308
4.2796740548
5.00863518197
5.37654124821
5.97286277298
7.18348141061
7.97414295505
8.62327097798
9.37027752213
10.3204411662
11.31334075
12.1747418042
12.9840018252
13.6653096804
14.0357202157
14.1646184039
14.4018874481
14.9646182546
15.8495817565
16.8308787186
17.701302133
18.394165636
19.0286620168
19.7134002123
20.4630053597
21.2225002741
21.7841361068
22.071759332
22.2177526312
22.2564843367
22.1638740196
22.2480878394
22.5979240672
22.5977076789
22.3519667907
22.5073437553
23.205617199
23.9190287911
24.2862256911
24.3671918165
24.2523171603
24.0108624578
23.6929512443
23.3113698281
22.8862821607
22.3168897928
21.3491639848
20.0957934337
18.6062853066
17.3740691783
16.4955996425
15.1675221066
13.0122334546
10.7172319233
9.0552111163
7.31293782896
5.50779344277
3.60635666876
4.55837308478
8.54679180895
13.4873868241
16.4918138621
16.2198050855
14.2612183991
12.6884574238
11.8657653296
12.1072964442
12.6794506985
12.5817407356
14.6433510639
14.0909754754
15.9677751177
9.87051012129
12.8690943537
4.81109091845
3.13720709169
2.49534619259
3.0967475413
4.34099211093
4.21645282208
4.07572265273
4.26777470988
4.69077485515
5.29946766684
6.07874056472
7.02670598852
7.97162955759
8.80010803865
9.59183413348
10.3959274446
11.3188761661
12.2873719538
13.2178320424
14.2314131105
14.4210101415
14.3414414596
14.5372799565
15.0553563063
15.9187509985
17.0520563089
17.852426915
18.5090702759
19.1888742734
19.8929817029
20.6100070655
21.3339313263
22.0054594028
22.2893466361
22.4336307392
22.5146521464
22.3083814867
22.454850951
22.8275932804
22.7599199905
22.3403097844
22.4582099021
23.8814850067
24.9907145741
25.2457128419
25.2546025039
25.0291801189
24.6443897613
24.2259480772
23.6272905855
22.9919135179
22.5150432648
22.2333181235
21.2605957954
18.831554122
17.7570217891
16.5818762346
14.4867937685
12.3932729135
10.4105301381
8.46101221059
6.70357027516
5.8975115823
4.01488631939
4.95380614575
8.6641697619
14.5251224837
18.2923889746
17.0405459735
14.9032847798
13.0183317253
12.362396807
12.8195873583
13.949130188
13.3928716096
13.2586466918
12.7456475947
11.5554719687
9.72091459592
8.17295280292
4.25812533092
3.20686651878
2.80466048036
3.31625940995
3.57307306401
4.07231284189
4.49188263423
4.47105595645
4.60108069526
5.20694594777
6.05723101205
7.01057193636
7.97526444254
8.85177804359
9.64944756323
10.3086465626
11.1407502772
13.8245338762
15.8398550474
16.2243205943
15.5695709701
14.1509772587
14.1716767661
15.1931164972
16.1117383333
16.9580244703
17.8394069098
18.6185666994
19.3013905599
19.9842726918
20.701947522
21.3851579485
22.1638463717
22.4532384266
22.3224868937
22.797426468
22.6055281732
22.351378853
22.9694335853
22.9351172172
22.5658162943
22.6958964264
23.3892448391
24.0927011051
24.4661662139
24.5719727763
24.5004432226
24.2924345118
23.968867612
23.5324070866
23.0071887437
22.3963131237
21.5883785133
20.4564327615
19.300801673
18.1895911081
16.4152699875
14.3927512204
12.3997463965
10.4613184029
8.6289419732
7.05219660006
5.57985253753
4.59392642089
6.26015909022
11.0247936039
15.5149465757
17.7256231556
17.8633770528
16.3107142008
14.6804242146
14.0356772974
13.9798578696
13.35002177
12.7797736222
12.768291633
12.43333304
11.4559267942
9.83530409614
7.4034184675
7.58405514043
3.18485034588
5.4778190452
3.60698160974
3.70874392405
4.39281351027
11.8482337916
10.2251408268
5.19645986231
5.18645827475
6.06061106736
7.03551067517
8.01798837708
8.87012971485
9.69688885992
11.4263283468
13.5486462292
15.2132885597
15.5934977408
14.4636014752
13.5908138648
13.8831243991
14.42619827
15.151977973
16.0768084038
17.0486703728
17.9696391052
18.7812024067
19.4382836334
20.1497913506
20.7819644494
21.6270378961
22.150825802
22.7871702802
22.6742827814
22.28066895
22.7120323342
22.5567288396
22.4186487259
22.5856237656
22.7442877506
23.026053896
23.5597794815
24.1258173137
24.4943688699
24.6397762425
24.6051526134
24.4256428592
24.1232758201
23.7077847208
23.1878266485
22.5501669404
21.7397894833
20.721502582
19.5584912947
18.1864367335
16.4568781886
14.4915552812
12.5140300108
10.6366564444
8.94799429907
7.55368122578
6.54378344718
6.32736042626
7.47632179908
10.4147611561
15.9136041666
19.4273870523
19.6206694367
17.980449529
15.6533554702
14.0867134168
13.3384266484
13.5359467037
14.9483786714
14.8885152757
13.5684209168
13.4234100813
16.702608499
13.1103049001
11.1324542716
5.61474906123
7.53267977793
4.33232030433
4.64983682088
6.52610821261
11.738611068
8.15588969253
5.62000110805
5.70659928333
6.28442380843
7.18278181411
8.18119203758
9.59888700264
11.9267797761
12.9480883136
13.3164128987
13.2968398382
13.047913984
13.0992639832
13.6444116546
14.0192847739
14.4665510412
15.2440158087
16.1844193901
17.177190406
18.1345363479
18.9087823971
19.7133448166
20.2694778883
21.1339110809
21.665556825
22.8723018962
22.7088093603
22.2658787163
22.437333478
22.1512898382
22.2221982713
22.4543007836
22.7160553517
22.9708820047
23.2917510928
23.74349848
24.2203673097
24.5717666564
24.7419590139
24.7391790816
24.587801083
24.309635278
23.9174114294
23.4134524038
22.7814697055
21.9887676901
21.0135856812
19.8444450332
18.4039779987
16.643657957
14.7056638471
12.7989571829
11.0672680008
9.62317883565
8.57440105813
8.03723150317
8.23245921029
8.64540486384
10.5920456206
15.4083016659
19.5003299908
20.9235316645
19.780089681
17.0397887087
14.5931398332
14.2984851749
16.5606558322
17.4318237202
16.3936223092
15.474294729
18.1168114531
21.1214867146
16.4428930073
15.5596097453
9.91619316854
9.0747757436
5.3933584664
5.97722257554
12.0181964606
11.4831354789
6.48399955598
6.19943926541
6.32366705038
6.63374408213
7.43993443187
10.0968002965
13.341254386
13.7684440852
13.4002614949
12.4451484346
12.038441259
12.3543943591
13.2796730182
13.6251185533
13.899302959
14.5361968633
15.393790603
16.3727665799
17.2913886444
18.262327812
19.3250717754
19.8189403265
20.8608807564
21.1776499545
22.6536858752
22.6279872798
23.4477470543
22.5432622344
21.7901804702
21.8417106964
22.1955029307
22.5677292631
22.8981093614
23.2033864564
23.5445481641
23.9551558568
24.3757651868
24.7075660992
24.8904401363
24.9129307869
24.7883177394
24.5373205964
24.1745496122
23.6999301004
23.096305684
22.3352886443
21.3846082339
20.1997171979
18.7240736976
16.9802104689
15.1319912611
13.379524964
11.8681091971
10.7114465215
9.98423670519
9.82753884348
10.4855978082
9.61835807114
12.3559310907
17.2845106381
20.7890767356
22.1863939165
21.2926505938
17.9493485444
15.7846600224
17.5957954948
19.8026899514
19.2810747825
18.2822868489
18.3536654237
22.9000074209
24.4755757404
19.4814364103
19.2819446591
12.0267599703
8.89155569781
6.55939659631
6.15289164933
11.9493951319
8.31012674001
6.66951174339
6.7785681008
6.89546712224
7.58159841955
8.05187681823
13.1098492951
13.7743968377
13.7990799582
12.4158850676
11.3668067434
11.6118371194
12.9342559487
13.2614304597
13.3170874862
13.9158095918
14.6536379072
15.5132381498
16.4902103304
17.6169184024
18.7016194267
19.3495217506
20.7303622045
20.9267533351
22.5383363196
22.357251335
23.414698639
22.8431340256
22.2895530658
21.583408817
21.7710225544
22.2665740899
22.725239354
23.0989796835
23.4384380531
23.7980661618
24.1915591708
24.5801742082
24.8965019596
25.086363888
25.1288725879
25.0307867336
24.8122415301
24.4884932262
24.0573451104
23.4983901071
22.7779499665
21.8513978544
20.6686872639
19.2086294606
17.5464828078
15.859431509
14.3265769029
13.0508938358
12.0769909956
11.4973066072
11.355174759
11.1800516725
11.1974512363
13.7924034356
19.8725489425
22.1789308141
22.5268582411
21.488680913
19.2441005019
18.9996817489
21.5578743607
21.9972952712
21.161682408
20.5733283161
22.5312830663
25.2591097233
26.706885129
22.1300188205
20.9926380631
11.7226778016
8.50161536311
7.68630114574
12.0893617052
12.0321592216
7.26978468064
7.3060971411
7.44192041044
7.5490374536
8.10710424814
12.8776946988
13.807917656
13.8718572863
13.3643027713
11.2021226426
10.9257367857
12.4987627004
13.0900657391
12.878386617
13.1911812677
13.963249756
14.8429851837
15.7285801168
16.7652641148
17.7184419331
19.084957494
19.4563850137
20.7433039025
22.2836556791
22.6701935205
22.0303883386
22.8522926332
22.9448055076
21.6676209668
21.5574731245
21.9128341662
22.410521642
22.8957107892
23.3092068125
23.6819942712
24.0610868545
24.4536042051
24.8277857596
25.1344690234
25.3290393326
25.3891829661
25.3196751533
25.140718359
24.8670090919
24.4933152769
23.9941069537
23.3277903174
22.44296658
21.3010814644
19.9213851056
18.4156785788
16.9482979415
15.6283450221
14.4639605297
13.4895628217
12.8756861358
12.6517281653
12.6566054452
13.0081281674
13.1081520396
19.9365558261
23.9473876821
23.966845873
23.3943133813
22.4640791378
23.2987123368
24.6546590505
23.972540454
23.291592905
23.5003782813
25.8096747592
26.4640944767
27.0286437518
24.1496830002
22.0133850113
10.9711932449
8.38629956959
8.34680702564
13.0550989065
10.9623858181
7.85028594758
7.99528449958
8.2593574502
9.49677506878
8.19696027473
13.6515622688
14.3167106905
13.9034456456
12.0888123536
10.7962336024
11.0653334093
12.5881229427
12.7904904355
12.7598999239
13.2200400919
13.9684004822
14.9352012635
15.9295523786
17.3916649449
18.6280855729
19.0410374049
20.9905479762
20.6179268897
22.504878895
22.031642352
23.2914882205
22.1330173112
21.7111237706
21.5691979219
21.7261325533
22.1103005599
22.5889282334
23.0803682573
23.5291568652
23.9396051858
24.3421275616
24.7422987737
25.1143667613
25.4184381268
25.6179828247
25.6959683114
25.6595732779
25.5288287168
25.3165876076
25.0146582951
24.5924424703
24.001843778
23.1921392285
22.1464756411
20.9210954185
19.6387956635
18.4019080052
17.1876720414
15.9283869854
14.8229846255
14.2682139543
14.3511329662
14.6833554404
14.8905660769
14.7303652047
16.512408013
24.0771715113
25.7683177264
25.7784940722
26.4219037195
27.4685008136
27.1063184714
26.088796972
25.8883951866
26.8710221413
28.0404408904
27.8620544161
27.2281363297
26.1995644746
24.8246801554
10.3971173204
8.79240485604
9.50381076223
13.1118224943
8.92847597082
8.8635931492
8.69048634027
8.95103288437
12.1105015046
10.8112755796
14.4855348494
14.5759961516
13.9600664027
11.3610498738
10.8148221967
12.4330945165
12.8290023849
12.5353217849
12.7275493582
13.381640361
14.1032159925
15.0148084552
15.8690816844
17.5596482464
19.7145159688
18.9805819201
20.9403171478
22.1843057422
22.7556868317
23.3041497971
22.4674526722
22.428625035
21.3955010733
21.4756428052
21.8921076703
22.3281645269
22.7933039145
23.2818537745
23.7581375461
24.209960465
24.6448623929
25.0610772535
25.4386185496
25.7461080921
25.9541505857
26.052282297
26.0540495798
25.9809186725
25.8424301112
25.6273889688
25.302616751
24.8177912517
24.1299929768
23.2485551048
22.2541582234
21.2370386329
20.1567165382
18.8199181078
17.3183013262
16.2674735342
16.1496057411
16.7420175509
17.2774878083
17.409636513
17.1099244195
15.8201009823
15.9390132349
27.4644580109
30.311049234
31.2865893104
31.1018250982
29.6404900619
28.7013491463
28.976012229
30.1122560285
30.4159851084
30.1300674653
29.8020216843
30.1230707276
30.2984614886
10.3316545019
9.60583972056
12.9487047056
13.2457579682
8.98955299143
9.61020771572
9.37895034453
9.88576614247
11.5769127681
14.3366295246
15.2956650976
14.8274030238
14.1788460774
11.3403285943
10.96437723
12.9622318453
12.9221467253
12.504367739
12.7559637344
13.5234414984
14.480657423
15.3766868675
16.0599675455
17.187742228
19.8894062022
21.0665162858
20.5309044303
22.3203023273
21.5425368215
23.339313258
23.6019736049
22.3665770139
21.3558891872
21.5874127002
22.0898842087
22.5572798423
23.0218535298
23.5075121491
23.9994090103
24.490737206
24.9683372471
25.4109261756
25.8009606677
26.1169604921
26.3378105921
26.4613153585
26.5078613707
26.5004971958
26.4466410681
26.3338843712
26.1298285559
25.787887322
25.2804151592
24.642247958
23.9486965442
23.1734314422
22.0243959667
20.3592251458
18.9120890392
18.4040207328
19.0684136165
20.2018923654
20.8629768038
20.8987757972
20.2588422963
18.7012518389
16.3413934349
17.3569165709
31.6805419912
36.9088191955
35.5066276957
33.0076004668
32.1319240996
32.5991101572
33.3657495935
33.6620692407
33.9094775173
34.3684323393
34.951114212
35.6090576364
10.6463766938
10.4565186914
14.5789424969
13.9206712435
11.9779310573
10.8186948493
10.2884575247
11.3511139199
11.0085871256
15.2952901407
15.9260592517
15.1503710704
14.23580309
11.9315082886
11.7271455965
13.4326120029
12.9340020602
12.58187794
12.8758718174
13.5706435847
14.6361121509
15.8378901389
17.5536592958
17.3329080531
19.3831165315
21.4523544747
20.4044815999
22.5978691318
23.3688836843
22.4653709102
22.6318216971
21.6471939056
21.654725326
21.9196633389
22.3450280443
22.811396368
23.2807667967
23.7673533878
24.2613601356
24.7768791772
25.3050478546
25.7934064842
26.2044945553
26.5314464756
26.7699553016
26.9261490042
27.024820423
27.0897772143
27.1282760011
27.1303173739
27.068983225
26.9118960262
26.6565226598
26.3463418346
25.9798003848
25.2665918383
23.7606571987
22.0723540868
21.3333664426
21.797239519
23.4398203588
24.9980792473
25.7377226665
25.8064471784
25.0509729698
23.2039604433
20.123054538
16.0268755972
26.6641046986
37.5555993919
40.447894627
37.5614557821
36.7270260408
37.11459537
37.7050768621
38.0309790727
38.8920919752
39.5969836845
39.5443711636
39.7495015277
11.2228057413
11.0926248525
14.3034703973
14.3847545943
14.3866119925
11.929075603
11.3305930648
14.2372340986
11.3464632095
16.1517514941
16.4062219097
15.4842822759
14.2961209299
12.5214504852
14.3985630052
14.4947931204
13.1073772737
12.7952919348
13.1285486851
13.7190689901
14.6010759012
15.8256794144
18.8712444936
19.8131622892
18.8514764056
21.5308590022
22.4366143276
22.1573943616
23.3408172295
23.6432854139
23.0051453926
21.6742882062
21.8611784099
22.2551562699
22.6554961149
23.0975924071
23.556309307
24.0587707475
24.5743966184
25.0934224732
25.6485834355
26.1919455941
26.6466474543
26.9937457578
27.253252869
27.4493076834
27.6079329979
27.7492287331
27.8814310334
28.0018793175
28.0991083241
28.1723927619
28.2499261648
28.3351571323
28.2093867918
27.2172105186
25.4907819571
24.9398516221
25.8897310958
27.6790839825
30.1925245017
31.8144441936
32.0108346052
31.8086301828
30.214949868
27.6350457393
24.3204159084
17.9200205179
18.9420075005
32.8678380579
40.0368460549
41.1621114208
39.7224117297
40.8226987596
41.9048815249
43.3064659523
44.5517007526
45.0705143573
45.0550066668
45.2433623666
11.8589843893
11.7763671082
11.4336122445
14.6951152981
14.9002135453
12.6719596791
12.2714105403
15.2028098461
11.9756296932
17.0309684981
16.8362358406
15.831902903
14.4697899288
12.8177187298
15.5628249946
15.0383424027
13.5191087386
13.1813691402
13.4768728922
14.0372550837
14.6914983989
15.7252365207
19.4007885905
20.8843439731
19.1954001485
21.5872637617
22.9676474514
21.6041680908
22.9753510734
23.1717094506
21.9040941811
22.0302330352
22.3144670979
22.6409213632
22.9976306205
23.438185318
23.889228093
24.3585172769
24.8993937882
25.4613003086
26.0332371949
26.6087592938
27.1125075558
27.498182948
27.7905100821
28.0348656618
28.2591613376
28.4740669108
28.6920557479
28.9225899808
29.1775350671
29.5247998192
30.0173032568
30.5241318985
30.3399681941
28.8012957161
27.9761546886
26.7440864017
25.3151659695
25.1529837419
24.7507472117
21.2948098897
13.6357636386
7.87788636643
0.828764818648
0.233446328468
2.74783893551
14.4465936352
21.519396894
21.9087393055
44.3971665164
48.6813893464
48.0803312611
43.6232873937
40.7283577671
44.1030932434
49.2331460613
50.47199235
51.8429059011
52.3620101302
12.6744751424
12.7620197095
15.3260750874
15.31801533
15.3264182974
13.3025494883
13.3001845837
16.0243346993
12.9711970486
17.7877489031
17.243830636
16.2010737722
14.7234350757
13.1975137532
15.8322131611
15.2058492591
13.9303114955
13.6234062998
13.8563493204
14.3518437977
14.9484963859
15.7604873761
18.7826970275
21.7009912933
21.8306463014
20.9355588373
23.186753582
23.9338969419
21.7406588815
21.5557412088
21.8400204582
22.2680573508
22.6676964312
23.025654103
23.3996374365
23.8027367854
24.2516061394
24.7355152842
25.248623592
25.8414362926
26.4620494376
27.0677428166
27.6058777129
28.0341206713
28.3773463551
28.6827514671
28.9768564254
29.265340544
29.5475939797
29.8414903588
30.2343664748
30.8877888796
31.8490563901
32.656116716
31.9719995809
29.0507557373
21.2902637304
0.0347117428202
3.81793174899e-05
7.15725717373e-07
1.21320413862e-08
3.51010058389e-11
9.97493964785e-14
1.7266431731e-18
1.35058541283e-18
3.27891080975e-18
2.21024512675e-17
1.03526647742e-16
3.8242795353e-16
2.43026988068e-15
1.90284706558e-15
1.65082328526e-13
9.39594284883e-11
9.44492749001e-09
7.16710447485e-07
0.00016504109744
2.77816101584
54.0153322433
58.0008749317
59.7383623107
13.438396438
13.6281547719
16.9315783287
15.9598991042
15.4017245662
13.9428970049
14.3010683717
16.708947032
16.6826276112
18.7239011742
17.708544698
16.6600110541
15.0572759888
13.7238167976
16.1180590472
15.3160538428
14.3303266494
14.0750665581
14.2387325874
14.6552656339
15.2238825056
16.0156259139
18.2451048883
21.9651353942
23.2145331442
20.620115672
22.7258351004
23.9843235691
23.6376140072
22.0317950083
21.9430151159
22.4981169791
23.0318387168
23.4640499439
23.7856731106
24.19600841
24.6330065368
25.1321549581
25.6599981914
26.2547263966
26.9181925698
27.5730905072
28.1362412278
28.5878660471
28.9910150872
29.4097286059
29.8135674502
30.1457667072
30.3866141595
30.6820482473
31.2145359265
32.1363823612
33.5220833245
34.4602306143
28.3243182605
0.0513730138287
1.91952699943e-08
7.7731580135e-11
2.24787146705e-12
3.2724888031e-14
2.65882799825e-17
4.43650931468e-20
3.12731577652e-21
0
0
0
0
0
0
0
0
4.34956292805e-25
1.46701752934e-22
2.19434553115e-20
1.2730890052e-17
1.77819290274e-14
9.62936903995e-10
1.46233593417e-05
27.0803068578
62.0563468682
14.0619589699
14.2739086897
19.0978729074
16.4505655685
15.2197735915
14.5130878094
15.0165599819
16.7298387862
18.2710143133
19.804436672
18.3292743432
17.2512038535
15.6395320505
14.547402362
16.6110266157
15.582286204
14.8122275364
14.5783903002
14.6612146277
14.9952094405
15.4952684303
16.2302690207
18.0265545506
21.8419742015
24.2109174217
23.389988939
22.1967023407
23.3510360501
23.3503407307
21.9675810267
22.4031201897
22.9925137974
23.5764098856
23.9571188814
24.2946428295
24.6237955863
25.0738846491
25.5566078178
26.1078372561
26.7190985269
27.397485856
28.1029196622
28.7413971119
29.2178133793
29.6679220913
30.2051278771
30.7309082956
31.068846374
31.2227475371
31.48215061
32.08520838
33.0764673248
34.5371230471
28.7414567037
0.000127113206428
2.77903507105e-11
9.11402501788e-15
3.68533530397e-16
5.02484374615e-18
1.37794871595e-20
0
0
0
0
0
0
0
0
0
0
0
0
0
5.60441133597e-24
5.56920149003e-23
1.22088963385e-21
5.91992500957e-20
3.28747019824e-16
2.73637055329e-07
5.27479592768e-12
14.5486570927
14.7493181162
21.1704385584
16.8238042117
15.3057678341
15.0464284087
15.8202515712
16.0379514765
19.2232347157
20.5771178968
18.9345220819
17.8588645501
16.4252887816
16.4626968968
17.3003323871
16.0921727594
15.4920137957
15.2814605086
15.1923416862
15.4228785417
15.819934324
16.479714192
18.0037021411
21.7092982994
24.6269765715
25.0484662002
21.8970829254
22.2049952114
22.0002373525
22.0926386589
22.7091516888
23.5021011824
24.0835705729
24.4893607008
24.8414301729
25.2553756744
25.579057989
26.0497782697
26.5964586139
27.204533506
27.9485384149
28.7161952341
29.3945746578
29.8329367804
30.2844308531
31.5001746063
33.175658263
33.689781162
32.695041126
32.635817106
33.135961725
34.0860088643
27.2461754088
1.47061565559e-05
2.21641043606e-10
9.94316569854e-22
1.00476921165e-18
1.63950645642e-20
0
0
0
0
0
0
0
0
0
0
0
0
0
0
0
0
0
0
8.65863980743e-23
5.86348786316e-22
1.08127577559e-19
93.9086353701
14.9804728217
15.147312943
20.9870212203
16.2115165562
15.4885506621
15.5083452311
16.7351831496
16.0048150218
20.0255413283
21.3013073794
19.5152687591
18.4267878087
17.0325263314
18.7207347989
18.2691509429
16.8076738683
16.2767722333
16.3595268351
15.9472753545
16.0205403011
16.2446244527
16.7673608194
18.1249603232
21.5626648301
24.4996101179
26.1608487388
24.7167166502
23.6421331221
23.0725333381
22.3720889223
23.0256266944
24.1727080609
24.5284587446
25.0197671628
25.6598574479
25.8595444234
26.18258551
26.6522646804
27.2091984583
27.8140241415
28.4937645065
29.3084261316
30.124527619
31.0022138449
32.0969554202
33.6993509891
34.9589529567
34.8250398758
34.6367276409
35.1143958112
36.0182753132
31.5642625522
6.68778617964e-05
6.10461327689e-10
8.02343040311e-14
1.08973563535e-15
0
0
0
0
0
0
0
0
0
0
0
0
0
0
0
0
0
0
0
0
0
0
2.66424951033e-22
1.93918365603e-11
15.4873147562
15.6323570105
20.6041184062
15.8507501519
15.7761825718
15.8848439251
17.5195827936
16.4567189221
20.7166016251
22.0131331849
20.0971717795
19.0036962104
17.5466968202
19.4596798178
19.1677655327
17.5981593371
17.0497737766
17.2472478905
16.8541149035
16.8416840325
16.8741573735
17.098790153
18.4076967347
21.5451559069
24.2268283258
26.5019689999
25.9344511659
24.1324083532
22.3985146228
22.8986472216
23.5785761712
24.6842433904
25.4460106106
26.050962038
26.5095562036
26.5666683632
26.8685722156
27.3527649535
27.9180355914
28.5493055702
29.2282169097
30.1172522859
31.2869539063
32.8517862339
33.8840954169
34.1739648102
34.778405263
35.2100425436
36.9432368199
39.0641658604
37.9527360346
0.00060938737584
8.09150097594e-10
1.39533785833e-13
2.86190980371e-16
6.92923415366e-18
2.32590870007e-20
0
0
0
0
0
0
0
0
0
0
0
0
0
0
0
0
0
0
0
0
0
4.47736090848e-23
5.92395743476e-23
16.2433504764
16.3891310687
20.2481481118
16.1235340494
16.3391694246
16.364354034
17.4992858288
17.1866391006
21.2070887844
22.6901839851
20.7172872533
19.6350891629
18.1878145285
20.1384412106
19.9837171931
18.4884278329
17.8892677176
18.1163492577
17.7374904671
17.8110766482
17.7866422023
17.5935156362
18.8861252318
21.7144630365
24.1030093891
26.6043432689
26.4797362271
24.8199804515
22.8707363252
23.1319556858
24.2446798017
24.8165033583
25.4353850178
26.2657304608
27.4620271195
27.6172514059
27.8294161298
28.1572103447
28.6792160947
29.3890815125
30.180477815
31.2008202742
33.1663331081
34.9497508586
35.0694330653
35.1473055713
36.2104431547
39.3807198742
43.5230024333
42.2977286376
0.000174103871142
2.89217098483e-11
1.19684798589e-15
3.92407175538e-19
2.46214458408e-21
4.99056753908e-21
7.66364950069e-22
0
0
0
0
0
0
0
0
0
0
0
0
0
0
0
0
0
0
0
0
0
3.30934884977e-24
1.50267807126e-23
17.3862592099
17.4892208868
20.5138100238
17.0687233297
17.5165676438
17.2219178002
17.7864142083
18.5318318683
21.225197144
23.1927577791
21.4053288266
20.3425991793
18.9410424663
20.9108729126
20.8293783422
19.5475474271
18.9219116773
19.139126504
18.6287239695
18.8819551354
19.0236269541
18.3255121258
19.4290564461
22.0701649828
24.1682574145
26.4641693971
26.7275848188
25.4421048301
24.9693121336
24.0214738167
24.6833376706
25.7129199648
26.9521680974
26.8656578948
27.6698676782
28.6855584271
28.8937729293
29.3090740597
29.7146533838
30.3172553785
31.2539319762
33.2000273942
35.9630736128
36.8029541762
36.4620141161
37.5449551577
42.0699374813
48.9154839168
48.4309825207
6.26254596538e-06
4.38179516099e-13
4.09100325135e-18
2.79919928524e-20
0
0
0
0
0
0
0
0
0
0
0
0
0
0
0
0
0
0
0
0
0
0
0
0
0
0
0
18.9872351476
18.848256915
21.310648695
18.9894619939
19.5072308316
18.4967326026
18.7252521448
20.4856779775
21.4239898192
23.8065864384
22.2162976396
21.1371314064
19.7828605233
21.7213907314
21.6706665287
20.717767748
20.4492667047
20.4818841563
19.6124487769
20.0547746588
20.5716199105
19.3867576137
19.8495725566
22.5100612577
24.4289985414
26.3347740593
26.9153844223
25.5883011219
26.1711569486
25.6450968121
25.7971620737
25.3960467785
26.6126795886
28.1734211585
28.6503337619
29.3990546306
29.9616363679
30.3970205997
30.9699844223
31.5932053047
33.0798609354
36.3823248496
38.6768069752
38.9356437607
39.5438983925
43.4110795024
51.3695130578
51.086283424
8.88328556653e-08
3.91038991467e-15
6.83618692268e-18
3.13020282827e-20
0
0
0
0
0
0
0
0
0
0
0
0
0
0
0
0
0
0
0
0
0
0
0
0
0
0
0
0
20.6881368374
20.1294244424
22.1841542325
21.5461742197
21.2444232509
19.9846209644
19.7692672799
21.6390308179
20.620470048
24.2840643799
23.132747046
22.011244681
20.7046786341
22.547193359
22.4539192842
21.6959139013
22.5867338874
22.1062131856
20.7249900261
21.3605326549
21.9423216709
20.7604594197
19.9983145599
22.5114727458
24.6202831321
26.2449878487
26.9938804425
25.6843173336
26.5631625767
26.957268645
27.1595102514
26.1912905431
26.9120464561
28.0795458319
29.6101067477
30.6533870975
31.2686826422
31.6641944092
32.208975308
33.3418200196
36.4002230776
39.9418580417
41.623444371
42.4452385535
45.0330965209
50.9748717749
48.2635621045
10.629660591
1.05290635801e-14
1.52430409637e-17
5.33840700938e-20
0
0
0
0
0
0
0
0
0
0
0
0
0
0
0
0
0
0
0
0
0
0
0
0
0
0
0
0
0
21.5409778317
21.040584007
22.7518712975
22.6181070444
22.335559265
21.4030030161
20.9879835863
23.0450033558
21.6816049978
24.8971066875
24.0604956612
22.9332927186
21.701650616
23.4069739721
23.2539841175
22.5215830662
23.5727184065
23.230809629
21.8193751048
22.6590408151
22.7002892026
21.5911140595
21.0680746376
21.286725881
24.1465239441
25.7771582419
26.8072404116
25.6842950243
26.6564586752
27.5216908175
28.2764685304
28.0787957396
27.2404231711
28.1583829264
29.8771250761
31.5618611904
32.6944068834
33.3651104014
33.9254862272
36.4493069257
40.4906080232
43.5456983872
44.9538506135
46.6358702673
50.5913898091
44.3878955043
16.9748487254
5.56235116883e-14
5.01056756283e-17
1.42703558208e-19
0
0
0
0
0
0
0
0
0
0
0
0
0
0
0
0
0
0
0
0
0
0
0
0
0
0
0
0
0
0
21.6641843956
21.633713572
23.1183229012
22.8681253281
23.0479940908
22.5174006678
22.0606456184
24.429474124
23.4033948461
25.6923130988
25.0502879285
23.8903012632
22.7688827638
24.3158777629
24.1280476637
23.4843031226
24.3983088451
24.2192912153
22.9754616732
23.7100529732
22.492227387
22.3709402009
22.1397232758
22.4157351156
23.2634728342
24.2531682749
26.0078366885
25.5328948137
26.2411595385
27.5868187817
28.7682433373
29.4740671483
28.8221654206
28.9844278822
30.09029087
31.7417909081
33.6106160932
35.1448380719
36.6091033692
40.4405523929
44.4524174244
46.8886849556
47.8570379115
49.3065284772
43.3636291781
21.005998585
3.77263232305e-13
1.74044855834e-16
3.89876758225e-19
0
0
0
0
0
0
0
0
0
0
0
0
0
0
0
0
0
0
0
0
0
0
0
0
0
0
0
0
0
0
0
21.9603328351
22.0726380713
23.451704381
22.0189900505
23.3780935202
23.1539761196
22.800823268
25.0778908785
24.2937300581
26.5158829136
26.0847874139
24.8547327594
23.9139265159
25.2613003807
25.0487089337
24.5838091373
25.3109974639
25.3180590211
24.253457754
25.1408646615
23.8672963535
24.044029937
23.4208087663
23.7256771159
25.1096703985
25.7332845659
25.6862451555
25.3185358079
25.806199345
27.5733425029
28.8178187407
29.7693786548
30.2409191589
30.1261025766
31.5181912575
32.5344262004
34.379855068
36.8297801299
39.9806224829
44.544315458
48.0476959834
49.5203578391
48.3832281465
43.6474085754
36.1614239634
18.3888288096
1.46045600673e-15
3.3247995635e-18
0
0
0
0
0
0
0
0
0
0
0
0
0
0
0
0
0
0
0
0
0
0
0
0
0
0
0
0
0
0
0
0
22.7160055638
22.7930625596
23.8096157809
22.479755339
23.6756443933
23.529242434
23.3403916322
25.3263015089
24.9335692721
27.1412406086
27.1039056894
25.768528451
25.1240106978
26.1995230147
25.9370468688
25.6533117829
26.1931384543
26.5033648156
25.5773399276
26.5799823719
25.6643306928
26.1393108403
25.8897982864
24.7220144008
25.865994613
26.8529548455
26.9708071584
25.2133403262
25.3072501449
27.5218774893
29.0122929258
29.4638058979
30.0879119474
30.5224603881
31.9036314232
33.2171885387
35.283840021
38.5720876295
43.5333537325
48.6523434411
51.3396609551
51.0173821334
47.0402703
39.0906960702
22.9575393474
1.66054907316e-14
2.31685104297e-17
9.39488248911e-20
0
0
0
0
0
0
0
0
0
0
0
0
0
0
0
0
0
0
0
0
0
0
0
0
0
0
0
0
0
0
0
0
23.6630957459
24.6861710218
24.3231778963
23.4986788191
24.259030678
23.9664733223
23.8643159658
25.5488128207
25.5214647293
27.425755721
28.0951414467
26.5935538877
26.2037732349
26.9785005869
26.7836933786
26.4745881135
26.528307407
27.5872943249
26.9686131654
27.8417548809
27.640918106
27.4964592803
27.3328943404
26.9408364464
26.2319833275
27.0137083067
27.9644455672
24.7855369812
24.8793398127
26.8942768495
29.1080952216
30.0874844528
30.9016258541
30.6284835675
31.8456133877
33.5430802754
35.8602135078
40.2033126308
47.0319148784
52.5226602932
53.9739005946
48.9718714931
45.4824357339
40.1918500946
20.9692266851
1.5703826535e-16
4.0079942505e-19
0
0
0
0
0
0
0
0
0
0
0
0
0
0
0
0
0
0
0
0
0
0
0
0
0
0
0
0
0
0
0
0
0
24.3952650442
25.4528761544
25.0775494821
24.4265275014
25.0037285706
24.5818359054
24.4575713816
25.8539679285
26.0939327203
27.4519555919
28.9834280015
27.3896761284
26.8776546691
27.631552829
27.7007885028
27.2264741557
26.8090353597
28.3701751338
28.3960293059
28.9475219655
29.0033621741
29.1415618109
27.9394271487
27.9212008085
27.4637910262
28.6707200679
29.3466769824
26.6606615601
24.549110358
25.9776917166
28.5050588479
30.3416128208
31.2110932751
31.2854592808
31.6157451376
33.4639638623
35.9147091828
41.4888506339
50.3351699694
56.3944364505
54.7296926204
47.97343753
40.430052974
27.6325176355