/*--------------------------------*- C++ -*----------------------------------*\
| =========                 |                                                 |
| \\      /  F ield         | OpenFOAM: The Open Source CFD Toolbox           |
|  \\    /   O peration     | Version:  v1806                                 |
|   \\  /    A nd           | Web:      www.OpenFOAM.com                      |
|    \\/     M anipulation  |                                                 |
\*---------------------------------------------------------------------------*/
FoamFile
{
    version     2.0;
    format      ascii;
    class       volScalarField;
    location    "101";
    object      alphak;
}
// * * * * * * * * * * * * * * * * * * * * * * * * * * * * * * * * * * * * * //

dimensions      [0 0 -1 0 0 0 0];


internalField   nonuniform List<scalar> 
6400
(
0.820638957011
1.21227619577
1.84129470694
2.05884668996
2.28716277561
2.56947937669
3.12457277365
3.78842937921
3.82766460596
4.03447513842
5.13168904255
5.50681991834
5.75936395395
6.16358003577
6.87166752672
7.58891460067
8.05479292924
8.52259134065
8.97757550139
9.16133183532
9.01688537174
8.84989192484
8.92170617633
9.33222462957
9.83440160918
10.2342277655
10.4289459186
10.5799145224
10.8476798201
11.2401178359
11.7085505207
11.9330978941
11.8706545919
11.7319397659
11.5128155598
11.0405006176
10.7473376408
11.0378728701
10.7159904701
9.980431399
9.66495259168
9.98073065201
10.3726707248
10.5515344131
10.6019617798
10.5402835049
10.4545158963
10.4216500226
10.4336202278
10.4721473521
10.3299233872
9.39225186424
8.69968856242
7.98787307964
7.87574562154
8.71501842482
8.92731034954
7.83154205733
6.41035236698
6.0952293228
5.40408991394
4.59217879597
3.76416327241
5.55776531818
9.64407664152
14.5855568304
17.5711970778
17.2649738611
15.2315000802
13.5040465917
12.4992170354
12.5405261056
12.9465123688
12.7417128388
14.7021746912
14.1102032387
15.9655559234
9.85783187579
12.8652761493
4.80806935168
3.06608559452
2.35753183713
2.86906043691
4.04691622689
3.63432848521
3.12376327769
3.04404434152
3.25019168595
3.60587941675
4.09072979583
4.73472522929
5.37764893982
5.91293191457
6.42361242441
6.91985926467
7.51442871424
8.13671715373
8.8095822735
9.94887676791
9.89052880337
9.42718595172
9.11577306637
8.98612771107
9.28731928087
10.1491888867
10.3653506335
10.4739944793
10.7245443216
11.0444192365
11.3997514293
11.7850292007
12.2900503533
12.2443427929
12.152055293
12.0722531222
11.2654326783
11.2042822088
11.4785354349
10.9326975464
9.74030815169
9.31594665065
12.2263457886
13.7341154663
13.7422722404
13.6453539216
13.2038267085
12.5716125404
12.1144214377
11.398217687
10.8584143305
10.9735551862
11.9050150623
12.0052450524
8.21510435904
8.46940074174
8.39543816986
6.69696703966
5.76052198737
5.07896991677
4.39349523914
3.91137843083
4.88036967729
3.88560384732
5.69153458233
9.67375808636
15.4872525732
19.2029175587
18.0025406777
15.804283254
13.8065316961
12.9645146241
13.2265060189
14.1836026937
13.5366695625
13.3235379203
12.7605091564
11.5429803133
9.69974434993
8.15885997729
4.24143080631
2.99588923987
2.50955327846
2.98372208776
2.99286826055
3.14599430531
3.40065790386
3.30430712598
3.21492700036
3.54481123824
4.07907344764
4.7053510775
5.36744520105
5.95973514614
6.48900243577
6.86109102229
7.39869601302
10.88769981
13.1002933932
13.2748897792
12.1117052726
9.34150822063
8.4702867792
9.25587055491
9.62319393717
9.85691297544
10.2721977916
10.6289933696
10.8897719291
11.1890357118
11.5960413758
11.8894765314
12.6280971995
12.6935697575
11.97092358
12.9488769913
12.2064089135
11.0200495652
12.0946422165
11.3958929207
10.0149653221
9.50264255925
9.94652024407
10.464079948
10.698763352
10.768300019
10.7441491645
10.6552613082
10.5188381657
10.3326820364
10.1169356827
9.86703732197
9.51297920431
9.03726221103
8.95678448135
9.07425138665
7.74763985082
6.57041351339
5.78560827738
5.1510007239
4.60522177584
4.24346556953
3.84618529459
3.65567381177
6.32365006341
11.5875982539
16.3046880734
18.61360253
18.7147679463
17.082589927
15.3324828582
14.5289717678
14.3196219553
13.5735844678
12.9087834996
12.8224898739
12.4345930047
11.4287461332
9.79978653906
7.35858226447
7.54625846107
2.71167168819
5.26466540604
3.01539608745
2.9023250601
3.51043946657
11.6465645132
9.93974868058
4.14424554286
3.58244084438
4.12124057503
4.72829688065
5.38836895102
5.96220083275
6.62925369149
8.81612151879
11.2557079712
12.909211236
12.9217642132
10.8313391376
8.72467489291
8.61071872721
8.7569940934
8.96594321157
9.41120599056
9.94673521466
10.4574046679
10.8884995679
11.0779079551
11.5028863158
11.6737593638
12.4637215778
12.5065166941
13.4371076203
13.0455261649
11.7666805223
12.5632198717
11.5471643246
10.3393936557
10.0479505209
9.91032798598
9.89162065502
10.1504744119
10.4931727889
10.7149030406
10.8112949359
10.8104861668
10.7351798778
10.6036630408
10.4242906137
10.2072357879
9.95156659147
9.64820825375
9.31129122466
8.97738244399
8.4740092626
7.63100085592
6.67158938087
5.88111293697
5.29207311968
4.86109716765
4.56644488998
4.35601369429
4.56821278141
6.70564109546
10.7011673805
16.5393986064
20.1315846536
20.3186949801
18.6213679322
16.2261577255
14.5397499323
13.6443018063
13.7171988418
15.0402722215
14.9243586035
13.5616043712
13.3893813627
16.6699070943
13.0507380143
11.049796124
5.16107420493
7.22706619256
3.35632598937
3.68301291314
6.01461203273
11.5226444877
7.52795235655
4.12984756711
4.04209256629
4.33674344087
4.88481289305
5.59455473405
7.15164635596
9.99000227225
10.936380411
11.0126699076
10.3949152948
9.20339622535
8.42746417978
8.79707938903
8.76890448265
8.66196843085
9.00075450256
9.51707858148
10.1131114659
10.7108103005
11.0171277192
11.6014368706
11.5938217012
12.4839794184
12.3479753275
14.1291494822
13.2026245337
12.0820597372
12.4811305258
11.0638479249
10.4792434765
10.2034500362
10.1078659186
10.0889153493
10.1259500158
10.3000138575
10.5481588932
10.7483109618
10.8571421096
10.8717296843
10.8074997521
10.6838422711
10.5156665489
10.3120983289
10.0723566247
9.79478108185
9.47960322633
9.09374371732
8.51257520418
7.67928842316
6.78005350289
6.04020996261
5.53211972607
5.21885448454
5.05730734667
5.08455497223
5.67572613252
7.01595348243
10.3842742083
15.8730351978
20.1075121795
21.4956499974
20.2793899894
17.4691653121
14.9296800731
14.5277338503
16.7034714718
17.5140483157
16.4222683626
15.4572641931
18.0673602471
21.0590793875
16.3275974342
15.4212075733
9.52515820589
8.61940456895
4.14437029896
5.06792512819
11.769424359
11.1657245352
5.14944893529
4.50858241286
4.54895008299
4.65666623005
5.25293592382
8.4467322763
12.0761304149
12.3046012446
11.6175133804
9.93156819293
8.53256361393
8.07677603004
8.99897079772
8.84571334079
8.45848521322
8.67392216339
9.14870056751
9.76637938422
10.2206578465
10.8516315951
11.8658703061
11.5979537281
12.8981677376
12.3027983285
14.681392367
13.5006924098
14.984857438
12.967964944
11.0113105866
10.3473550764
10.2351164369
10.2304174241
10.2463086234
10.2636849183
10.321660818
10.4599549648
10.6505053593
10.825014649
10.9313874027
10.9533918842
10.896666435
10.7826233773
10.632370221
10.454095384
10.2429296791
9.98878041533
9.66938855649
9.22975956772
8.59673283251
7.78901661438
6.97133236619
6.3033381754
5.83037666158
5.59436820998
5.57410381006
6.03460570289
7.6667774337
6.90304616375
11.4884401895
17.3920199172
21.1933912093
22.6008718286
21.6242135377
18.2066153346
15.9940052354
17.7774767321
19.9385248452
19.3535125949
18.2970927213
18.3041425109
22.8093611797
24.3596953446
19.2801581082
19.0563118419
11.5660007727
8.08793185309
5.04294911412
4.83127195298
11.6078032002
7.42103010742
4.88541533012
4.95182115967
5.0145558154
5.73316356527
6.00067279007
12.1123539689
12.5005789436
12.3434275005
10.3589734961
8.25760440151
7.73136746661
9.28557989577
9.09761679952
8.29505765765
8.45120193553
8.77556783419
9.24838367469
9.86034172608
10.7598860247
11.7639892563
11.7588841028
13.5501337962
12.6266488538
15.2520169013
13.8750686722
15.4242346272
13.7133429748
12.5975613364
10.3897061156
10.0704150909
10.2146704927
10.3430028911
10.3912984443
10.4251675463
10.5002198434
10.6245618813
10.7831663647
10.9350911263
11.0340295118
11.0564223756
11.0055248036
10.9061290193
10.7819998934
10.6373472111
10.4588065387
10.222786432
9.89049178898
9.41019307167
8.75474174187
7.98366730845
7.23411461528
6.61111395659
6.14691937976
5.88021550112
6.01204596195
6.62972091959
7.01742974913
7.68447738824
12.2729181331
19.5780730077
22.2891461223
22.718595473
21.6163518811
19.3209301728
19.1382993032
21.7319541956
22.1245993332
21.2143541606
20.5487507196
22.4142879435
25.0736385486
26.5015466591
21.80538591
20.6112245958
11.0952815633
7.25686224099
6.04392606536
11.542236958
11.5265541317
5.63246313053
5.38520016775
5.44046241684
5.71660525594
6.23140010571
11.9538342633
12.7881763274
12.6029133104
11.8137969307
8.57928429132
7.39707955273
9.29844609267
9.56874925318
8.42339126328
8.08352413818
8.50628867469
9.0511343033
9.48997190936
10.2097678126
10.7747705014
12.3669914144
11.9179160557
13.3833823678
15.1738411613
15.1902231209
13.1861443189
14.3693215141
14.1849167272
10.8675461549
10.2114737612
10.1569538905
10.3034914091
10.4575826391
10.5343256336
10.5845810863
10.671366327
10.7972639671
10.9405144062
11.0735031645
11.1614551091
11.1810192407
11.1376648836
11.059430012
10.9692790619
10.8642796394
10.7205642538
10.5006902194
10.1559393978
9.64859857
8.99035694652
8.25717580994
7.54177385828
6.87785922624
6.26964103051
5.92478026235
6.23162283923
6.97342293253
7.83145358281
8.94145770329
10.2047404447
19.1998436714
23.6354915295
23.8035743897
23.2528635791
22.4051249144
23.4118350931
24.8171653221
24.0725444449
23.3040568788
23.391096991
25.5746464454
26.1172926706
26.6512607378
23.6397605679
21.3755883967
10.0916949023
6.70810863364
6.68927650486
12.4143421165
10.0392320794
5.7858964347
5.92789206912
6.08011403108
7.94059786805
6.1097220008
12.7267960529
13.1686909883
12.5590438326
10.0896330221
7.65972352839
7.50084943457
9.4563870425
9.02042051929
8.14794820165
8.10846243127
8.47307765934
9.21559533121
9.84161644638
11.2117849583
12.5176072161
12.0737109946
14.8059906526
12.7571606507
15.6090005878
13.443986063
15.7167140379
12.8003641163
11.5724126803
10.5767178838
10.299282589
10.3115766148
10.42079759
10.5671167216
10.6739074204
10.7532577692
10.8517932111
10.9794760972
11.1169348136
11.2369860945
11.3112091961
11.3270459784
11.2966175807
11.2474245418
11.1974459745
11.1367356063
11.030447643
10.8274488556
10.4737410409
9.94955987422
9.29607988992
8.58484089451
7.84003910236
6.99136591337
6.03563498871
5.54101771088
6.25523589489
7.71412751251
9.11502958381
10.2431432068
11.2515426248
14.9766701027
23.4577993646
25.1001935934
25.3423760082
26.2745674455
27.5486041472
27.2344016674
26.1503332439
25.829610769
26.6337561949
27.6197500492
27.2869837959
26.546899502
25.374593163
23.8384238654
9.13539990962
6.74333890278
7.92695173316
12.3810631999
7.19555922943
6.8175598774
6.46351242921
6.72044652475
10.772503778
9.18263289162
13.5511341547
13.3324081835
12.4932611751
8.90421993261
7.42914501343
9.59600224099
9.74792002531
8.58838527121
8.05567317545
8.30536840658
8.5841744676
9.26870160863
9.7365010216
11.4026723094
14.1112288861
11.802555621
14.6460673035
15.7367952557
15.8276705706
16.044962895
13.8056905937
13.7327092448
10.8477816975
10.3969347604
10.4341100594
10.4714510585
10.5485449899
10.6741864848
10.8031881466
10.9227222789
11.0462670715
11.1792898726
11.3119992869
11.4224406365
11.4858211288
11.4974299869
11.4826395562
11.4709110625
11.4691131331
11.457048454
11.3908626594
11.2067704637
10.846953025
10.3108322216
9.65998593311
8.93671491482
8.04485316113
6.75823272028
5.15426108677
4.73553776622
6.60878516537
8.89579509905
10.6148600911
11.911434436
12.9877525339
13.2060979474
14.6186735417
26.7533712916
29.6275214753
31.0389189186
31.1312387862
29.7341020343
28.7249678197
28.8197344265
29.7024799983
29.7412574182
29.2287296683
28.6994009864
28.8493968539
28.9092859665
8.6147161478
7.2767809363
11.7697428755
12.2237768233
6.69964618546
7.48252977357
6.95015127557
7.84225890427
9.82094591401
13.0656768999
14.1902455564
13.4272904864
12.5225458022
8.46319853471
7.4624058573
10.2454015714
9.68475041409
8.40411864787
8.046288757
8.45665226745
9.11576745404
9.56034079272
9.92453389969
10.9042272642
14.1992584039
15.397873277
13.612928575
15.9269826637
13.3305691983
16.107015019
16.0070832057
13.4949609557
10.6214019231
10.4985950494
10.6069141587
10.6451314533
10.6994125766
10.8012445424
10.9284194458
11.0863022476
11.2515749193
11.3977980772
11.5274847916
11.6300790816
11.6844665941
11.6957317097
11.7010411546
11.730834717
11.78205606
11.8235401816
11.8013614295
11.6385998398
11.2757858733
10.7311557938
10.0708740621
9.26419999344
7.9613003491
5.68892723335
3.58119288234
4.5290922913
7.89720291186
10.7498534934
12.5840684239
13.8484427246
14.6587955991
14.8332612909
14.5272260971
16.5866714593
31.1619562258
36.6281164743
35.4813634054
33.1144573965
32.1600530329
32.3546176194
32.7389141503
32.6386579877
32.5419723379
32.7070720474
33.0421377696
33.5998336103
8.50199779598
7.93961085261
13.2905392163
12.5485573443
10.1546432817
8.57335894659
7.60542879284
9.43542108114
8.79364846981
13.9812644816
14.6268630915
13.5657954778
12.282437686
8.67983908746
8.25188460014
10.7920049761
9.52830724554
8.34392586099
8.14117839807
8.48428160776
9.34437008315
9.96561649812
12.1492421143
11.0371264394
13.5118209538
15.7653080738
13.0833395302
16.2554440429
16.6547354519
14.3263745441
14.2704136623
11.4109143824
11.0023441054
10.8201078821
10.8200055344
10.8548740137
10.8916884812
10.9687406855
11.0593338743
11.220920769
11.4477203691
11.6447715462
11.7742662172
11.8617874563
11.9089879772
11.9258181227
11.9555722012
12.0281648131
12.1332249565
12.2304435027
12.2524732104
12.1140557974
11.7623682267
11.2133302819
10.4997002056
9.37535117432
6.93123323628
3.68455409511
2.70632979216
5.62309503787
10.175285251
13.246012218
15.0411327516
16.2683039864
16.9915702581
17.0027559784
16.6584647736
15.8171466674
27.0216265241
37.5228782403
40.4377877373
37.6711373095
36.7385398171
36.7843453158
36.837593297
36.5223552584
36.8637352799
37.1831482325
36.7203838015
36.7438131103
8.79386369542
8.44840798593
12.8320766119
12.7647341623
12.6697263923
9.37483731635
8.39992059203
12.6549145399
8.73350605523
14.8175269883
14.956459476
13.7242998385
12.0729617012
8.98868196984
11.798510099
11.9169964393
9.49075617379
8.42696595919
8.36837210225
8.65024932972
9.31199633459
9.88545351954
13.8186829424
14.9188374825
12.5981572225
15.8771875143
16.6282624669
15.5899035757
16.6392601086
16.5238452682
14.9875558796
11.3000154744
11.2123432933
11.1473808889
11.0776872379
11.0701373143
11.0700565213
11.1708488668
11.2800240835
11.384659188
11.6101389675
11.8756917714
12.0510162727
12.1314857578
12.1656165727
12.1909623704
12.2498070075
12.3644698515
12.5182522052
12.6631581723
12.7233154764
12.6193576705
12.3093379962
11.7419964088
10.8385553628
8.89431790257
4.93684077
1.90832279776
2.99011507151
7.80131917642
13.2110372403
16.3727168456
18.0746231462
19.331247585
19.8715392391
19.139486558
18.310889119
17.7320390599
23.1304037818
34.6108777284
41.6729912417
42.9078661117
41.0684593844
41.2385040878
41.0705472799
41.0712594026
41.547950251
41.6085484346
41.0961345196
41.0202429089
9.13720551543
8.94290933772
8.7195613734
12.9405912533
12.9830639901
9.78280036527
9.15160315743
13.4151795139
9.03351831218
15.6353561122
15.227104003
13.8882308672
11.997559854
9.08217042129
13.0263237393
12.1453647768
9.60275914767
8.66175015745
8.65424180899
9.00373797083
9.40146293818
9.8207092945
14.4944314987
15.8384197656
12.745473818
16.0277353643
17.1308047343
14.2840614587
16.2570129773
15.6771647383
11.9990667594
11.6745392878
11.6202065677
11.4863784441
11.3396451496
11.3588565057
11.3400522128
11.3217042691
11.4695312778
11.6328434627
11.8232975354
12.0948973731
12.3227046748
12.4312924948
12.4648981385
12.4990245454
12.5849642111
12.7315996623
12.927513705
13.1131123181
13.1802025427
13.133807822
12.919757238
12.3370198406
11.008332571
7.26041192854
2.0167896677
1.49681433274
4.47345399709
11.37376325
17.2402973269
20.363502315
20.7721142819
19.9003626842
16.7989579161
13.9763682174
12.2537470495
11.2419522837
9.05257562551
13.0283360757
41.3972400791
44.7991381985
46.284428227
45.2327062587
44.2677242892
45.6614935141
46.0959439168
46.0057681448
46.6198114089
46.9323475592
9.63934410594
9.6717555638
13.5000898319
13.3713244819
13.1690538368
10.0826163284
10.0524873764
13.9503746521
9.79936035899
16.2980114416
15.4532387846
14.0487132002
11.964772474
9.30110672322
13.161380885
11.9711897067
9.7304269946
8.93712173016
8.93178649378
9.23997779394
9.62455801148
9.96946220495
13.5158694298
16.5734309822
16.7159969673
14.9224166684
17.2647887251
17.8559045467
13.6822275823
12.445295875
11.7891842995
11.8267923695
11.8191204706
11.7450131176
11.6962545743
11.6242494391
11.5982849287
11.6225191725
11.6472825359
11.8456706142
12.090232318
12.3574336842
12.6000033212
12.7425975663
12.8064713281
12.8504565607
12.9491170321
13.1522288366
13.4009176438
13.5549209751
13.5785221079
13.6272204635
13.572181937
12.8606425573
10.425994238
5.19864203089
0
1.75739579045
7.54542893376
16.106992492
21.4154357774
19.6289572793
13.6706140028
1.66768131802
0.0592683792255
0.0318096677275
0.0179092528153
0.0191522099832
0.0227213617767
0.0298873535598
0.107366318972
30.940334175
49.3689950305
51.351079247
47.6909489977
49.0437774539
51.2405088365
52.3258014482
53.9691502273
54.2270857916
10.0648917307
10.2340762239
14.9819466677
13.7138817573
12.8110351492
10.4241693126
10.9783773501
14.2851780811
14.3026394745
17.0525623518
15.689249063
14.2592083523
11.94148586
9.67703882943
13.2903139455
11.7598677169
9.89642608603
9.23425917608
9.18015006183
9.42452924652
9.80400411775
10.3210375159
12.6217759626
16.7897986128
18.1030126832
13.8905139965
16.8618837325
17.6222702567
16.7796838905
13.3472255086
12.002521893
12.0308182403
12.1212052255
12.1633091733
11.925412259
11.9055219141
11.8275990111
11.8752772261
11.9158339556
12.0690651532
12.358305351
12.6630922558
12.8885255634
13.0309858629
13.1541584713
13.3278609833
13.5228078096
13.7644117088
13.899333711
13.9681675376
14.0601488452
14.1554437217
14.4092078072
13.7602158519
9.05964923664
0.596459759173
0.155800767216
4.29499378895
12.5298541791
18.4634686754
14.0310037683
0
0
0
0
0
0
0
0
0
0
3.87892607555e-05
0.0130828146229
1.95691020922
48.6450678384
55.9630849501
56.8098264066
60.2333545194
62.7183580335
62.6126009424
10.3873424563
10.5874656017
17.3066239594
13.8959067209
12.06118694
10.7493136442
11.6030694239
13.9325304727
15.8458979634
17.9176042974
16.045875662
14.5616392551
12.1090186094
10.3994324802
13.6333231959
11.7246239631
10.1741812848
9.60378146041
9.47039803994
9.64305736616
9.96125870047
10.4574820576
12.2041604876
16.6405284289
19.0254227489
18.0006495441
16.0696037988
16.9254356348
16.0343701866
12.3018994986
12.4726273776
12.5815275935
12.8344257891
12.62561721
12.4146499582
12.1608625112
12.1754860475
12.1164555138
12.1945850027
12.3414236415
12.5961708176
12.9502367476
13.3309906407
13.5032532804
13.6688949065
13.9497845996
14.2961007759
14.5961361208
14.740944124
14.8961750302
15.0920496592
15.3359530929
15.4279342378
14.9603627148
10.2194608462
0
0.69279196679
7.71433044411
10.9071605594
1.22885018415
0
0
0
0
0
0
0
0
0
0
0
0
0
0.000499799580529
0.00496659577917
0.108878540544
5.27936987344
62.4672751239
67.2935044264
67.1198742714
10.6151508383
10.8015356434
19.4998044733
13.9696416018
11.6655954826
11.0755932025
12.4034242521
12.5971758368
16.8070679152
18.5181149214
16.4018213211
14.8778445323
12.5035503508
12.6755096472
14.0963088824
11.9531328065
10.6741544476
10.2121805665
9.87100025908
9.95687719995
10.1804124659
10.609476835
12.0536658259
16.5072324609
19.3596473083
19.6490743754
14.6186234745
14.8831364012
13.2315652673
12.4044370982
12.6130798348
13.1578694372
13.3364399996
13.0539500109
12.8233354534
12.9080631026
12.5212674949
12.4403697039
12.4616372994
12.5607312032
12.9696655878
13.37751096
13.7506033938
13.8843937733
14.280556567
16.6384824508
19.7632135186
20.7328042122
18.6680653922
18.5051922564
18.8655835359
19.5938169918
20.2862681753
20.7215442626
20.027377371
0.088672828373
1.12073444266
1.46210652658
0
0
0
0
0
0
0
0
0
0
0
0
0
0
0
0
0
0
0.00772174682456
0.0522903940979
9.64278220635
62.1476550042
10.856505557
11.0174337053
19.1321639862
12.7399957961
11.4804458508
11.3357686505
13.2952871911
12.0961403556
17.5832510664
19.1074020982
16.7625690213
15.1878188762
12.7772972887
15.2984337621
14.7878142851
12.3944915096
11.2753032566
11.3772148665
10.5015939782
10.4487411617
10.513157308
10.7668164244
12.0887545457
16.3600428941
19.1876760697
20.762584582
18.6722288703
17.1507242973
15.4886866609
12.8100766901
12.9757292683
14.1249863446
13.517156325
13.4094164729
13.9537912161
13.3475051862
13.0023385966
12.8941391469
12.9086743654
12.9931371423
13.1548620382
13.6672060906
14.342383958
15.7963453393
18.0031202335
20.92044238
22.9855393656
22.8996673667
23.2601363618
25.0205642688
27.5484828273
31.4787776365
33.650582291
34.9293207988
33.7589235083
30.4349925828
0
0
0
0
0
0
0
0
0
0
0
0
0
0
0
0
0
0
0
0
0
0
0.0237596904985
99.8811653995
11.2142102862
11.3686846757
18.5166686854
11.8199434801
11.5475835084
11.5214510508
14.0079687632
12.2703246716
18.1761754361
19.680852217
17.1327623065
15.5268524081
13.0251397454
15.83541347
15.4036798279
12.9070018529
11.8552958486
12.1478623385
11.285804012
11.177116362
11.096578747
10.9031989732
12.3175096302
16.3273797026
18.8672968795
21.1335095014
19.944281564
17.2259852651
13.3318987603
13.3687481687
13.7536116084
14.8501914759
15.0243221142
14.9525713577
14.7612210008
13.8127033575
13.5132388948
13.475365132
13.4651318367
13.5717677876
13.7174682828
14.3321393474
15.7481643856
18.6662544097
20.4879039133
20.6689528411
21.7899619246
22.8739681159
27.139977172
32.0301708965
39.1082000549
44.1132979623
44.8651261075
45.3948591469
44.7314733206
43.1705325678
2.07423781546
0
0
0
0
0
0
0
0
0
0
0
0
0
0
0
0
0
0
0
0
0
0.00399289589894
0.00528296597711
11.8464761788
12.0065650171
17.7841897418
11.701982881
11.9827696944
11.8224691308
13.5242720415
12.9120953468
18.4923213439
20.2017297303
17.5417281026
15.9261053272
13.4337510036
16.3535483679
15.9905649052
13.5796895703
12.540347996
12.9268477673
12.0236484881
12.0638527183
12.0436979558
11.243790228
12.787382143
16.4451424575
18.7091774042
21.2279464407
20.345852391
17.3462437867
13.4010148773
13.4777709425
14.6981639755
14.341723822
14.2481134704
14.6144982733
15.7574305829
14.7870601998
14.4415079908
14.046171014
13.9935657303
14.2576220514
14.5721468208
15.2188176264
18.587020251
21.6242113537
21.542863358
21.637677238
23.3763152326
28.9540798002
36.0013801067
42.1800574058
47.0057777148
43.381469305
34.5193635004
17.511247855
0.219573253381
0.445057190329
0.0683441770447
0
0
0
0
0
0
0
0
0
0
0
0
0
0
0
0
0
0
0
0
0
0.000295126654307
0.00134008341762
12.8810360289
12.9568976672
17.6224732439
12.4171129134
13.1399301889
12.507746516
13.3259935587
14.4120974084
18.1146635194
20.4890309384
18.0259959593
16.4120802404
13.9773803312
16.9439201621
16.6122987874
14.4586309287
13.4767904418
13.9151741238
12.7562810466
13.0786539723
13.401136773
11.919813918
13.2462480277
16.6970537726
18.7229662032
20.9688377201
20.4974837966
17.5520383541
16.4743927478
14.4702554465
15.2572038927
15.9066080472
16.86120614
15.0304363402
15.2553356851
16.0421959183
15.2869774855
15.2547194474
14.9369280589
14.936281836
15.353003157
18.326108907
22.9604759286
23.8534049744
23.1195181684
24.8027924046
31.532338758
40.4347240428
46.4341994286
45.0973092572
35.9131537915
13.780044217
2.49631682029
0
0
0
0
0
0
0
0
0
0
0
0
0
0
0
0
0
0
0
0
0
0
0
0
0
0
0
14.4303193815
14.1251977312
17.9636013988
14.4159786215
15.2684980058
13.6243653118
13.9734891536
16.6789803455
17.931682243
20.8926051532
18.65876289
17.0031241142
14.6431876208
17.5656247809
17.2284590022
15.4585860298
15.0688182309
15.2791959821
13.5665411597
14.2508036732
15.1349816447
13.043761336
13.4719103529
16.9904593439
18.900533242
20.6707625532
20.6513479998
17.3977888083
17.6659716497
16.2589103392
16.6020413127
14.7018430766
15.3440087081
16.8269050584
16.1389788572
16.2754679248
16.2085741729
16.05801135
16.1622185493
16.0768814956
17.9466153329
23.5696076523
26.5564413387
26.4598358422
27.1194726871
32.3319908174
41.7791290225
47.4974358302
36.3260857033
17.4486099007
17.6891540075
2.79150470363
0
0
0
0
0
0
0
0
0
0
0
0
0
0
0
0
0
0
0
0
0
0
0
0
0
0
0
0
16.1298625106
15.1961857597
18.4095543094
17.2923583372
16.9184326822
15.0074414145
14.7142276029
17.7137231192
16.238373888
21.1401769147
19.4306280825
17.6931849296
15.4253897684
18.2043194569
17.7980606462
16.2683317151
17.6011711279
16.9475142747
14.5125038506
15.6504331083
16.51571609
14.5466478839
13.1451365088
16.8384088575
18.9705872996
20.3913747615
20.6300695205
17.3365605423
17.8300960314
17.6043089134
17.6692328675
15.3157092259
15.9605692198
15.9898135966
17.0978486032
17.5585291201
17.4325375117
17.1571527299
17.0770033795
18.1899256577
23.5279338471
28.5608936717
30.2709902953
30.8588118726
33.6801004518
40.2929917308
42.9734443289
25.3905486872
20.4785763163
20.1274464123
4.76077401182
0
0
0
0
0
0
0
0
0
0
0
0
0
0
0
0
0
0
0
0
0
0
0
0
0
0
0
0
0
16.8003613165
15.9368270789
18.620134447
18.1508409346
17.7965302296
16.3688530021
15.7518056447
19.02820232
17.0865465811
21.5186239278
20.2051192457
18.437532399
16.3137239502
18.8797890715
18.4017747904
16.9612520116
18.4388880627
17.8740408271
15.4671578718
17.0943996307
17.0535033524
15.023914236
14.3385118903
14.5187144995
18.4284054727
19.7823555718
20.3147105365
17.2430828918
17.7667756758
17.9663489633
18.4427237209
17.7218167138
15.4104899364
15.7524169474
17.1982325933
18.3931325786
18.7725869826
18.9177947822
18.8662682694
23.2684313373
29.38713251
33.0393648476
34.1938779057
35.4576305958
38.9551619571
37.1549830353
20.1921707044
22.8332757417
22.2814753667
12.7262569174
0
0
0
0
0
0
0
0
0
0
0
0
0
0
0
0
0
0
0
0
0
0
0
0
0
0
0
0
0
0
16.6251699996
16.4499749778
18.7577311173
18.1682098984
18.3640179755
17.4466052053
16.675027893
20.306904028
18.7988472367
22.0327086572
21.0307785982
19.2164265927
17.2967572895
19.6046648477
19.0838811036
17.827359834
19.0923252884
18.6875633502
16.540042019
17.9929034538
15.8571385271
15.5709969023
15.2577895753
15.7476425598
16.7477383871
17.4926676049
19.3578879923
17.1383260949
16.8809126308
17.813402288
18.7521460825
19.035502958
17.137447174
16.4295154708
16.8903667187
18.0058885301
19.4064644733
20.7268542646
22.6043043117
28.9396620182
34.1889337577
36.7397066809
37.0220566311
37.0799459675
31.4782426111
22.2484897961
23.0091809879
22.3736574095
18.7131361133
0
0
0
0
0
0
0
0
0
0
0
0
0
0
0
0
0
0
0
0
0
0
0
0
0
0
0
0
0
0
0
16.7345955518
16.8253388695
18.9310731409
16.5711587639
18.5378609537
17.9864422543
17.2869761052
20.7250759592
19.4664896651
22.6053443852
21.9257827684
20.0125621922
18.3909206667
20.3664734753
19.8163365701
18.8408963827
19.7650549242
19.615195158
17.7279651561
19.2702804557
17.1276985407
17.4280137779
16.4564007033
16.940977156
18.8970017554
19.4890231074
18.9296459405
17.0108366342
16.0554345717
17.7228302469
18.7281614786
19.1518415647
19.0087272232
17.4717401033
18.9915091244
18.8216856299
19.9974963842
22.5927516014
27.2282948836
33.9090247259
38.0507961087
39.2250231793
36.6342044116
28.1400047983
25.0699366126
25.203645432
26.0412825329
24.0766792139
0
0
0
0
0
0
0
0
0
0
0
0
0
0
0
0
0
0
0
0
0
0
0
0
0
0
0
0
0
0
0
0
17.3773890597
17.4561831661
19.0472106915
16.8850707599
18.6546224947
18.205436204
17.715044268
20.7058183513
19.9580629071
22.9979704556
22.8467270619
20.7814567724
19.5992941498
21.1281997839
20.5322123788
19.8396542153
20.390091067
20.6469181586
18.9765207583
20.5228938839
18.9109533437
19.7085932381
19.3366347328
17.5368667369
19.2939289604
20.4400762908
20.5786858861
16.9075712745
15.0698076296
17.6186447421
18.8354137371
18.2131132908
18.177644249
17.6991887366
18.7899378608
19.1465049843
20.7689507725
24.6127228645
31.6939583556
38.4599108401
41.3141640856
39.8395253379
29.271780483
25.9488717541
26.8273660509
26.5081929733
26.7606545277
8.37832565401
0
0
0
0
0
0
0
0
0
0
0
0
0
0
0
0
0
0
0
0
0
0
0
0
0
0
0
0
0
0
0
0
18.207032989
19.7340019087
19.2655262553
17.8830955579
19.0842864508
18.4770515508
18.1300410679
20.6698024137
20.4350959026
22.9926406121
23.7856301727
21.5004781277
20.6733364944
21.6836966257
21.2401170864
20.5413978228
20.2813003278
21.6092358797
20.3702824989
21.6013985876
21.0775530904
20.8688040425
20.5695357137
20.1126090466
19.0013940383
19.9767211439
21.4869440047
15.731516751
14.5273283369
16.6144043544
18.7957991065
19.0463810888
19.5823681328
17.6611930202
18.4668578196
19.4199271199
21.1576547898
26.4654849123
35.8182715999
42.5836039581
44.0320827654
35.3751431852
27.9665825714
29.3473114459
28.9767010449
26.5063610439
21.9227005198
0
0
0
0
0
0
0
0
0
0
0
0
0
0
0
0
0
0
0
0
0
0
0
0
0
0
0
0
0
0
0
0
0
18.8028780281
20.3597310701
19.8641595042
18.7649734233
19.7196237857
18.9769170258
18.6213823359
20.7346031996
20.9259160835
22.6824395175
24.6429481032
22.2572500975
21.2500533355
22.13008571
22.0899058784
21.1752993993
20.1818066414
22.2737614455
21.9216810474
22.5269732565
22.3249179755
22.385328298
20.4213785834
20.4397913007
19.8652053542
21.8436465047
22.7788106853
18.7312998827
14.0599431828
15.3815133545
18.1678147833
19.412092305
19.3588577463
18.3042314526
17.9221841446
19.5968744093
21.1275824379
27.9278739421
39.5264184034
46.6697012469
43.3629106011
28.9549660999
29.8774109979
31.9256944145
30.8605306686
26.434660053
1.38768612728
0
0
0
0
0
0
0
0
0
0
0
0
0
0
0
0
0
0
0
0
0
0
0
0
0
0
0
0
0
0
0
0
0
19.2580716533
20.6598379722
20.4123953751
19.345364671
20.3698169985
19.6699286239
19.2062871957
20.993855114
21.4981933824
21.9426147832
25.2057349103
23.1336729097
21.6546579906
21.8363343628
23.0115523935
22.0053587146
20.6327141766
22.8273348228
22.6530059343
23.2563717073