/*--------------------------------*- C++ -*----------------------------------*\
| =========                 |                                                 |
| \\      /  F ield         | OpenFOAM: The Open Source CFD Toolbox           |
|  \\    /   O peration     | Version:  v1806                                 |
|   \\  /    A nd           | Web:      www.OpenFOAM.com                      |
|    \\/     M anipulation  |                                                 |
\*---------------------------------------------------------------------------*/
FoamFile
{
    version     2.0;
    format      ascii;
    class       volScalarField;
    location    "561";
    object      alpha;
}
// * * * * * * * * * * * * * * * * * * * * * * * * * * * * * * * * * * * * * //

dimensions      [0 0 -1 0 0 0 0];


internalField   nonuniform List<scalar> 
6400
(
0.879920859626
1.3937331309
2.19818218857
2.70809389256
3.19703337388
3.69316167351
4.34572940584
5.08100996171
5.46681834104
6.0832241617
7.30402566706
8.11608949926
8.78650185455
9.5526257116
10.5187197673
11.5293298164
12.4133452125
13.2437958993
13.9426386313
14.3306216755
14.4823315126
14.7482727366
15.3427530922
16.2585668719
17.2705231104
18.1718438866
18.896894303
19.5630578346
20.2772740471
21.0543188866
21.8391577652
22.4277093167
22.7435266745
22.9161690852
22.9817769774
22.9213785526
23.0365118037
23.4074712271
23.4370441137
23.2272886644
23.4125756084
24.1315411735
24.8627671588
25.245384561
25.3364873292
25.2275626085
24.9872936947
24.6645237549
24.2721756616
23.8305347941
23.2426910992
22.2630423721
20.9837115913
19.4604341027
18.1768573987
17.2172052116
15.8070469759
13.5915833534
11.242963225
9.49108569393
7.67249392475
5.78316225119
3.8349052356
4.6276441339
8.54032264316
13.4532748194
16.4416993288
16.1578852194
14.1911778145
12.6179484232
11.7996958053
12.0517374639
12.6360809926
12.5462979712
14.6229025547
14.0752775208
15.9609390764
9.86321213596
12.8677025726
4.81010144624
3.14160822989
2.50376858422
3.11060461681
4.35939532723
4.25165373196
4.13019864398
4.33616617249
4.77130580631
5.39439936514
6.19028418879
7.15539828239
8.11763743497
8.96349144279
9.77226240468
10.5946472757
11.5371551748
12.5266429226
13.4754140868
14.4942808162
14.7041175807
14.6523947647
14.8805188384
15.4348542578
16.3311594047
17.4887010998
18.3230739237
19.0133625569
19.7231337148
20.4557392572
21.2007151302
21.9514512041
22.6450426419
22.9566850051
23.1266165322
23.2322004497
23.0644047263
23.2381346204
23.6324334233
23.5992419314
23.2244030932
23.3740628176
24.7728710248
25.8770676223
26.1515310445
26.1733443753
25.9613561356
25.5881430598
25.1723486342
24.5761354757
23.934692321
23.4337157541
23.1011365235
22.0837565704
19.6853034748
18.5500598432
17.31209293
15.182302516
13.029416041
10.9759966469
8.95476229884
7.12511519095
6.15992241117
4.24292884982
5.04362396847
8.6711201779
14.4985139934
18.2500978029
16.981449906
14.835570081
12.9472294062
12.2970226611
12.7652133634
13.9088427075
13.3581404761
13.2323379546
12.7264045783
11.5426455153
9.71243952556
8.16871843175
4.25351453034
3.21987148166
2.82226474515
3.33587022088
3.60560653535
4.12213100676
4.55159196668
4.53695453878
4.67917212218
5.30046750269
6.16818562813
7.13955128552
8.12156130321
9.0148691052
9.82890414171
10.5062959083
11.3572901289
14.0163557508
16.0270370976
16.4296866645
15.810219741
14.4608198274
14.525184304
15.5685516029
16.5191856702
17.4000371611
18.3117406824
19.120431274
19.8330564967
20.5445891451
21.2890745405
22.0007113538
22.7973406358
23.1121865798
23.0179979186
23.498060853
23.3450185035
23.1390465581
23.7645258839
23.7683653593
23.4472912801
23.6098370052
24.3207743381
25.0392139444
25.4271322612
25.5431652421
25.4773371266
25.2707530473
24.9442060023
24.5004355368
23.9631033516
23.3347514511
22.5034709619
21.3418348197
20.1398266246
18.9692012896
17.1584215724
15.0875332
13.0287906901
11.0158993747
9.10418857835
7.43884210439
5.8769059082
4.83378089596
6.38182374339
11.050467254
15.4970543591
17.6819715026
17.8068113293
16.2480732669
14.6171306848
13.9775105515
13.9289298859
13.3037756272
12.7395764958
12.7374447244
12.4117431388
11.44176372
9.82477921706
7.39288354646
7.57623803372
3.21276364324
5.49148425015
3.6400235529
3.75146246163
4.44145726068
11.8617757897
10.2449087724
5.26132250392
5.27716936643
6.16979011301
7.16417230407
8.16463439898
9.03351579469
9.87284379185
11.5905685163
13.7023232699
15.3720450948
15.7779855415
14.7035154666
13.8891208579
14.2078098794
14.777414833
15.533854354
16.4885006217
17.4894111283
18.43895527
19.2788214129
19.9669415436
20.7047249917
21.3675320803
22.2320604579
22.786267487
23.4315502465
23.3487381512
23.0024780079
23.4449620632
23.3363838889
23.247159244
23.4448402679
23.6301330163
23.9366787526
24.4909611295
25.0744702513
25.4575701865
25.6131227428
25.5841503737
25.4059988607
25.1006180612
24.6776350146
24.1453414558
23.48975919
22.654450053
21.6028780422
20.3974869817
18.9781376649
17.1992373001
15.1765925253
13.1293722402
11.1715249177
9.39420828115
7.90711287686
6.81715395441
6.56183630878
7.65155188606
10.4773112411
15.903109314
19.3897675373
19.568617753
17.9210322894
15.5888721709
14.0223377823
13.27868909
13.4848798011
14.9108212893
14.8594433002
13.5460591642
13.4083820306
16.6945337694
13.0994763301
11.1193572465
5.64268800367
7.55204164026
4.38390583356
4.70167168677
6.55787750727
11.7532749592
8.19619356619
5.70211993058
5.79893670889
6.3930605907
7.31052418832
8.32619878371
9.744890551
12.0529443093
13.0809907516
13.4694004679
13.4861012502
13.2864263018
13.3780314352
13.94148369
14.3426012314
14.8211670022
15.6266617085
16.5950592238
17.6153774392
18.5996200394
19.4043879625
20.2331799756
20.8229764957
21.7047408495
22.2721620345
23.4769606089
23.3568651014
22.9567268237
23.1450764313
22.9127667532
23.022971065
23.2879383203
23.5778951167
23.8580627021
24.2029449593
24.6763305741
25.1717399738
25.5379566977
25.7184682658
25.721508596
25.5715734039
25.2903757705
24.8903945478
24.3734936632
23.7225782781
22.9036746588
21.8940191537
20.6823752105
19.1935196457
17.3792212662
15.3776147344
13.3946173678
11.5754069805
10.0388183264
8.90546582138
8.31109192652
8.48053807151
8.8576619595
10.6920018649
15.4133732038
19.4666920044
20.8734994299
19.7224555119
16.9759787078
14.5246521872
14.2342229738
16.511347973
17.3915526895
16.3603079031
15.4477081159
18.0999471922
21.1100881897
16.4270457935
15.5433174485
9.94073008207
9.1031176516
5.4592046616
6.02950788448
12.0345794958
11.5042721722
6.55907715226
6.28970302512
6.42078249868
6.74365739031
7.56387226259
10.202174023
13.4271072263
13.8675354096
13.5210997204
12.6096158824
12.253499515
12.607133728
13.5446853999
13.9196219826
14.228178398
14.8918761599
15.7753051156
16.7801040533
17.7281056804
18.7249219129
19.8057846713
20.3393159836
21.3912512262
21.7516955129
23.2150101068
23.2434407208
24.0599675712
23.2172975116
22.525312109
22.6173398055
23.0032073988
23.4046215456
23.7620384984
24.0927265912
24.4578749714
24.8904969306
25.3302044003
25.6771962957
25.8707855405
25.8994370479
25.7764918426
25.5224683803
25.1515624248
24.6631651273
24.0393671219
23.2507873064
22.2644843263
21.0360819925
19.5095674388
17.706372082
15.7875735207
13.9529120689
12.3530680046
11.1120493027
10.3192598558
10.1218701846
10.7323011393
9.87491612226
12.4865208336
17.3116686741
20.7674416387
22.1404899498
21.2359164101
17.8817129919
15.7088504989
17.5298102339
19.7475927698
19.2325159479
18.2415013503
18.3204391225
22.880109108
24.460831803
19.4619385896
19.2630602067
12.0556406016
8.93936065304
6.6386872749
6.22560513287
11.9722719081
8.3642774473
6.76321811403
6.8756345545
6.99791721086
7.68746095454
8.17076186279
13.1778979271
13.8587484842
13.8973870227
12.5521418026
11.557372274
11.8388764546
13.1635156625
13.5214110631
13.6187863554
14.2444502351
15.0085209072
15.894183769
16.8968713159
18.0448690425
19.1477913678
19.831686729
21.215383887
21.4634766172
23.0558618355
22.9330239996
23.9905466739
23.4792381191
22.9711410567
22.33108427
22.5538379166
23.0778234102
23.5643753208
23.9654540674
24.3308424886
24.7146429104
25.1303816424
25.5384386479
25.8703658452
26.0714226452
26.1205702682
26.024465282
25.8028711678
25.4705092869
25.0246488714
24.4442531409
23.6948877133
22.7313639142
21.5033554265
19.9891417965
18.2626666945
16.5004227103
14.8849089611
13.5282299173
12.486736782
11.8584591448
11.6832292414
11.4871665725
11.4920344816
13.9712921638
19.9233604506
22.1717343808
22.4844246787
21.4270810061
19.1680882473
18.9161389481
21.4823208475
21.9272271961
21.1001986283
20.5209538435
22.4933744145
25.2335147329
26.6887535125
22.108473734
20.9710332609
11.7616084417
8.57170181945
7.77297915132
12.1243407608
12.0654260761
7.35937042988
7.40704889602
7.54763815227
7.65185009571
8.21523074097
12.9395344911
13.8758933474
13.9557531082
13.4684969476
11.3656475328
11.1306370899
12.6994166587
13.3130341513
13.1476044206
13.4944627886
14.2902559344
15.1935259598
16.1065881953
17.1672941658
18.1466155725
19.5205763193
19.9347167928
21.230959448
22.7738311857
23.1910332616
22.6175252409
23.4454634441
23.5706310834
22.3817767265
22.3105900711
22.6972068547
23.2240168857
23.7374244175
24.1787455575
24.5781303405
24.9818499876
25.3968505237
25.7907986357
26.1135792623
26.3199425463
26.3873095124
26.3201481456
26.1381077487
25.8552835508
25.4659724225
24.9441520849
24.2476397603
23.3244811151
22.1354762816
20.698988877
19.1264404824
17.584355292
16.1882180091
14.9554516814
13.9267383987
13.2704869656
13.0137975436
12.9956746343
13.3324078289
13.4002037653
20.0289676323
23.9638071166
23.9353895886
23.3333856921
22.3801220675
23.2012718375
24.5577971287
23.8801169665
23.2103979709
23.4342623398
25.7647061677
26.4323620025
27.0061747692
24.1275418984
21.9908027451
11.0245747584
8.47632634758
8.4365928576
13.0959469143
11.0193080498
7.958305956
8.10453699154
8.37432469725
9.58901025033
8.31465810204
13.713200121
14.390791851
13.9915918045
12.2169434101
10.9790829519
11.2704928388
12.7851766563
13.0217396221
13.0328186283
13.5221229801
14.2953413816
15.2822440249
16.3014233928
17.7783391803
19.0260970541
19.4814203953
21.4164064757
21.1170175176
22.9854885586
22.5866294133
23.8302601692
22.7542334448
22.3838216086
22.2892673884
22.4809318204
22.8959288076
23.4046980705
23.9251967281
24.4023184503
24.8399473632
25.2677582569
25.690925617
26.0832094071
26.40398426
26.6160998981
26.7020304202
26.6684046156
26.5345903275
26.3128465868
25.9945881919
25.5488754265
24.9272186187
24.0784416538
22.9850175533
21.7027246129
20.3556142097
19.0505152432
17.7707494121
16.4544834618
15.3018846513
14.7031177261
14.7449172076
15.0478521826
15.2362642197
15.0581630149
16.7090545018
24.1191032723
25.7574290568
25.7147748754
26.3200505669
27.3453264502
26.9744981902
25.9619025803
25.778976897
26.7883909538
27.9846088617
27.8245048069
27.2017820746
26.1783158372
24.8053411221
10.4708148891
8.89870871699
9.59231392811
13.158970049
9.02561004197
8.97357856795
8.80821404246
9.07115992963
12.1924887831
10.9092118022
14.5476339138
14.655556355
14.0556365004
11.5110076825
11.0058792778
12.609488629
13.022923112
12.7726294621
13.0011155202
13.6808329573
14.4292608904
15.3611154754
16.2405574053
17.9425808306
20.0879331967
19.425194668
21.3672515417
22.6282792291
23.233173211
23.8108686327
23.0439286667
23.0323271111
22.0806436015
22.1998530883
22.6477288368
23.1154408986
23.6117554622
24.1303631933
24.6356319946
25.1151451802
25.5759933574
26.0159516063
26.414447759
26.7394554699
26.9610215647
27.0680483278
27.0732174994
26.9971975576
26.8490681835
26.6174066014
26.268886642
25.7531204242
25.0270999611
24.0998909284
23.0525691737
21.9780163275
20.8414824984
19.4527698429
17.9029144315
16.8048856718
16.6323477827
17.1716115639
17.6709843481
17.7796860703
17.4587010691
16.1186879615
16.078407091
27.4599868177
30.244843925
31.1595103776
30.9352636912
29.4546204362
28.5217527548
28.825479084
30.0038033416
30.3447718824
30.0871202075
29.7764997466
30.1063940692
30.2854948825
10.4277602837
9.72524652435
13.0191730523
13.3089486524
9.11093350287
9.72616188064
9.50646341463
10.0014100485
11.6808060145
14.4157406814
15.3668500912
14.9158407885
14.2850645319
11.5080702709
11.1598678485
13.1328636242
13.121371234
12.7462175285
13.0294588814
13.8203405422
14.8000386241
15.7223916639
16.4287209243
17.5736527439
20.2618333664
21.4502570203
20.9765294775
22.7597647057
22.0643747998
23.8430856826
24.1382463252
22.9771556045
22.046492234
22.3119796826
22.8457337321
23.3460171257
23.8429748888
24.3599001668
24.8818858189
25.4015527157
25.9056922412
26.3729400403
26.7849721326
27.1195985441
27.3552126649
27.4888466398
27.5397551146
27.5301003478
27.4669915952
27.3380596284
27.1111152497
26.7400884909
26.1979101884
25.5197696804
24.782056674
23.961697021
22.7776348279
21.0832738933
19.5851554846
19.0181215893
19.6070800406
20.6716618298
21.2901238426
21.3105208598
20.6732669983
19.0769401006
16.5806464354
17.3172426077
31.5710035626
36.7397521689
35.2783384278
32.7391912577
31.8705301324
32.3839909637
33.2126279702
33.5691585803
33.864712766
34.3493983841
34.9411324393
35.6020213633
10.7623493821
10.5859238439
14.6553733842
14.0016184624
12.0819937749
10.9416881237
10.4278443866
11.4631849094
11.1345841463
15.3771551787
16.0076980481
15.2491844035
14.3578243412
12.1138257548
11.9225176179
13.6002641071
13.1400467036
12.8279926088
13.149129094
13.8666596489
14.9518347942
16.1826280142
17.8932612192
17.7152374378
19.7604782943
21.8322265613
20.8605469023
23.0305807857
23.8308754808
23.0007815065
23.1997288731
22.2975806512
22.3422634979
22.6421191781
23.1010434023
23.6011294505
24.1041489285
24.6234323124
25.149315201
25.6945131716
26.2497019227
26.7633232236
27.1977660064
27.5449595979
27.799867294
27.9678204653
28.0723336061
28.1362798573
28.1667970728
28.154299689
28.0727192219
27.8909771318
27.6078608222
27.2679181864
26.8701813317
26.1297432392
24.6344988938
22.9541253755
22.1383359954
22.5192610854
24.0536153169
25.5251096324
26.2171029476
26.3033822879
25.6590697526
23.8486137077
20.6459237252
15.9459737326
26.3421265027
37.2637461854
40.1379826548
37.1947035966
36.3729424353
36.8190309724
37.4917429238
37.9111154834
38.8527287416
39.5899272168
39.5414957803
39.7470175511
11.3521435621
11.2297875401
14.3913101629
14.4788890697
14.4860496751
12.0656827796
11.4815418467
14.3340953821
11.4903991388
16.2354982824
16.4963352437
15.5931292053
14.4325496515
12.7153889778
14.5591143901
14.6593470252
13.3225545708
13.0458308673
13.4018763272
14.0133069287
14.9155006008
16.1721488808
19.1931637477
20.1375432289
19.2407574381
21.9061648987
22.8304317639
22.5976844092
23.8011573097
24.1397380888
23.5612155097
22.3286385189
22.5483817514
22.9761268705
23.4117378226
23.888752054
24.3825820211
24.9184582843
25.4669714857
26.0181380067
26.6020429007
27.1712767433
27.6503096955
28.0195811105
28.2977590304
28.5078234232
28.6744902741
28.8170267831
28.943824609
29.053211623
29.1354017841
29.1917401417
29.2525173745
29.3224483176
29.1810959719
28.1850681976
26.5805427097
26.1882965503
26.8749907154
28.5082373025
30.8524438148
32.298906793
32.283647464
31.9667489898
30.3524890373
27.7246755251
24.3801665282
17.8099346666
17.6535869437
32.0129064163
39.224705896
40.31874273
38.9144477027
40.2019591024
41.4840952272
43.1037167262
44.5400519829
45.0843270634
45.0597540944
45.2428762789
12.0013440228
11.9226601434
11.5777929382
14.7978342241
15.0103879276
12.8230480823
12.4317607241
15.3102755154
12.1341555588
17.1189113975
16.9354257452
15.9510741286
14.6190660377
13.0210925927
15.7207628781
15.2168571146
13.7463570864
13.437623949
13.752184578
14.3296135182
15.0043681986
16.0692988902
19.7149991471
21.2095518237
19.5866722315
21.9548318717
23.3576690149
22.0689274292
23.4344220179
23.6827473398
22.5182058741
22.6823285818
22.9992648193
23.3608833137
23.7544605706
24.2300864295
24.7174094989
25.2231804851
25.7977199063
26.3924727797
26.9956253479
27.5989615855
28.1282811115
28.5379588188
28.8516694455
29.1131232716
29.3487271876
29.5684941297
29.7853225383
30.0106454962
30.2594538664
30.6014638811
31.0921662975
31.6013854485
31.4161051932
29.9006325939
29.3727325575
27.5240688928
25.5475126439
25.0040392743
23.9973279626
19.3929947077
7.48783306102
0.83305215947
0.0661076217308
0.0186211832713
0.219185338034
2.23953291584
15.9877907401
19.5393130728
44.4446836102
49.0719372068
48.5129673087
43.9474098938
40.7747946785
43.7929987177
48.9649792937
50.5149136598
51.8677824951
52.3658336185
12.8302105624
12.9193564796
15.4332681364
15.4311501274
15.448645495
13.4673294549
13.4672842617
16.1450191645
13.1396838574
17.8819096827
17.3533201835
16.331563803
14.8864525184
13.4081350719
15.9973623782
15.3997658453
14.1690419725
13.8865238797
14.1357936858
14.6467187505
15.2612010148
16.099668654
19.1109041322
22.0255295356
22.1651274684
21.318496396
23.5752900712
24.3439291797
22.2476145709
22.1204823538
22.4567820997
22.9205276114
23.3540753074
23.7469223098
24.1563514941
24.596448136
25.0824996524
25.6033336078
26.1535067625
26.780397299
27.4334405638
28.0693530539
28.6352874165
29.0897318524
29.457259189
29.7838759519
30.0940122304
30.3919593235
30.6790466218
30.9776849304
31.3782275269
32.0425425132
33.0216439811
33.8590246594
33.231235302
29.9737153638
21.4152671814
0.00276883225776
3.04542835527e-06
5.70908946935e-08
9.67729788641e-10
2.79988238419e-12
7.95665455615e-15
1.37728184381e-19
1.07731394453e-19
2.6154705246e-19
1.76303392089e-18
8.25795245403e-18
3.05049175863e-17
1.93853984099e-16
1.5178334214e-16
1.31680301614e-14
7.49480940404e-12
7.53388270997e-10
5.71694431119e-08
1.31647413043e-05
0.221604022529
53.6215649109
58.0384177065
59.7820117158
13.608262193
13.7985405342
17.0445723509
16.0873860325
15.5437963564
14.1199488628
14.4732626895
16.8453358366
16.8185102319
18.8276330022
17.8304818675
16.8032820656
15.2361143236
13.9411007631
16.2911365096
15.5239486888
14.5783557274
14.344673961
14.5236556367
14.9546515413
15.5393760329
16.3506150719
18.584913506
22.2891914586
23.5435178791
21.024823659
23.1105765792
24.4024486209
24.0989372975
22.5835813251
22.5556223501
23.1490317347
23.7175952578
24.1842959105
24.54503322
24.9919590683
25.4677000299
26.0045210473
26.5706078128
27.2019839288
27.8994591057
28.5865977707
29.1806650119
29.6616984289
30.0922948255
30.5354742468
30.9600572655
31.3082126317
31.5650650713
31.8799104018
32.4370760079
33.3924896566
34.8200182234
35.8885607121
28.9343660472
0.00409784258325
1.53113841134e-09
6.20037166212e-12
1.79304711421e-13
2.61034791832e-15
2.12085252174e-18
3.5388456771e-21
2.49454855871e-22
0
0
0
0
0
0
0
0
3.46949163709e-26
1.17018770247e-23
1.75035137901e-21
1.01549781665e-18
1.41840122956e-15
7.68100517391e-11
1.16645336052e-06
9.09411719089
61.9887253324
14.2442981289
14.4566614287
19.2038989814
16.592512767
15.3858943014
14.7004861039
15.194453326
16.8838095199
18.4082687916
19.9180629599
18.4643250722
17.4083741475
15.835098817
14.7695157659
16.7917880716
15.8030398917
15.0682960779
14.8536845598
14.9515954069
15.2993752485
15.8148398224
16.5672972761
18.3720640411
22.1664140473
24.5388679716
23.7390669797
22.5898104219
23.7712628419
23.8281529639
22.5448732215
23.0123522822
23.6376179599
24.2549717397
24.6758911215
25.0530270093
25.4230333667
25.9111253176
26.4342538573
27.0246058176
27.6744573874
28.389905831
29.129789498
29.799841864
30.3086567091
30.7903267414
31.3571225735
31.9091216136
32.2702726949
32.4520209699
32.7481723269
33.3986755003
34.4489587701
35.9976663412
29.3768444622
1.01393683449e-05
2.21673742803e-12
7.2699335779e-16
2.93966088743e-17
4.00813912648e-19
1.09914067814e-21
0
0
0
0
0
0
0
0
0
0
0
0
0
4.4704395781e-25
4.44235393638e-24
9.73860234817e-23
4.72211361295e-21
2.62229804435e-17
2.18270545976e-08
4.20751709108e-13
14.7412142473
14.9425988826
21.2704250383
16.9789086455
15.4906339105
15.2424707996
16.0000309195
16.2189969535
19.3605835651
20.6988329122
19.0815407812
18.0296899353
16.6360235355
16.6726368543
17.4915885046
16.3250091629
15.7552262358
15.5610452177
15.4881681107
15.7316733494
16.1436039622
16.8199794188
18.3526747607
22.0322226496
24.9550161986
25.3931193641
22.3284549624
22.6569242638
22.522609043
22.6688635764
23.3201084931
24.1426404025
24.7596014764
25.208198539
25.6010464105
26.0507722382
26.4195030081
26.9319990997
27.5200156868
28.1692597536
28.9503849128
29.7549293551
30.4689139495
30.9446422454
31.4289742096
32.6427631278
34.2935092661
34.8238972765
33.9229019742
33.9346691244
34.520651581
35.5540899235
27.8460606967
1.1730577998e-06
1.76795176883e-11
7.93130960696e-23
8.01468661268e-20
1.3077759843e-21
0
0
0
0
0
0
0
0
0
0
0
0
0
0
0
0
0
0
6.90668899322e-24
4.67709570868e-23
8.62495226039e-21
94.0165671751
15.1799694234
15.3474011256
21.0966180458
16.3911522819
15.6868316223
15.7123557072
16.9163866295
16.203961421
20.1646657325
21.4292223591
19.6724279207
18.6094276014
17.2567708059
18.9158781849
18.4715812515
17.0519961491
16.5475057625
16.63741888
16.2480726809
16.3337187636
16.5722780346
17.1123922167
18.476576671
21.884740138
24.8284297594
26.5024157632
25.1008923098
24.0631308065
23.5563276081
22.9421442196
23.6325980263
24.801533579
25.2084493108
25.7410686516
26.4099441023
26.657242121
27.0250050119
27.537493435
28.1370176041
28.7849919073
29.5082057809
30.3616637417
31.2120848715
32.106413838
33.1995213059
34.7854694529
36.0477186357
35.9634632704
35.8239929536
36.3530921792
37.3451742094
31.9901737846
5.33460915609e-06
4.86943287458e-11
6.40000504531e-15
8.6924335526e-17
0
0
0
0
0
0
0
0
0
0
0
0
0
0
0
0
0
0
0
0
0
0
2.12517706908e-23
1.54681782714e-12
15.691394359
15.8365364962
20.7247202779
16.0498634572
15.9823874744
16.0961766827
17.7035038642
16.6659622777
20.860562209
22.1472102056
20.2634782829
19.1964166047
17.7815665622
19.6632213156
19.3809326102
17.8530453649
17.3282979806
17.5300068478
17.1595687357
17.158447827
17.2043144743
17.4510308272
18.7616445988
21.8673748338
24.5562017836
26.8401419429
26.3142055448
24.5701551393
22.9283043045
23.4638689682
24.1758392865
25.3043207753
26.1064834994
26.7555492805
27.2577552515
27.3684011487
27.7136513059
28.2395393175
28.8486539948
29.5241844982
30.24879337
31.1770674709
32.3698864574
33.9227369524
34.9619616577
35.3048042591
35.9453589859
36.3925738006
38.064192234
40.2094013325
38.3318574589
4.86086634267e-05
6.45430252004e-11
1.1130113785e-14
2.28284365449e-17
5.52720361684e-19
1.85529463926e-21
0
0
0
0
0
0
0
0
0
0
0
0
0
0
0
0
0
0
0
0
0
3.57143154041e-24
4.7253301351e-24
16.4504518051
16.5960873252
20.3849186964
16.3343503966
16.5496225305
16.5819751354
17.6998451049
17.3991914968
21.3589570208
22.8308195908
20.8919812991
19.8367973456
18.4310572819
20.3483182303
20.2052535437
18.7508038814
18.1735609471
18.4030225294
18.0484073728
18.1308006458
18.1161736226
17.951984724
19.2417345996
22.0388299724
24.4327176059
26.9404488133
26.863445737
25.2765562841
23.41239786
23.6996373779
24.8297657194
25.4508869917
26.1153172691
26.9834658097
28.2048569616
28.4169489165
28.6728721069
29.0470884006
29.6134146293
30.3655820287
31.201111998
32.2601841346
34.2113363096
35.977658093
36.1531478025
36.2977582316
37.3953961447
40.4214959823
44.4064330837
42.725536367
1.38876465269e-05
2.3069819223e-12
9.54683067385e-17
3.13009246305e-20
1.96396515813e-22
3.98079821527e-22
6.11302061658e-23
0
0
0
0
0
0
0
0
0
0
0
0
0
0
0
0
0
0
0
0
0
2.63974986647e-25
1.19863284834e-24
17.5952472971
17.6992201558
20.666616568
17.2849560383
17.7267308644
17.4444661776
18.0025263714
18.7389385735
21.3937418318
23.3422476566
21.5874172661
20.5521849892
19.1913645667
21.1276234919
21.0588369485
19.8153335001
19.2092668452
19.4273956567
18.9454613885
19.2036204653
19.3486990726
18.6870195971
19.7891791539
22.3993328277
24.4998412789
26.804018692
27.1144165258
25.9120998972
25.4812307833
24.5856036774
25.263365933
26.3245741288
27.59586944
27.586392896
28.4316159661
29.4781761948
29.7389285805
30.1942132809
30.6470811639
31.2954016222
32.2732504826
34.2143499217
36.9293950451
37.79693394
37.5309498994
38.6590598976
43.1464584088
49.7589757716
48.7144099018
4.99541016264e-07
3.49520214283e-14
3.26324777976e-19
2.23282170447e-21
0
0
0
0
0
0
0
0
0
0
0
0
0
0
0
0
0
0
0
0
0
0
0
0
0
0
0
19.1956107591
19.0619896381
21.4785162488
19.2006815943
19.7104885848
18.7225607993
18.9494681621
20.6804363105
21.6070868136
23.9638680562
22.4040759382
21.3532630292
20.0386872798
21.9450804746
21.9081957763
20.9902833152
20.7335139461
20.7691707254
19.9353882096
20.3766101335
20.8887502573
19.7466202164
20.2177112878
22.8456830964
24.7643160563
26.6811383635
27.3026619222
26.0691126558
26.6823284821
26.2018653257
26.3673492827
26.0314982992
27.2872658457
28.8753279485
29.4111126586
30.2024917202
30.8079803839
31.2855239848
31.8979970911
32.565778715
34.0636893079
37.2990696233
39.5725078499
39.8754410367
40.5257262782
44.3977566119
52.6040243162
51.4808188202
7.08588092478e-09
3.11917894537e-16
5.45298315031e-19
2.49685145721e-21
0
0
0
0
0
0
0
0
0
0
0
0
0
0
0
0
0
0
0
0
0
0
0
0
0
0
0
0
20.8937588795
20.3470397161
22.3649758215
21.7437227179
21.4471201266
20.2108288781
20.0005283454
21.8359286873
20.8352157416
24.4500672043
23.3243852761
22.2325260059
20.9642200175
22.7772965841
22.6991535507
21.973776405
22.8553009511
22.3899493938
21.0529309205
21.6787778486
22.2570570375
21.1140983941
20.3819593755
22.8539248649
24.9595253552
26.5982583204
27.3838818995
26.1696728209
27.0814611892
27.5119284753
27.7360091124
26.8297808362
27.5780229386
28.7996934262
30.3674963946
31.4530886479
32.1143846541
32.5537919766
33.1391712939
34.2922130875
37.2863051693
40.7603399762
42.4391014726
43.270258665
45.8069230721
51.6452659159
48.9444014823
19.4334141634
8.39865950712e-16
1.21588315935e-18
4.25825738835e-21
0
0
0
0
0
0
0
0
0
0
0
0
0
0
0
0
0
0
0
0
0
0
0
0
0
0
0
0
0
21.7493358949
21.2603375816
22.9423909076
22.8193309005
22.54145952
21.627168939
21.2211206377
23.2413202321
21.9008598018
25.0716402188
24.2561755916
23.1588867165
21.9631832673
23.6426025383
23.5054314029
22.8035969025
23.8450793194
23.5188162649
22.1498958526
22.9706071076
23.0208700472
21.9521597476
21.445034793
21.6679724417
24.4880367307
26.1328476509
27.1991343944
26.1704884331
27.1781132703
28.0807955072
28.8612287876
28.700823833
27.9284041377
28.8858741361
30.637687122
32.3612425158
33.5394750767
34.249405984
34.8461513479
37.3220472524
41.2718993739
44.2843973268
45.6933318593
47.3644395764
51.2213003597
45.0207348385
19.4499461387
4.43688967882e-15
3.99675152283e-18
1.13829552526e-20
0
0
0
0
0
0
0
0
0
0
0
0
0
0
0
0
0
0
0
0
0
0
0
0
0
0
0
0
0
0
21.8779778227
21.8521505452
23.3131815717
23.0737726326
23.2545424199
22.7384866078
22.2940697142
24.6252712423
23.6186128075
25.8749645788
25.2494444875
24.1193868722
23.0308017748
24.5561951157
24.3845903115
23.7681687638
24.6748929947
24.5104606491
23.3054443402
24.0238611472
22.8436880232
22.7366156882
22.5171964741
22.7906351736
23.6335160987
24.6351338741
26.4014960689
26.0131269053
26.7738619214
28.1489227735
29.3556585452
30.0942181059
29.5039561447
29.7145004499
30.862853583
32.5556258052
34.4622184476
36.0239098197
37.4892204263
41.2252608788
45.1624335877
47.5793360982
48.5781095278
50.0975608383
44.541832907
23.3525769495
5.87430014738
1.38829390857e-17
3.1099082242e-20
0
0
0
0
0
0
0
0
0
0
0
0
0
0
0
0
0
0
0
0
0
0
0
0
0
0
0
0
0
0
0
22.1745580832
22.2882973802
23.647291107
22.2425735449
23.5855078093
23.3734700747
23.0334104994
25.2774368702
24.5114536355
26.7036972936
26.2851844416
25.0859123008
24.1742209324
25.5054233987
25.3094617973
24.8685839577
25.5937382417
25.6122219568
24.5832895041
25.4560566463
24.2191501345
24.4014790103
23.7999458995
24.1043680927
25.467162209
26.0940218829
26.0804800548
25.7922329421
26.3461553015
28.1331578128
29.4030296993
30.3910932904
30.9057257098
30.855954348
32.2705917408
33.3462641806
35.2358920357
37.6998412196
40.804453513
45.2656392235
48.7166763204
50.1915638488
49.0959480141
44.463183288
36.7646238092
23.9770531367
1.16495380927e-16
2.65207435124e-19
0
0
0
0
0
0
0
0
0
0
0
0
0
0
0
0
0
0
0
0
0
0
0
0
0
0
0
0
0
0
0
0
22.9267309653
23.0048547119
24.0066894203
22.7015142306
23.883714157
23.7481858694
23.570805076
25.5298288215
25.150911147
27.3326101293
27.3028983761
25.99996691
25.3801071262
26.44603082
26.2005378469
25.9380624833
26.4821564822
26.7995905548
25.9069642242
26.8987567869
26.0146756241
26.4873741689
26.2511133812
25.1136098758
26.2377377483
27.217176233
27.3461364401
25.6823749474
25.8561396011
28.0785997221
29.5933158876
30.0971049296
30.7652746169
31.2518960812
32.6681840791
34.0357774501
36.1418857573
39.4289034961
44.3068850659
49.3314688993
51.9932715313
51.7409263702
47.986384554
40.7297302919
25.0721554866
1.32456093121e-15
1.84806966837e-18
7.49396359281e-21
0
0
0
0
0
0
0
0
0
0
0
0
0
0
0
0
0
0
0
0
0
0
0
0
0
0
0
0
0
0
0
0
23.8691383071
24.8796022682
24.5213252619
23.713322562
24.4648697454
24.183662159
24.0913342265
25.7546794045
25.7366373968
27.6216832323
28.2900877588
26.8229344133
26.4548404813
27.2273436286
27.0471300022
26.7598624516
26.8291838674
27.8840520243
27.2949570502
28.1639969086
27.9820226275
27.8491171438
27.6970588226
27.314698921
26.6234456923
27.3965074325
28.3353435585
25.2686369422
25.4257636695
27.4565422437
29.6860758476
30.7062502878
31.5531684414
31.3522776508
32.6093938505
34.3576472018
36.7210754331
41.0483406687
47.7658026437
53.1744057624
54.6252105895
49.764198248
46.3524588044
40.7355398224
26.5996166742
1.25263838539e-17
3.19703445235e-20
0
0
0
0
0
0
0
0
0
0
0
0
0
0
0
0
0
0
0
0
0
0
0
0
0
0
0
0
0
0
0
0
0
24.5961302327
25.641718887
25.2712392127
24.6335046244
25.2042074888
24.7941104751
24.6795172601
26.0599720742
26.3052152548
27.6526755194
29.1725635989
27.6134529633
27.1258267824
27.8805835242
27.9595548649
27.5100237581
27.1182425131
28.6676820025
28.7143903617
29.2724534225
29.3442030249
29.4934827956
28.3248991298
28.3134859597
27.8642223649
29.0425628618
29.7114956798
27.0984028314
25.0892416699
26.540923418
29.0750532063
30.9458147958
31.8641957359
31.9955656004
32.373559099
34.258773484
36.7688451193
42.322188379
51.0396409975
57.0328789393
55.4970936858
49.0405495889
41.9840059256