/*--------------------------------*- C++ -*----------------------------------*\
| =========                 |                                                 |
| \\      /  F ield         | OpenFOAM: The Open Source CFD Toolbox           |
|  \\    /   O peration     | Version:  v1806                                 |
|   \\  /    A nd           | Web:      www.OpenFOAM.com                      |
|    \\/     M anipulation  |                                                 |
\*---------------------------------------------------------------------------*/
FoamFile
{
    version     2.0;
    format      ascii;
    class       volVectorField;
    location    "561";
    object      U;
}
// * * * * * * * * * * * * * * * * * * * * * * * * * * * * * * * * * * * * * //

dimensions      [0 1 -1 0 0 0 0];


internalField   nonuniform List<vector> 
6400
(
(-0.000102693863526 -0.000135458974033 0)
(-0.000274687855655 -0.000100518054066 0)
(-0.00039945732472 -7.94464254143e-05 0)
(-0.000534248646957 -6.8905783466e-05 0)
(-0.00063218399356 -4.30470399538e-05 0)
(-0.00070270415766 -2.33308517911e-05 0)
(-0.000740382151261 -1.59446485062e-05 0)
(-0.000770866260249 -2.58383357638e-05 0)
(-0.000854548577836 -3.7069257597e-05 0)
(-0.000937379129488 -3.47118370739e-05 0)
(-0.000973287014644 -3.09791127392e-05 0)
(-0.00104820950372 -3.28098536569e-05 0)
(-0.0011151085595 -2.92376469768e-05 0)
(-0.00116865867378 -2.32613164187e-05 0)
(-0.00120777587903 -2.0529170295e-05 0)
(-0.00124860905553 -2.326319812e-05 0)
(-0.00129944775399 -2.39148374938e-05 0)
(-0.00134265695797 -2.03947983707e-05 0)
(-0.00137364328734 -1.54913144019e-05 0)
(-0.00140219077226 -1.32193874972e-05 0)
(-0.00143970285773 -1.82767341918e-05 0)
(-0.0014863853005 -2.3801273303e-05 0)
(-0.00153583122576 -2.4762870362e-05 0)
(-0.00158028943615 -2.37284498508e-05 0)
(-0.00162166145783 -2.14645247129e-05 0)
(-0.00166084985539 -1.87879647691e-05 0)
(-0.00169943810358 -1.74904732992e-05 0)
(-0.00173438901078 -1.5761036506e-05 0)
(-0.00176345699502 -1.33738868265e-05 0)
(-0.00178738031751 -1.14956728727e-05 0)
(-0.00180655533161 -1.10138186114e-05 0)
(-0.00182645564382 -1.00208352422e-05 0)
(-0.00184641298551 -8.11142893743e-06 0)
(-0.00186244985979 -7.92595859004e-06 0)
(-0.00187724969225 -7.67450155469e-06 0)
(-0.00189709157468 -7.26808670085e-06 0)
(-0.0019135421649 -7.63553677661e-06 0)
(-0.00191786124341 -6.75793655874e-06 0)
(-0.00193157073098 -4.83289367257e-06 0)
(-0.00195060456582 -3.84040324649e-06 0)
(-0.0019613371129 -5.92328101478e-06 0)
(-0.0019618491418 -5.37739479025e-06 0)
(-0.00195960912685 6.9403243292e-07 0)
(-0.00195483156396 5.06944831944e-06 0)
(-0.001944452729 7.21715357695e-06 0)
(-0.00192955739454 9.63939036492e-06 0)
(-0.00190957511629 1.221419879e-05 0)
(-0.00188330500845 1.54391960291e-05 0)
(-0.00185079521619 1.85624057968e-05 0)
(-0.00181198346352 1.92263018982e-05 0)
(-0.001770376516 1.7448261306e-05 0)
(-0.00173332912374 2.02106642892e-05 0)
(-0.00168219207868 3.20079719733e-05 0)
(-0.00162144505973 3.92139664194e-05 0)
(-0.00154114868528 4.54196567472e-05 0)
(-0.0014297187486 5.50342949058e-05 0)
(-0.00131239394019 5.54053970125e-05 0)
(-0.00121020388302 5.4074861779e-05 0)
(-0.00110634388056 6.25587808922e-05 0)
(-0.000957429815395 6.91845272571e-05 0)
(-0.000811050843454 7.00490685534e-05 0)
(-0.000646723770777 8.81800456735e-05 0)
(-0.000491025767149 0.000131820237798 0)
(-0.000183172344219 0.000114700089288 0)
(7.91940598924e-06 6.76288485835e-05 0)
(0.000103566491342 4.46159302656e-05 0)
(0.000170541242266 3.28473974271e-05 0)
(0.000227480561776 2.53858721369e-05 0)
(0.000277680907343 1.92537674107e-05 0)
(0.000311066418111 1.17259993485e-05 0)
(0.00032902718675 3.42537189652e-06 0)
(0.000322811818371 -4.91839506098e-06 0)
(0.000299017480795 -1.29792967566e-05 0)
(0.000279536751944 -2.14120523571e-05 0)
(0.000217316261037 -2.06096806943e-05 0)
(0.000193503729228 -2.02105721626e-05 0)
(0.000129124760529 -1.32010579221e-05 0)
(0.000133818611581 -1.90364442355e-05 0)
(5.76131566592e-05 -1.37193875398e-05 0)
(4.281761078e-05 -2.572163055e-05 0)
(-3.88395439243e-05 -0.000190822051482 0)
(-0.000164933554502 -0.000212237265536 0)
(-0.000286887471055 -0.000190125941254 0)
(-0.000365855740029 -0.000152084310684 0)
(-0.000526227449877 -0.000147871177912 0)
(-0.000669347178507 -0.000104238088864 0)
(-0.000752471776728 -6.65456421785e-05 0)
(-0.00080965383103 -8.42552360927e-05 0)
(-0.000870431737562 -0.000107334776537 0)
(-0.000938053038798 -0.000104359190281 0)
(-0.00100187963261 -9.67558280946e-05 0)
(-0.00106018436306 -9.32685669765e-05 0)
(-0.00111422772377 -8.2486187535e-05 0)
(-0.00116244036759 -6.91654098322e-05 0)
(-0.00120937301834 -6.31095810139e-05 0)
(-0.00125428994576 -7.38014159701e-05 0)
(-0.00130003508518 -7.71940396796e-05 0)
(-0.00133719295673 -5.53692406512e-05 0)
(-0.0013390551397 -3.93132460395e-05 0)
(-0.00137534113595 -4.05352723134e-05 0)
(-0.0014245041869 -5.72335919298e-05 0)
(-0.00147834225834 -7.65944724131e-05 0)
(-0.00153708269594 -7.88869821234e-05 0)
(-0.00158597141468 -6.94903660896e-05 0)
(-0.00161605534227 -6.22160253749e-05 0)
(-0.00166098166017 -5.83074406944e-05 0)
(-0.00170213991544 -5.31529217033e-05 0)
(-0.00173458906186 -4.64896116502e-05 0)
(-0.00176241135108 -3.99920503395e-05 0)
(-0.00178729669686 -3.48113514522e-05 0)
(-0.00180852946983 -3.21272015439e-05 0)
(-0.00182175074254 -2.86709615589e-05 0)
(-0.00184144580367 -2.27787459741e-05 0)
(-0.00185617553761 -2.31968062679e-05 0)
(-0.00186805826019 -2.52004846263e-05 0)
(-0.00189575988995 -2.18246728226e-05 0)
(-0.00190789975412 -2.19717835856e-05 0)
(-0.0019126808279 -2.27033846469e-05 0)
(-0.00193176340444 -1.89742354055e-05 0)
(-0.00196040780308 -1.29083452581e-05 0)
(-0.00197298132669 -4.11984608918e-06 0)
(-0.0019276617343 4.01883421127e-06 0)
(-0.00190300437286 8.9169715911e-06 0)
(-0.00190336803315 1.25467051614e-05 0)
(-0.00189654574126 1.67650127153e-05 0)
(-0.00188956466039 2.24909925697e-05 0)
(-0.00187990658125 3.00693806497e-05 0)
(-0.00186094562501 3.90246111754e-05 0)
(-0.00184086050596 4.8823814337e-05 0)
(-0.0018117821391 5.80423759328e-05 0)
(-0.00176490327549 6.50643385462e-05 0)
(-0.00169195064863 7.15784968771e-05 0)
(-0.00162354583712 8.12824835909e-05 0)
(-0.00162100510371 0.00010290890969 0)
(-0.00153111366269 0.000130039050722 0)
(-0.00143587432778 0.000150329079796 0)
(-0.00136259116607 0.000159786145767 0)
(-0.00126030608554 0.00016853457756 0)
(-0.00113919314495 0.000190345091999 0)
(-0.00100843173641 0.000218434080989 0)
(-0.000863899557738 0.000250001523319 0)
(-0.000619287183299 0.000271532128013 0)
(-0.000466516377754 0.000382278404077 0)
(-0.000184279674394 0.000349664096501 0)
(1.36031956629e-06 0.000223009911279 0)
(9.97869460308e-05 0.000131743572582 0)
(0.00016553793807 9.35355210408e-05 0)
(0.000233959316014 7.94978381301e-05 0)
(0.000285805592648 6.08474060306e-05 0)
(0.00032420174588 3.6288940102e-05 0)
(0.000336128155152 6.77413436612e-06 0)
(0.000324197153172 -2.05927757661e-05 0)
(0.000290047112469 -3.69878842386e-05 0)
(0.000275852305833 -5.18487193629e-05 0)
(0.000242928513775 -5.87325710492e-05 0)
(0.000208607948539 -5.97321998747e-05 0)
(0.000170655515589 -5.38677687148e-05 0)
(0.000134554587381 -5.75807366042e-05 0)
(8.30019529087e-05 -6.2036176351e-05 0)
(3.83461318628e-05 -0.000101229246032 0)
(-5.7382011545e-05 -0.0003294328705 0)
(-0.000158908236933 -0.000355236143839 0)
(-0.000245740079939 -0.000327054774482 -9.13119139539e-29)
(-0.000412057743556 -0.000326703009647 8.47612253071e-29)
(-0.000565107346413 -0.000318398852114 7.4719449297e-29)
(-0.000662266917744 -0.000254716718569 -6.81317408229e-29)
(-0.00073165996297 -0.000137330410862 6.8403685505e-29)
(-0.000791418762346 -0.000144145712578 -6.63738074698e-29)
(-0.000854837343686 -0.000174455766655 0)
(-0.000926690911634 -0.000176139888529 0)
(-0.000996603892629 -0.000163912291066 0)
(-0.00105779813341 -0.000148780763287 0)
(-0.00111192519421 -0.000131008036982 0)
(-0.00115884665886 -0.000117690780846 0)
(-0.00120644330394 -0.000109868454486 0)
(-0.00125145615116 -9.7378982387e-05 0)
(-0.00117003157378 -7.33547490596e-05 0)
(-0.00114657823778 -5.86819110187e-05 0)
(-0.00118746837617 -6.93579548419e-05 0)
(-0.00126747483875 -0.000103671368366 0)
(-0.00141668193008 -0.00013655419483 0)
(-0.00149526586158 -0.000141488146672 0)
(-0.00152665038823 -0.000129416697724 0)
(-0.00157568300934 -0.00011547815176 0)
(-0.00162528402887 -0.000105484566173 0)
(-0.00166388625059 -9.77490765008e-05 0)
(-0.00169882597385 -8.73704661082e-05 0)
(-0.00173169291922 -7.63301188405e-05 0)
(-0.00176022136701 -6.63931078085e-05 0)
(-0.00178376179983 -5.84367745517e-05 -1.27137727896e-28)
(-0.00180761363631 -5.14394437999e-05 1.23093249365e-28)
(-0.00181517528922 -4.52290228271e-05 0)
(-0.00183221171164 -3.82804125768e-05 0)
(-0.00186140772616 -3.34229082068e-05 0)
(-0.00184792035771 -3.96471875019e-05 0)
(-0.00187648825965 -4.24560288575e-05 0)
(-0.00191390403683 -3.66360406808e-05 0)
(-0.00190222093737 -3.71616676594e-05 0)
(-0.00192517420433 -3.91632583158e-05 0)
(-0.00195790890836 -2.7819208505e-05 0)
(-0.00197244609851 -2.89729322835e-06 0)
(-0.00197034650535 1.5664843376e-05 0)
(-0.00196494626067 1.89356782712e-05 0)
(-0.00195887147861 2.07922158682e-05 0)
(-0.00194845176423 2.69700342934e-05 0)
(-0.0019332950587 3.59644010717e-05 0)
(-0.00191359772093 4.80339253237e-05 0)
(-0.00188913366147 6.19255737797e-05 0)
(-0.00185986313347 7.7630702341e-05 0)
(-0.00182516250008 9.6227505297e-05 0)
(-0.00178425868123 0.000115662625646 0)
(-0.00173654117602 0.000130411002379 0)
(-0.00168129722845 0.000140588234631 0)
(-0.00160776619 0.00016775106273 0)
(-0.00151825640374 0.000204813138673 0)
(-0.00144620642159 0.000232337717494 0)
(-0.00135842863703 0.000255576059152 0)
(-0.00124770801367 0.000284028483883 0)
(-0.00112001383257 0.000320301439997 0)
(-0.000976722041763 0.000366801723412 0)
(-0.000809244080066 0.000429498212219 0)
(-0.000623161090416 0.000514988496801 0)
(-0.000428013563813 0.000632326812386 0)
(-0.000184594047765 0.000535251425757 0)
(-5.7998008633e-06 0.000331478931794 0)
(0.000105744335701 0.0002257024485 0)
(0.00019119570289 0.000173614489756 0)
(0.000252984164704 0.000135649658091 0)
(0.000298908806269 9.75044865436e-05 0)
(0.000327466490789 5.28533379377e-05 0)
(0.00033363530343 6.54347218731e-06 0)
(0.000325536371425 -3.07542396943e-05 0)
(0.000319047121248 -5.73543298637e-05 0)
(0.000298617146429 -8.30489167498e-05 0)
(0.000256334008949 -0.000100668794923 0)
(0.000208825161815 -0.000102664647087 0)
(0.00016317486851 -9.69411248589e-05 0)
(0.000124365832112 -0.00010700324344 0)
(8.52569704387e-05 -0.000140289871351 0)
(2.19686690847e-05 -0.000139630529933 0)
(-5.7367811869e-05 -0.000487650461222 0)
(-7.79019023485e-05 -0.000335227834134 0)
(-0.000201313450249 -0.000491127157061 0)
(-0.000356445058101 -0.000485011351111 0)
(-0.000492531160647 -0.000410917741347 0)
(-0.000296715235555 -0.000165659970373 0)
(-0.000374963484209 -0.000165745967232 0)
(-0.000676997342959 -0.000284280844166 0)
(-0.000810021391062 -0.000289487539436 0)
(-0.000901258861048 -0.000261281176166 0)
(-0.000983910288127 -0.000237718696951 0)
(-0.00105285310395 -0.000210991106593 0)
(-0.00111071698645 -0.00018347321901 0)
(-0.00115048395103 -0.00014649865966 0)
(-0.00110876732059 -9.97819299483e-05 0)
(-0.00106641111082 -6.90253042764e-05 0)
(-0.00107253216344 -6.72915843675e-05 0)
(-0.00113805985269 -0.00010451554415 0)
(-0.00127333965128 -0.00016332180294 0)
(-0.00139440033021 -0.000213247911333 0)
(-0.00143890987284 -0.000217588247981 0)
(-0.00148579795419 -0.000197018407701 0)
(-0.00153691601332 -0.000178108771076 0)
(-0.00158194421641 -0.00016317845887 0)
(-0.00162249250638 -0.000148322269199 0)
(-0.00165937708444 -0.00013389673194 0)
(-0.0016931266913 -0.000120271183565 0)
(-0.00172873017811 -0.000106460824693 0)
(-0.00175432493277 -9.2976354619e-05 0)
(-0.00178405514961 -8.12800898181e-05 0)
(-0.00179545357065 -7.08348922642e-05 0)
(-0.00182089708259 -6.00572395478e-05 0)
(-0.00181559133446 -4.86316503654e-05 0)
(-0.00183686441115 -4.76448321488e-05 0)
(-0.00187643958475 -5.5154061509e-05 0)
(-0.0018690382825 -6.26778484947e-05 0)
(-0.00190486883505 -6.16303522175e-05 0)
(-0.00194046795726 -5.83881744719e-05 0)
(-0.00195390489177 -5.57117884933e-05 0)
(-0.00196330106608 -3.93101831928e-05 0)
(-0.00197050198034 -1.19817009583e-05 0)
(-0.00197203323677 1.0605703971e-05 0)
(-0.0019693989452 2.22205948638e-05 0)
(-0.00196342997654 3.0314872808e-05 0)
(-0.0019529038398 4.06856822844e-05 0)
(-0.00193771418349 5.41268794662e-05 1.12267005473e-28)
(-0.00191797279664 7.04392372392e-05 -1.13042868119e-28)
(-0.00189349460124 8.90960769013e-05 0)
(-0.00186404669346 0.000110091465371 0)
(-0.00182908799036 0.000133390262404 0)
(-0.00178767871096 0.000157484079025 0)
(-0.00173824910253 0.000181155279019 0)
(-0.00167903233725 0.000208536041949 0)
(-0.0016081604159 0.000245460339841 0)
(-0.00152875607296 0.00028379343336 0)
(-0.00144312024837 0.00032021818507 0)
(-0.00134410075324 0.000361690612256 0)
(-0.00122548659902 0.000409826703572 2.22939777543e-28)
(-0.00108621756791 0.000466939350767 -2.6085632323e-28)
(-0.000925035988613 0.000537348706443 0)
(-0.00074027255586 0.000622466799282 0)
(-0.000542063789339 0.000717783634445 0)
(-0.000365003060644 0.000782279440401 0)
(-0.000195349458168 0.000716302208453 0)
(-5.68675587235e-06 0.000521650091228 0)
(0.000127227066629 0.000328478290243 0)
(0.000211251726082 0.000240135093362 0)
(0.000278927516291 0.000187479603826 0)
(0.00032835851195 0.000133184863377 0)
(0.000365239293345 7.2237674408e-05 0)
(0.000380542118693 1.02400281993e-05 0)
(0.000375759823411 -4.22716331339e-05 0)
(0.00034518278129 -8.93676989243e-05 0)
(0.000282193300608 -0.000123668659576 0)
(0.000231010882312 -0.000144595438056 0)
(0.000183101309798 -0.000154872160456 0)
(0.000130608869843 -0.000147485402215 0)
(7.48730847676e-05 -0.000123435137483 0)
(5.37021804652e-05 -0.000158146726789 0)
(1.79693647743e-05 -0.000182674877593 0)
(-8.02184976298e-06 -0.000493678735384 0)
(-4.18800308584e-05 -0.000407923850121 0)
(-0.000180739351139 -0.000639165455511 0)
(-0.000305480975939 -0.000589871086065 0)
(-0.000340010735673 -0.000396138599598 0)
(-0.000275339250433 -0.000223006254688 0)
(-0.000461689949784 -0.000354084970105 0)
(-0.000674001413143 -0.000469001612664 0)
(-0.000763005629035 -0.000413149851778 0)
(-0.000867360866342 -0.000358594330603 0)
(-0.000958214515396 -0.000325785617372 0)
(-0.00103502722235 -0.000282636274459 0)
(-0.00105372100602 -0.000202002410977 0)
(-0.000987563388575 -0.000118805599454 0)
(-0.00100918323245 -8.85411190667e-05 0)
(-0.00106807930855 -0.000100736834044 0)
(-0.00116462311063 -0.000148261616619 0)
(-0.00127801800199 -0.000215270043896 0)
(-0.00135641398817 -0.000260168090508 0)
(-0.00138509455975 -0.000264809617318 0)
(-0.00143230935786 -0.000259911046907 0)
(-0.00148807669941 -0.000248407748009 0)
(-0.00153492269246 -0.000228297312361 0)
(-0.00157867630282 -0.000206731636451 0)
(-0.00161807068056 -0.000187061256174 0)
(-0.00165303233449 -0.000170209741119 0)
(-0.00169148546673 -0.000153536946165 0)
(-0.0017170640132 -0.000136368104053 0)
(-0.00175512331252 -0.000119540774247 0)
(-0.00176592144278 -0.000102626381796 0)
(-0.00180163397732 -8.82209662357e-05 -1.21970220955e-28)
(-0.00178166340898 -7.39523551075e-05 1.15816344821e-28)
(-0.00182398401859 -6.77665003127e-05 0)
(-0.0018608207564 -6.68102795368e-05 0)
(-0.00186070892403 -7.51740785875e-05 0)
(-0.00190420773705 -8.79187157678e-05 0)
(-0.0019287657502 -9.14080003702e-05 0)
(-0.00194643090713 -8.09414546027e-05 0)
(-0.0019584405106 -6.51192643034e-05 0)
(-0.00196690436747 -4.39270896717e-05 0)
(-0.00197343872071 -1.73201417226e-05 0)
(-0.00197637713133 7.0830949316e-06 0)
(-0.00197506418223 2.45853074662e-05 0)
(-0.00196943911343 3.87362794845e-05 0)
(-0.00195908814876 5.39754957296e-05 0)
(-0.00194406860363 7.18860903355e-05 0)
(-0.00192442799611 9.26611712022e-05 0)
(-0.00189995832028 0.000116133576104 0)
(-0.00187027439922 0.000142361665449 0)
(-0.00183472994156 0.000171350387709 0)
(-0.00179227704639 0.000202602577375 0)
(-0.00174132733238 0.000236289566478 0)
(-0.00168024748561 0.00027471518305 0)
(-0.00160816279664 0.000319272206773 0)
(-0.00152614766579 0.000367002012896 0)
(-0.00143341574941 0.000418814926267 0)
(-0.00132409994069 0.000479102994485 0)
(-0.00119250587933 0.000549741695533 0)
(-0.00103620104281 0.000631959829762 0)
(-0.000855962950102 0.000725530025952 0)
(-0.000659585901561 0.000822237486946 0)
(-0.000469745911873 0.000901508881017 0)
(-0.000315358814083 0.00092258341444 0)
(-0.000168367937735 0.000886950912906 0)
(1.9452814912e-05 0.000709153916004 0)
(0.000158521553914 0.000464482907372 0)
(0.000252992720373 0.000330448971578 0)
(0.000324302199061 0.00024759820602 0)
(0.000375203242081 0.000172620043503 0)
(0.000414174381908 9.48988861645e-05 0)
(0.000436816568398 1.16676699842e-05 0)
(0.000412686204509 -7.56933030336e-05 0)
(0.000335118156562 -0.000141311094626 0)
(0.000273309124693 -0.00018174482581 0)
(0.000215319528707 -0.000206218452581 0)
(0.000156983845149 -0.000214194413922 0)
(0.000100912468568 -0.000185265680837 0)
(6.2379837408e-05 -0.000161098035306 0)
(3.87751312573e-05 -0.000199150752555 0)
(9.88449995422e-06 -0.00020509196146 0)
(-3.72327886263e-07 -0.000464220260604 0)
(-4.96864554001e-05 -0.000495092143448 0)
(-0.00018104197595 -0.000731200760793 0)
(-0.000257867327176 -0.000618094295487 0)
(-0.000202830418861 -0.000316622902949 0)
(-0.000278500052363 -0.000321826862441 0)
(-0.000558440998364 -0.000562870592237 0)
(-0.000645400662443 -0.000571729659507 0)
(-0.000729314439358 -0.000513237217037 0)
(-0.00082688327756 -0.000460105321668 0)
(-0.000920369795117 -0.000395473679959 0)
(-0.000881964819521 -0.000277306721675 0)
(-0.000819498944713 -0.00016355531563 0)
(-0.000881082593489 -0.000135338393954 0)
(-0.000958179288866 -0.000153424869132 0)
(-0.00109189617303 -0.00020765480291 0)
(-0.00122038663994 -0.000265176663189 0)
(-0.00130283187645 -0.000293502919152 0)
(-0.00132070900932 -0.000293456591305 0)
(-0.00137537441642 -0.000306256723939 0)
(-0.00143750963299 -0.000313397091794 0)
(-0.00148486306041 -0.000298622434154 0)
(-0.00152940262469 -0.000274784716041 0)
(-0.00157087725703 -0.000250212896246 0)
(-0.00161551178161 -0.000227321958988 0)
(-0.00165062948437 -0.00020368867119 0)
(-0.00166888894078 -0.000184935540602 0)
(-0.00172071433123 -0.000167465518259 0)
(-0.00172325093918 -0.00014331112762 0)
(-0.00177591511448 -0.000121007813978 0)
(-0.00174123816542 -9.86543469519e-05 0)
(-0.00180126028073 -9.45809052869e-05 0)
(-0.00177720551411 -9.11291822998e-05 0)
(-0.00184058737017 -9.67652222678e-05 0)
(-0.00189512559234 -0.000109241060114 0)
(-0.0019207201999 -0.000118435355206 0)
(-0.00193773727554 -0.000111210982359 0)
(-0.0019518492403 -9.49017164023e-05 0)
(-0.00196306957151 -7.4478583058e-05 0)
(-0.00197192058121 -5.029929412e-05 0)
(-0.00197858116783 -2.28314222214e-05 0)
(-0.00198214940906 3.7747762245e-06 0)
(-0.00198166349605 2.63297058998e-05 0)
(-0.0019765585228 4.63102228069e-05 0)
(-0.00196664520212 6.674859528e-05 0)
(-0.00195197380192 8.93894726433e-05 0)
(-0.00193257034093 0.000114838164966 0)
(-0.0019081394726 0.000143297133501 0)
(-0.00187813526491 0.000175030325726 0)
(-0.00184181284211 0.000210304972057 0)
(-0.00179809502817 0.000249317779023 0)
(-0.00174549293947 0.000292712419792 0)
(-0.0016825030837 0.000341733619344 0)
(-0.00160808821156 0.000396832025566 0)
(-0.00152141241789 0.000457925361144 0)
(-0.00141954759692 0.000527932200164 0)
(-0.00129680712997 0.000610705929013 0)
(-0.00114868885768 0.000706970220033 0)
(-0.000975421225595 0.000813659371273 0)
(-0.00078324108725 0.000920685905974 0)
(-0.000589354270997 0.00101023587463 0)
(-0.00041644843656 0.00105381162046 0)
(-0.000257736122882 0.00101459320688 0)
(-0.000127284665002 0.00107186597203 0)
(5.11373115864e-05 0.000848498233217 0)
(0.000183721325441 0.000578079039133 0)
(0.000292784100608 0.00042134453076 0)
(0.000383148166364 0.000313871262948 0)
(0.000444701951899 0.000217219536998 0)
(0.000499189493171 0.000119262254138 0)
(0.000510470103002 -1.01509835047e-05 0)
(0.000427884734804 -0.000134671836373 0)
(0.000341614306046 -0.000209456774506 0)
(0.000272739723962 -0.000255093431634 0)
(0.000196418337426 -0.000276305729877 0)
(0.000134215739967 -0.000272084226081 0)
(8.03258653055e-05 -0.00021827825232 0)
(4.7716432762e-05 -0.000192293179854 0)
(2.67724238922e-05 -0.000224334823412 0)
(7.34683897013e-06 -0.000221232199825 0)
(-1.77067329625e-05 -0.000505257000235 0)
(-0.000106183312187 -0.000639902478679 0)
(-0.000230585585363 -0.00079905692254 0)
(-0.000267840409065 -0.000747458620431 0)
(-0.000193970823463 -0.000399940344305 0)
(-0.000390887327112 -0.00055825588455 0)
(-0.000566268474728 -0.000684286505895 0)
(-0.000621249221132 -0.000648421393409 0)
(-0.000702119445367 -0.000593859357012 0)
(-0.000761342319731 -0.000536085177908 0)
(-0.000884978376676 -0.000443559461093 3.12345050118e-28)
(-0.000719482381892 -0.000230981722403 -1.96967804553e-28)
(-0.00081239701739 -0.00020140632795 0)
(-0.000865427373637 -0.000211354414707 0)
(-0.000992777583362 -0.000269083716706 0)
(-0.00114129713458 -0.000342758023892 0)
(-0.0012326526968 -0.00035874035273 0)
(-0.00123657185504 -0.00032913009878 0)
(-0.00130240767801 -0.00034042616091 0)
(-0.00138156254483 -0.000367176659863 0)
(-0.00142875787553 -0.000365886984985 0)
(-0.00147783327338 -0.000346417524293 0)
(-0.00152476152486 -0.000320976275546 0)
(-0.00156839875403 -0.000292507019622 0)
(-0.00160085534019 -0.000261953505814 0)
(-0.00162509175239 -0.000232812323945 0)
(-0.00167515498881 -0.000214075416513 0)
(-0.00166622706936 -0.000193959255962 0)
(-0.00173803229219 -0.000168659845008 0)
(-0.00169678914091 -0.000127851702233 0)
(-0.00176877822288 -0.000118766165164 0)
(-0.00174784306806 -0.000118875873847 1.13711579004e-28)
(-0.00181248724357 -0.00012416603234 -1.16129695676e-28)
(-0.00184873332796 -0.000141320607592 0)
(-0.00190847435902 -0.000151458903629 0)
(-0.00193002366108 -0.00014328993048 0)
(-0.00194401439912 -0.000127257074366 0)
(-0.00195704361115 -0.00010726699551 0)
(-0.00196885047314 -8.40695616291e-05 0)
(-0.00197845330547 -5.76296121872e-05 0)
(-0.00198545160285 -2.8561580481e-05 0)
(-0.00198947024913 6.06027503341e-07 0)
(-0.00198959010437 2.76920647681e-05 0)
(-0.00198507594635 5.31342430524e-05 0)
(-0.00197571699563 7.88602313777e-05 0)
(-0.001961538531 0.000106468998354 0)
(-0.00194245792605 0.000136864371443 0)
(-0.00191804638169 0.00017061283699 0)
(-0.00188764472994 0.000208250634372 0)
(-0.00185047116011 0.000250350658445 0)
(-0.00180546694546 0.000297561840012 0)
(-0.00175118664065 0.000350764147746 0)
(-0.00168599665511 0.000410996648818 0)
(-0.00160810856478 0.000479283836628 0)
(-0.00151496765899 0.000557641928566 0)
(-0.00140222564772 0.000649883701523 0)
(-0.00126469589973 0.000758308521193 0)
(-0.00110028155083 0.000879624580104 0)
(-0.00091395821774 0.0010031961053 0)
(-0.000719072547611 0.00111236563793 0)
(-0.000533299670568 0.00118403143366 0)
(-0.000372150302933 0.0012037816403 0)
(-0.000227618281564 0.00120907897942 0)
(-0.000106645424462 0.00119209870586 0)
(5.77388594121e-05 0.000990994145085 0)
(0.000215534299068 0.00069186849249 0)
(0.000359838874268 0.000544958143811 0)
(0.000484750155516 0.000417548350545 0)
(0.000569627172178 0.000283728365095 0)
(0.000615233318626 0.000125348170255 0)
(0.000573326185622 -6.88526678025e-05 0)
(0.000459163194955 -0.000215030358727 0)
(0.000368141751904 -0.000302164554068 0)
(0.000268092013046 -0.000346827190307 0)
(0.000175694960184 -0.000357017733201 0)
(0.000105577583933 -0.000315638060359 0)
(6.08141453616e-05 -0.000261173222133 0)
(2.60192239932e-05 -0.00021983306008 0)
(1.02663015254e-05 -0.000237600947266 0)
(3.50000248255e-06 -0.000236292972166 0)
(-3.53985041328e-05 -0.000588776902901 0)
(-0.000147078057496 -0.000774917558385 0)
(-0.000255379327234 -0.000836471667717 0)
(-0.000177024366316 -0.000527012013076 0)
(-0.000204895685166 -0.00049826905143 0)
(-0.000444081957193 -0.000757253927863 0)
(-0.00052621458919 -0.000761061311451 0)
(-0.000601624374597 -0.00072453272999 0)
(-0.000655159761636 -0.000654122751253 0)
(-0.000738030560405 -0.000591296432913 0)
(-0.000627290782505 -0.000360492361554 0)
(-0.000711626542401 -0.000276166856412 0)
(-0.000793649000647 -0.000271383925983 0)
(-0.000864631644753 -0.000306922919073 0)
(-0.00104686503671 -0.000405891208648 0)
(-0.00115526641555 -0.000440604902774 0)
(-0.00115034283589 -0.000392469804852 0)
(-0.00120996511327 -0.000381688124472 0)
(-0.00130873706656 -0.000414543408635 0)
(-0.00137256463031 -0.000427211198111 0)
(-0.00141744104431 -0.000414874464278 0)
(-0.00146278043809 -0.000393129621695 0)
(-0.00151384801182 -0.000369020222331 0)
(-0.0015571928536 -0.000336722274286 0)
(-0.0016045664951 -0.0002948678192 0)
(-0.00160877095559 -0.00026535430482 0)
(-0.00167413258715 -0.000242018752729 0)
(-0.00167788829159 -0.000212504818327 0)
(-0.0016700295369 -0.000182202415663 0)
(-0.00170607889616 -0.000160475293983 0)
(-0.0017899422371 -0.000151754439949 0)
(-0.00177843294836 -0.000142448735094 0)
(-0.00179753063501 -0.000165678424799 0)
(-0.0018876910969 -0.000189418882332 0)
(-0.00191396160265 -0.000186149598508 0)
(-0.00193362362988 -0.000165397305926 0)
(-0.00194961564748 -0.000142856191671 0)
(-0.00196330079678 -0.000119859389132 0)
(-0.00197575248595 -9.44899625599e-05 0)
(-0.00198620919758 -6.59031548495e-05 0)
(-0.00199383082368 -3.47038044925e-05 0)
(-0.00199829254399 -2.66485348393e-06 0)
(-0.00199898248161 2.86710557953e-05 0)
(-0.00199515657993 5.9264364372e-05 0)
(-0.00198648246175 9.02708339647e-05 1.08806575534e-28)
(-0.00197290154044 0.00012304973355 -1.08526988534e-28)
(-0.00195418787516 0.000158707325126 0)
(-0.00192977946983 0.000198119416943 0)
(-0.00189895870167 0.000242074588737 0)
(-0.00186096366599 0.000291420625585 0)
(-0.00181476165147 0.000347187070293 0)
(-0.00175886647272 0.000410661070505 0)
(-0.0016913129432 0.000483455012965 0)
(-0.00160935351486 0.000567823977918 0)
(-0.00150895904593 0.000667182047717 0)
(-0.00138500669233 0.000784870470665 0)
(-0.0012335579932 0.00091980997557 0)
(-0.0010554972128 0.00106329984729 0)
(-0.00085942026873 0.00119839808381 0)
(-0.000659289132965 0.00130486553003 0)
(-0.00047160648145 0.0013586543564 0)
(-0.000312881911149 0.00135793968207 0)
(-0.000186152514003 0.00132903172875 0)
(-8.95208233129e-05 0.00128460886206 0)
(4.41586195221e-05 0.00124772677063 0)
(0.000246139360697 0.000859861242409 0)
(0.000436296335654 0.000693202161639 0)
(0.000604729377597 0.000538890467165 0)
(0.000703627089306 0.000339898613595 0)
(0.000728841297916 9.76201609944e-05 0)
(0.000649026131432 -0.000153806674174 0)
(0.000522104138546 -0.000325693236147 0)
(0.000395215498033 -0.000426428374108 0)
(0.000256324354264 -0.000464231372094 0)
(0.00014348393102 -0.000444211934518 0)
(6.66749563353e-05 -0.000367993360844 0)
(2.26454041664e-05 -0.000303162680601 0)
(-6.19951675113e-06 -0.000248005208665 0)
(-1.46894502886e-05 -0.000240179102055 0)
(-5.70291208387e-06 -0.000239700955435 0)
(-4.88221600019e-05 -0.000692790742945 0)
(-0.000165094363495 -0.000883385060531 0)
(-0.000219455710585 -0.000868317949837 0)
(-0.000171204340081 -0.000578146198761 0)
(-0.000276259934934 -0.000653301125189 0)
(-0.000452667887301 -0.000857001863961 0)
(-0.00049055040686 -0.000832923711016 0)
(-0.000583791585906 -0.000796447886141 0)
(-0.000576789951235 -0.000667672778726 0)
(-0.000741665866016 -0.000664293105834 0)
(-0.000608882273074 -0.000398716863688 0)
(-0.000716631478656 -0.000355410089034 0)
(-0.000784451647769 -0.000356360450472 0)
(-0.000915597499882 -0.000437678793707 0)
(-0.00106123389635 -0.000526636245657 0)
(-0.00113704235621 -0.000505537344432 0)
(-0.00113108330493 -0.000439760420269 0)
(-0.00121344749798 -0.000456221180488 0)
(-0.00129747478005 -0.000486206973454 0)
(-0.00135616708362 -0.000484526906316 0)
(-0.00140901334002 -0.000464721105515 0)
(-0.00145036291518 -0.000437390049815 0)
(-0.00149818369939 -0.000411192742182 0)
(-0.00152421969292 -0.000377146805926 0)
(-0.00155049074678 -0.000323558729741 0)
(-0.00162308612506 -0.000295212377821 0)
(-0.00158412019241 -0.00026698259757 0)
(-0.00170402894501 -0.00024106828971 0)
(-0.00165922120968 -0.000210354388912 0)
(-0.00176172522617 -0.000204104750586 0)
(-0.00172016788319 -0.000179687578521 0)
(-0.00182132155496 -0.000182958766873 0)
(-0.00186069353884 -0.000210275010225 1.21988013664e-28)
(-0.00189347133732 -0.000227347978125 -1.22474245511e-28)
(-0.00191745626636 -0.00021186781433 0)
(-0.00193779876353 -0.000186061799519 0)
(-0.00195569384987 -0.000159691153603 0)
(-0.00197066279658 -0.000133602194014 0)
(-0.00198378110767 -0.000105872964333 0)
(-0.00199495645298 -7.51016376444e-05 0)
(-0.00200341364029 -4.14718106772e-05 0)
(-0.00200859757764 -6.30981496648e-06 0)
(-0.00200996159801 2.91504778004e-05 0)
(-0.00200691640417 6.46626761857e-05 0)
(-0.00199909483714 0.000100928552918 0)
(-0.00198622923361 0.000139086871573 0)
(-0.00196791159618 0.000180343820839 0)
(-0.00194351686839 0.000225802764393 0)
(-0.00191234173627 0.000276451813369 0)
(-0.00187366490595 0.000333373611887 0)
(-0.0018265035325 0.00039802147564 0)
(-0.00176933629746 0.000472404538123 0)
(-0.00169982337064 0.000559285177493 0)
(-0.00161426154119 0.00066237877194 0)
(-0.0015074253653 0.000785713677072 0)
(-0.00137380335112 0.000930729166987 0)
(-0.00121079378253 0.00109179554376 0)
(-0.0010201051651 0.00125719107053 0)
(-0.000810027625314 0.00140582209731 0)
(-0.000594245208723 0.00151229060485 0)
(-0.000396785987105 0.00154075931966 0)
(-0.000244282266049 0.00149369191486 0)
(-0.000137552548046 0.00142866379225 0)
(-4.62116516757e-05 0.00138581220138 0)
(5.10921458386e-05 0.00135111094568 0)
(0.00026592042898 0.00117521923094 0)
(0.000509451942356 0.00083159443873 0)
(0.000759485724473 0.000701333271848 0)
(0.000890943286477 0.000406313848789 0)