/*--------------------------------*- C++ -*----------------------------------*\
| =========                 |                                                 |
| \\      /  F ield         | OpenFOAM: The Open Source CFD Toolbox           |
|  \\    /   O peration     | Version:  v1806                                 |
|   \\  /    A nd           | Web:      www.OpenFOAM.com                      |
|    \\/     M anipulation  |                                                 |
\*---------------------------------------------------------------------------*/
FoamFile
{
    version     2.0;
    format      ascii;
    class       volScalarField;
    location    "736";
    object      alphak;
}
// * * * * * * * * * * * * * * * * * * * * * * * * * * * * * * * * * * * * * //

dimensions      [0 0 -1 0 0 0 0];


internalField   nonuniform List<scalar> 
6400
(
0.89853526537
1.44902629403
2.30558981363
2.89559311668
3.45829949069
4.01826199978
4.713020739
5.4881355788
5.97382472922
6.70183724868
7.98641860111
8.91858453788
9.71040094251
10.5880348574
11.6514109356
12.7700470367
13.7884870028
14.7481032384
15.5597764486
16.0643361333
16.3630545166
16.8075496703
17.5963255318
18.7019293695
19.9028620057
20.9957339431
21.9200142984
22.7835023515
23.6846923494
24.6388834628
25.5908619856
26.3548638434
26.8539534062
27.20329988
27.4482189708
27.5945187674
27.9075434288
28.4276857196
28.648499618
28.6594025283
29.0275251697
29.8747534841
30.7170731269
31.2005035851
31.3659004133
31.3079307234
31.0923122932
30.761397426
30.3282903415
29.8126812896
29.1356719398
28.089200743
26.6792879322
24.9864193648
23.4364997646
22.0561805537
20.214246967
17.6728922463
15.0153111088
12.7653965935
10.4878759048
8.10376007324
5.87306989238
5.72660298143
8.89735433996
13.5247004027
16.3526534385
15.9461526563
13.8793100068
12.2510310514
11.4168583274
11.7047289876
12.3505905679
12.3023365688
14.4777971297
13.9602349479
15.9097725355
9.80729435867
12.8569249797
4.80237865299
3.16625533761
2.55091357263
3.18841924063
4.46385638308
4.44931259917
4.43212144221
4.71429925725
5.2181280839
5.92318247456
6.81358819705
7.8768100333
8.93909590142
9.88667592716
10.7967282308
11.7281971277
12.7879897247
13.9038606512
14.9673462009
16.0385029737
16.3793137721
16.5013069644
16.9256738815
17.6952291409
18.7903555401
20.1056561268
21.1461953987
22.0427771426
22.9415832056
23.8564732709
24.7815928339
25.7066838994
26.5526242102
27.0457994135
27.3883475584
27.6629497189
27.731612674
28.087171977
28.6319938841
28.8120743322
28.6999675344
29.0411096352
30.3651671707
31.4741195054
31.8703306309
31.9806702055
31.8536197815
31.5513454735
31.1604256821
30.5832574396
29.9171849745
29.3009750459
28.7194570852
27.4867585003
25.2095505394
23.7628589416
22.1865391085
19.8484712081
17.3701543792
14.9242310057
12.4973619249
10.2283376013
8.41292159564
6.2677073205
6.24408118588
9.15205955745
14.6080598302
18.1860476752
16.7821050009
14.538676507
12.5846815347
11.9265280338
12.4315108865
13.6464939125
13.1199626526
13.044772324
12.5846308395
11.4454970909
9.64679126615
8.1355783593
4.21713627273
3.29240990846
2.91959001161
3.44446155213
3.78382700858
4.3930007892
4.87841008511
4.90144730966
5.11249410007
5.82111090925
6.78732434859
7.86101039181
8.94285033177
9.93448170524
10.8460457657
11.6329149995
12.5985400092
15.1521303619
17.1544827934
17.6757835883
17.2708779745
16.3072873066
16.6213681862
17.8080682493
18.9520902463
20.0406297746
21.1406742504
22.1353231927
23.0362954141
23.9311905387
24.8509471516
25.7449803491
26.6739119771
27.1607087402
27.2923894259
27.8499962801
27.9367360062
28.0115071751
28.723546508
28.9550283266
28.9088768301
29.2647077226
30.0904006095
30.9078680452
31.3924035976
31.5827810294
31.5659395058
31.3840045347
31.0570095057
30.5880980095
29.9979031294
29.2849344615
28.3363011095
27.0266417281
25.5922738973
24.1159987284
22.0990014549
19.7654383551
17.3530405354
14.9339924005
12.5794482689
10.3983242608
8.31469069863
6.8830321354
7.6815009309
11.5821315323
15.6652195957
17.6356634797
17.6262872614
15.9876461725
14.3128035888
13.6641176685
13.6260002715
13.0052809165
12.4644029639
12.5173359438
12.2522131046
11.3337382208
9.74249949785
7.30897180062
7.51367213899
3.36597778797
5.56870498051
3.81962696598
3.98147052074
4.70668336363
11.9404928055
10.3611275264
5.6283967154
5.78202943008
6.77830861939
7.88187551491
8.98509489059
9.95190359277
10.8697414886
12.5452794928
14.6160137743
16.3275192771
16.89114444
16.1339529942
15.6427014409
16.124199614
16.8584053162
17.8006554815
18.9383087825
20.120022733
21.2493574619
22.2693372712
23.1517761047
24.0622359762
24.9182392555
25.923479068
26.6694244104
27.4073207511
27.5238435229
27.4570388863
28.007630217
28.172774718
28.3627996397
28.752063546
29.1087873681
29.5735338453
30.2594158215
30.9558788555
31.4359520937
31.6646104889
31.6835551616
31.5289082428
31.2221769558
30.772465797
30.1860229091
29.4449494099
28.4865839037
27.2685934883
25.8474253029
24.1827817588
22.1465519533
19.8242252148
17.4093685959
15.0201284279
12.7524937516
10.7229335491
9.12576657017
8.53509439695
9.25262143731
11.3645872663
16.1493048605
19.3829090683
19.4267518219
17.6983482013
15.3053759314
13.697877952
12.9370164347
13.1635610069
14.6594219362
14.6552047115
13.382676196
13.294370486
16.6312435466
13.012385605
11.0127562146
5.79789788824
7.66083935279
4.65997471085
4.98066078913
6.73635967196
11.8385194491
8.42642160386
6.15393319974
6.30982301536
6.99605161715
8.02079216071
9.13576493149
10.5733643917
12.7893385467
13.8640177898
14.3754856961
14.6038799667
14.6811749574
15.0009266317
15.6859022462
16.2487514608
16.9147882682
17.8930545242
19.0353442529
20.2287956119
21.3845754042
22.3798211963
23.3709489755
24.1682485576
25.1810572245
25.9654608022
27.2071955733
27.3480144489
27.2099084187
27.5369311703
27.6117314415
27.9597076091
28.4285025214
28.8982943011
29.3427190564
29.8417909643
30.4532709789
31.0680369643
31.532615656
31.7864849598
31.8374624676
31.7105558978
31.4270339125
30.9982263006
30.4237894044
29.6827413925
28.7351546053
27.5533989907
26.1268755954
24.3919142815
22.3031014522
19.9758678224
17.5952710956
15.3052614298
13.2424206035
11.5831986494
10.5844740287
10.5198963986
10.7100381182
11.9089821717
15.8689519808
19.5558712283
20.7865843265
19.5453095992
16.7337595633
14.2165374235
13.8938877602
16.2168493855
17.130039648
16.130953497
15.2551075604
17.9712124136
21.0192584543
16.2972345236
15.4081649907
10.0778046433
9.2611413438
5.81057172048
6.31517970935
12.1283759949
11.6259595589
6.97084182763
6.78159740177
6.95470400092
7.35148932179
8.25313675954
10.8071648335
13.9318511705
14.4521190019
14.2371201319
13.5764633882
13.5016408695
14.0682860273
15.0964647008
15.6480245062
16.157632924
16.9863422264
18.0310643726
19.1987930829
20.3284548974
21.491398785
22.7034684822
23.4728244116
24.6202684572
25.2359747064
26.6848986093
27.0221371166
27.8757232632
27.3919568362
27.0507494099
27.3867543511
27.9739107978
28.561520528
29.0932521546
29.5880990342
30.1072867213
30.6805181121
31.2429310912
31.6901158424
31.9584480616
32.0358563532
31.9359837168
31.6784845245
31.2757182923
30.7246754914
30.0039788467
29.0796357425
27.9156513433
26.4689722553
24.687275984
22.5859703745
20.3071250039
18.039102558
15.9474282092
14.2009070886
12.9773604627
12.4922281675
12.7923505183
12.0575439942
13.9242413653
17.9647038001
21.0103045009
22.1496720406
21.1243056793
17.6882973058
15.4256645579
17.2128037851
19.4350012799
18.92690277
17.9647993347
18.0776084263
22.7250293342
24.3405252581
19.2980093128
19.1021870749
12.216592601
9.20150156196
7.05979456261
6.61722818608
12.1034647056
8.66584036242
7.26799390883
7.40234692448
7.55856757809
8.27477415243
8.83194202351
13.575718134
14.3494139544
14.475360407
13.3507805987
12.6562723543
13.1412499628
14.5032973463
15.0433236862
15.3776984567
16.1677243195
17.0933054915
18.1412847765
19.3058987769
20.5952257502
21.8279868952
22.7286996228
24.1708266431
24.7135154543
26.2576609995
26.4668333108
27.5738724985
27.4110437883
27.1855762383
26.9161870088
27.3587244432
28.0663589724
28.732967758
29.3099119098
29.8419737068
30.3808572906
30.9386920656
31.4714063253
31.9053702982
32.1829034111
32.282136153
32.2092723095
31.9824272242
31.6139737969
31.0988931994
30.4134239847
29.5198510648
28.3707907153
26.9152925467
25.1291591759
23.0768418905
20.9233420405
18.857580797
17.0329550378
15.5784409104
14.6489452205
14.2835338725
14.0022816943
13.9991315834
15.8229174356
20.786339383
22.608579821
22.6453538112
21.4210530938
19.0482421601
18.6633633042
21.1494404265
21.5487673522
20.7231513184
20.1645477416
22.2097744611
25.0272287104
26.5359360616
21.9208965875
20.7802151348
11.9772034441
8.94919229861
8.23307739271
12.3207224543
12.2543243438
7.84285998046
7.94957671814
8.11845246832
8.21602325374
8.81341730211
13.2972534793
14.2687618751
14.4416905796
14.077771474
12.3050439772
12.2958117782
13.8647030936
14.6150562355
14.7094379847
15.2551995206
16.1989862831
17.2501450893
18.331616782
19.5455002232
20.6892009507
22.1395473181
22.8052599387
24.1898344267
25.7836436209
26.3999541109
26.203267249
27.1120920202
27.4536569508
26.7495494993
26.9219809925
27.5087338578
28.223643438
28.9194065719
29.539311653
30.1088563775
30.6701051783
31.2286043088
31.7488480671
32.1757724567
32.4607594689
32.5797894693
32.5358362431
32.3459990152
32.0217192284
31.555370659
30.9189933341
30.0680892405
28.948626537
27.5185614177
25.7905248418
23.8688580927
21.9226106011
20.0961036379
18.4669462754
17.1349059088
16.2770006659
15.9017400673
15.8353484213
16.1555210225
16.198258191
21.346372988
24.6725499699
24.3253367225
23.5026224763
22.360866071
22.9653310414
24.1689887917
23.4046974534
22.7169720773
22.9745460895
25.4160917578
26.1650108227
26.8073436144
23.9250995371
21.7812363139
11.3170129765
8.95396813928
8.91479012723
13.324373901
11.3347493277
8.53381675536
8.69073872198
8.99257660688
10.1004191987
8.95923297503
14.0676045295
14.8133277457
14.4990647657
12.9527156105
12.0112731361
12.4309507284
13.9260443325
14.3586021403
14.6059148753
15.2699478223
16.1962999356
17.3142874746
18.4886508367
20.0712870587
21.4116496553
22.1127097893
24.0156451341
24.1193632559
25.9411231324
25.9537694992
27.1700558752
26.5546365338
26.4948990491
26.6843074397
27.0978798742
27.7123116987
28.4152797846
29.1231597797
29.7820324939
30.3931678014
30.9820753328
31.551440428
32.0721585217
32.4995752764
32.7931211796
32.9326063375
32.9218483843
32.7770073244
32.5076590383
32.1036651318
31.5328869725
30.7454365624
29.6882567988
28.3400232364
26.7513880721
25.0470898657
23.3525335068
21.6930012622
20.0670692072
18.7084525978
17.979403034
17.9263278194
18.1791902018
18.3492200704
18.2056688565
19.1538829198
25.1868006387
26.5115626859
26.1429251677
26.4143868689
27.1248328942
26.5039762694
25.3321450772
25.1039219242
26.1920653857
27.5299290013
27.4878799055
26.9499428642
25.9681225572
24.613245838
10.8682516977
9.45618897588
10.0657025152
13.422143455
9.54731941986
9.56107086119
9.43801158116
9.71802561449
12.6502779219
11.4526490698
14.9028122643
15.1065763048
14.6029824001
12.3582146802
12.0738551903
13.6208525027
14.1414727926
14.13375345
14.5701962511
15.4064369521
16.3174184782
17.3806382992
18.4160244484
20.2058224322
22.3366101351
22.0664579825
23.9609141223
25.344794076
26.1613958614
26.9325534843
26.5640384453
26.7481564619
26.24941219
26.6145941206
27.2665511718
27.9382603802
28.6350715553
29.3470740115
30.0382581814
30.6945352791
31.3202102926
31.9102665502
32.4407252017
32.8758088766
33.1822759524
33.345461151
33.3734869544
33.2829517253
33.0807092575
32.7544497517
32.2704463466
31.5781892542
30.6339842026
29.4441782332
28.0885424399
26.6702650036
25.1857989382
23.4861789715
21.7026687325
20.4669885752
20.2172210882
20.6913011716
21.134662514
21.1677956389
20.7611962865
19.3845121842
18.8083288938
28.5041935246
30.9393112696
31.4356216718
30.7774938324
28.8818813114
27.6391051283
27.8545560057
29.1746412858
29.722378034
29.6608133162
29.4972866846
29.916698802
30.1447788169
10.9377248725
10.3468689628
13.4008303465
13.6552201624
9.75163652987
10.3453477149
10.1850250616
10.6293680946
12.2526514773
14.8582858068
15.7690075557
15.4141560911
14.8890866586
12.4433234412
12.2453610777
14.1091298925
14.2602971913
14.1231914514
14.5902915683
15.5257070725
16.6470532452
17.728567548
18.5788761178
19.8404040771
22.4914904107
23.7727636556
23.6495830538
25.443373464
25.204285619
26.9422664076
27.4522688207
26.7231133481
26.2380058768
26.7252784014
27.4626518814
28.1740444332
28.8788332364
29.5964452388
30.3109662211
31.0116128483
31.6842157594
32.3064012059
32.8554917142
33.3050848344
33.6303537751
33.8237924518
33.8984705022
33.8717173579
33.7488630626
33.5176825283
33.1469848426
32.5928238905
31.8299561467
30.8934595527
29.8630493353
28.7352391447
27.2840239796
25.3602293147
23.6207979911
22.9389206636
23.5253692203
24.601116105
25.1665663882
25.046814511
24.2333558169
22.515174824
20.0592336373
20.1572483266
32.6007639572
37.2631561989
35.3184830116
32.047636719
30.5415466928
30.8655207889
31.9290481813
32.6654823084
33.3297832768
34.0720278494
34.7879370844
35.51847665
11.3694707288
11.256702131
15.0662874412
14.4366742216
12.63797476
11.5961470566
11.1640411115
12.0740504149
11.8181980564
15.8330851531
16.4637508084
15.8023343206
15.0448794913
13.1200590132
13.0045753943
14.5570314309
14.308249634
14.2196915923
14.7006803282
15.5582363915
16.7721732173
18.173749405
19.8873507573
19.9485758897
22.001880886
24.120262405
23.5713835376
25.665413622
26.6580138668
26.2493574667
26.6693778323
26.2278924607
26.5133862967
27.0384546249
27.7144885075
28.4316677459
29.1503584624
29.8789531642
30.6075755156
31.3416494912
32.0687879545
32.7410000797
33.3192894826
33.7889398265
34.1402242322
34.3733867408
34.5045902746
34.5512000395
34.5190948841
34.4003138117
34.1723962289
33.8094521113
33.3149352206
32.7367384838
32.0796844338
31.1029065975
29.5158070551
27.6618635782
26.4130665521
26.6790924703
28.5330485617
30.4690074418
31.2070252083
31.0792334177
30.1422227535
28.1228993341
24.9405064161
20.5154937739
28.1893334423
38.4597305284
40.631761259
36.3923141852
34.4151220268
34.5004082681
35.5225211058
36.58122528
38.1861728063
39.3275639025
39.4188706018
39.720270417
12.0226852212
11.9380741591
14.8610089149
14.9793404973
15.0166030449
12.7842882705
12.2723843306
14.8656770551
12.2612050259
16.7002643308
16.9956222143
16.1987440228
15.1947423553
13.7779753581
15.4654013743
15.5968738936
14.5337544012
14.4540373578
14.9459969985
15.6865654936
16.7194279059
18.1627024234
21.0858623756
22.0659769839
21.5268860054
24.1566589672
25.2123686883
25.2593993868
26.6098792141
27.1849766108
26.9667928027
26.2722471552
26.7121879159
27.3586273869
28.0211140814
28.7230827846
29.4417181628
30.1926000837
30.9508054707
31.7044040615
32.470112776
33.2020808311
33.8303719942
34.33147121
34.7161255182
34.9999612604
35.1996192014
35.3287526713
35.3953530039
35.4018266909
35.3456213279
35.2359616393
35.1099562491
34.9775856657
34.6230624793
33.5316678478
32.2908109215
31.878025449
31.0998285047
32.3074271609
34.1676273013
34.297660706
32.99505137
31.4500593334
28.7077063787
25.288418966
21.9236823431
14.9170290932
14.4429491547
30.7132576061
38.3242947139
37.1112436816
32.4141442103
32.6589919918
36.3009956459
40.319606354
43.5402422602
44.8260954582
44.9530532716
45.2220220136
12.7309688099
12.6714990509
12.3208861179
15.3414268754
15.5927718726
13.6081420804
13.265444742
15.892531381
12.972487343
17.6041767822
17.4804231295
16.6092310703
15.4460265798
14.1281337673
16.6104403559
16.2222425495
15.0148543821
14.8694299277
15.2991761467
15.9848024313
16.7894448152
18.0359205273
21.5575782621
23.1274188079
21.8644523934
24.1483622241
25.7035738683
24.837614377
26.224917267
26.7923072315
26.1948207671
26.6058870954
27.1406196222
27.7303538403
28.360533926
29.0643058766
29.7844735757
30.5222158598
31.3128049775
32.1158387064
32.9146966409
33.6918815745
34.37777448
34.92884968
35.3619451494
35.7104558443
35.9910375917
36.2081850794
36.3751382184
36.512133756
36.6482189404
36.8579602892
37.2034212155
37.5502351645
37.1965602854
35.8593172124
36.3561392497
31.3540618626
26.413414163
20.5568870319
0.11408096901
2.31672751002e-05
8.0240361293e-08
8.1867465677e-09
6.4966681756e-10
1.82998034996e-10
2.1540245631e-09
2.20088120576e-08
2.48612773019e-07
6.49353612119e-07
0.00107830228496
0.283049073191
35.2836597074
44.8844108563
42.8225533124
42.3036424345
46.2851210312
49.8577786429
51.7348232074
52.1382531407
13.6181410139
13.7149572361
15.9947826623
16.0245201864
16.0875719841
14.3129994385
14.3291462151
16.7874587978
14.0205544768
18.3981294555
17.9496340819
17.0457418393
15.7798081879
14.5462845314
16.9196513406
16.4786420035
15.4903367448
15.3473267347
15.6967318913
16.3058726076
17.0344000171
18.0296967115
21.0128695646
23.9260236052
24.1404457517
23.5717503904
25.895642871
26.8187627339
25.2639462864
25.4822356094
26.1349781545
26.8348020384
27.4923307631
28.1137712486
28.7553240362
29.4348658036
30.1606686398
30.9187056068
31.7038891633
32.5480211908
33.4054413265
34.2292649835
34.9647325407
35.5729686602
36.0750348431
36.5082570225
36.8838755589
37.1964015561
37.4535621715
37.6989683728
38.0381808889
38.6299552376
39.5249962685
40.2558493273
39.4578343768
35.8654294837
23.8347445474
2.72104546217e-11
2.99286783562e-14
5.61055728463e-16
9.51027908104e-18
2.75155969986e-20
7.81933203552e-23
1.3535115754e-27
1.05872077006e-27
2.57033057256e-27
1.73260602431e-26
8.11542988525e-26
2.99784385057e-25
1.90508291818e-24
1.4916373977e-24
1.29407654133e-22
7.36545778876e-20
7.40385673528e-18
5.61827656112e-16
1.2937533318e-13
2.17779397148e-09
49.6028656863
56.9399944971
56.4766840765
14.45583332
14.6490619334
17.629101605
16.7459262098
16.2739656765
15.0175805472
15.355338829
17.5588487454
17.5345658715
19.3888493125
18.4879788499
17.5790454027
16.2032831874
15.1056284055
17.2482422431
16.6667974467
15.9393501086
15.831004925
16.1043369716
16.62747906
17.3156921518
18.247897749
20.5298356887
24.1730012721
25.474535935
23.3654514773
25.3931883874
26.9015861114
26.8759319295
25.8713492789
26.2012633699
27.0427256715
27.841197979
28.5370141754
29.149029187
29.8361486202
30.5616321606
31.3424137858
32.1526703819
33.017115195
33.9301722868
34.8182919873
35.6000714054
36.2537223478
36.8372231642
37.4053606581
37.9192722728
38.3119779085
38.5849607003
38.9043291695
39.4757927049
40.4671365393
41.9458306795
42.991688993
33.0876412524
6.31427459203
1.50471275913e-17
6.09336052326e-20
1.76210122513e-21
2.56529637645e-23
2.084249096e-26
3.47776935349e-29
2.4514955779e-30
0
0
0
0
0
0
0
0
3.40961228283e-34
1.14999163592e-31
1.72014236822e-29
9.97971516009e-27
1.39392128881e-23
7.54844003814e-19
1.14632174433e-14
8.93716339997e-08
61.8405121543
15.1410253174
15.3560120239
19.7488615344
17.3137084131
16.2225015491
15.6388141503
16.0981337133
17.677282158
19.1223737386
20.5213955845
19.1825786763
18.2487408307
16.8771073648
15.9503624961
17.7822682013
17.0034460449
16.4615763899
16.3600605201
16.5506044041
16.9862589306
17.6003655237
18.4622811234
20.3301066679
24.0385355192
26.4491335685
25.7843749295
24.8935663281
26.2639864005
26.6728893828
25.9390206655
26.6257804972
27.4867281697
28.3306825931
29.0102797094
29.6439189882
30.2766595933
31.0147383478
31.7978514404
32.6406085645
33.5369675896
34.4868776691
35.4427983501
36.3088804383
37.0101402818
37.6703956319
38.3926778982
39.0681096807
39.5163729961
39.765549646
40.1324470488
40.9094519986
42.1944868846
43.9965614885
33.5109526465
9.96437474563e-14
2.17847914133e-20
7.14446305549e-24
2.88892579016e-25
3.93896334864e-27
1.08017079986e-29
0
0
0
0
0
0
0
0
0
0
0
0
0
4.39328503696e-33
4.36568412046e-32
9.57052549973e-31
4.64061547331e-29
2.57704025732e-25
2.14503452489e-16
4.13490028354e-21
15.6731894632
15.8791343715
21.7789777492
17.7518303273
16.4026711036
16.2099627654
16.9040229092
17.1319866663
20.0664074037
21.3337372311
19.8519612648
18.9314098673
17.7428414227
17.7881855581
18.5284970673
17.5796174348
17.1763260202
17.0803157053
17.1046884795
17.43107833
17.9377233556
18.7181520987
20.3121913051
23.8797339439
26.8482601772
27.4012584966
24.8044032355
25.2862404018
25.5613719679
26.0386882073
26.9229482745
27.952914722
28.80803408
29.5297840002
30.1871446317
30.8795680026
31.5342243183
32.3174699003
33.1727552026
34.0857637946
35.1074247846
36.1447236557
37.0790851791
37.7793217069
38.4629789683
39.7087848567
41.2700851373
41.8842985006
41.3545967704
41.5507690835
42.4303324816
43.7515363491
32.7100485466
1.15281219874e-14
1.73743899596e-19
7.7944245104e-31
7.87636252685e-28
1.28520530547e-29
0
0
0
0
0
0
0
0
0
0
0
0
0
0
0
0
0
0
6.78748764608e-32
4.59637452525e-31
8.47609570561e-29
97.5444666933
16.1281746298
16.300223049
21.6429823853
17.2621431441
16.6450714841
16.7023261506
17.8145191561
17.1884317009
20.8700477743
22.0848356849
20.483177034
19.5610781614
18.4192005714
19.950476951
19.5543093836
18.3563466687
17.9975718455
18.1409854729
17.8793030761
18.0441244039
18.3739439276
19.0205195527
20.4331675409
23.7099877613
26.7078669889
28.4798242466
27.3316218502
26.5236920169
26.3888684979
26.2595010771
27.1944517101
28.5356311969
29.2575756537
30.0598141065
30.9401953688
31.4879649742
32.1440041392
32.936234184
33.8140157744
34.7413079842
35.7411044601
36.8432643917
37.9148066395
38.9479545785
40.0984013613
41.6719100935
43.0158251803
43.2419097383
43.2736107235
43.7928716903
44.8645969231
36.2165981976
5.24254006213e-14
4.78539217736e-19
6.28954846853e-23
8.54241234991e-25
0
0
0
0
0
0
0
0
0
0
0
0
0
0
0
0
0
0
0
0
0
0
2.08849900673e-31
1.52012156661e-20
16.640621881
16.7885235091
21.3106010658
16.9885526262
16.9590896499
17.1033966487
18.5991936273
17.6808726606
21.5787190847
22.8214576056
21.1062429745
20.1851535777
18.9825896506
20.726204475
20.5028298077
19.1970790757
18.8054442234
19.0466799684
18.802553423
18.8747995737
19.0058263366
19.380165641
20.7140686073
23.6744885875
26.416404273
28.7792733483
28.5067902493
27.10249017
25.9628413745
26.7329577602
27.665399235
28.973601301
30.0426629928
30.9782270706
31.7650470338
32.208007305
32.8388148619
33.643841249
34.5426378886
35.5093127896
36.5286280303
37.7141626341
39.079470909
40.6380892851
41.7802354712
42.472758763
43.438721317
44.2299910172
45.5902623152
47.1559639137
41.6502374791
4.77697349374e-13
6.34290883256e-19
1.0938021082e-22
2.24344445189e-25
5.4318105685e-27
1.82327443094e-29
0
0
0
0
0
0
0
0
0
0
0
0
0
0
0
0
0
0
0
0
0
3.50979282304e-32
4.64377648206e-32
17.3891389124
17.53658753
21.0275258968
17.3001039342
17.5247201644
17.5985619418
18.6516767732
18.4121068022
22.1023754926
23.5229573527
21.7592534318
20.8531212062
19.6555537569
21.4266571286
21.3518389275
20.1150213748
19.6635677019
19.9252062774
19.7046025017
19.8480502506
19.9012949323
19.896659864
21.1878995623
23.8387460187
26.2718317401
28.845273837
29.0574536158
27.8893536531
26.4871256597
26.953560696
28.2317605831
29.1601152659
30.1201094672
31.2484302213
32.6696564027
33.233953472
33.7827260864
34.4627868744
35.3279365598
36.3695405163
37.5000976521
38.8187272559
40.7668113337
42.5026225724
43.00483461
43.5716468629
45.0489434124
48.1405843205
51.8466452716
45.4328614659
1.36479620448e-13
2.26716612153e-20
9.38206357947e-25
3.07607074025e-28
1.93006942418e-30
3.91209430947e-30
6.00751705427e-31
0
0
0
0
0
0
0
0
0
0
0
0
0
0
0
0
0
0
0
0
0
2.59419088148e-33
1.17794585196e-32
18.5140701716
18.6244636213
21.3573124162
18.2455203256
18.6765862313
18.4594237837
18.999687993
19.7105861149
22.1994365028
24.0603987912
22.4708437254
21.587198246
20.4302865877
22.2224715221
22.2260778493
21.1867171962
20.6955471542
20.9418079495
20.6145659802
20.9146754149
21.0971395483
20.6304857233
21.7425575812
24.2068757853
26.3268119612
28.7035243453
29.3025822303
28.5738067629
28.401176535
27.7996353075
28.6101221487
29.8937449142
31.4009400318
31.8430210133
32.9689383267
34.2482427718
34.8468041456
35.5835435584
36.3560224002
37.319704956
38.587275594
40.5890242841
43.1290165049
44.168258756
44.2750898416
45.6088053441
49.9286252247
57.2726401978
51.5738438274
13.17761425
3.43487905541e-22
3.20692795245e-27
2.19428582203e-29
0
0
0
0
0
0
0
0
0
0
0
0
0
0
0
0
0
0
0
0
0
0
0
0
0
0
0
20.0803144888
19.9703294751
22.2056261297
20.109680039
20.6035429059
19.722882945
19.9553039585
21.578480488
22.4580125091
24.6987015284
23.2920095841
22.3971196762
21.2817166333
23.054987782
23.0959013228
22.3636805643
22.1856407914
22.2624063857
21.6179956949
22.0713039037
22.5812424557
21.6642586661
22.1903094861
24.6678710152
26.5894201705
28.5881685197
29.466958484
28.7585133022
29.5805782773
29.3627274098
29.6392448825
29.6761693429
31.2034620095
33.0137069039
33.9213162377
35.0076887774
35.9105910863
36.6854307927
37.5881609396
38.57588972
40.2359511531
43.2325466165
45.4636689403
46.0202702873
46.7660322467
50.1927807954
57.6007862626
54.6377171087
29.6999868234
3.06534557708e-24
5.35887106012e-27
2.45375873107e-29
0
0
0
0
0
0
0
0
0
0
0
0
0
0
0
0
0
0
0
0
0
0
0
0
0
0
0
0
21.7326143662
21.2344960295
23.1141015579
22.5651578545
22.3031675104
21.1762177886
21.0013167394
22.7139397324
21.7939353456
25.2031922612
24.2048279623
23.274578105
22.1992569791
23.8964904994
23.9038775363
23.350771007
24.2130300096
23.8448768709
22.7385847289
23.33579884
23.9146269963
22.9785143528
22.3981032259
24.6807744733
26.7760626945
28.5092440731
29.530386313
28.8470336775
29.9853392168
30.6416561376
31.0177971956
30.4569555818
31.4128158958
32.9860992883
34.8325359849
36.2197414507
37.1998222859
37.9513607514
38.8394125482
40.206687434
43.0012995094
46.2332728439
48.016729273
49.0258825013
51.3765453193
56.3680253918
52.3017600053
30.0663784422
8.25370849971e-24
1.19489844284e-26
4.18476486282e-29
0
0
0
0
0
0
0
0
0
0
0
0
0
0
0
0
0
0
0
0
0
0
0
0
0
0
0
0
0
22.5586327672
22.1144352062
23.6942997982
23.6173540685
23.3686030648
22.5411105406
22.1863431107
24.0783824392
22.8438729125
25.839245066
25.1276597492
24.1910314845
23.1776811815
24.7619612032
24.714537719
24.1746292592
25.1934736142
24.9638092413
23.816420427
24.5670378856
24.6736856492
23.8135605098
23.3943431828
23.6300136355
26.2682887053
28.0047997765
29.3088272555
28.8047931025
30.0547700244
31.1960884981
32.1556164757
32.2261034348
31.8268024993
33.0601035112
35.0761174427
37.0960228909
38.6020083207
39.6084176515
40.4923323168
42.850341366
46.442506898
49.359635206
50.9751698992
52.9262002471
56.9239535761
53.3216334501
25.9667217523
4.36031416958e-23
3.92777228167e-26
1.11864988027e-28
0
0
0
0
0
0
0
0
0
0
0
0
0
0
0
0
0
0
0
0
0
0
0
0
0
0
0
0
0
0
22.6590200797
22.6532641646
24.0397365939
23.8444341163
24.0377638051
23.5931997341
23.2128919698
25.4193949212
24.5043373653
26.6441432751
26.1032996203
25.1321637867
24.2122786962
25.6667095452
25.5872091787
25.117542163
26.0109823482
25.9351357429
24.9305908779
25.5948967955
24.5985973046
24.5787139726
24.4260442993
24.6839693209
25.4951124905
26.5629850969
28.4470965085
28.5504131688
29.6399590332
31.2220692698
32.6132491318
33.5738085128
33.3393148921
33.8550742739
35.3058227069
37.313471286
39.5239023654
41.333466129
42.9127886357
46.2638917851
49.9028668107
52.3453565452
53.6668344602
55.5564710109
51.1773793629
33.2508660265
34.6395119874
1.36433358485e-25
3.05623485767e-28
0
0
0
0
0
0
0
0
0
0
0
0
0
0
0
0
0
0
0
0
0
0
0
0
0
0
0
0
0
0
0
22.8988606338
23.0228453308
24.3253079754
23.0206655194
24.3215680967
24.1699019527
23.8963227802
26.0404860984
25.3572691019
27.4511794306
27.1033690005
26.0659822598
25.3082508504
26.5978802568
26.4968136989
26.1892853906
26.9251538647
27.0159156371
26.1707057831
26.999404447
25.9415605983
26.1741045492
25.6844204483
25.9891542236
27.2443599246
27.8790451475
28.0539072188
28.2191200159
29.1681341873
31.1222457821
32.5759290559
33.8109848612
34.6075268434
34.9434398168
36.5650417959
38.0387056955
40.270197734
42.9244613549
45.8969294872
49.9011064081
53.1735071969
54.8673682914
54.4505327296
51.2683289968
47.9721628211
29.9132232394
1.14484807358e-24
2.6063026601e-27
0
0
0
0
0
0
0
0
0
0
0
0
0
0
0
0
0
0
0
0
0
0
0
0
0
0
0
0
0
0
0
0
23.5702320611
23.6584904028
24.6264800124
23.4068583742
24.5645800467
24.483045152
24.3655335137
26.2537392607
25.9399457436
28.0446614509
28.0669425855
26.9321483378
26.4501504337
27.507027822
27.359681913
27.2223781851
27.805812618
28.1759967088
27.4571507926
28.4266347076
27.7024147195
28.1865483721
28.0258196095
27.0237942539
28.0481438067
28.9772453082
29.1697625498
27.9973550396
28.6273464822
30.9669852389
32.6608487479
33.477381126
34.4320112077
35.2496398404
36.941179816
38.6887623095
41.1197236109
44.5254190872
49.0605156048
53.625389028
56.2121810232
56.4822062373
54.0795485677
48.8247474076
30.8538125126
32.5476137122
1.81617415457e-26
7.36462657524e-29
0
0
0
0
0
0
0
0
0
0
0
0
0
0
0
0
0
0
0
0
0
0
0
0
0
0
0
0
0
0
0
0
24.4183285681
25.4033843381
25.0679477774
24.3188387432
25.0675895859
24.8418839746
24.8045417861
26.4240990444
26.457803219
28.2938287462
28.9826201882
27.6899479843
27.4507080566
28.2456712466
28.1552141501
28.0014399718
28.1607479955
29.2210354033
28.7903678707
29.6702021877
29.5935781697
29.5320879275
29.4415115466
29.1032601929
28.4698622652
29.176562943
30.0667988292
27.5311602515
28.0620776008
30.2533856293
32.6385926581
33.9172572233
34.9904633536
35.1986814492
36.754275789
38.8812987636
41.6186510126
46.0029254703
52.2145230388
57.1994614761
58.7339156689
55.0197405164
52.9252076898
52.4010706038
34.9152762811
1.23101931681e-25
3.14185738936e-28
0
0
0
0
0
0
0
0
0
0
0
0
0
0
0
0
0
0
0
0
0
0
0
0
0
0
0
0
0
0
0
0
0
25.0384542033
26.0648666593
25.7155874421
25.1256938168
25.7046695475
25.3522850458
25.2941104349
26.6556785956
26.9456701007
28.2752130452
29.7787628896
28.3915531269
28.047649442
28.8363138123
28.9839492052
28.6858726342
28.432862359
29.9619218381
30.1297664586
30.7476117484
30.9096112547
31.1300473436
30.1148236613
30.1415327128
29.7045480834
30.7187616008
31.3406533667
29.0581641212
27.5374822493
29.1780005046
31.8366572934
33.9556746423
35.1796105794
35.6384985895
36.3140431405
38.5138934052
41.4849219142
47.1041998876
55.2081404217
60.7998955469
59.9121650906
54.8982058917