/*--------------------------------*- C++ -*----------------------------------*\
| =========                 |                                                 |
| \\      /  F ield         | OpenFOAM: The Open Source CFD Toolbox           |
|  \\    /   O peration     | Version:  v1806                                 |
|   \\  /    A nd           | Web:      www.OpenFOAM.com                      |
|    \\/     M anipulation  |                                                 |
\*---------------------------------------------------------------------------*/
FoamFile
{
    version     2.0;
    format      ascii;
    class       volScalarField;
    location    "551";
    object      alphak;
}
// * * * * * * * * * * * * * * * * * * * * * * * * * * * * * * * * * * * * * //

dimensions      [0 0 -1 0 0 0 0];


internalField   nonuniform List<scalar> 
6400
(
0.878501677185
1.38946803862
2.18987882099
2.69349263207
3.17669485351
3.66793873487
4.31749819534
5.05007088983
5.42826986991
6.03615231947
7.25260522691
8.05559346161
8.7169780203
9.47499488184
10.4343254351
11.4374242943
12.3118677886
13.1333448251
13.8247482619
14.2052659538
14.3473028708
14.601119594
15.1822011961
16.0850065553
17.0840477748
17.9723606115
18.6838764172
19.3367391521
20.0385842803
20.8041255695
21.5783500997
22.1556523933
22.4597043658
22.6212431052
22.6756698366
22.6019031996
22.7042507033
23.0664911546
23.0837935048
22.859253905
23.032351062
23.7430013084
24.4671202684
24.8436129713
24.9307749733
24.8196533346
24.579163104
24.2586657638
23.8710248819
23.4364780008
22.8565273974
21.882165953
20.6137706432
19.1045855526
17.8422893592
16.9160316124
15.5396356833
13.3490073877
11.0226291758
9.30773884225
7.52078857864
5.66630521657
3.73740626328
4.5961724365
8.54145472047
13.4662816099
16.4616063531
16.1829295914
14.2198493092
12.6470774248
11.8271970762
12.075003206
12.6543286578
12.5612746962
14.631572863
14.0819567863
15.9638553886
9.86633307958
12.8682987915
4.8105258802
3.13975462538
2.50019742499
3.10469410772
4.35152296398
4.23660163243
4.1069200755
4.30694881837
4.73692448089
5.35390197416
6.14272774095
7.10055623569
8.05543975489
8.89391137425
9.69544315103
10.5100693707
11.4442922869
12.4248906116
13.3658926392
14.3824496639
14.5836931611
14.5201778891
14.734669322
15.2737297937
16.1561715814
17.3034708343
18.1235455735
18.7996917088
19.4968669073
20.2175057309
20.9507603631
21.690272199
22.3746202046
22.6746727724
22.8339089942
22.9292607763
22.7455124242
22.9079522183
23.2933597191
23.2459684421
22.8527322557
22.989442548
24.3983410305
25.5047578182
25.7714099271
25.7881187403
25.5708731923
25.1932100562
24.7766395937
24.1797706643
23.5411558599
23.0503630645
22.7388541934
21.7399527969
19.329597357
18.2194132493
17.0074331126
14.8922305402
12.763855774
10.7395578515
8.74785236599
6.9480818603
6.04801819434
4.14508722769
5.00315081271
8.66621081416
14.508297412
18.2667557853
17.0052636532
14.8632102754
12.9765313933
12.3241751934
12.7879469242
13.9257787423
13.3728137164
13.2434985359
12.7345976106
11.5481241541
9.71606922712
8.170534717
4.25549455539
3.21439535151
2.81484057914
3.32756763524
3.59179046802
4.10095055188
4.52615029508
4.50880353721
4.64583135453
5.2605847605
6.12089761146
7.08460317764
8.05925100257
8.94541850138
9.75249939952
10.4221632973
11.2651396738
13.9345412424
15.9471426387
16.3420490632
15.7076165931
14.3290552357
14.375042728
15.4091211686
16.3462667729
17.2125719754
18.1115069615
18.9077649526
19.6078577379
20.3073540173
21.0405829912
21.7403209828
22.5294135354
22.8336065902
22.7242008545
23.2020519905
23.0328850194
22.8070049438
23.4293842507
23.4175403404
23.0766778121
23.2259811536
23.9298571395
24.6423486005
25.0245468675
25.1366131911
25.0687018975
24.8618121062
24.5367854407
24.0963240882
23.5642805297
22.9434276209
22.1220480034
20.9728655046
19.7900640796
18.643953317
16.8484096866
14.7975172928
12.7657818845
10.7834133558
8.90418285085
7.27518929173
5.7499036119
4.73020078697
6.32776487996
11.037670861
15.5029284681
17.6988711692
17.829406449
16.273467364
14.6430570148
14.0015561654
13.950163776
13.3232023906
12.7565597769
12.7505350106
12.4209414676
11.4478206904
9.82929324096
7.39741282849
7.57960219027
3.20102482234
5.48571945739
3.62611040634
3.73343107398
4.42082521801
11.8559844313
10.2364396071
5.23364956568
5.23853918344
6.12328970827
7.10938556427
8.10219419583
8.96394663922
9.79790167465
11.5204865
13.6366627135
15.3042058024
15.6992221911
14.6013113092
13.7623371855
14.0698714287
14.6282509434
15.3717508593
16.3138190169
17.3024762182
18.2399720442
19.0679100443
19.7429781078
20.4696993446
21.1196627186
21.9759946128
22.5174959625
23.1589570257
23.0635720303
22.6976660449
23.1354738512
23.0075850611
22.8982465779
23.0833229172
23.2577028243
23.554139855
24.1001179414
24.6766425469
25.053987401
25.2056175875
25.1745932649
24.9961741794
24.6923375744
24.2727471574
23.7458379968
23.0979300107
22.2731505235
21.2354891245
20.0476887626
18.6479080116
16.8893508026
14.8902185103
12.8714687066
10.9464064138
9.20518233948
7.75596580441
6.69882382759
6.45980541377
7.57422238162
10.447633712
15.9053312432
19.4038688602
19.5890740337
17.9448514754
15.6150632946
14.0487968296
13.303517159
13.5062928751
14.9266665566
14.8717699739
13.5555819891
13.4148100593
16.6980016722
13.1041404452
11.1250067184
5.63092213114
7.54387983944
4.36223781784
4.67984533538
6.54439795277
11.7470195919
8.17903505455
5.66729621617
5.75971088496
6.34685289249
7.25617315372
8.26447316303
9.68263488365
11.9990121721
13.0241660882
13.4040329434
13.4053674162
13.1849102664
13.2595584674
13.8152304936
14.205243477
14.6705968748
15.4642455425
16.4208164391
17.429501384
18.4023892638
19.1943024021
20.0128582867
20.5885229962
21.4629399718
22.0154082504
23.2209002225
23.0826959487
22.6647179705
22.8459715355
22.5914502629
22.6854273331
22.9368514763
23.2152163456
23.4850018153
23.8200917168
24.2847183414
24.7726950413
25.1330485875
25.3095760744
25.3105074112
25.1602832724
24.8806502887
24.4841819762
23.9729209504
23.330091914
22.522228487
21.5269584359
20.3329327576
18.8640329979
17.0718719762
15.0962124101
13.1442169316
11.3605139253
9.86149878903
8.76265421807
8.19172178325
8.37192461925
8.76343173456
10.6448630884
15.4077409591
19.4782818652
20.8925930276
19.7451669263
17.001589489
14.5525694307
14.2607924408
16.5319509139
17.4085092621
16.3744174768
15.4590294208
18.1071715344
21.1149956344
16.4338903543
15.5503653679
9.93038640412
9.09117082573
5.43155345039
6.00747860936
12.0276324345
11.4952869785
6.52729543696
6.25151203197
6.37960762655
6.69697862754
7.51115841799
10.1571832611
13.3903465143
13.8251091268
13.4694080211
12.5394212638
12.1619466364
12.4996848932
13.4319721178
13.7944465608
14.0885111019
14.7408717036
15.6133669124
16.6072384556
17.5428361857
18.5287145085
19.601871872
20.118750918
21.1663579359
21.5085241627
22.9769779354
22.9828444771
23.8005819086
22.9321527829
22.2148134621
22.2900981272
22.6627166077
23.0520930681
23.3983903701
23.7186664452
24.0740325258
24.497735652
24.9297768941
25.2707547473
25.4602070111
25.4866235285
25.3633132517
25.1108690594
24.7436464749
24.2612437142
23.646046362
22.8690631946
21.8976073731
20.6872100075
19.1816102869
17.4026523079
15.5125364058
13.7111834624
12.1471553275
10.940345644
10.1741633838
9.99318004285
10.6233075859
9.76003346013
12.4251437798
17.2956215419
20.7729489063
22.1570534058
21.2576823345
17.9083981998
15.739433742
17.5569444711
19.7705482088
19.2529289443
18.2587687158
18.3346140684
22.8886615233
24.4672041374
19.4703936558
19.2712629489
12.0434605631
8.91922334359
6.6053788589
6.19501222256
11.9625852538
8.34135124567
6.72365893558
6.83461225129
6.95453869644
7.64254247578
8.12019613988
13.1487621517
13.822644643
13.8553216222
12.4939534667
11.4762458649
11.7423525687
13.0659280896
13.4108216055
13.4906253985
14.1048993736
14.8578612543
15.7324864763
16.7242831118
17.8632426988
18.9583963106
19.6271444001
21.0094920776
21.2359194999
22.8361200532
22.6889303597
23.7463140273
23.2098662174
22.6827840631
22.0153421342
22.2235244836
22.7357479181
23.2107901872
23.600619642
23.9553792288
24.3293190487
24.7360412893
25.1362894051
25.4620387042
25.6587720451
25.7055044119
25.6089256522
25.3889416811
25.060481005
24.621017846
24.0497578265
23.3125575935
22.364435382
21.1551500317
19.6631607164
17.9629156674
16.231192751
14.6491498532
13.3252088391
12.3108874027
11.7018476883
11.5393593334
11.3506352267
11.3589955482
13.8872076764
19.8960484554
22.1696305741
22.498043333
21.4496764066
19.1974366445
18.9495745029
21.5132915378
21.9563674761
21.1260252262
20.5431600286
22.5096094922
25.2445760244
26.6966325043
22.1178703041
20.980472092
11.7451888317
8.54221084685
7.73654722277
12.1095612882
12.051350798
7.32158622188
7.36447545508
7.50300555077
7.60834073672
8.16938162935
12.913136387
13.8468101234
13.9198700155
13.4239679462
11.2960073582
11.0435525405
12.6139950351
13.2181179496
13.0331863114
13.3656710492
14.1514076238
15.0446947223
15.9461317869
16.9966435285
17.964878689
19.3355715496
19.7317281155
21.0239268592
22.5656273813
22.9698820506
22.3686255012
23.1939265652
23.3054342188
22.0798993722
21.9925007886
22.366127466
22.8808659735
23.3826150094
23.8124795007
24.2009557018
24.5946245549
25.0005092342
25.3865157878
25.702919658
25.9047261122
25.96945665
25.9016953758
25.721306615
25.4426182424
25.0601049493
24.5479290899
23.8641287073
22.9569518002
21.7874296654
20.3742514702
18.8289717869
17.3172356271
15.9519297517
14.7466281747
13.7393118024
13.0991978127
12.8543283417
12.8435967303
13.1843483075
13.2624848259
19.9809300383
23.9496239945
23.9423666963
23.3541649724
22.4118820929
23.2401076841
24.5974471512
23.9185271659
23.2445310036
23.462386449
25.784078378
26.4461855695
27.0160220396
24.1372821446
22.0007557813
11.0020681729
8.43847907681
8.39883025118
13.0786905406
10.9952552907
7.91281236434
8.05849388772
8.32582269614
9.54996206534
8.26479757381
13.6869046921
14.3591560203
13.9539417729
12.1623312024
10.901405296
11.1833392741
12.7012875068
12.9233926608
12.9169043559
13.3938671239
14.1565387236
15.1348799547
16.1435287839
17.6141140032
18.8569338709
19.2944025429
21.2353160356
20.9051901465
22.7812148652
22.3512284831
23.6014337405
22.4909566883
22.0990814488
21.9848449035
22.1620239878
22.5641790752
23.0604340974
23.568911452
24.0343564348
24.4608290966
24.8783122979
25.2921509829
25.6763104018
25.9904668695
26.1977207565
26.2807405726
26.2463698502
26.1142351423
25.8968240185
25.5856964909
25.1500349215
24.5414901336
23.709045273
22.6354168246
21.3765414649
20.0559475997
18.778627335
17.5253383536
16.2316984509
15.0972545212
14.514857597
14.5713830817
14.8834347469
15.0760355884
14.9013771956
16.6076112731
24.0908395623
25.7524626457
25.7341962227
26.3580619645
27.3943629999
27.028478484
26.0146928627
25.8250789611
26.8237017959
28.0088598674
27.8410627547
27.2134993545
26.1878065325
24.813986619
10.4397678999
8.85403913285
9.55505201688
13.1390421498
8.98466717298
8.92724804111
8.75862406912
9.02049825615
12.1577709535
10.8676858099
14.5211617883
14.6216323469
14.0148848202
11.4472532007
10.924823443
12.5344532771
12.9403910925
12.6717925537
12.8849854283
13.5538334779
14.2908643447
15.2140694394
16.0828108932
17.779906542
19.9290975453
19.2363692932
21.1856670385
22.439438249
23.0301785403
23.5955406557
22.799347429
22.7762363986
21.7906414062
21.8935613184
22.3283214396
22.78283133
23.2661817107
23.7723354509
24.2656433424
24.7337798818
25.1840229407
25.6143421143
26.0044120883
26.322475491
26.5388056297
26.6425573965
26.6467555796
26.5723814729
26.4286882545
26.2043305795
25.8660253979
25.3633908411
24.6534312496
23.7452906141
22.7198624476
21.6689422801
20.5554154667
19.1876006765
17.6566872582
16.5768407223
16.4251099389
16.9836647251
17.4935957183
17.6059507439
17.2895117673
15.9651325273
15.9882444716
27.4484730179
30.2625379866
31.2064991886
31.001677531
29.5309655188
28.5966850116
28.8891117412
30.0503970127
30.3760602774
30.1064698837
29.7881624043
30.1140744759
30.29143224
10.3873096271
9.67507564393
12.9894488998
13.2822594683
9.05984426174
9.67732558102
9.45277560821
9.95261837098
11.6368767984
14.3821801644
15.3365621191
14.8781996465
14.2398590258
11.4369098796
11.0769859016
13.0602844608
13.036669335
12.6435447255
12.9134182489
13.6943563296
14.6644749811
15.5756461731
16.2721143325
17.4096673446
20.1034088086
21.2869080158
20.7870830025
22.5727833944
21.8427919825
23.6289089844
23.9103663775
22.7181495012
21.754154959
22.0053910555
22.5260489557
23.0125969625
23.4960653089
24.0000117918
24.5095596318
25.0175677026
25.5108489337
25.9680765623
26.371254802
26.6984909917
26.9283793913
27.058261377
27.1078434475
27.099636056
27.0408600244
26.9191145673
26.7021075891
26.3435401826
25.8160803848
25.1547430387
24.4354787389
23.6338628948
22.4643589162
20.7816774234
19.303812533
18.7605326707
19.3796203166
20.4699853732
21.099976009
21.1158885189
20.4729995573
18.8886589313
16.4344945078
17.2860983319
31.6006346268
36.8024083898
35.3699604869
32.8502113968
31.9800987341
32.475219785
33.2787729649
33.6106744507
33.88578897
34.3587069621
34.9461117633
35.6053823696
10.7135703439
10.5315467165
14.623137621
13.9674616226
12.0381244964
10.8898941531
10.3691801621
11.4158794181
11.0813835704
15.3424365637
15.9730093708
15.2071903228
14.3059925324
12.0366205874
11.8397231655
13.5289659016
13.0525352191
12.7236021344
13.0332494539
13.7410992688
14.817850646
16.0363492944
17.7489090161
17.5527300918
19.5999115136
21.6705243692
20.6667182055
22.8463956682
23.6342911612
22.7733102239
22.9585577151
22.0220000677
22.0510931121
22.3362603422
22.7810949936
23.26706632
23.7560413194
24.2617236785
24.774401368
25.3073641687
25.8514823549
26.3548283208
26.7798594055
27.1190088161
27.3675415652
27.5311077361
27.6337314311
27.6986533593
27.7330450164
27.7271367403
27.6544984349
27.4834979684
27.2123501226
26.8851451072
26.5006658272
25.7717571033
24.2729308116
22.5890532194
21.8044777334
22.2205696045
23.8003765663
25.3062798638
26.0101035366
26.0597561893
25.3675428126
23.5440898417
20.3598982472
15.8713223226
26.4382565182
37.3748882612
40.2644745512
37.3480174896
36.5219413537
36.9444526478
37.5842420432
37.9659734285
38.8733148916
39.5947290348
39.5436498899
39.748283946
11.2977550561
11.1721379943
14.3542562633
14.4391835677
14.4441126457
12.008180321
11.4180239954
14.2931616199
11.4296824303
16.1999868219
16.4580806
15.5469247288
14.3746831403
12.6333574514
14.4909715193
14.5894060361
13.2312798672
12.9396592877
13.2860308159
13.8885470194
14.7821087885
16.0251773449
19.0562809971
19.9993857734
19.0751624039
21.7463597085
22.6626607452
22.4102285209
23.6052341389
23.9285265745
23.3249353371
22.0513388703
22.2572050937
22.670715651
23.0914875734
23.5538472366
24.0329845711
24.5549220732
25.089774984
25.627656784
26.1997549444
26.7584501843
27.2276684487
27.5881123637
27.8590076603
28.0638008919
28.2277260879
28.3703735996
28.5000574304
28.614688912
28.7037794001
28.7678020405
28.8361554346
28.9129581662
28.7784718891
27.784232452
26.1320215785
25.6768016302
26.4712937472
28.1723228665
30.591931166
32.1172109074
32.1900927626
31.8995157698
30.2963976382
27.6860555946
24.3394975865
17.7586794879
18.0019331708
32.3516192988
39.5681247543
40.6809151568
39.2586677937
40.4657752155
41.6659277186
43.199117643
44.5530199178
45.0814914998
45.0588746474
45.2430519034
11.9414953206
11.8611696155
11.517145393
14.7545121689
14.9639329457
12.7594716068
12.3642862265
15.2648741
12.0673118165
17.0816310485
16.893351985
15.9005342283
14.5558187401
12.9351244451
15.6537414081
15.141089727
13.6500803776
13.3291167021
13.6355652314
14.2056960763
14.8716838874
15.9233568622
19.581358241
21.0711347888
19.4202730605
21.7982269641
23.1915268205
21.8711900841
23.2389003798
23.4653903663
22.2577737501
22.405893383
22.708960018
23.0557135841
23.4337451454
23.8946019466
24.366697764
24.8572096998
25.4177181222
25.9988500132
26.5891370929
27.1811078685
27.7000948171
28.100204461
28.4055494745
28.6605134707
28.8920943144
29.110552145
29.3285985546
29.5568500048
29.8090096916
30.1540317263
30.6462681826
31.1551091794
30.9703533446
29.4436852172
28.8066104619
27.2055831958
25.4489223746
25.0592909549
24.3173487252
20.2598155935
10.7424988111
2.38917026023
0.189594807502
0.0534050320574
0.628617410273
6.42291767507
19.3116955302
21.1392318906
44.4665923234
48.9090952585
48.3271420731
43.8064032327
40.7459253526
43.9019820628
49.0848869206
50.5064104332
51.8574102936
52.3643685678
12.764759658
12.8532353469
15.3880696465
15.3834552531
15.3971297453
13.3980167424
13.3969627888
16.0940585655
13.0686573628
17.84200855
17.3069133086
16.276268879
14.8174456192
13.3191361424
15.927305877
15.3175456717
14.0679844261
13.7751767975
14.0174849895
14.5217970209
15.1286421427
15.9558071251
18.971395483
21.8874253833
22.0226012967
21.1554043251
23.4097972251
24.1692109644
22.0320323701
21.8806658011
22.195150992
22.6437911149
23.062960121
23.4410189917
23.8354420982
24.2599199489
24.7303128203
25.2356379511
25.7703064163
26.3830046076
27.0226266255
27.6461376981
28.2007979052
28.6447772251
29.0027832485
29.3212891472
29.6255382983
29.9203577377
30.206278806
30.5038580979
30.902214132
31.5630568091
32.5358523907
33.3613537285
32.7111577665
29.5946806843
21.3517971295
0.00794093336247
8.73420322289e-06
1.6373508691e-07
2.77542192848e-09
8.02998425537e-12
2.28194624075e-14
3.95000575147e-19
3.0897062182e-19
7.5010962073e-19
5.05633190393e-18
2.36835763395e-17
8.74872492188e-17
5.55967796699e-16
4.35310373927e-16
3.77655416768e-14
2.14949034471e-11
2.16069645941e-09
1.63960361574e-07
3.77561093267e-05
0.635554129659
53.7794601649
58.0221900516
59.7672248649
13.536898125
13.7269562732
16.9969419421
16.0336709647
15.4839636888
14.0454973206
14.4007902216
16.7877871953
16.7611265807
18.7837058521
17.7788423561
16.7426192771
15.1604766004
13.8493077139
16.2177502875
15.4358777792
14.473422224
14.2306279353
14.4030821404
14.8278798337
15.4056975382
16.208561339
18.4405714772
22.1512801961
23.4033637559
20.8526100116
22.9466103719
24.2243813396
23.9025412521
22.349155093
22.2956551023
22.8728235287
23.4265763303
23.8786092584
24.2227710814
24.654184752
25.1135539379
25.6344811902
26.1844904688
26.8005229063
27.4838449871
28.1576824528
28.7391434662
29.2083812798
29.6282126566
30.0620462458
30.4789154815
30.8213662619
31.072560789
31.3804362218
31.9285309259
32.8714263223
34.2829988425
35.3021740798
28.6814088379
0.0117524977515
4.39126207776e-09
1.77824922595e-11
5.14240890172e-13
7.48640471597e-15
6.08254562894e-18
1.01493102817e-20
7.15429539606e-22
0
0
0
0
0
0
0
0
9.95040483747e-26
3.35606555464e-23
5.01995872906e-21
2.91241929488e-18
4.06793499808e-15
2.20289076999e-10
3.34535556653e-06
18.9570461592
62.0111341729
14.1677158128
14.3799008956
19.1591806803
16.5327349031
15.3159991492
14.6217000304
15.1195801765
16.8188853493
18.3503109005
19.8699763827
18.4071751698
17.3418776472
15.7524570655
14.6756942373
16.7151825909
15.709596856
14.9600135784
14.7372701177
14.828759777
15.170635803
15.6794966464
16.424451424
18.2253916474
22.028344058
24.399172373
23.5902436848
22.4222674327
23.5922449162
23.6248676736
22.2998887676
22.7537715002
23.3637451213
23.9668012397
24.3706288694
24.7309192989
25.0835706465
25.555508602
26.0615216985
26.6353254974
27.2689148517
27.9688324521
28.6943949148
29.3514796488
29.8472183736
30.3164987343
30.8720219349
31.4142013134
31.7667323667
31.938084208
32.2202498
32.8524437076
33.8796944648
35.39614019
29.1091958935
2.90794244175e-05
6.35754085454e-12
2.08499658763e-15
8.43086508758e-17
1.14952307499e-18
3.15230467884e-21
0
0
0
0
0
0
0
0
0
0
0
0
0
1.28210954965e-24
1.27405466627e-23
2.7930038764e-22
1.35428895793e-20
7.52067734269e-17
6.25993812274e-08
1.2067041168e-12
14.660364411
14.8614402439
21.2282424748
16.9136211766
15.412907778
15.1600655423
15.9243518232
16.1427404797
19.3025766921
20.647345745
19.0193656915
17.9574672611
16.5470374161
16.5839035322
17.4105923995
16.2265257229
15.6439705551
15.4428473141
15.3630750209
15.6010287771
16.0065878639
16.6758400562
18.2046225155
21.8948198259
24.8152895522
25.2462367488
22.1449234166
22.4646148141
22.3007025981
22.4242822895
23.0607529196
23.870583683
24.4723590932
24.9027476871
25.2781953912
25.7125806611
26.0621456616
26.5568412192
27.1272551225
27.7590088133
28.5244104868
29.3134677817
30.0126814585
30.4731554656
30.9444562541
32.1599558826
33.8220371364
34.3469720599
33.4087945384
33.3924627268
33.9441654666
34.9461179087
27.5843816055
3.3642969134e-06
5.07043615408e-11
2.27467738031e-22
2.29858967202e-19
3.75066489322e-21
0
0
0
0
0
0
0
0
0
0
0
0
0
0
0
0
0
0
1.98081905817e-23
1.34137794908e-22
2.47361215047e-20
93.8716987232
15.0962296299
15.2634070241
21.0504004955
16.3156212338
15.6035120028
15.6266227389
16.8401081961
16.120145291
20.1059149606
21.3751367349
19.6060030037
18.5322573841
17.1621359112
18.8333511255
18.3859128823
16.9487185272
16.4331141748
16.5199310633
16.1209187121
16.2012699205
16.4336368435
16.9663226186
18.3274941938
21.7477500179
24.6884036429
26.356885761
24.9372570355
23.8838515594
23.3505935863
22.7001759852
23.3748842934
24.5343145737
24.9194919862
25.4344577225
26.0908339948
26.3178003004
26.6664339013
27.1605589658
27.7417958925
28.3712510006
29.0758652394
29.9127812635
30.748684779
31.6359738911
32.7299421098
34.323704247
35.5866663694
35.4840923603
35.3260136087
35.8341028692
36.791021075
31.796110909
1.52995096415e-05
1.39653970953e-10
1.83550352109e-14
2.49296559607e-16
0
0
0
0
0
0
0
0
0
0
0
0
0
0
0
0
0
0
0
0
0
0
6.0949483096e-23
4.4362302031e-12
15.6057613501
15.7508529032
20.6738953894
15.9662279807
15.8957738354
16.0073964346
17.6260969238
16.5779417914
20.7997922004
22.0905497108
20.1932286291
19.1150320677
17.6824941626
19.5771763564
19.2907729786
17.7453533345
17.2106507476
17.4104879615
17.0304794567
17.0245206572
17.0646622817
17.3020136573
18.6116672219
21.7303985719
24.4159922962
26.6960625298
26.1524806183
24.3839283925
22.7034475301
23.2239836713
23.922174556
25.0407138687
25.8256012754
26.4558118208
26.9393099512
27.027051443
27.3536106781
27.8614465964
28.4515741372
29.1078923048
29.8126439596
30.7237752239
31.9061769343
33.4633671341
34.4997087249
34.8219143815
35.4504085174
35.8944705691
37.5926110888
39.7279645858
38.1594397037
0.000139408285218
1.85107588476e-10
3.19208545896e-14
6.54713166044e-17
1.58518651605e-18
5.32093306006e-21
0
0
0
0
0
0
0
0
0
0
0
0
0
0
0
0
0
0
0
0
0
1.02427656249e-23
1.35521144747e-23
16.3635884242
16.509276155
20.3273443028
16.2458731195
16.4612587683
16.4905920073
17.6155133843
17.309806189
21.294887809
22.7714256438
20.818234974
19.7516644716
18.3284962204
20.2596258871
20.1116001175
18.6399855184
18.0535024273
18.2818691918
17.9170450103
17.9956508224
17.9768124571
17.800430496
19.091149185
21.9010455607
24.2924483671
26.7972968176
26.7001040294
25.082522507
23.1826300399
23.4587347986
24.5812117842
25.181354229
25.8263141101
26.6781627083
27.8885581937
28.0762988923
28.3132234027
28.6672639248
29.2141846215
29.9476830507
30.7636336849
31.8051324919
33.7607061491
35.5329225488
35.6846875701
35.8031104238
36.8902388164
39.9804935005
44.0335893604
42.5395645378
3.98293812573e-05
6.61635953643e-12
2.73800429734e-16
8.97701751262e-20
5.63259706441e-22
1.14168177824e-21
1.75319719075e-22
0
0
0
0
0
0
0
0
0
0
0
0
0
0
0
0
0
0
0
0
0
7.57072867974e-25
3.43764543629e-24
17.5076423022
17.6111864571
20.6023775869
17.1942708274
17.6385230139
17.3510634662
17.9117474501
18.6518496933
21.3227138439
23.2791651575
21.5106009221
20.4637781511
19.0858640284
21.0360704582
20.961885687
19.7022665081
19.0879333309
19.3055851672
18.8116831449
19.0676745893
19.2112307735
18.5342600804
19.6368040509
22.2596420863
24.3588912159
26.6593826704
26.9498498755
25.7125381691
25.2639597041
24.346246843
25.0169997436
26.0645925588
27.3220490641
27.2798587093
28.1073428108
29.1403521089
29.3783775132
29.8160451362
30.2480701747
30.8759899778
31.8349991274
33.7760313765
36.5088993177
37.3624213472
37.0629942733
38.1729178428
42.6815674673
49.3971218293
48.5985032096
1.4326696429e-06
1.00241418478e-13
9.35890323137e-19
6.40367010886e-21
0
0
0
0
0
0
0
0
0
0
0
0
0
0
0
0
0
0
0
0
0
0
0
0
0
0
0
19.1083182773
18.9724628278
21.4080484043
19.112142207
19.6252087832
18.6278427093
18.8553616884
20.5985359969
21.5300055286
23.8975545261
22.3249150303
21.2621501866
19.9309136859
21.850647616
21.8078914307
20.8752602013
20.613494746
20.6477904437
19.7990396089
20.2406130824
20.7546331338
19.5946003181
20.0620821694
22.7034041527
24.6219159643
26.5338739976
27.13802212
25.8651211835
26.4654571008
25.9656610812
26.125181989
25.7617028102
27.0006952734
28.5767718421
29.0872883631
29.8601065451
30.4468181819
30.9057398014
31.5005084914
32.1481027973
33.6391309861
36.9000643425
39.1791945572
39.4589673043
40.0852607967
43.9507425918
52.0602188356
51.3138480766
2.03221080224e-08
8.94571784959e-16
1.56390029414e-18
7.16090004444e-21
0
0
0
0
0
0
0
0
0
0
0
0
0
0
0
0
0
0
0
0
0
0
0
0
0
0
0
0
20.8076851098
20.2559735007
22.2891771014
21.660943467
21.3621468343
20.1160212616
19.9035558522
21.7531875269
20.7449684093
24.3801401909
23.2436567318
22.1393027979
20.8549315616
22.6802130826
22.595655954
21.8565464435
22.7418654002
22.2700772061
20.9145100793
21.544305316
22.1239731438
20.9646926013
20.2199438048
22.7088855216
24.8155993969
26.4482162049
27.2182232586
25.9639076475
26.861699922
27.2766805742
27.4913182168
26.5588477234
27.2951388919
28.4936638827
30.0452322623
31.1123518447
31.7535273644
32.1735174502
32.7406472724
33.8835034464
36.9023304488
40.4022900867
42.0784431795
42.8987468149
45.4445558242
51.3166522347
48.6422521977
16.6776583803
2.40871202266e-15
3.4871188451e-18
1.22125629194e-20
0
0
0
0
0
0
0
0
0
0
0
0
0
0
0
0
0
0
0
0
0
0
0
0
0
0
0
0
0
21.6622123802
21.1684737368
22.8626351729
22.7351090594
22.4552425132
21.5332994598
21.1234546072
23.1588972265
21.8088032078
24.9981922525
24.173812779
23.0639152872
21.8531111876
23.5432511694
23.3993749111
22.6846668835
23.7300898504
23.3971835835
22.0104122807
22.8389482261
22.8853540278
21.7996528552
21.2858175163
21.5068247034
24.3432827347
25.9819152252
27.0328153611
25.9645291145
26.9570923484
27.8438108359
28.61319438
28.4369068017
27.6365722131
28.5769959752
30.3142675804
32.0208135232
33.1790618504
33.8715226561
34.4517117467
36.9459984802
40.932628642
43.9612408505
45.3666584589
47.0340319303
50.9116858086
44.6220661106
18.5903018174
1.27248753251e-14
1.14625714216e-17
3.2645996837e-20
0
0
0
0
0
0
0
0
0
0
0
0
0
0
0
0
0
0
0
0
0
0
0
0
0
0
0
0
0
0
21.7887103213
21.7609446883
23.2317203842
22.9878101307
23.1681615652
22.6460036924
22.1963899054
24.5431573714
23.5283332036
25.7981962614
25.1656994806
24.0230258473
22.9206303296
24.4549376308
24.2764528679
23.6485075085
24.5581738315
24.3875364279
23.1662042391
23.8912783788
22.6952794176
22.5821774711
22.3577719619
22.6321898779
23.476954842
24.4733867697
26.2346391843
25.8098850054
26.5484558177
27.9108832588
29.1066857062
29.8312777245
29.2149520805
29.4048751036
30.5347775259
32.2094620001
34.0993372788
35.6484773827
37.1119664789
40.88672968
44.8544686227
47.279484913
48.2674380682
49.7645605652
44.0695766125
22.2201012237
2.38998865243
3.98158804476e-17
8.91912968093e-20
0
0
0
0
0
0
0
0
0
0
0
0
0
0
0
0
0
0
0
0
0
0
0
0
0
0
0
0
0
0
0
22.0852566794
22.1983829914
23.5656556072
22.1493066422
23.4988894969
23.2817741182
22.9362035892
25.1938684398
24.4202458049
26.6248708848
26.2010138611
24.9887651101
24.0648064408
25.4026433548
25.1996252613
24.7485935545
25.4744897886
25.4880843666
24.4441369289
25.3229100469
24.0705878365
24.2504990082
23.6398657902
23.9444058242
25.3159499865
25.9413450997
25.9136568713
25.5920617079
26.118050309
27.8963581234
29.1552450943
30.1277423961
30.6240823414
30.5467987581
31.9513761199
33.001413424
34.8715825237
37.3284627512
40.4510491089
44.9541259512
48.4264496243
49.9007510491
48.7913291982
44.1322187208
36.5490225704
22.3300078628
3.34105489556e-16
7.60607495685e-19
0
0
0
0
0
0
0
0
0
0
0
0
0
0
0
0
0
0
0
0
0
0
0
0
0
0
0
0
0
0
0
0
22.8390667218
22.9167243299
23.9246051295
22.6091780301
23.79697342
23.6568705632
23.4746520978
25.4447367539
25.0599963966
27.252420276
27.2194297987
25.9028224718
25.2725431606
26.3423412548
26.089634582
25.8181451411
26.3603387868
26.674638934
25.7679357094
26.764143601
25.8667744585
26.3403515099
26.0984996461
24.9483261919
26.0806716637
27.0631520014
27.1874199898
25.4844787054
25.6247337266
27.8434524225
29.3476122813
29.8292739858
30.4787927934
30.9433657087
32.3444562631
33.6887373436
35.7773277957
39.0634833257
43.9748793693
49.0378039845
51.7087975362
51.4252822014
47.5785750398
40.0623053145
24.4245972272
3.7988036508e-15
5.30021204591e-18
2.14924776842e-20
0
0
0
0
0
0
0
0
0
0
0
0
0
0
0
0
0
0
0
0
0
0
0
0
0
0
0
0
0
0
0
0
23.7836352197
24.7992755777
24.4390094416
23.6241471336
24.3792474979
24.0932640751
23.9967743394
25.6687789643
25.6467805019
27.539738711
28.20844787
26.7267849147
26.3494967312
27.1227935701
26.9363542654
26.6398118744
26.7024862946
27.7589454664
27.1573575343
28.0279849123
27.8380228948
27.7002054147
27.5432653973
27.1568116064
26.4581835846
27.2348113132
28.1786248526
25.0652198062
25.1959146723
27.2196076101
29.4420928366
30.4449051641
31.2778959428
31.0466988541
32.2867153003
34.0131104657
36.3561877837
40.6885543517
47.4510623549
52.8925367769
54.340341241
49.4097669869
45.9422421744
40.3756231339
24.7285082955
3.5925318039e-17
9.16900526293e-20
0
0
0
0
0
0
0
0
0
0
0
0
0
0
0
0
0
0
0
0
0
0
0
0
0
0
0
0
0
0
0
0
0
24.513030155
25.5635397068
25.1910212925
24.5477561692
25.1210454501
24.7059822445
24.587284358
25.9742168835
26.2171561474
27.5689125517
29.0935150224
27.5198086039
27.0218400644
27.7761011847
27.8508702941
27.3908131662
26.9881696791
28.542352495
28.5802084332
29.1353836725
29.2003621478
29.3448932689
28.1621973774
28.1478841305
27.6952276303
28.8855354753
29.5574226163
26.9140796492
24.8625796234
26.3043139927
28.8350602814
30.6911240956
31.5888467191
31.6963852771
32.0543532837
33.9236560397
36.4080702713
41.9686101335
50.7387983901
56.758969916
55.1668304582
48.577709087
41.308831716