/*--------------------------------*- C++ -*----------------------------------*\
| =========                 |                                                 |
| \\      /  F ield         | OpenFOAM: The Open Source CFD Toolbox           |
|  \\    /   O peration     | Version:  v1806                                 |
|   \\  /    A nd           | Web:      www.OpenFOAM.com                      |
|    \\/     M anipulation  |                                                 |
\*---------------------------------------------------------------------------*/
FoamFile
{
    version     2.0;
    format      ascii;
    class       volVectorField;
    location    "660";
    object      U;
}
// * * * * * * * * * * * * * * * * * * * * * * * * * * * * * * * * * * * * * //

dimensions      [0 1 -1 0 0 0 0];


internalField   nonuniform List<vector> 
6400
(
(-0.000112290822592 -0.000147197642707 0)
(-0.000298000143849 -0.000107673608678 0)
(-0.000432166457428 -8.40646844117e-05 0)
(-0.000574687248292 -7.23105849216e-05 0)
(-0.000679006446605 -4.57899862003e-05 0)
(-0.000754764736882 -2.58609378197e-05 0)
(-0.000797498907565 -1.82493459487e-05 0)
(-0.000832980658873 -2.78896674566e-05 0)
(-0.000919715097356 -3.87641184838e-05 0)
(-0.00100460145466 -3.62793549842e-05 0)
(-0.00104505028942 -3.23771020469e-05 0)
(-0.00112109454042 -3.36058651956e-05 0)
(-0.00118933806806 -2.9825693581e-05 0)
(-0.00124406327955 -2.39107054782e-05 0)
(-0.00128490783991 -2.12353546626e-05 0)
(-0.00132704520379 -2.37346163343e-05 0)
(-0.00137816206195 -2.42828814317e-05 0)
(-0.0014221193752 -2.08574178982e-05 0)
(-0.00145482888649 -1.62916841398e-05 0)
(-0.00148581625585 -1.43830698093e-05 0)
(-0.00152529455131 -1.90640796538e-05 0)
(-0.00157250662475 -2.39118372185e-05 0)
(-0.00162125190789 -2.44339294788e-05 0)
(-0.00166480376064 -2.3084021959e-05 0)
(-0.00170501218892 -2.07786904781e-05 0)
(-0.00174309046499 -1.82341694169e-05 0)
(-0.00178030137501 -1.68699563069e-05 0)
(-0.00181386316917 -1.51554864999e-05 0)
(-0.00184189679683 -1.29178224957e-05 0)
(-0.00186507463406 -1.11598131362e-05 0)
(-0.00188387172463 -1.05874419191e-05 0)
(-0.00190300264326 -9.5917757922e-06 0)
(-0.00192212311471 -7.87916831762e-06 0)
(-0.00193779154184 -7.63710434101e-06 0)
(-0.00195239552549 -7.41676429476e-06 0)
(-0.00197105170649 -6.99594524194e-06 0)
(-0.0019861483567 -7.11644683142e-06 0)
(-0.00199113962191 -6.23991405761e-06 0)
(-0.00200361922635 -4.43162013976e-06 0)
(-0.00202011202487 -3.18273994162e-06 0)
(-0.00202831940031 -4.14974263671e-06 0)
(-0.00202666121177 -3.26027311161e-06 0)
(-0.00202244355662 1.56770952147e-06 0)
(-0.00201662043049 5.0962163184e-06 0)
(-0.00200629651294 6.91686146034e-06 0)
(-0.0019919590839 8.97713319444e-06 0)
(-0.0019731407401 1.12318770132e-05 0)
(-0.00194885787169 1.40408143469e-05 0)
(-0.00191908444125 1.68321908205e-05 0)
(-0.00188359316923 1.77894591169e-05 0)
(-0.00184499799224 1.68810205342e-05 0)
(-0.00180853377963 1.93410119841e-05 0)
(-0.00176170811943 2.84175685124e-05 0)
(-0.0017071314494 3.4469809959e-05 0)
(-0.00163547098889 3.99874008487e-05 0)
(-0.00153818837085 4.80595037565e-05 0)
(-0.00143532941611 4.93049057034e-05 0)
(-0.00134354325189 4.93180368418e-05 0)
(-0.00124730732946 5.69844573639e-05 0)
(-0.00111425873288 6.39464029538e-05 0)
(-0.000977310434441 6.68155895785e-05 0)
(-0.000825156824728 8.36791107312e-05 0)
(-0.000681958021134 0.000121442557611 0)
(-0.000401256295458 0.000123928619621 0)
(-0.000157060767969 8.19967426565e-05 0)
(-3.22038050543e-05 5.59564893917e-05 0)
(5.39817581839e-05 4.42169529727e-05 0)
(0.000129733359566 3.7523137718e-05 0)
(0.000202559941967 3.27347934566e-05 0)
(0.000263967644318 2.62358519824e-05 0)
(0.000311583039134 1.75945442248e-05 0)
(0.0003319088684 6.92927867276e-06 0)
(0.000326952200675 -4.59309129863e-06 0)
(0.000322240165903 -1.71539960697e-05 0)
(0.000261046329383 -1.96994289709e-05 0)
(0.000241592313794 -2.14709352014e-05 0)
(0.00016585866611 -1.47690222263e-05 0)
(0.000176485358424 -2.35327462507e-05 0)
(7.71547185807e-05 -1.79858953659e-05 0)
(5.78566022808e-05 -3.44288060149e-05 0)
(-4.2882987887e-05 -0.000209082145008 0)
(-0.000181429448942 -0.00023093907468 0)
(-0.000314741093955 -0.000204976216479 0)
(-0.000401917389197 -0.000164007854449 0)
(-0.000573134034214 -0.000158419219054 0)
(-0.00072214431922 -0.000111613412469 0)
(-0.000808860290898 -7.24675535066e-05 0)
(-0.000869420150383 -8.9863126484e-05 0)
(-0.000933677691524 -0.000112440458441 0)
(-0.00100456359684 -0.000109065874457 0)
(-0.00107120458649 -0.000100692103578 0)
(-0.00113204307045 -9.60564241256e-05 0)
(-0.00118832690473 -8.47023917962e-05 0)
(-0.00123834804219 -7.12006600489e-05 0)
(-0.00128648985055 -6.5019723925e-05 0)
(-0.0013321980883 -7.47589773585e-05 0)
(-0.00137856594047 -7.78236196596e-05 0)
(-0.00141712606115 -5.76215847946e-05 0)
(-0.00142411149458 -4.26516453313e-05 0)
(-0.00146260445365 -4.40862042342e-05 0)
(-0.00151298049875 -5.94051047837e-05 0)
(-0.00156625562509 -7.61946685582e-05 0)
(-0.00162263846249 -7.70753213598e-05 0)
(-0.00166973090677 -6.77164896252e-05 0)
(-0.00170046197529 -6.04777036903e-05 0)
(-0.00174323892736 -5.63155599945e-05 0)
(-0.00178261347423 -5.11831790216e-05 0)
(-0.00181409421587 -4.48169017314e-05 0)
(-0.00184112240373 -3.86713521348e-05 0)
(-0.00186522673141 -3.37755368361e-05 0)
(-0.00188570162631 -3.10490389859e-05 0)
(-0.00189943937454 -2.76824103695e-05 0)
(-0.00191842728307 -2.24235259594e-05 0)
(-0.00193315875753 -2.24851514366e-05 0)
(-0.00194553878166 -2.39933259327e-05 0)
(-0.00197035325244 -2.10618505986e-05 0)
(-0.00198229514815 -2.06017720119e-05 0)
(-0.0019874618745 -2.05470907674e-05 0)
(-0.00200406984154 -1.6803122358e-05 0)
(-0.00202814281422 -1.07683117821e-05 0)
(-0.00203779248408 -2.46454265778e-06 0)
(-0.00200255118871 5.05704737561e-06 0)
(-0.00198134912903 9.6900873852e-06 0)
(-0.00197975870606 1.31387103834e-05 0)
(-0.00197233849094 1.70803888091e-05 0)
(-0.0019638231583 2.22962865224e-05 0)
(-0.00195244262807 2.90267033055e-05 0)
(-0.00193336321567 3.68963935308e-05 0)
(-0.0019126714724 4.54674246719e-05 0)
(-0.00188458057065 5.36293675369e-05 0)
(-0.00184207326188 6.01641476583e-05 0)
(-0.00177869672977 6.6327294445e-05 0)
(-0.00171952909639 7.50873071288e-05 0)
(-0.00170674726449 9.28650598844e-05 0)
(-0.00162781639941 0.000115767281508 0)
(-0.00154193493275 0.000133636100685 0)
(-0.00147149236886 0.000142730995966 0)
(-0.00137864165855 0.000152097158179 0)
(-0.00126882435271 0.000172312815447 0)
(-0.00114919487008 0.000198012603353 0)
(-0.00101272345469 0.000226888918485 0)
(-0.000801591186363 0.000258258528336 0)
(-0.000657625762013 0.000356672912906 0)
(-0.00039347207185 0.000373034692516 0)
(-0.000166689211352 0.000268919733537 0)
(-3.07261143994e-05 0.000168804964757 0)
(5.7425414744e-05 0.000124970924591 0)
(0.000140121743309 0.00011378280199 0)
(0.000214165918099 0.000100902864995 0)
(0.000279735534774 8.15913668063e-05 0)
(0.000322149617113 5.08860396148e-05 0)
(0.000337239419602 1.4967250637e-05 0)
(0.000321590586355 -1.31931823191e-05 0)
(0.000323354809123 -3.79215325413e-05 0)
(0.000297948170806 -5.39823820918e-05 0)
(0.000265877190177 -6.22342458435e-05 0)
(0.00022467673311 -6.08863658837e-05 0)
(0.000181867728234 -7.16137108123e-05 0)
(0.000113828134993 -8.17692045028e-05 0)
(5.32063116967e-05 -0.000137400030158 0)
(-6.25381855317e-05 -0.000360639036479 0)
(-0.000173797759995 -0.000386067084832 0)
(-0.000269492216488 -0.000353297149152 -8.77052371274e-29)
(-0.000446442007943 -0.000348958885206 8.06289100066e-29)
(-0.00060755624598 -0.000337029138897 7.04125976424e-29)
(-0.000712379360903 -0.000269061577174 -6.39772093902e-29)
(-0.000788418740017 -0.00014727420545 6.39372996717e-29)
(-0.000851744221442 -0.000152751784424 -6.16198657309e-29)
(-0.000918397449915 -0.000183326144215 0)
(-0.000993503497312 -0.000184039696945 0)
(-0.00106624587157 -0.000170594074019 0)
(-0.0011300919855 -0.00015414544186 0)
(-0.00118650495818 -0.00013528552571 0)
(-0.00123532027177 -0.000120996681351 0)
(-0.00128472870398 -0.000112875142349 0)
(-0.00133105967968 -0.000101293385723 0)
(-0.00126023569138 -7.90180193116e-05 0)
(-0.001240909137 -6.51746689178e-05 0)
(-0.00128481994276 -7.56790402414e-05 0)
(-0.00136630435381 -0.000107754382522 0)
(-0.0015075157431 -0.000136336043595 0)
(-0.00158161978289 -0.000138731296623 0)
(-0.00161411773293 -0.000126316633699 0)
(-0.00166117538913 -0.000112397583563 0)
(-0.00170842364235 -0.000102215147215 0)
(-0.00174592104457 -9.43099401809e-05 0)
(-0.00178001423682 -8.43188659695e-05 0)
(-0.00181191867266 -7.37974253652e-05 0)
(-0.0018396399676 -6.43297432315e-05 0)
(-0.00186278926684 -5.67089872513e-05 -1.13953616927e-28)
(-0.00188542396862 -5.00862250895e-05 1.10163727137e-28)
(-0.00189445089743 -4.41764436066e-05 0)
(-0.00191161225923 -3.77346169292e-05 0)
(-0.00193807557089 -3.34337262597e-05 0)
(-0.00193042405854 -3.82675017767e-05 0)
(-0.00195609793465 -4.0034183986e-05 0)
(-0.0019877704754 -3.44457753253e-05 0)
(-0.00198062404468 -3.36339923061e-05 0)
(-0.00199955271165 -3.36241389675e-05 0)
(-0.00202600419362 -2.26777397711e-05 0)
(-0.00203693191607 -1.16954972338e-06 0)
(-0.00203348240492 1.51081735362e-05 0)
(-0.00202697896024 1.9177900129e-05 0)
(-0.00202012104342 2.17601941623e-05 0)
(-0.00200963457794 2.77600940677e-05 0)
(-0.00199491839924 3.61223624457e-05 0)
(-0.00197610171001 4.69311900622e-05 0)
(-0.00195298892818 5.92122227069e-05 0)
(-0.00192556032178 7.29450424339e-05 0)
(-0.00189321333108 8.89253882748e-05 0)
(-0.00185512765013 0.000105539369257 0)
(-0.00181102867214 0.000118540164679 0)
(-0.00176100511443 0.00012868065835 0)
(-0.00169625972521 0.000152386169774 0)
(-0.00161758768342 0.000184415378779 0)
(-0.00155015585678 0.000208990194634 0)
(-0.00147036520408 0.000230260217459 0)
(-0.00137134486108 0.000256497268015 0)
(-0.00125695445721 0.000290212334288 0)
(-0.00112742121063 0.00033341145421 0)
(-0.000973700534673 0.000391775209746 0)
(-0.000802482157385 0.00047597660183 0)
(-0.000615032294434 0.000599854493118 0)
(-0.000367479898531 0.000575933730102 0)
(-0.00015171724554 0.000397840031188 0)
(-2.02948702897e-05 0.00028417181185 0)
(8.05607018066e-05 0.000228411392797 0)
(0.00016307522414 0.000193073078509 0)
(0.000232336229888 0.000163352510815 0)
(0.000288895884138 0.000125693865149 0)
(0.000326378390277 7.68779847886e-05 0)
(0.0003474179035 2.76487640608e-05 0)
(0.00036615491606 -1.30073894286e-05 0)
(0.000362820712955 -5.57977549972e-05 0)
(0.000325577671757 -9.17943984462e-05 0)
(0.000276446850453 -0.000107033622964 0)
(0.000224742869311 -0.000110789365852 0)
(0.000176344265813 -0.000135088089014 0)
(0.000123158035377 -0.000189597366736 0)
(3.22403675304e-05 -0.000193321653128 0)
(-6.21533653201e-05 -0.000530060201225 0)
(-8.73669177215e-05 -0.000369155829396 0)
(-0.00022042106526 -0.000527980175181 0)
(-0.000384359551148 -0.00051685249165 0)
(-0.000532413777163 -0.000438023798275 0)
(-0.000330279502895 -0.000181769554035 0)
(-0.000418933788939 -0.00018140391094 0)
(-0.000739611355308 -0.000301205263464 0)
(-0.000873561131276 -0.000302371276209 0)
(-0.000968745612986 -0.000272363649558 0)
(-0.00105409387809 -0.000247101464147 0)
(-0.00112570693534 -0.000218771884082 0)
(-0.00118619919483 -0.000189816712179 0)
(-0.00122897506044 -0.00015290355887 0)
(-0.00119529638654 -0.000108014134816 0)
(-0.00115805431518 -7.86290720242e-05 0)
(-0.00116671764893 -7.73491210098e-05 0)
(-0.00123400975786 -0.000113313484032 0)
(-0.00136680190478 -0.000168511899415 0)
(-0.00148095437936 -0.000212365529252 0)
(-0.00152609308013 -0.000214091908684 0)
(-0.00157299457198 -0.000193093001951 0)
(-0.00162273851384 -0.000173783214925 0)
(-0.00166663758335 -0.0001584502687 0)
(-0.00170631459371 -0.000143673308532 0)
(-0.00174244299835 -0.000129618673599 0)
(-0.00177562210625 -0.000116419759074 0)
(-0.0018098325613 -0.000103114611435 0)
(-0.00183537307312 -9.02218345494e-05 0)
(-0.00186344606409 -7.9043175208e-05 0)
(-0.00187625362021 -6.92565886741e-05 0)
(-0.00189956154286 -5.93197710492e-05 0)
(-0.00189863958529 -4.91083183892e-05 0)
(-0.00191967062874 -4.7739456719e-05 0)
(-0.00195396330635 -5.34493381632e-05 0)
(-0.00195109063702 -5.8694237077e-05 0)
(-0.00198135024581 -5.6255124066e-05 0)
(-0.00201040240346 -5.1579466468e-05 0)
(-0.00202173354452 -4.71026576082e-05 0)
(-0.00202975002456 -3.161256758e-05 0)
(-0.00203522086911 -7.4385486417e-06 0)
(-0.00203509360093 1.26792167122e-05 0)
(-0.00203107409253 2.36635355129e-05 0)
(-0.00202421184495 3.15526424119e-05 0)
(-0.00201343389567 4.1276910312e-05 0)
(-0.00199850636056 5.35745175293e-05 9.80290703389e-29)
(-0.00197948458317 6.82240498025e-05 -9.85873453872e-29)
(-0.00195621346523 8.47750348877e-05 0)
(-0.00192851003733 0.000103213508957 0)
(-0.00189590440095 0.000123501648829 0)
(-0.00185759762477 0.000144417858622 0)
(-0.00181244987933 0.000165059206638 0)
(-0.00175920371898 0.000189011526214 0)
(-0.00169608504858 0.00022107821201 0)
(-0.0016253473644 0.000255043937419 0)
(-0.00154915650916 0.000287712011275 0)
(-0.00146170282001 0.00032447223823 0)
(-0.00135738636408 0.000367730812377 1.88651580125e-28)
(-0.00123461958305 0.000420173025022 -2.1917934062e-28)
(-0.00109085689643 0.000486522524864 0)
(-0.000921919544053 0.00057178687473 0)
(-0.000732998291718 0.000679868280238 0)
(-0.000543578229521 0.000775156550124 0)
(-0.000363008827273 0.000763537738579 0)
(-0.000165443163569 0.000610366273143 0)
(6.67198582024e-07 0.000406711534123 0)
(0.000105591587833 0.000312722337621 0)
(0.000192989618433 0.000267266322704 0)
(0.000266387707832 0.000225858816587 0)
(0.00033274974871 0.000178291534493 0)
(0.000385251704057 0.000117601009056 0)
(0.00041805206978 5.06551589137e-05 0)
(0.000413242990491 -2.3226151849e-05 0)
(0.000356662470068 -9.00257890769e-05 0)
(0.000307331072029 -0.000135795261604 0)
(0.000257464061471 -0.000165364565843 0)
(0.000193963573642 -0.000174383731813 0)
(0.000114829302307 -0.000160372809801 0)
(8.35852189173e-05 -0.000218209389655 0)
(2.82185289333e-05 -0.000258167154785 0)
(-1.0015696427e-05 -0.000540833090067 0)
(-4.84364117626e-05 -0.000448753956678 0)
(-0.000196829473107 -0.000683702735233 0)
(-0.000330225003451 -0.000630956892689 0)
(-0.000375273688234 -0.000431042445604 0)
(-0.000307995083047 -0.000245504482185 0)
(-0.000511118766963 -0.000382483856629 0)
(-0.000729474529341 -0.000492689860857 0)
(-0.00082488948581 -0.000431665258847 0)
(-0.000934497309051 -0.000373717088399 0)
(-0.00102893285798 -0.000338110901956 0)
(-0.0011092443154 -0.00029341926214 0)
(-0.00113423397831 -0.000213545444916 0)
(-0.00107463856217 -0.000130962810883 0)
(-0.00109879407137 -0.000100831843967 0)
(-0.00116008389658 -0.000112877875471 0)
(-0.00125659841699 -0.000158805192705 0)
(-0.00136609937318 -0.000221214235197 0)
(-0.00144139300798 -0.000261204710153 0)
(-0.00147292328699 -0.000264045468846 0)
(-0.00152056279086 -0.000257141649843 0)
(-0.0015750626242 -0.000243665089692 0)
(-0.00162129395798 -0.000222850744092 0)
(-0.00166430569199 -0.000201221268888 0)
(-0.0017030670435 -0.000181742099165 0)
(-0.00173762158382 -0.00016511572691 0)
(-0.00177466575044 -0.000148896389554 0)
(-0.00180085002424 -0.00013240001386 0)
(-0.00183649782962 -0.000116139873157 0)
(-0.00184959980741 -0.000100184732449 0)
(-0.00188157418596 -8.66537858615e-05 -1.09468852941e-28)
(-0.00186817985821 -7.38378236284e-05 1.04365762562e-28)
(-0.00190607020017 -6.7776800193e-05 0)
(-0.0019397147171 -6.61875547893e-05 0)
(-0.0019432395123 -7.22310111741e-05 0)
(-0.00197941479736 -8.08992509248e-05 0)
(-0.00200056176758 -8.13159112038e-05 0)
(-0.00201559657501 -7.03543029076e-05 0)
(-0.00202579360429 -5.50267010058e-05 0)
(-0.00203282703548 -3.52260300991e-05 0)
(-0.00203766844898 -1.10327140668e-05 0)
(-0.00203884377934 1.1130232196e-05 0)
(-0.00203603249026 2.73354484772e-05 0)
(-0.00202938677984 4.05564272766e-05 0)
(-0.00201857830746 5.46192557637e-05 0)
(-0.00200359602129 7.09104199179e-05 0)
(-0.0019844647057 8.95579706926e-05 0)
(-0.0019610219592 0.000110389100199 0)
(-0.00193297317869 0.000133429459381 0)
(-0.00189980938171 0.000158665178244 0)
(-0.00186070344097 0.000185689266343 0)
(-0.00181444528439 0.00021473551394 0)
(-0.00175977362327 0.000247926804184 0)
(-0.00169594246749 0.000286599218502 0)
(-0.00162389374114 0.000328365996771 0)
(-0.00154314498073 0.000373650061951 0)
(-0.00144864885959 0.000426366949688 0)
(-0.00133495673402 0.000489344614852 0)
(-0.0011985965609 0.000565562220377 0)
(-0.00103721913043 0.000658294199171 0)
(-0.00085284673263 0.000765767879441 0)
(-0.000661650473968 0.00087155793803 0)
(-0.000487934118849 0.000931618581594 0)
(-0.000333322009989 0.000937609079435 0)
(-0.000146989496301 0.000809114380295 0)
(1.97355202947e-05 0.00057059069505 0)
(0.000139320183341 0.000430938002871 0)
(0.000236297275969 0.000354031043266 0)
(0.000315740951897 0.000294694974448 0)
(0.000389917489503 0.000236727207105 0)
(0.000459128032664 0.000162430344171 0)
(0.00047769076105 5.09831596781e-05 0)
(0.000416652653303 -6.372922955e-05 0)
(0.000363458386451 -0.000143729918523 0)
(0.000308418290658 -0.000199769238068 0)
(0.000243560180944 -0.000236668343209 0)
(0.000166501700934 -0.000228130583946 0)
(0.000106720660271 -0.000216126846484 0)
(6.96012042786e-05 -0.000281807369907 0)
(1.86968550582e-05 -0.000297115346602 0)
(-1.37044987085e-06 -0.000510976779425 0)
(-5.62805581324e-05 -0.000543688697313 0)
(-0.000196281733078 -0.000783115582046 0)
(-0.000281874746982 -0.000668160706019 0)
(-0.000226674830205 -0.000349350828909 0)
(-0.000311510685409 -0.000353882077577 0)
(-0.000607064240635 -0.000599349138828 0)
(-0.000697551437361 -0.000601968886215 0)
(-0.000789211035053 -0.000538663603445 0)
(-0.000893679887909 -0.000480927117057 0)
(-0.00099272237723 -0.000413270185845 0)
(-0.00096285178852 -0.000295390468501 0)
(-0.0009022578334 -0.000179804852711 0)
(-0.000967699586871 -0.000150540313938 0)
(-0.0010489045491 -0.000168184927757 0)
(-0.00118380284957 -0.000220278650794 0)
(-0.00130847468408 -0.000272790683209 0)
(-0.00138843910618 -0.000297245922548 0)
(-0.00141086299259 -0.00029670482865 0)
(-0.00146529793101 -0.00030638325834 0)
(-0.0015255989903 -0.00030970360493 0)
(-0.00157277265923 -0.000293239864703 0)
(-0.00161701892962 -0.000268794072367 0)
(-0.00165821360628 -0.000244042550762 0)
(-0.00170156237185 -0.000221102794933 0)
(-0.00173627491246 -0.000198215245843 0)
(-0.00175663596566 -0.000180001543247 0)
(-0.00180433076253 -0.000162730119845 0)
(-0.00181140281671 -0.000140024960068 0)
(-0.00185825089631 -0.000118731935887 0)
(-0.00183350764381 -9.85057079907e-05 0)
(-0.00188500303913 -9.38606485199e-05 0)
(-0.00186918890038 -9.01871846155e-05 0)
(-0.00192501958832 -9.36927373829e-05 0)
(-0.00197197871323 -0.000101949851715 0)
(-0.00199385114362 -0.000106915844283 0)
(-0.00200849525072 -9.83893524314e-05 0)
(-0.00202060922418 -8.2292118222e-05 0)
(-0.00203009679756 -6.27793279544e-05 0)
(-0.00203726221308 -4.00991156143e-05 0)
(-0.00204211531125 -1.47276137428e-05 0)
(-0.00204383944811 9.72427207567e-06 0)
(-0.00204172502008 3.05320238846e-05 0)
(-0.00203541951725 4.89766374769e-05 0)
(-0.00202479488353 6.77063834928e-05 0)
(-0.00200988849394 8.82404692525e-05 0)
(-0.00199072496606 0.000111063018525 0)
(-0.00196708535471 0.000136297593553 0)
(-0.00193856302586 0.000164121556362 0)
(-0.00190459859934 0.00019472630179 0)
(-0.00186437378622 0.00022827687173 0)
(-0.0018167624231 0.000265392714454 0)
(-0.00176064284665 0.000307281634015 0)
(-0.00169530376409 0.000354455949925 0)
(-0.00162026566886 0.00040684890279 0)
(-0.00153318213869 0.000466920443997 0)
(-0.00142886287813 0.000538768352545 0)
(-0.00130217784094 0.000625261872865 0)
(-0.0011506187767 0.000727494418535 0)
(-0.000975512198874 0.000841683989323 0)
(-0.000787897760701 0.000954804493094 0)
(-0.000607119072066 0.00103734405943 0)
(-0.000429316619619 0.00104944931307 0)
(-0.000295515441344 0.00112421170629 0)
(-0.000106940665418 0.000957384000601 0)
(4.61353762076e-05 0.000700539639006 0)
(0.00017233393758 0.000545796716277 0)
(0.000288162330802 0.000448796272851 0)
(0.000383851577877 0.000373383152343 0)
(0.000483046824233 0.000310169718546 0)
(0.000552932847496 0.000193700720197 0)
(0.000510317845022 1.85921057767e-05 0)
(0.000444801250259 -0.000116728202235 0)
(0.000391678641117 -0.000210667678141 0)
(0.000314412051875 -0.00027697074822 0)
(0.000238384018501 -0.000313706365691 0)
(0.00015381673042 -0.000280187452431 0)
(9.8698767591e-05 -0.000267094869194 0)
(6.08145840127e-05 -0.000328267185328 0)
(1.74851828966e-05 -0.000331417462628 0)
(-1.99855346447e-05 -0.000556714365971 0)
(-0.000116020532186 -0.000698730414912 0)
(-0.000247167413012 -0.000856908556041 0)
(-0.000291467285961 -0.000804443469708 0)
(-0.000218044301451 -0.000442483660841 0)
(-0.000430546504635 -0.000606231047212 0)
(-0.00061094810447 -0.000726154398701 0)
(-0.000672339173658 -0.000685340814087 0)
(-0.000760460320367 -0.000626393112732 0)
(-0.000827608684235 -0.000565056118017 0)
(-0.000958719525818 -0.000468137712745 2.91641925206e-28)
(-0.000796987202754 -0.000252943098174 -1.89435705193e-28)
(-0.00089391246289 -0.000220840210012 0)
(-0.00095185186306 -0.000230316846776 0)
(-0.00108376242631 -0.000286026345963 0)
(-0.001229516074 -0.000353268365465 0)
(-0.00131863215962 -0.000364698243007 0)
(-0.00132932770344 -0.000336295164873 0)
(-0.00139530043992 -0.000344543998145 0)
(-0.00147135828651 -0.000365689886936 0)
(-0.00151855413561 -0.000361485516477 0)
(-0.00156722249906 -0.000340686620412 0)
(-0.00161376635222 -0.000314529865876 0)
(-0.00165696377597 -0.000285910094533 0)
(-0.00168991029812 -0.000255970814326 0)
(-0.00171602092661 -0.000227911525524 0)
(-0.0017627941773 -0.000209007339619 0)
(-0.00175997075208 -0.000189678663529 0)
(-0.00182379833776 -0.000165111793592 0)
(-0.0017940960741 -0.000128218715927 0)
(-0.00185707126438 -0.000118244755669 0)
(-0.0018427619934 -0.000117249794828 1.03065622356e-28)
(-0.00189926904607 -0.000120577823013 -1.04225853348e-28)
(-0.00193333494421 -0.000132813086535 0)
(-0.0019834572125 -0.000138068030639 0)
(-0.00200248051572 -0.000128370166809 0)
(-0.00201456644402 -0.000112243940348 0)
(-0.00202567337456 -9.27938507347e-05 0)
(-0.0020354932681 -7.06072738964e-05 0)
(-0.0020431219304 -4.56515169901e-05 0)
(-0.00204814615017 -1.85352361743e-05 0)
(-0.00205018552911 8.48262327363e-06 0)
(-0.00204850844733 3.34998669835e-05 0)
(-0.00204256320588 5.69180704792e-05 0)
(-0.00203220143147 8.04412699632e-05 0)
(-0.00201745764447 0.000105457888665 0)
(-0.00199828134085 0.000132703797288 0)
(-0.00197435596984 0.000162594395181 0)
(-0.00194519635499 0.000195514525884 0)
(-0.00191023351945 0.000231893112945 0)
(-0.00186869430525 0.000272257369399 0)
(-0.00181952782745 0.000317389300737 0)
(-0.00176158162315 0.000368250847795 0)
(-0.00169364406793 0.000425771050955 0)
(-0.00161386210326 0.000491732653492 0)
(-0.00151858173685 0.000569885245839 0)
(-0.00140265178106 0.0006640577063 0)
(-0.00126231857965 0.000775122511164 0)
(-0.00109876851957 0.000898610835492 0)
(-0.00092056566286 0.00102353930791 0)
(-0.000741050950874 0.00112998992166 0)
(-0.000571934977681 0.00119878689648 0)
(-0.000412759361743 0.00124714531607 0)
(-0.000272975728913 0.00126234993964 0)
(-9.81403550588e-05 0.00111217803774 0)
(8.1043546228e-05 0.00082417773578 0)
(0.000230233373091 0.000687092875242 0)
(0.000372952961879 0.000585120779007 0)
(0.000495503967258 0.000491290990342 0)
(0.000599591458585 0.00038144107672 0)
(0.000628048568407 0.000187979517164 0)
(0.000564743260001 -2.54563048073e-05 0)
(0.000513330690718 -0.000183652971537 0)
(0.000430585408918 -0.000298272548318 0)
(0.000329902898463 -0.000374137336776 0)
(0.000228943150322 -0.000381663712413 0)
(0.000151321440218 -0.000351566929125 0)
(8.37490955722e-05 -0.000319178074189 0)
(4.6552767142e-05 -0.000363392578865 0)
(1.53486932142e-05 -0.000370249712307 0)
(-3.91275031971e-05 -0.000648522479771 0)
(-0.000158337835725 -0.000841010919145 0)
(-0.000272417707977 -0.000900154507656 0)
(-0.000196953715431 -0.000581605867651 0)
(-0.00023064363777 -0.000550199636546 0)
(-0.000482533374154 -0.000812022576956 0)
(-0.000569261721645 -0.000809672725076 0)
(-0.000651319200616 -0.000768166092244 0)
(-0.000713483064713 -0.00069476470994 0)
(-0.000803877959901 -0.00062718260058 0)
(-0.000696950243979 -0.000391820172515 0)
(-0.000787732324559 -0.000302775059643 0)
(-0.000874973339936 -0.000295687183692 0)
(-0.000951792679526 -0.000330048559365 0)
(-0.00113578892803 -0.000422981232732 0)
(-0.00124125429656 -0.000450567355415 0)
(-0.0012433664862 -0.000403438648765 0)
(-0.00130518709526 -0.000390624036421 0)
(-0.00140116022709 -0.000416841563188 0)
(-0.00146396966468 -0.0004247570322 0)
(-0.00150936862712 -0.000410287902301 0)
(-0.00155484195185 -0.000387218055376 0)
(-0.00160482324085 -0.000361937316504 0)
(-0.00164793482558 -0.000329625941272 0)
(-0.00169417091622 -0.000289252836283 0)
(-0.00170283553826 -0.000260497592496 0)
(-0.0017635000072 -0.000237190269387 0)
(-0.0017709038262 -0.000209159582916 0)
(-0.00176690842444 -0.00018078445194 0)
(-0.0018020687376 -0.000159370252857 0)
(-0.00187634181846 -0.000149149591925 0)
(-0.00187005999613 -0.000139861013441 0)
(-0.00188895802834 -0.000157842571651 0)
(-0.00196510395217 -0.000174309043127 0)
(-0.00198913924987 -0.000168151324119 0)
(-0.00200641549324 -0.000147654180462 0)
(-0.00202022379656 -0.000125683062899 0)
(-0.00203179034022 -0.000103350766328 0)
(-0.00204198905762 -7.8980171005e-05 0)
(-0.00205016187664 -5.18567430057e-05 0)
(-0.00205556295737 -2.25694160145e-05 0)
(-0.00205785885234 7.27168328508e-06 0)
(-0.00205652860698 3.62909404477e-05 0)
(-0.00205097821788 6.44663335067e-05 0)
(-0.00204095040127 9.28283454413e-05 9.51760161159e-29)
(-0.00202640872121 0.000122549244496 -9.48738881603e-29)
(-0.00200718711953 0.000154525524764 0)
(-0.00198286253956 0.000189416477788 0)
(-0.00195290665124 0.000227796612835 0)
(-0.00191677747205 0.000270299036549 0)
(-0.00187374803057 0.000317733318358 0)
(-0.00182277667373 0.000371158543979 0)
(-0.00176250412344 0.000431926277529 0)
(-0.00169099316194 0.000501970666703 0)
(-0.00160517354641 0.000584478675082 0)
(-0.0015006540426 0.000683509492095 0)
(-0.00137319829148 0.0008011169436 0)
(-0.00122188556887 0.000934239278216 0)
(-0.00105255372765 0.00107241758685 0)
(-0.000876107008282 0.00120095949442 0)
(-0.000703043652128 0.00130076834973 0)
(-0.000539498007962 0.00136484211512 0)
(-0.000387950043387 0.00139359534107 0)
(-0.000255448953896 0.00138226565875 0)
(-0.000119401927987 0.00136026115819 0)
(0.000103269268792 0.00100571272236 0)
(0.000295532241662 0.000839104569987 0)
(0.00046587842224 0.000727938833981 0)
(0.000599507686706 0.000597304523523 0)
(0.000696989159842 0.000426991767207 0)
(0.000713269868699 0.000177000271453 0)
(0.000673190409521 -7.090370541e-05 0)
(0.000609723892328 -0.000273766099588 0)
(0.000483775312439 -0.000420233192428 0)
(0.000344607026563 -0.000492339434226 0)
(0.000217651666846 -0.000470630044742 0)
(0.000131825004855 -0.000432577937312 0)
(5.86491509547e-05 -0.000383008686582 0)
(1.95037168212e-05 -0.000390689125888 0)
(5.09028895606e-06 -0.000399650843964 0)
(-5.32506846622e-05 -0.000761517786777 0)
(-0.000176113429487 -0.000954642321237 0)
(-0.000236268500152 -0.000938469317235 0)
(-0.000191163081995 -0.000638410131611 0)
(-0.000305518505494 -0.00071636200984 0)
(-0.000488997112125 -0.00091692574407 0)
(-0.000533150215057 -0.000888258266649 0)
(-0.000632435571455 -0.000846915620972 0)
(-0.000633972340714 -0.000716728514727 0)
(-0.000807680486357 -0.000705871753589 0)
(-0.000677480014178 -0.000435265782245 0)
(-0.000791240543098 -0.00038744237462 0)
(-0.000865656860271 -0.00038620402877 0)
(-0.00100308014637 -0.000463835286427 0)
(-0.00114680539656 -0.000543319204024 0)
(-0.00122427497882 -0.000518087449057 0)
(-0.00122631030708 -0.000453823923121 0)
(-0.00130835501853 -0.000464713850825 0)
(-0.00139079975912 -0.000487609510336 0)
(-0.00144986907217 -0.000482065304121 0)
(-0.0015029200774 -0.000460189127743 0)
(-0.00154541332735 -0.000431633816522 0)
(-0.0015926666416 -0.00040420567625 0)
(-0.00161969168536 -0.000370541186169 0)
(-0.00164899711524 -0.00031973157598 0)
(-0.00171638547982 -0.000290345881484 0)
(-0.00168678672859 -0.000263366790198 0)
(-0.00179357921133 -0.000237184300747 0)
(-0.00175962617869 -0.000208306043472 0)
(-0.00184897398977 -0.000199599918033 0)
(-0.0018190049725 -0.000176597921419 0)
(-0.00190700249436 -0.000176570676515 0)
(-0.00194264636684 -0.000196581036667 1.08574871058e-28)
(-0.00197119856541 -0.00020752499344 -1.08232896662e-28)
(-0.00199299224848 -0.000191063863527 0)
(-0.00201101533339 -0.00016576785822 0)
(-0.0020264155602 -0.000140098765095 0)
(-0.00203897075543 -0.000114754041869 0)
(-0.00204959057394 -8.80162843587e-05 0)
(-0.00205820006992 -5.86840661957e-05 0)
(-0.00206412525186 -2.69704309213e-05 0)
(-0.00206685722903 5.91463829704e-06 0)
(-0.00206591058434 3.88573966925e-05 0)
(-0.0020607872046 7.16378334658e-05 0)
(-0.00205118244993 0.000104876123105 0)
(-0.00203688044015 0.000139541981038 0)
(-0.00201755444321 0.00017660315345 0)
(-0.00199271514209 0.000216890491177 0)
(-0.0019618353917 0.000261119644484 0)
(-0.00192440327257 0.00031008658796 0)
(-0.00187973751022 0.000364905078108 0)
(-0.00182678125101 0.000427159136553 0)
(-0.0017638883559 0.000499079830083 0)
(-0.00168834912409 0.000583831566181 0)
(-0.00159612837186 0.000685379333143 0)
(-0.00148268875188 0.000806696510387 0)
(-0.00134557111037 0.000946424183341 0)
(-0.001186500769 0.00109851361961 0)
(-0.00101353628784 0.00124861288312 0)
(-0.00083709997471 0.00137977544288 0)
(-0.000669143590833 0.0014697904789 0)
(-0.000510463301523 0.00152263067851 0)
(-0.000357289360194 0.00153799668072 0)
(-0.000211649163462 0.00152000854928 0)
(-9.13926996522e-05 0.0014732982054 0)
(9.76827271352e-05 0.00131350109442 0)
(0.00034204596547 0.00097797145728 0)
(0.000567371695301 0.000893115338089 0)
(0.000718489382354 0.000724928210713 0)