/*--------------------------------*- C++ -*----------------------------------*\
| =========                 |                                                 |
| \\      /  F ield         | OpenFOAM: The Open Source CFD Toolbox           |
|  \\    /   O peration     | Version:  v1806                                 |
|   \\  /    A nd           | Web:      www.OpenFOAM.com                      |
|    \\/     M anipulation  |                                                 |
\*---------------------------------------------------------------------------*/
FoamFile
{
    version     2.0;
    format      ascii;
    class       volVectorField;
    location    "660";
    object      Ua;
}
// * * * * * * * * * * * * * * * * * * * * * * * * * * * * * * * * * * * * * //

dimensions      [0 1 -1 0 0 0 0];


internalField   nonuniform List<vector> 
6400
(
(3.32570324149e-05 4.39716669437e-05 0)
(8.99013201794e-05 3.30561190581e-05 0)
(0.000131190895941 2.68379742231e-05 0)
(0.000175639167583 2.42655320226e-05 0)
(0.000209513408014 1.71038203792e-05 0)
(0.000235521776612 1.16062592433e-05 0)
(0.000252443419036 9.81734649909e-06 0)
(0.000268167282702 1.35444490048e-05 0)
(0.000301860330129 1.82532160443e-05 0)
(0.000337011357559 1.83894284052e-05 0)
(0.000358062908126 1.73839353151e-05 0)
(0.000392168257113 1.87274396872e-05 0)
(0.000425515786953 1.85402292808e-05 0)
(0.000456009348696 1.74648526969e-05 0)
(0.000483284856916 1.7353089954e-05 0)
(0.000512700310876 1.91412536042e-05 0)
(0.000547117048419 2.01544490181e-05 0)
(0.000580188336541 1.96414544106e-05 0)
(0.000610132356502 1.87039684031e-05 0)
(0.000640989238083 1.89466532716e-05 0)
(0.000677565437808 2.21714093473e-05 0)
(0.000719508865048 2.53451067398e-05 0)
(0.000763491425482 2.63159970401e-05 0)
(0.000805972276312 2.62610969414e-05 0)
(0.000847664320394 2.57341878105e-05 0)
(0.000889333343557 2.51448169933e-05 0)
(0.000931936150679 2.52651971843e-05 0)
(0.000974177702367 2.52229185253e-05 0)
(0.00101494877318 2.48166140141e-05 0)
(0.00105441957677 2.45422864078e-05 0)
(0.00109261986897 2.48763620055e-05 0)
(0.00113214084826 2.50224447406e-05 0)
(0.00117305201794 2.48917334792e-05 0)
(0.00121351165314 2.56941112346e-05 0)
(0.00125472849218 2.6397115355e-05 0)
(0.00129993239645 2.69819707873e-05 0)
(0.00134414443513 2.77168034545e-05 0)
(0.00138189096302 2.73696294743e-05 0)
(0.00142500472562 2.65915227579e-05 0)
(0.00147208290592 2.63669119903e-05 0)
(0.00151426462659 2.750163431e-05 0)
(0.00154905306851 2.68484072555e-05 0)
(0.00158128230882 2.30912656632e-05 0)
(0.00161224788682 2.04054526268e-05 0)
(0.00164004372099 1.91671949249e-05 0)
(0.00166511027136 1.77994513744e-05 0)
(0.00168714480528 1.63159276251e-05 0)
(0.00170533155689 1.43619444981e-05 0)
(0.00171971970565 1.24467195056e-05 0)
(0.00173023447262 1.22413845511e-05 0)
(0.00173928355871 1.40846466255e-05 0)
(0.00175220671297 1.33067254181e-05 0)
(0.00175754633115 6.18697167973e-06 0)
(0.00175915192781 2.17225385316e-06 0)
(0.00174789165688 -1.59778585476e-06 0)
(0.00171239356426 -8.65987084909e-06 0)
(0.00167448777811 -7.41828036069e-06 0)
(0.00165742912812 -2.11646102197e-06 0)
(0.00164842474379 -4.36622647021e-06 0)
(0.00160491221381 -6.42916054569e-06 0)
(0.00157317078023 1.88343084599e-06 0)
(0.0015375179477 -3.72407199287e-06 0)
(0.00161637559792 -3.63243433703e-05 0)
(0.00149138529293 -7.3315771002e-05 0)
(0.0011973304492 -6.58012813624e-05 0)
(0.00106037302102 -4.64073869233e-05 0)
(0.000983597800314 -4.51443754179e-05 0)
(0.000923085473772 -4.47898189597e-05 0)
(0.000859340721347 -4.6115791074e-05 0)
(0.00077014386179 -4.87544077633e-05 0)
(0.000676487769527 -4.93700523237e-05 0)
(0.000571729202362 -4.7017429217e-05 0)
(0.000474120148333 -4.53378346482e-05 0)
(0.000407816582978 -4.7013885233e-05 0)
(0.000297230799644 -3.64161098159e-05 0)
(0.000253571028968 -3.11753685309e-05 0)
(0.000163863325913 -1.88414694463e-05 0)
(0.000166363191756 -2.5025151603e-05 0)
(7.05995991453e-05 -1.71554771411e-05 0)
(5.2426733529e-05 -3.13355223068e-05 0)
(1.2869404139e-05 6.21439344209e-05 0)
(5.50340460302e-05 6.89529663078e-05 0)
(9.56137232983e-05 6.21131302898e-05 0)
(0.000122766483087 5.05664346522e-05 0)
(0.000175947182565 5.01358167692e-05 0)
(0.000223637927148 3.72692899609e-05 0)
(0.000253794762397 2.72717722129e-05 0)
(0.000278013593091 3.54181681838e-05 0)
(0.000305023827493 4.4801297409e-05 0)
(0.000335152055946 4.54915883623e-05 0)
(0.000364961360893 4.45189072623e-05 0)
(0.000393963592001 4.50477742783e-05 0)
(0.000422834694383 4.36719254807e-05 0)
(0.000451301982184 4.16461030034e-05 0)
(0.000481162299977 4.2133889533e-05 0)
(0.000512324502065 4.85322860783e-05 0)
(0.000545100947872 5.2391101492e-05 0)
(0.000575918284534 4.69860346767e-05 0)
(0.000595052321962 4.29876362133e-05 0)
(0.000628840355474 4.59975760069e-05 0)
(0.000670276642007 5.49670793083e-05 0)
(0.000715030565391 6.44980743801e-05 0)
(0.000762331217177 6.67299550138e-05 0)
(0.000806341781326 6.38439405838e-05 0)
(0.000843310325277 6.16759695904e-05 0)
(0.000887272141974 6.14876944414e-05 0)
(0.000931034544112 6.10117711632e-05 0)
(0.000972182196917 5.98148506193e-05 0)
(0.00101239899388 5.85712681589e-05 0)
(0.00105241396621 5.78345351548e-05 0)
(0.00109173851139 5.81384715278e-05 0)
(0.0011282158745 5.80018860962e-05 0)
(0.00116902946025 5.69990459273e-05 0)
(0.00120910156885 5.93510944305e-05 0)
(0.00124909855007 6.23658309375e-05 0)
(0.00129839195189 6.23108857114e-05 0)
(0.00134066994611 6.31413433547e-05 0)
(0.00137866290017 6.37083719837e-05 0)
(0.00142473048343 6.20439028137e-05 0)
(0.00147723660091 5.90257649185e-05 0)
(0.00152061135374 5.35060037216e-05 0)
(0.00152992798952 4.67983245702e-05 0)
(0.00154841798533 4.26099340805e-05 0)
(0.00158218464428 4.03016996911e-05 0)
(0.00161184628871 3.78336245694e-05 0)
(0.00164119061997 3.45398703372e-05 0)
(0.00166905464439 3.01389088731e-05 0)
(0.00169132133325 2.48010426643e-05 0)
(0.00171336767801 1.91246964013e-05 0)
(0.0017303735483 1.3995968612e-05 0)
(0.00173584455976 1.03301901296e-05 0)
(0.00172293098702 6.87675129961e-06 0)
(0.00171507551291 2.46535912309e-06 0)
(0.00175864419695 -7.49657023394e-06 0)
(0.00173972565028 -2.56625530502e-05 0)
(0.00171644427045 -3.82329703838e-05 0)
(0.0017182716697 -3.65520644302e-05 0)
(0.00170522611204 -3.20981240933e-05 0)
(0.00168316365451 -3.80952840147e-05 0)
(0.00166351778587 -4.5859658259e-05 0)
(0.00164520599636 -5.13347736777e-05 0)
(0.00151893171012 -6.26301046462e-05 0)
(0.0015915172568 -0.000144234117867 0)
(0.00145274837599 -0.000240255734503 0)
(0.00120602932638 -0.000233679282522 0)
(0.00100138388418 -0.000167816815441 0)
(0.000896692027208 -0.000123673583056 0)
(0.000878198533333 -0.000114625297925 0)
(0.000820334718577 -0.000126052016425 0)
(0.000751446951062 -0.000144692737873 0)
(0.000651460699163 -0.000152554141717 0)
(0.000544527233586 -0.000144865821143 0)
(0.000437033668618 -0.000122828685821 0)
(0.000384717095133 -0.000115435603546 0)
(0.00032060521988 -0.000103641035525 0)
(0.000265346419764 -9.12157806019e-05 0)
(0.00021140250092 -7.5375239928e-05 0)
(0.000163682221755 -7.44569016609e-05 0)
(9.99400312825e-05 -7.67646520272e-05 0)
(4.55517314082e-05 -0.000122761685939 0)
(1.79806339459e-05 0.000107342905865 0)
(5.16513603026e-05 0.000114911365108 0)
(8.01560607249e-05 0.000107428417346 7.28197949644e-29)
(0.000133996798339 0.000108130312669 -6.69445044382e-29)
(0.000184360396061 0.000106957424765 -5.84487109535e-29)
(0.000217509183837 8.88944641466e-05 5.31068513459e-29)
(0.000242909799768 5.65698463184e-05 -5.30532925385e-29)
(0.000267664587512 6.25427067242e-05 5.11303456425e-29)
(0.00029573147929 7.51083578548e-05 0)
(0.000327044195831 7.81874557597e-05 0)
(0.000358506574846 7.67269044278e-05 0)
(0.000388118227866 7.46204568158e-05 0)
(0.000416639751769 7.22977884202e-05 0)
(0.000444464411464 7.20578299664e-05 0)
(0.000474462131229 7.4822585475e-05 0)
(0.000505895153831 7.60304348926e-05 0)
(0.000493069117004 6.84640507156e-05 0)
(0.000499278201921 6.44408212548e-05 0)
(0.000532563982679 7.2224330899e-05 0)
(0.000583999729626 9.08096076258e-05 0)
(0.00066427673614 0.000110449000174 0)
(0.000718097345878 0.000116005961535 0)
(0.000753926857413 0.000112513287358 0)
(0.000797357287269 0.000108561054409 0)
(0.000842340822006 0.000106646668355 0)
(0.00088383219252 0.000105848769586 0)
(0.000924834465395 0.000104214829167 0)
(0.000966176898363 0.000102356494871 0)
(0.00100683910657 0.000100845063737 0)
(0.00104644743817 9.99913742059e-05 9.28310892086e-29)
(0.00108717779786 9.94707598082e-05 -8.9743703365e-29)
(0.00112118099713 9.88413844488e-05 0)
(0.0011609370958 9.88351476506e-05 0)
(0.00120851280262 0.000100711322139 0)
(0.00123656536986 0.000106290505555 0)
(0.00128653885611 0.000110741873769 0)
(0.00134207902117 0.000109770649153 0)
(0.00137209429224 0.000109552858536 0)
(0.00142008876304 0.000111213599942 0)
(0.00147436279722 0.000105776247284 0)
(0.0015181253056 9.09550694701e-05 0)
(0.00155144705593 7.81966520889e-05 0)
(0.0015824468895 7.45410443331e-05 0)
(0.00161318028093 7.28623893693e-05 0)
(0.00164122417041 6.90727193199e-05 0)
(0.00166621577588 6.36926782654e-05 0)
(0.00168834359729 5.65116383641e-05 0)
(0.00170755907757 4.83211360281e-05 0)
(0.00172397250316 3.91469055552e-05 0)
(0.00173719105989 2.82477382914e-05 0)
(0.0017467034473 1.70936803698e-05 0)
(0.00175271619965 1.03365132051e-05 0)
(0.0017560290706 8.42594942624e-06 0)
(0.00174783814803 -6.202969979e-06 0)
(0.00172847414739 -2.9287202561e-05 0)
(0.00172721548074 -4.03842818324e-05 0)
(0.00172153237639 -4.32961426616e-05 0)
(0.00170412472319 -4.75427580026e-05 0)
(0.00168086183831 -5.55299536012e-05 0)
(0.00165448441561 -6.8918298836e-05 0)
(0.00161237515137 -9.67612295907e-05 0)
(0.00156755049892 -0.000141741553545 0)
(0.00152359411973 -0.000285143839287 0)
(0.00129948008479 -0.000407952220051 0)
(0.00102749663365 -0.000347406383674 0)
(0.000935750525196 -0.000262954585203 0)
(0.000890614254718 -0.000208460831277 0)
(0.0008195650508 -0.00018820280468 0)
(0.000748974508854 -0.000205393412884 0)
(0.000668173146123 -0.000230918692732 0)
(0.000572947623164 -0.000236053086746 0)
(0.000487119965243 -0.000217157626436 0)
(0.000432248824204 -0.000195020419944 0)
(0.000380187385247 -0.000182618383963 0)
(0.000315328574101 -0.000170494677993 0)
(0.000250733851589 -0.000151633282914 0)
(0.000192028671399 -0.000131666016712 0)
(0.000144748754601 -0.000135619717909 0)
(9.90274815971e-05 -0.000170813525359 0)
(2.49786358186e-05 -0.000167280049259 0)
(1.66212151338e-05 0.000156278352793 0)
(2.51299147403e-05 0.000109271922777 0)
(6.33865616507e-05 0.000159338842401 0)
(0.000112369338134 0.000159014135579 0)
(0.000158226400673 0.000138719402884 0)
(9.87184672679e-05 6.07354355385e-05 0)
(0.000125905882301 6.50240316264e-05 0)
(0.000226770335252 0.000113641462954 0)
(0.000275248453506 0.000119698556277 0)
(0.000312197015416 0.000113825458181 0)
(0.000347291537678 0.000109572757767 0)
(0.000378974648144 0.000104583364373 0)
(0.000408167961036 0.000100916208903 0)
(0.000433062884486 9.57943481996e-05 0)
(0.000432454473033 8.51483970191e-05 0)
(0.00043113070103 7.7291770806e-05 0)
(0.000448305091291 7.95480260681e-05 0)
(0.000490255224434 9.85453255471e-05 0)
(0.000561296725036 0.000129772114091 0)
(0.000628103504527 0.000157480222034 0)
(0.000666991161164 0.000164295097762 0)
(0.000707321049718 0.000160045817437 0)
(0.000750644588823 0.000155634914647 0)
(0.000792739311899 0.000152340819011 0)
(0.000833979456854 0.000149238849329 0)
(0.000874691253781 0.000146669552235 0)
(0.000915255442795 0.000144764400834 0)
(0.000957861447133 0.000143080626417 0)
(0.000997424006324 0.000141094382461 0)
(0.00103994940772 0.000140010319933 0)
(0.00107533901928 0.000138560347508 0)
(0.00111792651444 0.000137669579425 0)
(0.0011473391947 0.000135663073133 0)
(0.00119170161398 0.000140914933933 0)
(0.00124710549066 0.000150705760079 0)
(0.00127993384123 0.00015659304692 0)
(0.00133465516245 0.000158273679776 0)
(0.00138983744041 0.00015797563473 0)
(0.00143349407333 0.000156728440092 0)
(0.0014747990198 0.000147533371484 0)
(0.0015144563477 0.000130908345476 0)
(0.00155032078491 0.000115600953552 0)
(0.00158346337627 0.000106806735305 0)
(0.00161450406986 0.000101046441521 0)
(0.00164258105774 9.44853205143e-05 0)
(0.00166758359454 8.63108528228e-05 -7.91493014772e-29)
(0.00168966278092 7.65595245311e-05 7.96000576318e-29)
(0.00170880319644 6.55498085622e-05 0)
(0.00172497671028 5.33359084036e-05 0)
(0.00173795040961 3.99774899151e-05 0)
(0.00174730135669 2.67554523976e-05 0)
(0.00175238469872 1.50954519178e-05 0)
(0.00175236375944 2.30847059468e-06 0)
(0.00174588600239 -1.65092625718e-05 0)
(0.00173640206763 -3.50898634176e-05 0)
(0.00172809849628 -4.75356512867e-05 0)
(0.00171653612876 -5.79771255712e-05 0)
(0.00169701615061 -6.95458649824e-05 -1.53490946021e-28)
(0.00166896452744 -8.51949348014e-05 1.78328887136e-28)
(0.00162952403141 -0.000111081932366 0)
(0.00156978785412 -0.000158485932704 0)
(0.00148465076757 -0.000254724930441 0)
(0.00135759596184 -0.000430998391671 0)
(0.00121766198583 -0.000565975498879 0)
(0.00108563515957 -0.000514855478981 0)
(0.000892267202868 -0.000345886577449 0)
(0.000802313476887 -0.00027284274386 0)
(0.000740571260422 -0.000262324027257 0)
(0.000676098760524 -0.000282611428387 0)
(0.000617439846353 -0.000317102514898 0)
(0.000544000865 -0.000324493465873 0)
(0.000470240961358 -0.000298364348989 0)
(0.000399713848976 -0.000266527812017 0)
(0.000316879191306 -0.000237347402145 0)
(0.000256372466546 -0.000224278229649 0)
(0.000200794715045 -0.000215154117369 0)
(0.000141703269184 -0.000190597027616 0)
(8.1448011367e-05 -0.000151181573072 0)
(5.91278906896e-05 -0.000188758087928 0)
(1.95271508744e-05 -0.000216345143282 0)
(1.3394887193e-06 0.000157557601446 0)
(1.29543136154e-05 0.000132059965855 0)
(5.42747261753e-05 0.000204256007725 0)
(9.31825764688e-05 0.000192302005351 0)
(0.000105434155023 0.000136071115602 0)
(8.76060768637e-05 8.25132397101e-05 0)
(0.000150001659445 0.000131678042854 0)
(0.00021960124195 0.000176333699141 0)
(0.000252711779397 0.000164885133288 0)
(0.000292319205121 0.000152604233646 0)
(0.000329798803629 0.00014668991402 0)
(0.000363268901577 0.000138239009802 0)
(0.000378909466723 0.000119341323621 0)
(0.000366870106806 9.59712080928e-05 0)
(0.000385541697866 9.30903511435e-05 0)
(0.000421599812775 0.000105285819161 0)
(0.000474511574832 0.000129795769789 0)
(0.000535356761453 0.000162490901408 0)
(0.000584232964942 0.000187512991141 0)
(0.00061562117974 0.000196370677995 0)
(0.000654770363262 0.000201549963206 0)
(0.0006986529899 0.000202960414033 0)
(0.000740296634329 0.00019925871182 0)
(0.000781679552143 0.000194363132958 0)
(0.000822377063231 0.00019027791743 0)
(0.000862360103344 0.000187767596084 0)
(0.000904977070257 0.000186144769855 0)
(0.000943526305329 0.000183721748228 0)
(0.000988563090654 0.0001821843221 0)
(0.00102298398724 0.000179089209749 0)
(0.00106950511177 0.000178463923219 8.9042619977e-29)
(0.00109137515933 0.000174574017808 -8.48917418305e-29)
(0.00114420236241 0.0001792912377 0)
(0.001197524199 0.000187175565776 0)
(0.00123454200468 0.000196054238672 0)
(0.00129363958526 0.000207397879359 0)
(0.0013438021979 0.000211275453596 0)
(0.00138969378191 0.000206263600325 0)
(0.00143250068235 0.000197854004037 0)
(0.00147337685074 0.000185860093819 0)
(0.00151291955921 0.000169510002493 0)
(0.00155007472424 0.00015316673982 0)
(0.00158449452382 0.000140705448961 0)
(0.00161608824702 0.00013087786039 0)
(0.00164448973173 0.000120983041703 0)
(0.0016697163268 0.000109839997422 0)
(0.00169187926384 9.72360048038e-05 0)
(0.00171095206353 8.32757962523e-05 0)
(0.00172680818061 6.79850895966e-05 0)
(0.0017391872831 5.15132479411e-05 0)
(0.00174765400608 3.4548510041e-05 0)
(0.00175151148794 1.74635845204e-05 0)
(0.00175004813824 -1.17222648966e-06 0)
(0.00174329350904 -2.23649037468e-05 0)
(0.00173364547709 -4.25445197336e-05 0)
(0.00172256683776 -5.96576591043e-05 0)
(0.00170639260004 -7.69664785808e-05 0)
(0.00168013688029 -9.83965483608e-05 0)
(0.00163957331515 -0.000129002543734 0)
(0.00157841656719 -0.000178038471015 0)
(0.00148896291805 -0.000259291748163 0)
(0.00137324492068 -0.000386509449665 0)
(0.00123473552566 -0.00054763285808 0)
(0.00115753022755 -0.000668507421837 0)
(0.00107683212352 -0.000643519792047 0)
(0.000906379816064 -0.000488770725839 0)
(0.000783629325596 -0.000388927521516 0)
(0.00068413308595 -0.000349745651549 0)
(0.000603209327015 -0.000353368907202 0)
(0.00054123173917 -0.000381215312096 0)
(0.000482007200487 -0.000398450697445 0)
(0.000409724279342 -0.000374209861017 0)
(0.000323188603773 -0.000322516017018 0)
(0.000263789036575 -0.000299209172891 0)
(0.000207802440168 -0.000290409433289 0)
(0.000152118215848 -0.000276722184351 0)
(0.000100135575205 -0.000226634649897 0)
(6.3404304083e-05 -0.000191205752931 0)
(3.94140297503e-05 -0.000233720343652 0)
(9.55059762659e-06 -0.000239461030062 0)
(-8.29820472793e-07 0.000147577284643 0)
(1.43361280882e-05 0.000158335625356 0)
(5.19312669914e-05 0.000231262890767 0)
(7.5070587039e-05 0.00020225173852 0)
(5.96293025519e-05 0.000109664421323 0)
(8.46324777548e-05 0.000115688812189 0)
(0.000172846127734 0.000200764740784 0)
(0.000202917969188 0.000210937762665 0)
(0.000232728498275 0.000200972645149 0)
(0.000268765193852 0.000192275423977 0)
(0.000306245173486 0.000178110091672 0)
(0.000302515894069 0.000143560207808 0)
(0.00028818716543 0.000109551090051 0)
(0.000317500030928 0.000110708675308 0)
(0.000357310559586 0.000129228190332 0)
(0.000420938364 0.000161011915521 0)
(0.000484739710442 0.000191238134388 0)
(0.000532737192386 0.000210229201858 0)
(0.00055893779668 0.000218216737911 0)
(0.000599665007944 0.000232729009295 0)
(0.000644879423152 0.000244295807692 0)
(0.000685511571542 0.000245190349644 0)
(0.000725974464156 0.000241104572482 0)
(0.00076634597055 0.000236022675873 0)
(0.00080900235945 0.000232204676521 0)
(0.000849021359175 0.000228186239112 0)
(0.000883517554298 0.000226070928115 0)
(0.00093328509062 0.000226330613553 0)
(0.000963248044033 0.000220715462834 0)
(0.00101585413999 0.000219055100051 0)
(0.00103087832844 0.000212319026055 0)
(0.00109093237736 0.000219381136993 0)
(0.00111365344144 0.000222422294609 0)
(0.00118066130626 0.000236989240085 0)
(0.0012461653843 0.000252650941623 0)
(0.00129736940045 0.000260919403157 0)
(0.00134340283234 0.000258512515035 0)
(0.00138769073005 0.000250386823753 0)
(0.00143048443069 0.000239433868561 0)
(0.00147197583205 0.000225592465622 0)
(0.0015120593125 0.000208614292157 0)
(0.00155010444999 0.000190933474473 0)
(0.00158550438535 0.000175256027858 0)
(0.00161780714326 0.000161470947494 0)
(0.00164676657966 0.000147947919038 0)
(0.00167238542882 0.00013355034211 0)
(0.00169473708444 0.000117845438848 0)
(0.0017137208484 0.000100709190369 0)
(0.00172909097148 8.20686284079e-05 0)
(0.00174052837462 6.19874560934e-05 0)
(0.00174760257201 4.07647156988e-05 0)
(0.00174974244761 1.84967671183e-05 0)
(0.00174657070608 -5.17205801586e-06 0)
(0.00173851529903 -2.97627405311e-05 0)
(0.00172679457799 -5.34926736076e-05 0)
(0.00171085246125 -7.6952294893e-05 0)
(0.00168639087342 -0.000104368955948 0)
(0.00164760930839 -0.000141203479551 0)
(0.00158898350612 -0.000194221944791 0)
(0.0015048193547 -0.000271333498013 0)
(0.00139583355117 -0.000378656437622 0)
(0.00127427572982 -0.000509591724236 0)
(0.00112014742331 -0.000622538615957 0)
(0.00111155156514 -0.00077086099499 0)
(0.000968537647625 -0.000731242152075 0)
(0.000822787103718 -0.000588961305688 0)
(0.000725495807772 -0.000501546334561 0)
(0.000621768316336 -0.000447091831806 0)
(0.000527261426426 -0.000426835961829 0)
(0.000467715930666 -0.000455726973306 0)
(0.000409819664111 -0.000477887840617 0)
(0.00032930670334 -0.000424970401458 0)
(0.000267042691943 -0.000377547995478 0)
(0.000216323231835 -0.000362729075496 0)
(0.000158772713198 -0.000349479546687 0)
(0.00011412956452 -0.000324375513495 0)
(7.31365826237e-05 -0.000253049607483 0)
(4.47517119201e-05 -0.000221236569489 0)
(2.50443586452e-05 -0.000258379209087 0)
(6.55905192255e-06 -0.000254862614151 0)
(4.30988532172e-06 0.000158892690371 0)
(2.98961904203e-05 0.000200714315912 0)
(6.37203594144e-05 0.000249094786417 0)
(7.11242212569e-05 0.000239836021706 0)
(5.28848541765e-05 0.000137801562824 0)
(0.000112523932354 0.000193409517692 0)
(0.000166846627411 0.000238581263114 0)
(0.000186026357447 0.000236879471605 0)
(0.000213364855812 0.000230070653828 0)
(0.000237608008811 0.000221416365601 0)
(0.000279266608891 0.000202486699085 -2.41792972437e-28)
(0.000234837134785 0.000131989229156 1.57056810614e-28)
(0.000270887780612 0.000133361633908 0)
(0.000300192027328 0.000149318524562 0)
(0.000358017244251 0.000186342602148 0)
(0.000426203891265 0.000227210767301 0)
(0.000474841396173 0.000242945791522 0)
(0.000494187725666 0.000239495809312 0)
(0.000536901445014 0.000255555984004 0)
(0.000587363500644 0.00027767844849 0)
(0.000627248421634 0.000286018870509 0)
(0.000668103390758 0.000286228503447 0)
(0.000709392767251 0.000283010852423 0)
(0.000750508162199 0.000277523700089 0)
(0.000788141418741 0.000270798519756 0)
(0.000823517539146 0.000265893558315 0)
(0.000871429758735 0.000266721915396 0)
(0.000896099608734 0.000263876838577 0)
(0.000955447690755 0.000263322538396 0)
(0.000966280753956 0.000248541315661 0)
(0.00103062709991 0.000255916991579 0)
(0.00105510153951 0.000261443916406 -8.36787895697e-29)
(0.00112108794944 0.000277283815403 8.46207880261e-29)
(0.00117774876927 0.00029700344214 0)
(0.00124597596491 0.000312066652477 0)
(0.0012952062929 0.000311668776409 0)
(0.00133991901857 0.000304303227353 0)
(0.00138424385933 0.000294126733528 0)
(0.00142804283721 0.000281685577297 0)
(0.00147062556083 0.000266480185256 0)
(0.00151156107435 0.000248437217637 0)
(0.00155049519798 0.000229123107917 0)
(0.0015868087798 0.000210472276237 0)
(0.00161992728575 0.000192909337712 0)
(0.00164958046082 0.000175608490056 0)
(0.00167572377305 0.000157662921961 0)
(0.00169831485027 0.000138503567249 0)
(0.00171711575508 0.000117790939434 0)
(0.00173176263174 9.53152739823e-05 0)
(0.00174188795336 7.10374077264e-05 0)
(0.00174708880469 4.50915442311e-05 0)
(0.0017469293805 1.76493195098e-05 0)
(0.00174122211465 -1.10206073624e-05 0)
(0.00173020811261 -4.02752792987e-05 0)
(0.00171386619679 -7.00262935942e-05 0)
(0.00169005269861 -0.000102997179165 0)
(0.0016537208509 -0.000144713493383 0)
(0.00159934338397 -0.000201000449927 0)
(0.00152429499627 -0.000276634237371 0)
(0.00143168432085 -0.000374148133798 0)
(0.00132774743673 -0.00049082720776 0)
(0.00122049110707 -0.000614807778805 0)
(0.00112959767967 -0.000737729886249 0)
(0.00106145572354 -0.000861398691957 0)
(0.000931519532647 -0.000847008594452 0)
(0.000731642115178 -0.000672511694028 0)
(0.00065876824884 -0.000603908910436 0)
(0.000566286134026 -0.000559371567729 0)
(0.000467959010398 -0.000531244972647 0)
(0.000393325229262 -0.000541147368012 0)
(0.000330208029823 -0.000529042259049 0)
(0.000268370621929 -0.000467116890054 0)
(0.000222166406918 -0.000438678318307 0)
(0.000166944075564 -0.000421543091963 0)
(0.000116504307339 -0.00040125413992 0)
(7.96565031565e-05 -0.000346047227232 0)
(5.14509445244e-05 -0.000287938805185 0)
(2.17493022298e-05 -0.000246272696962 0)
(7.77386594882e-06 -0.000269666050951 0)
(2.64025844455e-06 -0.000269330938486 0)
(9.09802950142e-06 0.000182201599776 0)
(3.98163190698e-05 0.000237755910703 0)
(6.76527747222e-05 0.000257879078367 0)
(4.46419835351e-05 0.000170921159834 0)
(5.23453901779e-05 0.000167556700329 0)
(0.000120095592169 0.000253669882101 0)
(0.000146306514341 0.000262367499011 0)
(0.000169765166618 0.00026133007463 0)
(0.000186730125457 0.000252400746968 0)
(0.00021614054116 0.000245482101275 0)
(0.000188849104025 0.000169396516314 0)
(0.000216605448769 0.00015489461013 0)
(0.000251132558987 0.000166185316695 0)
(0.000287008316709 0.0001938118096 0)
(0.000361685524925 0.000250949535599 0)
(0.000414209252024 0.000277332207402 0)
(0.00042925309364 0.000267151610313 0)
(0.000466557252438 0.000276457410194 0)
(0.000521657022308 0.000304556120836 0)
(0.000566741614377 0.000321631384357 0)
(0.000605493150357 0.000326337155762 0)
(0.000645020542178 0.000326389476124 0)
(0.000687882803849 0.000325263842576 0)
(0.000728694082475 0.000319473229611 0)
(0.000771358502925 0.000310399103056 0)
(0.000799441285855 0.00030564822194 0)
(0.000853169327055 0.000308082044515 0)
(0.000883843372061 0.00030228358628 0)
(0.000908898960479 0.000293649421119 0)
(0.000955348098644 0.000294833755012 0)
(0.00102628861097 0.000307265635258 0)
(0.00105641309366 0.000310326625898 0)
(0.00110395712375 0.00033198432668 0)
(0.0011873009886 0.000361327710489 0)
(0.00124005492798 0.000367998887997 0)
(0.00128797512485 0.000360861399431 0)
(0.00133442832325 0.00035049679781 0)
(0.001380068435 0.000338879813793 0)
(0.0014251808369 0.000325236602315 0)
(0.00146913979399 0.000308703329581 0)
(0.00151127495504 0.000289239463916 0)
(0.00155123896989 0.000267992734211 0)
(0.00158855672534 0.000246436887754 0)
(0.00162264236211 0.000225213690257 0)
(0.00165314312561 0.000204031629562 -7.66597262525e-29)
(0.00167991675922 0.000182233599071 7.64163822109e-29)
(0.00170275497501 0.000159172307919 0)
(0.00172124723694 0.000134330695508 0)
(0.00173491132086 0.000107388824709 0)
(0.00174333138954 7.82512735162e-05 0)
(0.00174609889294 4.70150922518e-05 0)
(0.00174282248834 1.39442036366e-05 0)
(0.00173327682798 -2.05540682464e-05 0)
(0.00171720940852 -5.63560173782e-05 0)
(0.00169345831464 -9.49856895376e-05 0)
(0.00165885182152 -0.000140706043321 0)
(0.00160865003763 -0.000199261816152 0)
(0.00154079554937 -0.000273598103559 0)
(0.00146026884576 -0.000363821337976 0)
(0.00137461736135 -0.000469743191543 0)
(0.00128508321941 -0.000587004661797 0)
(0.00119568377398 -0.000704958500182 0)
(0.0011170859007 -0.000819816516778 0)
(0.0010371353525 -0.000934949614618 0)
(0.00101747549414 -0.00104348872081 0)
(0.000736371541253 -0.000821803890007 0)
(0.000576955608918 -0.000704848618842 0)
(0.000479900930696 -0.000658287274739 0)
(0.000378099857631 -0.000618279808006 0)
(0.000306752744488 -0.000601410689052 0)
(0.000259439332593 -0.000562477583141 0)
(0.000218213765862 -0.000513740170766 0)
(0.000173380543693 -0.000495229229905 0)
(0.000120530904086 -0.000475372974973 0)
(7.76922394945e-05 -0.000439829962185 0)
(4.50949856932e-05 -0.000371695003832 0)
(1.83986919011e-05 -0.00032070271457 0)
(-7.57998819376e-06 -0.000273691850861 0)
(-1.69036027788e-05 -0.000270928285767 0)
(-7.11386604439e-06 -0.00027172259244 0)
(1.20185854448e-05 0.000209921262054 0)
(4.20497155235e-05 0.00026488923272 0)
(5.23052053768e-05 0.000264657344584 0)
(3.93035708085e-05 0.000185313109507 0)
(6.79161541717e-05 0.000213098808731 0)
(0.000115192770035 0.000280460235833 0)
(0.00012669447515 0.000283711243353 0)
(0.000153794293325 0.000283185104165 0)
(0.000154127706289 0.000255091986599 0)
(0.000195949013971 0.000275332826269 0)
(0.00016817859923 0.000188693433243 0)
(0.000203775521853 0.000186403310208 0)
(0.000233554460288 0.000202874799519 0)
(0.000287150529154 0.000253553503633 0)
(0.000348862431903 0.000305465970159 0)
(0.000386773970331 0.000314015013236 0)
(0.000400703865562 0.000301258356603 0)
(0.000446894636065 0.000323357970632 0)
(0.000497556523175 0.000351246430447 0)
(0.000540378188392 0.000364098496721 0)
(0.000581625036251 0.000367463313002 0)
(0.000619816094053 0.000366152999999 0)
(0.000661593471234 0.00036519895446 0)
(0.000696317598818 0.000358122662224 0)
(0.000729710671491 0.000344333726013 0)
(0.000784256982546 0.000346720048321 0)
(0.000796926667874 0.000339992678933 0)
(0.000874228825152 0.000347486918327 0)
(0.000886430239579 0.000338358702947 0)
(0.000963088375687 0.000352318181666 0)
(0.000978982674007 0.000346644902494 0)
(0.00106125902388 0.000369843668881 0)
(0.00112163159647 0.000398828434513 -8.79619341028e-29)
(0.00117884925936 0.000418751174914 8.76849059445e-29)
(0.00123010308979 0.000419019156201 0)
(0.00127920627804 0.000410033864534 0)
(0.00132768197785 0.000398354642809 0)
(0.00137517781878 0.000385370565243 0)
(0.00142185618241 0.000370400248109 0)
(0.00146735803284 0.000352445699342 0)
(0.00151101802965 0.000331307569519 0)
(0.00155234603222 0.000307868104747 0)
(0.00159088341851 0.000283357608898 0)
(0.00162612265748 0.00025850283419 0)
(0.00165767146067 0.000233312713373 0)
(0.0016852013323 0.000207306004969 0)
(0.0017082860368 0.000179795052348 0)
(0.00172635043327 0.000150143609025 0)
(0.00173879888829 0.000117967016793 0)
(0.00174511973954 8.31532414723e-05 0)
(0.00174482530894 4.578011376e-05 0)
(0.00173743354052 6.06916318128e-06 0)
(0.00172246892517 -3.58170813533e-05 0)
(0.0016990736013 -8.05718690544e-05 0)
(0.00166524896051 -0.000130849313388 0)
(0.00161785421462 -0.000191181734049 0)
(0.00155423251324 -0.000265498926799 0)
(0.00147897040859 -0.00035043892186 0)
(0.00140494833449 -0.000444447725595 0)
(0.00133452983719 -0.000553624006745 0)
(0.00125455961707 -0.000675237584057 0)
(0.00116319800097 -0.000788788496472 0)
(0.00108377447933 -0.000888750187341 0)
(0.00102350348921 -0.000992405933794 0)
(0.00100257313086 -0.0011107305736 0)
(0.000894797148496 -0.00110515623221 0)
(0.000549523572385 -0.000832410373703 0)
(0.000384695576483 -0.000773005544874 0)
(0.000290974632886 -0.000716912114715 0)
(0.000227035881231 -0.000653194941449 0)
(0.000192680139184 -0.000589000990542 0)
(0.000166347290693 -0.000556706654567 0)
(0.000126574887401 -0.000546272586543 0)
(7.89380918497e-05 -0.000522697839656 0)
(3.69123145645e-05 -0.000472151655532 0)
(5.53875896315e-07 -0.000406946708211 0)
(-3.07518227428e-05 -0.000348660135932 0)
(-4.9626307353e-05 -0.000296070900655 0)
(-4.61898308964e-05 -0.000262782533013 0)
(-1.8853057071e-05 -0.000246849176214 0)
(1.34565918678e-05 0.00024175174428 0)
(4.36473257485e-05 0.000282813319725 0)
(4.3844568505e-05 0.000262015014217 0)
(3.62475576535e-05 0.00019795816512 0)