/*--------------------------------*- C++ -*----------------------------------*\
| =========                 |                                                 |
| \\      /  F ield         | OpenFOAM: The Open Source CFD Toolbox           |
|  \\    /   O peration     | Version:  v1806                                 |
|   \\  /    A nd           | Web:      www.OpenFOAM.com                      |
|    \\/     M anipulation  |                                                 |
\*---------------------------------------------------------------------------*/
FoamFile
{
    version     2.0;
    format      ascii;
    class       volScalarField;
    location    "80";
    object      p;
}
// * * * * * * * * * * * * * * * * * * * * * * * * * * * * * * * * * * * * * //

dimensions      [0 2 -2 0 0 0 0];


internalField   nonuniform List<scalar> 
6400
(
0.146266198364
0.146268287211
0.146274188682
0.14628521872
0.146300403383
0.146319352074
0.146342337345
0.14637086291
0.146404427551
0.146442014543
0.146489916638
0.146551336509
0.14662115668
0.146699870044
0.146790198164
0.146894950879
0.147014038532
0.147146205164
0.14729099728
0.147443915605
0.147596439493
0.147746821397
0.147900250885
0.148064044753
0.148244433138
0.148441368233
0.148650106831
0.148867876576
0.14909561892
0.14933577762
0.149590813503
0.14985999758
0.150135121337
0.150408676384
0.150680623479
0.150943864461
0.151193626214
0.15144747579
0.151705376437
0.151943777919
0.152163719742
0.152394013418
0.152648913934
0.152915862571
0.153187749112
0.153459947624
0.153728462036
0.153993783108
0.154256953528
0.154517979172
0.154781950573
0.155028587326
0.155252890314
0.15544788854
0.155621799048
0.155805243158
0.155986521036
0.156131880912
0.156243094272
0.156334477933
0.156412065183
0.156477794985
0.156528434859
0.156570023616
0.156625902393
0.156698282918
0.15677394858
0.156830909025
0.156858757335
0.156860408906
0.156840918219
0.156803717617
0.156751305591
0.156690379285
0.156623299136
0.156555811086
0.156492187138
0.156446810655
0.156415624533
0.156402079103
0.1462628121
0.146264940977
0.146269971124
0.146280738171
0.146297720761
0.146318593543
0.146342305564
0.146368979488
0.146400370139
0.146438202001
0.146485662998
0.146545077746
0.146615146435
0.146695352523
0.146786398266
0.146889355951
0.14700749109
0.147140420658
0.147287843723
0.147443611706
0.147594205937
0.147741436152
0.147893323513
0.148055273688
0.148235439378
0.14843381021
0.148642044721
0.14886003063
0.149089162682
0.149330535255
0.149584387048
0.1498532825
0.150130788406
0.150404240092
0.150677828414
0.150941740168
0.151190522543
0.151445825048
0.151704976966
0.15193915706
0.152143389753
0.152364343125
0.152634526571
0.152909520451
0.153185333435
0.153461794092
0.153734056601
0.154003141831
0.15426667034
0.154519139501
0.154765445515
0.155012361259
0.155268758412
0.155467897461
0.15564581383
0.155847552049
0.156013080481
0.156140456007
0.15624876333
0.15633893367
0.156410525004
0.156479005676
0.156538495275
0.156582592696
0.15664283145
0.156719805217
0.156799896077
0.156857190837
0.156883018394
0.15688194309
0.156859097185
0.156817860532
0.15676009107
0.156691986822
0.156619949909
0.15654899926
0.156485725902
0.156438011957
0.156405677807
0.15639437338
0.146253647534
0.146257415506
0.146261492289
0.146271280574
0.146287877911
0.146311927699
0.146338798827
0.146364762812
0.146393946601
0.146430584933
0.146477218287
0.146535581412
0.146605565662
0.146686411902
0.146777665687
0.146876068595
0.146991803522
0.147135693339
0.147288652825
0.147443039963
0.147588074233
0.147725437099
0.147873349831
0.148039547166
0.148219696369
0.148415280248
0.148625027098
0.148845774661
0.149076870542
0.149320008481
0.149574522806
0.14984372413
0.150126563136
0.150397785069
0.150666767371
0.15093973549
0.15118668489
0.151434739365
0.151694960274
0.151932788718
0.152150534491
0.152378313704
0.152632981274
0.152901562638
0.153175658138
0.153451382707
0.153725496697
0.153996398581
0.154262272801
0.154521151707
0.154773158419
0.15501645267
0.155246101941
0.155457799435
0.155669871481
0.15586797634
0.156022953506
0.156149803152
0.15625841671
0.156350961395
0.156430477374
0.156501874173
0.156558107156
0.15661056708
0.15668450854
0.156772322198
0.156855048644
0.156911444939
0.15693462045
0.156928448107
0.156898269298
0.156846923657
0.156778318178
0.156699793168
0.156618321886
0.156540247177
0.15647270525
0.156420695118
0.156386815964
0.15637376064
0.146241804273
0.146245389341
0.146247914545
0.146256890908
0.146271461651
0.146295343694
0.146331841811
0.146357449792
0.146384274395
0.146418806457
0.146464343533
0.146522046422
0.146592048286
0.14667181757
0.146763811191
0.146872333694
0.14699724131
0.147138161415
0.14728283191
0.147420434834
0.147555982976
0.147697063086
0.147847084439
0.148011454874
0.148192074439
0.14838932101
0.148601741133
0.148825376351
0.14905971358
0.149304535497
0.149562796798
0.149834011142
0.150116915865
0.150401164029
0.150663410663
0.150924247527
0.151184771566
0.1514275603
0.151665036971
0.151900272261
0.152131835494
0.152370284283
0.152624891832
0.1528917024
0.153165296069
0.153441607383
0.153717350717
0.153990265064
0.154258440519
0.154520203831
0.154774483469
0.155019545469
0.15525349105
0.155475181809
0.155686760417
0.155877253716
0.156034592787
0.156164062636
0.156274523344
0.156371222189
0.156457399868
0.15653430654
0.156601250289
0.156674613044
0.156759153052
0.156854024112
0.156943927624
0.157002026173
0.157020153154
0.157004325142
0.156961453655
0.15689508095
0.156810452006
0.156713988951
0.156614294967
0.156524571974
0.15645036213
0.156386953329
0.156341714554
0.156322659882
0.146223675277
0.146223366052
0.146226615022
0.146235883118
0.146251989808
0.146273788754
0.146305742698
0.146335470516
0.146365001525
0.146400723254
0.146445681513
0.146503102037
0.146573995104
0.146661866977
0.14676512193
0.146876469075
0.146996258938
0.147122470767
0.147251065246
0.1473834824
0.147520536593
0.147661293809
0.14781111023
0.147976005632
0.148157448697
0.148356848219
0.148571327919
0.148798900578
0.149036626723
0.149286429148
0.14954715223
0.149825766243
0.150121109666
0.150394036077
0.150657163407
0.15091238757
0.15115390257
0.151392173847
0.151629720427
0.151868030976
0.152107560824
0.152353079598
0.15260972204
0.152876846615
0.153151120286
0.15342886045
0.153706704128
0.15398208131
0.154253057019
0.154518124412
0.154775951876
0.155024972357
0.155263835972
0.155491266225
0.155704242426
0.155893560345
0.156052414413
0.156184907539
0.156299481608
0.156402702486
0.156498193987
0.156586812616
0.156672681122
0.15677379443
0.156865011078
0.156973046438
0.157075977488
0.157138120227
0.157148717204
0.157116690699
0.157052948431
0.156963682522
0.156853474157
0.156728377257
0.156604763253
0.156496494634
0.156401519735
0.156311472232
0.156251545363
0.156228422257
0.146188755005
0.146187553177
0.14619487724
0.146203876452
0.146221327989
0.146245338906
0.146273653087
0.146304743065
0.146337639063
0.146375486044
0.146419037845
0.146477980411
0.146560365538
0.146657934288
0.146761571275
0.146867417644
0.146976000518
0.147090500487
0.147214417107
0.147345491851
0.147478030755
0.147616414712
0.147766649181
0.147933120193
0.148116395146
0.148316010693
0.148535188461
0.148765932769
0.149009566628
0.149263345945
0.149532230288
0.149815969416
0.150106792365
0.150393892727
0.150643576871
0.150877593034
0.151111138397
0.151348142442
0.151587992345
0.15183042659
0.152075939689
0.152327291552
0.152587413102
0.152856573883
0.153132713433
0.153412659677
0.153693142204
0.153971489855
0.154245915759
0.154515179886
0.154778041189
0.155032954612
0.15527808828
0.155510623687
0.155725431091
0.155915299207
0.156076900064
0.156214406835
0.156335009696
0.156446406238
0.156553974643
0.156661593549
0.156786127269
0.156908217476
0.157011541266
0.157142788238
0.157267074304
0.157335100685
0.157333627718
0.157275662893
0.157180654444
0.157057596207
0.156908421487
0.156744349207
0.156586884984
0.156445949732
0.156312857246
0.156189799876
0.156112154986
0.156077697854
0.146134854152
0.146138214221
0.146152729157
0.146166703711
0.146180346537
0.146204007469
0.146235032511
0.146266696512
0.146302397406
0.146342541013
0.146390748526
0.146452530557
0.146544258585
0.14664281106
0.14674241157
0.146838558977
0.146938657054
0.14705158244
0.147175802038
0.147299130311
0.147426583968
0.147564715886
0.147715127229
0.147881341246
0.148065840758
0.148272811921
0.148490784151
0.148727886435
0.148977076857
0.149242230397
0.14951865985
0.149801636627
0.150094450072
0.150366167718
0.150606171191
0.150829632708
0.151059703172
0.151297558498
0.151540368825
0.15178664631
0.152037105311
0.152293660488
0.152557971359
0.152830374709
0.153109432922
0.153392379778
0.153676102683
0.153958094009
0.154236891924
0.154511573916
0.154780966328
0.155043226521
0.155295553032
0.155533633921
0.155751627575
0.155944079494
0.156109754752
0.156252702319
0.156379851225
0.156499959543
0.156623382736
0.156763379354
0.156921816581
0.157065933679
0.157231298709
0.157390586906
0.157538776255
0.157606432299
0.157584467541
0.157491561541
0.1573542887
0.157183411832
0.156979421338
0.156763005078
0.156555436374
0.156360720243
0.156173167701
0.156013661783
0.155914761514
0.155866316432
0.146072224679
0.146079518786
0.146097665881
0.146120145926
0.146135253826
0.146158252966
0.146188641404
0.146221525847
0.146261033992
0.146298564205
0.14635440454
0.146429857026
0.146519703119
0.146616101704
0.14670724597
0.146793884334
0.146893555551
0.147009872078
0.147127101128
0.147243549029
0.147367110219
0.147505011572
0.147656360851
0.147825307174
0.148013099627
0.148221681356
0.148447359289
0.148678942938
0.148942730326
0.14922578365
0.149499992475
0.149773396465
0.150065133217
0.150319974249
0.150546134775
0.150770875503
0.151001696169
0.151240689259
0.151486043544
0.151735927888
0.151990817217
0.152252268456
0.152521273269
0.152797838404
0.153080703241
0.153367386739
0.153655039287
0.153941530535
0.154225842344
0.154507346194
0.154784818801
0.155055885462
0.155316587623
0.155561341626
0.155784167075
0.155981021567
0.156151594507
0.156298793462
0.156428274318
0.156552767288
0.156693003634
0.15686544314
0.157064850402
0.157277713972
0.157508774441
0.157726243063
0.157910992931
0.157973686
0.15792217911
0.157783900212
0.157590335985
0.157351146867
0.157072763886
0.156783377967
0.15650148492
0.156229610799
0.155978755694
0.155777189789
0.155654091824
0.155595662498
0.146004426751
0.146014447564
0.146033411063
0.146050888616
0.146072507748
0.146104222274
0.146133028324
0.146166766912
0.146212395898
0.146254860029
0.146306306763
0.146391593963
0.146484434823
0.146575298784
0.146658923118
0.146745274972
0.146843606301
0.146956988676
0.147068130336
0.147180787952
0.147301357984
0.147436442017
0.147586326565
0.147755864055
0.147957535659
0.148165047352
0.148398039332
0.148643308729
0.148905872144
0.149185671477
0.149468985888
0.149755840051
0.150011987407
0.150250698767
0.150476657219
0.150703917668
0.150936647767
0.151176844059
0.151424228081
0.151677477547
0.151936719873
0.152203027727
0.152477042106
0.152758483029
0.153045942614
0.15333705841
0.15362940966
0.153921438537
0.154212588949
0.154502445643
0.154789651646
0.155071157464
0.155341776045
0.155594798919
0.155824227356
0.156026834525
0.156201873959
0.156348959438
0.15647121435
0.156592667608
0.156749802834
0.156969536877
0.157242090221
0.157540797666
0.157842890567
0.15817504536
0.158439017513
0.158474109271
0.158378917531
0.158182982884
0.157910378225
0.157574159212
0.157194945955
0.156803094609
0.15641547197
0.156045061194
0.155721379782
0.155471679962
0.155317722084
0.155247676346
0.145930882313
0.145943447192
0.145965469723
0.145983002289
0.146005232032
0.146038638263
0.146067592004
0.146101343532
0.146143755548
0.146202368576
0.14625861131
0.14634321082
0.146436782114
0.146521654903
0.146598180033
0.146687384255
0.146790894552
0.146896465415
0.14700053764
0.147110180722
0.147230440305
0.147363730618
0.147512342928
0.147677864699
0.147888209606
0.14810811821
0.148327289956
0.148589074704
0.148855930381
0.149144390113
0.149427112739
0.14970612812
0.149951880866
0.150174470657
0.150399565679
0.150629317212
0.150864057239
0.151105555087
0.15135449656
0.151610610225
0.151874099079
0.152145459848
0.152424844041
0.152711705044
0.153004483789
0.153300827002
0.153598734011
0.153897409018
0.154196840864
0.154496715478
0.154795432405
0.155089220661
0.155371636674
0.155634878982
0.155872785926
0.156082254173
0.156259908221
0.156397138999
0.156494161814
0.156603580074
0.156787534278
0.157089174167
0.157464982148
0.157867509495
0.158275076711
0.158679968805
0.159005966461
0.159155604497
0.158998675981
0.158722159294
0.158338730963
0.157870395257
0.15735162636
0.156816284532
0.156285538986
0.155793177097
0.155379453354
0.155065949208
0.154862880133
0.15476793478
0.145848529625
0.145861310429
0.145884389006
0.145907897147
0.145937860104
0.145963751606
0.145992037293
0.146027451994
0.146061175272
0.146126012125
0.146195806324
0.146280777988
0.146374535403
0.146457128836
0.146532124915
0.146619712679
0.146725073632
0.146825523723
0.146924349171
0.147029734789
0.147150012079
0.14728441162
0.147438272215
0.147601801218
0.14779907522
0.148042894198
0.148272640364
0.148529972341
0.148796000619
0.149063672417
0.149362243162
0.149636500199
0.14987166762
0.150088685655
0.150314692695
0.150546511218
0.150783270317
0.151026322906
0.151276629772
0.151534908304
0.151802254349
0.15207882587
0.152363977206
0.152656791124
0.152955555337
0.153257962662
0.153562484403
0.153869079033
0.154178269068
0.154489831419
0.154801879996
0.155109898356
0.155406243244
0.155682077865
0.15593080882
0.15614889039
0.156326935414
0.15643846863
0.156488115746
0.156574379756
0.156818816392
0.157254034478
0.157766645193
0.158293731287
0.158803691272
0.159260705211
0.159633505526
0.159901908027
0.15981485538
0.159467049397
0.158921098632
0.158267071881
0.157549584179
0.15681418641
0.156091832532
0.155442594478
0.154908289042
0.154500348276
0.154226385741
0.154090988539
0.145755647347
0.145765813453
0.145781924021
0.145812694713
0.145854422125
0.14587751274
0.145905477396
0.145944822986
0.145976593192
0.146036396667
0.146116572343
0.146204003024
0.146296572464
0.146378621573
0.146459995688
0.146548338885
0.14665002738
0.146745198552
0.146840259885
0.146941606405
0.14705738583
0.14718793968
0.147353366065
0.14753343256
0.147719163492
0.14796064594
0.148201771767
0.148445737911
0.148733493854
0.149008182009
0.149287451955
0.14953787413
0.149766932774
0.149992078771
0.150220457555
0.150454306235
0.15069327241
0.150938342099
0.151190379782
0.151450163922
0.151720323892
0.152001997921
0.152293526298
0.152592875237
0.15289825436
0.153207645648
0.153520024665
0.153835987616
0.154156479075
0.154481352815
0.154808381881
0.155132279365
0.155444713593
0.155736042166
0.155998646952
0.15622854794
0.156398061825
0.156442120882
0.156456151196
0.156539728647
0.156900352271
0.15752021573
0.158200189917
0.158867643231
0.159493143207
0.160019847838
0.160418044281
0.160694173995
0.160767249475
0.16045710211
0.159737528047
0.158810889292
0.157799438724
0.156785977396
0.155796228321
0.154936823139
0.154244215216
0.153710867048
0.153359170812
0.153185717235
0.14565177602
0.145658942469
0.145664872578
0.145700291555
0.145741022763
0.145770925254
0.14580242868
0.145846311287
0.145884350642
0.145941370185
0.146025558606
0.146113812657
0.146203816858
0.146281442082
0.146370299836
0.146467883859
0.146564687025
0.146655285421
0.146747584302
0.146846827707
0.146957541451
0.147079924598
0.147239870966
0.147450055117
0.147642389065
0.147860093143
0.1481208363
0.148370200594
0.148636998182
0.148918045183
0.149190973117
0.149433070203
0.149654673026
0.149884092827
0.15011581847
0.150352112642
0.150592985212
0.15083951673
0.151094076889
0.151356393964
0.151628595188
0.151914083867
0.152211936949
0.152518637515
0.152831473014
0.153148867065
0.153470520777
0.153797526914
0.154131009039
0.154470689363
0.154813783804
0.155154438144
0.155484789315
0.155793932338
0.156069945905
0.156299065008
0.156406929407
0.156423297853
0.156420614834
0.156524289002
0.157094928684
0.157956886449
0.158837123686
0.159664150698
0.160443731591
0.161047735066
0.161465460801
0.16171708252
0.161963799779
0.16175240683
0.160836039909
0.159566948112
0.158095437522
0.156715001459
0.155337165224
0.15419807114
0.153315795666
0.152630904682
0.152209640037
0.152005513171
0.14553825266
0.145546552643
0.145558911493
0.145581008937
0.145615340976
0.145649314339
0.145685228843
0.145730776591
0.145780211746
0.145836771647
0.14592302041
0.146011411571
0.146099548324
0.14617448141
0.146260670464
0.146367242443
0.146464830909
0.146554378558
0.146645136205
0.146743240172
0.146851378422
0.146967810187
0.147119116251
0.147340256524
0.147551791666
0.147761346218
0.148026367679
0.148284590848
0.148537942128
0.148815309566
0.149065258906
0.149298722405
0.149529458679
0.149763996835
0.149999468696
0.150238329693
0.150482351512
0.150730569602
0.150985653168
0.151250725261
0.151526284657
0.15181512078
0.15211825898
0.152432328039
0.152753549548
0.153080322627
0.153412996121
0.153752947733
0.154101098694
0.154457049554
0.154816646318
0.155173931085
0.155523528786
0.155853462935
0.156144423644
0.156364319618
0.156382691627
0.156369127479
0.156389343243
0.156565551713
0.157476843247
0.158698809113
0.159804034994
0.160761418032
0.161690465068
0.162278421412
0.162638943363
0.162820273029
0.162906478585
0.162816701769
0.162338667602
0.160585961628
0.158407454272
0.156600017883
0.154610023053
0.15310187994
0.152050391495
0.151170400559
0.150687161475
0.150456356102
0.145411558516
0.145420639502
0.145443885364
0.14545426876
0.145480744383
0.1455157433
0.14555507106
0.145604439151
0.145668211183
0.145722953648
0.145809031544
0.145897480746
0.145984832006
0.146060746036
0.146146126565
0.146254893077
0.146353230857
0.146443213951
0.146533490564
0.146630243857
0.146736745289
0.146851412526
0.146991709316
0.147203443268
0.147445778119
0.147662274467
0.147906684562
0.148191157091
0.148455065388
0.148695377258
0.148930153723
0.14915997805
0.149394154571
0.149631886169
0.149871042446
0.150113035177
0.150358631045
0.150609662759
0.150866355416
0.151132090273
0.151410681031
0.151703564519
0.152011619436
0.152332449948
0.152662480439
0.153000282249
0.153345789458
0.153700801504
0.154066290385
0.15443976188
0.154814929429
0.155187463618
0.155556145383
0.155905497319
0.156183314221
0.156312655141
0.156327814147
0.15628661921
0.156369917006
0.156887342583
0.158198852537
0.159964807671
0.160899724877
0.161299856023
0.161744236655
0.162265772315
0.162661277551
0.16290137849
0.16299826453
0.162953173558
0.162852357989
0.162129188359
0.158236362402
0.156409070054
0.153442792676
0.151481518668
0.150427202104
0.149151553231
0.148661416715
0.148427077562
0.145269197419
0.145276816473
0.14529614365
0.145308922009
0.145331775432
0.145368611395
0.145409123948
0.145456652396
0.145534262206
0.145597288768
0.145682114143
0.145771398916
0.145859295655
0.145939247086
0.146025929833
0.146133907281
0.146232116398
0.146323203734
0.146413611844
0.146509319108
0.146613624789
0.146727520867
0.146861845512
0.147060804016
0.147317765527
0.147552228014
0.14777934199
0.148049259094
0.148326449721
0.148566029527
0.14879006771
0.149014742059
0.149249782999
0.149490228817
0.149732133178
0.149975533314
0.150223058552
0.150474853238
0.150733643154
0.15100050964
0.151280638408
0.151577299591
0.151890625803
0.152217326136
0.152554582629
0.152903996076
0.153266578637
0.153642024133
0.154026551068
0.154414780905
0.154804959384
0.155193821772
0.155581487786
0.155966631271
0.156249948446
0.156284475691
0.15625592507
0.156202502689
0.156356519086
0.157458945185
0.158730314961
0.159679056573
0.16055198132
0.161158373786
0.161557688175
0.161986098248
0.162332946198
0.16252279217
0.162543682704
0.162361793574
0.16180232557
0.160429161749
0.15998406367
0.158906623422
0.150997840693
0.147988447848
0.148326270776
0.146200142624
0.146000352425
0.145831537038
0.145114224179
0.145120386263
0.145139240785
0.145151147336
0.145172971195
0.145210014416
0.145250890233
0.145293200591
0.145369998116
0.145449237936
0.145538846172
0.145630796734
0.145720835997
0.145809184546
0.145897284619
0.146003824673
0.146101791269
0.146194857054
0.146285878751
0.146380988846
0.146483365475
0.146594826843
0.146724588909
0.146910013587
0.147161040591
0.147427352841
0.147657881068
0.14790627253
0.148169564997
0.148402794463
0.148621763323
0.148852419193
0.149091331311
0.149334638751
0.149580237941
0.14982654826
0.150074481617
0.150327260019
0.150586372487
0.150854490252
0.151135598759
0.151433285844
0.151750605834
0.152084321458
0.152429688441
0.15279250238
0.153174763093
0.153572587654
0.153975165807
0.154378492087
0.15478400938
0.155189931102
0.155590000288
0.155968661274
0.156279899464
0.156290971115
0.156210575175
0.156116960993
0.156254497957
0.157101149974
0.158226210658
0.159198696734
0.16002474049
0.160635275382
0.161065657589
0.161429711876
0.16168492609
0.161767696602
0.161646473766
0.161287211821
0.160515227028
0.159163083002
0.157518882493
0.153835542765
0.150720020108
0.151419218877
0.150484357519
0.140388343541
0.142403473058
0.142669726385
0.144949173324
0.144953502484
0.144966880007
0.144979344635
0.14500558689
0.145041956385
0.145084663876
0.145124280431
0.145198147456
0.145286378416
0.145379886293
0.145473652787
0.145563765637
0.145663020998
0.145756838921
0.145861535868
0.145959884313
0.146057015955
0.146149398143
0.146244501092
0.146345493893
0.146453939065
0.146579227582
0.146753611702
0.146996285577
0.147278728519
0.14752942316
0.147767107995
0.148007655268
0.148228639646
0.148443329962
0.14867549537
0.148915676096
0.149161407002
0.149410545317
0.149660933191
0.149912051734
0.150165055712
0.150424803109
0.150692418445
0.150972673054
0.151272217224
0.151592073052
0.151929445706
0.152272750676
0.15263834611
0.153050170246
0.153490988099
0.153920062712
0.154338337058
0.154764774089
0.155195498777
0.155619059344
0.15600066786
0.156271417391
0.156279191128
0.156141312186
0.156022843335
0.156089025167
0.156736636779
0.157751147787
0.158676699003
0.159407308892
0.159940339593
0.160300267297
0.160528999241
0.160612905299
0.160509817905
0.1601823265
0.159591388814
0.158614247767
0.1570747669
0.154968395753
0.152166421778
0.14960550807
0.147647555884
0.143688229918
0.143471494851
0.14342455229
0.140629296692
0.144776430867
0.144779302935
0.144786694113
0.144800157652
0.144830583861
0.144865234744
0.144908701894
0.144951232119
0.145018907885
0.145111038339
0.145206345116
0.145300587345
0.145388470146
0.145490376867
0.145597140909
0.145703106569
0.145802286718
0.145904030738
0.146001136923
0.146097843715
0.146198910096
0.146303607794
0.146424445026
0.14658868022
0.146816585373
0.147088945843
0.147362544819
0.147604340455
0.147833906363
0.148047839505
0.148254526022
0.14848507861
0.148727818989
0.148969423326
0.149222713236
0.149477037847
0.149729609374
0.149984847891
0.150246172107
0.150516104069
0.150794987386
0.15109045536
0.15140737776
0.151748952221
0.152110712728
0.152492264198
0.152913266744
0.153359381176
0.153812502376
0.154273074495
0.15475180368
0.155251230428
0.155763519004
0.156223843848
0.156551510489
0.156221769213
0.15600116598
0.155979743306
0.156148414055
0.156673401156
0.15738739914
0.158074544208
0.158614781517
0.158978891362
0.15917247252
0.159207877869
0.159073617115
0.158736266732
0.158156081276
0.157286496066
0.156071986088
0.154346477286
0.152036351952
0.149206925935
0.146074822834
0.143039026627
0.139882981047
0.138155202223
0.136301555972
0.131099809521
0.144596381245
0.144598635164
0.144603836134
0.144620474753
0.144650349034
0.144681144936
0.144720138334
0.144768726202
0.144829874345
0.144922588613
0.145018757652
0.145113317511
0.145200655592
0.14529987683
0.145416945455
0.145527855528
0.145629648853
0.145733844605
0.145836449183
0.145937555418
0.14604175112
0.146143378167
0.146259254812
0.146414834828
0.146627912693
0.146886443211
0.14716166285
0.147413829932
0.147626851379
0.147833303867
0.148045052084
0.148266084513
0.148508315252
0.148754982029
0.149013478025
0.149271919623
0.149526183874
0.149783514837
0.150046916256
0.15031870427
0.150599475559
0.150893196647
0.151213941829
0.151567213128
0.151949568821
0.152343493481
0.152762816402
0.15321347375
0.153695025747
0.154216016512
0.154787783395
0.155409973403
0.156111753063
0.156879457389
0.157868610547
0.157536818939
0.155971902953
0.155554148107
0.15609858592
0.156507909934
0.156884172113
0.157284852301
0.157589937814
0.157733608772
0.157705835015
0.157503834497
0.157110750148
0.156495302459
0.155617797046
0.15443078277
0.15288035168
0.150868102665
0.148236409778
0.144957286294
0.141167910715
0.137069912271
0.132495777856
0.127396328539
0.122247551446
0.118730020302
0.14440598807
0.144407849483
0.14441342363
0.144435669036
0.144463687166
0.144490174624
0.144522156152
0.144574956043
0.144628234228
0.144719508614
0.14481661294
0.144911793508
0.144999979486
0.145099182527
0.14522042417
0.145336449768
0.145442613209
0.145549840764
0.145655169997
0.145760774307
0.145870579133
0.145971623791
0.146081355534
0.146229360487
0.14642901837
0.146672765914
0.146943930272
0.14719887063
0.147422021904
0.147613488336
0.147823955962
0.148044562879
0.148276050513
0.148509391201
0.148766777042
0.149039469066
0.149300065651
0.149562595067
0.149826467702
0.15009864758
0.150383023942
0.150682392865
0.151012238484
0.151386474781
0.151779777405
0.152179541986
0.152603623493
0.153077269114
0.153617835123
0.154214768171
0.154906333489
0.15562166932
0.156510931528
0.157223951281
0.157599479804
0.157349327379
0.156392468734
0.155783678298
0.155986598483
0.156122986111
0.156212093514
0.156316526316
0.156341771396
0.156218673879
0.155924928263
0.155445419783
0.154756496952
0.15382522661
0.15261041739
0.151062037289
0.149120050737
0.146722076261
0.143685821189
0.139814287942
0.135082387056
0.129343792658
0.12195492921
0.11148614573
0.0941797607402
0.0545053483821
0.144199377249
0.144200565334
0.144208468557
0.144238240966
0.144264517671
0.144287693831
0.144315767473
0.144367760552
0.144413281693
0.144500849505
0.144598942544
0.144694806831
0.144784168287
0.144883428014
0.145006166968
0.145126554633
0.145239674857
0.145350347885
0.145456846083
0.145565626378
0.145681451515
0.145785274511
0.145887770117
0.146028316889
0.146216670014
0.146444399666
0.146703932678
0.146945518655
0.147182110915
0.147382213025
0.147581633703
0.147790862008
0.148024205357
0.148265596167
0.14850402122
0.14877282732
0.149043274429
0.149312459054
0.149584562828
0.149858559328
0.150143998015
0.150454848817
0.15080525282
0.151193286026
0.151586520808
0.151988569438
0.1524348058
0.152960898258
0.153577429379
0.154220785879
0.155048905838
0.155621578683
0.156130449985
0.156648160949
0.157130036028
0.157236023289
0.156544913655
0.155897016221
0.155678894188
0.155527008416
0.155347155172
0.155145363343
0.154863509268
0.154443415725
0.153852733458
0.153066253442
0.152054176182
0.150779760085
0.149197946896
0.147253068992
0.144875846481
0.141979680513
0.138454692389
0.133996609726
0.128266895582
0.120918377108
0.111044823059
0.0967240882137
0.0740877382484
0.0379236566183
0.14396803047
0.143968659582
0.143978658316
0.144015613659
0.14403956258
0.144063789699
0.144090098963
0.144137193204
0.144178428639
0.144264857092
0.144364446119
0.14446103423
0.144551522802
0.144650295117
0.144772234754
0.144894151629
0.145016461876
0.145131672829
0.145239360217
0.145350153206
0.14546961352
0.145580493461
0.145677012385
0.145808786699
0.145988000236
0.146201113135
0.146446055715
0.146672660568
0.146895824851
0.147114222434
0.147324381535
0.147526102418
0.147733955605
0.14797291559
0.148225390706
0.148485567124
0.148758582762
0.149031022657
0.149308504853
0.149590613749
0.149886216409
0.150209330662
0.150577357511
0.150967229594
0.151362636357
0.151781373417
0.152263131702
0.152849395032
0.15356410622
0.154131478184
0.154717877806
0.155268197936
0.155707868695
0.156136005227
0.156446452264
0.156435598118
0.15599126373
0.155449728526
0.155034782653
0.154649380722
0.154216749547
0.153723648688
0.153135978749
0.152408313111
0.151504860326
0.150394622617
0.149043157597
0.14740924631
0.145442660738
0.143080913758
0.140244871865
0.136832038214
0.13270882573
0.127656254348
0.121194805878
0.112725546456
0.101471916671
0.08598874117
0.0636683981873
0.0337323654118
0.143704593077
0.143707595787
0.143717767239
0.143753114177
0.143779779267
0.143811799634
0.143840802657
0.143885767088
0.143931681428
0.144011332296
0.144111782177
0.144208991479
0.144300678671
0.144398621084
0.144518116083
0.144637269059
0.144762850058
0.144886845758
0.144999330498
0.145113057233
0.145232889936
0.145353067083
0.145455758848
0.145570490346
0.145742405607
0.14594313374
0.146172965494
0.146387300101
0.146593577139
0.14681361434
0.147035614056
0.147252560247
0.147447967493
0.147662263129
0.147906359937
0.148170784678
0.148446206112
0.148724951242
0.149002520219
0.149292725021
0.149599431341
0.149939071778
0.150312695813
0.150702251453
0.151107704791
0.151553025266
0.152069262941
0.152666879968
0.153236669624
0.153842976727
0.154388338886
0.154809982081
0.155193269773
0.155519335807
0.155700300152
0.155627185737
0.155251303307
0.154701304356
0.154117953934
0.15350276531
0.152817601319
0.152044370771
0.151157739334
0.150121694023
0.148901125561
0.147462003967
0.145766269136
0.143768503668
0.141413348643
0.138631841603
0.135336154932
0.131412007711
0.126706530071
0.121013599273
0.113988320253
0.104973319409
0.0931127489034
0.077381053672
0.056003171328
0.0294786855298
0.143414616723
0.143422517231
0.143432045575
0.143457746517
0.143492066097
0.143531850165
0.143567021666
0.143615402225
0.143671910847
0.143742929402
0.14384061098
0.143937617698
0.144030529838
0.144127894709
0.144245124951
0.144362275346
0.144483735217
0.144615427452
0.144736243186
0.144854447235
0.144974977271
0.145105159155
0.145224814729
0.145337343638
0.145485893505
0.145673100238
0.145888761195
0.146091917094
0.14628011101
0.146491476761
0.146714656674
0.14694954616
0.147148569923
0.147346418159
0.147566988301
0.147818413222