/*--------------------------------*- C++ -*----------------------------------*\
| =========                 |                                                 |
| \\      /  F ield         | OpenFOAM: The Open Source CFD Toolbox           |
|  \\    /   O peration     | Version:  v1806                                 |
|   \\  /    A nd           | Web:      www.OpenFOAM.com                      |
|    \\/     M anipulation  |                                                 |
\*---------------------------------------------------------------------------*/
FoamFile
{
    version     2.0;
    format      ascii;
    class       volScalarField;
    location    "916";
    object      alphak;
}
// * * * * * * * * * * * * * * * * * * * * * * * * * * * * * * * * * * * * * //

dimensions      [0 0 -1 0 0 0 0];


internalField   nonuniform List<scalar> 
6400
(
0.911654232457
1.48758331557
2.38027565743
3.0247547862
3.63864322954
4.24419085217
4.97232853342
5.78111964171
6.33975590906
7.14943701651
8.48835166732
9.51064420019
10.3961094321
11.3631899737
12.5097661655
13.7210722151
14.8514968645
15.9226032351
16.8385419368
17.454485666
17.8890945742
18.4924816299
19.4512126992
20.7246644248
22.0939001517
23.3589272989
24.4623726187
25.5053239094
26.5806271543
27.7035613294
28.8187798435
29.7522589045
30.4276339647
30.9504437314
31.3719394372
31.7127722991
32.2118682363
32.8859911949
33.2858726276
33.4921935826
34.0231160825
34.9884068293
35.9332633877
36.5124083117
36.7545596414
36.7539826686
36.5742148012
36.2533324986
35.8040689349
35.2446438045
34.5061149216
33.4008740612
31.8947717196
30.0780714885
28.3329556445
26.6564682471
24.5080329976
21.7212307672
18.8149918216
16.2037353711
13.5705695073
10.8365125022
8.38213696577
7.68603384774
10.041148921
14.2423533692
16.8542045343
16.2884744398
14.0792331709
12.3209942761
11.3893683202
11.6220546456
12.251837685
12.1980493717
14.4071319686
13.8982131937
15.8803290111
9.77317170724
12.850169278
4.79746648023
3.1838504981
2.58442284745
3.24373465359
4.53911224931
4.58974481976
4.64341565044
4.97905655383
5.53404609808
6.30086555747
7.26261728581
8.40085670015
9.54115095454
10.569931258
11.5630552907
12.5850669358
13.7434276346
14.966305498
16.1320391096
17.2699974089
17.7323694452
18.0085493299
18.6025287776
19.5536696315
20.8211526113
22.2856572549
23.5068728508
24.5869510032
25.6601330235
26.7463661067
27.8426132267
28.9355327836
29.9372376208
30.606091743
31.1204650562
31.5662724468
31.8472600742
32.3805568933
33.0795807087
33.4515696264
33.5602625653
34.069359574
35.4001036321
36.5508174496
37.0566441089
37.2532006181
37.2023908053
36.960828131
36.5973955405
36.0371080555
35.3561058932
34.6637551629
33.9197544797
32.5458001122
30.2997376852
28.6312380561
26.801140018
24.2776598278
21.5466814732
18.8005560894
16.0602251151
13.4382723251
11.0891017206
8.73061539416
8.17535387461
10.3690569188
15.2902171541
18.6160877607
17.0912969003
14.7192720629
12.6535315589
11.9044244482
12.3560287799
13.5568446282
13.0178242285
12.9520997616
12.5070755491
11.3880846313
9.60573909667
8.11435377253
4.19346972439
3.34381100892
2.98771056174
3.52051924065
3.90663604821
4.57788084334
5.10353543968
5.15625509407
5.41833781615
6.19224722026
7.23198961381
8.38293890194
9.54220086511
10.6122294837
11.6040635109
12.4825339086
13.5456551185
16.0581858073
18.077973692
18.7097195054
18.4868049499
17.8150714247
18.3291527819
19.6512426555
20.9631334096
22.2311311338
23.5010474222
24.6664330259
25.7415113756
26.8088159807
27.8974482105
28.9645570368
30.0370903183
30.6953855773
31.0321393476
31.7078095184
32.0101484806
32.3212527378
33.1524107832
33.5816080355
33.7598967294
34.2836501723
35.2208624541
36.1353304786
36.7137226798
36.9807270902
37.0195340053
36.8725593012
36.5591800598
36.0827369342
35.4612350759
34.6893856975
33.6550342274
32.2376997503
30.6389575626
28.9431726011
26.7509933539
24.2065874492
21.5228930247
18.7933370607
16.0974444782
13.5206316799
11.0449883587
9.25384037693
9.4635810062
12.6234006516
16.3251558628
18.0797174589
17.9001564105
16.1442961071
14.3780801705
13.653965045
13.5608815928
12.9013368833
12.3441329194
12.4075606529
12.1641296149
11.2688044738
9.69004028361
7.25336604218
7.47172451841
3.4720333999
5.62432873815
3.94259373251
4.1369448151
4.88855305602
11.9991934796
10.4492745441
5.89428024323
6.1417917064
7.21401353681
8.39825307206
9.57991005477
10.6243809648
11.6102603866
13.2808406707
15.3443158413
17.1050498256
17.8036520894
17.2929987249
17.0453019836
17.6702717157
18.5507685823
19.6542635864
20.9537406976
22.298386496
23.5922827398
24.7795764725
25.839833067
26.9170445939
27.952511713
29.1072088887
30.0324003405
30.894423363
31.2047304987
31.3773007767
32.0657388042
32.4629079827
32.8835173433
33.4487810846
33.9674530575
34.5804746945
35.3907804234
36.1948940214
36.7692628577
37.0732260596
37.1466027988
37.0256512002
36.7314605822
36.2727050972
35.6539872284
34.8545491282
33.8084689984
32.4704946035
30.8913500452
29.0416760707
26.806425066
24.2525449859
21.5560510149
18.8368055997
16.1907219264
13.7324877201
11.6990545629
10.7045335505
11.0553599129
12.6725270616
16.8265492761
19.7752115477
19.6694787965
17.8421759832
15.3789396869
13.697365496
12.8664445906
13.0542056442
14.5539837589
14.5569938402
13.2953962027
13.227072829
16.5907457626
12.9534167782
10.9387298078
5.90676123883
7.7384284345
4.84497052943
5.16901220038
6.86350289602
11.9021439587
8.59487162027
6.47060948115
6.67107023378
7.42480565219
8.52850504643
9.71927141304
11.184436138
13.3547487062
14.4760571987
15.0924994077
15.4896564675
15.778243882
16.2768227845
17.077244667
17.7822713642
18.6081360882
19.7393354097
21.0374790198
22.3887568204
23.7039861243
24.8725885736
26.0230758079
27.0076492442
28.1643233491
29.142458544
30.4714024585
30.8406708849
30.9363459752
31.423304575
31.7512037513
32.3097585392
32.9649016006
33.6039860652
34.2053668193
34.8503541693
35.5918614715
36.3198275514
36.8800511101
37.2091578747
37.3141297604
37.2200722795
36.9479053418
36.5082132081
35.8991779349
35.0972765279
34.0589730833
32.7534177323
31.1695203124
29.2507989007
26.9540147685
24.3785811426
21.6933399723
19.0370942127
16.5481714115
14.4249618971
12.994633334
12.582739171
12.561420347
13.3804643747
16.7103385283
20.0149401868
21.0395992446
19.6892092057
16.8147401419
14.2336276312
13.8406114942
16.131098795
17.0302599221
16.0281627412
15.155971572
17.8948096838
20.9593216863
16.2061623694
15.3105533957
10.174366212
9.37225248782
6.04442644358
6.51135754647
12.1969639302
11.7156188318
7.25648461829
7.1217828795
7.32862168002
7.78086775272
8.74411789189
11.2562965315
14.3195815657
14.9055997663
14.7993997987
14.3324296638
14.4675524318
15.1996359357
16.3218974453
17.0227683127
17.6981693736
18.6722662841
19.8619481097
21.178296885
22.4705267652
23.7891776085
25.1394707357
26.1118854093
27.3810648434
28.2133183186
29.7192641062
30.3096334607
31.258462028
31.0717880058
31.0188379732
31.5707262954
32.3449335517
33.1085282715
33.8066759448
34.4584539525
35.1239372163
35.8299496753
36.5088126963
37.0533199074
37.3977025159
37.5292404632
37.4616407849
37.2140426552
36.7977670407
36.2084149331
35.4224957666
34.4031177248
33.1121319337
31.5069413068
29.5372980484
27.2133201551
24.6607188442
22.0535998601
19.5565289727
17.3553052673
15.6821037874
14.8202866097
14.7672683491
14.015564485
15.4108476006
18.8599296645
21.5431020591
22.4457119139
21.2882613063
17.7982102648
15.4815684032
17.1893867067
19.3613782109
18.8245908542
17.8500218417
17.9524641876
22.6298919314
24.2580058447
19.1773777218
18.97988181
12.3291645932
9.38095302116
7.33693235912
6.88045198791
12.1995215625
8.87781010403
7.60961331128
7.76350135609
7.94782968581
8.69033921562
9.30029586751
13.8759573775
14.7190203384
14.92019754
13.967353145
13.4932489451
14.132477647
15.5507211436
16.2413332537
16.7623857809
17.6952473333
18.7630577981
19.9563193762
21.2682541028
22.6944398049
24.0616648397
25.1517972827
26.6905674136
27.4730671761
29.0513426342
29.5302564498
30.7368164001
30.8620463133
30.8908339148
30.9186231725
31.5640949828
32.4483574258
33.2878085474
34.032764223
34.7238802435
35.4104511333
36.1029935673
36.7543153201
37.2872652128
37.6419569638
37.795749556
37.7544970305
37.5353955074
37.1496052044
36.5910003983
35.8344070378
34.8402143217
33.5595812258
31.9407308037
29.9564584671
27.6610198734
25.2040564531
22.7676265329
20.5212299753
18.639287705
17.3304285711
16.6653918002
16.1937295285
16.0812001741
17.4989593411
21.7391869844
23.2250010479
23.0271129835
21.6558282927
19.2185834281
18.7570730424
21.1466600696
21.4818610366
20.6175898692
20.0243058563
22.0600786835
24.8949598235
26.4265364762
21.7749509909
20.6254276431
12.1259621368
9.20047649881
8.53412708967
12.4593611409
12.3901302289
8.16853272882
8.31470642887
8.5059819321
8.60773832277
9.23328004984
13.5623357816
14.558882692
14.8039717987
14.5417492658
13.0100975896
13.165469179
14.7610795142
15.6282794651
15.9218990688
16.6302611786
17.7058423983
18.8903030922
20.1199167232
21.4750449235
22.7686899766
24.3201730314
25.1984905691
26.6965519647
28.3781474823
29.1841379214
29.2908587076
30.3211454101
30.8731540879
30.5422909456
30.9386015839
31.7158378087
32.6116741137
33.4830016944
34.2736152072
35.0053055471
35.7167211093
36.4118144627
37.0525426409
37.5802506202
37.943748949
38.1178025313
38.1043607011
37.919083001
37.5721533498
37.0553301705
36.3400893264
35.3810025367
34.1228079324
32.5206942469
30.5802766368
28.3939574392
26.1212876632
23.9159396266
21.8945881115
20.2061948424
19.0464968947
18.4296670276
18.1966513951
18.3930543311
18.3750408035
22.571068562
25.3957077027
24.8055298481
23.8255167391
22.5923348182
23.0880969167
24.1895780535
23.3564179832
22.6070380256
22.8010175526
25.2286176557
25.9872318092
26.6577198249
23.7570080243
21.5968496727
11.5146874788
9.26416029693
9.2275059108
13.4840513535
11.5527571372
8.91356043258
9.08306608368
9.40836250837
10.4587058911
9.40326627842
14.3265315317
15.1185912138
14.8728759168
13.4982015989
12.7673084134
13.2872170416
14.7956699632
15.3820301163
15.8132519757
16.6243513213
17.6846754165
18.9252410994
20.2391040499
21.9317993325
23.3784640089
24.2826351999
26.2217224741
26.633730619
28.4890971606
28.8208295268
30.0927106213
29.8384307682
30.0506433144
30.4894698274
31.1127256193
31.9191036764
32.8085781118
33.6967946406
34.529804161
35.306480091
36.0489781129
36.7577247716
37.4011527091
37.9314115533
38.3051733487
38.5001285134
38.5181146378
38.3733909058
38.0743774334
37.6108684556
36.9511161971
36.045378296
34.8396772591
33.3085605643
31.4940017884
29.5110431412
27.4860196994
25.4728599237
23.5238388581
21.901817423
20.9316043803
20.6344564799
20.6961590658
20.7289901815
20.516063035
21.04237682
26.1029466929
27.1485490481
26.590652463
26.6976446031
27.2734451237
26.5667716903
25.3248114686
24.9964075937
25.9840295808
27.2850902815
27.2575099178
26.7493258782
25.7787834326
24.4265918319
11.1294945375
9.8103278247
10.3746492804
13.6042775161
9.8914247396
9.94793978018
9.8560403889
10.1521331473
12.9725795088
11.831193077
15.1589784482
15.4285816154
15.0022648708
12.9714386441
12.8432353876
14.374966969
14.9853823191
15.1607439131
15.7619427972
16.7328608241
17.7826453988
18.9672551689
20.1407380975
22.0281804289
24.196045694
24.2232144128
26.1442533872
27.6606307482
28.6732447356
29.6336781091
29.5874077743
29.9757805656
29.8334618281
30.4273011375
31.2769825016
32.1447201924
33.0339950165
33.9320480604
34.8018250996
35.6273789113
36.4104868981
37.1436698619
37.8000706819
38.3407304435
38.7295125639
38.9487890236
39.0033513676
38.907186326
38.6662851086
38.2690154958
37.6831608996
36.8599139808
35.755891765
34.3737760702
32.7860607565
31.091409557
29.2976130399
27.3010703352
25.2892382048
23.9049037168
23.4639311326
23.6304899726
23.8144179418
23.6345550499
23.0584815988
21.5765641031
20.6517528235
29.2603076864
31.4509403494
31.7525207661
30.9595383473
29.0209368866
27.7195787087
27.7787260309
28.9231763971
29.3847283395
29.3534974561
29.2592489616
29.729205163
29.9920493935
11.2633621143
10.7348712695
13.6516048659
13.8868285057
10.1622958159
10.7508042917
10.6297905087
11.0533125295
12.6457775987
15.1681545046
16.0532538914
15.7663120745
15.3246769297
13.1071585104
13.0159876401
14.8300702693
15.1052942329
15.147326829
15.7622438113
16.8235689394
18.0713104202
19.2889559822
20.2664301488
21.6423521321
24.3152155203
25.705400044
25.8590630785
27.7194387043
27.8315746831
29.613819598
30.3335313459
29.960014566
29.827279502
30.528902978
31.4645352172
32.378312413
33.2824510679
34.1929669879
35.0924222285
35.9670831967
36.8012702959
37.5711996211
38.2507131984
38.8097528695
39.2203154632
39.4709101118
39.5697918485
39.5307845659
39.3584555831
39.0421270221
38.5537746997
37.853749841
36.9200588479
35.7873203133
34.5331315783
33.1565880445
31.4479954634
29.2939712681
27.4063739331
26.7747903771
27.2621418801
27.8530128919
28.037753887
27.5964460708
26.5263914874
24.6157333118
22.0464625988
21.7884327022
33.241660871
37.5477105341
35.5013764124
32.3102973011
30.8357533969
30.9179071996
31.6033046261
32.1276339872
32.8925363134
33.8168095214
34.6256926843
35.4195425713
11.7470603338
11.6694716758
15.3312172746
14.7173177054
12.9962891782
12.0196028871
11.6381235141
12.4854988146
12.2768136665
16.1480910905
16.7794278607
16.1885405941
15.5326834943
13.8232805785
13.7656600463
15.2558722312
15.160579818
15.239957481
15.8511331201
16.8296968536
18.1628938768
19.7066133229
21.4580193273
21.7017657111
23.8068637505
26.005735295
25.7794613008
27.8851909771
29.0650807247
28.9977074467
29.6385432429
29.5618979986
30.0780472331
30.8189972921
31.7046259202
32.6307164298
33.5562656004
34.4857876152
35.4082599401
36.3237897111
37.2170935095
38.041422278
38.756052727
39.3410302594
39.7821318428
40.0746356238
40.228398568
40.2560647245
40.1624714516
39.9421007171
39.5781594686
39.0527574912
38.3773787511
37.6071362943
36.7576127032
35.6095962114
33.8546532902
31.754584108
30.3762983064
31.2844814049
33.6736320638
34.4079464361
34.5465359992
33.9440608078
32.6227609023
30.2259704867
26.688438346
21.8340122439
28.6041069869
38.6768777092
40.6101796407
36.7947367942
35.1254718005
34.9400654436
35.1359839717
35.6549890761
37.5184021946
39.0718522126
39.2984626788
39.7039131729
12.4301010196
12.3673663851
15.1583907971
15.2941018467
15.3543566983
13.2377608704
12.7713328605
15.2231975005
12.7654993095
17.0169210147
17.3348285671
16.6159710651
15.7282517409
14.5104748397
16.114026838
16.2762009902
15.4047567079
15.4724184146
16.0759580273
16.9277426377
18.0798010565
19.6758005923
22.5714615694
23.6033029197
23.3304570927
25.9908561833
27.1840549332
27.4717097098
28.9841998218
29.7870242446
29.8817824357
29.6002482442
30.2585502332
31.1167598107
31.9971223787
32.915823801
33.8499929127
34.8085785715
35.7681112589
36.7144267113
37.6552750533
38.5446649137
39.3150621678
39.9392174803
40.4210081785
40.7688748892
40.9915471138
41.0964934211
41.0898492378
40.9772586664
40.7647871843
40.4736101673
40.1548930631
39.8390302756
39.3594342669
38.3048519754
37.0481310337
36.0174449478
34.625563732
37.2483497812
36.524030894
34.6056061842
31.9760759138
28.9781518698
24.6050010041
19.2104004568
15.8799455874
0.904412191123
0.0381850514287
27.7031648824
36.8217669268
36.5442228509
32.1400175542
31.6388419809
33.8310864356
36.50990475
41.534412344
44.516784891
44.8948212987
45.2711047948
13.1618017369
13.1138368787
12.764738011
15.6777679179
15.9546199217
14.0896128393
13.7798697911
16.2726096828
13.5054516893
17.9287196345
17.8430653209
17.0547441997
16.0147276994
14.8791278822
17.2404820805
16.9359845991
15.9126159375
15.8904342694
16.4153220513
17.196117646
18.1156740396
19.509202217
22.9887750093
24.633606204
23.6300533057
25.9123266051
27.6227885843
27.0875115852
28.5610392551
29.414055245
29.2536931584
29.9027204167
30.6531243478
31.4637170257
32.3206397226
33.2464806852
34.1905346317
35.1496568881
36.1492356873
37.1522925207
38.138264611
39.083130768
39.9189574788
40.6020604051
41.1426749921
41.564284723
41.8730665909
42.0651930737
42.1498990073
42.151194046
42.1106499258
42.1148694925
42.2421031604
42.3915373691
42.0611006655
41.3433162513
41.7695969431
34.3680078527
26.6473548981
8.03957668693
6.62010534724e-10
1.34439427631e-13
4.65633882208e-16
4.75075950002e-17
3.77000897712e-18
1.06193546613e-18
1.24997794567e-17
1.27716880084e-16
1.44269702681e-15
3.7681914496e-15
6.25737560312e-12
1.64253047571e-09
1.49883501091e-06
0.00077637468138
1.96229443057
39.6646620262
43.2860667004
48.1736441674
51.6478246542
51.9750455989
14.0681623105
14.169575735
16.3311586903
16.3829835563
16.4734806919
14.8159737966
14.847604637
17.1903789262
14.5641128815
18.7363402026
18.337477997
17.5185751177
16.3798319791
15.3031833011
17.5580676879
17.2257732441
16.4081357802
16.3722537747
16.8050707339
17.5001948082
18.3300835289
19.4536454539
22.4554348677
25.3949902112
25.6858971105
25.3364397065
27.7651639751
28.8521847967
27.7133728145
28.2326291572
29.1697014543
30.1021491549
30.9809613991
31.826366409
32.6952291739
33.6067852864
34.5643172697
35.5510587067
36.5605513313
37.6144502175
38.6685579424
39.6729136279
40.5707008542
41.3232314374
41.946772025
42.4688242657
42.8864447028
43.1804351872
43.3532654224
43.4534755418
43.5983705738
43.9530642959
44.5615910988
44.9670883866
44.1981851524
42.268400291
27.4216191064
1.57901951312e-19
1.73675771991e-22
3.25579985895e-24
5.51880387629e-26
1.59672688972e-28
4.53754927483e-31
7.85441191082e-36
6.14374430014e-36
1.49155983818e-35
1.00542925834e-34
4.70937451223e-34
1.73964529559e-33
1.10551739901e-32
8.65595444919e-33
7.50951110019e-31
4.27416657797e-28
4.29644944191e-26
3.2602793461e-24
7.50763551904e-22
1.26377130568e-17
39.7461260152
55.7578870731
51.5899338402
14.9220855988
15.1178361277
17.9673134988
17.1291897622
16.6981159799
15.5341191242
15.8728625351
17.9886731875
17.9718960982
19.7446225957
18.9048575981
18.079273097
16.8341514788
15.8617945345
17.8935550825
17.4369442464
16.8643673101
16.8536693287
17.2055495054
17.8088429003
18.5889977182
19.6248431328
21.9668739665
25.6010239166
26.9623303617
25.142719232
27.1975158145
28.91735632
29.1507633993
28.5499722608
29.1877924209
30.2695235809
31.2957373636
32.2195867089
33.0732368131
33.9965397896
34.963395674
35.9811818001
37.0258102943
38.1142221236
39.2357213908
40.317412379
41.2781654865
42.0943372442
42.8185035018
43.4955118894
44.0743642713
44.4718789103
44.6816342038
44.8579056369
45.2208378866
45.9545551875
47.0308010272
47.0685343707
38.8919772374
15.79224181
8.7318306193e-26
3.53597001611e-28
1.02254528903e-29
1.48863850004e-31
1.20948732336e-34
2.01814550607e-37
1.42260002916e-38
0
0
0
0
0
0
0
0
1.97859403733e-42
6.67338807192e-40
9.98196613224e-38
5.79121708632e-35
8.08890900714e-32
4.3803509642e-27
6.65209173377e-23
5.18622551394e-16
61.6060785119
15.6136434888
15.8310136252
20.0537829983
17.7153275832
16.6858274729
16.1589048854
16.6125693756
18.1372272336
19.5413678013
20.8861167989
19.6221718288
18.7737579821
17.5341357981
16.6972920098
18.432602639
17.7907462923
17.386378002
17.3733667707
17.6402087812
18.1517270053
18.8525512815
19.8090548954
21.7415560657
25.4266409527
27.8926760318
27.3451800113
26.663851746
28.234008106
28.9561209926
28.64831345
29.5597421697
30.6531680013
31.727320395
32.6564404905
33.5389083168
34.4245927131
35.4088404323
36.4425545689
37.5294582868
38.6628546885
39.8378983952
41.0023994229
42.0597411111
42.9445478138
43.7729199393
44.6377441065
45.4192764282
45.92246136
46.1553497772
46.3911313428
46.9708560422
48.1288679876
49.3469271569
37.3817056638
0.105293383339
1.26416890894e-28
4.14592359159e-32
1.67644027196e-33
2.28577584441e-35
6.2682185733e-38
0
0
0
0
0
0
0
0
0
0
0
0
0
2.5494181911e-41
2.5334014114e-40
5.55376480291e-39
2.69294375531e-37
1.49545346044e-33
1.24476103697e-24
2.39947781957e-29
16.1399891205
16.349881888
22.0511638226
18.1587665104
16.8804544624
16.7216032575
17.3986398564
17.6342777856
20.4616777458
21.6979717697
20.3042563992
19.4755772417
18.4158730693
18.4802004196
19.1897405925
18.3820244211
18.0971761389
18.0784288305
18.1795258842
18.576776068
19.1652816373
20.0352680104
21.6882497281
25.2135048142
28.2431570359
28.9096824474
26.6413932677
27.291209566
27.9108580651
28.6898038426
29.8100480304
31.0594632452
32.1551616595
33.1390939794
34.0538771867
34.992281396
35.9179635265
36.9631049336
38.0761759786
39.2417664726
40.4982893109
41.7601844224
42.907414469
43.8218000727
44.7052077872
46.0521868298
47.6357942479
48.3629042177
48.0624360185
48.1714966209
48.873731266
50.2012275715
36.8658563963
6.68975576512e-23
1.00823382616e-27
4.52309546701e-39
4.57064400254e-36
7.45803142181e-38
0
0
0
0
0
0
0
0
0
0
0
0
0
0
0
0
0
0
3.9387711772e-40
2.66727078466e-39
4.91866846781e-37
95.2184509566
16.5740034235
16.7508781904
21.9168334796
17.6875257423
17.1158320016
17.1964772308
18.2803323528
17.7000645556
21.2450625517
22.4398022731
20.9366849473
20.1135301315
19.0995864382
20.5758023309
20.2195743223
19.1676422421
18.9124739181
19.1065833027
18.935707768
19.1669857881
19.5733032636
20.308556569
21.7680975484
24.9867329206
28.05102775
29.9349565947
28.992491177
28.3867071288
28.5685902136
28.8286888744
30.0089090738
31.5536128713
32.5664728556
33.6344670076
34.7464213309
35.5772673256
36.5104091802
37.5743141585
38.7213266989
39.9159598469
41.1773162461
42.5201557874
43.8123940708
45.0219800066
46.3106908154
47.9913424767
49.5210069426
50.1017730371
50.4309231162
50.6767658756
50.9793519058
40.3445107927
3.04223989327e-22
2.77695750808e-27
3.6498176523e-31
4.95715193927e-33
0
0
0
0
0
0
0
0
0
0
0
0
0
0
0
0
0
0
0
0
0
0
1.21195354161e-39
8.82124774967e-29
17.0515294333
17.2038430316
21.5794296322
17.4082968096
17.4051047535
17.573912912
19.0339484632
18.1752258475
21.937761
23.162655654
21.5504689876
20.7311898917
19.6546053326
21.3377527502
21.1594649505
20.0009579698
19.7059405817
19.9898309795
19.8346512255
19.9682159157
20.1695113652
20.6418140792
22.0048294369
24.8928006363
27.6943713289
30.1604698214
30.105449228
28.9751254772
28.2122994042
29.2178649651
30.3802451128
31.9018110098
33.2405958776
34.4589928244
35.5261041067
36.2756827772
37.1860124064
38.2668711862
39.4463730871
40.6923229517
41.9891356943
43.4248398715
44.985520215
46.6464006973
47.9645392813
49.0116510672
50.3847338328
51.6896735133
53.5982990531
54.6907794061
44.6130103334
2.77207215578e-21
3.68078260941e-27
6.34732089692e-31
1.30186820301e-33
3.15207334772e-35
1.05804402913e-37
0
0
0
0
0
0
0
0
0
0
0
0
0
0
0
0
0
0
0
0
0
2.03672868816e-40
2.694778085e-40
17.7529935171
17.9045101842
21.2891748088
17.6875512881
17.9312596516
18.0368398844
19.0750713679
18.8709347702
22.4480251773
23.8453553476
22.1835877917
21.380173451
20.3032131993
22.0109485733
21.9851206697
20.891317108
20.5322725373
20.834064033
20.7065492315
20.903449264
21.0160191354
21.124712624
22.4324963874
25.0044700682
27.4795815942
30.1473121337
30.6088813815
29.7746480034
28.7127219804
29.3639150681
30.8294111287
32.0506193847
33.3046842954
34.7078658591
36.3685345731
37.2583227971
38.0964960988
39.0716353777
40.2275594789
41.5516068546
42.9629083212
44.5327705197
46.5732716714
48.3865259735
49.2040760613
50.1815105524
52.1296970743
55.6923328819
61.4937514569
49.1778388493
7.91989648196e-22
1.31563386028e-28
5.44440057003e-33
1.78504026858e-36
1.12001703934e-38
2.27018377227e-38
3.48615515102e-39
0
0
0
0
0
0
0
0
0
0
0
0
0
0
0
0
0
0
0
0
0
1.50540594766e-41
6.83560606208e-41
18.820279956
18.9359679637
21.5968339281
18.5798742658
19.0283275901
18.8532886178
19.3981332805
20.1165429435
22.5425809943
24.362864526
22.8647104522
22.0841091286
21.042994144
22.7769340553
22.8293133715
21.9218996072
21.5155513327
21.8036078629
21.5802181168
21.9216378818
22.1466563302
21.8099237987
22.9453311669
25.329188165
27.4688210586
29.9391118475
30.7924553682
30.4407310392
30.4988169303
30.1269208172
31.1009197764
32.6303610923
34.4096795965
35.2469159472
36.6683658015
38.2125082546
39.1330070211
40.1560292973
41.2348053235
42.4992018901
44.0435258468
46.1776278559
48.6973034856
49.9329897284
50.3801807026
51.915510566
56.0636733527
62.2817612284
55.664688479
33.544235565
1.99325631604e-30
1.86097655644e-35
1.27334150735e-37
0
0
0
0
0
0
0
0
0
0
0
0
0
0
0
0
0
0
0
0
0
0
0
0
0
0
0
20.318473842
20.2179447109
22.4080392963
20.3708972876
20.8845597766
20.0581657557
20.3074361419
21.9162920932
22.7789348761
24.9694248187
23.6433241599
22.8524023822
21.8483162892
23.5747451444
23.66579245
23.0502345065
22.9380084394
23.0669719283
22.543095501
23.0182453616
23.5488497757
22.7742717727
23.34441008
25.7452566761
27.6698264124
29.7582753434
30.8717283189
30.5717819998
31.6138164196
31.6094378708
32.0168296202
32.3674291381
34.1969102153
36.2885131535
37.5575304266
38.9563823458
40.1671994348
41.2440223324
42.4398458725
43.7310305029
45.589307777
48.5246031723
50.8001349239
51.6118010132
52.559079092
55.8958698631
62.8384132587
58.8773893263
34.2748594758
1.77881646887e-32
3.10974663594e-35
1.42391333431e-37
0
0
0
0
0
0
0
0
0
0
0
0
0
0
0
0
0
0
0
0
0
0
0
0
0
0
0
0
21.895030692
21.4099374046
23.2663196392
22.7429430974
22.5097945464
21.4325967678
21.286802648
22.9881434532
22.0950228298
25.4375075587
24.5017330654
23.6755016612
22.706371719
24.3718263186
24.4337969295
23.984341443
24.8654166029
24.5735761395
23.6059321983
24.2019180161
24.7975473567
23.9896178361
23.4885172276
25.6748613234
27.7700716276
29.5949156148
30.8375319348
30.5603851877
31.9410239908
32.808628743
33.3445464526
33.0570410446
34.2601008313
36.2032914707
38.38317253
40.1063973985
41.4210488067
42.4927827631
43.6854569329
45.2917732962
48.053056444
51.1839231714
53.0773442131
54.2572741484
56.6267390627
61.4446433983
60.3695647281
33.3609505721
4.78961743119e-32
6.93398174956e-35
2.42841417686e-37
0
0
0
0
0
0
0
0
0
0
0
0
0
0
0
0
0
0
0
0
0
0
0
0
0
0
0
0
0
22.6406960547
22.2056926423
23.7814140032
23.7195539963
23.4906886295
22.7027987353
22.3799591705
24.2665110176
23.0713477719
26.0305417695
25.3650646208
24.5258797509
23.6104168021
25.1785156952
25.1864836421
24.7402756668
25.7719462949
25.6109130675
24.5900771825
25.3205258734
25.4613926697
24.7163466801
24.3437480797
24.5522106127
27.1049332926
28.926759079
30.4672727977
30.3656839849
31.8768559086
33.2553203448
34.4129981628
34.7003692948
34.6130015823
36.1634118357
38.5236904261
40.9096338851
42.7842149626
44.1188018825
45.3046919947
47.6959038268
51.1190682612
53.9866858815
55.7035239674
57.6647700284
61.3386420024
58.0195726089
35.3359220107
24.9528623773
2.27928168128e-34
6.49151222886e-37
0
0
0
0
0
0
0
0
0
0
0
0
0
0
0
0
0
0
0
0
0
0
0
0
0
0
0
0
0
0
22.645856795
22.6464673035
24.0443243414
23.8577993267
24.0637452472
23.6527750978
23.3047032636
25.5181504135
24.6366586826
26.7689872093
26.2669028633
25.3861434701
24.5549634139
26.0098888247
25.9839733086
25.5964230489
26.5009130181
26.4811185515
25.5801382501
26.2348445796
25.3126669251
25.3493800938
25.2264365774
25.4467056657
26.2054303284
27.3095702831
29.3683559875
29.8715948198
31.2850105354
33.1039972751
34.7147702049
35.9229621763
36.0000419342
36.8319701681
38.6481757317
41.0598652703
43.6683850218
45.8110984231
47.6043945027
50.8075885648
54.2939797206
56.7652770194
58.2739188519
60.28805638
56.0808982812
37.7510781196
39.8415389171
7.9172119056e-34
1.77352952901e-36
0
0
0
0
0
0
0
0
0
0
0
0
0
0
0
0
0
0
0
0
0
0
0
0
0
0
0
0
0
0
0
22.7707921563
22.9031467488
24.2282214574
22.9222975042
24.244608953
24.1198798269
23.8757983504
26.0428749691
25.3815683008
27.4835633546
27.1722202015
26.2207119306
25.5446234646
26.8531878256
26.8040696021
26.5713568296
27.3248936163
27.4574860955
26.6979975095
27.5258925093
26.5320408665
26.8077342416
26.3608711281
26.6449588114
27.8138686477
28.4129858276
28.7141051819
29.2542122608
30.5696077469
32.7533670002
34.4260275228
35.9431552111
37.04982005
37.7616450826
39.7059676539
41.6486649083
44.3435782305
47.3464459804
50.4075907119
54.2104263256
57.4171901152
59.2975341179
59.3712282543
57.3729528419
57.4704958082
35.1339847283
6.64354003956e-33
1.5124343987e-35
0
0
0
0
0
0
0
0
0
0
0
0
0
0
0
0
0
0
0
0
0
0
0
0
0
0
0
0
0
0
0
0
23.3096544013
23.4080711379
24.4057851891
23.1769039723
24.3722120436
24.310938689
24.2184934078
26.1419772287
25.8429297013
27.9682797603
28.0228590746
26.9690465202
26.5644137501
27.6552042818
27.5586793533
27.4959009713
28.1037281092
28.5032190139
27.8605405509
28.8453388111
28.180674797
28.6838022462
28.5516749143
27.558532499
28.4961641719
29.3429763515
29.5553437215
28.6958720426
29.7283032383
32.2898532284
34.2058662612
35.3227787133
36.5992020895
37.7889261912
39.8850886309
42.1392731652
45.0798041198
48.8582899802
53.3905372852
57.7709050256
60.3922466609
61.0777060685
59.5714799332
54.8782665351
35.4799613824
48.0093923155
1.05392374702e-34
4.27368422573e-37
0
0
0
0
0
0
0
0
0
0
0
0
0
0
0
0
0
0
0
0
0
0
0
0
0
0
0
0
0
0
0
0
24.0101949313
25.029690499
24.7001868837
23.9439367054
24.73729861
24.528295587
24.5145498907
26.180190532
26.231080243
28.0916625024
28.8101557485
27.5900476853
27.4269680853
28.2603878269
28.2158622424
28.1442689945
28.3384685527
29.4147576317
29.0522607492
29.9608139253
29.9247912439
29.8893904558
29.799524042
29.4330727946
28.7217021587
29.3006467277
30.1550683801
27.8180464125
28.7071868295
31.1664195252
33.811997917
35.3646886364
36.7112819415
37.3034938683
39.3004330706
42.0070194758
45.3826102589
50.2138646031
56.3947997238
61.2876069552
63.0516274286
60.2557485294
58.8689532842
62.0063802898
42.0502765058
7.1435907606e-34
1.82321618445e-36
0
0
0
0
0
0
0
0
0
0
0
0
0
0
0
0
0
0
0
0
0
0
0
0
0
0
0
0
0
0
0
0
0
24.4651598829
25.534238594
25.1854638936
24.5865418918
25.2139954696
24.875877304
24.841309235
26.2584729252
26.5772430838
27.9251925
29.4612609918
28.1322555903
27.8678304149
28.6887485862
28.8697236213
28.661615225
28.4586583991
30.0076846283
30.2297927485
30.887986191
31.0725638252
31.3155024173
30.2946558036
30.3013242669
29.751391079
30.5770629366
31.0996139365
28.8512514938
27.5499291234
29.4724412316
32.4141423893
34.8689004987
36.4232799241
37.1941823245
38.227174956
41.0124433851
44.8160785392
51.0909923127
59.2447372273
64.8904349568
64.8709734157