/*--------------------------------*- C++ -*----------------------------------*\
| =========                 |                                                 |
| \\      /  F ield         | OpenFOAM: The Open Source CFD Toolbox           |
|  \\    /   O peration     | Version:  v1806                                 |
|   \\  /    A nd           | Web:      www.OpenFOAM.com                      |
|    \\/     M anipulation  |                                                 |
\*---------------------------------------------------------------------------*/
FoamFile
{
    version     2.0;
    format      ascii;
    class       volScalarField;
    location    "803";
    object      p;
}
// * * * * * * * * * * * * * * * * * * * * * * * * * * * * * * * * * * * * * //

dimensions      [0 2 -2 0 0 0 0];


internalField   nonuniform List<scalar> 
6400
(
0.144096902696
0.144100224766
0.144109748822
0.144128475467
0.144156536691
0.144193957008
0.144240700299
0.144297867646
0.144366661462
0.144449036804
0.144551364565
0.144677064042
0.144823618621
0.144990936749
0.145180969393
0.145396401022
0.145639141691
0.145909324007
0.146204771748
0.146520030146
0.146849721263
0.147195685065
0.147565771182
0.147968056447
0.148407457651
0.14888386632
0.149393847335
0.149934714649
0.150505915646
0.151107936207
0.151741039067
0.152403130601
0.15308818035
0.15379001656
0.154505659185
0.155232506702
0.155970985973
0.156726423758
0.157497239659
0.158274820525
0.159059680995
0.15986291328
0.16068989031
0.161532496864
0.162379393436
0.163222314524
0.164054899463
0.164872051538
0.165669074438
0.166441781162
0.167186536584
0.167897551256
0.168565524817
0.169179551991
0.169736824462
0.170240390472
0.170685706686
0.171063647845
0.171372001452
0.171617591295
0.171807101752
0.171944989908
0.172036545691
0.172098264177
0.172150186537
0.172205379409
0.172260000386
0.172301037101
0.172323525393
0.172331073758
0.172327885488
0.172316590844
0.17229873491
0.17227719385
0.17225312885
0.17222878861
0.172205985841
0.172189825445
0.17217880106
0.172174033012
0.14409211476
0.144095661972
0.144104368389
0.144122651849
0.144152198057
0.144191059886
0.144238271977
0.144293686932
0.144360434479
0.14444255073
0.14454452153
0.144669223035
0.144816068365
0.144984311276
0.145174484811
0.145388552464
0.145630498623
0.145901314846
0.146198003815
0.146513712525
0.146841501009
0.147185440846
0.147554995916
0.147957377995
0.148397280938
0.148874436847
0.149384793765
0.149926293203
0.15049844532
0.151101223822
0.151734507535
0.152397085882
0.153083103762
0.153785108257
0.154500885552
0.155228053377
0.155966588941
0.156722627754
0.157494697363
0.158273368287
0.159058141101
0.159862218757
0.160692255496
0.161537225874
0.162385449479
0.163229828929
0.164063989688
0.164883019716
0.165681862376
0.166455260686
0.167199538538
0.167911683962
0.168583736899
0.169199878098
0.169758780023
0.170264733835
0.170708803932
0.171084161205
0.171391897265
0.171636437434
0.171823307536
0.171960117834
0.172051963778
0.172114915192
0.172168443725
0.172224286658
0.172278715225
0.172317140094
0.172336519188
0.172341481367
0.172336032628
0.172322588938
0.172302286061
0.172277758657
0.172251719353
0.17222614001
0.172203523192
0.172186637616
0.172175276239
0.172171332115
0.14407855706
0.14408437185
0.144092367406
0.144109235084
0.144137805427
0.14418081071
0.144231573777
0.144285423471
0.14434912974
0.144429535605
0.144530656359
0.144654821074
0.144801974034
0.144971043549
0.145161261916
0.145372003525
0.145611542911
0.145886710302
0.146186268606
0.146500528675
0.146824267523
0.147163345676
0.147532075736
0.147936721284
0.148377632692
0.14885482823
0.149366420014
0.14990972992
0.150483492997
0.15108761006
0.151721800179
0.152385524001
0.153073571102
0.153775484069
0.154490325264
0.155219084936
0.15595819883
0.156714017214
0.157487622322
0.158269695297
0.159060407177
0.159869146186
0.160699951903
0.161545481425
0.162395569298
0.163242437113
0.164079797707
0.164902276918
0.165704731329
0.166482298305
0.167230782762
0.16794508541
0.168616520755
0.169236049018
0.169801583316
0.17030941708
0.170751783021
0.171125386797
0.171431449965
0.171673908783
0.17185881478
0.171992765345
0.172084210974
0.17215116996
0.172210853866
0.172268466976
0.172317629111
0.172349589643
0.172363621087
0.172363662173
0.172353453415
0.172334791661
0.172309454518
0.17228049345
0.172250699977
0.172222487482
0.172198497964
0.172180333376
0.172168624778
0.172164179524
0.144058911578
0.144064932594
0.14407194642
0.144087567649
0.14411284444
0.144155809359
0.144219087136
0.14427320492
0.144332361894
0.14440978968
0.144509479066
0.1446333487
0.14478120012
0.144950375126
0.145140462985
0.145355066054
0.145598376252
0.145870716039
0.146162032809
0.146465609217
0.146785612499
0.147128254482
0.147499525662
0.147905011371
0.148347136775
0.148825848963
0.149339345959
0.14988489547
0.150460979576
0.151067000976
0.151703247397
0.152368627532
0.153058376336
0.153763113169
0.154476080561
0.155202717616
0.155945238828
0.156702340878
0.157475561337
0.158262149828
0.159060946353
0.15987633895
0.16071056826
0.161558528395
0.162411779721
0.163262631586
0.164104599371
0.164932042243
0.165739727713
0.166522707049
0.167276149458
0.167994254047
0.168669426243
0.169294470061
0.169864635689
0.170374015624
0.170816147663
0.171188450294
0.171492367452
0.17173205492
0.171913865716
0.172046111834
0.172141438031
0.172216767654
0.172281350538
0.172335434094
0.172378216308
0.172402303761
0.172407517055
0.172399008535
0.172380769164
0.172354322448
0.172321625044
0.172285093442
0.172248071954
0.172215647911
0.172189663735
0.172168030775
0.172152859735
0.172146553516
0.14402798328
0.144029580956
0.144038183609
0.144054331312
0.144082432273
0.144123242476
0.144181772925
0.14424055389
0.144303269026
0.144381255604
0.144479829254
0.144603631604
0.144752783693
0.1449273424
0.145124682064
0.145339844767
0.145576122216
0.145835522293
0.146116262068
0.146417106558
0.146738465253
0.147082739312
0.147455784367
0.14786306495
0.148306893834
0.148787537839
0.149303159293
0.149851528729
0.150430622943
0.151039710667
0.151678163566
0.152346979497
0.153040575462
0.153743791271
0.154456068397
0.155182070874
0.155923741706
0.156683720216
0.157461395999
0.158254242238
0.159061209309
0.159884163226
0.160723802588
0.161576147995
0.162434151841
0.163290484469
0.164138544888
0.16497248435
0.165786948014
0.166576822783
0.167336857525
0.168060994547
0.168742209476
0.169373604011
0.169948778446
0.170460704048
0.170903458019
0.171275013453
0.171577168296
0.171814694276
0.171995194743
0.172129355362
0.172231442852
0.172313671116
0.172377494761
0.172428136749
0.172464361561
0.172478369446
0.172470952908
0.172449224286
0.172418635113
0.172380912001
0.17233685514
0.172288379805
0.172242070928
0.172203163157
0.172170552388
0.172140634925
0.172121427072
0.172114348713
0.14397219529
0.143972714529
0.143986446763
0.14400347876
0.144034799704
0.144078183827
0.144133392822
0.144193110364
0.14426098962
0.144341491015
0.144438798175
0.144563269705
0.144721359049
0.144904763337
0.145101429953
0.145310370805
0.145536749904
0.145787085866
0.146062890567
0.146361579719
0.14668134753
0.147026075799
0.147401127433
0.147810812832
0.14825697091
0.148739467894
0.149257929259
0.149809371978
0.150392563423
0.151005528898
0.151648359403
0.152319405672
0.153013229704
0.153719973566
0.154429985936
0.155153023949
0.155896608141
0.156661358728
0.157445144608
0.158245472924
0.159061159178
0.159892634422
0.160739498725
0.161598245247
0.162462784556
0.163326218591
0.164181942346
0.165023967088
0.165846820234
0.166645235713
0.167413714687
0.168146080388
0.168835414472
0.169474438773
0.170055595816
0.170571347371
0.171016240092
0.17138877146
0.17169128868
0.171929541171
0.172112532286
0.172252282962
0.172362251523
0.172445953549
0.172507553416
0.172553046484
0.172581088283
0.172582250921
0.172557647846
0.172517084753
0.172469251718
0.172415439601
0.172354402386
0.172290032897
0.17223079206
0.172180549988
0.172135699488
0.172096538845
0.172073361645
0.172063554022
0.143887429381
0.143894225991
0.143916192461
0.143941016681
0.143968872177
0.144013195401
0.144070494833
0.144132976465
0.144204857267
0.144288566773
0.144390310063
0.144519037283
0.144685158667
0.144867927009
0.1450600485
0.145261033729
0.145481136511
0.145728907507
0.146002534882
0.146296375319
0.146613570991
0.146959115698
0.147335994083
0.147747683537
0.148196558996
0.148683072642
0.149203150431
0.149758225897
0.150346352326
0.150966357347
0.151613450283
0.152285109306
0.152979947571
0.153683348282
0.154393366804
0.155117805491
0.155865233949
0.156635875759
0.157426893399
0.158235657173
0.159060796434
0.159901856315
0.160757646292
0.161624779377
0.162497753088
0.163370048204
0.164235131312
0.165086951519
0.16591995695
0.166728771982
0.167507740585
0.168250541748
0.168950041849
0.169598382632
0.170187284868
0.170709149474
0.171159089413
0.171536200293
0.171843376806
0.172086967017
0.172276616484
0.172423970464
0.172538192912
0.172621390228
0.172685331477
0.172724730767
0.172736384411
0.172716768092
0.172668979181
0.17260461387
0.172534182147
0.172458377477
0.172374604573
0.172289425659
0.172210839106
0.172141757869
0.172080105084
0.17203264268
0.172006184007
0.171993933993
0.143786799825
0.143799631466
0.1438246498
0.143859624169
0.143890540678
0.14393714496
0.143993251908
0.144059170915
0.144136139828
0.144218349999
0.144329127081
0.144471155734
0.144635903138
0.144815348698
0.145000866848
0.14519490876
0.145414121407
0.145662324378
0.145931246494
0.146220289194
0.146535505162
0.146881385687
0.14725989931
0.147674635664
0.148127162738
0.148617036223
0.149141355368
0.149697117292
0.150292551304
0.15092202614
0.15157145551
0.152241144371
0.152934607957
0.153636735165
0.15434684199
0.155076465019
0.155830028007
0.156607487457
0.157406528255
0.158224610019
0.15906009965
0.159911919912
0.160778299976
0.161655781424
0.162539168415
0.163422225365
0.164298532307
0.165162045697
0.166007178303
0.166828479253
0.167620167977
0.168375732902
0.169087700913
0.169747723922
0.170347260672
0.170879088495
0.171339019834
0.171726455492
0.172043850455
0.172296945849
0.172495053656
0.172648135398
0.172763955167
0.172849171551
0.172910914785
0.172948164202
0.172937759379
0.172887907012
0.172809510355
0.172714951324
0.172615555422
0.172511040744
0.172399057015
0.172285108945
0.172176449576
0.17207964232
0.172000834897
0.171946719094
0.171919280297
0.171907663945
0.143675389864
0.143691743481
0.143717310556
0.143748229063
0.1437868988
0.143842477084
0.143899610721
0.143967851946
0.144053573058
0.144141927851
0.14425134229
0.144402702093
0.144570669669
0.144744810875
0.14492461666
0.145118583399
0.14533743022
0.145582808062
0.145847360193
0.146133741273
0.146447619875
0.146793048397
0.147171723305
0.147588607721
0.148048722229
0.148540943714
0.149069985064
0.149633635492
0.150231308573
0.150862817927
0.151518301124
0.152193682356
0.152878481793
0.153577349117
0.154292799979
0.155029653923
0.155790672482
0.156575964028
0.157383872604
0.158212166839
0.159059029843
0.159922896256
0.160801535452
0.161691328197
0.162587189592
0.163483068062
0.164372676843
0.165250030994
0.16610953489
0.166945676273
0.167752566795
0.168523513213
0.169250777626
0.169925838041
0.170540430586
0.171088108836
0.171565192093
0.171970130142
0.172302803307
0.172567765704
0.172775564897
0.172934969483
0.173053090657
0.173134958881
0.173184280112
0.17321189251
0.173193818282
0.17310530787
0.172986267359
0.172852719071
0.172715674856
0.172576425572
0.17243094313
0.172275944071
0.172119511823
0.17198573778
0.171891583381
0.171835763416
0.171810423735
0.171802250268
0.143551312102
0.143569842877
0.143599587921
0.143629697023
0.143671582454
0.143727911897
0.143787934394
0.143856900757
0.143943717743
0.144049740889
0.144165013447
0.144317199585
0.144486548119
0.144657496797
0.144832027256
0.145029061082
0.145251329161
0.145491993607
0.145751302673
0.146035447445
0.146349173997
0.146695355033
0.147074659071
0.147490743193
0.147957477214
0.148458491646
0.148985527304
0.149556175365
0.150159570917
0.150795846549
0.15145511619
0.152129449078
0.152814135301
0.153511670508
0.154232110779
0.154977114256
0.155746784498
0.156541012633
0.157358730675
0.158198166684
0.159057501814
0.159934803641
0.160827424404
0.161731525128
0.162642021772
0.163552975461
0.164458230511
0.165351886997
0.166228346723
0.167082031286
0.167906971574
0.168696397801
0.169442576314
0.17013732243
0.17077325286
0.171344897335
0.171848140396
0.17227794478
0.172629302963
0.172908675772
0.173133053023
0.173304683614
0.173424884288
0.173494153864
0.173517767029
0.173508002294
0.173470513702
0.173378324874
0.17320649821
0.173018225498
0.172834698362
0.172659739335
0.17247808165
0.172262963455
0.172026223517
0.171842462393
0.171737509785
0.171689282664
0.171670682358
0.171668424702
0.143409142767
0.143426804281
0.143459309135
0.143494860103
0.143545673709
0.143597191579
0.143658518694
0.143730576526
0.143810440001
0.143926486066
0.14405690682
0.144210455156
0.144380668045
0.144552885064
0.144727194675
0.144925473349
0.145149586953
0.145387545002
0.145643066527
0.145924160146
0.146237114103
0.146585575756
0.146970341517
0.147386881322
0.147849735134
0.148363555062
0.148899481898
0.14947063634
0.150076405713
0.150709114514
0.151375589244
0.15205375084
0.152737837621
0.153438477784
0.154165384776
0.154918928804
0.155698062174
0.156502316864
0.157330898425
0.158182468049
0.159055412907
0.159947605811
0.160856004389
0.161776487126
0.162703906127
0.163632414018
0.164555992769
0.165468817345
0.166365254334
0.167239642985
0.168085992786
0.16889766867
0.169667397665
0.170388013169
0.171053562239
0.171659211873
0.172198383277
0.172660270597
0.173034221941
0.173335155968
0.173596809003
0.173793119971
0.17391441724
0.17395815979
0.173934355149
0.173859889541
0.173758263046
0.173651715387
0.173468543951
0.173213948691
0.17297218261
0.172769525728
0.172562879759
0.17225779081
0.171868405149
0.171609774747
0.171509395194
0.171490728041
0.171490153638
0.171502313407
0.143244658369
0.143258822035
0.143285290224
0.143330265471
0.143392270311
0.143445036202
0.143508334646
0.14358762273
0.143666656843
0.143780076716
0.143922346256
0.144080282103
0.144250892361
0.14442614541
0.144608243252
0.144809921234
0.145033313003
0.145268816753
0.145522317421
0.145800652822
0.146110161486
0.146457063191
0.146851650176
0.147280281024
0.147738789392
0.14825324294
0.148798339672
0.149368695594
0.14998403838
0.150622806251
0.151283206692
0.151959136895
0.152646876742
0.153356503271
0.154092080941
0.154854804469
0.155644150526
0.156459499295
0.157300122168
0.158164936695
0.159052653251
0.159961220913
0.160887273756
0.161826314721
0.162773094981
0.163721899607
0.164666878725
0.165602243475
0.166522244475
0.167421100197
0.168292885881
0.169131428495
0.16993056136
0.170684888855
0.171389975197
0.172040115005
0.172624893818
0.173131473787
0.173535858673
0.173867441438
0.174220272789
0.17446731669
0.174591360904
0.174593223295
0.174495858472
0.174325381986
0.174113491107
0.173929063139
0.173722510241
0.173415997428
0.173118695609
0.172923146007
0.17275436104
0.172315979422
0.171565208265
0.171191326506
0.171158944379
0.171233224084
0.171270627675
0.171321199365
0.143057411093
0.1430686432
0.143086091813
0.143136283429
0.143199963172
0.143261461658
0.143329620806
0.143417083002
0.143504691522
0.143617943079
0.143765820548
0.143927158413
0.144097992398
0.144272583342
0.144465065602
0.144677657815
0.144901255214
0.145135014581
0.145387905307
0.145665215273
0.145971257403
0.146312111837
0.14670819134
0.147158107645
0.147624161675
0.148128688175
0.14868546815
0.149262980824
0.149871746733
0.150515186596
0.151178814425
0.151854636409
0.152546490278
0.153265034057
0.154010825455
0.154784027879
0.155584549771
0.156412002149
0.157265931817
0.158145380107
0.159049189567
0.159975587668
0.160921166009
0.16188105079
0.162849814399
0.163821949633
0.164791868077
0.165753767328
0.166701630844
0.167629466304
0.168531535022
0.169402590148
0.170238359857
0.171035690086
0.171790260702
0.172492842255
0.173136764275
0.173731246343
0.174179819714
0.174550187701
0.175199207154
0.175508186339
0.1755911803
0.175489190747
0.175246846181
0.174910554097
0.17451509323
0.174168740859
0.173888272517
0.173542586076
0.17316428199
0.173069967459
0.173204543577
0.172538135756
0.171002397689
0.170445102276
0.170649436207
0.170959319818
0.171017986009
0.171162957243
0.142848515824
0.142861453182
0.142884285298
0.142923596761
0.142981939488
0.143049399274
0.143123776211
0.143216094316
0.143317267425
0.143434351556
0.14358697959
0.143751611433
0.143924290645
0.144099137432
0.144295482249
0.14451847417
0.144747148536
0.144983378859
0.145237683085
0.145515761758
0.145820724574
0.146156428089
0.146548333341
0.147011081721
0.147494101219
0.147997393081
0.148558122597
0.149145289108
0.1497515232
0.150392945455
0.151053678605
0.151731686509
0.152434490947
0.153164006938
0.153920895659
0.154705699401
0.155518693357
0.156359453839
0.157227767659
0.158123237659
0.15904480232
0.15999070898
0.160957675573
0.161940685126
0.16293418946
0.163932992034
0.16493191198
0.165925070186
0.166905934983
0.167868149215
0.168806306206
0.16971674706
0.170597897949
0.171448445757
0.172259154744
0.173018492282
0.173771141491
0.174579802834
0.174933387324
0.174855285173
0.175045307729
0.175270779398
0.175349356335
0.175260450019
0.175046666954
0.174749548366
0.17440767749
0.174069478948
0.173760098868
0.173470332641
0.173314721572
0.173522296749
0.174281343361
0.174118694943
0.169020403212
0.168417798019
0.169762023981
0.170767349209
0.17071953494
0.171117543641
0.142613037997
0.142627759495
0.142661282494
0.142690795803
0.142742730806
0.142812217702
0.142891775487
0.142990463607
0.143107823202
0.14322848349
0.143384881116
0.14355332197
0.143729611506
0.143908277157
0.144107888612
0.144336478425
0.144570795581
0.14481221334
0.145070061291
0.1453502169
0.145656261136
0.145990814489
0.146374682614
0.146836523624
0.147345234213
0.147858335768
0.148408907232
0.149011512501
0.149628329028
0.150256958449
0.150913159627
0.151597366372
0.15231040056
0.153051812301
0.153821236057
0.154619001883
0.155445579511
0.156301085735
0.157185298279
0.15809807919
0.159038985278
0.160006346791
0.160996791293
0.162005232596
0.163026238109
0.164055234055
0.165087722058
0.166117711476
0.167137708741
0.16814058716
0.169121629204
0.170079817639
0.171016728035
0.171929989947
0.172793973175
0.173596123715
0.17426733665
0.174470756359
0.174692020117
0.174869287861
0.174985203953
0.175138467361
0.175198127889
0.17511071049
0.174898878217
0.174597853267
0.174242414059
0.173870786076
0.173514892479
0.173187212026
0.172924182539
0.172756229238
0.17249625495
0.170846465479
0.169272492832
0.169647095237
0.1711781542
0.172197823963
0.169827821597
0.171314562754
0.142346292058
0.142360697232
0.142393786652
0.142425911324
0.142475924658
0.142547642748
0.142630479472
0.142730837289
0.142863846545
0.142997150626
0.143157279134
0.143330581151
0.14351246838
0.14369803826
0.143902878432
0.14413507479
0.14437414555
0.144621670071
0.144884418926
0.145167785226
0.14547577015
0.145811672713
0.146190458838
0.14664581631
0.147172039845
0.147705246581
0.14825030015
0.148847624489
0.149475742285
0.150111231483
0.150764990309
0.151452575494
0.152174703014
0.152928314458
0.153711207128
0.154523012874
0.155364478723
0.15623598779
0.157137674594
0.158069462686
0.159031319202
0.160022083421
0.161038342886
0.162074681422
0.163125809677
0.16418845901
0.165259639982
0.166333068412
0.167399085855
0.168449504673
0.169481341725
0.170497469387
0.171502900998
0.172497518068
0.173377346025
0.173810241197
0.174069659209
0.174324707903
0.174540353262
0.174703487872
0.17479636084
0.174865824577
0.17485573196
0.174723980144
0.17447797613
0.174144066706
0.173751368002
0.173329384875
0.1729024152
0.17248475472
0.172064134938
0.171615355778
0.171049583672
0.170141643082
0.169474572441
0.169590943268
0.170354798735
0.170606116853
0.171637718657
0.173228639652
0.142050100962
0.142063903214
0.142098835362
0.142132300221
0.142183685653
0.142256827203
0.142342611064
0.142441432729
0.142578916753
0.142730345454
0.142899508213
0.143079620362
0.143269256652
0.143466081091
0.143677434454
0.143913522496
0.14415744341
0.144411811518
0.14468039764
0.144968063628
0.145278806883
0.145616481884
0.145992731521
0.146439755634
0.146968938696
0.147531825398
0.148089099323
0.148675161032
0.149299830901
0.149939541247
0.150598649666
0.151294407662
0.15202666099
0.152792616605
0.153589773104
0.154417013542
0.155274589468
0.15616347293
0.157084097342
0.15803667246
0.159021313786
0.160037365525
0.161081856044
0.162148936806
0.163232958927
0.164332430538
0.165447192032
0.16657091675
0.167690635132
0.16879656549
0.169887815805
0.170972845215
0.17206905256
0.173105583314
0.173356916789
0.173608008996
0.17388073531
0.174117999133
0.174300127694
0.174421636736
0.174474302306
0.17446557877
0.174373917997
0.174175557454
0.173871129026
0.173477858267
0.173017945506
0.172513759751
0.171983719647
0.171440383633
0.170853920145
0.170205532559
0.169500990447
0.168726423479
0.168089386765
0.168004982934
0.168622432782
0.169759176299
0.171838750183
0.174138947112
0.141727286575
0.141739523175
0.141770297035
0.141808545175
0.141866271068
0.141941341848
0.142031934369
0.142131318373
0.142269668397
0.142432948266
0.142610746033
0.142797502757
0.142993736284
0.143205579043
0.14342757835
0.143668210992
0.143917993331
0.144180967192
0.144456876331
0.144750107115
0.145064665683
0.145404571633
0.145779938561
0.146220239269
0.14674562713
0.147328854107
0.147910258956
0.148495275126
0.149111053386
0.149749422063
0.150415629882
0.15112056613
0.151863857185
0.152642546263
0.153454940161
0.154299321539
0.155174872253
0.156082530621
0.157023785014
0.157998849803
0.15900816701
0.160051807916
0.16112723635
0.162228038818
0.163346994553
0.164485175977
0.165649640284
0.166833717071
0.168014541005
0.169183206906
0.170339875293
0.171506028901
0.172605852093
0.172882805495
0.173145191615
0.173394152784
0.17363046491
0.173822236639
0.173951322572
0.174008720171
0.173987209287
0.173884478707
0.173691022727
0.173395096731
0.172996236496
0.172505309148
0.171938031593
0.171310241821
0.170634324486
0.16991707724
0.169139083828
0.168265944199
0.167312524222
0.166331766922
0.165484524577
0.165075191897
0.165328183835
0.166335180645
0.168599622683
0.170609261727
0.141381699976
0.141392641409
0.141417661428
0.141461276568
0.141524585759
0.141601480577
0.14169625119
0.141800789174
0.141937644149
0.142108128316
0.142292446521
0.142484746151
0.142684865449
0.142907168698
0.143145953374
0.143394447887
0.143651407892
0.143924396166
0.144210689549
0.144511837237
0.144832138572
0.145175008438
0.145551036544
0.145986667422
0.146503179018
0.14708854856
0.147695621808
0.148296980882
0.148912671159
0.149550495037
0.150218726734
0.150931149745
0.151685533993
0.152476334951
0.153305271619
0.154168500114
0.155063084375
0.155991444924
0.15695532836
0.157955288526
0.158991532291
0.160064560255
0.161172878273
0.16231108324
0.163472691509
0.164658903632
0.165875550299
0.167114003647
0.168359812601
0.169609357993
0.17084135272
0.172023650793
0.172340159248
0.172619955728
0.172878340262
0.173105030553
0.173289808528
0.173415033748
0.173465666005
0.173432607671
0.173309830911
0.173093526636
0.172778427222
0.172358895492
0.171834684054
0.171212134305
0.170500897822
0.169710243389
0.168845932834
0.167906980606
0.166885532655
0.165716879618
0.164391415659
0.162977712203
0.161566276775
0.160287557311
0.159208956917
0.158164562313
0.156653515097
0.153615354889
0.141015055851
0.141025907202
0.141049552556
0.141098082489
0.141162267272
0.141238620048
0.141332796381
0.141444269789
0.141579569594
0.141754903264
0.141944976894
0.142142829863
0.142347937035
0.142575205094
0.142828876212
0.143089430959
0.143356067821
0.143639053897
0.143937077492
0.14424942118
0.144578926989
0.144926434774
0.145304520706
0.145738377093
0.14624699668
0.146827837792
0.147448715957
0.148069750433
0.14868951332
0.149329228344
0.150005775266
0.15072440582
0.151487907527
0.152292579215
0.153139003537
0.15402200795
0.154937558175
0.155888519223
0.156876935532
0.157903882151
0.158969752494
0.160075325938
0.161221303161
0.162405460944
0.163618504499
0.164851427433
0.166109941431
0.167400069166
0.168725955203
0.170097407259
0.171384661007
0.171731310511
0.172026532941
0.172306752782
0.172540987031
0.172718798819
0.172831753238
0.172867791252
0.172815875027
0.172668646089
0.172421214925
0.172070059759
0.171611725032
0.171043078655
0.170363465301
0.16957536692
0.168682603097
0.167687636554
0.166588987499
0.165378613875
0.164045105399
0.16250136164
0.160673212031
0.158579933937
0.15620872113
0.153479373437
0.150192603071
0.146012575889
0.140806461691
0.139436085722
0.140624022938
0.140635468117
0.140660402936
0.140714103892
0.140778564191
0.140853554437
0.140944503028
0.141060779264
0.141192787319
0.141371290626
0.141567293577
0.141771015652
0.141982418821
0.142216023087
0.142479913997
0.142753004903
0.143031480663
0.143325364553
0.143634445357
0.143959274514
0.144301594178
0.144656605417
0.145037944775
0.145472466225
0.145975671363
0.146549857592
0.147175005925
0.147810729939
0.14844603932
0.149092234101
0.149776248727
0.15050354583
0.151274287401
0.15208794903
0.15294951006
0.153855442568
0.154795812777
0.155772141401
0.156786985105
0.157842814029
0.158941386301
0.160084304623
0.161276339242
0.162514567734
0.163776162612
0.165048085557
0.166345870091
0.167698905066
0.169147695669
0.17072057631
0.171091871301
0.171382105927
0.17167584403
0.171926428186
0.172107928684
0.172212035386
0.172231283131
0.172156810758
0.171981017545
0.171698611353
0.171305908416
0.17080001707
0.170178170596
0.169437641875
0.168576327646
0.167592737092
0.166484635714
0.165246770577
0.163868121939
0.162328528002
0.160594302182
0.158607525018
0.156195184731
0.153226468654
0.149575258851
0.144874333598
0.138315793911
0.128091528244
0.109017158442
0.0628820320875
0.14020061991
0.140212605617
0.140241055766
0.140300645453
0.140366337064
0.140440690154
0.140530732403
0.140648927286
0.140777016779
0.140956120606
0.141157784616
0.141367457333
0.141585367652
0.141825622465
0.142097861108
0.142383018044
0.142675878931
0.142982094591
0.143301873258
0.143638922563
0.143996567623
0.144362987291
0.144748478296
0.145185190131
0.145686400022
0.146253720008
0.146876327291
0.147516470808
0.148170945393
0.148837597138
0.149529076804
0.15026068382
0.151041812983
0.15186999396
0.152741927377
0.153665726664
0.154632927419
0.155637936065
0.156683325987
0.157770989959
0.158904749032
0.160092512788
0.161342634928
0.162637989484
0.163943507537
0.165254782895
0.166604425858
0.168047656395
0.169498365305
0.170522568467
0.170791054337
0.171026175051
0.171271940904
0.171461287831
0.1715623562
0.171567540055
0.171470782693
0.171265646424
0.170947060007
0.170511480288
0.169956214859
0.169278730165
0.16847610622
0.167544716945
0.16648007984
0.165276336742
0.163924899944
0.162412265522
0.160717088566
0.158806366072
0.156629773366
0.154118740145
0.151063667801
0.147161790236
0.142145587559
0.135446345858
0.12585127543
0.110946573395
0.0858321375937
0.044046535994
0.139733581848
0.139746043841
0.139777976153
0.139843940272
0.139910838915
0.13998835451
0.140079668314
0.140198230278
0.140326098517
0.140506989929
0.140714493798
0.140930111641
0.141154437209
0.141400935773
0.141679880453
0.141974843048
0.142284510703
0.142605552418
0.142936917563
0.143285978053
0.143659509463
0.144042615133
0.144434459451
0.144872787076
0.14537518121
0.145938195797
0.146556839626
0.147196472172
0.147859292019
0.148550388884
0.149264338982
0.150004801466
0.150784581209
0.151622674555
0.15251414449
0.153456009431
0.154447575221
0.155482597764
0.156560909776
0.15768483119
0.158860858252
0.160105711823
0.161420946518
0.162771837048
0.164130285631
0.165511114217
0.166970175729
0.168477972609
0.169711560429
0.170141946479
0.170388121105
0.170602206158
0.170783597907
0.170884868557
0.170882135451
0.170767340469
0.170535651532
0.170182993514
0.169706368578
0.169103594292
0.168372615545
0.167510827344
0.166514500445
0.165378278489
0.164094635424
0.162653001216
0.161038243554
0.159228337974
0.157191063459
0.15487930582
0.152224048889
0.149123014361
0.145428555445
0.140747895897
0.134567897902
0.126328104556
0.114932074169
0.0984943852241
0.0736849507693
0.0394504513595
0.139213936977
0.139228882776
0.139262608889
0.139329133109
0.139401136867
0.139487983483
0.139585400737
0.139708145484
0.139843581993
0.140022234573
0.140235060328
0.140456798288
0.140687714743
0.140940354948
0.141224982727
0.141525971263
0.141849003246
0.142188920788
0.142535268269
0.142898406307
0.14328684916
0.143690848285
0.144097841507
0.144535667361
0.145039169639
0.145600988543
0.146216703264
0.146856124046
0.147520626921
0.148227006665
0.14896636017
0.149728818111
0.150516555188
0.151355767301
0.152257127559
0.15321996243
0.154238108929
0.155304927365
0.156417794653
0.157581801859
0.158812881472
0.160126869097
0.16150805663
0.162921572094
0.16436244251
0.165868019579
0.167396092415
0.168649667775
0.169257169271
0.169597424357
0.169879268277
0.17007440638
0.170176574056
0.170173085761
0.170049362879
0.169798261578
0.169417026982
0.168904131813
0.168258463955
0.167478893145
0.166563636069
0.165509592066
0.164311724276
0.162962427969
0.161450761702
0.159761337587
0.157872631326
0.155754489831
0.153364565621
0.15064320497
0.147505943984
0.143832098538
0.139448638489
0.134079142657
0.127139729429
0.11789274109
0.105497283464
0.0886055239527
0.0647764660359
0.0346171463251
0.138647395808
0.138666441837
0.138700801462
0.138761282188
0.138841696727
0.138938671755
0.139045510806
0.13917720414
0.13932705064
0.139503119979
0.13971832738
0.139945576212
0.14018340399
0.140442682763
0.140733613944
0.141041362307
0.141372203468
0.141729241198
0.142094140109
0.1424752676
0.142879137059
0.14330381159
0.143737169703
0.14418620797
0.144684567997
0.145244142772
0.145857125647
0.14649725372
0.147161766381
0.147874392368
0.148630498067
0.149421264369
0.150230326394
0.151074692916
0.151980172333
0.152955361285