/*--------------------------------*- C++ -*----------------------------------*\
| =========                 |                                                 |
| \\      /  F ield         | OpenFOAM: The Open Source CFD Toolbox           |
|  \\    /   O peration     | Version:  v1806                                 |
|   \\  /    A nd           | Web:      www.OpenFOAM.com                      |
|    \\/     M anipulation  |                                                 |
\*---------------------------------------------------------------------------*/
FoamFile
{
    version     2.0;
    format      ascii;
    class       volScalarField;
    location    "803";
    object      pa;
}
// * * * * * * * * * * * * * * * * * * * * * * * * * * * * * * * * * * * * * //

dimensions      [0 2 -2 0 0 0 0];


internalField   nonuniform List<scalar> 
6400
(
-0.122975569081
-0.122976093383
-0.122977576816
-0.12298050973
-0.122984950132
-0.122990967025
-0.122998649402
-0.123008349464
-0.123020493173
-0.123035634565
-0.123055208856
-0.1230802193
-0.123110580422
-0.123146736985
-0.123189675726
-0.12324067401
-0.123300921599
-0.123371152189
-0.123451553106
-0.123541391179
-0.123639858939
-0.123748189881
-0.123869501082
-0.124007223288
-0.124164013087
-0.124340903872
-0.124537746559
-0.124754626996
-0.124992459345
-0.125252620375
-0.125536442951
-0.125844193881
-0.126174170196
-0.126524424698
-0.126894414522
-0.127283524795
-0.127692665055
-0.128125453572
-0.128581540021
-0.129056300311
-0.129550482585
-0.130071627253
-0.130623838458
-0.131202351639
-0.131799894648
-0.132410885998
-0.133030792026
-0.133655765124
-0.134282049535
-0.134906128173
-0.135524773177
-0.136132710259
-0.136721206291
-0.137279503389
-0.137803844185
-0.138295550299
-0.138748564358
-0.139151422293
-0.139498409924
-0.139793073215
-0.14003873471
-0.140235579048
-0.14038321002
-0.140501975356
-0.140629042698
-0.140802655472
-0.14102336695
-0.141245009093
-0.141431027553
-0.141578494182
-0.14169716897
-0.141798149085
-0.141888545976
-0.141966190809
-0.142033247223
-0.142089869262
-0.142135484095
-0.142164693683
-0.142183016373
-0.142190727885
-0.122974872735
-0.122975427942
-0.122976763579
-0.122979594045
-0.122984226176
-0.122990414502
-0.12299805876
-0.123007313579
-0.123018951384
-0.123033877488
-0.123053161481
-0.123077702265
-0.123107787508
-0.123143746356
-0.123186262507
-0.123236455778
-0.123296060182
-0.123365953662
-0.12344612183
-0.123535549863
-0.12363294973
-0.123740201965
-0.123860868539
-0.123998048295
-0.124154353281
-0.12433083281
-0.124527108492
-0.12474349928
-0.124980958901
-0.125240673662
-0.12552380447
-0.125831043455
-0.126160768864
-0.12651042285
-0.126879935124
-0.127268761249
-0.127677512039
-0.12811032126
-0.128566898594
-0.129042117736
-0.129535973342
-0.130057298679
-0.130611224345
-0.131191167723
-0.131789545005
-0.13240155673
-0.133022636422
-0.133649073022
-0.134276828916
-0.134901497673
-0.135519726922
-0.136128621631
-0.136720867588
-0.137281444325
-0.137807627635
-0.13830194706
-0.138754201586
-0.139155098418
-0.139502435554
-0.139797090595
-0.140040819763
-0.140237931824
-0.140388412383
-0.140511406096
-0.140642221295
-0.14081713598
-0.141040845325
-0.141262290611
-0.141446893927
-0.141593744202
-0.141712001678
-0.141813062687
-0.14190412568
-0.141982662613
-0.142048330237
-0.142102372577
-0.14214402543
-0.142171800869
-0.142189352365
-0.142195135801
-0.122972873117
-0.122973746061
-0.122974911929
-0.122977437959
-0.122981797249
-0.122988487148
-0.122996440138
-0.123005090612
-0.123015869033
-0.123030100267
-0.123048747464
-0.123072584799
-0.123101999858
-0.123137276343
-0.123178867994
-0.123227226907
-0.123284968349
-0.12335464267
-0.123434362254
-0.123522457407
-0.12361792734
-0.123722746601
-0.123841970937
-0.123978605615
-0.124133847237
-0.124308836636
-0.124504012694
-0.124719496009
-0.124955967416
-0.125214584133
-0.1254964731
-0.125802603787
-0.126131782941
-0.126479919894
-0.126847597976
-0.12723628418
-0.127644469741
-0.128076290931
-0.128533130516
-0.129009925409
-0.129506997248
-0.130030725468
-0.130584612356
-0.131164524688
-0.131763913926
-0.132377519612
-0.133000856413
-0.133629868107
-0.134260474123
-0.134888576594
-0.135510415448
-0.136121316868
-0.136713297273
-0.137277432109
-0.137810345376
-0.138307274988
-0.138758985537
-0.139159571116
-0.139507083765
-0.139801960103
-0.140046596624
-0.140243515962
-0.140397667118
-0.140530258191
-0.140674657528
-0.140858754968
-0.141075847841
-0.141290704735
-0.141476374682
-0.141625608246
-0.141746049682
-0.141847915202
-0.141935562405
-0.142009268515
-0.142071977034
-0.142122874771
-0.142160274869
-0.142185337414
-0.142200801498
-0.142206254497
-0.122970024008
-0.122970872839
-0.122971800288
-0.122974014917
-0.122977661885
-0.122983966933
-0.122993344703
-0.123001701774
-0.123011325382
-0.123024464197
-0.123042126146
-0.123065020457
-0.123093485682
-0.12312748247
-0.123167408302
-0.12321480617
-0.12327150627
-0.123338801965
-0.123415094741
-0.123499010712
-0.123591980845
-0.12369622272
-0.1238143871
-0.123949286188
-0.124102797843
-0.124276044195
-0.124469549613
-0.124683484612
-0.124918414045
-0.125175345511
-0.125455632405
-0.125760130162
-0.126087707268
-0.126435088811
-0.126799964711
-0.127185893402
-0.127594724402
-0.128026164282
-0.128481750231
-0.128960350553
-0.129461613339
-0.129988842756
-0.130544282005
-0.131125247596
-0.131726401118
-0.132342557025
-0.132969098856
-0.133601789288
-0.134236478834
-0.134869019895
-0.135495153646
-0.136109618093
-0.136705297257
-0.137274882479
-0.137812855153
-0.138312414117
-0.138765426777
-0.139166751416
-0.139514737848
-0.139810081466
-0.140055463373
-0.140255635342
-0.140421460268
-0.140572306288
-0.140728748669
-0.140910723244
-0.141125819521
-0.141340887254
-0.14152833089
-0.141679471651
-0.141798618799
-0.14189451549
-0.141975212583
-0.142047484816
-0.142109725173
-0.142155971479
-0.142187025042
-0.14220990959
-0.142225543423
-0.142231888859
-0.122965581674
-0.122965697352
-0.122966737333
-0.122968814441
-0.122972527822
-0.122977695978
-0.122985718788
-0.122994531652
-0.123004167636
-0.123016607948
-0.123033094876
-0.123054831354
-0.123082005253
-0.123115011589
-0.123154137617
-0.123199425058
-0.123252665348
-0.123315136015
-0.123386927342
-0.123467986844
-0.123558971852
-0.123661312921
-0.12377752835
-0.123910283241
-0.124061421553
-0.124232249101
-0.124423343744
-0.124635067208
-0.124867912342
-0.125122705857
-0.125400622986
-0.125703289173
-0.126029732299
-0.12637357084
-0.126735654616
-0.12711918646
-0.127525844969
-0.127957406551
-0.128414092007
-0.12889505732
-0.129400180806
-0.129931199875
-0.130489285908
-0.131072459819
-0.131676345767
-0.132296024556
-0.132926805248
-0.133564300562
-0.134204273158
-0.134842454858
-0.135474256204
-0.136094189668
-0.136695616556
-0.137271568447
-0.137815146471
-0.138318458845
-0.138773914573
-0.139176972733
-0.139526390768
-0.139823566411
-0.140072690884
-0.140281750636
-0.140464595406
-0.140634380878
-0.140800614138
-0.140985137604
-0.141198036569
-0.141412252817
-0.141601014418
-0.141751954841
-0.141865778334
-0.141954590888
-0.142034689956
-0.142109022542
-0.14216696113
-0.142206340848
-0.142233647332
-0.142257593666
-0.142271462231
-0.142275714682
-0.122957720264
-0.122957557807
-0.122959132017
-0.122961010798
-0.122964571244
-0.122969234512
-0.122976392529
-0.122984679629
-0.122994276152
-0.123006120843
-0.123021117305
-0.123041300057
-0.123067581916
-0.123099530167
-0.123136107354
-0.123178160841
-0.123227404775
-0.123285552108
-0.123353248847
-0.123430708782
-0.123518361387
-0.123617827489
-0.123731411886
-0.123861458765
-0.124009672393
-0.124177184186
-0.124365142969
-0.124573964763
-0.124804135411
-0.125056326805
-0.125331556699
-0.125631139491
-0.125953823778
-0.12629623395
-0.126654360153
-0.127033955366
-0.12743931057
-0.127871349499
-0.128329587084
-0.128813260259
-0.129322244141
-0.129857395653
-0.130419120533
-0.131005709562
-0.131613438943
-0.132237701209
-0.132873805118
-0.133517259358
-0.134163736205
-0.134808854208
-0.135447831721
-0.136075083756
-0.136684075047
-0.137267567734
-0.137817675673
-0.138326017392
-0.138785465507
-0.139192070679
-0.139545247787
-0.139847565926
-0.140105079872
-0.140327996184
-0.140530613965
-0.140715628831
-0.140892207224
-0.141085592298
-0.141302429823
-0.141514767893
-0.141700375242
-0.141845390837
-0.141951824962
-0.142039985856
-0.142124902572
-0.142196020682
-0.142246123746
-0.142278902037
-0.142305025939
-0.142325675691
-0.142335294522
-0.142338867507
-0.122946059674
-0.122946645313
-0.122949049745
-0.122951558926
-0.122953736885
-0.122957964451
-0.122964846688
-0.122972525957
-0.122981606325
-0.122992620519
-0.123006901259
-0.123024958211
-0.12304936176
-0.123078519577
-0.123111852353
-0.12315031141
-0.123195869056
-0.12325017274
-0.123313743063
-0.123386572496
-0.123470042103
-0.123566006836
-0.123676145624
-0.123802565752
-0.123947065239
-0.124111077433
-0.124294460379
-0.124499498735
-0.124726559879
-0.124976176539
-0.125247709677
-0.12554279996
-0.125861505665
-0.126198550191
-0.126553717738
-0.126930951634
-0.127335317619
-0.127767834305
-0.128227752265
-0.12871428077
-0.129227229656
-0.129766916075
-0.13033319587
-0.130924394998
-0.131537175487
-0.132167192044
-0.132809798449
-0.133460446159
-0.134114739585
-0.134768215393
-0.135415978425
-0.136052341412
-0.136670614044
-0.137263089476
-0.137821230486
-0.138336544868
-0.138802450361
-0.139215726753
-0.139576656213
-0.139888867296
-0.140159759316
-0.140400359632
-0.140620135978
-0.14082137272
-0.141016328828
-0.141221752082
-0.141442234568
-0.141649120083
-0.141825242026
-0.141962141165
-0.1420678537
-0.142162954542
-0.142248184943
-0.142310341887
-0.142351113875
-0.142377791666
-0.142400359283
-0.142412723844
-0.142414896311
-0.142416303634
-0.122932712609
-0.122933963802
-0.122936426931
-0.122939602871
-0.122941155255
-0.122945280646
-0.122951050518
-0.122957991617
-0.122966435068
-0.122975400418
-0.122988867204
-0.123005492989
-0.123026851806
-0.123052458677
-0.123082277179
-0.123116791554
-0.12315866753
-0.123208970862
-0.123267641608
-0.12333539288
-0.123414067847
-0.123505613723
-0.123611467096
-0.123733845472
-0.123874084975
-0.124033111522
-0.124212336261
-0.124410873574
-0.124634598455
-0.124881470415
-0.125148878561
-0.125436743585
-0.12574977899
-0.126082135987
-0.12643352092
-0.126809553206
-0.127213459231
-0.127646336295
-0.128107850367
-0.128597316851
-0.129114423759
-0.129659113731
-0.130230840786
-0.130827840917
-0.131446955865
-0.132084018524
-0.132734439368
-0.133393646819
-0.13405719917
-0.13472057648
-0.135378809329
-0.136026092216
-0.136655484919
-0.137258855031
-0.137827339529
-0.138352640704
-0.138828806367
-0.139253237703
-0.139626622786
-0.139952887097
-0.140239592195
-0.140497371578
-0.140735521042
-0.140960900985
-0.141176338167
-0.141395654328
-0.141615081284
-0.141815173956
-0.141982719965
-0.142116713921
-0.142228338831
-0.142328435644
-0.142405703906
-0.142455566298
-0.142485280666
-0.14250400194
-0.142514146189
-0.14251371515
-0.142504805897
-0.142499870345
-0.122918505112
-0.122920004407
-0.122922035698
-0.122923717506
-0.122925541795
-0.122930136566
-0.122934789773
-0.122940628149
-0.122948528078
-0.122956263133
-0.122966179519
-0.12298109029
-0.122999800393
-0.123021501038
-0.123047699754
-0.123078907726
-0.123116072276
-0.123161280188
-0.123214691612
-0.123277220678
-0.12335058553
-0.123436659108
-0.12353682267
-0.123653801106
-0.123790242917
-0.123942829475
-0.124116608905
-0.124311196581
-0.12452790481
-0.124769092857
-0.125032043392
-0.125316329163
-0.125619442087
-0.125945286989
-0.126294344511
-0.126669347197
-0.127072791104
-0.127505950896
-0.12796897329
-0.12846143362
-0.128982952268
-0.129533179831
-0.130111254615
-0.130715265751
-0.131342086876
-0.131987633245
-0.132647356976
-0.13331667311
-0.133991093642
-0.134666051035
-0.135336533513
-0.135996662009
-0.136639334894
-0.137256230793
-0.137838515517
-0.138378227007
-0.138869727947
-0.139310204532
-0.139699871799
-0.14004277308
-0.140346270042
-0.140621996845
-0.140881705192
-0.141131552672
-0.141371497323
-0.141607465966
-0.141833228518
-0.142023348294
-0.142184688791
-0.14232120145
-0.142440704587
-0.142538339264
-0.142601840371
-0.142635651659
-0.142651427523
-0.142654672338
-0.142643595311
-0.142623257559
-0.142599783351
-0.142585528857
-0.122903465361
-0.122904965116
-0.122906884446
-0.12290744992
-0.122908974003
-0.122912526129
-0.122915987452
-0.122920230613
-0.122925923448
-0.122933815826
-0.122940819106
-0.122952440298
-0.122968014889
-0.122986159166
-0.123008018342
-0.123035466466
-0.123068186722
-0.123107586475
-0.123154862343
-0.123211581191
-0.123279361224
-0.123359610561
-0.123453336595
-0.123562522123
-0.12369344451
-0.123841729886
-0.124005394883
-0.124194606103
-0.124404582155
-0.124640387418
-0.124897341017
-0.125174593939
-0.125471480052
-0.125790364765
-0.126135843891
-0.126509388924
-0.126912233937
-0.127345597909
-0.127810050359
-0.128305536619
-0.128831741096
-0.129388102013
-0.129973472138
-0.130585756159
-0.131221770594
-0.13187743024
-0.132548181128
-0.13322939644
-0.133916511557
-0.134604893712
-0.135289539303
-0.135964647072
-0.136623251987
-0.137257302881
-0.137858360588
-0.138418511119
-0.138931123531
-0.139391271028
-0.139799216069
-0.140162310041
-0.140486071738
-0.140781347764
-0.141063049361
-0.141335747377
-0.141600132599
-0.14185342013
-0.142083592641
-0.142284200748
-0.142443061625
-0.14258546363
-0.142710571356
-0.142799002411
-0.142843516295
-0.142854740687
-0.142852701959
-0.142831426526
-0.142790758659
-0.142741400877
-0.142697765951
-0.142671543805
-0.122887134577
-0.122888277059
-0.122889762507
-0.122889933913
-0.122891662462
-0.122893092581
-0.122894922786
-0.122897385217
-0.122899426149
-0.122905591034
-0.122910711416
-0.122919086707
-0.122931157342
-0.122946171421
-0.122963931936
-0.122986108054
-0.123013689095
-0.123047280814
-0.123088062816
-0.123137961969
-0.123199217249
-0.123273505074
-0.123361840389
-0.123462398541
-0.123582511956
-0.123726299017
-0.123883264894
-0.124062958805
-0.124265388674
-0.124489489329
-0.124741117996
-0.125012203707
-0.125302588438
-0.125615940831
-0.125957503755
-0.126328795883
-0.126730610052
-0.127164025003
-0.127629840642
-0.128128367015
-0.12865951426
-0.129222636357
-0.129816315547
-0.13043822943
-0.131085081177
-0.131752730283
-0.13243655396
-0.133131798361
-0.133833725715
-0.13453759395
-0.135238473879
-0.135930927831
-0.136608705732
-0.137264788037
-0.137891569193
-0.138479977481
-0.139019073701
-0.139499224275
-0.139926755041
-0.140321851073
-0.140675512555
-0.140987982976
-0.141287674883
-0.14157879181
-0.141861566825
-0.14212892662
-0.14237133627
-0.142589747027
-0.142759517402
-0.142920743809
-0.143052844207
-0.143127428606
-0.143142950505
-0.143114232324
-0.143093096829
-0.14304210983
-0.142961386901
-0.14286858309
-0.14279281548
-0.142748089349
-0.122869339523
-0.122869774794
-0.122869819743
-0.122870141387
-0.122871678433
-0.122871370521
-0.122871555483
-0.122872299847
-0.122871362399
-0.122873501379
-0.122876072019
-0.122881025244
-0.122889089213
-0.122900677267
-0.122915320476
-0.122931732637
-0.122953014556
-0.122980205128
-0.123014158405
-0.123056467393
-0.12310949042
-0.123175905383
-0.123259314253
-0.123354547036
-0.123461923251
-0.123595063042
-0.123746095327
-0.123913632485
-0.124109496328
-0.124325661493
-0.124564891099
-0.124826819824
-0.125110850628
-0.125420196597
-0.125757928573
-0.126126291247
-0.126526525476
-0.126959747988
-0.127426884466
-0.12792848403
-0.128464782917
-0.129035277932
-0.129638349857
-0.130271380684
-0.130930920173
-0.1316127583
-0.13231213558
-0.133024014383
-0.133743299439
-0.13446500223
-0.135184329427
-0.135896628758
-0.136597291654
-0.137281633391
-0.137943692082
-0.138570508454
-0.139140760901
-0.139636270139
-0.140083801595
-0.140544518826
-0.140946976641
-0.141259136023
-0.141565905759
-0.141868781537
-0.142168938006
-0.142452487613
-0.142707924287
-0.142926858519
-0.143130815311
-0.143319572228
-0.143483653987
-0.14354092172
-0.143511056554
-0.143404419631
-0.14338587872
-0.143303839907
-0.143165103446
-0.142997296036
-0.142868206445
-0.142789883516
-0.122850333277
-0.122850075405
-0.12284846522
-0.1228483153
-0.122848137009
-0.122846783064
-0.12284546212
-0.122843963088
-0.122840924282
-0.122839227151
-0.122837790164
-0.122838591511
-0.122842075441
-0.122848852127
-0.122859421935
-0.122870557527
-0.122885716888
-0.122906135359
-0.122932809764
-0.122967128724
-0.123010939948
-0.123067087257
-0.123141578004
-0.123232858991
-0.123331265317
-0.123449396798
-0.123592494766
-0.123749381909
-0.12393052127
-0.124138146
-0.12436828091
-0.124621511103
-0.124897676021
-0.125201622951
-0.125535161515
-0.125900193759
-0.126298333749
-0.126730959616
-0.12719932606
-0.127704163916
-0.12824588026
-0.128824285258
-0.129437818191
-0.130083592921
-0.130757940252
-0.131456586121
-0.132174584665
-0.132906396225
-0.133646215919
-0.134388525424
-0.135128590576
-0.135863044711
-0.136590172692
-0.137309632033
-0.138019821187
-0.138700621865
-0.139312675472
-0.139808893448
-0.140261105967
-0.140892541534
-0.141462011143
-0.141673029574
-0.141974636752
-0.142293961565
-0.142626424435
-0.142932226561
-0.143199241403
-0.143347193578
-0.143536857474
-0.143927360696
-0.144246500292
-0.144278292608
-0.144134901003
-0.143675556921
-0.143719793201
-0.143623184328
-0.143402803924
-0.14310433633
-0.142898097266
-0.142757144857
-0.122830770542
-0.122830146054
-0.122828330378
-0.122825977958
-0.122823237427
-0.122820355492
-0.122817193206
-0.1228127039
-0.122807899056
-0.122802193429
-0.122796158418
-0.12279223758
-0.122790640342
-0.122791802076
-0.122795676562
-0.122801382405
-0.122810877379
-0.122824503453
-0.12284345967
-0.122869302476
-0.122903632753
-0.122948635704
-0.123010652931
-0.123094093963
-0.123187227498
-0.123290126652
-0.123420654759
-0.123569634988
-0.123734754479
-0.123928105244
-0.124147147186
-0.124391033063
-0.124660866564
-0.124958954503
-0.125287456726
-0.125648511078
-0.126044113402
-0.126475776778
-0.126945020867
-0.127453130442
-0.128000698008
-0.128587661091
-0.129212687025
-0.12987286989
-0.130564407353
-0.131283005459
-0.132023505535
-0.132779548048
-0.133544071146
-0.134310432956
-0.13507358958
-0.135831743884
-0.136586981385
-0.137345661607
-0.138120146901
-0.138890446028
-0.139594603212
-0.140042016992
-0.140327282949
-0.141393563157
-0.141336620978
-0.14127027664
-0.141325490386
-0.141403194611
-0.141515340782
-0.141643420407
-0.141801373553
-0.142012734998
-0.142240754143
-0.142468017357
-0.142704852581
-0.142780523988
-0.142786626369
-0.143323475782
-0.144368520851
-0.144348302103
-0.143919833668
-0.143169394995
-0.142842932523
-0.142571876023
-0.12281074039
-0.1228098751
-0.1228079121
-0.122803001813
-0.122797932312
-0.122793035149
-0.122787615439
-0.122780265007
-0.122773285286
-0.122762645327
-0.12275154625
-0.122742491651
-0.122735466118
-0.122730851015
-0.122727450401
-0.122726238091
-0.122728992811
-0.122735225704
-0.122745857914
-0.122762490518
-0.122786862782
-0.122820718627
-0.122868534286
-0.122939483412
-0.123026306218
-0.123116591439
-0.12322935254
-0.123369511825
-0.123525074387
-0.123700403687
-0.123904941796
-0.124137562428
-0.124398889973
-0.124690055318
-0.125012719245
-0.125369100749
-0.125761460065
-0.126191790914
-0.126661725863
-0.127172905768
-0.127726558028
-0.128322838098
-0.12896051105
-0.129636793439
-0.130348064377
-0.131090322025
-0.131858258264
-0.132644314841
-0.133439291979
-0.134234423131
-0.135023340655
-0.135805469994
-0.136585213306
-0.137372092907
-0.138228313681
-0.139168114391
-0.140145025783
-0.140086535751
-0.140063045604
-0.140315167722
-0.140660407242
-0.140671630181
-0.140543646332
-0.140331943756
-0.140087471502
-0.139820404248
-0.13957667629
-0.139425687617
-0.139405686668
-0.139517207358
-0.139740999693
-0.139979037561
-0.140262330953
-0.14079755261
-0.141636164656
-0.142180077616
-0.142346194859
-0.14272408832
-0.1428153973
-0.142163382161
-0.12279042172
-0.122789017406
-0.122785649266
-0.122779290442
-0.122772223141
-0.122765168232
-0.122756973739
-0.122746390123
-0.122735905162
-0.122720215528
-0.122704145242
-0.122689743544
-0.122677076302
-0.122666457575
-0.122655505969
-0.122646254705
-0.122640991403
-0.122638787812
-0.122640189458
-0.122646721636
-0.12266013756
-0.122682305256
-0.122716230384
-0.122771206
-0.122846584457
-0.12292907037
-0.123021414399
-0.123142325653
-0.123288336583
-0.123452054025
-0.123641164945
-0.123860293195
-0.124110831927
-0.124393345839
-0.124708983669
-0.125059651784
-0.125447961656
-0.12587623134
-0.126346539351
-0.12686069281
-0.12742045956
-0.128026638433
-0.12867821422
-0.129372382144
-0.13010592006
-0.130875905689
-0.13167755572
-0.132501636986
-0.133335319807
-0.134166337595
-0.134985135445
-0.135792019389
-0.136584202194
-0.137339268579
-0.13821125176
-0.139450888946
-0.139569940098
-0.139675057288
-0.139700506199
-0.13973403968
-0.139881509698
-0.139767271022
-0.139425610829
-0.13890237393
-0.13827094707
-0.137575885993
-0.136883077391
-0.136266306933
-0.135798013434
-0.135530578792
-0.13545775515
-0.13549269063
-0.135654154218
-0.136186926008
-0.13733048914
-0.138734882816
-0.139950048957
-0.14060995944
-0.140752113384
-0.140658746771
-0.122770556097
-0.122768595185
-0.122763910274
-0.122755784015
-0.122746937775
-0.122737378433
-0.122725888932
-0.122711329329
-0.122695862168
-0.122675615699
-0.122654311657
-0.122634259191
-0.12261570046
-0.122598874124
-0.12257946761
-0.122561525287
-0.122547292254
-0.122535640152
-0.122526726408
-0.122522116407
-0.122523416433
-0.122532645833
-0.122552339535
-0.122589748452
-0.122648770917
-0.122722540453
-0.122798578169
-0.122897236043
-0.123023575254
-0.123174535961
-0.123350034928
-0.123555936814
-0.123794198997
-0.124066359332
-0.124373699779
-0.124717705755
-0.125100884249
-0.12552625533
-0.125996262071
-0.126513104135
-0.127078966099
-0.127695316816
-0.128361805023
-0.12907569012
-0.129834049357
-0.130636144722
-0.131479097987
-0.132351690539
-0.133235987185
-0.134115125316
-0.134971462716
-0.135812307756
-0.136611493756
-0.137086366949
-0.138159239652
-0.13848121598
-0.138743119648
-0.139104794571
-0.139183661502
-0.13907919997
-0.13882905914
-0.1383247707
-0.137621912367
-0.13674851266
-0.135767951547
-0.134732744795
-0.133705117808
-0.132741643158
-0.131899403609
-0.131236369009
-0.130787239215
-0.130508683351
-0.130412459107
-0.130692808317
-0.13164107525
-0.133307290167
-0.135247468436
-0.136720902906
-0.138096764014
-0.1407468128
-0.122752086563
-0.122749485584
-0.122743010972
-0.122733282045
-0.12272280337
-0.122710488612
-0.122695386916
-0.122676889156
-0.122656271862
-0.122630121561
-0.122602766241
-0.12257636999
-0.122551226298
-0.122527267272
-0.122498643859
-0.122471600428
-0.122447637712
-0.122425749316
-0.122405473285
-0.122388646994
-0.122376621777
-0.122371524643
-0.122375822419
-0.122394597405
-0.122433424726
-0.122492297112
-0.122558904149
-0.122637799137
-0.122741596368
-0.122872512441
-0.123030954494
-0.12322162185
-0.123445704882
-0.123705815441
-0.124003523132
-0.124339637273
-0.124716879908
-0.125138436044
-0.12560743009
-0.1261263579
-0.126697892234
-0.12732453439
-0.128006783567
-0.128742192284
-0.129527082074
-0.130363286585
-0.13125475189
-0.132191344619
-0.133145375503
-0.13409413135
-0.134999005884
-0.135934979765
-0.136911817022
-0.137019697864
-0.137167450979
-0.137567979619
-0.138117497971
-0.138423276222
-0.13828124477
-0.137858072149
-0.137157402421
-0.136186680422
-0.135028552757
-0.133723437419
-0.132325324485
-0.130882948214
-0.129452587639
-0.128085960569
-0.126834303056
-0.125754756605
-0.124906900671
-0.124304866856
-0.123951470874
-0.124005865067
-0.124773084417
-0.126470755838
-0.128712601538
-0.130535578372
-0.133436479434
-0.144271462653
-0.122735835583
-0.122732527438
-0.122724299648
-0.122713124936
-0.122700676611
-0.122685290037
-0.122666256448
-0.122643793878
-0.122617497124
-0.12258459977
-0.122550254183
-0.122516594314
-0.122483804261
-0.122450539053
-0.122412692292
-0.122376106298
-0.122341620721
-0.122308345714
-0.122275915782
-0.12224597731
-0.122219491832
-0.122198561601
-0.12218610394
-0.122185026907
-0.122200988822
-0.122238713736
-0.122292161312
-0.122353948027
-0.122436002958
-0.122545652002
-0.122683459928
-0.122855155216
-0.123063123594
-0.123308699995
-0.123594769362
-0.123921606466
-0.124291594741
-0.12470840444
-0.125175603044
-0.125696216317
-0.126273000688
-0.126909269285
-0.127606831191
-0.128364343151
-0.129178893703
-0.130054588427
-0.131000132374
-0.132008172479
-0.133054276028
-0.134116245104
-0.135026927379
-0.13604540334
-0.136350439204
-0.136570316781
-0.136745029255
-0.137162534771
-0.137527439491
-0.137429365184
-0.13685320502
-0.135949181193
-0.134736980808
-0.133265216575
-0.131608608983
-0.129814027574
-0.127929299305
-0.125996902987
-0.124062806439
-0.122167880399
-0.120347145517
-0.11863761014
-0.117098879553
-0.115802020848
-0.114740014989
-0.114028830874
-0.113948797846
-0.114850496286
-0.116552592035
-0.117586165011
-0.117520223822
-0.122073718545
-0.12272276376
-0.122718750094
-0.12270907349
-0.122696292318
-0.122681286025
-0.122662454056
-0.122639054229
-0.122612212992
-0.122579784088
-0.122539645496
-0.122497596515
-0.122455830803
-0.122414414126
-0.122370704433
-0.122322950919
-0.122275746535
-0.12222965061
-0.122183532009
-0.122137791949
-0.122093689932
-0.122051640176
-0.122013403515
-0.121982637509
-0.121960439881
-0.121951913817
-0.121963589195
-0.121994414562
-0.122038868248
-0.122100677664
-0.122188265622
-0.122304532338
-0.122453121854
-0.1226409314
-0.122869590844
-0.123142567094
-0.123459196586
-0.123820672792
-0.12423135478
-0.124695501622
-0.125216876344
-0.125798553638
-0.12644398153
-0.127156741959
-0.127937201346
-0.128783535706
-0.129698966382
-0.13069686608
-0.131786815357
-0.132957172134
-0.134231677002
-0.134972089606
-0.135374865034
-0.135743763897
-0.136227891877
-0.136515082945
-0.136713072487
-0.136584199606
-0.135912214141
-0.134773994211
-0.133286237275
-0.131491177779
-0.129449709481
-0.127217739237
-0.124833051069
-0.122329374125
-0.119735673403
-0.117082149368
-0.114395896825
-0.111698902496
-0.109014450968
-0.106392758629
-0.103908242794
-0.101520719013
-0.0991573894995
-0.0969732654459
-0.0954253997866
-0.0944285308336
-0.0901978104247
-0.0747221218989
-0.0560621545889
-0.122713485236
-0.12270875849
-0.12269781225
-0.122683150837
-0.122665174613
-0.122642500504
-0.122614689391
-0.122582896483
-0.122543681221
-0.122496062967
-0.12244572796
-0.122395177706
-0.122344460617
-0.122290129316
-0.12223086434
-0.122171747378
-0.122112816563
-0.122052457458
-0.121991549442
-0.121931741858
-0.121872637705
-0.121815482457
-0.121764378224
-0.121719699688
-0.121685535857
-0.121668677574
-0.121672785901
-0.121696368677
-0.121740394879
-0.121801752289
-0.121891998377
-0.122015865381
-0.122179988317
-0.122385609858
-0.122640252342
-0.122945660342
-0.12329819857
-0.123702111645
-0.124161844989
-0.124682303133
-0.125267910595
-0.12592245937
-0.126650288406
-0.127452078291
-0.128324597287
-0.129273238382
-0.130320130269
-0.131507917793
-0.132885013638
-0.135116997658
-0.134552651788
-0.134806316196
-0.13539823324
-0.135947940096
-0.136005619463
-0.135772783323
-0.135022378871
-0.133701493511
-0.131919965399
-0.129777372616
-0.127327686007
-0.124628449321
-0.12171988722
-0.118629459072
-0.115380311337
-0.111993888784
-0.108493043352
-0.104898252822
-0.101222037715
-0.0974654268035
-0.0936247130035
-0.0896877193262
-0.0855643316138
-0.0809258910443
-0.0756747816324
-0.0701967028398
-0.0639040529972
-0.0499401326876
-0.0124049405267
0.0425354579711
-0.12270885904
-0.122703375419
-0.122691140933
-0.122674255077
-0.122652918931
-0.122626106572
-0.122593918894
-0.12255622678
-0.12250986694
-0.122454881998
-0.122395620593
-0.122335476833
-0.122274642965
-0.122208986677
-0.122137177205
-0.122064914337
-0.121991972492
-0.121915661308
-0.121837766471
-0.121760391404
-0.121682072935
-0.121604063394
-0.121530125461
-0.121461393412
-0.121400297097
-0.121352972637
-0.121326788827
-0.121322741168
-0.121344659076
-0.121382533375
-0.121443741536
-0.121536566412
-0.121673530818
-0.121857048989
-0.122087770481
-0.122374839825
-0.122716380644
-0.123112626138
-0.123567965572
-0.124086659562
-0.124674397861
-0.125337339232
-0.126079127606
-0.126898102792
-0.127787916556
-0.12875540739
-0.129822621785
-0.131018735852
-0.132104081157
-0.132992306458
-0.133638349251
-0.133875518293
-0.135118468349
-0.135358048917
-0.135011002891
-0.134176778284
-0.132723964558
-0.130698492675
-0.128217220173
-0.125372801215
-0.122224773589
-0.118827470976
-0.115218645662
-0.111428642006
-0.10748416121
-0.103408731822
-0.0992195811253
-0.0949201298474
-0.090490774821
-0.0858771481239
-0.0809770267473
-0.0756326250198
-0.0696283276047
-0.0625617114021
-0.0541556383103
-0.0445420920677
-0.0319696856769
-0.00686772696703
0.0477455831641
0.117299234349
-0.122709697648
-0.122703462232
-0.122689923894
-0.1226704163
-0.122645223584
-0.122614014516
-0.122577157592
-0.122532690747
-0.122479165455
-0.122416915068
-0.122348091979
-0.122277542462
-0.122205678579
-0.122127757233
-0.122042428689
-0.121955794535
-0.121867410752
-0.121773029382
-0.121676617941
-0.121579838965
-0.121479424674
-0.121378686561
-0.121279684445
-0.121184449734
-0.121094972544
-0.121015748729
-0.120955871731
-0.120918489736
-0.120908807904
-0.120922171806
-0.120956262058
-0.121016236339
-0.12111695604
-0.121271070469
-0.121479319413
-0.121744266524
-0.122069857191
-0.122455424438
-0.122904534071
-0.123421558736
-0.124011490702
-0.124680640189
-0.12543245851
-0.126262718124
-0.127166734146
-0.128160965475
-0.129279745115
-0.130576454535
-0.130919478489
-0.130628503982
-0.131135571833
-0.133037578096
-0.134437878133
-0.134255856131
-0.133398876116
-0.131852603173
-0.129647734159
-0.126882348624
-0.123679990441
-0.120133404952
-0.116310240758
-0.112269264218
-0.108055191077
-0.103704742387
-0.0992443832866
-0.0946859060819
-0.0900186943558
-0.0852022945019
-0.0801619060264
-0.0747801901108
-0.068869785076