/*--------------------------------*- C++ -*----------------------------------*\
| =========                 |                                                 |
| \\      /  F ield         | OpenFOAM: The Open Source CFD Toolbox           |
|  \\    /   O peration     | Version:  v1806                                 |
|   \\  /    A nd           | Web:      www.OpenFOAM.com                      |
|    \\/     M anipulation  |                                                 |
\*---------------------------------------------------------------------------*/
FoamFile
{
    version     2.0;
    format      ascii;
    class       surfaceScalarField;
    location    "803";
    object      phia;
}
// * * * * * * * * * * * * * * * * * * * * * * * * * * * * * * * * * * * * * //

dimensions      [0 3 -1 0 0 0 0];
oriented        oriented;


internalField   nonuniform List<scalar> 
12640
(
3.96010979058e-08
-3.76909879089e-08
7.46701226684e-08
-3.3683193995e-08
1.05177812821e-07
-2.95062804066e-08
1.31468471171e-07
-2.55083724541e-08
1.52623840105e-07
-2.04286851983e-08
1.68650439857e-07
-1.5360305503e-08
1.8329670275e-07
-1.40596915911e-08
2.03854891739e-07
-2.00327200337e-08
2.30465955941e-07
-2.61450648194e-08
2.57594430373e-07
-2.67219190992e-08
2.84611207092e-07
-2.66681052753e-08
3.13635706991e-07
-2.87092063806e-08
3.43078572721e-07
-2.91531766802e-08
3.72255252458e-07
-2.89086976377e-08
4.02683964062e-07
-3.0185026366e-08
4.36901640524e-07
-3.39877051635e-08
4.73368656705e-07
-3.62546837813e-08
5.0946272207e-07
-3.58929574006e-08
5.4496351177e-07
-3.5315850359e-08
5.82372839277e-07
-3.72306951297e-08
6.25622271521e-07
-4.30766720774e-08
6.74158273973e-07
-4.83642032249e-08
7.24286209861e-07
-4.99641203194e-08
7.74237401587e-07
-4.97913676365e-08
8.23588998501e-07
-4.92006824503e-08
8.72720512649e-07
-4.89822624647e-08
9.22412326863e-07
-4.95480705023e-08
9.72358872702e-07
-4.98024174921e-08
1.02211124946e-06
-4.96132230483e-08
1.07190478822e-06
-4.96540829214e-08
1.12253089338e-06
-5.04910241265e-08
1.17359636009e-06
-5.09285030235e-08
1.22471561132e-06
-5.09841261604e-08
1.27743558802e-06
-5.25823122901e-08
1.3315759661e-06
-5.40054691326e-08
1.38643782538e-06
-5.47237306531e-08
1.4419742372e-06
-5.54013154705e-08
1.49675470648e-06
-5.46445633634e-08
1.54979118021e-06
-5.2902465577e-08
1.60129862647e-06
-5.1369556084e-08
1.65231270785e-06
-5.08782945433e-08
1.70057018862e-06
-4.81213500556e-08
1.74307693298e-06
-4.23741297366e-08
1.78147078805e-06
-3.8259048392e-08
1.81740539106e-06
-3.58005478936e-08
1.85054028158e-06
-3.29964563937e-08
1.88045650426e-06
-2.97771709394e-08
1.90637443236e-06
-2.57737148298e-08
1.92819306741e-06
-2.16731711395e-08
1.94798119222e-06
-1.96367117556e-08
1.96830782146e-06
-2.01735756263e-08
1.98597082587e-06
-1.75015165787e-08
1.99362705656e-06
-7.48778344829e-09
1.99364215598e-06
1.6875900959e-10
1.9853542453e-06
8.48151019509e-09
1.96621850513e-06
1.9346967684e-08
1.94779228549e-06
1.86555459345e-08
1.9351387584e-06
1.29166040975e-08
1.91827845033e-06
1.71598741764e-08
1.89771434374e-06
2.09134428453e-08
1.88511061458e-06
1.30264994888e-08
1.86608519903e-06
1.95797880622e-08
1.80272781051e-06
6.40911498017e-08
1.67197636212e-06
1.31541054451e-07
1.53178255012e-06
1.4077184012e-07
1.42578717332e-06
1.06426103952e-07
1.3269900576e-06
9.91807353552e-08
1.22611203872e-06
1.01300684407e-07
1.11726734694e-06
1.09337859345e-07
9.94821649784e-07
1.23015612712e-07
8.65884810434e-07
1.29534231253e-07
7.40160473084e-07
1.2629229898e-07
6.2136823237e-07
1.19337846937e-07
4.97066340301e-07
1.24833339371e-07
3.91054584939e-07
1.06506701681e-07
2.99539777748e-07
9.19634798724e-08
2.34782802113e-07
6.52173013015e-08
1.63114294043e-07
7.21157638167e-08
9.89119291345e-08
6.49865168956e-08
9.94089286174e-08
2.10375271037e-08
-5.79708450147e-08
4.85953368061e-08
-6.02606534941e-08
7.54224675507e-08
-5.55780742429e-08
1.03072515473e-07
-5.25093496607e-08
1.36988851261e-07
-5.37051844566e-08
1.63963319471e-07
-4.16867058016e-08
1.83620969975e-07
-3.30946729132e-08
2.0551534698e-07
-4.13851508549e-08
2.30256541982e-07
-5.04091806327e-08
2.57304814851e-07
-5.33642690819e-08
2.85008870927e-07
-5.40157318501e-08
3.1174658075e-07
-5.51319711903e-08
3.39046221584e-07
-5.61582142011e-08
3.67975078938e-07
-5.75684284456e-08
3.99095895213e-07
-6.10480536408e-08
4.34183649169e-07
-6.88450270185e-08
4.69684831266e-07
-7.15425108369e-08
5.01249107599e-07
-6.72712862026e-08
5.34012466725e-07
-6.78993058488e-08
5.73358259761e-07
-7.64061682135e-08
6.19785563695e-07
-8.93264391125e-08
6.71166558576e-07
-9.95769141434e-08
7.22573476606e-07
-1.01201168354e-07
7.7129739886e-07
-9.83593759568e-08
8.19816362836e-07
-9.75628295177e-08
8.69921660038e-07
-9.89416689372e-08
9.19868119163e-07
-9.93447150717e-08
9.69397184254e-07
-9.91908340791e-08
1.01919669401e-06
-9.92677982551e-08
1.0693697455e-06
-9.96905000052e-08
1.1196434257e-06
-1.00623355783e-07
1.16999834512e-06
-1.01148620476e-07
1.22043786694e-06
-1.01283197533e-07
1.27300480663e-06
-1.05014317644e-07
1.32856640336e-06
-1.09425870747e-07
1.38399432374e-06
-1.10016934461e-07
1.43925403135e-06
-1.1052108685e-07
1.49558550317e-06
-1.10842716253e-07
1.55208470785e-06
-1.09261518711e-07
1.60514781385e-06
-1.04296525997e-07
1.64765253074e-06
-9.32412206197e-08
1.68260827452e-06
-8.29436821911e-08
1.72014215582e-06
-7.97705623217e-08
1.76007165025e-06
-7.80565210575e-08
1.79887714918e-06
-7.44669133546e-08
1.83572735245e-06
-6.97108831964e-08
1.86953494642e-06
-6.34403189451e-08
1.90022716989e-06
-5.63240303888e-08
1.92721026379e-06
-4.8504724182e-08
1.94690761894e-06
-3.91846568975e-08
1.95626476184e-06
-2.93713633606e-08
1.96235504168e-06
-2.34337788429e-08
1.97821343169e-06
-2.31721539667e-08
1.99009500174e-06
-1.15330470846e-08
1.98707447822e-06
1.17001181629e-08
1.98312149411e-06
2.35071489314e-08
1.97769283929e-06
2.43234216182e-08
1.96510729665e-06
2.57642445112e-08
1.95153972946e-06
3.10360133298e-08
1.93459748444e-06
3.82067188517e-08
1.89632191208e-06
5.17506693363e-08
1.85129555958e-06
6.51785288499e-08
1.77905196096e-06
1.37078765338e-07
1.65057805278e-06
2.60727217306e-07
1.48804503576e-06
3.03864850892e-07
1.33249868498e-06
2.6237712134e-07
1.23834852834e-06
1.93713693002e-07
1.17039614562e-06
1.69670355717e-07
1.08297753867e-06
1.97247781306e-07
9.66910568604e-07
2.39626410886e-07
8.3154276104e-07
2.65463034571e-07
6.95933889744e-07
2.62432853829e-07
5.83557333456e-07
2.32235703524e-07
4.99335704304e-07
2.09592840483e-07
4.17612236049e-07
1.88760745149e-07
3.42078123564e-07
1.68024614982e-07
2.63317578293e-07
1.44524330395e-07
1.93191855489e-07
1.4288006077e-07
1.01069380034e-07
1.57790790277e-07
2.01158787142e-07
2.54089317294e-08
-8.2318871793e-08
3.9305696227e-08
-7.33581586146e-08
6.99381908902e-08
-8.54454795805e-08
1.05311241074e-07
-8.71657285161e-08
1.38865619471e-07
-8.65901092394e-08
1.57696704831e-07
-5.99949942808e-08
1.71119232411e-07
-4.60166132984e-08
1.94657943202e-07
-6.43840996198e-08
2.21771445317e-07
-7.70428284319e-08
2.49431996927e-07
-8.06166808428e-08
2.77199504563e-07
-8.14245035441e-08
3.04060651313e-07
-8.16680238501e-08
3.31034817627e-07
-8.28300158505e-08
3.60183610892e-07
-8.6433710208e-08
3.89369634218e-07
-8.9977341373e-08
4.09025940492e-07
-8.82748580115e-08
4.22280511379e-07
-8.4609070037e-08
4.47366530717e-07
-9.21854945959e-08
4.91442310696e-07
-1.11807085755e-07
5.5210700136e-07
-1.36894895562e-07
6.14767668552e-07
-1.51808117403e-07
6.66777393955e-07
-1.51408895188e-07
7.14339946774e-07
-1.4859667663e-07
7.64127783979e-07
-1.47984503388e-07
8.1442370204e-07
-1.47704303956e-07
8.6346513908e-07
-1.47830968309e-07
9.12503744274e-07
-1.48236950007e-07
9.62211745846e-07
-1.48752446209e-07
1.01223348901e-06
-1.49147367749e-07
1.06277721155e-06
-1.50091396278e-07
1.11279006533e-06
-1.50496799308e-07
1.16318091056e-06
-1.51399625263e-07
1.21504811293e-06
-1.5301184538e-07
1.26568228099e-06
-1.55507855232e-07
1.31962763995e-06
-1.63233896332e-07
1.3792911126e-06
-1.69540526391e-07
1.43613674704e-06
-1.6722869544e-07
1.49116507691e-06
-1.6573175202e-07
1.54869321777e-06
-1.66651405094e-07
1.60392933662e-06
-1.59390510981e-07
1.65479692192e-06
-1.4396857191e-07
1.7017092615e-06
-1.29715218284e-07
1.74400202648e-06
-1.21925674555e-07
1.78287774348e-06
-1.16792207999e-07
1.81917142893e-06
-1.10621069448e-07
1.8525329945e-06
-1.02928710279e-07
1.88302307016e-06
-9.3785944942e-08
1.91040114991e-06
-8.35525224564e-08
1.93428861703e-06
-7.22410333767e-08
1.95498403859e-06
-5.97228317267e-08
1.9730665383e-06
-4.72941358165e-08
1.98680154626e-06
-3.7000704785e-08
1.99022937316e-06
-2.6425773202e-08
1.98731164967e-06
-8.42860397682e-09
1.98812088371e-06
1.10871321698e-08
1.98835960822e-06
2.34841408706e-08
1.9809151274e-06
3.20043658432e-08
1.9668040415e-06
4.01435382065e-08
1.94863429445e-06
4.95103802909e-08
1.92507070922e-06
6.21381848445e-08
1.89470209322e-06
8.25728918586e-08
1.82631947266e-06
1.34140637699e-07
1.6803934983e-06
2.8366976707e-07
1.4848958153e-06
4.56850591609e-07
1.33675906431e-06
4.52484916534e-07
1.27032371243e-06
3.29212626637e-07
1.19232992104e-06
2.72081532371e-07
1.09228489562e-06
2.70108539035e-07
9.82774787657e-07
3.07190141857e-07
8.61559112692e-07
3.61317614657e-07
7.45419867181e-07
3.82094147868e-07
6.5506046381e-07
3.53304067689e-07
5.77004407806e-07
3.10826437427e-07
4.97880315652e-07
2.8925694461e-07
4.06159679416e-07
2.81016501109e-07
3.14376617927e-07
2.60347260991e-07
2.3694361522e-07
2.22481289568e-07
1.79175954924e-07
2.01147377723e-07
7.74013089981e-08
2.60516006351e-07
2.7874378421e-07
1.70206815422e-08
-9.88020654111e-08
2.36137379557e-08
-7.939994947e-08
5.62093730807e-08
-1.17318892226e-07
8.44679946554e-08
-1.14735146888e-07
8.97380036391e-08
-9.13615004774e-08
8.26834034249e-08
-5.26799356625e-08
1.15998161834e-07
-7.89707929914e-08
1.67799890661e-07
-1.15688480243e-07
2.05599509336e-07
-1.1437198433e-07
2.36060848358e-07
-1.10667751377e-07
2.65233535914e-07
-1.10233827878e-07
2.93031034176e-07
-1.09125972479e-07
3.1839932944e-07
-1.07885433739e-07
3.34835273222e-07
-1.02593114675e-07
3.44423958306e-07
-9.93297606746e-08
3.61233030681e-07
-1.04884185981e-07
3.96632631075e-07
-1.19826172236e-07
4.50318535579e-07
-1.45691700534e-07
5.12094957582e-07
-1.73396468169e-07
5.65137184614e-07
-1.89748873684e-07
6.0948157712e-07
-1.95967289943e-07
6.56452431444e-07
-1.98202184446e-07
7.05737550999e-07
-1.97710353678e-07
7.54495523062e-07
-1.96579542136e-07
8.03074181705e-07
-1.96124755327e-07
8.5181543307e-07
-1.96420357024e-07
9.01412761051e-07
-1.9768424952e-07
9.51431117779e-07
-1.98624968156e-07
1.00205383557e-06
-1.99624443462e-07
1.0522800937e-06
-2.00174354234e-07
1.10358539145e-06
-2.01659181445e-07
1.15327568838e-06
-2.00949328211e-07
1.20264197119e-06
-2.02237924894e-07
1.25998069363e-06
-2.12706516853e-07
1.31793414746e-06
-2.21045718417e-07
1.37538285795e-06
-2.26849175462e-07
1.43878335895e-06
-2.304874534e-07
1.50011564785e-06
-2.26922451306e-07
1.55369476529e-06
-2.20087008059e-07
1.60367083239e-06
-2.09223768986e-07
1.65321271623e-06
-1.93366951055e-07
1.70107526277e-06
-1.77436099714e-07
1.74491951173e-06
-1.65627322329e-07
1.78470168712e-06
-1.56432008101e-07
1.82121786555e-06
-1.46992129317e-07
1.854694056e-06
-1.36258554528e-07
1.88519332106e-06
-1.24135110895e-07
1.91257117817e-06
-1.10778201138e-07
1.93668184989e-06
-9.61948661446e-08
1.95759628221e-06
-8.04772834369e-08
1.97489483106e-06
-6.44265967594e-08
1.98668783505e-06
-4.8622161466e-08
1.99161222262e-06
-3.11692120651e-08
1.99334207957e-06
-9.96984402159e-09
1.99372586516e-06
1.09052675852e-08
1.98979765647e-06
2.76295437974e-08
1.97980506768e-06
4.22369548883e-08
1.96298232171e-06
5.7235014925e-08
1.93778594454e-06
7.50177820274e-08
1.89930639758e-06
1.00987953838e-07
1.83363480569e-06
1.48702181125e-07
1.71890257998e-06
2.49407489842e-07
1.58061512508e-06
4.225181275e-07
1.45669376924e-06
5.81300364599e-07
1.31727800077e-06
5.92374094716e-07
1.1864024863e-06
4.60474248294e-07
1.08544044109e-06
3.73393111849e-07
9.97754122082e-07
3.5814598354e-07
9.12752645081e-07
3.9256780012e-07
8.2114079345e-07
4.53345893736e-07
7.20144815819e-07
4.83568678079e-07
6.18632099043e-07
4.55323619694e-07
5.16986985942e-07
4.12960705505e-07
4.17993324992e-07
3.88709212013e-07
3.26933665242e-07
3.72539908404e-07
2.34092664409e-07
3.53667241043e-07
1.54325873835e-07
3.02685823672e-07
1.03592216233e-07
2.52334698846e-07
5.32123966109e-08
3.11121005881e-07
3.32353378611e-07
2.61963415845e-09
-1.0084355028e-07
1.88645051342e-08
-9.51829668679e-08
4.33875261417e-08
-1.41200755839e-07
6.32270630597e-08
-1.33965441195e-07
6.08236082096e-08
-8.85996014108e-08
8.03627392011e-08
-7.19490059848e-08
1.219546843e-07
-1.2017280026e-07
1.53651327217e-07
-1.46918140016e-07
1.84240913978e-07
-1.4452064245e-07
2.15745198701e-07
-1.41757086308e-07
2.4745000885e-07
-1.41553457876e-07
2.70135029472e-07
-1.31476588791e-07
2.79139342217e-07
-1.16608550553e-07
2.89261741701e-07
-1.12479598074e-07
3.16078482906e-07
-1.25934542247e-07
3.60118517048e-07
-1.48718862187e-07
4.15072883122e-07
-1.74578057528e-07
4.68236704395e-07
-1.98654631388e-07
5.10724253681e-07
-2.15687638185e-07
5.50346596398e-07
-2.29178779493e-07
5.95201985163e-07
-2.40635213043e-07
6.42936077492e-07
-2.45755086701e-07
6.91231242952e-07
-2.45832338676e-07
7.39388968801e-07
-2.44570611547e-07
7.87735687068e-07
-2.4431200734e-07
8.36992623855e-07
-2.45521816522e-07
8.86355879119e-07
-2.46897815972e-07
9.37089487129e-07
-2.4920955139e-07
9.87160885675e-07
-2.49548507947e-07
1.03801562578e-06
-2.50882302411e-07
1.08669471703e-06
-2.50194782997e-07
1.13951507015e-06
-2.5362835174e-07
1.198380305e-06
-2.60962540289e-07
1.25527369834e-06
-2.69457650474e-07
1.31634343481e-06
-2.81972504952e-07
1.38130018851e-06
-2.9166110453e-07
1.44173203295e-06
-2.90774310788e-07
1.49845275916e-06
-2.83497300517e-07
1.55180530531e-06
-2.7329401188e-07
1.6027628976e-06
-2.60035150306e-07
1.65280766212e-06
-2.43266002724e-07
1.70122032127e-06
-2.25702605916e-07
1.74611030235e-06
-2.1037131151e-07
1.78688463879e-06
-1.97058694985e-07
1.82398626869e-06
-1.83944744565e-07
1.85779105959e-06
-1.69911442349e-07
1.88843851675e-06
-1.54628330796e-07
1.91587579084e-06
-1.38057436168e-07
1.93998906882e-06
-1.20146586341e-07
1.9606196245e-06
-1.00941424159e-07
1.97712538073e-06
-8.07608403624e-08
1.98829153782e-06
-5.96098308579e-08
1.99391223458e-06
-3.66051326751e-08
1.99588070497e-06
-1.1743104092e-08
1.99460588331e-06
1.23859966256e-08
1.98791678046e-06
3.45398949097e-08
1.97338501468e-06
5.70118487475e-08
1.94785217652e-06
8.30402934265e-08
1.90603190931e-06
1.17149826387e-07
1.83925090473e-06
1.68135391718e-07
1.73759240845e-06
2.50780821386e-07
1.60883381804e-06
3.78621119585e-07
1.49652467318e-06
5.35287180277e-07
1.40329831434e-06
6.75003596521e-07
1.30660152612e-06
6.89508727111e-07
1.17849377744e-06
5.88944047255e-07
1.04000026737e-06
5.12202818284e-07
9.22073615118e-07
4.76367206633e-07
8.27202926551e-07
4.87748832281e-07
7.37532049835e-07
5.43394194375e-07
6.35607843675e-07
5.85923732967e-07
5.33034352641e-07
5.58329044363e-07
4.37589549589e-07
5.08790147464e-07
3.43550512394e-07
4.83131896687e-07
2.50833923374e-07
4.65671559876e-07
1.67779782625e-07
4.37136126726e-07
1.19331414441e-07
3.51444592604e-07
7.32937984198e-08
2.98573217897e-07
2.86073846925e-08
3.56449332527e-07
3.60997402154e-07
1.10422185797e-10
-1.00760808875e-07
2.07204936002e-08
-1.15392831976e-07
3.26580946481e-08
-1.5257670263e-07
4.15523120313e-08
-1.42400008615e-07
4.10743994337e-08
-8.785540492e-08
8.06281771865e-08
-1.11187029918e-07
1.18078966095e-07
-1.57196769133e-07
1.380142659e-07
-1.66428196775e-07
1.62969666084e-07
-1.69031294495e-07
1.89956805572e-07
-1.68337849269e-07
2.10890505466e-07
-1.6211144255e-07
2.12339485215e-07
-1.32642733519e-07
2.22573615794e-07
-1.26612287357e-07
2.52310010585e-07
-1.42003668818e-07
2.98075024914e-07
-1.71488863271e-07
3.55378628314e-07
-2.05806037814e-07
4.09283761636e-07
-2.28264985461e-07
4.49837154781e-07
-2.38998018965e-07
4.87576060602e-07
-2.53224849204e-07
5.3230495703e-07
-2.73710419861e-07
5.78726293926e-07
-2.86865009551e-07
6.24824949301e-07
-2.91669548786e-07
6.72079813426e-07
-2.92911210402e-07
7.20589889674e-07
-2.9291289903e-07
7.69217428212e-07
-2.92776912949e-07
8.16282908643e-07
-2.924311872e-07
8.66864299393e-07
-2.97325551596e-07
9.16902661992e-07
-2.99097544845e-07
9.68008096532e-07
-3.00504865499e-07
1.01478854982e-06
-2.97516032407e-07
1.06597336015e-06
-3.01234818176e-07
1.12129534176e-06
-3.08808591698e-07
1.17911356979e-06
-3.18639732036e-07
1.2484663317e-06
-3.38666182935e-07
1.3183647019e-06
-3.51723210384e-07
1.38109223718e-06
-3.54239862855e-07
1.43939374505e-06
-3.48926691063e-07
1.49541495688e-06
-3.39369582692e-07
1.54945277425e-06
-3.27182523387e-07
1.60172521311e-06
-3.12158282849e-07
1.65268869002e-06
-2.94079804975e-07
1.70177435793e-06
-2.74638399076e-07
1.74759259757e-06
-2.56038476734e-07
1.78939414069e-06
-2.38707745916e-07
1.827292552e-06
-2.21688305664e-07
1.86159857702e-06
-2.0406026423e-07
1.89248500697e-06
-1.85354263537e-07
1.91993423728e-06
-1.6534250866e-07
1.94381336002e-06
-1.43857349984e-07
1.96386290779e-06
-1.20817289258e-07
1.97952080602e-06
-9.62398650321e-08
1.99010296446e-06
-7.000809167e-08
1.9956204309e-06
-4.1930550876e-08
1.99666640001e-06
-1.25910440881e-08
1.99242029175e-06
1.68422522769e-08
1.98011672264e-06
4.70680569703e-08
1.95592191254e-06
8.1452041497e-08
1.91456271056e-06
1.24670149839e-07
1.84915486787e-06
1.82863500049e-07
1.75402079244e-06
2.63612836364e-07
1.63165116301e-06
3.73527171259e-07
1.50202660123e-06
5.08634860418e-07
1.40368731512e-06
6.34023192628e-07
1.30616233636e-06
7.72921197582e-07
1.19093724694e-06
8.05102092384e-07
1.08600569199e-06
6.94195348724e-07
9.6360782904e-07
6.34879853397e-07
8.43146543502e-07
5.97110732423e-07
7.42891693136e-07
5.88301963327e-07
6.4628138323e-07
6.40340509742e-07
5.43820710101e-07
6.88757715546e-07
4.56448025966e-07
6.4604030882e-07
3.63579989482e-07
6.01986973704e-07
2.69317270064e-07
5.77736324874e-07
1.83551518041e-07
5.51792280959e-07
1.28233779059e-07
4.92768140715e-07
8.42040676885e-08
3.95756444832e-07
4.44677947753e-08
3.38704130479e-07
1.87969781306e-08
3.82157859638e-07
3.80140787121e-07
6.56019513472e-09
-1.06940502448e-07
2.78754428132e-08
-1.36290266068e-07
3.55970001791e-08
-1.59757879691e-07
2.77833583531e-08
-1.34173193935e-07
4.31741619972e-08
-1.02967540622e-07
8.37174833963e-08
-1.51359687036e-07
1.03171101674e-07
-1.76251154197e-07
1.19628526786e-07
-1.82450195732e-07
1.37889874336e-07
-1.86898018695e-07
1.6389213823e-07
-1.9391864407e-07
1.66767135063e-07
-1.64660300516e-07
1.72937983325e-07
-1.38565995252e-07
2.00067153973e-07
-1.5352368008e-07
2.37212050766e-07
-1.78942358834e-07
2.9054775223e-07
-2.24598042908e-07
3.43956562689e-07
-2.58975620252e-07
3.82173986296e-07
-2.66256404517e-07
4.17588738056e-07
-2.74201408075e-07
4.63525611339e-07
-2.98954637583e-07
5.11085552716e-07
-3.21067291753e-07
5.5641286911e-07
-3.31996519706e-07
6.02354937892e-07
-3.37424770716e-07
6.49899627439e-07
-3.40278356385e-07
6.96820442264e-07
-3.39661915862e-07
7.43216513513e-07
-3.39008619228e-07
7.91161392933e-07
-3.40217139232e-07
8.39842171792e-07
-3.45851145571e-07
8.91061266574e-07
-3.50164939174e-07
9.39395056687e-07
-3.48689261397e-07
9.87418471742e-07
-3.45392013433e-07
1.04505627736e-06
-3.58726414802e-07
1.10563465994e-06
-3.69243287744e-07
1.17419677025e-06
-3.87057571548e-07
1.24455491586e-06
-4.08875632912e-07
1.31361211139e-06
-4.20628036577e-07
1.37602194075e-06
-4.1649636745e-07
1.43451446158e-06
-4.07266352479e-07
1.49135444474e-06
-3.96056787626e-07
1.54679677218e-06
-3.82472052201e-07
1.60062802348e-06
-3.65836143583e-07
1.6528041593e-06
-3.46101967829e-07
1.70281425924e-06
-3.24493308966e-07
1.74961670921e-06
-3.02684399968e-07
1.79247164313e-06
-2.81404038613e-07
1.831263704e-06
-2.60319573179e-07
1.86615781728e-06
-2.38790485541e-07
1.89727130673e-06
-2.16300265719e-07
1.92457780108e-06
-1.92477287732e-07
1.94794815838e-06
-1.67050272973e-07
1.96714905418e-06
-1.39836761033e-07
1.9817847914e-06
-1.10689848587e-07
1.9914190253e-06
-7.94504256134e-08
1.99577743748e-06
-4.60954234225e-08
1.99423047819e-06
-1.0839489217e-08
1.98458488689e-06
2.66997227941e-08
1.96291343545e-06
6.89664692879e-08
1.92427266529e-06
1.20337030927e-07
1.86373200997e-06
1.85478855981e-07
1.77859437644e-06
2.68292972228e-07
1.67178334993e-06
3.70737373761e-07
1.55749170956e-06
4.88149888057e-07
1.45678543787e-06
6.09677892655e-07
1.35552069522e-06
7.3562370239e-07
1.25118432089e-06
8.77615816557e-07
1.10389039349e-06
9.52750290169e-07
9.87632247546e-07
8.10744864948e-07
8.93978378751e-07
7.28828117378e-07
7.84989909165e-07
7.06385677059e-07
6.70838358504e-07
7.0274231109e-07
5.61173945866e-07
7.50324799563e-07
4.74315257471e-07
7.75923921373e-07
3.89582772635e-07
7.31065830188e-07
2.90141418493e-07
7.01717097052e-07
1.98378568062e-07
6.69804869115e-07
1.27099174732e-07
6.2337356069e-07
9.14196758632e-08
5.28741632816e-07
4.6073126651e-08
4.41353254606e-07
1.04330396653e-08
3.74460409171e-07
5.45804877641e-09
3.8777914546e-07
3.85583091944e-07
1.18673342743e-08
-1.18630513673e-07
2.75894695176e-08
-1.51606706685e-07
3.00872424807e-08
-1.61885822471e-07
1.60775383633e-08
-1.19884128583e-07
4.26649820238e-08
-1.2925557645e-07
7.09659853362e-08
-1.79283036411e-07
8.5134810169e-08
-1.90014329586e-07
1.00538100531e-07
-1.97468019293e-07
1.07383969774e-07
-1.93313954184e-07
1.23448818511e-07
-2.09629812202e-07
1.21382815107e-07
-1.62326538895e-07
1.47614735104e-07
-1.64571806688e-07
1.77918484188e-07
-1.83612994146e-07
2.23524829649e-07
-2.24323285885e-07
2.7486704696e-07
-2.75693538196e-07
3.12787220225e-07
-2.9664839436e-07
3.44088377288e-07
-2.97329976873e-07
3.88496297009e-07
-3.1839127074e-07
4.37703206161e-07
-3.47947104416e-07
4.83393307671e-07
-3.6654893238e-07
5.28167313695e-07
-3.76572176411e-07
5.73868193377e-07
-3.82937819972e-07
6.22414097907e-07
-3.88641889345e-07
6.70841184042e-07
-3.8791568987e-07
7.1515686674e-07
-3.83158005931e-07
7.661695245e-07
-3.91067531663e-07
8.13512085245e-07
-3.93035859182e-07
8.6057130067e-07
-3.97070171761e-07
9.08581922075e-07
-3.96550796409e-07
9.73774849494e-07
-4.10435099673e-07
1.03330986574e-06
-4.18111966568e-07
1.09367542721e-06
-4.2946183732e-07
1.16554161216e-06
-4.58774220473e-07
1.24007073133e-06
-4.83250338901e-07
1.30537539593e-06
-4.8577594902e-07
1.36731473129e-06
-4.78278615239e-07
1.42760126645e-06
-4.67396016019e-07
1.48641949692e-06
-4.54718359134e-07
1.54376406924e-06
-4.39659523823e-07
1.59942217149e-06
-4.21336455227e-07
1.65312593899e-06
-3.99646682236e-07
1.70436585143e-06
-3.75572677201e-07
1.7523313946e-06
-3.50487202679e-07
1.79632905827e-06
-3.25236637747e-07
1.83607803562e-06
-2.99900379612e-07
1.87156453525e-06
-2.74105353075e-07
1.90279371532e-06
-2.47353549308e-07
1.92970730484e-06
-2.19209126363e-07
1.95221720688e-06
-1.8937456168e-07
1.97019959963e-06
-1.57628146963e-07
1.98340994892e-06
-1.23706917597e-07
1.99140664827e-06
-8.72542470237e-08
1.99332558519e-06
-4.78133808339e-08
1.98719242619e-06
-4.50321536366e-09
1.96932349546e-06
4.47835334753e-08
1.93496498151e-06
1.03559245608e-07
1.88028361077e-06
1.75259653143e-07
1.80489085924e-06
2.61134564332e-07
1.71194923939e-06
3.61495861446e-07
1.60710501074e-06
4.75880394919e-07
1.50362298811e-06
5.91938455748e-07
1.41113178723e-06
7.02468833778e-07
1.32686872489e-06
8.20188007627e-07
1.26077676702e-06
9.44013273479e-07
1.13539405322e-06
1.07842778535e-06
9.30033594445e-07
1.01637437976e-06
7.9782952885e-07
8.61305957589e-07
6.88351670119e-07
8.16162392222e-07
5.78297891849e-07
8.13125695572e-07
4.88583920913e-07
8.40304399557e-07
4.15177914086e-07
8.49575856148e-07
3.17802556795e-07
8.28676187735e-07
2.1385648317e-07
8.05921453408e-07
1.29288784799e-07
7.54632911209e-07
7.51643300674e-08
6.77747057802e-07
3.57440226652e-08
5.68419871531e-07
-3.32009919628e-09
4.80687202652e-07
-3.28833455816e-08
4.04471382501e-07
-2.20749980096e-08
3.76916435912e-07
3.63878584947e-07
1.35229087532e-08
-1.31727253653e-07
2.14837425524e-08
-1.59152488438e-07
1.6354633283e-08
-1.56350256375e-07
1.70665973652e-08
-1.20329037512e-07
4.42809637448e-08
-1.56144213735e-07
5.39833779179e-08
-1.88605794801e-07
6.56677447917e-08
-2.01310736278e-07
7.97715545223e-08
-2.11183813421e-07
8.25668051327e-08
-1.9576587042e-07
9.07045871512e-08
-2.17404916932e-07
1.0237156878e-07
-1.73754409468e-07
1.26497900391e-07
-1.88473898986e-07
1.57739048407e-07
-2.14644046131e-07
2.06096799124e-07
-2.72441039505e-07
2.49007732621e-07
-3.18334548288e-07
2.7642979187e-07
-3.23817800781e-07
3.11330106989e-07
-3.31998282112e-07
3.57905804108e-07
-3.64742059017e-07
4.05246867984e-07
-3.95067961284e-07
4.5076688627e-07
-4.11858564539e-07
4.95972985474e-07
-4.21578502856e-07
5.40455881475e-07
-4.27225771869e-07
5.8619794029e-07
-4.34197708368e-07
6.33455231319e-07
-4.34997258305e-07
6.77269844078e-07
-4.26804217299e-07
7.2663694143e-07
-4.40270021783e-07
7.78572042584e-07
-4.44812564956e-07
8.33657349279e-07
-4.51999551824e-07
8.91882444749e-07
-4.54622567102e-07
9.49284647227e-07
-4.67685558794e-07
1.01182285237e-06
-4.80500562802e-07
1.08851772054e-06
-5.06004302446e-07
1.16229871782e-06
-5.32399133835e-07
1.22873238913e-06
-5.49524808379e-07
1.29315777969e-06
-5.50040422869e-07
1.35671491486e-06
-5.41674443922e-07
1.4193188286e-06
-5.29838953493e-07
1.48055758542e-06
-5.15796071871e-07
1.54019762591e-06
-4.99138052545e-07
1.59801287332e-06
-4.78988858346e-07
1.65362968148e-06
-4.55098903849e-07
1.70648661732e-06
-4.28262575668e-07
1.75588314609e-06
-3.9971411932e-07
1.80117878494e-06
-3.70359443773e-07
1.84195541506e-06
-3.40500829294e-07
1.87798746776e-06
-3.09956882968e-07
1.90913136864e-06
-2.7831130789e-07
1.9352927522e-06
-2.45180341656e-07
1.95646400782e-06
-2.1034832383e-07
1.97267698906e-06
-1.73646095246e-07
1.98382951587e-06
-1.34663089429e-07
1.989333688e-06
-9.2559658215e-08
1.98752717983e-06
-4.58098374283e-08
1.97497654585e-06
8.25548228154e-09
1.94656127197e-06
7.34315518404e-08
1.89787131855e-06
1.52475748427e-07
1.82932533189e-06
2.44054102491e-07
1.74767180277e-06
3.43023003573e-07
1.65698107032e-06
4.52490789666e-07
1.5518959782e-06
5.81253387201e-07
1.44451836654e-06
6.99604606598e-07
1.35602578011e-06
7.91233590126e-07
1.29040897763e-06
8.86046314988e-07
1.24181688254e-06
9.92839565261e-07
1.19672289772e-06
1.12374368409e-06
9.93516915985e-07
1.21986426138e-06
7.22877324671e-07
1.1322943444e-06
6.01428316384e-07
9.37997801745e-07
5.11673751908e-07
9.03188148505e-07
4.37045919206e-07
9.15217940186e-07
3.53595921575e-07
9.33254770157e-07
2.40217458632e-07
9.42280046086e-07
1.32503775696e-07
9.13855974785e-07
5.8942023487e-08
8.28407945736e-07
7.70036612472e-09
7.29260752107e-07
-4.23665776861e-08
6.18780023201e-07
-7.57019053437e-08
5.14310456771e-07
-8.67262010173e-08
4.15588261896e-07
-5.54395775025e-08
3.4632316437e-07
3.08387314506e-07
1.30114099543e-08
-1.44560965449e-07
1.7849170783e-08
-1.63649999352e-07
7.00910637737e-09
-1.45207160172e-07
1.47887286353e-08
-1.27806026662e-07
3.4484920087e-08
-1.75463977217e-07
3.65843134026e-08
-1.90320436074e-07
4.41932311897e-08
-2.08556322408e-07
5.1502906411e-08
-2.18126069129e-07
6.31512630414e-08
-2.07112734585e-07
5.73655893488e-08
-2.11337759658e-07
7.70640992808e-08
-1.93219007312e-07
1.03517551333e-07
-2.1472263669e-07
1.34476122698e-07
-2.45373106904e-07
1.76027458819e-07
-3.13728604013e-07
2.08790694535e-07
-3.50832827646e-07
2.31328235031e-07
-3.46106446204e-07
2.719916162e-07
-3.72424587329e-07
3.19943927828e-07
-4.12462196792e-07
3.6660725265e-07
-4.41507366943e-07
4.13177413952e-07
-4.58214895643e-07
4.59921856222e-07
-4.68114533556e-07
5.05688046493e-07
-4.72794885345e-07
5.48222679633e-07
-4.76541617181e-07
5.94117430179e-07
-4.80711688168e-07
6.43866573994e-07
-4.76385208509e-07
6.89271880547e-07
-4.85508048073e-07
7.39580537631e-07
-4.94959052191e-07
7.87758444158e-07
-5.00019750122e-07
8.53812049418e-07
-5.20521353391e-07
9.21464054837e-07
-5.3518520717e-07
9.9389209654e-07
-5.52775777971e-07
1.06719971643e-06
-5.79156548373e-07
1.14472444428e-06
-6.09762459606e-07
1.2137298304e-06
-6.18365654032e-07
1.27918134424e-06
-6.15326554808e-07
1.34459896216e-06
-6.06926804648e-07
1.40974907744e-06
-5.94823826655e-07
1.47374047483e-06
-5.79622020546e-07
1.53605658917e-06
-5.61287660277e-07
1.59639274675e-06
-5.39156930617e-07
1.65432136595e-06
-5.12856960315e-07
1.70922743843e-06
-4.82995228936e-07
1.76041881472e-06
-4.50728439025e-07
1.80724732797e-06
-4.17006983318e-07
1.84916289097e-06
-3.82230883377e-07
1.88570030871e-06
-3.46303432537e-07
1.91650100032e-06
-3.08917102922e-07
1.94142132655e-06
-2.69896748509e-07
1.96057724629e-06
-2.29305482623e-07
1.97425151001e-06
-1.87114582839e-07
1.98254063623e-06
-1.42755641437e-07
1.98473606835e-06
-9.45621066537e-08
1.97836911605e-06
-3.92386887519e-08
1.95845130388e-06
2.8396636108e-08
1.91838401399e-06
1.13723760968e-07
1.85537575998e-06
2.15725810447e-07
1.77661057932e-06
3.23084100933e-07
1.69706122193e-06
4.22854230924e-07
1.61396167818e-06
5.35809882488e-07
1.49288751362e-06
7.02657984087e-07
1.36146708106e-06
8.31330629248e-07
1.27344697841e-06
8.79490083812e-07
1.22150338591e-06
9.38181753234e-07
1.19555446807e-06
1.01892835445e-06
1.19217271951e-06
1.12728431742e-06
1.13926040568e-06
1.27304156827e-06
8.50802586369e-07
1.42109281887e-06
5.30955377073e-07
1.25820992978e-06
4.46758690699e-07
9.87779514514e-07
3.88819036925e-07
9.73414375252e-07
2.86804978046e-07
1.03543676079e-06
1.5379270612e-07
1.07540040526e-06
4.02176159945e-08
1.02753046171e-06
-1.38076542377e-08
8.82572147068e-07
-7.70668149433e-08
7.92753886262e-07
-1.38391269637e-07
6.80375629186e-07
-1.66223096415e-07
5.42539113897e-07
-1.45745840733e-07
3.95603115692e-07
-8.5915684299e-08
2.86338256969e-07
2.22801006102e-07
9.1378385094e-09
-1.53233777092e-07
1.14625992506e-08
-1.65582333758e-07
3.24287067784e-09
-1.3668587274e-07
1.3697007816e-08