/*--------------------------------*- C++ -*----------------------------------*\
| =========                 |                                                 |
| \\      /  F ield         | OpenFOAM: The Open Source CFD Toolbox           |
|  \\    /   O peration     | Version:  v1806                                 |
|   \\  /    A nd           | Web:      www.OpenFOAM.com                      |
|    \\/     M anipulation  |                                                 |
\*---------------------------------------------------------------------------*/
FoamFile
{
    version     2.0;
    format      ascii;
    class       volScalarField;
    location    "577";
    object      pa;
}
// * * * * * * * * * * * * * * * * * * * * * * * * * * * * * * * * * * * * * //

dimensions      [0 2 -2 0 0 0 0];


internalField   nonuniform List<scalar> 
6400
(
-0.119771189703
-0.119772523516
-0.119776260137
-0.1197835346
-0.119794314531
-0.119808602761
-0.11982647077
-0.119848551541
-0.119875393283
-0.119907758926
-0.119948676064
-0.119999944736
-0.120060528937
-0.120130753432
-0.120212027595
-0.120306151611
-0.12041449359
-0.120537497062
-0.1206746373
-0.120823520045
-0.120981371591
-0.121149345574
-0.121332147216
-0.121534979535
-0.121761579119
-0.122012642552
-0.122286698368
-0.122582796328
-0.122901488916
-0.123244087316
-0.123611833455
-0.124004267555
-0.124417706318
-0.124848243454
-0.125294488213
-0.125754538442
-0.126228909216
-0.12672338403
-0.127237250409
-0.127762535087
-0.128300421683
-0.128863410024
-0.129458449025
-0.13007850659
-0.13071365383
-0.131357019055
-0.132003249703
-0.132648274608
-0.133288301046
-0.133920031415
-0.13454086919
-0.135145130445
-0.13572287225
-0.136260757296
-0.136756420768
-0.137216296111
-0.137634920916
-0.137997729576
-0.138298213202
-0.13854470883
-0.138743504359
-0.138897472484
-0.139002100176
-0.139086783444
-0.139193584541
-0.139360756039
-0.139578225723
-0.139797652687
-0.139982658609
-0.140130384183
-0.140250271734
-0.140352968159
-0.140445263035
-0.14052498883
-0.140594325985
-0.140653182942
-0.140701015744
-0.140731866486
-0.14075135169
-0.140759573654
-0.119769387152
-0.119770811856
-0.119774191582
-0.119781286755
-0.119792718052
-0.119807632594
-0.119825639476
-0.119846841473
-0.119872673186
-0.119904850017
-0.119945444936
-0.11999599178
-0.120056458079
-0.120126861304
-0.120207891003
-0.120300935417
-0.120408549881
-0.120531553674
-0.120669036855
-0.120817921993
-0.120974296065
-0.121140669338
-0.121322750116
-0.121525125907
-0.121751521561
-0.122002608705
-0.122276360017
-0.122572319298
-0.12289111893
-0.123233684262
-0.123600882111
-0.123993054695
-0.124406722036
-0.124836779704
-0.12528271456
-0.125742634942
-0.126216502904
-0.126711126088
-0.127225804886
-0.127751528701
-0.12828808573
-0.128850851108
-0.129448917951
-0.13007134402
-0.13070760385
-0.131352283315
-0.131999908786
-0.132646702519
-0.133288364978
-0.13392000268
-0.134538872039
-0.13514381328
-0.135727775127
-0.136268520572
-0.136766151735
-0.137230007921
-0.137646512417
-0.138005017911
-0.138305712279
-0.138551836467
-0.13874641735
-0.138900778896
-0.139009941276
-0.139099110888
-0.139209649425
-0.139377170497
-0.139597360675
-0.139815977134
-0.139998941422
-0.140145584756
-0.140264714356
-0.140367273484
-0.14046017963
-0.140540951979
-0.140609139434
-0.140665712782
-0.140709692368
-0.140739271839
-0.140758051251
-0.140764289411
-0.11976426503
-0.119766554218
-0.119769559797
-0.119776017804
-0.119786969353
-0.119803435644
-0.119822728634
-0.119843045606
-0.119867339423
-0.119898479101
-0.119938308842
-0.119988084103
-0.120048064919
-0.120118151818
-0.12019846641
-0.120288868078
-0.120394137779
-0.120518752764
-0.120657053955
-0.12080453878
-0.120958022858
-0.121120501113
-0.121300962782
-0.121503817567
-0.121729713777
-0.121979522331
-0.122252883007
-0.122548844448
-0.122867468846
-0.123209659649
-0.123576157054
-0.123967783892
-0.124381909402
-0.124810465515
-0.125254177258
-0.125714826626
-0.1261880804
-0.126681071554
-0.127196219074
-0.127724315788
-0.128266154409
-0.128832634934
-0.129429707634
-0.130051221604
-0.130688294508
-0.131334556088
-0.131984792215
-0.132634587208
-0.133279582424
-0.133915522828
-0.134538967375
-0.135145574239
-0.135726389786
-0.136270952113
-0.136778353678
-0.137244570906
-0.13765844291
-0.138015251499
-0.13831531004
-0.138561212784
-0.138758077883
-0.138911553822
-0.139025029501
-0.139125394558
-0.13925012199
-0.139425161199
-0.139636568754
-0.13984699946
-0.140029653919
-0.140177464494
-0.140297844643
-0.140400723287
-0.140490329371
-0.140566732515
-0.140632386777
-0.140686206646
-0.140726257015
-0.140753418607
-0.140770264397
-0.140776282903
-0.119757017611
-0.119759316226
-0.119761795908
-0.119767650031
-0.11977712159
-0.119793182213
-0.119817155424
-0.119837280722
-0.119859473354
-0.119888900604
-0.119927521582
-0.119976420923
-0.120035794813
-0.120104775587
-0.120183678922
-0.120274896422
-0.120380900196
-0.120502767184
-0.120635673715
-0.120775887635
-0.120925804576
-0.121089141751
-0.12126968833
-0.121471377646
-0.121696341374
-0.121945358775
-0.122218149258
-0.122513750628
-0.122832033032
-0.123173558125
-0.12353958481
-0.123930481837
-0.12434378832
-0.124773202632
-0.1252133605
-0.125670003514
-0.126145340102
-0.126637779853
-0.127150162143
-0.127680878808
-0.128229407782
-0.128801175045
-0.129399991385
-0.130022283177
-0.130661094118
-0.131310111012
-0.131963960175
-0.132617938418
-0.133267583462
-0.133908575896
-0.134536682784
-0.135146585873
-0.135730664526
-0.13628126751
-0.13679374048
-0.13726117974
-0.137674894447
-0.138031110217
-0.138330603301
-0.138576684305
-0.138774939356
-0.13893250812
-0.139060240245
-0.139181084531
-0.139316416859
-0.139485021512
-0.139692342792
-0.139900574829
-0.140082655836
-0.14023049985
-0.140348455131
-0.140445116359
-0.140528129671
-0.140603563231
-0.140669383135
-0.140719230127
-0.140753529324
-0.140779240283
-0.140796890183
-0.140804099882
-0.119745677206
-0.119746120767
-0.119749083566
-0.119754905025
-0.119765122134
-0.119779645013
-0.119801062983
-0.119822936328
-0.119846098182
-0.119875167023
-0.119912532277
-0.119960465467
-0.120019096264
-0.12008903745
-0.120169831427
-0.120259711302
-0.120360890209
-0.120474634543
-0.120600188766
-0.120737108443
-0.120885923786
-0.121048251448
-0.121227813047
-0.12142840788
-0.121652089139
-0.121899933479
-0.122171619095
-0.122466546331
-0.122784291225
-0.123125280279
-0.123490198115
-0.123881064451
-0.124295330113
-0.124720521336
-0.125157808441
-0.125611575221
-0.126083437818
-0.12657633256
-0.127090601483
-0.127624981704
-0.128179354906
-0.128756553217
-0.129358676137
-0.129983357473
-0.130625130661
-0.131278065396
-0.131936699577
-0.132596115867
-0.133251721377
-0.133899016591
-0.134533255774
-0.135148739871
-0.135738519396
-0.136295510257
-0.136812955413
-0.137282671912
-0.137697216349
-0.138053819726
-0.138354040282
-0.138602360465
-0.138805868061
-0.138974092789
-0.139121081201
-0.139261253871
-0.13940268915
-0.13956992903
-0.139771841341
-0.139975862207
-0.140155914078
-0.140300993517
-0.140412321284
-0.140501673365
-0.140584331301
-0.140662551954
-0.140725310994
-0.140769572369
-0.140801484515
-0.140829763486
-0.140846576229
-0.140852065159
-0.119725053089
-0.119724969681
-0.11972976799
-0.119735559064
-0.119746363522
-0.11976117085
-0.119780881488
-0.119802573405
-0.119827071195
-0.119856343602
-0.119892053169
-0.119938894408
-0.119999623269
-0.120071446618
-0.120150031652
-0.120235481722
-0.120330356562
-0.120437684173
-0.120558380937
-0.120691746908
-0.120837276052
-0.120997369159
-0.121175486892
-0.121374769264
-0.121596978937
-0.121842818809
-0.122113126672
-0.122406917909
-0.1227240585
-0.123064372615
-0.123428871539
-0.12381813261
-0.124229008733
-0.124654863252
-0.125087061804
-0.125535042212
-0.126005592977
-0.126499880317
-0.127016945345
-0.127555573982
-0.128115633174
-0.128698578713
-0.129305348846
-0.12993404318
-0.130580190335
-0.131238323536
-0.131903006157
-0.132569189379
-0.133232157704
-0.133887238246
-0.134529371374
-0.135152650825
-0.135750203414
-0.13631453206
-0.136837538257
-0.137310718647
-0.13772776128
-0.138087021377
-0.138391092804
-0.138645775227
-0.13885946053
-0.139043003206
-0.139211735279
-0.139365085981
-0.139512967187
-0.139684801833
-0.139885702653
-0.140082554719
-0.140254527655
-0.140390187273
-0.140492447251
-0.140580657671
-0.140668611955
-0.140745464175
-0.14080262151
-0.140842552683
-0.140875614956
-0.140902722741
-0.140916551298
-0.140922035317
-0.119693845309
-0.11969605883
-0.119703804199
-0.119712131377
-0.119720698666
-0.119735245573
-0.119755366543
-0.119777138936
-0.119802248162
-0.119831654611
-0.119868076017
-0.119914205641
-0.119975796241
-0.120045228947
-0.120119799753
-0.120199879932
-0.120289798363
-0.120393303115
-0.12051013987
-0.120638167175
-0.120779445592
-0.120937035395
-0.121113007067
-0.121310031486
-0.121530196014
-0.121774880098
-0.122041963635
-0.122334194302
-0.12265067922
-0.122991736604
-0.123354776059
-0.123740516083
-0.124148471053
-0.124567594916
-0.124996769396
-0.125442327604
-0.125912600695
-0.126408626276
-0.126928868697
-0.127472005968
-0.128037810414
-0.128626938997
-0.129239532953
-0.12987378735
-0.130525824207
-0.131190581485
-0.131862726408
-0.132537168884
-0.133209118543
-0.133873769263
-0.134525832361
-0.135159138531
-0.135766464241
-0.136339601536
-0.136869689565
-0.137348503138
-0.137770967201
-0.13813664874
-0.13844913476
-0.138714880526
-0.138943085575
-0.139145374286
-0.13933075417
-0.139497187698
-0.139662950612
-0.139840265867
-0.140037243921
-0.140220668678
-0.140376148037
-0.140498718487
-0.140597566768
-0.140692047459
-0.140782275077
-0.140853755242
-0.14090531798
-0.14094289336
-0.140975895985
-0.140997312254
-0.141005260325
-0.141009477736
-0.119657371889
-0.119661747806
-0.119670373276
-0.119681988147
-0.119690726208
-0.119705642008
-0.11972442907
-0.119746377078
-0.119772302151
-0.119799373571
-0.119837604855
-0.119886365596
-0.119944950059
-0.120010475308
-0.120080109907
-0.120154766775
-0.120241459947
-0.120342013551
-0.120453406626
-0.120575806481
-0.120712589087
-0.120866810059
-0.121039960469
-0.121234893272
-0.121452992727
-0.121694752848
-0.121960407818
-0.122247096022
-0.122564062519
-0.122906663155
-0.123267215752
-0.123645412876
-0.124047997534
-0.12446207128
-0.124887071991
-0.125333001654
-0.125804367961
-0.126302246156
-0.126825705377
-0.127373533528
-0.12794531211
-0.128541169968
-0.129160698262
-0.129802004099
-0.130461511257
-0.131134464002
-0.131815680474
-0.132500112815
-0.133182950027
-0.133859284461
-0.134523609704
-0.135169395516
-0.135788853588
-0.136373081299
-0.136912939213
-0.137400913855
-0.137833183855
-0.138210056739
-0.138535008961
-0.138814290586
-0.139057526192
-0.139276164597
-0.139478052037
-0.13966823941
-0.139850866526
-0.140038079481
-0.140224072642
-0.140389233751
-0.140525467965
-0.140637305183
-0.140738021934
-0.140837965193
-0.140925096721
-0.140990729951
-0.141037313658
-0.141072423201
-0.141097525644
-0.141109162523
-0.141107863399
-0.14110653337
-0.119617669877
-0.1196232439
-0.119631619177
-0.11964064449
-0.119651665321
-0.11966951765
-0.119687412447
-0.119708915136
-0.119736658811
-0.119764348843
-0.1197988106
-0.119848811742
-0.119906055834
-0.119966675258
-0.120031630167
-0.120103597644
-0.120186185486
-0.120281719754
-0.1203875225
-0.12050493588
-0.120637044505
-0.120786689619
-0.120955315328
-0.121146634822
-0.121364807134
-0.121601955677
-0.12186516069
-0.122152139102
-0.122463851698
-0.122802413866
-0.123161571243
-0.123539570511
-0.123928921087
-0.124335451854
-0.124760022134
-0.125207122936
-0.125679990809
-0.126179904779
-0.126706632009
-0.127259313192
-0.127837409454
-0.128440641299
-0.129068191674
-0.129718014459
-0.130386641973
-0.131069523323
-0.131761658677
-0.132458113911
-0.133154101389
-0.133844628774
-0.134523969081
-0.135185177613
-0.135819864062
-0.136418612056
-0.136972400995
-0.137474586067
-0.137922131585
-0.138314485892
-0.138653419888
-0.138945290999
-0.139202216869
-0.139438111491
-0.139661381108
-0.139874449955
-0.140075185882
-0.140275903884
-0.140460160244
-0.140597070593
-0.140709970568
-0.140811827243
-0.140915048336
-0.141016257571
-0.141099527532
-0.141160774819
-0.141202656983
-0.141229595608
-0.141238761347
-0.141233890275
-0.14122007909
-0.141210365306
-0.119574329775
-0.119580570848
-0.119589917978
-0.119597745692
-0.119609269944
-0.119626375506
-0.119643846794
-0.119664073384
-0.11968982541
-0.119722592409
-0.11975606146
-0.119803330026
-0.119858217914
-0.119914752881
-0.119974446434
-0.120044224695
-0.120124228392
-0.120213469992
-0.120312650338
-0.120424766317
-0.120552470138
-0.120697654155
-0.120861317347
-0.12104590789
-0.121262109337
-0.121499426288
-0.121752720198
-0.122038652018
-0.122346814777
-0.12268329004
-0.123038687945
-0.123410027912
-0.123793847436
-0.124192984048
-0.124615753442
-0.125063894958
-0.125538468765
-0.126040621235
-0.12657070615
-0.127128378021
-0.127713171226
-0.128324505074
-0.128961196477
-0.129621008324
-0.13030048894
-0.130995226153
-0.131700410321
-0.132411277712
-0.133123106731
-0.133830841321
-0.134528551657
-0.135208915082
-0.135863046565
-0.136481264781
-0.137054872351
-0.137577797658
-0.138046520798
-0.138456462663
-0.138806843241
-0.139108871313
-0.139381158731
-0.139640202867
-0.139889568844
-0.140123924841
-0.140341595105
-0.140544501909
-0.140719519281
-0.140852503384
-0.140934142925
-0.141021434885
-0.141124080896
-0.141226488695
-0.141310354853
-0.141370829267
-0.141407380311
-0.14141824115
-0.141403596981
-0.141373662141
-0.141342423142
-0.141322335803
-0.119525643902
-0.119531384632
-0.119540973361
-0.119549946264
-0.119564118168
-0.119577804055
-0.119594044503
-0.119613461536
-0.119633824648
-0.119667610223
-0.119703584671
-0.119748337997
-0.11980036972
-0.119854488493
-0.119910596796
-0.119976090063
-0.120052354709
-0.120135958942
-0.120228698537
-0.120334407402
-0.12045679548
-0.12059801975
-0.120759385557
-0.120937063152
-0.121142573704
-0.12138154745
-0.121632672425
-0.121910790102
-0.122213933954
-0.122538165693
-0.122892563464
-0.123259841595
-0.123637706844
-0.12403282667
-0.12445407032
-0.124902641088
-0.125378749915
-0.125883279131
-0.126416864154
-0.126979651434
-0.12757149071
-0.128191679937
-0.128838677084
-0.129509999297
-0.130202165735
-0.13091089489
-0.1316315898
-0.132359683094
-0.133090552961
-0.13381913114
-0.13453937588
-0.135243732296
-0.135923054726
-0.13656763056
-0.137168961646
-0.137720300872
-0.138215750995
-0.138641983119
-0.138998702258
-0.139310732128
-0.139605046401
-0.13989809347
-0.140180782371
-0.14043447767
-0.140657930256
-0.140850554305
-0.141007194691
-0.14113453358
-0.141187708096
-0.141256261881
-0.141358494606
-0.141471772826
-0.141566236214
-0.141631866004
-0.141662143725
-0.141650272833
-0.141601308046
-0.141532779873
-0.141472548498
-0.141436568118
-0.119470426066
-0.119474611173
-0.119481143131
-0.119492741161
-0.119509807598
-0.119522064637
-0.119537248561
-0.119556953872
-0.11957436015
-0.119603622874
-0.119640545478
-0.119683385038
-0.119731913527
-0.119783854538
-0.119839585603
-0.119900903282
-0.119971483343
-0.120048975826
-0.120135509417
-0.120234241335
-0.120348952675
-0.120483336911
-0.120644296377
-0.120822226331
-0.121015385444
-0.121245759193
-0.121496000295
-0.121762999054
-0.122065292936
-0.122385444167
-0.122726380275
-0.123084503552
-0.123457915378
-0.12385292056
-0.124273567282
-0.124722173387
-0.125199548239
-0.125706526558
-0.126243848697
-0.126811934066
-0.127411089698
-0.128040835173
-0.128699346285
-0.12938377093
-0.130090568467
-0.13081564838
-0.131554673188
-0.132303281923
-0.133056972428
-0.133810771728
-0.134558716862
-0.135293328006
-0.136005627142
-0.136685983325
-0.13732509107
-0.137912158434
-0.138440522999
-0.138882687044
-0.139239911058
-0.13956340683
-0.139890039688
-0.140236290521
-0.140566533549
-0.140835911134
-0.14105828149
-0.141235630514
-0.14135413116
-0.14142583513
-0.141447108044
-0.141488285214
-0.141610044527
-0.14176180109
-0.141886616451
-0.141966964884
-0.141991769664
-0.141948364897
-0.141846009227
-0.141708195854
-0.141596329797
-0.141530511424
-0.119408785526
-0.119411532227
-0.119414016439
-0.119426560081
-0.119442334068
-0.119455964511
-0.119471063714
-0.119490770888
-0.119508600482
-0.119534228569
-0.119568984069
-0.11960892824
-0.119653336585
-0.119700744228
-0.119755824928
-0.119815576138
-0.119880871692
-0.119952146119
-0.120032482778
-0.120124424877
-0.120230605697
-0.120354743798
-0.120508632568
-0.120691013605
-0.120879592742
-0.121093728254
-0.121342217321
-0.12160282531
-0.121889949628
-0.122205419205
-0.122539845711
-0.122890781485
-0.123258509743
-0.1236518802
-0.124072139246
-0.124520864648
-0.124999327312
-0.125508630327
-0.126049928752
-0.126623778213
-0.127230632715
-0.127870481044
-0.128541606552
-0.129240787906
-0.129964300783
-0.13070830974
-0.131468843442
-0.132241746133
-0.133022646423
-0.133806828363
-0.134588776262
-0.135361704905
-0.136117468598
-0.136846232985
-0.137534862642
-0.138159666237
-0.138737826593
-0.139207839881
-0.139553508355
-0.139883427845
-0.140252627045
-0.140696957645
-0.141159874807
-0.141452965715
-0.141668238999
-0.141835893065
-0.141898305446
-0.141840414906
-0.141663205347
-0.141651656103
-0.141822128756
-0.14207438168
-0.142259023064
-0.142376250248
-0.142410960348
-0.142329538849
-0.14214485093
-0.14188337692
-0.141688401545
-0.141568671004
-0.119341561456
-0.119344428767
-0.119348263802
-0.119355669443
-0.119367542809
-0.119381357166
-0.119396412661
-0.119414532472
-0.11943448711
-0.119457313346
-0.119489051326
-0.119525528321
-0.119565782525
-0.119608244107
-0.119658171613
-0.119716177071
-0.119778074798
-0.119844294322
-0.119918584518
-0.120003781407
-0.120101938136
-0.12021550986
-0.120357598353
-0.12053766055
-0.120728353895
-0.120929100932
-0.121168789051
-0.12142695692
-0.121699137035
-0.122002143619
-0.122326261549
-0.122669998479
-0.123036548186
-0.123428662648
-0.123848102359
-0.124296741194
-0.124776338193
-0.125287984962
-0.125833107196
-0.126413033693
-0.127028318804
-0.127679011359
-0.128363719362
-0.129079187097
-0.12982155484
-0.13058727942
-0.131372843951
-0.132174265112
-0.132987252162
-0.133807654838
-0.134631077746
-0.135452519638
-0.136265849028
-0.13706046119
-0.13781221648
-0.138456708162
-0.139155850124
-0.139760599822
-0.13999683861
-0.140292487165
-0.140676504058
-0.141259441054
-0.141284486547
-0.141296190835
-0.141362444165
-0.141425425506
-0.141381413456
-0.141260220464
-0.141298189309
-0.141552019474
-0.142230919413
-0.142844781395
-0.143111348389
-0.143243930979
-0.143248264883
-0.143068618594
-0.142712613219
-0.142041620112
-0.141707809559
-0.141486932202
-0.119267588913
-0.119270692118
-0.119277264676
-0.119279529084
-0.119287466771
-0.119299985881
-0.119314341396
-0.119331476372
-0.119353876114
-0.119372891346
-0.119400854955
-0.119433619265
-0.119469892234
-0.119508310891
-0.119552591558
-0.119606081508
-0.119663718526
-0.119725052334
-0.119793301752
-0.119871395769
-0.119961683812
-0.120065976455
-0.120193819727
-0.120363072307
-0.120557388887
-0.120750921405
-0.120972476282
-0.121229852049
-0.121498398839
-0.121781223621
-0.122091789547
-0.122428041158
-0.122790932132
-0.12318106715
-0.123599414809
-0.124047800943
-0.124528186838
-0.125042303812
-0.125591523543
-0.126177527309
-0.126801713992
-0.127464240843
-0.128163692859
-0.128896876773
-0.129660107189
-0.130450405216
-0.131264786417
-0.132099259257
-0.132949424584
-0.133812096316
-0.134685283355
-0.135567684412
-0.136457246919
-0.137341735739
-0.138169456799
-0.138734321532
-0.139732094654
-0.139731897557
-0.139694586413
-0.139700390135
-0.139722280272
-0.139880967662
-0.140134102352
-0.140139816728
-0.139941194285
-0.139639172139
-0.139293551233
-0.138969027428
-0.138731229576
-0.138653093806
-0.138792306226
-0.139281450306
-0.139929935594
-0.140638018245
-0.141249336547
-0.141559288253
-0.141592041133
-0.141863354091
-0.141680709526
-0.141196682405
-0.11918580791
-0.119188297901
-0.119193230355
-0.119194874783
-0.11920040929
-0.119211562798
-0.119224200718
-0.119238707431
-0.119262054288
-0.119279661629
-0.119303966381
-0.119333121759
-0.119365788459
-0.119400830971
-0.119439797507
-0.119487170799
-0.119539165219
-0.119594956606
-0.119656723255
-0.11972722553
-0.119808939306
-0.119904136396
-0.120019248933
-0.120173147606
-0.12036329358
-0.120557662974
-0.12075987485
-0.120999338391
-0.121265018663
-0.121541031801
-0.121838037947
-0.122164294904
-0.12252121971
-0.122907954071
-0.123324434309
-0.123771903002
-0.124252747273
-0.124768957381
-0.125322437328
-0.125914872319
-0.126548245545
-0.127223440616
-0.127939061309
-0.128691525742
-0.129477302483
-0.130294723469
-0.131141957648
-0.132014337673
-0.132906122003
-0.133816076879
-0.134747484675
-0.135705416357
-0.136696683084
-0.137721804533
-0.138803014537
-0.138805314024
-0.138952917971
-0.139229367254
-0.13919221441
-0.138968727462
-0.138622336698
-0.138262404112
-0.137921686013
-0.137431765236
-0.136766733326
-0.136020707851
-0.135281520886
-0.134589169475
-0.133987131822
-0.133607579262
-0.133580046294
-0.134040861353
-0.134911558212
-0.136087021483
-0.137416993778
-0.138669038152
-0.139563533088
-0.139896658717
-0.140070884625
-0.140055407422
-0.119097454441
-0.119099251532
-0.119103312436
-0.119103595883
-0.119107812833
-0.119116985465
-0.119127287801
-0.119137585502
-0.119157291836
-0.119175609911
-0.119197481244
-0.119223284883
-0.11925272177
-0.11928541852
-0.119318503184
-0.119359240905
-0.119404786
-0.11945438624
-0.119508978319
-0.119571282046
-0.119643631831
-0.119728646603
-0.119831542248
-0.119968378375
-0.120145546203
-0.120342632445
-0.120534730542
-0.120752117845
-0.121000185371
-0.12126791375
-0.121555814729
-0.121874443054
-0.122224727203
-0.122606780508
-0.123020652987
-0.123466897609
-0.123947531654
-0.124465468793
-0.125022928699
-0.125622015562
-0.126265006596
-0.126953432789
-0.127686534404
-0.128460237438
-0.129270413815
-0.130117380673
-0.131001356123
-0.131915587942
-0.132851204278
-0.133811331209
-0.134807295296
-0.135850419872
-0.136944810316
-0.138181034145
-0.138264349303
-0.138395027873
-0.138527204072
-0.13862523738
-0.138446311525
-0.138000631618
-0.137340703925
-0.136553635554
-0.135689282693
-0.134752380365
-0.133762609557
-0.132744007327
-0.131685919432
-0.13056250647
-0.129430325963
-0.128486974484
-0.127921844948
-0.12785927174
-0.12835358496
-0.129397882375
-0.130967029893
-0.132929909249
-0.134854154213
-0.136222414542
-0.137638745451
-0.140107436608
-0.119004051793
-0.119004848942
-0.119006034054
-0.119005979561
-0.119010364818
-0.119017388844
-0.119025522147
-0.11903226769
-0.11904731641
-0.119063280342
-0.119081822941
-0.11910357263
-0.119128804766
-0.119159241405
-0.119186881055
-0.119220821885
-0.11925952316
-0.119302776706
-0.119349675605
-0.119403200268
-0.119465438157
-0.119539156393
-0.119629236238
-0.119748705857
-0.119907917562
-0.12009881605
-0.120291739821
-0.120492453859
-0.12071914877
-0.120969982404
-0.121246242414
-0.121555630183
-0.121897819589
-0.122273954896
-0.122684474956
-0.12312896295
-0.123609381724
-0.124128616039
-0.124689903338
-0.125295505554
-0.125948195146
-0.126650701954
-0.127402923232
-0.128200351666
-0.129035921063
-0.129911363208
-0.130834456884
-0.131797153479
-0.132777533572
-0.133785805998
-0.134849326674
-0.135982318825
-0.137215673713
-0.137260338133
-0.137470950536
-0.137878961035
-0.137996248489
-0.137775452245
-0.137228538074
-0.136412584754
-0.135375991237
-0.134183756592
-0.132886331394
-0.131527345143
-0.130141051599
-0.128734586483
-0.127283480789
-0.125768953896
-0.124249999746
-0.122898564786
-0.121920446878
-0.1214235582
-0.121477708968
-0.122159453445
-0.123562568241
-0.12571645574
-0.128186039805
-0.130125843581
-0.133045823886
-0.143450501173
-0.11890729117
-0.118907097325
-0.118905070979
-0.118904998814
-0.118908995759
-0.118913508787
-0.118918965881
-0.118923426117
-0.118932633889
-0.118944158596
-0.118957929047
-0.118974470645
-0.118993775569
-0.119018453689
-0.119042508512
-0.119070220276
-0.119101707015
-0.119137911014
-0.119177334113
-0.11922198526
-0.119273684045
-0.119334942933
-0.119411418507
-0.11951305882
-0.119650639696
-0.119824455074
-0.120015132463
-0.120206565456
-0.120415417757
-0.120649288877
-0.120909627723
-0.121206051255
-0.121538867132
-0.121906572343
-0.122312339289
-0.122754380944
-0.123233645245
-0.123753961476
-0.124318961251
-0.124931531667
-0.125594252704
-0.12631074247
-0.127082453299
-0.127905993973
-0.128774122479
-0.129686974817
-0.130649523443
-0.131645648152
-0.132656735608
-0.13371258473
-0.134844170471
-0.136087554189
-0.136036991389
-0.13620407517
-0.136877496067
-0.137229128771
-0.137048658676
-0.136426235972
-0.135435238702
-0.134171560972
-0.132696612979
-0.131066564024
-0.129324651079
-0.127506739429
-0.125634626263
-0.123709655816
-0.121716137196
-0.119648996159
-0.117557698198
-0.115575086423
-0.113896085214
-0.112679375996
-0.111952375922
-0.111778990738
-0.112303247085
-0.113736461741
-0.115848925729
-0.117215012819
-0.117303332845
-0.121397302611
-0.118808373383
-0.118807498795
-0.118803709862
-0.118803448329
-0.118805214938
-0.118806236586
-0.118807314238
-0.118809583735
-0.118812489001
-0.118818435458
-0.118826541903
-0.118837084784
-0.11884987198
-0.118866246758
-0.118885602011
-0.118907251172
-0.118931217227
-0.118958950628
-0.118990252124
-0.119026057206
-0.119067266423
-0.119115241166
-0.11917707878
-0.119260565227
-0.119375430972
-0.119526094812
-0.119701742573
-0.11988507604
-0.120078670252
-0.120295833674
-0.120542156274
-0.120821412535
-0.121140791729
-0.121499098222
-0.121899461082
-0.122338677799
-0.122816160595
-0.123336713148
-0.123904678106
-0.124523844983
-0.125197211665
-0.125928609436
-0.126722562276
-0.127578823774
-0.128489475623
-0.129444673882
-0.130442429909
-0.131467240189
-0.132487738444
-0.133573964359
-0.134805452467
-0.13472890556
-0.134806083841
-0.135608030497
-0.136277524102
-0.136242783997
-0.135596956894
-0.134485883795
-0.133003986856
-0.131244728351
-0.129267283505
-0.127117359944
-0.124826052376
-0.122414141431
-0.119889129951
-0.117247272594
-0.114480716939
-0.111595341329
-0.108633813946
-0.105695071321
-0.102935847911
-0.100509351742
-0.0983846977734
-0.0964690193446
-0.0948319044221
-0.0938390328242
-0.0933544829197
-0.0895917985233
-0.074490329517
-0.0558074641615
-0.11870698951
-0.118705588218
-0.11870090065
-0.118700276471
-0.118699229395
-0.118696175476
-0.118692161058
-0.118691070458
-0.118686564951
-0.118686244682
-0.118688154778
-0.118692126952
-0.118698119511
-0.118706518554
-0.118718298673
-0.118732818425
-0.11874877008
-0.118767031562
-0.118788260899
-0.118814211334
-0.118844639263
-0.118878774562
-0.118924421309
-0.11898926334
-0.119081208547
-0.119206196948
-0.119361196633
-0.1195323279
-0.119717521394
-0.119914597266
-0.120142412235
-0.120404728472
-0.12070693129
-0.121048209487
-0.121437533314
-0.121874565229
-0.122351117122
-0.122872048677
-0.123441857854
-0.124066084399
-0.124749882336
-0.125498035302
-0.1263182933
-0.127212111025
-0.128165834832
-0.129168670779
-0.130219541832
-0.131301643091
-0.132291293183
-0.133401271943
-0.133435196336
-0.133456497923
-0.134240138092
-0.135133455399
-0.13536026972
-0.134775747186
-0.133568857042
-0.131894664046
-0.129856919708
-0.127533854159
-0.124972343354
-0.122205326039
-0.119254257758
-0.116133021865
-0.112847289091
-0.109397452484
-0.105784149587
-0.102017587201
-0.0981263611377
-0.0941627870853
-0.0901987884114
-0.0862892717928
-0.0823486804076
-0.0780415342137
-0.0732384314405
-0.0682603828417
-0.0624679082438
-0.0489917514503
-0.0120030235351
0.0423437851059
-0.118601857304
-0.118599878206
-0.118594864599
-0.118593688012
-0.118589666424
-0.118582443453
-0.118574014807
-0.118567747079
-0.118555312272
-0.118548158855
-0.118543139276
-0.118539752619
-0.118538201069
-0.118538021747
-0.118540703965
-0.11854680795
-0.118554404497
-0.118561995429
-0.118571393719
-0.118585754303
-0.118604121673
-0.118623884391
-0.118651357699
-0.118696716107
-0.118765679228
-0.11886341431
-0.11899303063
-0.119143083275
-0.11931689242
-0.11950153998
-0.119707876698
-0.119946171596
-0.120229973652
-0.120558587679
-0.120929860219
-0.121355784212
-0.121830179075
-0.1223512478
-0.122923871679
-0.123552495182
-0.124244571773
-0.125010594203
-0.125860055628
-0.126790410014
-0.127785409249
-0.128848605041
-0.130003078368
-0.131233163662
-0.131993119785
-0.132283045812
-0.132312491883
-0.132975703528
-0.133925272407
-0.134375778817
-0.133958849378
-0.13272904884
-0.130891218377
-0.128595070145
-0.125940379461
-0.122993229273
-0.119794163486
-0.116373299261
-0.112754754897
-0.108958966181
-0.105000780971
-0.100888150388
-0.09662182741
-0.0921973580747
-0.0876059025696
-0.082828805581
-0.0778192615353
-0.0724743092115
-0.0666019198105
-0.0597817828331
-0.0517251515224
-0.0425287950679
-0.0303989932448
-0.0057837807878
0.0481692178515
0.116954199694
-0.1184909135
-0.118488340097
-0.118482955541
-0.118480854018
-0.118473319188
-0.118462657235
-0.118450055861
-0.118437199801
-0.118417779291
-0.118404191142
-0.118391611617
-0.118380025993
-0.11836998619
-0.118360186217
-0.118352345078
-0.118348214682
-0.118346784372
-0.118342375511
-0.118338840008
-0.118339890021
-0.11834359894
-0.11834893837
-0.118357039356
-0.118380782178
-0.118426588365
-0.118496749988
-0.1185977006
-0.118720618003
-0.118870819641
-0.119044187505
-0.119235929216
-0.119450436935
-0.119703800528
-0.120011864135
-0.120371412713
-0.12078278738
-0.121249186137
-0.121767209111
-0.122340419665
-0.122973718284
-0.123674838267
-0.124457373676
-0.125330809077
-0.126287502862
-0.127326171568
-0.128492811131
-0.129910488786
-0.132032576239
-0.131456828123
-0.131544079151
-0.131915421413
-0.132821431391
-0.133363806357
-0.133135393151
-0.131977595919
-0.130040502836
-0.127525915486
-0.1245738065
-0.121277313024
-0.117699631665
-0.113886047396
-0.109874574194
-0.105698199811
-0.101383240925
-0.0969441707161
-0.0923783191699
-0.0876621306317
-0.0827513266581
-0.0775831226182
-0.0720704499098
-0.0660695434384