/*--------------------------------*- C++ -*----------------------------------*\
| =========                 |                                                 |
| \\      /  F ield         | OpenFOAM: The Open Source CFD Toolbox           |
|  \\    /   O peration     | Version:  v1806                                 |
|   \\  /    A nd           | Web:      www.OpenFOAM.com                      |
|    \\/     M anipulation  |                                                 |
\*---------------------------------------------------------------------------*/
FoamFile
{
    version     2.0;
    format      ascii;
    class       volVectorField;
    location    "577";
    object      Ua;
}
// * * * * * * * * * * * * * * * * * * * * * * * * * * * * * * * * * * * * * //

dimensions      [0 1 -1 0 0 0 0];


internalField   nonuniform List<vector> 
6400
(
(4.68453360324e-05 6.16488746387e-05 0)
(0.000127044224087 4.66767548287e-05 0)
(0.000185311670795 3.80468717139e-05 0)
(0.000248727791665 3.44025878406e-05 0)
(0.000296350937197 2.36999506968e-05 0)
(0.000332115713448 1.53305754335e-05 0)
(0.000353714337426 1.23849320052e-05 0)
(0.000372800674072 1.7598426001e-05 0)
(0.000418493701979 2.42997687632e-05 0)
(0.000465977013349 2.42621952971e-05 0)
(0.000491372966007 2.26071862254e-05 0)
(0.000536669833113 2.44632182156e-05 0)
(0.000580080622045 2.38861803073e-05 0)
(0.000618642946444 2.19203481486e-05 0)
(0.00065159215159 2.13507126096e-05 0)
(0.000687047178125 2.36370016595e-05 0)
(0.000729410495523 2.48334184017e-05 0)
(0.000769165802174 2.37834415097e-05 0)
(0.000803604949803 2.19783811981e-05 0)
(0.000838367476789 2.17849864022e-05 0)
(0.00088048890702 2.60244853785e-05 0)
(0.000929988332662 3.04211305866e-05 0)
(0.000982431389253 3.1775554836e-05 0)
(0.0010326505291 3.17001336349e-05 0)
(0.00108167194508 3.08442463586e-05 0)
(0.0011303292743 2.98177249262e-05 0)
(0.00118000058193 2.98236750951e-05 0)
(0.00122882281393 2.95796428666e-05 0)
(0.00127516584542 2.87887974612e-05 0)
(0.00131933299752 2.820484118e-05 0)
(0.00136136630258 2.85386002568e-05 0)
(0.00140510140519 2.85976640989e-05 0)
(0.00145042791082 2.81818429867e-05 0)
(0.00149463676522 2.91265789982e-05 0)
(0.00153948296118 2.99097115452e-05 0)
(0.00158987351432 3.06278828899e-05 0)
(0.00163906050696 3.17127117283e-05 0)
(0.00167871991361 3.1259684773e-05 0)
(0.00172643210809 3.02331227612e-05 0)
(0.00178009722635 3.02122685265e-05 0)
(0.00182774013394 3.2520578494e-05 0)
(0.00186606092398 3.20478460827e-05 0)
(0.00190126658785 2.6563879324e-05 0)
(0.00193444921626 2.26983139367e-05 0)
(0.00196308542154 2.10135587266e-05 0)
(0.0019881894485 1.91603915205e-05 0)
(0.0020093503112 1.72046351329e-05 0)
(0.00202541334472 1.45993312889e-05 0)
(0.00203653631681 1.21154767359e-05 0)
(0.00204281971602 1.22842990027e-05 0)
(0.00204801800382 1.55610494137e-05 0)
(0.00206073396025 1.47508047525e-05 0)
(0.00206134017325 3.83127275616e-06 0)
(0.00205644322434 -1.89776573034e-06 0)
(0.00203431763935 -7.0895496791e-06 0)
(0.0019768878238 -1.7620376621e-05 0)
(0.00191596570081 -1.54692259424e-05 0)
(0.00188594557184 -7.21409143929e-06 0)
(0.00187130036183 -1.06977998048e-05 0)
(0.00180296218105 -1.36829481286e-05 0)
(0.00176031174611 5.47928548267e-07 0)
(0.00170185059779 -7.93687492177e-06 0)
(0.00183489760912 -5.79859140789e-05 0)
(0.00159699591167 -9.46572401374e-05 0)
(0.00126975320233 -7.36591702454e-05 0)
(0.0011377129075 -4.92349001567e-05 0)
(0.00105949561736 -4.71808126605e-05 0)
(0.000998645203812 -4.63189280538e-05 0)
(0.000935120292481 -4.72101500467e-05 0)
(0.000845600969168 -4.97360764899e-05 0)
(0.000751594797228 -5.0511951844e-05 0)
(0.000644603790874 -4.87304990471e-05 0)
(0.000542494191903 -4.81239592558e-05 0)
(0.000472869917335 -5.14235093902e-05 0)
(0.000350071074528 -4.08790290369e-05 0)
(0.000301960535746 -3.58131929232e-05 0)
(0.000197424400613 -2.20416107536e-05 0)
(0.000201800498181 -3.00084463862e-05 0)
(8.63878610581e-05 -2.10169746232e-05 0)
(6.4389131293e-05 -3.87261116304e-05 0)
(1.8038446997e-05 8.65242898896e-05 0)
(7.71329044042e-05 9.63352773436e-05 0)
(0.000133874050898 8.7048984005e-05 0)
(0.000171194476305 7.04739340884e-05 0)
(0.000246431869377 6.9699377329e-05 0)
(0.000314753562513 5.088990753e-05 0)
(0.000356961368913 3.53084398496e-05 0)
(0.000389243595806 4.61415164916e-05 0)
(0.000424745800699 5.92517323933e-05 0)
(0.000464432408715 5.967079699e-05 0)
(0.000503354921095 5.77708031191e-05 0)
(0.000540713120889 5.80802886413e-05 0)
(0.000577367195622 5.52527541365e-05 0)
(0.000612838978341 5.12670161567e-05 0)
(0.000649699530417 5.08835369217e-05 0)
(0.000687735729242 5.93036956736e-05 0)
(0.000727575915834 6.39065129614e-05 0)
(0.000763951151585 5.47210315646e-05 0)
(0.00078188004066 4.78512497883e-05 0)
(0.000820782247954 5.09903734531e-05 0)
(0.000869883934695 6.30739477434e-05 0)
(0.000923715380168 7.65856982238e-05 0)
(0.000981507666764 7.97370151446e-05 0)
(0.00103428889731 7.53622588027e-05 0)
(0.00107606531289 7.19909922819e-05 0)
(0.00112828774983 7.13388664622e-05 0)
(0.00117969922261 7.0133898074e-05 0)
(0.00122683519906 6.78552035264e-05 0)
(0.00127229074509 6.55324753974e-05 0)
(0.00131715042285 6.39611706091e-05 0)
(0.00136082360398 6.39877126539e-05 0)
(0.00139982721373 6.33930992424e-05 0)
(0.00144490091667 6.13366948808e-05 0)
(0.00148833423849 6.42016127799e-05 0)
(0.00153111451237 6.80703572317e-05 0)
(0.0015877367931 6.75414238214e-05 0)
(0.00163367881801 6.89141859904e-05 0)
(0.00167377484842 7.01587873561e-05 0)
(0.00172599905613 6.81269545163e-05 0)
(0.0017878379598 6.44268866327e-05 0)
(0.00183729967454 5.73813860992e-05 0)
(0.00183493627834 4.87360723986e-05 0)
(0.00184878416376 4.35975435172e-05 0)
(0.00188592063418 4.09273189947e-05 0)
(0.00191717622883 3.80014383197e-05 0)
(0.00194899986858 3.39319916724e-05 0)
(0.0019794775042 2.8293898915e-05 0)
(0.00200210489158 2.13551871673e-05 0)
(0.00202526809618 1.39759421856e-05 0)
(0.0020413991177 7.48462471872e-06 0)
(0.00204097575705 3.28529317924e-06 0)
(0.00201375588105 -6.67905862703e-07 0)
(0.00199307187835 -6.15426693747e-06 0)
(0.00205526594671 -2.00829749359e-05 0)
(0.00202146387471 -4.58415829364e-05 0)
(0.00198400185404 -6.32237314964e-05 0)
(0.00198626537642 -5.97838925128e-05 0)
(0.00196504273571 -5.17802708433e-05 0)
(0.00193185146084 -5.97141576949e-05 0)
(0.00190330566982 -7.02447772122e-05 0)
(0.00188744401377 -7.78233913154e-05 0)
(0.0016735702611 -8.91301644225e-05 0)
(0.00180013488151 -0.000205897315087 0)
(0.00156607443071 -0.00029841823192 0)
(0.00128400214399 -0.000259289409465 0)
(0.00107423232026 -0.000177730965733 0)
(0.000966768465992 -0.000128126204684 0)
(0.000950871449054 -0.000116496233095 0)
(0.000894121565329 -0.000127070445369 0)
(0.000826374189879 -0.000145908771892 0)
(0.000725872296929 -0.000155226837266 0)
(0.000616376376843 -0.00015010737155 0)
(0.000503111085386 -0.000130287336733 0)
(0.000448940544583 -0.00012565012568 0)
(0.00037934675373 -0.000115740571445 0)
(0.000317788527728 -0.000104395826255 0)
(0.000256001407585 -8.81558806905e-05 0)
(0.00020003951928 -8.94775387244e-05 0)
(0.000122994392671 -9.41920770139e-05 0)
(5.62439352982e-05 -0.000151863595044 0)
(2.55115287055e-05 0.000149770574973 0)
(7.3103743542e-05 0.000160929055867 0)
(0.000112999956438 0.000150464131092 7.24425186242e-29)
(0.000189812665733 0.000152055853449 -6.71169283741e-29)
(0.000261689945953 0.000150582346731 -5.90464756029e-29)
(0.000308007771279 0.000123777053457 5.38041475525e-29)
(0.000342809465019 7.4498994281e-05 -5.39591695922e-29)
(0.000375991074435 8.17462418215e-05 5.22881618184e-29)
(0.000412975224656 9.89993239391e-05 0)
(0.000454481524506 0.00010272903422 0)
(0.00049597910974 9.97821618729e-05 0)
(0.00053433985439 9.575001412e-05 0)
(0.000570620541536 9.10560406196e-05 0)
(0.000605223896906 8.91145120168e-05 0)
(0.000642133545314 9.09227203806e-05 0)
(0.000680469728523 9.0182143285e-05 0)
(0.000651801652249 7.81305125049e-05 0)
(0.000652741811741 7.14117967302e-05 0)
(0.000691436960911 8.08921177362e-05 0)
(0.000755077512846 0.000105702271837 0)
(0.000861905756959 0.000132493240483 0)
(0.000930174832363 0.000139982537778 0)
(0.000970842016655 0.000134636354483 0)
(0.00102295193711 0.000128483128349 0)
(0.00107698849173 0.000125142723517 0)
(0.00112535345485 0.000123279319676 0)
(0.00117256953232 0.000119993869567 0)
(0.00121991706035 0.000116350950403 0)
(0.00126591505046 0.0001132555372 0)
(0.001309954611 0.000111186204798 9.87457356255e-29)
(0.00135563436147 0.000109616474961 -9.5580459006e-29)
(0.00139079758438 0.000108020628046 0)
(0.00143390265853 0.000107036000463 0)
(0.0014885385833 0.000108466392958 0)
(0.00151262457886 0.000115965767063 0)
(0.00156993349427 0.000122003884178 0)
(0.0016362153018 0.00012055907281 0)
(0.0016634104123 0.000121107901948 0)
(0.0017189819458 0.000124676654878 0)
(0.00178414741767 0.000117848938966 0)
(0.00183438790326 9.72507512865e-05 0)
(0.00187013625239 8.00924393468e-05 0)
(0.00190303695847 7.65929737366e-05 0)
(0.00193558801778 7.55817542817e-05 0)
(0.00196447544808 7.13364173356e-05 0)
(0.00198943234487 6.48439952928e-05 0)
(0.00201077403958 5.57262388274e-05 0)
(0.00202845818427 4.51827032885e-05 0)
(0.0020426497436 3.32433393077e-05 0)
(0.00205289750588 1.87496393519e-05 0)
(0.00205869798066 3.85422775526e-06 0)
(0.00206014707458 -4.55908605895e-06 0)
(0.00205765851543 -5.11958311555e-06 0)
(0.00203839048608 -2.46189156081e-05 0)
(0.002003830014 -5.64308748753e-05 0)
(0.00199918541142 -7.0508114051e-05 0)
(0.00198759778139 -7.30395531654e-05 0)
(0.0019591208277 -7.75816413166e-05 0)
(0.00192321138088 -8.73850474952e-05 0)
(0.00188454185492 -0.000105496971829 0)
(0.00182535702601 -0.000147908076564 0)
(0.00175804648354 -0.000208097613381 0)
(0.00171024390392 -0.000396901978695 0)
(0.00139861118327 -0.000502035506918 0)
(0.00108959790558 -0.0003857109396 0)
(0.00100127494952 -0.000278394106687 0)
(0.000958160200543 -0.000215026479939 0)
(0.00088756210383 -0.000190382916688 0)
(0.000818321432339 -0.000206572812699 0)
(0.00073871295646 -0.000233027499763 0)
(0.000643437174661 -0.00024047999848 0)
(0.00055688930336 -0.000224555652995 0)
(0.000502481351837 -0.000205416093765 0)
(0.000448631589277 -0.000197604177391 0)
(0.000377273416757 -0.000190155790213 0)
(0.000304201103171 -0.000173504244099 0)
(0.000236243549383 -0.000154378763284 0)
(0.000179877730877 -0.000163662710186 0)
(0.000123690858198 -0.000210454918014 0)
(3.151932621e-05 -0.000208223154361 0)
(2.39899317943e-05 0.000219841700034 0)
(3.53254553269e-05 0.000151729032777 0)
(9.05046721302e-05 0.000224625725096 0)
(0.000161167663849 0.000224522281468 0)
(0.000225412425551 0.000194137879659 0)
(0.000136962456158 8.17419051696e-05 0)
(0.000173763909167 8.58851071691e-05 0)
(0.000316787633373 0.000151992845312 0)
(0.000385550082133 0.000160008919128 0)
(0.00043552636086 0.000150415083604 0)
(0.000482626516012 0.000143074545122 0)
(0.000524230006586 0.000134460220132 0)
(0.000561645449918 0.000127074108753 0)
(0.000591992264173 0.000116434235219 0)
(0.000582737105235 9.8029934921e-05 0)
(0.000573075828342 8.48218824075e-05 0)
(0.000590233494615 8.65510785708e-05 0)
(0.000641895631575 0.000111733868638 0)
(0.000735175174501 0.000153693658879 0)
(0.000823692463143 0.000191847360043 0)
(0.000869750930837 0.00020043918013 0)
(0.000917627429524 0.000193198068874 0)
(0.0009697320501 0.000186009098036 0)
(0.0010196189876 0.000180538383711 0)
(0.00106785498417 0.000175129100639 0)
(0.00111495853574 0.000170256762107 0)
(0.00116138417284 0.000166209329842 0)
(0.00121056587937 0.000162407787256 0)
(0.00125462613139 0.000158271869532 0)
(0.00130309768138 0.000155447124584 0)
(0.00134019879577 0.000152238539654 0)
(0.00138843940029 0.000149685158885 0)
(0.00141557082075 0.000145472033062 0)
(0.00146431729095 0.000151470268359 0)
(0.00153011131244 0.000164425068157 0)
(0.00156080288035 0.000172951867198 0)
(0.00162568940996 0.000175877575213 0)
(0.00169193699948 0.000176549517003 0)
(0.00174075250181 0.000176354426257 0)
(0.00178612686818 0.0001644797015 0)
(0.00182975163618 0.000141901976748 0)
(0.00186874011005 0.000121585344965 0)
(0.00190434550275 0.000110837531206 0)
(0.00193719029689 0.000104272725163 0)
(0.00196609582182 9.64621203293e-05 0)
(0.00199104173374 8.6377105027e-05 -8.73312775558e-29)
(0.00201228941932 7.40631676532e-05 8.79195479034e-29)
(0.0020298336631 5.99838845499e-05 0)
(0.00204364509145 4.42143741822e-05 0)
(0.00205343622965 2.68252873602e-05 0)
(0.00205865068199 9.62408093541e-06 0)
(0.00205821985936 -5.33904180321e-06 0)
(0.00205071621787 -2.17705232368e-05 0)
(0.00203443257468 -4.6712542599e-05 0)
(0.00201469131313 -7.07838476336e-05 0)
(0.00199712566978 -8.6078855601e-05 0)
(0.00197506696288 -9.91587768907e-05 0)
(0.00194205683802 -0.000113835768733 -1.75381556885e-28)
(0.00189747439036 -0.000134225574522 2.05034499898e-28)
(0.00183762303235 -0.000169545973179 0)
(0.00175076686876 -0.000234164437113 0)
(0.00163237759077 -0.000355187453137 0)
(0.00148365143916 -0.000566823925744 0)
(0.00132179555101 -0.000693793970559 0)
(0.001157412637 -0.000577538776051 0)
(0.00094926906181 -0.000364412312893 0)
(0.000861330027041 -0.000279449130724 0)
(0.000801939500895 -0.000263772837463 0)
(0.000740682688785 -0.000282398586792 0)
(0.000686328496179 -0.000317772262202 0)
(0.000616450692528 -0.000327681688409 0)
(0.000545039906099 -0.000305500702792 0)
(0.000472982826962 -0.000280173639234 0)
(0.000381602090685 -0.00025850097363 0)
(0.000313488761272 -0.000251644874973 0)
(0.000250042011298 -0.000247558947787 0)
(0.000180131704927 -0.000225512603045 0)
(0.000104979405779 -0.000184511466217 0)
(7.64803254846e-05 -0.000234725823975 0)
(2.53911947695e-05 -0.000271000238942 0)
(2.0376137268e-06 0.000220911917968 0)
(1.83309761275e-05 0.00018403865873 0)
(7.88031458108e-05 0.000290018889425 0)
(0.000134937305139 0.000271428049036 0)
(0.000150241796011 0.000187355454776 0)
(0.000122955616615 0.000110536052464 0)
(0.000210127547222 0.000177986204942 0)
(0.000310871010316 0.000241172887656 0)
(0.000356246666652 0.000222605227385 0)
(0.000410478887138 0.000202892992877 0)
(0.000461014982455 0.000192757439987 0)
(0.000505378515123 0.000178234725738 0)
(0.00052234611637 0.000146901756371 0)
(0.000498127237569 0.000110351515659 0)
(0.000519132145139 0.000102742234807 0)
(0.000563611407717 0.000116922706099 0)
(0.000631704583562 0.000149391178277 0)
(0.000711753735697 0.000194284296131 0)
(0.000774264024937 0.000228317395104 0)
(0.000809485362082 0.000238681494743 0)
(0.000856060723106 0.000244039232508 0)
(0.000909382872659 0.000244570721292 0)
(0.000958853897128 0.000238037283621 0)
(0.00100760593664 0.000229818586103 0)
(0.00105497132908 0.000222636329567 0)
(0.00110084698882 0.00021751746481 0)
(0.00115036045086 0.000213388879072 0)
(0.00119300617157 0.000208194949842 0)
(0.00124546196119 0.000204223990804 0)
(0.00128100007314 0.000198223027857 0)
(0.00133538062272 0.000195559632661 9.46960143544e-29)
(0.00135150936602 0.000188618641145 -8.99985058067e-29)
(0.00141378839627 0.000193273607792 0)
(0.00147571842208 0.00020251954776 0)
(0.00151220721071 0.000214384682135 0)
(0.0015836303038 0.000231034135207 0)
(0.00164129580301 0.000237835119932 0)
(0.00169301372048 0.000231912152081 0)
(0.0017403276562 0.000221203944287 0)
(0.00178500814691 0.000205560597682 0)
(0.00182828671854 0.000183969164996 0)
(0.00186877397034 0.000162706397988 0)
(0.00190584878254 0.000147112009181 0)
(0.00193926582599 0.000135169533631 0)
(0.00196852151012 0.000123058525022 0)
(0.00199371047679 0.000109186309468 0)
(0.00201501539071 9.32656317106e-05 0)
(0.00203240151524 7.54412722207e-05 0)
(0.00204568131714 5.5739703295e-05 0)
(0.00205447527289 3.43450993161e-05 0)
(0.0020581374771 1.21953226065e-05 0)
(0.00205558074988 -1.01710751021e-05 0)
(0.00204570223034 -3.46369965838e-05 0)
(0.00202856553958 -6.25152453026e-05 0)
(0.00200751046524 -8.87415775466e-05 0)
(0.00198435015054 -0.000110831728568 0)
(0.00195388113227 -0.000133557217048 0)
(0.00190937483908 -0.000162010752654 0)
(0.00184545275464 -0.000202723374713 0)
(0.00175506390146 -0.000267000123675 0)
(0.0016318121083 -0.000368432014282 0)
(0.00148647527598 -0.000516772755263 0)
(0.00133089719153 -0.00069696652592 0)
(0.00125310557369 -0.000813284862092 0)
(0.00114840107527 -0.000727158529743 0)
(0.000959890382209 -0.000517232864376 0)
(0.000837381389855 -0.000397296545231 0)
(0.000739663559018 -0.000349051192748 0)
(0.000663273123291 -0.000349206065502 0)
(0.000608280854078 -0.000377314576704 0)
(0.000556770820279 -0.000397960512202 0)
(0.000486839814683 -0.00038241089913 0)
(0.000392725884679 -0.000342123262309 0)
(0.00032658274249 -0.000328247939613 0)
(0.00026350268164 -0.000327658073158 0)
(0.000198680643715 -0.000321045761559 0)
(0.000134061989397 -0.000271413740437 0)
(8.6133754777e-05 -0.000235686277915 0)
(5.47480963614e-05 -0.000293078672506 0)
(1.38303371431e-05 -0.000302980493044 0)
(-9.41748886032e-07 0.000206795750289 0)
(2.08813062066e-05 0.000221815422773 0)
(7.66595311162e-05 0.000329191280245 0)
(0.000109804024509 0.000283782240484 0)
(8.58565383766e-05 0.000149615527303 0)
(0.000120486326458 0.000156414394087 0)
(0.000247987448911 0.000276743512868 0)
(0.000290657123896 0.000289697327577 0)
(0.000331524049615 0.000272092530301 0)
(0.000380786847166 0.000256530039746 0)
(0.000431410185184 0.000233433317898 0)
(0.000419569104766 0.000180487222434 0)
(0.000394712806988 0.000129400549329 0)
(0.000432263282118 0.000126461854452 0)
(0.00048283412708 0.000147934686113 0)
(0.000566987414057 0.00018902908064 0)
(0.000652161977313 0.000230090089209 0)
(0.000714016317179 0.000255074140038 0)
(0.000741750053007 0.000263321165343 0)
(0.000791227586582 0.00028125416849 0)
(0.00084707449042 0.000295637002396 0)
(0.000895431872591 0.000294974382938 0)
(0.000943160105836 0.000287428259298 0)
(0.000990307341657 0.000278579386704 0)
(0.0010406186935 0.000271354644012 0)
(0.00108650713311 0.000263504346378 0)
(0.00112321997353 0.000258361217185 0)
(0.00118311331674 0.000256408253891 0)
(0.00121182726079 0.000246408637369 0)
(0.00127560832938 0.000241666729552 0)
(0.00128099646609 0.000230176913257 0)
(0.00135507055035 0.000238011076247 0)
(0.00137076573216 0.000240597263022 0)
(0.0014525066789 0.000258917369288 0)
(0.00153219908598 0.00028048605487 0)
(0.00159114924906 0.000293248303184 0)
(0.00164262906446 0.000290964659202 0)
(0.00169166324953 0.000280658645226 0)
(0.00173866221979 0.000266505004416 0)
(0.00178405012321 0.000248544124887 0)
(0.00182785242539 0.000226499604872 0)
(0.00186926815564 0.000203782517541 0)
(0.00190740670318 0.000184044230584 0)
(0.00194158214778 0.000166949992935 0)
(0.00197146596707 0.000150174034418 0)
(0.00199709348606 0.000132155093858 0)
(0.0020185798657 0.000112292811016 0)
(0.00203576759306 9.03991710401e-05 0)
(0.00204827434142 6.63416082394e-05 0)
(0.00205559955377 4.01667736303e-05 0)
(0.00205706528166 1.22511344264e-05 0)
(0.00205175871203 -1.72610141091e-05 0)
(0.00203902151008 -4.87784065286e-05 0)
(0.00201929990005 -8.15667950043e-05 0)
(0.00199406053816 -0.000113213828809 0)
(0.00196233697136 -0.000144719265618 0)
(0.00191834861657 -0.000181734105206 0)
(0.00185491737311 -0.000230822742565 0)
(0.00176653140903 -0.000299256707439 0)
(0.0016492301543 -0.000393788729778 0)
(0.0015094005723 -0.000517658043747 0)
(0.00136729015089 -0.000660191023912 0)
(0.00118557558197 -0.00076781517713 0)
(0.00119836359854 -0.000933347784634 0)
(0.00101992790784 -0.000824912124236 0)
(0.000862811151645 -0.000622760254583 0)
(0.000768838416991 -0.000510655856401 0)
(0.000669640783301 -0.000442396244157 0)
(0.00058313574389 -0.000415538525357 0)
(0.000536111640093 -0.000443446823216 0)
(0.000488792464272 -0.000473111892078 0)
(0.000405294874263 -0.00043638973758 0)
(0.000336508348116 -0.000403223165739 0)
(0.000280851552024 -0.000400008679704 0)
(0.000214681175284 -0.000397121273872 0)
(0.000160647375734 -0.000380471013011 0)
(0.000106091039656 -0.000306938008885 0)
(6.75399547354e-05 -0.000275919325291 0)
(4.00756113271e-05 -0.000328134620279 0)
(1.10712611594e-05 -0.00032695874548 0)
(6.48676452396e-06 0.000223392349785 0)
(4.4190489172e-05 0.000283781659402 0)
(9.54282234041e-05 0.000355891281907 0)
(0.000107413595897 0.000338938660768 0)
(7.78690436299e-05 0.000188151886385 0)
(0.000164159415635 0.000266252760676 0)
(0.00024397019443 0.000331581897887 0)
(0.000270316931 0.000325667050617 0)
(0.000308315360851 0.000311597322325 0)
(0.000339746698459 0.000295121666046 0)
(0.000398486870675 0.000263279332643 -2.46215713577e-28)
(0.000327663047764 0.000160617368315 1.56179880504e-28)
(0.000376624715746 0.000158026584135 0)
(0.00041282878081 0.000175555732286 0)
(0.000489158618337 0.000222288914527 0)
(0.000581389422078 0.000277040394676 0)
(0.000645066615473 0.000297027523928 0)
(0.000662996528616 0.00028846747723 0)
(0.000715889108757 0.00030770296177 0)
(0.000780018971619 0.00033647533395 0)
(0.000827579945421 0.000345846900935 0)
(0.000876368493653 0.000343636275214 0)
(0.000925270689426 0.000336785926514 0)
(0.00097350449455 0.000326922920144 0)
(0.00101614492436 0.000315160845591 0)
(0.00105458873693 0.000305398225496 0)
(0.00111188018952 0.000303895425102 0)
(0.00113280594046 0.000297480477577 0)
(0.00120694827053 0.000293753538038 0)
(0.00120627104066 0.000270272678026 0)
(0.00128640868655 0.000277974295467 0)
(0.00130520926389 0.000283986712869 -8.83770293355e-29)
(0.00138601654499 0.000303486081999 9.0083988412e-29)
(0.00145099586214 0.000329895546585 0)
(0.00153514692802 0.000351073277861 0)
(0.00159058669104 0.000351032944051 0)
(0.00163979535989 0.000341640477342 0)
(0.00168852637066 0.000328530107667 0)
(0.00173666337768 0.000312479262569 0)
(0.00178332554603 0.000292896963508 0)
(0.00182801984905 0.000269733301548 0)
(0.00187034812113 0.000245127890624 0)
(0.00190944780584 0.000221635987532 0)
(0.00194450614233 0.000199699605949 0)
(0.00197516924488 0.000178103523399 0)
(0.00200139734689 0.000155575427657 0)
(0.00202313139632 0.000131308233385 0)
(0.00204000540372 0.000104792119679 0)
(0.00205144870612 7.56797364668e-05 0)
(0.00205686408151 4.38497353355e-05 0)
(0.00205557445915 9.42861138707e-06 0)
(0.0020468114292 -2.73724077076e-05 0)
(0.00203009227877 -6.61689060114e-05 0)
(0.00200545309386 -0.000106085354691 0)
(0.00197254499528 -0.000147023251776 0)
(0.00192835267913 -0.000192481578305 0)
(0.00186662427285 -0.000248940241494 0)
(0.00178173535394 -0.000322023164492 0)
(0.0016735912834 -0.000414530203593 0)
(0.00155084743813 -0.000526121138206 0)
(0.00142463407415 -0.000651791026649 0)
(0.00130346661584 -0.000780191095168 0)
(0.0012024986735 -0.000906560676585 0)
(0.00113637945809 -0.00103189979998 0)
(0.000975719448575 -0.00095479449607 0)
(0.00075311126071 -0.000706960737741 0)
(0.000688434390927 -0.000609193257196 0)
(0.000605832379005 -0.000545118286175 0)
(0.000522513013656 -0.000506143890824 0)
(0.00046584709236 -0.000516736411581 0)
(0.000412477862779 -0.000521125244339 0)
(0.000347042238703 -0.000481645607181 0)
(0.000297539638214 -0.000470676315848 0)
(0.000235380064829 -0.000467909827788 0)
(0.000175420900973 -0.000460316997723 0)
(0.00012668851493 -0.0004113832003 0)
(8.70351375669e-05 -0.000354072110692 0)
(4.45475440985e-05 -0.000311634005888 0)
(2.23309851527e-05 -0.000348408016502 0)
(7.66745111889e-06 -0.000352204878235 0)
(1.35655802617e-05 0.000257570189599 0)
(5.99063968446e-05 0.000339507402356 0)
(0.000102949237103 0.000369120252317 0)
(6.7776653955e-05 0.000237786458312 0)
(7.86930331275e-05 0.000230677648528 0)
(0.000179978618072 0.000354931522047 0)
(0.000217725386353 0.000365420183007 0)
(0.00025132588945 0.000360057107458 0)
(0.000274495759477 0.000341052253345 0)
(0.000315064541065 0.000325992514121 0)
(0.000269690397399 0.000215319540778 0)
(0.000308531134184 0.000189098634071 0)
(0.000354312578068 0.000200064078193 0)
(0.000399633489387 0.000233424217062 0)
(0.000502057760455 0.000308206001962 0)
(0.000572492143917 0.000342585414306 0)
(0.000584737429192 0.000324280723435 0)
(0.000630383557515 0.000332905702374 0)
(0.000701882913374 0.000369067712078 0)
(0.000757577272795 0.000390197969805 0)
(0.000803352094557 0.000393868449036 0)
(0.000849993278554 0.000391052904747 0)
(0.00090129143833 0.000386740973995 0)
(0.000948986597871 0.000375935959778 0)
(0.000999381303752 0.00035989619331 0)
(0.00102650913441 0.000350169593005 0)
(0.00109224005087 0.000349780088313 0)
(0.00112231272261 0.000338787380539 0)
(0.0011443989525 0.000324230349743 0)
(0.00119697382286 0.000322652627091 0)
(0.00128587806261 0.000336327653126 0)
(0.00131255460772 0.000338089836396 0)
(0.0013642938265 0.000366912495158 0)
(0.00147034472614 0.00040694517645 0)
(0.00152995023897 0.000415983867552 0)
(0.00158327279866 0.000406169116886 0)
(0.00163454960134 0.000392480827061 0)
(0.00168472157515 0.00037745994016 0)
(0.00173433538258 0.000359947274801 0)
(0.00178258335949 0.000338795916451 0)
(0.00182860109403 0.00031399548444 0)
(0.00187199946954 0.000287088427917 0)
(0.00191216287847 0.000259979236172 0)
(0.00194829253779 0.000233418118055 0)
(0.00197992683745 0.000206916230382 -8.43929396026e-29)
(0.0020068954106 0.000179517787057 8.41698662354e-29)
(0.00202890592072 0.000150276870929 0)
(0.0020453430199 0.000118407326579 0)
(0.00205545649154 8.33771298882e-05 0)
(0.00205855940423 4.4954083402e-05 0)
(0.00205393276097 3.16943569119e-06 0)
(0.00204081100919 -4.17075945186e-05 0)
(0.00201856765172 -8.92082426799e-05 0)
(0.00198645030001 -0.000139225717229 0)
(0.00194251036846 -0.000193625883899 0)
(0.00188255553901 -0.000257252747901 0)
(0.00180142718508 -0.000335496599607 0)
(0.00169875970599 -0.000428831759378 0)
(0.00158440033464 -0.000533383236748 0)
(0.00147189563087 -0.000646207609727 0)
(0.00136576707493 -0.000763162734792 0)
(0.00126846752096 -0.000879970054388 0)
(0.00118460975832 -0.000996042441679 0)
(0.00109948724375 -0.00110907652967 0)
(0.00108443673326 -0.00120217895065 0)
(0.000745640997056 -0.000864925112845 0)
(0.000588203268922 -0.000703715391407 0)
(0.000506436777349 -0.000627758824091 0)
(0.000428775932796 -0.000572251654251 0)
(0.000383739275002 -0.000560791349303 0)
(0.000349550965333 -0.000549711586729 0)
(0.000307816083908 -0.000531222230557 0)
(0.000258511121821 -0.000534954946644 0)
(0.000195507456824 -0.000532780178875 0)
(0.000140984448914 -0.000510949296133 0)
(9.45252143379e-05 -0.000448180222197 0)
(5.62764041998e-05 -0.000400480019617 0)
(1.57280546339e-05 -0.000352947426238 0)
(-4.12033588604e-06 -0.000358673883566 0)
(-2.74981645329e-06 -0.000365815927715 0)
(1.8246803149e-05 0.000299102727995 0)
(6.48998323395e-05 0.000381746757682 0)
(8.22464105247e-05 0.000379342820668 0)
(6.16030868165e-05 0.000258862531081 0)
(0.000104332406624 0.000297210623998 0)
(0.000176669840941 0.000395404426029 0)
(0.000192832364423 0.000396123292242 0)
(0.00023277119502 0.000391192492527 0)
(0.000230318242925 0.000343696746603 0)
(0.000294981282441 0.00036551327705 0)
(0.000246654304984 0.000239205796532 0)
(0.000296946887387 0.000231209257867 0)
(0.000335596535344 0.000248181325881 0)
(0.00040782406066 0.000312527813875 0)
(0.000492625974041 0.000381566175921 0)
(0.000541765567817 0.000388404142437 0)
(0.000552462875267 0.000364750377698 0)
(0.000611406606001 0.000391623487956 0)
(0.000675893586729 0.000427248043322 0)
(0.00072793959228 0.000441586694885 0)
(0.000777445059612 0.000442765078753 0)
(0.0008217898051 0.000437588227667 0)
(0.000871264615526 0.000433079171807 0)
(0.00090974718955 0.00042032395101 0)
(0.000945682444996 0.000396890047473 0)
(0.00101350040973 0.000396176009209 0)
(0.0010164836723 0.000383788338077 0)
(0.00111747107837 0.00038933616052 0)
(0.00111845248499 0.000373855782519 0)
(0.00121702014297 0.000389826565217 0)
(0.00122176861479 0.00037894639452 0)
(0.00132637516684 0.000407177910693 0)
(0.00139652920028 0.000446168757901 -9.43403146369e-29)
(0.00146264735287 0.000473603623142 9.45864159148e-29)
(0.00151988526763 0.00047325808905 0)
(0.00157434303686 0.00046075461662 0)
(0.00162800401137 0.000445218439638 0)
(0.00168031180306 0.000428395082569 0)
(0.00173164834741 0.000409253358702 0)
(0.00178160980687 0.000386416794675 0)
(0.00182934024393 0.000359635346135 0)
(0.00187423750051 0.000330084025745 0)
(0.00191572858705 0.000299333614529 0)
(0.00195315807855 0.000268248230156 0)
(0.0019860295048 0.00023673641943 0)
(0.002013921646 0.000204056780469 0)
(0.00203624925687 0.000169172411616 0)
(0.00205217690983 0.000131090178498 0)
(0.00206079413246 8.91460720316e-05 0)
(0.00206126918421 4.30406543423e-05 0)
(0.00205275295099 -7.27828198325e-06 0)
(0.00203432794916 -6.16950292817e-05 0)
(0.00200497964009 -0.000120195151343 0)
(0.00196303913964 -0.000183766969311 0)
(0.00190540757122 -0.000255460540512 0)
(0.0018280231492 -0.000339543245153 0)
(0.00172860659208 -0.000437714989439 0)
(0.00161452591651 -0.000542179858914 0)
(0.0015042591531 -0.000646062005184 0)
(0.00140678727912 -0.000752741350426 0)
(0.00131497766221 -0.000861024534028 0)
(0.00122301447307 -0.000966985423897 0)
(0.00113989299146 -0.00107220676724 0)
(0.00106803821505 -0.00117329090283 0)
(0.00104828939844 -0.00127723892735 0)
(0.000911498355475 -0.00119214728922 0)
(0.000535001797233 -0.000818786072217 0)
(0.000390880292491 -0.000716681697122 0)
(0.000337786360508 -0.000634862225532 0)
(0.000315727556707 -0.000585176931704 0)
(0.000302830979305 -0.000567734936738 0)
(0.000276903661076 -0.000580169782821 0)
(0.000225436392937 -0.000598165293659 0)
(0.00016210277906 -0.000594371685001 0)
(0.000104157774158 -0.000556717303712 0)
(5.24826779159e-05 -0.000497897803041 0)
(6.69231540347e-06 -0.000443148674034 0)
(-2.7206147657e-05 -0.000391757352971 0)
(-3.58316267782e-05 -0.000361064004694 0)
(-1.5864550752e-05 -0.000348771125938 0)
(2.10504019337e-05 0.000348046620171 0)
(6.90466257098e-05 0.000411007331127 0)
(7.15722033967e-05 0.000376128521209 0)
(5.91412270215e-05 0.000277619254477 0)
(0.000124892820929 0.000386539699189 0)
(0.000152481287875 0.000407370268599 0)