/*--------------------------------*- C++ -*----------------------------------*\
| =========                 |                                                 |
| \\      /  F ield         | OpenFOAM: The Open Source CFD Toolbox           |
|  \\    /   O peration     | Version:  v1806                                 |
|   \\  /    A nd           | Web:      www.OpenFOAM.com                      |
|    \\/     M anipulation  |                                                 |
\*---------------------------------------------------------------------------*/
FoamFile
{
    version     2.0;
    format      ascii;
    class       surfaceScalarField;
    location    "91";
    object      phi;
}
// * * * * * * * * * * * * * * * * * * * * * * * * * * * * * * * * * * * * * //

dimensions      [0 3 -1 0 0 0 0];
oriented        oriented;


internalField   nonuniform List<scalar> 
12640
(
-1.62389654314e-07
1.63140427222e-07
-3.18772187156e-07
1.57182853077e-07
-4.63846206377e-07
1.45741202129e-07
-5.88970065198e-07
1.25755591656e-07
-6.74391304843e-07
8.59649941488e-08
-7.13097908781e-07
3.91826927627e-08
-7.28139182633e-07
1.54844469589e-08
-7.78023085325e-07
5.02954041036e-08
-8.66881179049e-07
8.92947014959e-08
-9.4749453228e-07
8.10333333593e-08
-1.02177226991e-06
7.46615994229e-08
-1.11223581248e-06
9.08422000936e-08
-1.19294682921e-06
8.10862081623e-08
-1.25153264459e-06
5.89442762841e-08
-1.29864139939e-06
4.74384056683e-08
-1.36034990739e-06
6.19938659147e-08
-1.42599862732e-06
6.59335190146e-08
-1.47222026065e-06
4.64979915875e-08
-1.49250117532e-06
2.05843209159e-08
-1.49596255512e-06
3.80672350225e-09
-1.51867776564e-06
2.30963464588e-08
-1.57252344418e-06
5.42399060426e-08
-1.64073632106e-06
6.86207240644e-08
-1.71441269198e-06
7.40715830947e-08
-1.78297000477e-06
6.89368498805e-08
-1.84248929786e-06
5.98895891219e-08
-1.90174381802e-06
5.96295666163e-08
-1.95556958391e-06
5.41987470346e-08
-1.99809934978e-06
4.29112094348e-08
-2.03128077277e-06
3.35571523328e-08
-2.06729740629e-06
3.64030460634e-08
-2.10170643749e-06
3.47876645886e-08
-2.12239197524e-06
2.10598341525e-08
-2.14467892448e-06
2.26782044531e-08
-2.16308449135e-06
1.88482435673e-08
-2.17552778812e-06
1.28988374135e-08
-2.19617202963e-06
2.1141724586e-08
-2.21474368687e-06
1.91311013939e-08
-2.22680434728e-06
1.26820388505e-08
-2.2583523971e-06
3.22411964642e-08
-2.36702467752e-06
1.09396365474e-07
-2.49354904745e-06
1.27180656532e-07
-2.55050204546e-06
5.75695110421e-08
-2.57172441666e-06
2.18532746552e-08
-2.57783394289e-06
6.74350158542e-09
-2.56692304556e-06
-1.02580438894e-08
-2.54082137775e-06
-2.54301196482e-08
-2.49724270446e-06
-4.28849083396e-08
-2.44647086013e-06
-5.00739675839e-08
-2.42778007283e-06
-1.79890870069e-08
-2.47827764297e-06
5.12567299541e-08
-2.52992570613e-06
5.2385707947e-08
-2.44040208734e-06
-8.87652961198e-08
-2.28271712006e-06
-1.56792280468e-07
-2.08864512627e-06
-1.93220349425e-07
-1.81541252549e-06
-2.7241497865e-07
-1.5871572297e-06
-2.27314348842e-07
-1.45078701455e-06
-1.35256091643e-07
-1.30550104641e-06
-1.4403114449e-07
-1.1424554569e-06
-1.61637787812e-07
-1.00635219711e-06
-1.34576564237e-07
-8.4264089121e-07
-1.62083158828e-07
-5.61059037474e-07
-2.79821304531e-07
-3.39888326558e-07
-2.19948083042e-07
-1.84896596985e-07
-1.54230183147e-07
-6.79339349064e-08
-1.16418954754e-07
3.66700840934e-08
-1.04127945268e-07
1.42266394141e-07
-1.05094100952e-07
2.50002645212e-07
-1.07171307455e-07
3.54745340732e-07
-1.04113705242e-07
4.44572202981e-07
-8.91644544263e-08
5.06580837259e-07
-6.13664941957e-08
5.32854045534e-07
-2.5649138578e-08
5.16946396892e-07
1.65241743064e-08
4.75410250894e-07
4.21130579076e-08
4.14814224751e-07
6.11531876995e-08
3.58977647257e-07
5.64002265472e-08
2.68311052105e-07
9.12028785722e-08
1.68745170715e-07
1.00593326608e-07
1.69359248067e-07
-7.81509900663e-08
2.4190520074e-07
-1.8149073359e-07
2.61111302399e-07
-2.83506421575e-07
2.48303660459e-07
-3.96390460156e-07
2.39089597139e-07
-5.60724984751e-07
2.50750131531e-07
-7.01691395899e-07
1.80621008183e-07
-7.83184199671e-07
9.74296173522e-08
-8.49960735376e-07
1.17568442434e-07
-9.18868650205e-07
1.58680538472e-07
-1.00059693935e-06
1.63226080567e-07
-1.08105050882e-06
1.55539273303e-07
-1.14135448191e-06
1.5154720912e-07
-1.19603430001e-06
1.36117905084e-07
-1.25281322858e-06
1.16056724513e-07
-1.30897389011e-06
1.03893702256e-07
-1.37446193659e-06
1.27794046422e-07
-1.42179084378e-06
1.13527725369e-07
-1.41036771098e-06
3.53762559926e-08
-1.39221124963e-06
2.72988161927e-09
-1.40661264801e-06
1.8562377284e-08
-1.45540982747e-06
7.22902391252e-08
-1.55085309641e-06
1.50130718976e-07
-1.65110794774e-06
1.69288993085e-07
-1.7148203412e-06
1.38205382807e-07
-1.77441571369e-06
1.28914993306e-07
-1.85071840933e-06
1.36593067065e-07
-1.91254151229e-06
1.21827994266e-07
-1.95774086576e-06
9.9798577115e-08
-1.99617369468e-06
8.17203270232e-08
-2.02888028462e-06
6.66667682728e-08
-2.05095679763e-06
5.88523587094e-08
-2.06676415322e-06
5.0963975167e-08
-2.0698704798e-06
2.4540648345e-08
-2.07710576824e-06
3.03310514023e-08
-2.11006199898e-06
5.22027360967e-08
-2.11941723479e-06
2.27706550026e-08
-2.12843328246e-06
3.07135698239e-08
-2.17464333882e-06
6.59231142829e-08
-2.23771433928e-06
7.63843897715e-08
-2.27390533977e-06
6.91586711979e-08
-2.14907169792e-06
-1.47615874318e-08
-1.96694473292e-06
-5.43693774191e-08
-1.91880352748e-06
9.96943539434e-09
-1.93974511758e-06
4.33739557558e-08
-1.98557682901e-06
5.31629205317e-08
-2.05213118189e-06
5.692883433e-08
-2.12210891553e-06
4.51958777611e-08
-2.19338156318e-06
2.90776043723e-08
-2.25026100051e-06
7.51747754476e-09
-2.23300005027e-06
-3.45190460208e-08
-2.1062799225e-06
-7.47770799501e-08
-1.98426604287e-06
-6.89521609072e-08
-2.10739358904e-06
3.51232256151e-08
-2.225970143e-06
-3.72967349745e-08
-2.18084068331e-06
-2.37444667583e-07
-2.17874224841e-06
-2.73479166106e-07
-2.15224121369e-06
-2.52549847653e-07
-2.0232692944e-06
-2.62792236812e-07
-1.86345701431e-06
-3.02224769827e-07
-1.64927228686e-06
-3.74037818385e-07
-1.28499854396e-06
-4.97057667372e-07
-9.30998325557e-07
-5.14398009944e-07
-6.14669663735e-07
-5.94363157321e-07
-3.74545009681e-07
-4.58872929937e-07
-2.04962875088e-07
-3.23065809021e-07
-7.4835886981e-08
-2.46026909164e-07
3.74504572648e-08
-2.15948173631e-07
1.48745618635e-07
-2.15890014925e-07
2.61123831149e-07
-2.18989086749e-07
3.68303200029e-07
-2.10672689597e-07
4.54944309589e-07
-1.75165602892e-07
5.09389641284e-07
-1.15191484374e-07
5.41109864881e-07
-5.67559028741e-08
5.58443463908e-07
-1.64486320885e-10
5.45085531481e-07
5.61267858244e-08
5.07750181867e-07
9.91273400074e-08
4.35347114389e-07
1.29486862732e-07
3.41460583801e-07
1.85905501383e-07
1.87949361148e-07
2.54935873425e-07
3.58204955574e-07
-1.08822445277e-07
3.51025758645e-07
-1.50987829672e-07
3.0382349879e-07
-2.95761194661e-07
3.93620323005e-07
-4.80190552373e-07
4.24027488203e-07
-6.41392669648e-07
4.12401300297e-07
-7.09103716837e-07
2.48711557398e-07
-7.37816062535e-07
1.26590282711e-07
-8.10907370312e-07
1.91174292929e-07
-9.00172579133e-07
2.48463650932e-07
-9.89833519755e-07
2.53371712468e-07
-1.07266420909e-06
2.38791476757e-07
-1.13853210106e-06
2.17766326296e-07
-1.19378862429e-06
1.91679023481e-07
-1.24939640501e-06
1.71948508298e-07
-1.27415947153e-06
1.28937743657e-07
-1.18618526726e-06
4.00840871788e-08
-1.05429885498e-06
-1.81115631869e-08
-1.01855452021e-06
-1.22542997785e-10
-1.07300225606e-06
5.74683688085e-08
-1.23853853919e-06
1.84461421803e-07
-1.44146261e-06
2.75641130767e-07
-1.55511227378e-06
2.64206367635e-07
-1.62081929304e-06
2.35410151501e-07
-1.71282245151e-06
2.30606297366e-07
-1.79914553936e-06
2.15633352987e-07
-1.85625966102e-06
1.94086571252e-07
-1.90148292184e-06
1.67432450904e-07
-1.9429534422e-06
1.41642642426e-07
-1.97531596164e-06
1.14463901146e-07
-2.00484952279e-06
9.65683315426e-08
-2.01632210899e-06
7.06748496794e-08
-2.01862816897e-06
5.36303342275e-08
-2.03350300812e-06
3.97593946971e-08
-1.99457756758e-06
-8.21113503793e-09
-1.97100113093e-06
2.90971944232e-08
-2.03284375389e-06
8.51288544543e-08
-2.04720596351e-06
4.56551044426e-08
-2.06398819824e-06
8.33114310305e-08
-2.18354718087e-06
1.96601280189e-07
-2.3192582165e-06
2.05553625482e-07
-2.44060040455e-06
1.07278837842e-07
-2.52786571646e-06
3.35882920763e-08
-2.55908489878e-06
4.18979486616e-08
-2.57347034061e-06
5.84725206998e-08
-2.58258585193e-06
6.30131325012e-08
-2.58357188109e-06
5.86572347135e-08
-2.58176354733e-06
4.41494915355e-08
-2.57599953861e-06
2.40804529103e-08
-2.56577688882e-06
-1.93109468975e-09
-2.56233823959e-06
-3.71869568096e-08
-2.565943785e-06
-7.03721870976e-08
-2.54491043794e-06
-8.91470167379e-08
-2.40313179282e-06
-1.05778408086e-07
-2.24810562526e-06
-1.91436733674e-07
-2.23255718955e-06
-2.52042939059e-07
-2.233003982e-06
-2.71920068129e-07
-2.15414591426e-06
-3.30135159503e-07
-2.01663243256e-06
-3.98890274037e-07
-1.84491324322e-06
-4.72408745178e-07
-1.64388857295e-06
-5.73408166059e-07
-1.43989697085e-06
-6.9932196567e-07
-1.1267659951e-06
-8.2568564169e-07
-7.44490909366e-07
-9.74898623224e-07
-4.19579027251e-07
-7.82729966999e-07
-2.19063943905e-07
-5.22919161965e-07
-8.24198823042e-08
-3.82158787765e-07
4.25107750178e-08
-3.40413490581e-07
1.59400304021e-07
-3.32309111067e-07
2.70420575479e-07
-3.29492618421e-07
3.75303303249e-07
-3.14990482216e-07
4.71365946406e-07
-2.70637059937e-07
5.58662756075e-07
-2.01881054446e-07
6.21748104361e-07
-1.19193903229e-07
6.35776676244e-07
-1.35287713444e-08
6.02322968493e-07
9.02447204004e-08
5.39859113136e-07
1.62284453989e-07
4.60787744356e-07
2.09218252724e-07
3.68614717797e-07
2.7869859388e-07
1.70182612052e-07
4.54627947397e-07
5.28609861024e-07
-7.46547255548e-08
4.26267563221e-07
-8.60405359759e-08
3.15539476243e-07
-2.71521417297e-07
5.79614306267e-07
-4.0955272012e-07
5.62531862507e-07
-3.78153487256e-07
3.81337006313e-07
-2.89744586207e-07
1.60474901651e-07
-4.13705684872e-07
2.5083702438e-07
-6.61944277669e-07
4.39922409675e-07
-8.42720823465e-07
4.29769830197e-07
-9.59801077853e-07
3.7091001348e-07
-1.05883081532e-06
3.38198228242e-07
-1.13571935781e-06
2.94949689297e-07
-1.16741909429e-06
2.23624580342e-07
-1.1010439595e-06
1.05791013356e-07
-9.76360654652e-07
4.47741672763e-09
-9.18809085993e-07
-1.72130766846e-08
-9.55932203641e-07
1.92818554794e-08
-1.08275965601e-06
1.27022060432e-07
-1.29035036395e-06
2.65439684232e-07
-1.44255114909e-06
3.3707477739e-07
-1.50522846788e-06
3.38729440259e-07
-1.57729715167e-06
3.3669143633e-07
-1.66394828272e-06
3.22468231729e-07
-1.73208940178e-06
2.99138612062e-07
-1.78825842787e-06
2.72170657182e-07
-1.83498324232e-06
2.41176718016e-07
-1.8811790969e-06
2.13978784588e-07
-1.91816994119e-06
1.78999298484e-07
-1.95285454499e-06
1.49497073615e-07
-1.96834589153e-06
1.12397361556e-07
-1.98635910216e-06
8.90197638961e-08
-1.97679173035e-06
4.43680819673e-08
-1.92955428016e-06
-7.11911418663e-09
-1.96891048269e-06
3.15839337474e-08
-1.98607949174e-06
4.67589857582e-08
-1.99903649161e-06
9.86509389318e-08
-2.15239312712e-06
1.9965782773e-07
-2.30821395398e-06
2.39820513354e-07
-2.36276110068e-06
2.5181759797e-07
-2.3833661344e-06
2.26834916576e-07
-2.43426461467e-06
1.58873634438e-07
-2.50031167896e-06
1.00350445759e-07
-2.54123275785e-06
8.3530138935e-08
-2.56365994872e-06
8.16188226075e-08
-2.57650420939e-06
7.65790637612e-08
-2.58225851173e-06
6.51467794316e-08
-2.5841313706e-06
4.67660714236e-08
-2.58221651874e-06
2.29233097558e-08
-2.57658965611e-06
-6.79571244411e-09
-2.56956334749e-06
-4.34380484041e-08
-2.55562175005e-06
-8.35234109134e-08
-2.51853832035e-06
-1.25408402847e-07
-2.44695454691e-06
-1.76503806065e-07
-2.38952363059e-06
-2.47951165766e-07
-2.33538983096e-06
-3.05180591981e-07
-2.25020794642e-06
-3.55999349829e-07
-2.13959319282e-06
-4.39520931924e-07
-1.99486920353e-06
-5.42277540272e-07
-1.81335213408e-06
-6.52475889485e-07
-1.60741330511e-06
-7.77827491824e-07
-1.38269393968e-06
-9.2248764342e-07
-1.11961349115e-06
-1.08716631757e-06
-8.60050954972e-07
-1.23312036038e-06
-5.20687885803e-07
-1.1210762962e-06
-2.67614739353e-07
-7.75277747643e-07
-9.63678792346e-08
-5.52902239259e-07
4.48301945366e-08
-4.81176839626e-07
1.77008084126e-07
-4.64043251032e-07
3.03895725685e-07
-4.55906039006e-07
4.32438339681e-07
-4.43001710177e-07
5.60180331537e-07
-3.97795249924e-07
6.52779732745e-07
-2.93847906938e-07
6.71337224151e-07
-1.37140630062e-07
6.41766437547e-07
1.66425359659e-08
5.95544652726e-07
1.37090870351e-07
5.13289496146e-07
2.451726688e-07
3.89320255706e-07
3.33779200306e-07
2.75574311426e-07
3.93061865329e-07
1.46349084457e-07
5.84143930741e-07
6.75534866866e-07
-4.03020577456e-09
4.3040124041e-07
-8.07231359041e-08
3.92526278783e-07
-2.35864108773e-07
7.35120536887e-07
-3.05690248094e-07
6.32629332534e-07
-2.47342778876e-07
3.23206812408e-07
-3.06085602437e-07
2.19436032207e-07
-5.06576771524e-07
4.51720405669e-07
-6.76874816813e-07
6.10700642152e-07
-7.97258645181e-07
5.50625386516e-07
-9.12229620971e-07
4.86263491495e-07
-1.01606518224e-06
4.42323850794e-07
-1.03068661787e-06
3.09792617563e-07
-9.4166296308e-07
1.34775192076e-07
-8.74888800222e-07
3.92152866263e-08
-9.01020077334e-07
3.08723798518e-08
-9.94799633946e-07
7.6870791614e-08
-1.15593879927e-06
1.80781817674e-07
-1.32923440678e-06
3.0072726264e-07
-1.40933372114e-06
3.45946049173e-07
-1.4352445621e-06
3.63379903247e-07
-1.50435372094e-06
4.08239623935e-07
-1.5877856345e-06
4.20528422741e-07
-1.65977545949e-06
3.94841113053e-07
-1.71747447873e-06
3.57193864047e-07
-1.7673360996e-06
3.22382858355e-07
-1.81811124069e-06
2.92278266974e-07
-1.85028292586e-06
2.46499459121e-07
-1.88775702199e-06
2.16796353589e-07
-1.90520756976e-06
1.67263803416e-07
-1.92543248181e-06
1.32927778305e-07
-1.91354804991e-06
7.74298280245e-08
-1.91918157421e-06
5.03309074393e-08
-1.98576511171e-06
5.98603755506e-08
-1.97426824367e-06
2.0585082356e-08
-2.02682813744e-06
9.98944960715e-08
-2.16361537809e-06
2.36090391655e-07
-2.2611975973e-06
2.97909045948e-07
-2.32762451799e-06
3.06904113422e-07
-2.36490402423e-06
2.89753036869e-07
-2.39283842676e-06
2.55436834501e-07
-2.43687841784e-06
2.03603548122e-07
-2.48987853806e-06
1.54053219101e-07
-2.53072161023e-06
1.25084664569e-07
-2.55719718283e-06
1.08806221342e-07
-2.57392039089e-06
9.40192278946e-08
-2.5840438161e-06
7.59922932463e-08
-2.58967087267e-06
5.31261324363e-08
-2.59112506676e-06
2.51194076263e-08
-2.58777646895e-06
-9.39187863344e-09
-2.57844851644e-06
-5.2006749898e-08
-2.55852646263e-06
-1.02666293453e-07
-2.52162496291e-06
-1.61506128349e-07
-2.46821239327e-06
-2.29068781351e-07
-2.41288737128e-06
-3.0237190583e-07
-2.34655912155e-06
-3.70532443245e-07
-2.25337597525e-06
-4.48118702325e-07
-2.13216087899e-06
-5.59575703553e-07
-1.97513939201e-06
-6.98014484573e-07
-1.78409583958e-06
-8.42146536284e-07
-1.57734665193e-06
-9.8317257936e-07
-1.36383665825e-06
-1.13458845792e-06
-1.15478869439e-06
-1.29494100336e-06
-9.88530274777e-07
-1.39821451624e-06
-6.06049124216e-07
-1.50253085889e-06
-3.42083152665e-07
-1.03855141558e-06
-1.39353118632e-07
-7.551074866e-07
4.13125308297e-08
-6.61391596232e-07
2.03334531393e-07
-6.25649918615e-07
3.54012630113e-07
-6.0613817208e-07
5.10618160873e-07
-5.99107083888e-07
6.50977191024e-07
-5.37568067819e-07
7.06200507603e-07
-3.48502796902e-07
6.99023850007e-07
-1.29407830095e-07
6.76065944385e-07
4.01690762431e-08
6.20551336942e-07
1.93223898714e-07
5.15326469498e-07
3.51025137523e-07
4.05206826694e-07
4.44362198441e-07
2.82851266646e-07
5.15736830534e-07
1.32866444769e-07
7.3508432921e-07
8.08475931524e-07
5.03411287311e-10
4.30188243484e-07
-1.15323834283e-07
5.08556990632e-07
-1.87984864554e-07
8.08057097908e-07
-2.12010221676e-07
6.56902861223e-07
-1.88347411477e-07
2.99703153012e-07
-3.64531885984e-07
3.95902411514e-07
-5.83475566667e-07
6.71094124148e-07
-6.73273774385e-07
7.00949158813e-07
-7.61030323019e-07
6.38714923227e-07
-8.30257539987e-07
5.55797731015e-07
-8.28321459966e-07
4.40615042115e-07
-7.31551470128e-07
2.13161689896e-07
-7.07511675504e-07
1.10899350559e-07
-7.68303489876e-07
1.00234091687e-07
-8.82355458343e-07
1.45217450255e-07
-1.06878458175e-06
2.63677883269e-07
-1.26033248211e-06
3.72743727554e-07
-1.32714911283e-06
3.67930843896e-07
-1.34134957741e-06
3.60518931164e-07
-1.42551237093e-06
4.47935027699e-07
-1.51589788525e-06
4.99024490132e-07
-1.5805415764e-06
4.85546098925e-07
-1.63945217913e-06
4.5410865048e-07
-1.70093673731e-06
4.19020226278e-07
-1.75393467565e-06
3.75691288171e-07
-1.76504292652e-06
3.03702821282e-07
-1.80289693051e-06
2.84646475544e-07
-1.82009226697e-06
2.34288768859e-07
-1.84072327015e-06
1.88193880618e-07
-1.81698205379e-06
1.09466247827e-07
-1.80639213271e-06
6.71258839853e-08
-1.82632460387e-06
7.06251742854e-08
-1.83406851781e-06
6.80378176011e-08
-1.9668312394e-06
1.53887612831e-07
-2.12269445227e-06
2.56411520961e-07
-2.22493290228e-06
3.38993706721e-07
-2.28604042426e-06
3.59661976269e-07
-2.32750563644e-06
3.49001760074e-07
-2.36111165416e-06
3.23992227449e-07
-2.39516259141e-06
2.90139936598e-07
-2.43702668083e-06
2.46145584446e-07
-2.48318782355e-06
2.00912313305e-07
-2.5226910288e-06
1.6529266564e-07
-2.55173780897e-06
1.38560014478e-07
-2.57204896398e-06
1.15038904889e-07
-2.58594702874e-06
9.06042225528e-08
-2.59498924668e-06
6.28895268201e-08
-2.59902357118e-06
2.98843255013e-08
-2.59676837423e-06
-1.09085923254e-08
-2.58639741669e-06
-6.16254618798e-08
-2.5652230192e-06
-1.2307656273e-07
-2.53119319373e-06
-1.9474195108e-07
-2.48539676752e-06
-2.74034609662e-07
-2.43010071518e-06
-3.56785012973e-07
-2.35667586995e-06
-4.43013448423e-07
-2.25509231677e-06
-5.48699105273e-07
-2.12424918896e-06
-6.89328841123e-07
-1.9657709509e-06
-8.55292232135e-07
-1.7843457046e-06
-1.02222830828e-06
-1.59669664557e-06
-1.16942595952e-06
-1.41245787741e-06
-1.31753377418e-06
-1.21976688224e-06
-1.48649238722e-06
-1.04480057708e-06
-1.57219359263e-06
-7.30430303451e-07
-1.81596362141e-06
-4.05907737136e-07
-1.36237822205e-06
-1.87598101372e-07
-9.72922341827e-07
3.09443124272e-08
-8.79512206337e-07
2.39600206957e-07
-8.33880208255e-07
4.36237462463e-07
-8.02363228274e-07
6.20400454129e-07
-7.82780531868e-07
7.29919683791e-07
-6.46580618692e-07
7.54881399715e-07
-3.72938092961e-07
7.64103161348e-07
-1.38109899718e-07
7.47578813458e-07
5.72713278926e-08
6.81022262796e-07
2.60389445908e-07
5.72519778835e-07
4.60067652558e-07
4.44892333983e-07
5.72485541805e-07
3.08483733661e-07
6.52778493065e-07
1.57079259648e-07
8.86624395876e-07
9.66145584218e-07
-4.00521273454e-08
4.70337902053e-07
-1.93517524516e-07
6.62245882926e-07
-2.52537812206e-07
8.6725603656e-07
-1.89686173616e-07
5.94247956021e-07
-2.37965731073e-07
3.48189894585e-07
-4.68204000665e-07
6.26505297224e-07
-5.92991290251e-07
7.96316748745e-07
-6.57539855883e-07
7.65794566823e-07
-6.93979007731e-07
6.75479148676e-07
-7.57218822497e-07
6.19205600087e-07
-7.00536316354e-07
3.84092148358e-07
-6.5022112917e-07
1.6297811543e-07
-7.01904977781e-07
1.62782300809e-07
-7.86332592826e-07
1.84940164215e-07
-9.51553591521e-07
3.10793597938e-07
-1.15231688729e-06
4.648291595e-07
-1.21709053269e-06
4.37880907466e-07
-1.22125312666e-06
3.72437408711e-07
-1.320305517e-06
4.59949656431e-07
-1.43071490518e-06
5.58741776163e-07
-1.50534477221e-06
5.74023290449e-07
-1.56768562394e-06
5.48248273512e-07
-1.62605193941e-06
5.1281945384e-07
-1.6626588041e-06
4.55921706275e-07
-1.67730691522e-06
3.90634241398e-07
-1.70137638976e-06
3.28042823117e-07
-1.70476316422e-06
2.88321885354e-07
-1.73094334897e-06
2.60745313608e-07
-1.72639784494e-06
1.83911289987e-07
-1.70308074065e-06
8.64015761338e-08
-1.73342665261e-06
9.7801554127e-08
-1.78378126618e-06
1.21353245675e-07
-1.87183409795e-06
1.56574003204e-07
-2.00618909917e-06
2.88836313827e-07
-2.16365243319e-06
4.14518789121e-07
-2.24126997253e-06
4.17241905243e-07
-2.28449566206e-06
4.0350092452e-07
-2.32055731368e-06
3.85674099741e-07
-2.3570097158e-06
3.61068246646e-07
-2.39472965053e-06
3.28505159895e-07
-2.43586083922e-06
2.87944507878e-07
-2.47862955012e-06
2.44365396408e-07
-2.51694607713e-06
2.04302860333e-07
-2.54752614588e-06
1.69838173279e-07
-2.57072288559e-06
1.38937965789e-07
-2.58795045991e-06
1.08539654136e-07
-2.59990205324e-06
7.55562338326e-08
-2.60588961876e-06
3.65933807567e-08
-2.60447124726e-06
-1.15961996938e-08
-2.5941711482e-06
-7.11907271543e-08
-2.57363377708e-06
-1.42862296077e-07
-2.54212616729e-06
-2.2548174225e-07
-2.49931713259e-06
-3.16036648679e-07
-2.44277911386e-06
-4.1247306759e-07
-2.3649977092e-06
-5.19916938316e-07
-2.25978003364e-06
-6.52996884672e-07
-2.12798442968e-06
-8.2008760049e-07
-1.975676317e-06
-1.00632079659e-06
-1.82195258324e-06
-1.17453254123e-06
-1.69260390768e-06
-1.29737126672e-06
-1.60667635152e-06
-1.40217650613e-06
-1.53333082419e-06
-1.55877484109e-06
-1.30863938042e-06
-1.79593015748e-06
-1.03491259114e-06
-2.08878868833e-06
-5.16043118952e-07
-1.88062288818e-06
-2.25737595269e-07
-1.26278195933e-06
4.00185247408e-08
-1.14482013632e-06
3.07513591384e-07
-1.10098106887e-06
5.48950177884e-07
-1.04337203036e-06
7.22440362857e-07
-9.55862280068e-07
7.99236425075e-07
-7.22896228056e-07
8.45947000333e-07
-4.19190047871e-07
8.78655583258e-07
-1.70274005059e-07
8.601718789e-07
7.63324537524e-08
7.79800508188e-07
3.41354917636e-07
6.72449140389e-07
5.68001926573e-07
5.18725980565e-07
7.2668826873e-07
3.48049245619e-07
8.23767713924e-07
1.92078290559e-07
1.04370649856e-06
1.15826074564e-06
-8.00217954153e-08
5.50647965179e-07
-2.30322964587e-07
8.12751708521e-07
-2.38333312746e-07
8.75512114221e-07
-1.31520009838e-07
4.87578034419e-07
-2.83731225861e-07
5.00636010529e-07
-4.92958533984e-07
8.36123321267e-07
-5.64575374426e-07
8.68234811267e-07
-6.35355119511e-07
8.36888110599e-07
-6.05522305122e-07
6.45768530979e-07
-6.07192440003e-07
6.21082138145e-07
-5.45996899074e-07
3.22996211371e-07
-6.27015242661e-07
2.44168367097e-07
-6.98857198102e-07
2.34858415674e-07
-8.28274707922e-07
3.14647071851e-07
-1.01772390441e-06
5.00623798789e-07
-1.10532737638e-06
5.52800477546e-07
-1.10634086889e-06
4.39196584992e-07
-1.20196435888e-06
4.68395690082e-07
-1.32942366667e-06
5.87798294206e-07
-1.41233646273e-06
6.420334326e-07
-1.47387938806e-06
6.35932992728e-07
-1.53260091727e-06
6.07314443284e-07
-1.59978297851e-06
5.80288556735e-07
-1.65808710479e-06
5.14517217756e-07
-1.65543841597e-06
3.88235932617e-07
-1.6861468354e-06
3.59006175491e-07
-1.6908126466e-06
2.93242897501e-07
-1.65190268135e-06
2.22094856198e-07
-1.64622507162e-06
1.78482388148e-07
-1.75313700466e-06
1.93593711534e-07
-1.80514413451e-06
1.5014426568e-07
-1.79524448269e-06
1.1188434453e-07
-1.93008980119e-06
2.91942105242e-07
-2.10504622062e-06
4.64403747939e-07
-2.18040105818e-06
4.90479219951e-07
-2.23213450557e-06
4.69566644071e-07
-2.27364383249e-06
4.45599074416e-07
-2.31230705537e-06
4.2493237614e-07
-2.35200599598e-06
4.01378836866e-07
-2.39257870088e-06
3.6971157157e-07
-2.43382629404e-06
3.29847967755e-07
-2.47481747511e-06
2.86028475662e-07
-2.5125767184e-06
2.427445233e-07
-2.54448911954e-06
2.02439370229e-07
-2.57011687129e-06
1.65260437616e-07
-2.59009507458e-06
1.29218808722e-07
-2.60435292266e-06
9.05213653862e-08
-2.61178412625e-06
4.4740026661e-08
-2.61111462221e-06
-1.15472812193e-08
-2.6014647242e-06
-8.01106721889e-08
-2.58221194561e-06
-1.61384064431e-07
-2.55267992548e-06
-2.54256687077e-07
-2.51121406008e-06
-3.5672990119e-07
-2.45381886022e-06
-4.69066999218e-07
-2.37498643627e-06
-5.979445554e-07
-2.27274025694e-06
-7.54375641499e-07
-2.15160387621e-06
-9.40160665829e-07
-2.02099015516e-06
-1.1356035523e-06
-1.90553855669e-06
-1.28841306266e-06
-1.84989241239e-06
-1.35145241848e-06
-1.85205653186e-06
-1.39877600966e-06
-1.79787752682e-06
-1.61198763658e-06
-1.65165004271e-06
-1.94137249993e-06
-1.47318035232e-06
-2.26658711511e-06
-9.17749340439e-07
-2.43542676158e-06
-3.1443796729e-07
-1.86560428101e-06
5.91203059753e-08
-1.51799857688e-06
3.80216380245e-07
-1.42163678741e-06
6.41807581658e-07
-1.30462038666e-06
8.05466870942e-07
-1.11909766832e-06
9.03050000901e-07
-8.20096313981e-07
9.93247477759e-07
-5.08886115751e-07
1.04027313787e-06
-2.16783079097e-07
1.01668417069e-06
1.00517151002e-07
9.30824198818e-07
4.2780182011e-07
8.06385813392e-07
6.92974460023e-07
6.30603995435e-07
9.03052087757e-07
4.06807588314e-07
1.04835366349e-06
2.13987692571e-07
1.23660297271e-06
1.37299435171e-06
-1.12511263084e-07
6.63303643451e-07
-2.32648302742e-07
9.33110225181e-07
-1.84426499422e-07
8.2741670287e-07
-1.80221135224e-07
4.83524544037e-07
-3.76805670467e-07
6.97479510403e-07
-4.61972205252e-07
9.21592242483e-07
-5.26336202192e-07
9.32851259594e-07
-5.84456302234e-07
8.95178686529e-07
-5.77917006612e-07
6.39410666329e-07
-5.8008366864e-07
6.23381902529e-07
-5.74404862312e-07
3.17460329752e-07
-6.39706138803e-07
3.09643521406e-07
-7.26305520076e-07
3.21719892315e-07
-8.88233916875e-07
4.76927270281e-07
-1.05968232623e-06
6.72397541174e-07
-1.08080630649e-06
5.74223377492e-07
-1.10631594872e-06
4.65005219763e-07
-1.21025897574e-06
5.72697991075e-07
-1.31521916592e-06
6.93137380238e-07
-1.38772246384e-06
7.14915199086e-07
-1.44268301331e-06
6.91254756222e-07
-1.47928125945e-06
6.44191487514e-07
-1.50743128451e-06
6.08712173418e-07
-1.5346300954e-06
5.41926026793e-07
-1.55668798256e-06
4.1050346936e-07
-1.57336264952e-06
3.75921683374e-07
-1.62292704634e-06
3.43026686141e-07
-1.68137995715e-06
2.80811071241e-07
-1.72987812265e-06
2.27213321355e-07
-1.75246654487e-06
2.16464997655e-07
-1.80750597929e-06
2.05549788575e-07
-1.95944365779e-06
2.64324820947e-07
-2.06246408918e-06
3.95548497313e-07
-2.12805296531e-06
5.30583218194e-07
-2.17594730651e-06
5.38936878216e-07
-2.21994959004e-06
5.14126418535e-07
-2.26265797377e-06
4.88873034841e-07
-2.30370220429e-06
4.6655965073e-07
-2.34512574465e-06
4.43406493664e-07
-2.38763613397e-06
4.12847451749e-07
-2.43018251577e-06
3.7303683264e-07
-2.47121114934e-06
3.27713538633e-07
-2.50914496188e-06
2.81344534446e-07
-2.54252008452e-06
2.36490150765e-07
-2.57041351476e-06
1.93838492561e-07
-2.5924823227e-06
1.51981310482e-07
-2.6082600195e-06
1.07002721173e-07
-2.61669124272e-06
5.38788091687e-08
-2.61674273467e-06
-1.07802872049e-08
-2.60802744467e-06
-8.81219846338e-08
-2.59037639377e-06
-1.78318182198e-07
-2.56293584329e-06
-2.8099257012e-07
-2.52308655231e-06
-3.95844087551e-07
-2.46657835695e-06
-5.24874888709e-07
-2.39013198473e-06
-6.73681852946e-07
-2.29568246967e-06
-8.48025343073e-07
-2.19325381237e-06
-1.04139949205e-06
-2.10208064539e-06
-1.2251674628e-06
-2.06553511719e-06
-1.32323085385e-06
-2.13870798857e-06
-1.27666727693e-06
-2.21267222681e-06
-1.32367557324e-06
-2.13782856198e-06
-1.68612876085e-06
-1.97770629614e-06
-2.1009847008e-06
-1.77613080845e-06
-2.46769261291e-06
-1.45217837625e-06
-2.75888237293e-06
-6.62955089365e-07
-2.65441202897e-06
9.62974859918e-08
-2.27676453065e-06
4.7276911818e-07
-1.7977904226e-06
7.40213796849e-07
-1.57165170009e-06
9.17869142955e-07
-1.29643073731e-06
1.06771313633e-06
-9.69513078416e-07
1.19874560156e-06
-6.39503534455e-07
1.25075036427e-06
-2.68229007675e-07
1.21559849794e-06
1.36201532946e-07
1.11901544963e-06
5.24955260817e-07
9.64157839956e-07
8.4844230675e-07
7.55792074781e-07
1.11195862076e-06
4.8451471811e-07
1.31998462046e-06
2.31786533557e-07
1.49067998254e-06
1.60477964726e-06
-1.41878344565e-07
8.05516476124e-07
-2.46586051285e-07
1.03809061373e-06
-1.69461280626e-07
7.50472596158e-07
-2.30018947624e-07
5.44233475436e-07
-4.09175119036e-07
8.76864537925e-07
-4.15975581338e-07
9.28577283079e-07
-4.7732648358e-07
9.94443101632e-07
-4.73472345367e-07
8.91454465314e-07
-5.18336207434e-07
6.84417289447e-07
-4.87741792742e-07
5.92928256999e-07
-5.55414050748e-07
3.85268029137e-07
-6.40416005493e-07
3.94877215166e-07
-7.41054871873e-07
4.22604165408e-07
-8.96962208708e-07
6.33133246607e-07
-9.79467044407e-07
7.55233608822e-07
-9.69548188185e-07
5.64545143266e-07
-1.06468015711e-06
5.60428841973e-07
-1.18511092842e-06
6.93481172839e-07
-1.27916617738e-06
7.87567128786e-07
-1.35769588826e-06
7.93803143589e-07
-1.42057673436e-06
7.54415167542e-07
-1.47506669153e-06
6.98979122471e-07
-1.48715139719e-06
6.21012836196e-07
-1.48727543724e-06
5.42249268206e-07
-1.55194165527e-06
4.75379658544e-07
-1.55712325911e-06
3.81298561488e-07
-1.51991072775e-06
3.06034292863e-07
-1.52149690257e-06
2.82599954143e-07
-1.5940882459e-06
3.00065173013e-07
-1.71070939368e-06
3.33392580512e-07
-1.81018438451e-06
3.05423217697e-07
-1.90881783072e-06
3.63461683291e-07
-2.05866213589e-06
5.45992803604e-07
-2.12274406751e-06
5.95215218867e-07
-2.16483615215e-06
5.81552502047e-07
-2.20862185785e-06
5.58441536541e-07
-2.25295608002e-06
5.33758110934e-07
-2.29557442621e-06
5.09749552014e-07
-2.33751981907e-06
4.8594381697e-07
-2.38073925411e-06
4.56676368272e-07
-2.42458299412e-06
4.17505614244e-07
-2.46689876165e-06
3.70665210309e-07
-2.50606458217e-06
3.21157747807e-07
-2.54112286537e-06
2.72206594598e-07
-2.57124634288e-06
2.24633897903e-07
-2.59536742837e-06
1.76786092092e-07
-2.61221312296e-06
1.24539071273e-07
-2.62091461188e-06
6.32782106934e-08
-2.6213019552e-06
-9.70519173633e-09
-2.61363073955e-06
-9.50959594514e-08
-2.59813149142e-06
-1.93145332994e-07
-2.57382455617e-06
-3.0461009608e-07
-2.53722850137e-06
-4.31767181387e-07
-2.48338748139e-06
-5.78081976514e-07
-2.41047072435e-06
-7.45998671136e-07
-2.32418500601e-06
-9.33414116361e-07
-2.24991002293e-06
-1.11436944519e-06
-2.25537578828e-06
-1.21799070249e-06
-2.41093388688e-06
-1.16532083187e-06
-2.70644651386e-06
-9.795307842e-07
-2.72681315808e-06
-1.3024961002e-06
-2.54578451969e-06
-1.86669000455e-06
-2.29885477119e-06
-2.34758558037e-06
-2.03828392823e-06
-2.72800599922e-06
-1.78634323674e-06
-3.01047733312e-06
-1.22350925508e-06
-3.21675169897e-06
-2.59979201682e-07
-3.23987173591e-06
5.35308011143e-07
-2.59261428331e-06
8.33941455261e-07
-1.86996001823e-06
1.06667795881e-06
-1.52882413667e-06
1.29097742187e-06
-1.19340706437e-06
1.46086749084e-06