/*--------------------------------*- C++ -*----------------------------------*\
| =========                 |                                                 |
| \\      /  F ield         | OpenFOAM: The Open Source CFD Toolbox           |
|  \\    /   O peration     | Version:  v1806                                 |
|   \\  /    A nd           | Web:      www.OpenFOAM.com                      |
|    \\/     M anipulation  |                                                 |
\*---------------------------------------------------------------------------*/
FoamFile
{
    version     2.0;
    format      ascii;
    class       volScalarField;
    location    "301";
    object      pa;
}
// * * * * * * * * * * * * * * * * * * * * * * * * * * * * * * * * * * * * * //

dimensions      [0 2 -2 0 0 0 0];


internalField   nonuniform List<scalar> 
6400
(
-0.12664227394
-0.12664371973
-0.126647746269
-0.126655435997
-0.126666466947
-0.126680688635
-0.126698173638
-0.126719690798
-0.126745402984
-0.126775471361
-0.126813427225
-0.126861187098
-0.126916677808
-0.126980079421
-0.127052839274
-0.1271366184
-0.127232131363
-0.127339129105
-0.127456820965
-0.127582190782
-0.127711036958
-0.127843466048
-0.127983643678
-0.128136528316
-0.128305783461
-0.128491599167
-0.12869163662
-0.128904362011
-0.1291300687
-0.1293698644
-0.129624807881
-0.129894184751
-0.130173623098
-0.130458744848
-0.130748344989
-0.131039503312
-0.131331611077
-0.131631946824
-0.1319399909
-0.132245803514
-0.132550818108
-0.132870212567
-0.133212579222
-0.133570654165
-0.13393600818
-0.134303728962
-0.134670023218
-0.135032836091
-0.135390466385
-0.135741720788
-0.136086444611
-0.136420152506
-0.136735890635
-0.137022651151
-0.137281165556
-0.137523039365
-0.13774508275
-0.137933541362
-0.138083348131
-0.138204372255
-0.138302476198
-0.138379787804
-0.138435332079
-0.13848272472
-0.138545451029
-0.138636169434
-0.138747459548
-0.138855191578
-0.138942497872
-0.139008715842
-0.139058732956
-0.139097695773
-0.139129005933
-0.139153207111
-0.139171825375
-0.139185844248
-0.139195880441
-0.139201728441
-0.139205068702
-0.139206418705
-0.126640167711
-0.126641691236
-0.126645257112
-0.126652783982
-0.12666476977
-0.12667994682
-0.126697745581
-0.126718238648
-0.126742772578
-0.126772845792
-0.126810568455
-0.126857464573
-0.126913056045
-0.126977063627
-0.127049960364
-0.127132730165
-0.127227701678
-0.127335100425
-0.127453833238
-0.127579997435
-0.127707483251
-0.127838161871
-0.127977610596
-0.128130000943
-0.128299292962
-0.128485632787
-0.128685629271
-0.128898561853
-0.129124869743
-0.129365103138
-0.129619675581
-0.129889032448
-0.130169244232
-0.130454123392
-0.130743829275
-0.131035091761
-0.131326526623
-0.131627066982
-0.131935905172
-0.132241314153
-0.132542543472
-0.1328602666
-0.133207170807
-0.133568452237
-0.133935034979
-0.134304145094
-0.134671641744
-0.135035980354
-0.135394697187
-0.135744359046
-0.136084862148
-0.136418733541
-0.136743923261
-0.137033705756
-0.137293729921
-0.137540851541
-0.1377596208
-0.137942014587
-0.138091658207
-0.138212318721
-0.138306468333
-0.13838464129
-0.138443522316
-0.138493013418
-0.138557191629
-0.138648579416
-0.138761350149
-0.13886842996
-0.13895422172
-0.139019268631
-0.139068201463
-0.139106242811
-0.139136762865
-0.139160115093
-0.139177419712
-0.13918996953
-0.139198492892
-0.139203481737
-0.139206356686
-0.139207256523
-0.1266343126
-0.126636851446
-0.126639915711
-0.126646775448
-0.12665836686
-0.126675477553
-0.126695047623
-0.126714851256
-0.126737879646
-0.12676705894
-0.12680420394
-0.126850494226
-0.126905942796
-0.126970138091
-0.127042874513
-0.127122990981
-0.127216046694
-0.127327450087
-0.12744849072
-0.127573769922
-0.127698178386
-0.127824125036
-0.12796185672
-0.128115800915
-0.128285195722
-0.128470563615
-0.128671049026
-0.128885017987
-0.129112069831
-0.129352837936
-0.129607460376
-0.129876928059
-0.130158810576
-0.130442472086
-0.130729930067
-0.131023321208
-0.131313884369
-0.131611756554
-0.131920898403
-0.132228406802
-0.132535922608
-0.13285750696
-0.133200863476
-0.133559473841
-0.133925739324
-0.134295293482
-0.134664641354
-0.135031270741
-0.135392714199
-0.135746625143
-0.136091804584
-0.136426517787
-0.136744734009
-0.137038198227
-0.137310503882
-0.137559379309
-0.137774391223
-0.137955143918
-0.138104460594
-0.138225504065
-0.138322682374
-0.138401069235
-0.13846054907
-0.138515567712
-0.138586361259
-0.138681617359
-0.138790513172
-0.138893351337
-0.138977803522
-0.139041790774
-0.139089419169
-0.139125440807
-0.13915252986
-0.139172241797
-0.139186868801
-0.139197103978
-0.139203360767
-0.139206754847
-0.139208651271
-0.139209214355
-0.126626346717
-0.126628852709
-0.126631168612
-0.126637430484
-0.126647533408
-0.126664359387
-0.126689802727
-0.126709492237
-0.126730642802
-0.12675829069
-0.126794542912
-0.126840341539
-0.126895703801
-0.126959237209
-0.127031566075
-0.127115191594
-0.127211560048
-0.127320904977
-0.127436494076
-0.127553013275
-0.12767314973
-0.127801075335
-0.127939952782
-0.128093358825
-0.128262848072
-0.128448680988
-0.128650004567
-0.128865014508
-0.129093152972
-0.129334481754
-0.129590136608
-0.129860060956
-0.130142033812
-0.130429052205
-0.130712786518
-0.131000980141
-0.131295250251
-0.131591576074
-0.131894715137
-0.132203900929
-0.132518717597
-0.132845642864
-0.133189556611
-0.133547596571
-0.133914310286
-0.134285286425
-0.134656972851
-0.135026541612
-0.135391444238
-0.135749330168
-0.136098131862
-0.136435064916
-0.136755517893
-0.137054750864
-0.137331224682
-0.137580097943
-0.137795101048
-0.13797583152
-0.138125318007
-0.138247433101
-0.138346676932
-0.138427370141
-0.138493829377
-0.138559825388
-0.138635177529
-0.138727360461
-0.13883432962
-0.138935171776
-0.139017323067
-0.139078678402
-0.139122375251
-0.139152735882
-0.139174020714
-0.139190004019
-0.139201498204
-0.139208201363
-0.139211153075
-0.13921234757
-0.139212986048
-0.139213205734
-0.126614003145
-0.126614200448
-0.12661707259
-0.126623392613
-0.126634470617
-0.126649913418
-0.126672561831
-0.126694719823
-0.126717368042
-0.126745316449
-0.126780844288
-0.126826258834
-0.126881709441
-0.126948452084
-0.127025639492
-0.127109753283
-0.127202038776
-0.127302556514
-0.127409688551
-0.127523282896
-0.127643647172
-0.127771544909
-0.127910464667
-0.128064031358
-0.128233671495
-0.128420031093
-0.128621958667
-0.128838218027
-0.129067596133
-0.12931041087
-0.129566635816
-0.129838896622
-0.130124623843
-0.130407003492
-0.130688803068
-0.130973855969
-0.131262205773
-0.131558082494
-0.131862419046
-0.132174579217
-0.132494806316
-0.13282646058
-0.133172428878
-0.133531401777
-0.133899521111
-0.134272747435
-0.134647505808
-0.13502079103
-0.135389969935
-0.135752583029
-0.136106096915
-0.136447363394
-0.136772373089
-0.137077030361
-0.137357442943
-0.137607982263
-0.137824073624
-0.138005957468
-0.13815703046
-0.138281673123
-0.13838461853
-0.138470785647
-0.138547085198
-0.138623592749
-0.138700842841
-0.138792341821
-0.138897313704
-0.138995274719
-0.139073691069
-0.139129783759
-0.139166121819
-0.139188758703
-0.139204838406
-0.139216623251
-0.139222742705
-0.139224242753
-0.139223206365
-0.13922171394
-0.139220124989
-0.139219203091
-0.126590866422
-0.126590499793
-0.126595768666
-0.126602061561
-0.126613978347
-0.126630416223
-0.126651127276
-0.126673664025
-0.126698357056
-0.126727271869
-0.126761611589
-0.126807046922
-0.126867611085
-0.126938981892
-0.127015437691
-0.127095674141
-0.127181365338
-0.127275275638
-0.127378653819
-0.127490214517
-0.127608130021
-0.127734820763
-0.127873766222
-0.128027757803
-0.128197834635
-0.128384025547
-0.128587079559
-0.128804404733
-0.129035700575
-0.129279990759
-0.129538822739
-0.129811888005
-0.130095219015
-0.130381342308
-0.130657143782
-0.130934121446
-0.131220192145
-0.131516863941
-0.131823415071
-0.132139051734
-0.132464026295
-0.132800245956
-0.133149363691
-0.133510631355
-0.133881221518
-0.13425756785
-0.13463618703
-0.135014013767
-0.135388380908
-0.135756757683
-0.136116387024
-0.136463939658
-0.136795408477
-0.137106250939
-0.137391290425
-0.137644935629
-0.137863888057
-0.138049039129
-0.138203928937
-0.138333124031
-0.138441602348
-0.138535409483
-0.138624361332
-0.138706979157
-0.13878688286
-0.138880993727
-0.13898627004
-0.139080027667
-0.139151177131
-0.139197330776
-0.139223236761
-0.139238339879
-0.139248783786
-0.139252805116
-0.139250881107
-0.139245581951
-0.139239517158
-0.139233234391
-0.139228411635
-0.139226131112
-0.126555476214
-0.126557937662
-0.126567213979
-0.126576692885
-0.126586228834
-0.126602519818
-0.126624450178
-0.126647438132
-0.126673570219
-0.126703510555
-0.126739938744
-0.126786354389
-0.126850840759
-0.126921575314
-0.126994865793
-0.127069580558
-0.127150477682
-0.12724224886
-0.127343958572
-0.127451045004
-0.127565807614
-0.127691753073
-0.127830400288
-0.127984001335
-0.128154229645
-0.128342493529
-0.128544499468
-0.128763434831
-0.128996844553
-0.129245648694
-0.129506238251
-0.129777805576
-0.130060442083
-0.130339030043
-0.13061147532
-0.130885097022
-0.131170502946
-0.131468563599
-0.131777702798
-0.132096876383
-0.132426289666
-0.132767097582
-0.133120168053
-0.133484880932
-0.133859008183
-0.134239405858
-0.134622763745
-0.135006082363
-0.135386747949
-0.135762227097
-0.136129634747
-0.136485409609
-0.136825152291
-0.137143603872
-0.137434925627
-0.137693941421
-0.137918356141
-0.138109470799
-0.138270664259
-0.138406146561
-0.138521571994
-0.138624993735
-0.138722705046
-0.138810877013
-0.138904335412
-0.13900232468
-0.139105938315
-0.139191521687
-0.139250539161
-0.139283604316
-0.13929898735
-0.139306404903
-0.139306723226
-0.139298805149
-0.139286135476
-0.139271680381
-0.139257997982
-0.139245184435
-0.139235993731
-0.1392318099
-0.126514156299
-0.126519260671
-0.126530108876
-0.126544276817
-0.126554538206
-0.126571119389
-0.126592118585
-0.126615893962
-0.126643954023
-0.126672024475
-0.126712278671
-0.126765039766
-0.126827740452
-0.126896016507
-0.126964416834
-0.127033780965
-0.127113279541
-0.127204906638
-0.12730236348
-0.127405017648
-0.127516985741
-0.127641761256
-0.127779979607
-0.127934155207
-0.128105245375
-0.128293555303
-0.12849789724
-0.12871348073
-0.128952081044
-0.12920742429
-0.129467327928
-0.129732700283
-0.130011995905
-0.130285035689
-0.130552260592
-0.130826927831
-0.131113573359
-0.131413204169
-0.13172488589
-0.132047604709
-0.132381385037
-0.1327269335
-0.133084628384
-0.133453780859
-0.133832469046
-0.13421788624
-0.134606960945
-0.134996875604
-0.135385160017
-0.135769334594
-0.136146413428
-0.136512526677
-0.136862698846
-0.137190963131
-0.137491188954
-0.137758724787
-0.137991923713
-0.13819188649
-0.138360905162
-0.138502492786
-0.138623583252
-0.13873382863
-0.138839462686
-0.138943217945
-0.139049477746
-0.13915820406
-0.139258154518
-0.139332835868
-0.139377528128
-0.139396662324
-0.139400553955
-0.139395330662
-0.139378983154
-0.139354841942
-0.139327621096
-0.139300550692
-0.139275580365
-0.139254744932
-0.139240394187
-0.139233692483
-0.126469251838
-0.126476047512
-0.12648700718
-0.126498210577
-0.126511926873
-0.126533109374
-0.126553401722
-0.126577414268
-0.126608819449
-0.126639171601
-0.126676505439
-0.126733531226
-0.126796943433
-0.126861137912
-0.126925253944
-0.126993573711
-0.127071184927
-0.127159830353
-0.127253215712
-0.127352834264
-0.127462294479
-0.127584752602
-0.127721017575
-0.127874450688
-0.128050430042
-0.128237233785
-0.128443459462
-0.128664444788
-0.128901107204
-0.12915470761
-0.129417163988
-0.129686822786
-0.129950644192
-0.130215794788
-0.130483741385
-0.130760419019
-0.131048900931
-0.131350329095
-0.131664513516
-0.131990776578
-0.132329005236
-0.132679546991
-0.133042451438
-0.133416919391
-0.133801150242
-0.13419258694
-0.134588457299
-0.134986233809
-0.135383665166
-0.13577837183
-0.136167295228
-0.136546226638
-0.136909579189
-0.137250771872
-0.13756353669
-0.137843585408
-0.13808922455
-0.138300142735
-0.138476424793
-0.138621435031
-0.138745998858
-0.13886401417
-0.138982646851
-0.139102398836
-0.13922148176
-0.139346447621
-0.139454049578
-0.13951330105
-0.139541574948
-0.139545381556
-0.139533041694
-0.139506534801
-0.139466554977
-0.139420602762
-0.139373631922
-0.139328883167
-0.139289279287
-0.139258709085
-0.139238565221
-0.139229033477
-0.126420231702
-0.126428289846
-0.12644091289
-0.126451487887
-0.126466020612
-0.126487263391
-0.12650774925
-0.126531257922
-0.126561016397
-0.12659974672
-0.126638627923
-0.126694495921
-0.126757351734
-0.126818018797
-0.126877627876
-0.126946353675
-0.127024780366
-0.127108583586
-0.127197056504
-0.127293809196
-0.127401702397
-0.1275223882
-0.127656725297
-0.127806515074
-0.12798521173
-0.128177232299
-0.128375843303
-0.128601902893
-0.128839504741
-0.12909551193
-0.129357226186
-0.129621745391
-0.129881425655
-0.130139161343
-0.130406653373
-0.130685393419
-0.130976004281
-0.13127947139
-0.131596164572
-0.131925924499
-0.132268705425
-0.132624566605
-0.132993246884
-0.133373815443
-0.133764528827
-0.134163029758
-0.134566873336
-0.134973916897
-0.135382212962
-0.135789539132
-0.136192815589
-0.136587560492
-0.136967633355
-0.137325921125
-0.137655962058
-0.13795326842
-0.138214755852
-0.138436559671
-0.138615837279
-0.138760539831
-0.138890131761
-0.139022131724
-0.139158791555
-0.139295028161
-0.139428927778
-0.139559753877
-0.139671891587
-0.139744117713
-0.139754756601
-0.139738282068
-0.139701185655
-0.139643321825
-0.139570306632
-0.139494816719
-0.139421689032
-0.139353501266
-0.139295456971
-0.139252997802
-0.139226043951
-0.139213385634
-0.126365123478
-0.126372901155
-0.126386201905
-0.126399344515
-0.126418119141
-0.126435399361
-0.126455294643
-0.126479223889
-0.126503548339
-0.126545431586
-0.126590658824
-0.126645778524
-0.126707611884
-0.126767044039
-0.126824801331
-0.1268916944
-0.126969419422
-0.127049566362
-0.127133876494
-0.127226919304
-0.127332843412
-0.127452928242
-0.127588932418
-0.127735810319
-0.127906563175
-0.128107621764
-0.128309871844
-0.1285320037
-0.128768502197
-0.129013864197
-0.129280462646
-0.12954331888
-0.129798010223
-0.130053316686
-0.130321152432
-0.130601638398
-0.13089440736
-0.131200148141
-0.131519445863
-0.131852621906
-0.132199985677
-0.132561478814
-0.132936490335
-0.13332389779
-0.133721990007
-0.134128621956
-0.134541716703
-0.134959567298
-0.135380601133
-0.135802849088
-0.136223358177
-0.136637515389
-0.137038823864
-0.137419677007
-0.137773036996
-0.138092918455
-0.138371925438
-0.138599532387
-0.138775522963
-0.138920438225
-0.139063635673
-0.139220157877
-0.139379948457
-0.139532400436
-0.13967609872
-0.139805768217
-0.139915783329
-0.140004504945
-0.140024001756
-0.139989633401
-0.139915466094
-0.139812686879
-0.139690590378
-0.139574633479
-0.139468339426
-0.13937004063
-0.13928707811
-0.13923041448
-0.139196025364
-0.13918039439
-0.126302501035
-0.126308503293
-0.126317980976
-0.126335223835
-0.126359436691
-0.126375577148
-0.126395134254
-0.126421060026
-0.126443507313
-0.126481816431
-0.126531485427
-0.126586948356
-0.126647046494
-0.126706005888
-0.126766301607
-0.126832121746
-0.126906650088
-0.12698290164
-0.12706375757
-0.127152924291
-0.12725449373
-0.127370952413
-0.127511607399
-0.127665102268
-0.127827553776
-0.128024903383
-0.128231977751
-0.128446451548
-0.1286899733
-0.12893689233
-0.12919174278
-0.129445897663
-0.129697841659
-0.129956662407
-0.130226285999
-0.130508481855
-0.130803447339
-0.131111718636
-0.131433899597
-0.131770487615
-0.132122315927
-0.132489637147
-0.132871528228
-0.133266481868
-0.133672799029
-0.134088631262
-0.134512322717
-0.134942617227
-0.135378357619
-0.135817992489
-0.136258899739
-0.136696735503
-0.137125003848
-0.137535667191
-0.137920017943
-0.138267119286
-0.1385599012
-0.13878509457
-0.138956133313
-0.139109054698
-0.139282792191
-0.139479250261
-0.139667153867
-0.139833413297
-0.139984649931
-0.140113507015
-0.140216132039
-0.140295280508
-0.140341915231
-0.140309339901
-0.140198909375
-0.140030269873
-0.139825999784
-0.139654315403
-0.139509939038
-0.139371347748
-0.139250818445
-0.139179844102
-0.139140641654
-0.139126033332
-0.126232286354
-0.12623653607
-0.12624062264
-0.126260045547
-0.126283601032
-0.126303069415
-0.126324006912
-0.126352003673
-0.126377279878
-0.126413322213
-0.12646369897
-0.126518540834
-0.126576274058
-0.126632217226
-0.126695529311
-0.126764374883
-0.126835781401
-0.12690833226
-0.126986179466
-0.127072229893
-0.127168970639
-0.12727865763
-0.127415740964
-0.127582183991
-0.127746230216
-0.127929909973
-0.128143521259
-0.128358281289
-0.128589642712
-0.128837686943
-0.12908974923
-0.129339280543
-0.129588017782
-0.129848670509
-0.130120721692
-0.130405087626
-0.13070235376
-0.131013185254
-0.131338617878
-0.131679076249
-0.132035391356
-0.132408447263
-0.132797527873
-0.133200699304
-0.133616068645
-0.134042143034
-0.134477790436
-0.13492218418
-0.135374597044
-0.135834024582
-0.136298643096
-0.136765014619
-0.137227603371
-0.137677734553
-0.138102233678
-0.138477092131
-0.138773799503
-0.138991997557
-0.139165095359
-0.139341480703
-0.139573257882
-0.139830843546
-0.140049530679
-0.140224940178
-0.140380531817
-0.140499397762
-0.140582143332
-0.140639538929
-0.140690592212
-0.140681514054
-0.140549716034
-0.14030148674
-0.139953956125
-0.139717574026
-0.13954736214
-0.139351688067
-0.139161141984
-0.139086279656
-0.139052469413
-0.139048034325
-0.126155180825
-0.12615999762
-0.126166928185
-0.126179467059
-0.126199030869
-0.126220357641
-0.126243078338
-0.126271328358
-0.126302066419
-0.126337252618
-0.126387363424
-0.126441151956
-0.126496905296
-0.126550174026
-0.126611213113
-0.126682908185
-0.126754005222
-0.126824750185
-0.12690020723
-0.126983616837
-0.127076668748
-0.127180208145
-0.12731000562
-0.127480496342
-0.127653667674
-0.127830034186
-0.128042199704
-0.128260680497
-0.128482285305
-0.128724012689
-0.128967326855
-0.129212407454
-0.129465326913
-0.129728890208
-0.130003500791
-0.13029030728
-0.13059041812
-0.130904119216
-0.131232593884
-0.131577194111
-0.131938572221
-0.132317518108
-0.132713809502
-0.133125550852
-0.133550675349
-0.133987994893
-0.134436925824
-0.134896994052
-0.135367741157
-0.135849009562
-0.136340289162
-0.136840535746
-0.137346807986
-0.137849604291
-0.138324574474
-0.138717114439
-0.139003050198
-0.139227216121
-0.139427296764
-0.139642764741
-0.139973447868
-0.140363952151
-0.140614046058
-0.140751557719
-0.14088886134
-0.140998437366
-0.141088215853
-0.141153623832
-0.141195833419
-0.141216521425
-0.141270708657
-0.140949241814
-0.140112290393
-0.139715335214
-0.139578311232
-0.139288331879
-0.138950066807
-0.138930154084
-0.138919949497
-0.138950289542
-0.126069309001
-0.126074661188
-0.126086690617
-0.126092853832
-0.126108005695
-0.126129340251
-0.126153242215
-0.126182748457
-0.126220106407
-0.126253594572
-0.126302452648
-0.126355146978
-0.126409498808
-0.126461881017
-0.126520836349
-0.126591975066
-0.126662401044
-0.126732100584
-0.126805666846
-0.126886393058
-0.126976323832
-0.127075941832
-0.127196318922
-0.127360339905
-0.127547055778
-0.127724232836
-0.127922809878
-0.12815076414
-0.128376005549
-0.128598915408
-0.128832703642
-0.129075586811
-0.12933009907
-0.129596183453
-0.129873621416
-0.130163289478
-0.130466203223
-0.130783360502
-0.131115477624
-0.131464056805
-0.131830704373
-0.13221604755
-0.132619759065
-0.133040133979
-0.133475340119
-0.133924726499
-0.134388179337
-0.134865243397
-0.135355461312
-0.135859364707
-0.136379041083
-0.136918318189
-0.137480317505
-0.138054128214
-0.138589234718
-0.138968557499
-0.139252246785
-0.139561510856
-0.139880011303
-0.14006517112
-0.1405484641
-0.14049731209
-0.140299959916
-0.14012625591
-0.139997012466
-0.139846120211
-0.139679600757
-0.139538075823
-0.13947814958
-0.13940187831
-0.139088735561
-0.13863181036
-0.138548542879
-0.139510687128
-0.140128804333
-0.139656513633
-0.138530428148
-0.138693541898
-0.138729100933
-0.138865795282
-0.125972944789
-0.125977653174
-0.125987896097
-0.125994694888
-0.126007738384
-0.126029244614
-0.126053142709
-0.126081293849
-0.126124271152
-0.126160681346
-0.126208185614
-0.126260176977
-0.126313942564
-0.12636684796
-0.126424637902
-0.126493578255
-0.126562403518
-0.126631061131
-0.126702850316
-0.126780883231
-0.1268673459
-0.126963694509
-0.127077107132
-0.127231169771
-0.127422609334
-0.127608690574
-0.127794581384
-0.128011312336
-0.128241639646
-0.128463928559
-0.12868943268
-0.128928249167
-0.129182694211
-0.129450699864
-0.129730791044
-0.130023100121
-0.130329095381
-0.13064964328
-0.13098594385
-0.131339060614
-0.131711000072
-0.132103028239
-0.132514642261
-0.132943709078
-0.133388654905
-0.133850298718
-0.134329571064
-0.134825165343
-0.135334432411
-0.13585886444
-0.136405806227
-0.136987390796
-0.137619641683
-0.138290617363
-0.138889335036
-0.139228873445
-0.139542967976
-0.139880726375
-0.139714064949
-0.139378081088
-0.139192220395
-0.13910292959
-0.138737436756
-0.138075143381
-0.137238220057
-0.136300834536
-0.1353553201
-0.13453516134
-0.133988681836
-0.133736189837
-0.13361465711
-0.133571906996
-0.133775446749
-0.134257276925
-0.134870057573
-0.135188644557
-0.136411696656
-0.138709948872
-0.138491439043
-0.138876598494
-0.125867646095
-0.125871648664
-0.125881581165
-0.12588775916
-0.12590025874
-0.125921121911
-0.125944515199
-0.125969414808
-0.126011161469
-0.126054069517
-0.126102852808
-0.126154941274
-0.126208994642
-0.12626447984
-0.126320972743
-0.126387411509
-0.126454294102
-0.126521956514
-0.126591904676
-0.126667232049
-0.126750030796
-0.126842250497
-0.126949698933
-0.12709276958
-0.127278194222
-0.127478311919
-0.12766311078
-0.127864346779
-0.128083932421
-0.128303629441
-0.128526222157
-0.128765527875
-0.12902074265
-0.129290457793
-0.129573427819
-0.129869043911
-0.130178081128
-0.130502351393
-0.130842940293
-0.131201166956
-0.131578821938
-0.131977463589
-0.132397209546
-0.132835426237
-0.133289839925
-0.133763596158
-0.134259786044
-0.134774298564
-0.135299674321
-0.135838802943
-0.136405935425
-0.137026397517
-0.13774322244
-0.138529591567
-0.139275274985
-0.139400163646
-0.139251108712
-0.139039225139
-0.138680932909
-0.137981639055
-0.137139315678
-0.136245597325
-0.135158928816
-0.133780895167
-0.132191544005
-0.130500227844
-0.128848315629
-0.127391721173
-0.12628786399
-0.125602453261
-0.125196187962
-0.124959537794
-0.125051457785
-0.125807900073
-0.127277944153
-0.129070593465
-0.131000689029
-0.133241799891
-0.138174535265
-0.138878063903
-0.125754895517
-0.125757848143
-0.125764689434
-0.125771543557
-0.125786100438
-0.125806110326
-0.125829663271
-0.125852535778
-0.125891724118
-0.125937257299
-0.125986682772
-0.126038380983
-0.126091702236
-0.126150849599
-0.126207716972
-0.126271653229
-0.126336713701
-0.126404056423
-0.126472324264
-0.126545006015
-0.126624075011
-0.126711552818
-0.126812978594
-0.126945789342
-0.127121618438
-0.127326428216
-0.127521386453
-0.127713433265
-0.127918333717
-0.128128506204
-0.128347710398
-0.128586264403
-0.128841522899
-0.129112623282
-0.129398711291
-0.12969831388
-0.130011697435
-0.130340055192
-0.130685647005
-0.131049322488
-0.131432987403
-0.131839050797
-0.132267605726
-0.132715464276
-0.133176882776
-0.133657447921
-0.134170208419
-0.134709534842
-0.135248950478
-0.135789268378
-0.136354118288
-0.136981058417
-0.137783949188
-0.138637011274
-0.139275034865
-0.138929337158
-0.138309690646
-0.137675021532
-0.136815461107
-0.135650037103
-0.13421356695
-0.132579487674
-0.130791540275
-0.128877221921
-0.126900992543
-0.124930625033
-0.123051111821
-0.121339698873
-0.119857967538
-0.118639407703
-0.117673741666
-0.116866943722
-0.116336083751
-0.116417809932
-0.117438198652
-0.11954072586
-0.122778085197
-0.126939512782
-0.131870922734
-0.139703228957
-0.125636452942
-0.125638496921
-0.125641786543
-0.125649741806
-0.125665866518
-0.125684670551
-0.125707824219
-0.125731200564
-0.125766264562
-0.125811724257
-0.125860456159
-0.125910842803
-0.125961773708
-0.126020541425
-0.126081209498
-0.126144080636
-0.126207452349
-0.126274446499
-0.126342330327
-0.126413050063
-0.126488789836
-0.126570903496
-0.126666139348
-0.126788942187
-0.12695149471
-0.127147753135
-0.12735195492
-0.127544312661
-0.127739967191
-0.127942417807
-0.128154528155
-0.128389811805
-0.128645132226
-0.12891540277
-0.129204686359
-0.129508874433
-0.129826471914
-0.130160166092
-0.130511959317
-0.130882925577
-0.131273708014
-0.131686852513
-0.132123544951
-0.132582150609
-0.133058246072
-0.133554263232
-0.134079132136
-0.134620786874
-0.135161215241
-0.135693853396
-0.136213308153
-0.136740874575
-0.137718320229
-0.138597303219
-0.137945637818
-0.137242156564
-0.136546744969
-0.135437964617
-0.133987621727
-0.132226377779
-0.130212537214
-0.128012199488
-0.125703303661
-0.123349539066
-0.120995586346
-0.118668473422
-0.116401347812
-0.114223395209
-0.112155714133
-0.110229287666
-0.108506910888
-0.106979081759
-0.105697222694
-0.104885560758
-0.104898374567
-0.10628221401
-0.109493829451
-0.113672015538
-0.116621109164
-0.118584778915
-0.125512987204
-0.125514610426
-0.125516490091
-0.125525995421
-0.125541156024
-0.125557551578
-0.125577776889
-0.125602642385
-0.125633333373
-0.125677212173
-0.125724589056
-0.125773354221
-0.125822201493
-0.125877531927
-0.125940773277
-0.126004088333
-0.12606639342
-0.126131936058
-0.126199496293
-0.126269359324
-0.126342977311
-0.126419711101
-0.126508305628
-0.12662158531
-0.126770478271
-0.1269536331
-0.127154404705
-0.127349338747
-0.127536738109
-0.127731917231
-0.127942251301
-0.128170751291
-0.128423403324
-0.128694959615
-0.128988252432
-0.129297571
-0.129620212513
-0.129960032217
-0.130319037435
-0.13069854968
-0.131098865414
-0.13152152633
-0.131970810135
-0.132448560538
-0.132948131648
-0.133457990967
-0.133983984273
-0.134526923012
-0.135077317576
-0.135605733327
-0.135987715032
-0.135881390066
-0.137425486442
-0.136461186749
-0.135481109278
-0.134894735673
-0.133774612084
-0.132131725532
-0.130106083272
-0.127774456617
-0.125227289781
-0.122530503005
-0.119741396492
-0.116894339907
-0.114002991831
-0.111071980667
-0.108115681275
-0.105152108943
-0.102195171717
-0.0992664848634
-0.0964223287939
-0.0937163997427
-0.0910732892651
-0.0885253706866
-0.0863639589822
-0.0853357581762
-0.0858856755342
-0.0847398137862
-0.0735186452643
-0.0566563948945
-0.125383246472
-0.125384678233
-0.125386427106
-0.125397953101
-0.12541159341
-0.125425178518
-0.125441337889
-0.125466447757
-0.125491738317
-0.125533131781
-0.125579025224
-0.125626068466
-0.12567327521
-0.125726234084
-0.125788751915
-0.125852174667
-0.125913944183
-0.125977845297
-0.126043498147
-0.126112267939
-0.126184694547
-0.12625672521
-0.1263378058
-0.12644182418
-0.126577598903
-0.126746040863
-0.126938460197
-0.127132044629
-0.127321939929
-0.127507161443
-0.127712032694
-0.127936512453
-0.128182751935
-0.128447449926
-0.128740466147
-0.129058663651
-0.129389483334
-0.129737688688
-0.130104729082
-0.130493574469
-0.130906075545
-0.13134333243
-0.131813231141
-0.132318124734
-0.132836319319
-0.133354793909
-0.133888444883
-0.134459278943
-0.135084422369
-0.135738777528
-0.136402515775
-0.135410191711
-0.134239633861
-0.133390870008
-0.132784755799
-0.1318087665
-0.130098240984
-0.127896266343
-0.125319861829
-0.122465177888
-0.119414861081
-0.116222864101
-0.112923772749
-0.109530066987
-0.106042777369
-0.102463102053
-0.0988003623095
-0.0950623216315
-0.0912420924128
-0.0873194832598
-0.0832883559572
-0.0791545772868
-0.0747417975958
-0.0698174574145
-0.0644882531124
-0.0593603035169
-0.0541008633233
-0.0422192499463
-0.0090040319791
0.0388441516802
-0.125244175187
-0.125245354058
-0.125248038345
-0.125261886934
-0.125274195846
-0.125285302889
-0.125298806102
-0.125321861175
-0.125341464324
-0.125379373975
-0.125423460256
-0.1254685285
-0.12551388955
-0.125564320865
-0.125624640423
-0.125687412844
-0.125749481988
-0.125811516822
-0.125874097184
-0.125940663206
-0.126011749302
-0.126080136165
-0.126152605242
-0.126247217349
-0.126370734367
-0.126523413969
-0.126702831666
-0.126886191912
-0.127078020404
-0.127264543414
-0.127460327193
-0.127674148424
-0.127916936838
-0.128183471661
-0.128468669421
-0.128787163502
-0.12912771584
-0.129486347221
-0.129865892371
-0.13026670449
-0.130692579003
-0.131152099086
-0.131654831026
-0.132188278574
-0.132718020194
-0.133243408998
-0.133801347286
-0.134433903666
-0.135172944992
-0.136267467
-0.134933164563
-0.133375023973
-0.131826845254
-0.130825621581
-0.129777765614
-0.128090408633
-0.125749261026
-0.122967462699
-0.119852858038
-0.116500459584
-0.112973941522
-0.109313376497
-0.105541706898
-0.10166740644
-0.0976918444783
-0.0936135977201
-0.0894276298049
-0.0851154186624
-0.0806337713198
-0.0759082656347
-0.0708371117524
-0.065294983755
-0.0590978794055
-0.0518460012728
-0.0434328929112
-0.0341451123138
-0.0223408718539
0.00108182910589
0.0514696333007
0.114139467091
-0.12509153459
-0.125092477515
-0.125096049211
-0.125111934993
-0.12512255788
-0.125133030559
-0.125144782737
-0.125164060155
-0.12517982535
-0.125215202167
-0.125257368624
-0.125300127346
-0.125343266361
-0.125390583392
-0.12544737512
-0.125507782884
-0.125570721562
-0.125630851986
-0.125690065302
-0.125753375479
-0.125821376648
-0.125887855836
-0.125951802239
-0.126035646199
-0.126147724238
-0.126285091376
-0.126449031404
-0.126618188407
-0.126798991937
-0.126990121702
-0.127187377805
-0.127392572469
-0.127617886075
-0.127879449888
-0.128169861994
-0.128487006107
-0.128833110309
-0.129201637479
-0.129594238659
-0.130011767303
-0.130459281319
-0.130951889588
-0.131494211555
-0.132052334003
-0.132599069328
-0.133146689719
-0.133742552986
-0.134391344304
-0.13533288963
-0.134117845748
-0.132669591812
-0.131252120097
-0.129717842344
-0.128235200719
-0.12637099106
-0.123896041744
-0.120897825396
-0.11753647666
-0.113911381907
-0.11010384268
-0.10616268686
-0.102118363597
-0.0979873848567
-0.0937748392391
-0.0894753562274
-0.0850709978961
-0.0805267970631
-0.0757846574786
-0.0707587403693
-0.0653271451756