/*--------------------------------*- C++ -*----------------------------------*\
| =========                 |                                                 |
| \\      /  F ield         | OpenFOAM: The Open Source CFD Toolbox           |
|  \\    /   O peration     | Version:  v1806                                 |
|   \\  /    A nd           | Web:      www.OpenFOAM.com                      |
|    \\/     M anipulation  |                                                 |
\*---------------------------------------------------------------------------*/
FoamFile
{
    version     2.0;
    format      ascii;
    class       volScalarField;
    location    "648";
    object      alpha;
}
// * * * * * * * * * * * * * * * * * * * * * * * * * * * * * * * * * * * * * //

dimensions      [0 0 -1 0 0 0 0];


internalField   nonuniform List<scalar> 
6400
(
0.890234128934
1.42446790599
2.25793748916
2.81271118421
3.34278749134
3.87428727648
4.54961081036
5.30599889565
5.74706860081
6.42528380145
7.67993546329
8.55823353125
9.29518373993
10.1218927344
11.1399627358
12.2083000818
13.1648070527
14.0642708806
14.8222336584
15.2706582856
15.4993795152
15.8599989774
16.5581272636
17.5749627667
18.6873976839
19.6903358327
20.5211092857
21.2916982304
22.104205567
22.9737608395
23.8452058428
24.5250027292
24.9362137118
25.2001735316
25.3582532553
25.4059290986
25.6245559182
26.070944586
26.2004269512
26.1078639786
26.3901683896
27.1766024832
27.966113155
28.4008574571
28.5289727095
28.4443011771
28.2138745094
27.8828456779
27.4643732935
26.9786746189
26.3395567972
25.3239557953
23.9709845424
22.3520055931
20.919140495
19.7221771743
18.0694372497
15.673670951
13.1580502364
11.1299038338
9.06325175812
6.90135845894
4.8021713026
5.0638053617
8.63145555212
13.4174061285
16.3323407211
15.9922574792
13.9814271147
12.3899558112
11.5733308403
11.8530378902
12.4759875233
12.4117658385
14.5437118522
14.0131741048
15.9334890811
9.83344120218
12.8619775236
4.8060070401
3.15520830954
2.5298264606
3.15362455677
4.41694700453
4.36100261238
4.29802322706
4.54649694021
5.01943527152
5.68752418065
6.53531099524
7.55417627865
8.57101329477
9.47210021637
10.3355426949
11.2167076047
12.222272343
13.2796062517
14.289080465
15.3320303687
15.6103680607
15.6507242264
15.983812613
16.6542031218
17.6570024972
18.8968597969
19.841457671
20.6415862277
21.4509674901
22.2791217209
23.1182431241
23.9597667394
24.7310631035
25.137002873
25.3957018156
25.5875674302
25.5453045175
25.8128286377
26.2834918364
26.3631950037
26.1301524796
26.3819177466
27.7267934963
28.8263982809
29.1649101204
29.2318554769
29.0643668841
28.7287662415
28.3245966255
27.7379154395
27.0814230249
26.5136857725
26.0375400656
24.895734939
22.5758764482
21.2649609706
19.8393633025
17.5999686333
15.2686763754
13.0000352744
10.7575763545
8.69326784695
7.24264508787
5.21110135436
5.55078444588
8.82642731813
14.4890158458
18.1631691331
16.8260769949
14.6358358409
12.7208474335
12.0764316864
12.5730124576
13.761188184
13.2266304777
13.1301598293
12.6500029599
11.4907381764
9.677596578
8.15116905299
4.23428844188
3.25996242349
2.87625829413
3.39612832781
3.70498278452
4.27363552405
4.73400612181
4.7396736718
4.91980273756
5.5891280602
6.51107472253
7.5386688019
8.5752174345
9.5219195138
10.3885502023
11.124759882
12.0371355526
14.631096162
16.6332899599
17.0978334017
16.5932612081
15.4571314066
15.658008223
16.7760965593
17.8303057169
18.8225902979
19.8341350889
20.7409108549
21.5527255037
22.3603648034
23.1960204877
24.0030862122
24.8657573033
25.2689802965
25.2944945099
25.8069557763
25.7810979277
25.7270452449
26.3906901645
26.5165117951
26.3452708095
26.6112909301
27.3814751762
28.1507689365
28.5882097512
28.7413101123
28.6986935684
28.5021341784
28.1720427761
27.7114212165
27.1423622908
26.4653849583
25.5677349071
24.3223368904
22.9885363998
21.6458289054
19.7243120076
17.5101079186
15.2566504402
13.0207170082
10.867370081
8.92242802501
7.07692130726
5.8371733686
6.97814984044
11.2577121656
15.5242680431
17.6025758221
17.6649339285
16.0708075122
14.4237707745
13.7878531825
13.7526894992
13.135384295
12.5875851913
12.6175692636
12.325824425
11.3841353112
9.78120442557
7.34868356422
7.54329787349
3.29795300405
5.53396669953
3.74027729389
3.8803749408
4.58956624181
11.90473913
10.3080812787
5.46363457377
5.55702354153
6.50691515674
7.56160626595
8.61841233613
9.54051341952
10.4215064173
12.1110840906
14.1962422054
15.886100603
16.3762234877
15.4755457734
14.8401516227
15.2454364822
15.9024199979
16.7582953071
17.8104156467
18.9071378491
19.9515703274
20.8861013175
21.6769006959
22.5043967312
23.2689469279
24.2042405554
24.8593368031
25.5466048856
25.5669846543
25.3713354276
25.863703214
25.9029776311
25.9657963953
26.2644196521
26.5390487416
26.9282006042
27.5509824851
28.1930058272
28.6258008587
28.8178219784
28.8115519134
28.6428665919
28.3335058595
27.892834202
27.328058525
26.6230383077
25.7176177909
24.5717718692
23.2449753487
21.6888727113
19.7674872128
17.5792387082
15.3291451385
13.1341249893
11.0893431272
9.31037825011
7.95511776853
7.54460436774
8.43778499891
10.8672095478
15.9737391965
19.337961275
19.4509748978
17.7649506734
15.4037023436
13.8217209561
13.0773818413
13.3020058277
14.7707775184
14.7475183633
13.4576423199
13.3473824487
16.6609892085
13.0536783063
11.0634990301
5.72862118936
7.61202447302
4.53884196413
4.85799361048
6.656427092
11.7997721288
8.32258712693
5.95347823909
6.08263453683
6.72757623919
7.70429542238
8.77433804043
10.2008286558
12.4540030843
13.5058421031
13.9599423535
14.0917518223
14.0446940772
14.2614981419
14.8880131197
15.3752092566
15.9545435504
16.851954565
17.9125933643
19.0243514098
20.0987087861
21.0042700726
21.9169001406
22.6169139923
23.5637212123
24.2469505573
25.461973161
25.481664293
25.2210003889
25.4764862196
25.4115881677
25.648660095
26.0213198411
26.4053061456
26.7708165379
27.1959974236
27.7413462698
28.2986721641
28.7153005083
28.932473954
28.9583113846
28.8176604777
28.5320082977
28.1131940726
27.5618436436
26.8586534634
25.9661946708
24.8589382405
23.5262159802
21.8994565837
19.9319780782
17.7494094427
15.5466876898
13.4697325311
11.6500370205
10.2424130152
9.44953983287
9.51756434907
9.7966989756
11.2642338224
15.5883424836
19.4615818469
20.7840378982
19.5896489967
16.809903578
14.3263657632
14.0278395746
16.3403095904
17.2441234986
16.2335728458
15.3430611955
18.0311348821
21.0621491045
16.3590992126
15.4728241427
10.0164817026
9.19051182249
5.65662452135
6.18870464073
12.0859808707
11.5708541945
6.78841369655
6.56423582386
6.71789324816
7.08125729787
7.94600095661
10.533818834
13.7013666678
14.1846933503
13.908818911
13.1345619766
12.9341344247
13.4048069129
14.3878416423
14.8577775531
15.2753566815
16.0269043298
16.9957640966
18.086530601
19.1310320755
20.2149240235
21.3618714636
22.022352083
23.1186696688
23.61729751
25.0607368448
25.2578683225
26.0831711708
25.435509257
24.9346973935
25.1571322075
25.6489521036
26.1477560523
26.5959497612
27.0119910239
27.457311866
27.9631510008
28.4665070174
28.8648795819
29.0959467612
29.1479343467
29.0343970255
28.7753673877
28.3839804455
27.8582409145
27.1782420531
26.3119476843
25.2246893009
23.872891278
22.2026541982
20.2322739624
18.1130264427
16.0400325437
14.1750271209
12.6696172614
11.6620982228
11.3314498278
11.786885367
11.0094817857
13.1944412967
17.5985879637
20.843213866
22.0993144104
21.1345129871
17.7335074499
15.5123618022
17.3296390719
19.5620326381
19.0578375877
18.0875387302
18.1887429103
22.7976432433
24.3976751003
19.3766479849
19.1796631605
12.1446879812
9.08526535699
6.87576407178
6.44498154028
12.0441072532
8.53130293743
7.04611105113
7.17004130869
7.31040254029
8.01327335618
8.53739103732
13.3945857648
14.1264568222
14.2113880713
12.9864021888
12.1582425187
12.5521200205
13.8922859063
14.3485663785
14.5758981919
15.289371808
16.1394460365
17.1111748403
18.1993732742
19.4206336452
20.58931721
21.3894187918
22.7964489621
23.2056616051
24.7589768935
24.817761701
25.8921448341
25.5704636187
25.2122682794
24.775885444
25.114611137
25.73428621
26.314615515
26.8073365731
27.2595106664
27.7240100934
28.2136814146
28.6863695953
29.0706679404
29.3102079678
29.3835294333
29.2970575763
29.0696057483
28.7145196362
28.2277184318
27.5865635739
26.7546993217
25.6856516431
24.3287321977
22.6609833779
20.7517154935
18.7726550833
16.9124411786
15.3085961559
14.0578375972
13.2858443329
13.0270437379
12.8003980484
12.8135266351
14.9135456819
20.3307560049
22.3517420246
22.5178507186
21.3705354932
19.0442022979
18.7231132613
21.2634329553
21.6969788826
20.8817138709
20.322438817
22.3404915903
25.1247020338
26.6090732248
22.0115755556
20.8728714285
11.8811997921
8.78322165967
8.03212965035
12.2327333225
12.1692624586
7.63016040944
7.71133015365
7.86726766022
7.9659971876
8.54744660432
13.1351031069
14.0908333213
14.2213346622
13.8002115551
11.8802479368
11.7710022043
13.3349543471
14.0216075325
13.9993408451
14.4541850437
15.3284489585
16.3099147432
17.3127677142
18.454030351
19.5201794786
20.9290177594
21.4791675711
22.8165087181
24.3795461719
24.9007263571
24.5337009789
25.3962687264
25.6336576198
24.7137197856
24.7712660804
25.2626209576
25.8874924908
26.4958636153
27.0303148688
27.51842745
28.0041630266
28.4937789229
28.953192263
29.3295041844
29.5756044359
29.6681527494
29.6107931282
29.4217057185
29.113423927
28.6790817591
28.0914671581
27.3069857894
26.2724290371
24.9470282937
23.346327899
21.5789969906
19.8150765418
18.1880303196
16.7484988881
15.5674295456
14.81592351
14.5113755858
14.4849876067
14.8296060305
14.8845720186
20.6821712046
24.2950420596
24.0892889187
23.3606710097
22.2943815914
22.9994964303
24.28860391
23.5819288673
22.921802065
23.1795651385
25.5785356173
26.2926975642
26.9034705784
24.0238604606
21.8839662465
11.187488236
8.74546999122
8.70567609228
13.2222378492
11.1943303159
8.28213410287
8.43350980536
8.7210480264
9.87274488104
8.67398982222
13.9074253046
14.6231009267
14.2695880069
12.620249898
11.548102644
11.909628693
13.408265315
13.7520645798
13.8928640142
14.476196729
15.3309920935
16.3863657307
17.4877472836
19.0181693671
20.3109252652
20.8998823206
22.8068081542
22.7310412287
24.561799658
24.3907407155
25.6059822653
24.7840944518
24.5802110938
24.6380199036
24.9460891159
25.4651514099
26.0753015829
26.6934895754
27.2654215942
27.7935833433
28.3053528626
28.8045753338
29.2634593429
29.6391615328
29.8926692011
30.0050130397
29.9812683215
29.8389803248
29.5888362757
29.2212836918
28.7045877202
27.9893392742
27.0232310349
25.7867422231
24.3334375372
22.7891484932
21.2726883507
19.7900465414
18.3093044396
17.0471395794
16.3821828401
16.3882080587
16.6917608805
16.8951350286
16.751726064
17.9891769891
24.6450127137
26.10981733
25.8686187268
26.2739318848
27.1210590703
26.622071458
25.5533850783
25.3835699271
26.4617871399
27.7451968593
27.6509889437
27.073409605
26.0718610771
24.7083056677
10.6935697295
9.21424615604
9.8583923889
13.3046301103
9.31843204974
9.30390934992
9.16206818615
9.43378567732
12.445852717
11.2107899035
14.7426913632
14.9040937485
14.3560646112
11.978183516
11.5967937537
13.1640218611
13.6348322167
13.5185265991
13.860720118
14.624117074
15.4596995983
16.4603471616
17.4226771859
19.1681369843
21.2972808526
20.8523254372
22.7573410041
24.0802089379
24.7967772754
25.474871804
24.9260263103
25.0134409159
24.3119322507
24.5609478407
25.1152567733
25.6896074616
26.2907207521
26.9102847862
27.5125721454
28.0843211587
28.6311296768
29.149265375
29.6162978149
29.9981690096
30.2631778539
30.3983140335
30.4137487895
30.3278813708
30.1485221851
29.8636737273
29.4396570079
28.8258971651
27.978985974
26.9067072959
25.6900946695
24.428742997
23.1056032627
21.5493671842
19.8655013488
18.6742639741
18.443976902
18.9665560618
19.4917858546
19.6040109231
19.2627669756
17.905370301
17.5284131068
27.9737426015
30.5435105191
31.1874496618
30.6865329696
28.9692732708
27.9295592344
28.2623563422
29.5596113014
30.0247845317
29.8723297612
29.6369535084
30.011578912
30.214817763
10.7153572914
10.0781444606
13.2328402829
13.5019878215
9.47284666639
10.0744138065
9.88850554185
10.3524476903
11.9989973737
14.6606375087
15.5887110752
15.1910385652
14.6174670854
12.0262701186
11.7620770355
13.6687572102
13.7466231776
13.503038505
13.8863754447
14.7542440716
15.8088685259
16.8165866442
17.59929456
18.804283001
21.4638172687
22.6972127853
22.4160744156
24.1955651774
23.7529140393
25.4964290933
25.9032025174
24.9772861396
24.2926436103
24.6738291498
25.3137710408
25.9246388877
26.530394637
27.1522531565
27.7748601714
28.3889789241
28.9809881508
29.5290584188
30.0124476772
30.4066929046
30.6885373177
30.8526138838
30.9148179383
30.8946962418
30.7984217891
30.6136849515
30.3087652523
29.8387258427
29.177588174
28.3607129564
27.4665993119
26.4826622236
25.1595793256
23.3439624053
21.6916097401
20.9996929918
21.5239496857
22.6187012235
23.3304864018
23.3561779585
22.6708284958
21.019417533
18.5300619546
18.8311850243
32.0464236467
36.8835526386
35.0387070879
32.0256403637
30.9517466932
31.5324243111
32.5550728948
33.1238756414
33.6057246454
34.2152216641
34.8656059902
35.559564183
11.1065357375
10.9674748696
14.8861368982
14.2459812985
12.394869844
11.3103619203
10.8435840387
11.8043144915
11.5170121123
15.6299377398
16.26037053
15.5554096855
14.737301133
12.6734016383
12.5235419321
14.126162889
13.7835223606
13.5950664807
14.002856428
14.7951020412
15.9475794607
17.2708100447
18.9765888829
18.930602537
20.9727449574
23.0632156126
22.325689786
24.4421906308
25.3425813246
24.7429818379
25.0558531569
24.4079513735
24.5786831064
24.9965660528
25.5690943292
26.1828997064
26.7989873376
27.4279306372
28.0601014855
28.7040736433
29.348891826
29.9452309915
30.4547973679
30.8658259179
31.170839826
31.3725704237
31.4906374781
31.5450574921
31.5424657114
31.474269124
31.3164102202
31.0407657682
30.6488847506
30.1872402376
29.6568719041
28.7942548807
27.2674542721
25.519751795
24.4318316306
24.5879281264
26.0485984384
27.7578077802
28.8730048244
29.0050521724
28.2994982807
26.4186044817
23.2604395516
18.7525920339
27.2883434383
37.7450814763
39.9097268121
36.0997553624
35.0070075274
35.5801270769
36.5377580446
37.2920965127
38.5496747977
39.4708941186
39.4817386121
39.7315134174
11.7337948246
11.6334285857
14.6557582842
14.7612366603
14.7849106891
12.4723335395
11.9296278335
14.6303666883
11.9237622971
16.4936142458
16.7738704668
15.9292058871
14.8547840491
13.307937081
15.0592727946
15.1751360446
13.9916681105
13.8239816966
14.2534417981
14.9337500208
15.9045039497
17.262577018
20.2213151393
21.1808755887
20.4828351945
23.119438847
24.1103527168
24.0280280221
25.3052425525
25.7672287729
25.3822770585
24.4490306895
24.7828627504
25.3251109663
25.8797953232
26.4747695722
27.0866597033
27.7351445021
28.3936522083
29.0512164059
29.7301950917
30.3842564828
30.9412838928
31.3796021029
31.7136063542
31.9624938898
32.146870244
32.2833252569
32.3804545035
32.4391204149
32.4536755746
32.4300729954
32.4027434702
32.3792213844
32.1365667552
31.0895040715
29.7367854398
29.4900766507
29.3437864248
30.4065836758
32.4534508698
33.4939468448
32.9971668997
32.1164618193
29.963705608
26.9916859322
23.701231511
17.2904906225
16.749774242
31.3921901004
38.5381108552
37.0519414595
34.715736021
37.0604712616
39.4368377199
41.9658964714
44.1529756312
44.9851897931
45.0079799
45.2312484157
12.4185878221
12.3510379027
12.0018547572
15.1051867663
15.3397337752
13.2695217007
12.905677888
15.6364940564
12.6078579608
17.3891097258
17.2394177916
16.3174122985
15.0787116691
13.6400921273
16.2123081193
15.7724246438
14.4494264311
14.2308164369
14.6073890472
15.2420652496
15.985535922
17.1492159381
20.7173650825
22.2505506517
20.8286858375
23.1400768351
24.6212959287
23.5652425712
24.9315030437
25.3502030951
24.5007084315
24.7941056501
25.2241805853
25.7053239515
26.2233306573
26.8183834989
27.4280921162
28.0560760362
28.7439185312
29.4480975544
30.1541142773
30.8484089571
31.4595979375
31.9434818976
32.320137103
32.6279093624
32.888387067
33.1093077932
33.3045530732
33.4910146676
33.6917758906
33.9795086681
34.4144461605
34.8653139063
34.6085305635
33.1549156209
33.2895522922
29.7061861571
26.1385579858
23.7740676249
17.3492354668
0.246339539411
0.000853202353647
8.70503488235e-05
6.90796064345e-06
1.94583314003e-06
2.29039201399e-05
0.000234021506707
0.00264352003989
0.00690463030427
11.4656767822
41.8229968521
50.0911252354
45.8308257856
41.3934173646
43.0374272847
47.8323305772
50.3083308833
51.8038214458
52.2658228794
13.283207528
13.37682162
15.7521914136
15.7679223006
15.811639625
13.9506831061
13.9589588817
16.5075132687
13.6397835692
18.1701897254
17.6871627785
16.7305670091
15.3851473112
14.0464959394
16.5088086943
15.9988264978
14.9039022989
14.698007593
15.0009995351
15.5639098758
16.2385865159
17.1619214066
20.1506430137
23.0602019909
23.2373031815
22.5429614933
24.8290229944
25.6757777024
23.8790545701
23.938117455
24.4438620675
25.0305600015
25.5808277692
26.0931882027
26.6240502868
27.1899086691
27.8020273122
28.4476964641
29.1219569168
29.8631039793
30.6236797609
31.3583644713
32.0132406613
32.548477867
32.9869897532
33.3705176422
33.7169423964
34.0262622056
34.3049907917
34.5886831089
34.9760033686
35.6270354697
36.5964321902
37.4348975399
36.790638581
32.9820373182
22.4290565587
2.89330999424e-07
3.18234095704e-10
5.96575165338e-12
1.0112357877e-13
2.92575603386e-16
8.31435999184e-19
1.43919997768e-23
1.12574649255e-23
2.73305361394e-23
1.84229421959e-22
8.629203268e-22
3.18763199462e-21
2.0256903178e-20
1.58607029928e-20
1.37600221767e-18
7.83175177653e-16
7.87258169182e-14
5.97395962349e-12
1.37565854632e-09
2.3156662212e-05
51.8580929843
57.5653729864
58.3914582179
14.0983731807
14.2902554394
17.3783436247
16.4634821932
15.9614508778
14.6356147597
14.9780782389
17.2507558302
17.2243159207
19.1427619905
18.2001069132
17.2386000582
15.778854001
14.5965662022
16.8241230636
16.1616341522
15.338043726
15.1729007254
15.4024918473
15.8823152415
16.52164143
17.3973710752
19.6536234524
23.3181529291
24.5944814792
22.3054323245
24.3478045543
25.7528786576
25.5955526469
24.3616866856
24.5277315153
25.2512636075
25.9397535365
26.5258367046
27.0190377749
27.5917824896
28.1991571935
28.8643961323
29.5595446645
30.3140944259
31.1252623064
31.9184090487
32.6115110768
33.1834492569
33.6943802414
34.2033171433
34.6761067077
35.0515720388
35.3274196271
35.6645111855
36.2568507232
37.2651186398
38.763561202
39.9825039116
30.9802437736
0.189797572827
1.59997343851e-13
6.47912030341e-16
1.87365670894e-17
2.72770071186e-19
2.21619918659e-22
3.69794072462e-25
2.60669538785e-26
0
0
0
0
0
0
0
0
3.62546875145e-30
1.22279555404e-27
1.82904151168e-25
1.06115131165e-22
1.48216795792e-19
8.02631830556e-15
1.21889332817e-10
0.000950295926502
61.9269837703
14.7660387002
14.9797809364
19.5161758228
17.007244383
15.8683200927
15.2424213852
15.7136444246
17.3374679839
18.8152409508
20.2594635171
18.8704041446
17.8823835172
16.423285577
15.4365434632
17.3455745873
16.4758788194
15.8488590152
15.6959097843
15.8436320979
16.2380427328
16.8056811659
17.616342687
19.4526881902
23.1925642778
25.5820238113
24.8537030028
23.845076782
25.1230071493
25.368301232
24.3900719989
24.9704547723
25.7188184808
26.453502196
27.0107551196
27.5229625671
28.0317915729
28.6511656069
29.3118819344
30.035763054
30.8163702963
31.6563081947
32.5106765901
33.2840035426
33.8942681839
34.469308929
35.1165691368
35.7321553542
36.1402970586
36.3686295604
36.7299908539
37.4852323305
38.688578662
40.4138702201
31.584307989
1.05952015278e-09
2.31639476792e-16
7.5967662611e-20
3.07181852618e-21
4.18833208853e-23
1.14855448546e-25
0
0
0
0
0
0
0
0
0
0
0
0
0
4.67141607214e-29
4.64206779087e-28
1.0176418389e-26
4.93440455701e-25
2.74018807687e-21
2.28083283251e-12
4.3966734411e-17
15.2872186264
15.4910135327
21.5633490535
17.4270477418
16.0210261274
15.8048064033
16.5219183332
16.7455398757
19.7651639696
21.0608476401
19.5198459351
18.5410371391
17.2644390139
17.3034526308
18.0739576199
17.0309723453
16.5541232884
16.4132321224
16.393181719
16.6807263647
17.1429372048
17.8747083303
19.438710068
23.0490055319
25.9931409723
26.4903063223
23.6884167477
24.0938363422
24.1825372348
24.5055818478
25.2776401814
26.206291059
26.9470012796
27.5400510988
28.072307133
28.6484382114
29.1694431415
29.8254549308
30.5554836141
31.3454144943
32.2543333787
33.1831532236
34.0146260377
34.6096402898
35.1965005408
36.4109039824
37.9896893187
38.5517855591
37.8680777083
38.0227068274
38.8298996305
40.0552045617
30.3331013207
1.22579468166e-10
1.84743315806e-15
8.28787561576e-27
8.3750009818e-24
1.3665693597e-25
0
0
0
0
0
0
0
0
0
0
0
0
0
0
0
0
0
0
7.2171913756e-28
4.88736279347e-27
9.01270219779e-25
95.9789107178
15.7399318784
15.9096475683
21.4141125499
16.9018357792
16.2490045751
16.2920572863
17.4383280994
16.7764584471
20.5715473383
21.8059558952
20.1368140176
19.1521066429
17.9204399103
19.5020008786
19.0831249219
17.7889015388
17.365634873
17.4828263967
17.1645801764
17.2924106596
17.5797143191
18.177030497
19.5656844918
22.8939019605
25.8637020419
27.5861204806
26.3220266212
25.4068443025
25.1015860635
24.7548319721
25.5725618748
26.8264654426
27.4018170893
28.0760790775
28.85240674
29.2600463177
29.7810270261
30.4420421294
31.1897956058
31.9874253328
32.8598825574
33.847263183
34.8161179381
35.7786235755
36.8876152529
38.4415377018
39.7167514417
39.7687349383
39.7029263034
40.2870079045
41.4615095701
34.090977386
5.57443591731e-10
5.08834681581e-15
6.68772855736e-19
9.08321723048e-21
0
0
0
0
0
0
0
0
0
0
0
0
0
0
0
0
0
0
0
0
0
0
2.22071815158e-27
1.61635775009e-16
16.2574008222
16.4036213093
21.0690478516
16.6067395554
16.5605115412
16.690739047
18.2282002784
17.2610718738
21.2779009069
22.5379536758
20.7499905505
19.7640635614
18.4713939799
20.2694213581
20.0189585048
18.616459656
18.1654454797
18.3862576209
18.0862541855
18.1241580416
18.2155596572
18.5323436835
19.8531642247
22.8716325887
25.5866917405
27.9077337565
27.5178660426
25.9591365048
24.5977960039
25.2554736701
26.0807932274
27.297909362
28.2393676875
29.0391634051
29.6913265177
29.9805108823
30.4769872311
31.1506809919
31.9145259618
32.74662684
33.6314777069
34.6999341451
35.9848710214
37.5304084142
38.6149909882
39.1346840533
39.9072076426
40.4514285944
41.8397570058
43.7480564222
40.083884995
5.07939516036e-09
6.74446707081e-15
1.16304876761e-18
2.38547291636e-21
5.77568880165e-23
1.93870268124e-25
0
0
0
0
0
0
0
0
0
0
0
0
0
0
0
0
0
0
0
0
0
3.73199154288e-28
4.93776568358e-28
17.0167628043
17.1628731585
20.7680596184
16.9144658163
17.132600478
17.1875270456
18.2635969901
17.9979751148
21.7946802097
23.2358344682
21.3972166781
20.4249446142
19.1392929779
20.9678172841
20.8621544144
19.5305568594
19.0226106767
19.2665503939
18.9868521259
19.10115492
19.1220681277
19.0470807811
20.3342855289
23.0443893904
25.4576727024
27.9950350878
28.0732837139
26.7161226578
25.1106527096
25.490170148
26.6915681082
27.4758991812
28.2954753637
29.2979293236
30.6184544902
31.0199837792
31.4306309165
31.9681438194
32.694153024
33.6017535439
34.5982922533
35.8013704859
37.7445163293
39.4899753534
39.8534487767
40.2261902855
41.4801390412
44.3348800973
47.7776785316
44.0809730058
1.45119901649e-09
2.41069636256e-16
9.97602528089e-21
3.27081128908e-24
2.05225867491e-26
4.15976201845e-26
6.3878422376e-27
0
0
0
0
0
0
0
0
0
0
0
0
0
0
0
0
0
0
0
0
0
2.75842447644e-29
1.25251950161e-28
18.1574035204
18.2647560057
21.0854240692
17.8700097209
18.3012147887
18.0556629687
18.6003545838
19.3177847731
21.8708598324
23.7670765352
22.1074097894
21.1565517911
19.9134786588
21.7615082048
21.7327948766
20.6046085419
20.0614656911
20.2910474334
19.8961271033
20.1751247374
20.337846899
19.7865650838
20.8908623055
23.4144851432
25.5242653041
27.8626052144
28.3272347032
27.3852593578
27.0925214286
26.3594015163
27.1015090614
28.2759762852
29.6658399252
29.9021363745
30.8929020413
32.0574067458
32.498793977
33.1020887077
33.7264126859
34.5450143431
35.6813412021
37.650029164
40.261390105
41.2387003585
41.2127186387
42.4932943827
46.9015811135
53.7019553524
49.9668054935
5.21998763499e-11
3.65233511832e-18
3.40995283784e-23
2.33320214137e-25
0
0
0
0
0
0
0
0
0
0
0
0
0
0
0
0
0
0
0
0
0
0
0
0
0
0
0
19.7458476952
19.6265398192
21.9278171494
19.7627368611
20.2579673204
19.3330523941
19.5601945966
21.2202069748
22.117327232
24.4041224591
22.9329040773
21.9689904049
20.7693910239
22.5930152725
22.5994203561
21.7865992853
21.5712573281
21.62538686
20.8990370969
21.3438639391
21.8505116877
20.8367877877
21.3370124243
23.8749465301
25.7940376753
27.7515992278
28.5093653272
27.5659446828
28.2863036963
27.9495829931
28.1692003529
28.0376217118
29.4321641623
31.1286342573
31.8618588645
32.806280119
33.5672405919
34.2011319432
34.9666693108
35.8065747651
37.3863802593
40.4739120756
42.7253959742
43.1940399732
43.9574564899
47.708636751
55.8478326034
53.1050697394
21.0235178784
3.25940713496e-20
5.69813162318e-23
2.60910181721e-25
0
0
0
0
0
0
0
0
0
0
0
0
0
0
0
0
0
0
0
0
0
0
0
0
0
0
0
0
21.4256068184
20.9094540007
22.837398691
22.260384861
21.9817576029
20.8103598628
20.6182943598
22.3719501888
21.4201042856
24.9074993361
23.855873355
22.8544178196
21.6973796872
23.4367922024
23.4061685699
22.7786035771
23.6432446176
23.2298729256
22.0246997754
22.630240767
23.2053596103
22.1801690437
21.5363722447
23.8949436143
25.9928196627
27.6801410449
28.5895223864
27.6695061467
28.69717535
29.247410571
29.5492011946
28.8340699649
29.6855459437
31.09078221
32.7980427505
34.0379809762
34.86534889
35.468183204
36.2126235389
37.4737561938
40.335698706
43.6608127908
45.395238188
46.3342379855
48.7955715058
54.2671338371
50.9114982182
28.1299357764
8.77623605477e-20
1.27054533077e-22
4.44969485791e-25
0
0
0
0
0
0
0
0
0
0
0
0
0
0
0
0
0
0
0
0
0
0
0
0
0
0
0
0
0
22.27479287
21.8143818715
23.4276100451
23.3327845555
23.0705134966
22.2073456226
21.829554577
23.7633000479
22.4863485446
25.5447830809
24.7901097035
23.7832798079
22.6925953524
24.3096170295
24.2223134835
23.6124895133
24.6355280411
24.3616175041
23.1196172957
23.8950552759
23.9761873515
23.0276933449
22.5707402838
22.8040333524
25.5145304145
27.206967844
28.3968276882
27.6588349415
28.7903896098
29.8179243994
30.68910096
30.6511627102
30.0833825275
31.1808604766
33.0614224834
34.9323798682
36.2784195546
37.1401337388
37.8852023607
40.2734202836
44.0025175279
46.9475572417
48.455780781
50.2633463089
54.1537077783
49.429634997
23.1965809068
4.63635787798e-19
4.17643253508e-22
1.18946960778e-24
0
0
0
0
0
0
0
0
0
0
0
0
0
0
0
0
0
0
0
0
0
0
0
0
0
0
0
0
0
0
22.400700582
22.3871569918
23.7953698082
23.5836869827
23.7699840374
23.2954972116
22.8876732885
25.1326187426
24.1804781208
26.3589774397
25.7822766569
24.7421898092
23.7504327191
25.2267833798
25.106443522
24.573179969
25.467551029
25.3515445381
24.2620784373
24.9440211991
23.8725688853
23.8132192386
23.6319164391
23.8981603166
24.7250829938
25.7634833148
27.5830362555
27.4644016011
28.3981804117
29.8772071859
31.1753765434
32.0269989826
31.62965816
31.999740773
33.299735726
35.1476523049
37.2029655702
38.8842664043
40.3947029231
43.8920408708
47.6465581921
50.0606297005
51.2124517537
52.9047564389
48.0319287755
29.4935593896
25.1876815663
1.45070710923e-21
3.24971963217e-24
0
0
0
0
0
0
0
0
0
0
0
0
0
0
0
0
0
0
0
0
0
0
0
0
0
0
0
0
0
0
0
22.6790129821
22.7979743788
24.1143591818
22.7766215202
24.0865520479
23.9094427191
23.6077110573
25.7793428288
25.0634682157
27.1872534441
26.8082290184
25.7010486465
24.8768905224
26.1755163788
26.032376458
25.6663050041
26.3935884489
26.4512708016
25.5286241623
26.3700719561
25.2393600341
25.4467045238
24.9107222814
25.2158929726
26.5172829561
27.1513410293
27.2422655973
27.2021316107
27.9674007859
29.8328026093
31.1933473923
32.306423452
32.9656702259
33.1211239297
34.629942621
35.908060526
37.9642532907
40.5093888291
43.5156887376
47.7031401444
51.0419940525
52.6184457001
51.84998432
47.872346813
41.9722433984
27.8592693365
1.21732636195e-20
2.77130303015e-23
0
0
0
0
0
0
0
0
0
0
0
0
0
0
0
0
0
0
0
0
0
0
0
0
0
0
0
0
0
0
0
0
23.4001390139
23.4830299625
24.4562515779
23.2093148009
24.367404954
24.2632818532
24.1201353996
26.0239376803
25.6840576749
27.8092462696
27.8068323257
26.6002338393
26.0572467939
27.1095154349
26.9185307526
26.7249201014
27.2884698246
27.633496373
26.841275583
27.8136166043
27.0232463799
27.4984311134
27.3052476471
26.2521023627
27.3194079688
28.273293272
28.4380192976
27.0535158437
27.4750285747
29.7438652623
31.3454461243
32.0143346241
32.8283813979
33.4844877953
35.0305297315
36.5849257774
38.8420890669
42.1629151766
46.8218669691
51.5780505734
54.1946206885
54.2358022803
51.2588916395
45.3932779113
28.4818414431
21.0944163972
1.93115289904e-22
7.83086794037e-25
0
0
0
0
0
0
0
0
0
0
0
0
0
0
0
0
0
0
0
0
0
0
0
0
0
0
0
0
0
0
0
0
24.305524779
25.2925927984
24.9478335963
24.1794464598
24.9200270322
24.671391222
24.6097901252
26.2339059704
26.2451004832
28.0912036377
28.765961178
27.3998649211
27.1021397396
27.88054007
27.7493282002
27.5346089568
27.6543362707
28.7071503169
28.2088550805
29.0778708494
28.9558681607
28.8628116448
28.747116323
28.3933192855
27.7450465478
28.4863598652
29.3950210257
26.6449161684
27.0021321751
29.1025590912
31.399297859
32.5513193144
33.5091501978
33.5260134174
34.9235422126
36.8500656671
39.3831015771
43.6985146401
50.1017949991
55.2633468874
56.7566342919
52.5408307036
49.9031597455
46.944913343
32.6832318601
1.30895295281e-21
3.34076277354e-24
0
0
0
0
0
0
0
0
0
0
0
0
0
0
0
0
0
0
0
0
0
0
0
0
0
0
0
0
0
0
0
0
0
24.9907160033
26.0156693963
25.6583470601
25.0527771625
25.619006173
25.2428572552
25.1593762663
26.5152624085
26.78266686
28.1122267156
29.6133617436
28.1549335192
27.7460911149
28.5143995289
28.6295850345
28.2624320219
27.9499444849
29.4795192164
29.5939181125
30.1815830738
30.3047742552
30.4932123897
29.4195704273
29.4312088933
28.9985112391
30.0883508085
30.7340016466
28.3238939063
26.6028614485
28.142012478
30.7207439392
32.7099401856
33.7830838342
34.0847141754
34.6088584741
36.6297607363
39.3456330914
44.8733004878
53.2070279264
58.9613560465
57.7698250342
52.1360310893
46.0061067138
29.4384064793