/*--------------------------------*- C++ -*----------------------------------*\
| =========                 |                                                 |
| \\      /  F ield         | OpenFOAM: The Open Source CFD Toolbox           |
|  \\    /   O peration     | Version:  v1806                                 |
|   \\  /    A nd           | Web:      www.OpenFOAM.com                      |
|    \\/     M anipulation  |                                                 |
\*---------------------------------------------------------------------------*/
FoamFile
{
    version     2.0;
    format      ascii;
    class       volVectorField;
    location    "507";
    object      U;
}
// * * * * * * * * * * * * * * * * * * * * * * * * * * * * * * * * * * * * * //

dimensions      [0 1 -1 0 0 0 0];


internalField   nonuniform List<vector> 
6400
(
(-9.5207432819e-05 -0.000126143285691 0)
(-0.000256120833214 -9.45715416546e-05 0)
(-0.000373206639322 -7.54324043761e-05 0)
(-0.000501312226941 -6.58549326296e-05 0)
(-0.000593914807253 -4.07466498264e-05 0)
(-0.0006601895158 -2.13702612285e-05 0)
(-0.000694055421741 -1.42048655404e-05 0)
(-0.000720830554533 -2.41630591876e-05 0)
(-0.000801537872414 -3.55213130344e-05 0)
(-0.00088218346084 -3.32762681023e-05 0)
(-0.000914562650297 -2.96964770539e-05 0)
(-0.000988045215237 -3.19491998907e-05 0)
(-0.00105339265371 -2.85671934265e-05 0)
(-0.00110568364473 -2.26073406561e-05 0)
(-0.00114327166606 -1.98554642499e-05 0)
(-0.00118285794221 -2.27262496243e-05 0)
(-0.0012330904999 -2.34443955573e-05 0)
(-0.00127543194601 -1.9901259248e-05 0)
(-0.00130498469918 -1.48021068597e-05 0)
(-0.00133156236498 -1.22572481592e-05 0)
(-0.0013672447521 -1.7486632274e-05 0)
(-0.00141296437684 -2.34044527799e-05 0)
(-0.00146229645372 -2.46579821826e-05 0)
(-0.00150683234321 -2.38668614615e-05 0)
(-0.00154849995926 -2.16471533535e-05 0)
(-0.00158790892982 -1.88742500064e-05 0)
(-0.00162687461111 -1.76179582851e-05 0)
(-0.00166220192369 -1.58641540964e-05 0)
(-0.00169136675429 -1.33476580776e-05 0)
(-0.00171513811451 -1.13469751251e-05 0)
(-0.00173382660704 -1.08845383834e-05 0)
(-0.00175342424112 -9.83891506304e-06 0)
(-0.00177295976757 -7.71148533485e-06 0)
(-0.00178806780583 -7.46424994481e-06 0)
(-0.00180157294935 -7.05992922246e-06 0)
(-0.00182052318688 -6.52666249327e-06 0)
(-0.00183603613581 -6.93711222786e-06 0)
(-0.00183768952792 -5.92383039525e-06 0)
(-0.0018497902434 -3.77601520367e-06 0)
(-0.00186773545803 -2.84499300174e-06 0)
(-0.00187727384816 -5.66775020636e-06 0)
(-0.00187634985011 -5.24468147332e-06 0)
(-0.00187223035377 1.95794025485e-06 0)
(-0.00186433353762 7.17105270412e-06 0)
(-0.00184954277745 9.81319420096e-06 0)
(-0.00182937627965 1.27735918398e-05 0)
(-0.00180312632215 1.58596795742e-05 0)
(-0.00176942596757 1.96651744723e-05 0)
(-0.00172832983398 2.33188086752e-05 0)
(-0.00167986013354 2.41705824461e-05 0)
(-0.00162799383984 2.23735351122e-05 0)
(-0.00158140140673 2.59519381609e-05 0)
(-0.00151729842633 3.98754204618e-05 0)
(-0.00144096445355 4.81057107818e-05 0)
(-0.00134303949109 5.48186103285e-05 0)
(-0.00121234619178 6.48347069331e-05 0)
(-0.00107585861732 6.48472400334e-05 0)
(-0.000953362323794 6.36555461287e-05 0)
(-0.000828145693577 7.21450782011e-05 0)
(-0.000660265097454 7.72376051036e-05 0)
(-0.00049668692584 7.8144531522e-05 0)
(-0.000322985370183 9.31938409768e-05 0)
(-0.00012328893804 0.000125832509423 0)
(0.000136882676493 8.99724235729e-05 0)
(0.000249039890669 4.65186127445e-05 0)
(0.000307641578976 2.82701331527e-05 0)
(0.000346870847541 1.66219863306e-05 0)
(0.000377614499096 9.12137201079e-06 0)
(0.000399252863033 2.98485703344e-06 0)
(0.000400790955 -3.82627259194e-06 0)
(0.000389071866511 -1.00851297059e-05 0)
(0.000358199805725 -1.51824284441e-05 0)
(0.000317494022547 -1.99865081773e-05 0)
(0.00028749939817 -2.57416535037e-05 0)
(0.000219246027827 -2.25674030039e-05 0)
(0.000192751485475 -2.09901701416e-05 0)
(0.0001279063331 -1.33583572393e-05 0)
(0.000131977932048 -1.88875070906e-05 0)
(5.68584308593e-05 -1.35668381325e-05 0)
(4.22878061095e-05 -2.53050544247e-05 0)
(-3.57553549419e-05 -0.000176660771685 0)
(-0.000152234238268 -0.000197451383437 0)
(-0.000265311017676 -0.000178081880376 0)
(-0.000338009051588 -0.000142415900867 0)
(-0.000489168982865 -0.000139108850281 0)
(-0.000626693038233 -9.81297765485e-05 0)
(-0.000706592741505 -6.1849677024e-05 0)
(-0.000760938457097 -7.95644195725e-05 0)
(-0.000818736626102 -0.000102739629585 0)
(-0.000883442995208 -0.000100052465782 0)
(-0.000944713668017 -9.30677157932e-05 0)
(-0.00100071056072 -9.04489390962e-05 0)
(-0.00105268576815 -8.01907177772e-05 0)
(-0.00109921460263 -6.71426724403e-05 0)
(-0.00114492092883 -6.12320930218e-05 0)
(-0.00118892511572 -7.24821548849e-05 0)
(-0.00123383897143 -7.60608719593e-05 0)
(-0.00126969909341 -5.32711657966e-05 0)
(-0.00126792577004 -3.66065421522e-05 0)
(-0.00130232734389 -3.7592344557e-05 0)
(-0.00135003287298 -5.4972170713e-05 0)
(-0.00140364460166 -7.58960713234e-05 0)
(-0.00146346691427 -7.91757387537e-05 0)
(-0.00151311606618 -6.98156960064e-05 0)
(-0.00154220944993 -6.25444425459e-05 0)
(-0.00158813927589 -5.88145880423e-05 0)
(-0.00162997884023 -5.36196052043e-05 0)
(-0.00166251563169 -4.66995089122e-05 0)
(-0.00169027290764 -3.98794405152e-05 0)
(-0.00171501960705 -3.43847469489e-05 0)
(-0.00173605760727 -3.15893853042e-05 0)
(-0.00174803722841 -2.79060970076e-05 0)
(-0.00176722654629 -2.13297628422e-05 0)
(-0.00178075095851 -2.16992347478e-05 0)
(-0.00179081210642 -2.36792041125e-05 0)
(-0.0018189319296 -1.95462110534e-05 0)
(-0.00182921885923 -1.97530463157e-05 0)
(-0.00183161737891 -2.06692206118e-05 0)
(-0.00185004399148 -1.65083164403e-05 0)
(-0.00187911032461 -9.99211539465e-06 0)
(-0.00189085355166 -4.9496289426e-07 0)
(-0.00183456115783 8.29966885131e-06 0)
(-0.00180425695788 1.37739845761e-05 0)
(-0.00180216414435 1.81727997551e-05 0)
(-0.00179149706747 2.33118110572e-05 0)
(-0.00178093877388 3.02062427974e-05 0)
(-0.00176730151474 3.92707311925e-05 0)
(-0.00174263003851 4.992200708e-05 0)
(-0.00171643599443 6.16479416076e-05 0)
(-0.0016793138663 7.27950005258e-05 0)
(-0.00162146672599 8.13797454563e-05 0)
(-0.00153413634548 8.92266601053e-05 0)
(-0.00145032229434 0.000100955327597 0)
(-0.00144066919525 0.000127603769004 0)
(-0.0013321608222 0.00015736270584 0)
(-0.00121926683123 0.000179124972756 0)
(-0.00112747714481 0.000191462464329 0)
(-0.00100190057594 0.000202268349984 0)
(-0.000856488810822 0.000224542678051 0)
(-0.000700521199568 0.000251779968885 0)
(-0.000530280411618 0.000280155951467 0)
(-0.000291117683857 0.000280621147077 0)
(-9.44486415781e-05 0.00036327866297 0)
(0.000139905595971 0.000275716537095 0)
(0.000253263170532 0.000149192132051 0)
(0.000297486415867 7.61359613595e-05 0)
(0.000328817284514 4.75375078787e-05 0)
(0.000376134918256 3.31725730031e-05 0)
(0.000399022000047 1.26131483672e-05 0)
(0.000407025039279 -1.18214690225e-05 0)
(0.000388600507262 -3.50259940067e-05 0)
(0.000352520499314 -5.13865958754e-05 0)
(0.000302246846732 -5.61804357806e-05 0)
(0.000278893711937 -6.33196982039e-05 0)
(0.00024136360306 -6.42893305245e-05 0)
(0.000205498172443 -6.16652893422e-05 0)
(0.000167617240814 -5.39921379794e-05 0)
(0.000132164158831 -5.6858251449e-05 0)
(8.1641839137e-05 -6.1108306992e-05 0)
(3.76505642061e-05 -9.9513465386e-05 0)
(-5.33147282936e-05 -0.000305100591253 0)
(-0.000147253103792 -0.00033074654547 0)
(-0.0002273144191 -0.000305895311614 -9.44812452164e-29)
(-0.000384673766502 -0.000308096642695 8.83331328512e-29)
(-0.000530665591123 -0.000302317322938 7.84241973886e-29)
(-0.000621614938465 -0.000242226935872 -7.16849199595e-29)
(-0.00068577570014 -0.000129202232813 7.2194559063e-29)
(-0.00074255313328 -0.000136834171169 -7.04036810314e-29)
(-0.000803131368651 -0.000166579330053 0)
(-0.000872036902014 -0.000168896209028 0)
(-0.000939318043514 -0.000157644032523 0)
(-0.000998085336824 -0.000143612560393 0)
(-0.00105012010657 -0.000126812904478 0)
(-0.00109531993573 -0.000114352620247 0)
(-0.00114120949982 -0.000106821338598 0)
(-0.0011849041177 -9.37790564531e-05 0)
(-0.00109699270127 -6.87617914652e-05 0)
(-0.0010713448066 -5.36786151165e-05 0)
(-0.00110970765967 -6.42282240926e-05 0)
(-0.00118753404937 -9.9525140674e-05 0)
(-0.00134051754776 -0.000135029289673 0)
(-0.00142167077362 -0.000141765200695 0)
(-0.00145179367636 -0.000130009986395 0)
(-0.00150175674323 -0.000116152720947 0)
(-0.00155252533804 -0.000106338893406 0)
(-0.00159140276735 -9.87095706757e-05 0)
(-0.00162639168354 -8.80002357775e-05 0)
(-0.00165935763609 -7.65089970841e-05 0)
(-0.00168784354577 -6.61101043985e-05 0)
(-0.00171096277658 -5.77361167193e-05 -1.37861566159e-28)
(-0.00173498293767 -5.02302243182e-05 1.3359892625e-28)
(-0.00174066607003 -4.35287681741e-05 0)
(-0.00175656537035 -3.58450550141e-05 0)
(-0.00178661058086 -3.00176730822e-05 0)
(-0.00176734854654 -3.66645291371e-05 0)
(-0.00179628127571 -3.95339784979e-05 0)
(-0.00183609009509 -3.28446778588e-05 0)
(-0.00181880013242 -3.38059289049e-05 0)
(-0.00184245519364 -3.66323758396e-05 0)
(-0.00187720478242 -2.42995165863e-05 0)
(-0.00189166138557 3.7888177361e-06 0)
(-0.00188763105781 2.46178673819e-05 0)
(-0.00187973928195 2.80307274799e-05 0)
(-0.0018704150357 3.03912921373e-05 0)
(-0.00185578360845 3.78770931794e-05 0)
(-0.00183559066074 4.86213986362e-05 0)
(-0.00181001684787 6.30229963834e-05 0)
(-0.00177874983693 7.9638683839e-05 0)
(-0.00174165117012 9.84734312352e-05 0)
(-0.00169803206658 0.000120758330405 0)
(-0.00164709703064 0.000144158798654 0)
(-0.00158778429511 0.000162652352802 0)
(-0.00151840700503 0.000176091148325 0)
(-0.00142771539206 0.000207786103198 0)
(-0.00131952265714 0.000249089541398 0)
(-0.00122918124739 0.000281656718266 0)
(-0.00111850855666 0.000310373117829 0)
(-0.000981724747436 0.00034328999273 0)
(-0.000825987246432 0.000381728248488 0)
(-0.000653885804213 0.000426008311953 0)
(-0.000463288266917 0.000475726113569 0)
(-0.000260571273185 0.000534689889915 0)
(-5.39854956091e-05 0.00058649737851 0)
(0.000121902077189 0.000412373415514 0)
(0.000221153392259 0.00021953404262 0)
(0.000298117968114 0.000133489059062 0)
(0.000355664908427 9.03578772635e-05 0)
(0.000383958539211 5.58575070993e-05 0)
(0.000397057501867 1.70246380216e-05 0)
(0.000393070677758 -2.4546720845e-05 0)
(0.000369457157501 -5.87321097964e-05 0)
(0.000339093294332 -7.83699706042e-05 0)
(0.000318468224071 -8.88250444724e-05 0)
(0.000291065033832 -0.0001006061741 0)
(0.000247777205485 -0.00010763891007 0)
(0.000201773920419 -0.000103818509691 0)
(0.000158330355357 -9.55919369113e-05 0)
(0.000121423735082 -0.000104730404077 0)
(8.36322649328e-05 -0.000137560999454 0)
(2.16294058692e-05 -0.000137487888127 0)
(-5.35233162563e-05 -0.000453958328262 0)
(-7.08428188492e-05 -0.000309137714527 0)
(-0.000186463745821 -0.000461056925818 0)
(-0.000334114142685 -0.000458337780123 0)
(-0.000460655450959 -0.000388122512246 0)
(-0.000271616745497 -0.000153215347769 0)
(-0.000342258363034 -0.000153581566519 0)
(-0.000627807250779 -0.000269640288006 0)
(-0.000758890994632 -0.000277634770056 0)
(-0.000846460163861 -0.000250962187158 0)
(-0.000926447160906 -0.000228836796597 0)
(-0.000992867818542 -0.000203532081575 0)
(-0.0010483323186 -0.00017734063602 0)
(-0.00108563198374 -0.000140737739255 0)
(-0.00103881131044 -9.32720308739e-05 0)
(-0.000993809607002 -6.19606797666e-05 0)
(-0.000998366080638 -5.98856235209e-05 0)
(-0.0010618672277 -9.73736050991e-05 0)
(-0.00119697760367 -0.000157760545917 0)
(-0.00132181269021 -0.000211424672086 0)
(-0.0013654704496 -0.000217562007547 0)
(-0.00141187571028 -0.000197499451795 0)
(-0.00146348800915 -0.000179043594709 0)
(-0.00150885210466 -0.000164494499902 0)
(-0.00154953489677 -0.000149610127254 0)
(-0.00158646589301 -0.000134890809955 0)
(-0.00162008600562 -0.000120884162005 0)
(-0.00165614257206 -0.0001065949437 0)
(-0.0016811423975 -9.25112862916e-05 0)
(-0.00171147246955 -8.01987466339e-05 0)
(-0.00172108351607 -6.89580190417e-05 0)
(-0.00174740464909 -5.7164934428e-05 0)
(-0.00173794768739 -4.43659670497e-05 0)
(-0.00175809106251 -4.28942277689e-05 0)
(-0.00180022063613 -5.07268864344e-05 0)
(-0.0017877251499 -5.90906388641e-05 0)
(-0.00182588612233 -5.82109751505e-05 0)
(-0.00186449203603 -5.51728274423e-05 0)
(-0.00187731436523 -5.29966563048e-05 0)
(-0.00188522217003 -3.50327010806e-05 0)
(-0.00189096365638 -4.49940133502e-06 0)
(-0.0018907743109 2.08062484277e-05 0)
(-0.00188587694778 3.39964189818e-05 0)
(-0.00187687005908 4.36457028524e-05 0)
(-0.00186243231348 5.60947721841e-05 0)
(-0.00184251660818 7.21522630472e-05 1.23856804531e-28)
(-0.00181720866613 9.16494492874e-05 -1.24788838912e-28)
(-0.00178622833129 0.000114021628806 0)
(-0.00174921821758 0.000139285974705 0)
(-0.00170549042309 0.000167410198588 0)
(-0.00165388787288 0.00019675510997 0)
(-0.00159239813379 0.000226043660677 0)
(-0.00151879307212 0.000259676433671 0)
(-0.00143115822981 0.000303655692884 0)
(-0.00133256647594 0.000348823084707 0)
(-0.00122446797582 0.000392965105198 0)
(-0.00109903367989 0.000443459773198 0)
(-0.000950298475253 0.000499398978858 2.47896981977e-28)
(-0.000778440409886 0.000560232962621 -2.90099714747e-28)
(-0.000585659760077 0.000625197950703 0)
(-0.000377735505153 0.000686341296181 0)
(-0.000172537302749 0.000726689420553 0)
(-1.30940725877e-05 0.000699532701781 0)
(0.000121860867457 0.000549136232806 0)
(0.000258371779579 0.000346945085643 0)
(0.000322203127815 0.000196903018975 0)
(0.00036457965855 0.000123207791137 0)
(0.000394690959524 7.14167974257e-05 0)
(0.000407115308877 1.75246443089e-05 0)
(0.000409767832502 -3.8907230189e-05 0)
(0.000393516583293 -8.39964734205e-05 0)
(0.000365498536539 -0.00011034069439 0)
(0.000324551234878 -0.000129448807638 0)
(0.000262649334872 -0.000140710335659 0)
(0.000215263481588 -0.000148558677308 0)
(0.000172196646252 -0.00015205559852 0)
(0.000125104271283 -0.000142491367636 0)
(7.32416651138e-05 -0.000119798525514 0)
(5.32509248909e-05 -0.000154994906134 0)
(1.79519990635e-05 -0.00018015159025 0)
(-6.66041599275e-06 -0.000456923729416 0)
(-3.71794871148e-05 -0.000376454173305 0)
(-0.000168153381913 -0.000602462183593 0)
(-0.000285801633525 -0.000555907298831 0)
(-0.000313033409121 -0.000368468280898 0)
(-0.00025109865975 -0.000205743674727 0)
(-0.000424074167195 -0.000331103243033 0)
(-0.000629862231901 -0.000447842254119 0)
(-0.000713669670767 -0.000396132610804 0)
(-0.000813296703338 -0.00034447507048 0)
(-0.000900732229819 -0.000313951605446 0)
(-0.000974297166969 -0.000272329435769 0)
(-0.000988338387192 -0.000192028938221 0)
(-0.000918786019178 -0.00010950800004 0)
(-0.000938689225929 -7.9585399485e-05 0)
(-0.000995308124525 -9.16745578837e-05 0)
(-0.00109061424416 -0.000139514624011 0)
(-0.00120545269088 -0.000208791732682 0)
(-0.00128548406179 -0.000256652584085 0)
(-0.00131184407129 -0.000262390893843 0)
(-0.00135833931683 -0.000258923433429 0)
(-0.00141455422865 -0.000248960969382 0)
(-0.00146138971839 -0.000229493772621 0)
(-0.0015052222196 -0.000208074192198 0)
(-0.00154462082515 -0.000188301609301 0)
(-0.00157941361495 -0.000171254157905 0)
(-0.00161841034521 -0.000154161086395 0)
(-0.00164298112811 -0.000136348100798 0)
(-0.00168228570348 -0.000118907695078 0)
(-0.00169073404155 -0.000101008573404 0)
(-0.00172866333399 -8.55697180307e-05 -1.3210232473e-28)
(-0.0017032480259 -6.97731805832e-05 1.24967337196e-28)
(-0.00174785131761 -6.27135407016e-05 0)
(-0.00178583104843 -6.11925572914e-05 0)
(-0.00178150682616 -7.01827968679e-05 0)
(-0.00182906815178 -8.48117642872e-05 0)
(-0.00185448159758 -8.96013374282e-05 0)
(-0.00187230764651 -7.85133262156e-05 0)
(-0.00188361654272 -6.12264309352e-05 0)
(-0.00189081419702 -3.78409649365e-05 0)
(-0.00189601931912 -8.27572647764e-06 0)
(-0.0018974072055 1.90223206396e-05 0)
(-0.00189401888837 3.89362387151e-05 0)
(-0.00188560759746 5.55132330311e-05 0)
(-0.00187168690243 7.36127333634e-05 0)
(-0.00185232364204 9.494988375e-05 0)
(-0.00182751451205 0.000119784649743 0)
(-0.00179693952399 0.000147982797025 0)
(-0.00176005460334 0.000179659083885 0)
(-0.00171600089493 0.000214873242208 0)
(-0.00166343266022 0.000253153033873 0)
(-0.00160033549752 0.000294723220595 0)
(-0.00152464146837 0.000341942074009 0)
(-0.00143510233498 0.000396093430803 0)
(-0.0013322045676 0.00045428832493 0)
(-0.00121423655676 0.00051842824508 0)
(-0.00107482245786 0.00059214199062 0)
(-0.000908933353833 0.000673885141787 0)
(-0.000716653308702 0.000759319520227 0)
(-0.000504398154606 0.000839317384101 0)
(-0.000288241272636 0.000894697859209 0)
(-9.5522057152e-05 0.000899104602514 0)
(3.8556165403e-05 0.000817672179555 0)
(0.000171208305997 0.000688340578311 0)
(0.000315433134721 0.000475940095278 0)
(0.000377956172384 0.000265971399402 0)
(0.000411970807021 0.000154818372951 0)
(0.000427445794173 8.3033550489e-05 0)
(0.00042970271869 1.64018934282e-05 0)
(0.000427005064718 -5.05292937167e-05 0)
(0.000413777398917 -0.000111185313317 0)
(0.000370313805456 -0.000157105476092 0)
(0.000295078080022 -0.000178981917699 0)
(0.000240003162327 -0.00019299748324 0)
(0.000190738890303 -0.000202437936148 0)
(0.000142942007949 -0.000203045626225 0)
(9.63716249737e-05 -0.000174966746037 0)
(6.22245247154e-05 -0.000154789325734 0)
(4.02039312839e-05 -0.000195046811495 0)
(1.06385659171e-05 -0.00020333201825 0)
(2.37555221906e-07 -0.000428239889214 0)
(-4.48532324057e-05 -0.000457482793587 0)
(-0.000168986455584 -0.000688614340938 0)
(-0.000239134714986 -0.00057779156891 0)
(-0.00018509723059 -0.00029161654772 0)
(-0.000253932292245 -0.000297128610199 0)
(-0.000520001812754 -0.00053206254428 0)
(-0.000603928885881 -0.000545124677217 0)
(-0.00068174081509 -0.000490456659377 0)
(-0.00077355125433 -0.000440990686178 0)
(-0.0008621695272 -0.000379083040434 0)
(-0.000818403760338 -0.000262010871954 0)
(-0.000755959444347 -0.000151082918125 0)
(-0.000814311242026 -0.0001239838771 0)
(-0.000887739863825 -0.000142068860968 0)
(-0.00101882033827 -0.000196909042085 0)
(-0.0011485432408 -0.000257169417301 0)
(-0.00123210846692 -0.000287927895564 0)
(-0.0012464898253 -0.000288001240164 0)
(-0.00130086825888 -0.00030282084189 0)
(-0.00136388489309 -0.000312640449298 0)
(-0.00141097113913 -0.000299153042462 0)
(-0.00145532461153 -0.000275876883443 0)
(-0.00149658291084 -0.000251528785487 0)
(-0.00154172108361 -0.000228735089363 0)
(-0.00157673121892 -0.000204528117104 0)
(-0.00159301207928 -0.000185235318335 0)
(-0.00164739861169 -0.000167453722852 0)
(-0.00164605558804 -0.000142003704949 0)
(-0.00170254739491 -0.000118679200842 0)
(-0.00166013319615 -9.43625642604e-05 0)
(-0.00172574341664 -8.99361109557e-05 0)
(-0.00169489774118 -8.58217972079e-05 0)
(-0.00176240853795 -9.16852263618e-05 0)
(-0.00182121414563 -0.000105935217678 0)
(-0.00184831866983 -0.000117129091471 0)
(-0.00186566869292 -0.000109735483082 0)
(-0.00187961836136 -9.20615093349e-05 0)
(-0.00189023338693 -6.96339691028e-05 0)
(-0.0018981893843 -4.29256703629e-05 0)
(-0.00190377648524 -1.24315555319e-05 0)
(-0.00190601116827 1.73428361177e-05 0)
(-0.00190371782024 4.29705990179e-05 0)
(-0.0018961606708 6.61452280823e-05 0)
(-0.00188309614311 9.01954392385e-05 0)
(-0.00186454719362 0.000117043878132 0)
(-0.00184048190518 0.000147415859512 0)
(-0.00181047515752 0.000181613551423 0)
(-0.00177378855593 0.000220016949194 0)
(-0.00172942382441 0.000263024406894 0)
(-0.00167595958762 0.000310966231027 0)
(-0.00161144420596 0.000364615502351 0)
(-0.00153382020148 0.000425316403907 0)
(-0.00144135611834 0.000493644078655 0)
(-0.00133227901453 0.000569960175023 0)
(-0.00120271518071 0.000657554131159 0)
(-0.0010467857616 0.000758429782745 0)
(-0.000861428971363 0.000868052900949 0)
(-0.000650458567029 0.000975054480183 0)
(-0.000425650496509 0.00105857529199 0)
(-0.000209621859065 0.00109212892902 0)
(-2.752441701e-05 0.00104516004381 0)
(0.00010641579073 0.000896534022957 0)
(0.000257139279186 0.000840020171236 0)
(0.000359879839218 0.000563747210113 0)
(0.000412283839347 0.000317059407117 0)
(0.000453818896154 0.00017701078493 0)
(0.000470629190091 8.70744867154e-05 0)
(0.000466338246997 1.04068755895e-05 0)
(0.000466123941221 -7.07720805832e-05 0)
(0.000438716110549 -0.000159751352299 0)
(0.000353580528726 -0.000214885189853 0)
(0.000278471305094 -0.000238458733153 0)
(0.000221758912956 -0.000254051996601 0)
(0.000163111221358 -0.000257510091905 0)
(0.000118893202361 -0.000247361282366 0)
(7.85015874683e-05 -0.000200600674547 0)
(5.14653571522e-05 -0.000182699052242 0)
(3.20489489032e-05 -0.000220556010229 0)
(9.43559961063e-06 -0.000222079173998 0)
(-1.60302728904e-05 -0.0004657494861 0)
(-9.84911744989e-05 -0.000593777260643 0)
(-0.000217078782575 -0.000751855899669 0)
(-0.000249232912869 -0.000701170344107 0)
(-0.000176185621033 -0.000367525156595 0)
(-0.000360335034935 -0.000520017466503 0)
(-0.000530540031708 -0.000648791999754 0)
(-0.00058075495918 -0.000616575185665 0)
(-0.000655914646439 -0.000565427145411 0)
(-0.00070904598478 -0.000510503137803 0)
(-0.000826161177483 -0.000422055144647 3.29869767487e-28)
(-0.000660676196435 -0.000213961383757 -2.03471778627e-28)
(-0.000749820247056 -0.000186494435982 0)
(-0.000799017995847 -0.000196569361266 0)
(-0.000921546445128 -0.000254759776542 0)
(-0.00107022469396 -0.000331955740053 0)
(-0.00116249072291 -0.000351051604426 0)
(-0.00116149021404 -0.000320649008348 0)
(-0.00122659576337 -0.000333922536406 0)
(-0.0013073969277 -0.000364468240402 0)
(-0.00135426263515 -0.00036520765077 0)
(-0.00140325974962 -0.000346765094469 0)
(-0.00145006620715 -0.000321942861847 0)
(-0.00149363043044 -0.000293681601646 0)
(-0.00152541134413 -0.000262741640533 0)
(-0.00154789175074 -0.000232781515907 0)
(-0.00159997315165 -0.000214055713709 0)
(-0.00158629760337 -0.000193099007717 0)
(-0.00166345460416 -0.000167068017026 0)
(-0.00161362739726 -0.000123187797441 0)
(-0.0016914863045 -0.000114089205888 0)
(-0.00166530960977 -0.000114180495051 1.22134718057e-28)
(-0.00173491296047 -0.000119614614121 -1.25662495816e-28)
(-0.00177142388872 -0.000139004036365 0)
(-0.00183739419411 -0.000151429812427 0)
(-0.00185965730304 -0.000143138162373 0)
(-0.00187381973295 -0.000125881303439 0)
(-0.0018867974853 -0.000104070217846 0)
(-0.00189836637375 -7.85586613981e-05 0)
(-0.00190747333939 -4.93417548299e-05 0)
(-0.00191371034294 -1.70611454277e-05 0)
(-0.0019166927088 1.5588346755e-05 0)
(-0.00191534507536 4.62967462068e-05 0)
(-0.00190879035789 7.55975404474e-05 0)
(-0.00189676855985 0.000105625578305 0)
(-0.00187927507319 0.000138172604131 0)
(-0.00185616280831 0.000174312450218 0)
(-0.00182686471823 0.000214779263519 0)
(-0.00179051809669 0.000260298087251 0)
(-0.00174607192968 0.000311663572754 0)
(-0.00169208817627 0.000369774532765 0)
(-0.00162658556534 0.000435778121145 0)
(-0.00154720584465 0.000511006686564 0)
(-0.00145120147505 0.000596895489218 0)
(-0.00133488730705 0.000695937801411 0)
(-0.00119304891057 0.000811515394472 0)
(-0.00102063262352 0.000942614755649 0)
(-0.000817214135491 0.00107887973724 0)
(-0.000590313325014 0.00120046899219 0)
(-0.000354976678625 0.00128121897002 0)
(-0.000131884127825 0.00128872983568 0)
(5.59963614582e-05 0.00120725266901 0)
(0.000216401016829 0.00108894574352 0)
(0.000337710387967 0.00092499071427 0)
(0.000422638085084 0.000634365757235 0)
(0.000457067147877 0.000361879063962 0)
(0.000521754251601 0.000213372512334 0)
(0.000550110582811 9.84156934425e-05 0)
(0.000544232068239 -3.45814409736e-06 0)
(0.000520567399238 -0.00011618372993 0)
(0.000450218290617 -0.000228244425167 0)
(0.000347813951598 -0.000285359600925 0)
(0.000272370851301 -0.000314981535588 0)
(0.000196802658813 -0.000322880456487 0)
(0.000134488583312 -0.000313117891017 0)
(9.26234885492e-05 -0.000272662307222 0)
(6.57805149943e-05 -0.000231991695821 0)
(3.83178651317e-05 -0.000206830085832 0)
(2.28377549293e-05 -0.000236666290434 0)
(8.32343526095e-06 -0.000243416048717 0)
(-3.25290297748e-05 -0.000542844170302 0)
(-0.000137964894777 -0.000722457943871 0)
(-0.000241335371316 -0.000785010187024 0)
(-0.000162020595705 -0.000485165218969 0)
(-0.000185817833264 -0.000458485999353 0)
(-0.00041366802437 -0.000712305203446 0)
(-0.000492037638924 -0.000720282081044 0)
(-0.000562276301817 -0.000687428083813 0)
(-0.000609391432492 -0.000619510931201 0)
(-0.000686245758418 -0.000560502299297 0)
(-0.000574706294487 -0.000335694355654 0)
(-0.000653814741901 -0.000255620797628 0)
(-0.000731420570054 -0.000252406425733 0)
(-0.000797652376905 -0.000288122492513 0)
(-0.00097623683288 -0.000389867791186 0)
(-0.00108589375218 -0.000429304163447 0)
(-0.00107611835434 -0.000380757360441 0)
(-0.00113361036508 -0.000371450790756 0)
(-0.00123348697156 -0.00040878236898 0)
(-0.00129763011492 -0.000424744597847 0)
(-0.00134182786409 -0.000413938720049 0)
(-0.00138674735812 -0.000393204676205 0)
(-0.00143824496773 -0.000370030477907 0)
(-0.00148139662237 -0.000337842771283 0)
(-0.00152924807025 -0.00029504347644 0)
(-0.00153000914139 -0.000264911778644 0)
(-0.00159832232555 -0.000241458135591 0)
(-0.00159922480824 -0.000210684987561 0)
(-0.0015886914199 -0.000178764191039 0)
(-0.0016248453787 -0.000156352552273 0)
(-0.00171496502805 -0.000147924272234 0)
(-0.00169926012937 -0.000137665074172 0)
(-0.00171767231562 -0.000163359106969 0)
(-0.00181734308512 -0.000190962663346 0)
(-0.00184433567799 -0.000188471276302 0)
(-0.00186486851352 -0.00016615824089 0)
(-0.0018813851392 -0.000141723732263 0)
(-0.00189533665583 -0.000116604852417 0)
(-0.0019079358161 -8.87029757419e-05 0)
(-0.00191832467872 -5.71018201408e-05 0)
(-0.00192557480568 -2.24403478226e-05 0)
(-0.00192935756304 1.34093889247e-05 0)
(-0.00192898667425 4.88405673957e-05 0)
(-0.00192360666141 8.38644240258e-05 0)
(-0.0019128360341 0.000119784397856 1.1997432196e-28)
(-0.00189659873571 0.000158153346627 -1.19702097727e-28)
(-0.0018746137436 0.000200292125535 0)
(-0.00184619454095 0.000247308678882 0)
(-0.00181043769214 0.00030025743718 0)
(-0.0017663247388 0.000360314377532 0)
(-0.00171242843317 0.000428912993002 0)
(-0.00164665335919 0.000507820628191 0)
(-0.00156616425532 0.000599231066652 0)
(-0.00146706501891 0.000706035770476 0)
(-0.00134409325507 0.000831912715258 0)
(-0.00119133116664 0.000978832210889 0)
(-0.00100480771138 0.00114136092109 0)
(-0.000785662482352 0.0013035014832 0)
(-0.000541295219117 0.00144042793419 0)
(-0.000283908419846 0.00152170973008 0)
(-3.49863617938e-05 0.00150992609713 0)
(0.000178010651133 0.00139950421164 0)
(0.000343431593473 0.00122119175146 0)
(0.000441461146261 0.000993979836452 0)
(0.000570045174406 0.00076718380367 0)
(0.000556258087936 0.00040732504194 0)
(0.000601069652173 0.00024677711586 0)
(0.000635765180976 0.000104869386836 0)
(0.000614548384908 -3.59417571715e-05 0)
(0.000562568724079 -0.000185670032747 0)
(0.000465641257872 -0.000312805519916 0)
(0.000356850105143 -0.000378967410615 0)
(0.000257804295353 -0.000409259833775 0)
(0.000162416392669 -0.000401763053619 0)
(9.70480130831e-05 -0.000362510345664 0)
(6.14630038267e-05 -0.000297096376205 0)
(4.40340997665e-05 -0.000257484807843 0)
(2.365602219e-05 -0.000232517125164 0)
(1.03457932358e-05 -0.000247039084573 0)
(3.88171215129e-06 -0.000260499821562 0)
(-4.53028610155e-05 -0.000639679584068 0)
(-0.000155987453189 -0.000826448792024 0)
(-0.000205965124348 -0.000812184413469 0)
(-0.000156256273764 -0.000532002049878 0)
(-0.000253907065253 -0.000604231226114 0)
(-0.000423688607833 -0.000807759322569 0)
(-0.000457024326606 -0.000786929591831 0)
(-0.000545322531228 -0.000754034127867 0)
(-0.000532634298608 -0.00062726807133 0)
(-0.000689689549579 -0.00062906880403 0)
(-0.000557171185648 -0.000370123303722 0)
(-0.000659664135753 -0.000330360281332 0)
(-0.000722364720542 -0.000332659618884 0)
(-0.000847524509211 -0.000415217221257 0)
(-0.000992973032137 -0.000509777965623 0)
(-0.00106711699645 -0.000491855767137 0)
(-0.00105562809512 -0.000425444299475 0)
(-0.00113749370157 -0.000445701739033 0)
(-0.0012220080782 -0.000480546855477 0)
(-0.00128002303334 -0.000481622840791 0)
(-0.00133238191926 -0.000463377106524 0)
(-0.00137260689967 -0.000436998970159 0)
(-0.00142052556984 -0.000411771366525 0)
(-0.00144573480739 -0.000377508013312 0)
(-0.0014695181116 -0.000322069031797 0)
(-0.00154549727779 -0.000294579552453 0)
(-0.00150002671716 -0.000265256773486 0)
(-0.00162875498649 -0.000239408807981 0)
(-0.00157620926131 -0.000207051052888 0)
(-0.00168780730186 -0.000201967039204 0)
(-0.00163767487294 -0.000175824243246 0)
(-0.00174769754604 -0.00018021753528 0)
(-0.0017891196955 -0.000211465625323 1.32920540105e-28)
(-0.00182455271428 -0.000231623807258 -1.34173671029e-28)
(-0.00184948371312 -0.00021540638959 0)
(-0.00187080590716 -0.000187713816391 0)
(-0.00188964302952 -0.000159169067799 0)
(-0.0019052882285 -0.000130696948847 0)
(-0.00191893399067 -0.000100222259926 0)
(-0.00193045821366 -6.62132255038e-05 0)
(-0.00193899451831 -2.88541814763e-05 0)
(-0.00194394341338 1.04505472016e-05 0)
(-0.00194471229663 5.04200832934e-05 0)
(-0.00194065420277 9.08446528261e-05 0)
(-0.00193137764825 0.000132542934191 0)
(-0.00191660398833 0.000176837255901 0)
(-0.0018958972951 0.000225174483307 0)
(-0.00186856083399 0.000278947219077 0)
(-0.00183376410301 0.000339489888619 0)
(-0.00179057783489 0.000408334187319 0)
(-0.0017376463894 0.00048753014109 0)
(-0.00167281939182 0.000579853995089 0)
(-0.00159279792898 0.00068897714017 0)
(-0.00149260625487 0.000819411934561 0)
(-0.00136568200087 0.00097515513013 0)
(-0.00120554773718 0.00115560955305 0)
(-0.00100830035424 0.00135124596648 0)
(-0.00077243612006 0.00154453181447 0)
(-0.000500593899073 0.00170793165645 0)
(-0.000204720328632 0.00180111328857 0)
(7.94866201787e-05 0.00176506369197 0)
(0.000308646304769 0.00159633519527 0)
(0.000478407285838 0.00135995133174 0)
(0.000603897940658 0.00109709955676 0)
(0.000711396734528 0.000807421757493 0)
(0.000793757574098 0.000479413480356 0)
(0.00071388432483 0.000237147067963 0)
(0.000742931444014 0.000101413236108 0)