/*--------------------------------*- C++ -*----------------------------------*\
| =========                 |                                                 |
| \\      /  F ield         | OpenFOAM: The Open Source CFD Toolbox           |
|  \\    /   O peration     | Version:  v1806                                 |
|   \\  /    A nd           | Web:      www.OpenFOAM.com                      |
|    \\/     M anipulation  |                                                 |
\*---------------------------------------------------------------------------*/
FoamFile
{
    version     2.0;
    format      ascii;
    class       volVectorField;
    location    "507";
    object      Ua;
}
// * * * * * * * * * * * * * * * * * * * * * * * * * * * * * * * * * * * * * //

dimensions      [0 1 -1 0 0 0 0];


internalField   nonuniform List<vector> 
6400
(
(6.3180294872e-05 8.82805687835e-05 0)
(0.000173228052905 6.7727206974e-05 0)
(0.000254104138027 5.54644740006e-05 0)
(0.000343115806258 5.01736351373e-05 0)
(0.000409059675521 3.39879365558e-05 0)
(0.000457489431967 2.10597864093e-05 0)
(0.00048423310536 1.62374705193e-05 0)
(0.000506496254693 2.35542853989e-05 0)
(0.000567913716729 3.31004432614e-05 0)
(0.000631876815643 3.26159289316e-05 0)
(0.000661734338644 2.98279392918e-05 0)
(0.000721664407564 3.23929880294e-05 0)
(0.000777591043974 3.1108539692e-05 0)
(0.000825656035625 2.76488119643e-05 0)
(0.0008643469139 2.620427242e-05 0)
(0.000905906213328 2.90508722239e-05 0)
(0.000957031477199 3.03927117107e-05 0)
(0.00100346682907 2.84646662029e-05 0)
(0.00104111525264 2.5242347929e-05 0)
(0.0010777122973 2.41501887271e-05 0)
(0.00112347549914 2.9605951735e-05 0)
(0.00117934968743 3.56135446194e-05 0)
(0.00123959894652 3.74914050323e-05 0)
(0.00129671053197 3.7419448859e-05 0)
(0.00135212920131 3.60795118967e-05 0)
(0.00140657331245 3.435481283e-05 0)
(0.00146202209348 3.41475275817e-05 0)
(0.00151586673052 3.35487103946e-05 0)
(0.00156574368952 3.21420918236e-05 0)
(0.00161218059364 3.104714392e-05 0)
(0.00165523567201 3.13405870128e-05 0)
(0.00170051250242 3.12275899186e-05 0)
(0.00174748437928 3.03196124136e-05 0)
(0.00179225192197 3.13597076936e-05 0)
(0.00183731978689 3.21467702603e-05 0)
(0.00188994033198 3.29753740192e-05 0)
(0.00194129491315 3.45571233438e-05 0)
(0.00197893728612 3.39939654868e-05 0)
(0.00202850399171 3.27031614843e-05 0)
(0.00208682277254 3.31591095132e-05 0)
(0.00213842210867 3.75416135757e-05 0)
(0.00217913332025 3.76411583906e-05 0)
(0.00221637566693 2.9778113555e-05 0)
(0.00225048239078 2.43617085519e-05 0)
(0.00227835849597 2.21982405955e-05 0)
(0.00230203648703 1.98312845719e-05 0)
(0.00232098276726 1.744587231e-05 0)
(0.00233365027602 1.42020094569e-05 0)
(0.0023404376689 1.12597686723e-05 0)
(0.00234185980567 1.2353447859e-05 0)
(0.00234358699916 1.80614459554e-05 0)
(0.00235931433959 1.75462422918e-05 0)
(0.00235643368167 1.28076213875e-06 0)
(0.00234599386173 -6.60047088106e-06 0)
(0.00231351023565 -1.34039766513e-05 0)
(0.00223112427662 -2.84601714722e-05 0)
(0.00214489882855 -2.46570149208e-05 0)
(0.0021037113542 -1.21343443705e-05 0)
(0.00208969148717 -1.71967267068e-05 0)
(0.00199598314727 -2.115229091e-05 0)
(0.00195012966661 8.77548296537e-07 0)
(0.00187747808248 -1.06133970841e-05 0)
(0.00207945401866 -8.29795146154e-05 0)
(0.00171739278092 -0.000110144256192 0)
(0.00138743557498 -7.75583789568e-05 0)
(0.00125565619872 -5.07361742905e-05 0)
(0.00117563279487 -4.89120750968e-05 0)
(0.00111382950281 -4.84460346953e-05 0)
(0.001048191496 -4.97780013441e-05 0)
(0.000953142862603 -5.29949336275e-05 0)
(0.000851631639028 -5.44372365535e-05 0)
(0.000734101756081 -5.31708461167e-05 0)
(0.000620231383894 -5.31514332528e-05 0)
(0.000541679310115 -5.73131312944e-05 0)
(0.00040227816522 -4.59405129007e-05 0)
(0.000346888234765 -4.04063552848e-05 0)
(0.000227046396453 -2.48968050097e-05 0)
(0.000231845443087 -3.39145262564e-05 0)
(9.90730076121e-05 -2.362304026e-05 0)
(7.32943070276e-05 -4.37973302756e-05 0)
(2.40613467122e-05 0.000123083914671 0)
(0.000103666675223 0.000137900196868 0)
(0.00018122704785 0.000125298576869 0)
(0.000232089715173 0.000100687565781 0)
(0.000336554581558 9.93212274809e-05 0)
(0.000432672185487 7.19145743576e-05 0)
(0.000490608315808 4.81989898666e-05 0)
(0.000533069014342 6.28072202883e-05 0)
(0.000579505065416 8.0896607383e-05 0)
(0.000631540627534 8.02742105987e-05 0)
(0.000682068808372 7.65594430137e-05 0)
(0.000729699525921 7.62533374575e-05 0)
(0.00077549703664 7.08931343391e-05 0)
(0.000818812470807 6.35772850824e-05 0)
(0.000863352783729 6.14224686282e-05 0)
(0.000908688965073 7.24365687403e-05 0)
(0.000955905802133 7.76930450637e-05 0)
(0.000997259256709 6.23622540774e-05 0)
(0.00100984561395 5.09013710124e-05 0)
(0.00105226959612 5.36537014748e-05 0)
(0.00110793359743 6.97452307401e-05 0)
(0.00117042738242 8.88535094325e-05 0)
(0.00123921075389 9.33604088173e-05 0)
(0.00130056495618 8.6837100202e-05 0)
(0.00134495228983 8.1741481653e-05 0)
(0.00140491729334 8.03477230242e-05 0)
(0.00146294962598 7.79532243304e-05 0)
(0.00151422098922 7.39761279025e-05 0)
(0.00156269793443 6.99791630823e-05 0)
(0.00160995849708 6.70839396391e-05 0)
(0.00165536984619 6.66312438625e-05 0)
(0.00169338294163 6.53291437141e-05 0)
(0.00173983291268 6.16073501075e-05 0)
(0.00178314758037 6.50225290609e-05 0)
(0.00182478602124 6.99166647349e-05 0)
(0.00188677758957 6.85465762785e-05 0)
(0.00193276307589 7.08629268154e-05 0)
(0.00197116745127 7.33887261488e-05 0)
(0.00202748474191 7.11846532596e-05 0)
(0.00209784742822 6.71180029469e-05 0)
(0.00215217498309 5.87554916484e-05 0)
(0.00212883891066 4.82935340889e-05 0)
(0.00213367776463 4.25831149529e-05 0)
(0.00217314854655 4.0032045221e-05 0)
(0.00220459446487 3.71463311924e-05 0)
(0.00223862066987 3.27805122346e-05 0)
(0.00227216778275 2.63111585832e-05 0)
(0.0022952208812 1.8147529162e-05 0)
(0.00232061960776 9.51668502804e-06 0)
(0.00233672726911 2.34978511971e-06 0)
(0.00232984463134 -1.28522548316e-06 0)
(0.00228533014169 -4.7408680962e-06 0)
(0.00224921869945 -1.05011928556e-05 0)
(0.00234357859746 -2.83899423939e-05 0)
(0.00229376739197 -6.3220444033e-05 0)
(0.00224350812653 -8.57206324871e-05 0)
(0.0022547472462 -7.82418500061e-05 0)
(0.00223008347129 -6.3345964705e-05 0)
(0.00219073898659 -7.17258095569e-05 0)
(0.0021596043001 -8.3583466523e-05 0)
(0.00215982196691 -9.12259772091e-05 0)
(0.00183663621274 -9.9972164282e-05 0)
(0.00203791554501 -0.000245932005667 0)
(0.00169924418903 -0.000326085735573 0)
(0.00140487059579 -0.000267024334981 0)
(0.00118782063648 -0.000181732747845 0)
(0.00107614850618 -0.000130882407371 0)
(0.00106353600737 -0.000119407068909 0)
(0.00100545204495 -0.000132300452155 0)
(0.000933662840662 -0.000154479170824 0)
(0.000824641783393 -0.000167032284007 0)
(0.000703640165505 -0.000164020497584 0)
(0.000576704325044 -0.000144335556946 0)
(0.000515106174876 -0.000140489611106 0)
(0.000435750560988 -0.000130223851682 0)
(0.000365090543304 -0.00011785592494 0)
(0.000294165641627 -9.95426428339e-05 0)
(0.000229635818903 -0.000101127024131 0)
(0.000141032769618 -0.000106231505413 0)
(6.45109075722e-05 -0.000171314939209 0)
(3.52468745141e-05 0.000213187257424 0)
(9.94366657959e-05 0.000230453083422 0)
(0.00015314750923 0.000216067764917 7.32465863702e-29)
(0.000261620077084 0.000218961588153 -6.84801208337e-29)
(0.00036360808433 0.000216562421232 -6.07961638853e-29)
(0.000426607951362 0.000176624523986 5.5571819601e-29)
(0.000471859736422 0.000103072457909 -5.59638234243e-29)
(0.000515625574039 0.000111961117787 5.45755088178e-29)
(0.000564609745352 0.000134843701721 0)
(0.000619602593614 0.000138503254407 0)
(0.000674081157348 0.000132570538606 0)
(0.0007233040622 0.000125059192668 0)
(0.000768771235057 0.000116238996462 0)
(0.000810908990159 0.000111206640396 0)
(0.000855061856474 0.00011074768229 0)
(0.000900538834451 0.000106010697077 0)
(0.000845843325313 8.6866680075e-05 0)
(0.000837186055625 7.58432570152e-05 0)
(0.000880098707775 8.69489429042e-05 0)
(0.000956517764441 0.000119753157901 0)
(0.00109683041256 0.000156041514664 0)
(0.00118216431429 0.000166153749751 0)
(0.00122565579207 0.00015813416199 0)
(0.00128636868272 0.000148747238004 0)
(0.00134937030567 0.000143223137899 0)
(0.00140336780517 0.000139649797733 0)
(0.00145511559376 0.000133702810144 0)
(0.00150658836299 0.000127221248942 0)
(0.00155568463074 0.000121595928769 0)
(0.0016014073412 0.000117576762195 1.07144596963e-28)
(0.00164965305137 0.000114280187 -1.0383170307e-28)
(0.00168181545532 0.000111215488691 0)
(0.00172476920058 0.000108562008354 0)
(0.00178459705677 0.000108798410789 0)
(0.00179745391878 0.000118873886332 0)
(0.00185987877231 0.000126978922244 0)
(0.00193658470676 0.000124921895794 0)
(0.00195445432803 0.000127239548047 0)
(0.00201644902685 0.00013431389674 0)
(0.00209285665111 0.000126467201852 0)
(0.00214872244863 9.87258114288e-05 0)
(0.00218507554224 7.66126146069e-05 0)
(0.00221820998508 7.47187052422e-05 0)
(0.00225094909381 7.58108136884e-05 0)
(0.00227899993337 7.21343791818e-05 0)
(0.00230239542264 6.5460999511e-05 0)
(0.00232167040852 5.51298571994e-05 0)
(0.00233685624753 4.29435730172e-05 0)
(0.00234823589315 2.89276010498e-05 0)
(0.00235538965043 1.1307569975e-05 0)
(0.00235800212897 -6.83072746766e-06 0)
(0.00235596389615 -1.55507767559e-05 0)
(0.00234869024924 -1.17960067464e-05 0)
(0.0023178486827 -3.56744155267e-05 0)
(0.00226718454851 -7.71079413165e-05 0)
(0.00226476564379 -9.26253397226e-05 0)
(0.00225189856986 -9.21064192111e-05 0)
(0.00221563942572 -9.44642568836e-05 0)
(0.00217062674131 -0.000103804427726 0)
(0.00212376320898 -0.000124962876435 0)
(0.00205264068358 -0.000182947536183 0)
(0.00196740575984 -0.000255171293102 0)
(0.00192883637734 -0.00047852969852 0)
(0.00152733247572 -0.000556705614509 0)
(0.00119340385378 -0.000401797786713 0)
(0.00110906416653 -0.000284354847191 0)
(0.00106891874031 -0.000218530426869 0)
(0.00099729297464 -0.000194938335231 0)
(0.000925466951428 -0.000215675435224 0)
(0.000840389206648 -0.000248005525393 0)
(0.000736023805275 -0.000260115146483 0)
(0.000639476817576 -0.000246281982392 0)
(0.000577788814424 -0.000227825261265 0)
(0.000515928741049 -0.000221182482847 0)
(0.000433780274497 -0.00021407251188 0)
(0.000349761107295 -0.000195804130772 0)
(0.000271725291272 -0.000174332027223 0)
(0.000206696950293 -0.000184737758934 0)
(0.00014158253864 -0.000237026088238 0)
(3.60810805302e-05 -0.000234739358672 0)
(3.34763958658e-05 0.000315484519247 0)
(4.69406200606e-05 0.00021488611948 0)
(0.000123351953043 0.000324196887002 0)
(0.000224687893699 0.000324557937125 0)
(0.000313296061012 0.000277869040724 0)
(0.000184926305077 0.00011266391226 0)
(0.000232865255816 0.000116932679929 0)
(0.000430417541844 0.000209937271729 0)
(0.000528053707825 0.000220434700834 0)
(0.000595621397015 0.000203942521644 0)
(0.000658720733506 0.000190878436229 0)
(0.000712974467892 0.000175930614379 0)
(0.000760130639559 0.000162170150362 0)
(0.000795852973228 0.000142213871941 0)
(0.000770967756086 0.000111252013914 0)
(0.0007472844261 8.94861420513e-05 0)
(0.000762200365859 8.96719206003e-05 0)
(0.000824253978364 0.00012264864057 0)
(0.000944774310928 0.000178464775893 0)
(0.00106104556661 0.000230801827424 0)
(0.00111348351366 0.000241495385875 0)
(0.00116824502427 0.00022960457934 0)
(0.0012290239894 0.000218220648093 0)
(0.00128604165142 0.000209472691148 0)
(0.00134013469334 0.000200482593769 0)
(0.00139213064389 0.000191936937249 0)
(0.00144250712923 0.000184417152757 0)
(0.00149664088895 0.000177147870734 0)
(0.00154241036122 0.000169589907805 0)
(0.00159485592333 0.000163898350169 0)
(0.00162949120435 0.000157945646358 0)
(0.00168139006715 0.000152659442068 0)
(0.00170013388551 0.000145051656602 0)
(0.00174958039205 0.000151451050812 0)
(0.0018250317612 0.000168195606728 0)
(0.00184681689528 0.000180635779933 0)
(0.00192118474412 0.00018572553524 0)
(0.00199871998032 0.000188604442537 0)
(0.00205037339858 0.000191158917896 0)
(0.0020971193171 0.000176836316765 0)
(0.00214246039672 0.000147376877311 0)
(0.00218266468928 0.000121685380806 0)
(0.00221899618524 0.000109846611754 0)
(0.00225192878543 0.000103717349199 0)
(0.00227995374471 9.58301846925e-05 0)
(0.0023032810587 8.49570356872e-05 -9.81248976389e-29)
(0.00232237825488 7.11609204111e-05 9.8863235987e-29)
(0.00233731595104 5.51135389354e-05 0)
(0.00234812287283 3.69228642053e-05 0)
(0.00235452341227 1.66524783103e-05 0)
(0.00235587367306 -3.23191056775e-06 0)
(0.00235053003129 -1.98824951036e-05 0)
(0.00233616351887 -3.82487953243e-05 0)
(0.00231072551903 -6.82710416153e-05 0)
(0.00228217993124 -9.63471675368e-05 0)
(0.00225776051014 -0.000112072140568 0)
(0.00222764310017 -0.000125511552937 0)
(0.00218309279406 -0.000140997078365 -2.00926497326e-28)
(0.00212344263921 -0.000163763572355 2.35131396082e-28)
(0.00204439293354 -0.00020608565817 0)
(0.00193309933492 -0.000284287087435 0)
(0.00178836734252 -0.00042123127111 0)
(0.00163510646456 -0.00065896490801 0)
(0.00145644186147 -0.000772163673367 0)
(0.00126882243464 -0.00060403449482 0)
(0.00105245174876 -0.000369623816756 0)
(0.000965771445729 -0.000282570531227 0)
(0.00090722324144 -0.000269843754065 0)
(0.000844469290562 -0.000295054728173 0)
(0.000786971338073 -0.000338721137445 0)
(0.000710215663132 -0.000354954601585 0)
(0.000629954726095 -0.000335801279165 0)
(0.00054696761263 -0.00031227545043 0)
(0.000440935504535 -0.000291017641591 0)
(0.000361508590858 -0.000284324972171 0)
(0.000288146204048 -0.000279824553904 0)
(0.000207549997767 -0.000254897693693 0)
(0.00012064612544 -0.000208419061129 0)
(8.74594831192e-05 -0.000264667739003 0)
(2.90952151984e-05 -0.000305232718903 0)
(1.84562782567e-06 0.000315467428956 0)
(2.35959759937e-05 0.000261367208533 0)
(0.000109810342494 0.000421394102598 0)
(0.000189998009493 0.00039205499842 0)
(0.000206756367427 0.00026392261198 0)
(0.00016662114624 0.000152103404587 0)
(0.000286204607884 0.000246131834218 0)
(0.000430447184237 0.000338224770045 0)
(0.000491459668806 0.000308421572822 0)
(0.000564964621369 0.00027639815524 0)
(0.000632745689968 0.000258703397048 0)
(0.000690923291675 0.000233757795443 0)
(0.000707052945421 0.00018232782392 0)
(0.000663226152815 0.000125522248282 0)
(0.00068560142926 0.000109890748251 0)
(0.000739171129236 0.00012552676197 0)
(0.000825530570506 0.000167946598851 0)
(0.000929877753211 0.000229129318396 0)
(0.00100896796481 0.000275138446165 0)
(0.0010457209903 0.00028654031047 0)
(0.00109907415459 0.00029130723932 0)
(0.00116208095767 0.000290101512295 0)
(0.00121874952728 0.000279156005563 0)
(0.00127398268839 0.000265824232783 0)
(0.00132671174378 0.000253806742959 0)
(0.00137668407871 0.0002444901682 0)
(0.00143171714681 0.000236155272668 0)
(0.00147543221935 0.000226504673255 0)
(0.00153404388766 0.000218479556985 0)
(0.00156606366393 0.000207996472019 0)
(0.00162734173661 0.000201828913673 1.02685428248e-28)
(0.00163020672016 0.000190447573413 -9.71392939853e-29)
(0.00170092750295 0.000194107773028 0)
(0.00176948924194 0.000204281492758 0)
(0.00179896401978 0.000220050131607 0)
(0.00188290796471 0.000244324219814 0)
(0.00194601162756 0.000256164218868 0)
(0.00200121145912 0.000250138888307 0)
(0.00205030746336 0.000237539391067 0)
(0.00209596775156 0.000218361139848 0)
(0.00214054251545 0.000191302511169 0)
(0.0021822774082 0.000165218188096 0)
(0.00222009248046 0.000147312746492 0)
(0.00225347916261 0.000134466770432 0)
(0.00228179824595 0.00012144264707 0)
(0.00230531820201 0.000106184131182 0)
(0.00232437073888 8.83350658628e-05 0)
(0.00233897194853 6.81134773712e-05 0)
(0.00234892309963 4.55516707113e-05 0)
(0.00235376674548 2.08590597153e-05 0)
(0.00235266025141 -4.74605789568e-06 0)
(0.00234403847936 -3.05343893727e-05 0)
(0.00232628416855 -5.89450435156e-05 0)
(0.00229954164529 -9.17409640361e-05 0)
(0.00226831134121 -0.000121983054569 0)
(0.00223461733505 -0.000146768791342 0)
(0.00219111172195 -0.000172842513296 0)
(0.00212885022305 -0.000206338133487 0)
(0.00204146584539 -0.000254503889289 0)
(0.00192262083594 -0.000329046992136 0)
(0.00177058140654 -0.000441477825603 0)
(0.00160594172783 -0.000598594717391 0)
(0.00144738953971 -0.000789733534614 0)
(0.00137915650452 -0.000895588512598 0)
(0.00126094265855 -0.000758921809291 0)
(0.00106506044436 -0.00052431212757 0)
(0.000943229224059 -0.000401352195429 0)
(0.00084424303075 -0.000356538920913 0)
(0.000765459010487 -0.000364659054044 0)
(0.000707425684247 -0.000402988832461 0)
(0.00065040551909 -0.00043300116563 0)
(0.000569035235152 -0.000423721429462 0)
(0.000457718821833 -0.000385030706803 0)
(0.000378721108668 -0.000371841882586 0)
(0.00030447419723 -0.000371619653772 0)
(0.000228933161932 -0.000363742844715 0)
(0.000153890176204 -0.000307161545147 0)
(9.85922268363e-05 -0.000266257701138 0)
(6.25674516666e-05 -0.000330258205371 0)
(1.58506702787e-05 -0.000341262955938 0)
(-1.89314488077e-06 0.000294844305659 0)
(2.84995086348e-05 0.000316338911994 0)
(0.000109650217491 0.000479040865835 0)
(0.00015534832253 0.000406717001508 0)
(0.000118737811721 0.000208547377612 0)
(0.00016545145852 0.000216135712649 0)
(0.00034747862407 0.000389740937748 0)
(0.00040787010579 0.000406966817638 0)
(0.000462431077426 0.000376947218564 0)
(0.000528454554921 0.000349970381992 0)
(0.000595964120049 0.000311992052615 0)
(0.000569850247039 0.000229841117445 0)
(0.000529233316152 0.000152902155062 0)
(0.000576409375716 0.000142683276421 0)
(0.00063932948927 0.000166567860733 0)
(0.000749177908476 0.00021904914187 0)
(0.000862178438625 0.000274443293819 0)
(0.00094132603394 0.000306832710722 0)
(0.000967253380843 0.000313739980032 0)
(0.00102566009296 0.000335280937926 0)
(0.0010931344741 0.00035285632906 0)
(0.00114862497215 0.00034924420228 0)
(0.00120276477919 0.000336174496585 0)
(0.00125547111254 0.000321455250343 0)
(0.0013126074123 0.000308794330077 0)
(0.00136258570788 0.000294751381569 0)
(0.00139761597644 0.000284614004397 0)
(0.00146773215838 0.000278638182919 0)
(0.00148929902016 0.000261979817013 0)
(0.00156487440205 0.00025201781268 0)
(0.00155099241031 0.000233581994925 0)
(0.00164056799875 0.000241457547978 0)
(0.00164047108052 0.000243090447686 0)
(0.00173703558094 0.000265189950552 0)
(0.00183093083953 0.00029448214228 0)
(0.00189549426787 0.000314302453211 0)
(0.00194957910488 0.000313290145691 0)
(0.00200039202389 0.000301288844194 0)
(0.0020485808354 0.000284240822342 0)
(0.00209498003983 0.000262399294191 0)
(0.00213990348657 0.000235482775569 0)
(0.00218239270338 0.000208165475693 0)
(0.00222116201447 0.000185268262196 0)
(0.00225519951759 0.000166117112036 0)
(0.00228410522149 0.000147522844677 0)
(0.00230800393395 0.000127440779879 0)
(0.00232711952281 0.000105100951671 0)
(0.00234128448607 8.02644657361e-05 0)
(0.0023500169772 5.27342871802e-05 0)
(0.00235267660713 2.25206135648e-05 0)
(0.0023483653048 -9.93613493937e-06 0)
(0.00233581353556 -4.44740568891e-05 0)
(0.00231405022471 -8.16029621949e-05 0)
(0.00228353815975 -0.000120372429667 0)
(0.00224595254197 -0.000157717759209 0)
(0.00219958198658 -0.000195244482078 0)
(0.00213664093221 -0.000240196495822 0)
(0.00204847747299 -0.000299585418161 0)
(0.00193047960925 -0.000379399333264 0)
(0.00178216356922 -0.000483077464 0)
(0.00161734880785 -0.000610722460591 0)
(0.00146287562039 -0.000750851125034 0)
(0.00126525443427 -0.000844255467293 0)
(0.0013152691004 -0.00101529193388 0)
(0.00111670393622 -0.000853654596516 0)
(0.000959950225493 -0.000627058062681 0)
(0.000872717010198 -0.000514098340814 0)
(0.000775115348924 -0.000450900815968 0)
(0.000686546923269 -0.000433587938511 0)
(0.000637971816416 -0.000475123721596 0)
(0.000582803362484 -0.000519568656063 0)
(0.000480432186945 -0.000490209922144 0)
(0.000394974350049 -0.000458627558614 0)
(0.000326680308388 -0.000456461093636 0)
(0.000247770455502 -0.000452495800073 0)
(0.000183893135111 -0.000431991328994 0)
(0.000120801670231 -0.000347468031572 0)
(7.67540924056e-05 -0.000311563084151 0)
(4.55488554986e-05 -0.000369647841467 0)
(1.27099278881e-05 -0.000368092358859 0)
(9.2130411959e-06 0.000319220473249 0)
(6.40142213544e-05 0.000408259197721 0)
(0.000140623318595 0.000519245654247 0)
(0.000156052244236 0.000489364015712 0)
(0.000109219074739 0.00026197229759 0)
(0.000232148419047 0.000373546880734 0)
(0.000349513416214 0.000470668111295 0)
(0.000384620260259 0.000457525015888 0)
(0.000436101223297 0.000431125374994 0)
(0.000475313930288 0.000401270698436 0)
(0.000556584831578 0.000348613345854 -2.55658257957e-28)
(0.000446452920095 0.000197129219649 1.57697535235e-28)
(0.000512294999017 0.000187457780495 0)
(0.000555695954565 0.000205305560326 0)
(0.000654840892398 0.000263591193294 0)
(0.000778729933875 0.000336728256436 0)
(0.000861861212311 0.000361587252052 0)
(0.000873815369961 0.000343664464551 0)
(0.000937822544167 0.000365690342109 0)
(0.00101817772234 0.000402769511299 0)
(0.00107290900834 0.00041253825169 0)
(0.00112924065537 0.000405841251707 0)
(0.00118500121095 0.000392962997336 0)
(0.00123929132467 0.000376190214055 0)
(0.00128485176668 0.000356581803214 0)
(0.00132299327099 0.000338928062755 0)
(0.00138943940487 0.00033312682186 0)
(0.00139964110001 0.000321012327287 0)
(0.00149086992783 0.000311631150577 0)
(0.00146836867316 0.000275650794137 0)
(0.00156618973135 0.000282523208767 0)
(0.00157127266409 0.000288829380433 -9.49269793268e-29)
(0.00166748719462 0.000311655287828 9.76687657009e-29)
(0.00173730654581 0.000346494200472 0)
(0.00183852114438 0.000376073134887 0)
(0.00189707609572 0.00037730534916 0)
(0.00194740761622 0.00036637162073 0)
(0.00199724156362 0.000350714008759 0)
(0.0020465667844 0.000331440742783 0)
(0.00209431483657 0.000307915094979 0)
(0.00213998608305 0.000280138123168 0)
(0.00218319663691 0.000250959306023 0)
(0.0022227704895 0.00022367588963 0)
(0.00225758730341 0.000198721354415 0)
(0.00228721472748 0.000174411088124 0)
(0.0023116566061 0.000149067826072 0)
(0.00233088269517 0.000121642678108 0)
(0.00234443039178 9.1459225889e-05 0)
(0.00235155963557 5.8027033656e-05 0)
(0.0023515061248 2.11285504685e-05 0)
(0.00234339970941 -1.91473499801e-05 0)
(0.00232619397832 -6.25868965187e-05 0)
(0.00229914681023 -0.000108769247 0)
(0.00226209039509 -0.000156709331344 0)
(0.00221416138924 -0.000206486621317 0)
(0.00215106902148 -0.000262659081922 0)
(0.00206497732521 -0.000332398794754 0)
(0.00195021585903 -0.000419912117717 0)
(0.00180985786579 -0.000524143834277 0)
(0.00165846560657 -0.000640147712591 0)
(0.00151205022161 -0.000760471685023 0)
(0.00138154367162 -0.000875907598712 0)
(0.00128243946462 -0.000988674473059 0)
(0.00123523113033 -0.00110286198164 0)
(0.00106666867415 -0.000979415879972 0)
(0.000840645940146 -0.000701556840552 0)
(0.000793459891449 -0.000604759770403 0)
(0.000719330843495 -0.000550783863551 0)
(0.000636218474565 -0.000527528324699 0)
(0.000574127241345 -0.000558698727031 0)
(0.000504841345479 -0.000582200589795 0)
(0.000417484707469 -0.000550097598332 0)
(0.000351549335186 -0.000541964795812 0)
(0.000273426389285 -0.000538534464434 0)
(0.000200207364412 -0.000526906714343 0)
(0.000142478470912 -0.000467783797732 0)
(9.73052971811e-05 -0.000400206814186 0)
(5.00390873958e-05 -0.000351243909936 0)
(2.51765908735e-05 -0.000391970300232 0)
(8.61054944569e-06 -0.00039626853474 0)
(1.97926975348e-05 0.000369742544726 0)
(8.91027291229e-05 0.000493418894871 0)
(0.000154770623724 0.000538857842139 0)
(9.87936374668e-05 0.000336447543722 0)
(0.000112673395058 0.000323120572598 0)
(0.000262406453871 0.000506517334595 0)
(0.000316771537788 0.000519532821932 0)
(0.000363952830114 0.000506581340947 0)
(0.000393607829006 0.000470093517632 0)
(0.000448271649479 0.000441212241183 0)
(0.000375273755946 0.00027763635977 0)
(0.000428448177186 0.000232749724534 0)
(0.000488257954284 0.000241521596545 0)
(0.00054416059032 0.000280767479722 0)
(0.000683105953529 0.000378511588328 0)
(0.000777512165857 0.000423131602542 0)
(0.000782167028994 0.000391047991161 0)
(0.000836553911 0.000396475372672 0)
(0.000928274068694 0.000442479269302 0)
(0.000995548759403 0.000467967465991 0)
(0.00104753959894 0.000468808852363 0)
(0.00110044209775 0.00046070422431 0)
(0.00115987631462 0.000450781301944 0)
(0.00121324400396 0.000431942541294 0)
(0.00127072705896 0.000404847252408 0)
(0.00129146072095 0.000387123512629 0)
(0.00137003174005 0.000381131444642 0)
(0.00139410632575 0.000362076453442 0)
(0.00140751168385 0.000338855693219 0)
(0.00146343179102 0.00033222391191 0)
(0.00157247355445 0.000345588800553 0)
(0.00158835872583 0.000344771888622 0)
(0.00163944005731 0.00038257955916 0)
(0.00177157879078 0.000436106877887 0)
(0.00183444455354 0.000448587948959 0)
(0.00188975674423 0.00043594760713 0)
(0.00194231165253 0.000419043799494 0)
(0.0019934808241 0.000401015682894 0)
(0.00204425822225 0.000380168898854 0)
(0.00209364388227 0.000355032165395 0)
(0.00214057182862 0.000325656222963 0)
(0.00218466567939 0.000294055139774 0)
(0.00222515570361 0.000262627362757 0)
(0.00226097651089 0.000232230141379 0)
(0.00229154537749 0.000202150626684 -9.46844172042e-29)
(0.00231668497039 0.000171118486872 9.44694988052e-29)
(0.00233603983397 0.000137889677374 0)
(0.00234880624796 0.000101419547158 0)
(0.00235401251817 6.09830594534e-05 0)
(0.00235081651657 1.62231560367e-05 0)
(0.00233833491683 -3.28942149983e-05 0)
(0.00231559688657 -8.61591919299e-05 0)
(0.00228173428629 -0.000143162005007 0)
(0.0022355201356 -0.000204057401917 0)
(0.00217408460367 -0.000271480941503 0)
(0.00209174143361 -0.000351151676247 0)
(0.00198241601469 -0.000447641094832 0)
(0.00184713779822 -0.000557907046631 0)
(0.00169957282792 -0.000672748133303 0)
(0.00155795392342 -0.000784273797852 0)
(0.00143033872967 -0.000885897932849 0)
(0.00132389745738 -0.000977224969827 0)
(0.00124526699539 -0.00106666597419 0)
(0.00117882104648 -0.00116161372381 0)
(0.00119569525147 -0.00123483676985 0)
(0.000836026277203 -0.000849213779804 0)
(0.000697309928646 -0.000685128907818 0)
(0.000631465955532 -0.000626329420914 0)
(0.000554387419054 -0.000598503461014 0)
(0.000498423753075 -0.000617508512188 0)
(0.00044211825405 -0.000629074164944 0)
(0.000376451604296 -0.000619345146747 0)
(0.000306109307361 -0.000625503961039 0)
(0.000223674515866 -0.000619173161784 0)
(0.000155574049017 -0.000587332989586 0)
(0.000101572135579 -0.000509247323033 0)
(5.9882004601e-05 -0.000450638061573 0)
(1.65719850124e-05 -0.000396183888438 0)
(-4.56116939438e-06 -0.000402706764807 0)
(-2.79689262755e-06 -0.000411398660644 0)
(2.73397523837e-05 0.000432489618144 0)
(9.90900221976e-05 0.000560091097959 0)
(0.000126011605353 0.00055376737449 0)
(9.20157677905e-05 0.000367377266809 0)
(0.000154628310783 0.000421262419667 0)
(0.000264403622497 0.000568583105629 0)
(0.000285680819281 0.000564345586233 0)
(0.00034395123839 0.000551468281524 0)
(0.00033451425335 0.000471503935102 0)
(0.000431093814543 0.000494592315795 0)
(0.000350942533265 0.000307247049404 0)
(0.000421339528644 0.000289375548626 0)
(0.000470227914718 0.000304778153961 0)
(0.000566028266261 0.000386101045527 0)
(0.000682174695289 0.00047834149813 0)
(0.000745394160909 0.000480390158638 0)
(0.000747578592243 0.000438211505564 0)
(0.000821806638406 0.00046992340485 0)
(0.000902642366083 0.000514828537011 0)
(0.000964065141668 0.00052945432332 0)
(0.00102159469036 0.000525890070423 0)
(0.00107057888422 0.000513828033778 0)
(0.00112700568753 0.000502986647739 0)
(0.00116669117081 0.000481263376848 0)
(0.00120177941359 0.000442825561726 0)
(0.00128467993384 0.000436065828422 0)
(0.00126836745525 0.000415185012815 0)
(0.00139933680543 0.000415438095986 0)
(0.0013784657194 0.0003907590857 0)
(0.00150366053904 0.000407573996997 0)
(0.00148608743086 0.000389090815021 0)
(0.00161650904261 0.000421390807234 0)
(0.00169332853243 0.000472930993608 -1.03260988294e-28)
(0.00176550700767 0.00051044309846 1.04234393214e-28)
(0.00182481165191 0.000509394826778 0)
(0.0018808037075 0.000492992526569 0)
(0.00193590188536 0.00047362079289 0)
(0.00198925809734 0.000453378585825 0)
(0.00204165047674 0.000430743850196 0)
(0.00209268227135 0.000403864939074 0)
(0.00214130322193 0.00037243939386 0)
(0.00218682006155 0.000337982102892 0)
(0.00222854539128 0.000302438669311 0)
(0.00226564711475 0.00026680630636 0)
(0.00229750262031 0.000230885798816 0)
(0.00232357989304 0.000193677428367 0)
(0.00234312043709 0.000153810847826 0)
(0.00235503282262 0.000109975915051 0)
(0.00235816309917 6.1301409928e-05 0)
(0.0023515212138 7.39411914715e-06 0)
(0.0023341747706 -5.18908022696e-05 0)
(0.00230509713505 -0.000116562165753 0)
(0.00226305816384 -0.000186920088908 0)
(0.00220587226566 -0.000264679969162 0)
(0.0021292612044 -0.000353900561347 0)
(0.00202754655004 -0.000459446775718 0)
(0.00189799765303 -0.000580328976039 0)
(0.00174940716114 -0.000704059156577 0)
(0.00160301293396 -0.000818064560844 0)
(0.00147120961784 -0.000919458229255 0)
(0.00135146613596 -0.00100180719792 0)
(0.00124629868853 -0.00106501188302 0)
(0.00117002780219 -0.00112729199076 0)
(0.001122404624 -0.00119743186566 0)
(0.00114434148103 -0.00128169961018 0)
(0.00103094310553 -0.00116731818408 0)
(0.000656179612393 -0.000785549763938 0)
(0.000537621459978 -0.000703416866483 0)
(0.000486952035184 -0.000670357057415 0)
(0.00044366988689 -0.000663951233858 0)
(0.000399657034178 -0.000672537800233 0)
(0.000343264016084 -0.000695201499075 0)
(0.000263158655378 -0.000712641404153 0)
(0.000176680654739 -0.000698051332935 0)
(0.000104557698918 -0.000641782958819 0)
(4.65849911167e-05 -0.000563241367538 0)
(3.67071820542e-07 -0.000493453047894 0)
(-3.18198092798e-05 -0.000436428136301 0)
(-3.92689765025e-05 -0.000403987276336 0)
(-1.71560709116e-05 -0.000392623517159 0)
(3.24998892789e-05 0.000508452686965 0)
(0.000108004639417 0.000608034361799 0)
(0.000112571258049 0.000548847840578 0)
(9.10386688149e-05 0.000394789836626 0)
(0.000192462148542 0.000556972986575 0)
(0.000232989409658 0.000585864758077 0)
(0.000257764227797 0.000603098506679 0)
(0.000303199891729 0.00058977521704 0)