/*--------------------------------*- C++ -*----------------------------------*\
| =========                 |                                                 |
| \\      /  F ield         | OpenFOAM: The Open Source CFD Toolbox           |
|  \\    /   O peration     | Version:  v1806                                 |
|   \\  /    A nd           | Web:      www.OpenFOAM.com                      |
|    \\/     M anipulation  |                                                 |
\*---------------------------------------------------------------------------*/
FoamFile
{
    version     2.0;
    format      ascii;
    class       surfaceScalarField;
    location    "181";
    object      phia;
}
// * * * * * * * * * * * * * * * * * * * * * * * * * * * * * * * * * * * * * //

dimensions      [0 3 -1 0 0 0 0];
oriented        oriented;


internalField   nonuniform List<scalar> 
12640
(
1.01629402778e-07
-1.01741610808e-07
1.98280448713e-07
-9.65766898466e-08
2.87027347692e-07
-8.86510799426e-08
3.63671009697e-07
-7.65019663845e-08
4.1764903133e-07
-5.38898350248e-08
4.45426713268e-07
-2.77787796202e-08
4.59761028915e-07
-1.43375246408e-08
4.93092600971e-07
-3.33315958618e-08
5.48603583196e-07
-5.54756909234e-08
6.00497403555e-07
-5.18424395357e-08
6.48232937272e-07
-4.76540399216e-08
7.03888413974e-07
-5.55657773449e-08
7.54782728181e-07
-5.07906644594e-08
7.9466648394e-07
-3.97860878886e-08
8.29174034262e-07
-3.44234841769e-08
8.72011686333e-07
-4.28093129224e-08
9.17449339666e-07
-4.54094921205e-08
9.53245536001e-07
-3.57825548431e-08
9.75996538149e-07
-2.26824395497e-08
9.91550185149e-07
-1.5439762869e-08
1.01964330397e-06
-2.79444327215e-08
1.06571733514e-06
-4.59279713398e-08
1.11925107948e-06
-5.33770667147e-08
1.17451608109e-06
-5.51275250299e-08
1.2264727961e-06
-5.182455959e-08
1.27363400789e-06
-4.70504643204e-08
1.32035330113e-06
-4.66073322544e-08
1.36435915962e-06
-4.39161182423e-08
1.40283964295e-06
-3.83844255751e-08
1.43685274718e-06
-3.39377634267e-08
1.47229750926e-06
-3.53572531262e-08
1.50706875001e-06
-3.47017514186e-08
1.53591201452e-06
-2.87899103617e-08
1.56691936704e-06
-3.09565003799e-08
1.59770105329e-06
-3.0694100088e-08
1.62733370201e-06
-2.95696896953e-08
1.66248142235e-06
-3.50573936023e-08
1.69658288306e-06
-3.39737965889e-08
1.72681877956e-06
-3.00752122075e-08
1.76397282579e-06
-3.69926206827e-08
1.83241302707e-06
-6.82717774835e-08
1.90701429866e-06
-7.44625070952e-08
1.9479300052e-06
-4.07900602567e-08
1.96872995084e-06
-2.06697067224e-08
1.98086328763e-06
-1.19964592934e-08
1.98304041446e-06
-2.0436772989e-09
1.97576184588e-06
7.42179757972e-09
1.95663822977e-06
1.9264758713e-08
1.92859077889e-06
2.81943455477e-08
1.90953973943e-06
1.91808940764e-08
1.91801072465e-06
-8.30855858879e-09
1.92466862394e-06
-6.5215549934e-09
1.86237752187e-06
6.2412632001e-08
1.76060238018e-06
1.01915433025e-07
1.63611855903e-06
1.24621002333e-07
1.46631575785e-06
1.69933473726e-07
1.31153799655e-06
1.54971733176e-07
1.19771652273e-06
1.14069337158e-07
1.07309716782e-06
1.24909976279e-07
9.36848342388e-07
1.36592259709e-07
8.21142394721e-07
1.16128979804e-07
6.95560129399e-07
1.25983150412e-07
5.03041160404e-07
1.92920663779e-07
3.5223982717e-07
1.51052225987e-07
2.54275291468e-07
9.81146479206e-08
1.87247296442e-07
6.7128438358e-08
1.31230887627e-07
5.61108228894e-08
7.79204672222e-08
5.34174052611e-08
2.56305864666e-08
5.24181712496e-08
-2.48759103679e-08
5.06583021033e-08
-6.9439399695e-08
4.47340863784e-08
-1.03441275295e-07
3.41819471462e-08
-1.24388787811e-07
2.11361006903e-08
-1.3137912846e-07
7.19279350869e-09
-1.27899544857e-07
-3.27893401975e-09
-1.16403013063e-07
-1.12923906992e-08
-1.0371128865e-07
-1.24783841541e-08
-7.91683317514e-08
-2.43172866553e-08
-5.00765123123e-08
-2.87359550338e-08
-4.98384403945e-08
5.0748413054e-08
-1.52268093006e-07
1.16986423929e-07
-1.62712776521e-07
1.82480323082e-07
-1.53991615266e-07
2.5349567514e-07
-1.47403113228e-07
3.53074295405e-07
-1.53419152134e-07
4.36099568969e-07
-1.1076351298e-07
4.85021862671e-07
-6.32709217569e-08
5.27827995048e-07
-7.60923078964e-08
5.7280330467e-07
-1.00399839507e-07
6.2470066291e-07
-1.03642064123e-07
6.76235237708e-07
-9.91001701995e-08
7.17085903423e-07
-9.62996743681e-08
7.54692775197e-07
-8.83213282837e-08
7.93271290334e-07
-7.82988060069e-08
8.32001711504e-07
-7.31483852208e-08
8.7765048457e-07
-8.8426124013e-08
9.1516119244e-07
-8.29259982962e-08
9.22248612713e-07
-4.27931195589e-08
9.25252760549e-07
-2.55960157295e-08
9.4658955321e-07
-3.66262098458e-08
9.88851862628e-07
-7.00489840382e-08
1.05572994608e-06
-1.12610113393e-07
1.12432840561e-06
-1.21832375323e-07
1.1743647897e-06
-1.04999170408e-07
1.22138028894e-06
-9.87241155351e-08
1.2761332619e-06
-1.01663724053e-07
1.32412834655e-06
-9.45118843148e-08
1.36410169052e-06
-8.37701056518e-08
1.40081591195e-06
-7.5025158468e-08
1.4350487162e-06
-6.80660383084e-08
1.46458264511e-06
-6.48315757647e-08
1.49107834695e-06
-6.11361431131e-08
1.51164887204e-06
-4.93144949727e-08
1.53633700316e-06
-5.55697230569e-08
1.57458554333e-06
-6.89123517258e-08
1.6036071194e-06
-5.84762480466e-08
1.63372312464e-06
-6.50629127494e-08
1.68113880077e-06
-8.12412826519e-08
1.73728623231e-06
-8.60826142796e-08
1.78083148795e-06
-8.03575633116e-08
1.74765247039e-06
-3.49715051593e-08
1.67882701066e-06
-5.51103605228e-09
1.66722323616e-06
-2.90855811209e-08
1.69119797625e-06
-4.45031331181e-08
1.72542267553e-06
-4.60968848033e-08
1.76666740748e-06
-4.31311424546e-08
1.80491693256e-06
-3.06938698217e-08
1.8387081447e-06
-1.43668007852e-08
1.86114863422e-06
5.88907733697e-09
1.84337183213e-06
3.71085147816e-08
1.76550464163e-06
6.96709628936e-08
1.6814726865e-06
7.76397113925e-08
1.70743677988e-06
3.65838457985e-08
1.72890899181e-06
8.06098851673e-08
1.66739586095e-06
1.8629627844e-07
1.61901518062e-06
2.1852327807e-07
1.55737946126e-06
2.16849012135e-07
1.44568489038e-06
2.26054777968e-07
1.32048173076e-06
2.50455889291e-07
1.17032856197e-06
2.87154796421e-07
9.3897890655e-07
3.47869358546e-07
7.15798557328e-07
3.49568482412e-07
5.15802441082e-07
3.93306100559e-07
3.61604039516e-07
3.05484226592e-07
2.55301690563e-07
2.0454845749e-07
1.77598164035e-07
1.44929695715e-07
1.19441567393e-07
1.14360692357e-07
6.79776017224e-08
1.0498719226e-07
1.68380188675e-08
1.03684873687e-07
-3.31925185378e-08
1.00837553397e-07
-7.66097383311e-08
8.83162180531e-08
-1.08584406218e-07
6.63288058185e-08
-1.30767784053e-07
4.35058954817e-08
-1.45699126744e-07
2.23308780534e-08
-1.4993356228e-07
1.17892119947e-09
-1.4524952038e-07
-1.57422429281e-08
-1.28354098013e-07
-2.9109151833e-08
-1.02408012199e-07
-4.99658001266e-08
-5.69767718819e-08
-7.38311782077e-08
-1.065053452e-07
6.87488284707e-08
-2.21203532816e-07
9.71017614367e-08
-1.90940132845e-07
1.8596270462e-07
-2.42725765529e-07
2.96204016853e-07
-2.57578354374e-07
3.93790412063e-07
-2.50985041781e-07
4.37504256111e-07
-1.54444352775e-07
4.57698666278e-07
-8.33714667909e-08
5.0444536524e-07
-1.2273114212e-07
5.6060588042e-07
-1.56436763419e-07
6.16879277396e-07
-1.5978600658e-07
6.69612394726e-07
-1.51714901233e-07
7.13197760615e-07
-1.39824379227e-07
7.50952246121e-07
-1.26063721427e-07
7.89643287656e-07
-1.17004156866e-07
8.1392021167e-07
-9.74368408538e-08
7.78057060034e-07
-5.2557319168e-08
7.14414845989e-07
-1.92154913325e-08
7.01996955655e-07
-3.02862282332e-08
7.45650822699e-07
-6.91195084965e-08
8.54237105562e-07
-1.45049720021e-07
9.81260382017e-07
-1.96892174956e-07
1.05813312832e-06
-1.89325354605e-07
1.10843577944e-06
-1.71975719829e-07
1.17069260384e-06
-1.67121513262e-07
1.23057436955e-06
-1.58469280344e-07
1.27635120839e-06
-1.47330373764e-07
1.31639322962e-06
-1.34438098246e-07
1.35480858909e-06
-1.22094205686e-07
1.38917832416e-06
-1.09297119793e-07
1.42228145085e-06
-1.01099060266e-07
1.44670889607e-06
-8.92016930727e-08
1.46727275884e-06
-8.16374416602e-08
1.49368845588e-06
-7.57011168171e-08
1.49571047729e-06
-5.75537485794e-08
1.50870357268e-06
-8.17986510953e-08
1.56447987679e-06
-1.14144908436e-07
1.59868454424e-06
-9.91302489727e-08
1.63241047468e-06
-1.14814605181e-07
1.71108962444e-06
-1.64595578453e-07
1.79287518141e-06
-1.62007872684e-07
1.8645859906e-06
-1.0654794496e-07
1.92188760635e-06
-6.26860135291e-08
1.95234437473e-06
-5.93940446031e-08
1.97131237574e-06
-6.33283061586e-08
1.98526184892e-06
-5.98870517182e-08
1.99223908157e-06
-4.99573220219e-08
1.9945784115e-06
-3.28709117047e-08
1.99124661685e-06
-1.08851561115e-08
1.9812478199e-06
1.60384769281e-08
1.96942261119e-06
4.9061842337e-08
1.95735007787e-06
8.18770047507e-08
1.92936513619e-06
1.05764240026e-07
1.83813902036e-06
1.27961579987e-07
1.73282663228e-06
1.86080582171e-07
1.68278134119e-06
2.36532610632e-07
1.63477657025e-06
2.66747023587e-07
1.54489550413e-06
3.06984985989e-07
1.42202450649e-06
3.49214469966e-07
1.28021508942e-06
3.92595205532e-07
1.12374260728e-06
4.43984283219e-07
9.72258534044e-07
4.99762546785e-07
7.71502287228e-07
5.50735249953e-07
5.46825915323e-07
6.18331833915e-07
3.53615698449e-07
4.98926814183e-07
2.35914542578e-07
3.22390795837e-07
1.66525571257e-07
2.14421329966e-07
1.06744471184e-07
1.74236784462e-07
5.20510745033e-08
1.59782570733e-07
1.31437920393e-09
1.54540453583e-07
-4.67266059634e-08
1.49018186487e-07
-9.06222834423e-08
1.32370097932e-07
-1.29300243077e-07
1.05185824197e-07
-1.59011067446e-07
7.34169896743e-08
-1.72457594397e-07
3.59961896876e-08
-1.711319159e-07
8.12424725144e-11
-1.59817788616e-07
-2.68002541715e-08
-1.40803436833e-07
-4.7875521797e-08
-1.14106280042e-07
-7.64100080137e-08
-5.33866276241e-08
-1.34120522036e-07
-1.59797876616e-07
4.70660198018e-08
-2.68005722427e-07
5.64851353913e-08
-2.00299405798e-07
1.66892804423e-07
-3.53051798412e-07
2.51226405509e-07
-3.41888546274e-07
2.38163982324e-07
-2.37892763335e-07
1.88722001268e-07
-1.04957783398e-07
2.67913166509e-07
-1.62461964547e-07
4.18252887901e-07
-2.72884577624e-07
5.2585966062e-07
-2.63873233801e-07
5.97461069603e-07
-2.31250141762e-07
6.58952213798e-07
-2.13138215355e-07
7.0875492764e-07
-1.89633948361e-07
7.35992409899e-07
-1.53346619927e-07
7.09929643364e-07
-9.09945051877e-08
6.48304170784e-07
-3.58098108077e-08
6.20878749686e-07
-2.50501603866e-08
6.51747569679e-07
-4.99677756356e-08
7.38437970366e-07
-1.16826564771e-07
8.6815442966e-07
-1.98665692469e-07
9.64669329871e-07
-2.41400250722e-07
1.01194444136e-06
-2.44013622036e-07
1.06441269334e-06
-2.41634660691e-07
1.12468613007e-06
-2.32105171361e-07
1.17605966989e-06
-2.18357265128e-07
1.22152966623e-06
-2.03826495176e-07
1.26247160945e-06
-1.8815659657e-07
1.30314241784e-06
-1.75017435622e-07
1.33973007658e-06
-1.58577972095e-07
1.37522759179e-06
-1.44717518166e-07
1.40163046585e-06
-1.27439385731e-07
1.42966101554e-06
-1.1717913811e-07
1.44291531386e-06
-9.48730999899e-08
1.43899984835e-06
-7.17298445199e-08
1.48077681396e-06
-9.9240484804e-08
1.51490706994e-06
-1.1582610835e-07
1.54704992163e-06
-1.46141842821e-07
1.64425279598e-06
-1.96166254168e-07
1.74125852028e-06
-2.11654979094e-07
1.78817062509e-06
-2.11370696111e-07
1.81870058198e-06
-1.92397415084e-07
1.8627310666e-06
-1.50436964789e-07
1.91218428712e-06
-1.11987156692e-07
1.94794842353e-06
-9.50142832094e-08
1.97164462756e-06
-8.68744693742e-08
1.98790315784e-06
-7.60012590217e-08
1.9977823867e-06
-5.96854771381e-08
2.00242667552e-06
-3.73693156793e-08
2.00139349513e-06
-9.7016762737e-09
1.99416771141e-06
2.34043426821e-08
1.98134778702e-06
6.20199622115e-08
1.95991486512e-06
1.03438974775e-07
1.92033485511e-06
1.45474551974e-07
1.85564913149e-06
1.92787052502e-07
1.78957704581e-06
2.52317786001e-07
1.71933422581e-06
3.06962058947e-07
1.62870730618e-06
3.57590451139e-07
1.51698580633e-06
4.18955730658e-07
1.38118245368e-06
4.85296644357e-07
1.22328962682e-06
5.5079538452e-07
1.05277389675e-06
6.14839353376e-07
8.78543625086e-07
6.74342753348e-07
6.99821583203e-07
7.2982491321e-07
5.52257604478e-07
7.66252367701e-07
3.77138985383e-07
6.74284212525e-07
2.39330560581e-07
4.60359636898e-07
1.51257033953e-07
3.0260741128e-07
8.6043981588e-08
2.39549095759e-07
2.97162590342e-08
2.16214866585e-07
-2.18633435445e-08
2.0623752832e-07
-7.31567336175e-08
2.00452042223e-07
-1.24513248451e-07
1.8389587737e-07
-1.64593297468e-07
1.45456038728e-07
-1.80800286204e-07
8.98189696537e-08
-1.81550728685e-07
3.69408361576e-08
-1.76604265537e-07
-4.64665867458e-09
-1.59319525002e-07
-4.38598820494e-08
-1.24848823097e-07
-8.21212517401e-08
-8.95486749612e-08
-1.1149709801e-07
-4.79299839075e-08
-1.75615756061e-07
-2.07541166613e-07
3.63006700924e-09
-2.71765738483e-07
5.21033239784e-08
-2.48707384098e-07
1.42703846882e-07
-4.4366755742e-07
1.895626614e-07
-3.8882090158e-07
1.58877825211e-07
-2.07176284736e-07
1.98019030488e-07
-1.44003944319e-07
3.19670042984e-07
-2.8393685077e-07
4.19505813621e-07
-3.72558529437e-07
4.94308741528e-07
-3.38515653394e-07
5.66044146416e-07
-3.02909411874e-07
6.33029361728e-07
-2.80144058495e-07
6.51869874545e-07
-2.08519941864e-07
6.09993151413e-07
-1.1152375803e-07
5.75973540212e-07
-5.69598471497e-08
5.96862274922e-07
-5.65986296168e-08
6.61679817021e-07
-8.97278042473e-08
7.6606120982e-07
-1.5418055922e-07
8.7354250749e-07
-2.24125210447e-07
9.29258703002e-07
-2.54219703051e-07
9.56990989698e-07
-2.68982763502e-07
1.00691872194e-06
-2.93792836872e-07
1.06501143821e-06
-2.99582225443e-07
1.11814064264e-06
-2.85099990218e-07
1.16441617465e-06
-2.64520419847e-07
1.20672427021e-06
-2.46023708042e-07
1.24937945757e-06
-2.30726530515e-07
1.2836338843e-06
-2.09163344835e-07
1.32055109657e-06
-1.95417075157e-07
1.34747319712e-06
-1.71582226037e-07
1.37583982369e-06
-1.55762584858e-07
1.38611661722e-06
-1.27423509893e-07
1.4082465723e-06
-1.16946406353e-07
1.46213592751e-06
-1.25540740994e-07
1.48109047533e-06
-1.18070738908e-07
1.53236191784e-06
-1.66936846894e-07
1.62513211805e-06
-2.38741489122e-07
1.6955688615e-06
-2.66443433326e-07
1.74953119239e-06
-2.65478255248e-07
1.78963151057e-06
-2.51335095582e-07
1.82452980719e-06
-2.27159173179e-07
1.86620558785e-06
-1.91966308506e-07
1.91101486383e-06
-1.56648027581e-07
1.94798167713e-06
-1.31828775572e-07
1.97500045608e-06
-1.13745730328e-07
1.99431128021e-06
-9.51640167732e-08
2.00733508564e-06
-7.25654450225e-08
2.01472958206e-06
-4.46180130267e-08
2.01609778416e-06
-1.09278932241e-08
2.01050676941e-06
2.91361912678e-08
1.99666063177e-06
7.59974007092e-08
1.97128871372e-06
1.28936549947e-07
1.92951240041e-06
1.87376383717e-07
1.87044378839e-06
2.51991130619e-07
1.80140901351e-06
3.21506368073e-07
1.71866463629e-06
3.89885789104e-07
1.61398451094e-06
4.62482770613e-07
1.48536971594e-06
5.47805553869e-07
1.33087817823e-06
6.40053505802e-07
1.15465707342e-06
7.27304426146e-07
9.70515813118e-07
7.99296263049e-07
7.93294625763e-07
8.51914065113e-07
6.43038065504e-07
8.80444619408e-07
5.47146258675e-07
8.62441294607e-07
3.72818695925e-07
8.48902332334e-07
2.45036448915e-07
5.88339092889e-07
1.49344786648e-07
3.98437976385e-07
6.9837072959e-08
3.19173604864e-07
3.95301532224e-09
2.82205819931e-07
-5.30882843481e-08
2.63396048611e-07
-1.10276215604e-07
2.57783051532e-07
-1.6303722602e-07
2.368298467e-07
-1.89153919254e-07
1.71752448642e-07
-1.96069684804e-07
9.69070736806e-08
-1.99609095461e-07
4.06694604386e-08
-1.93039770023e-07
-1.10136169053e-08
-1.67901962746e-07
-6.8768895611e-08
-1.35567038704e-07
-1.14297291979e-07
-9.70593655541e-08
-1.49889152345e-07
-4.67533436164e-08
-2.25618006449e-07
-2.54268778841e-07
5.37521114069e-10
-2.72114193176e-07
7.1710326373e-08
-3.19870185744e-07
1.14933078676e-07
-4.86929114555e-07
1.32232887922e-07
-4.06115835658e-07
1.19659631243e-07
-1.94562099531e-07
2.30147043266e-07
-2.54367848633e-07
3.58441531737e-07
-4.12073071953e-07
4.12378772668e-07
-4.26323131743e-07
4.68590120391e-07
-3.94674562416e-07
5.17406886232e-07
-3.51723034379e-07
5.27176695488e-07
-2.89952760447e-07
4.76330739868e-07
-1.57722985207e-07
4.64178925372e-07
-9.93495508843e-08
5.05454671996e-07
-9.8141932911e-08
5.81855614213e-07
-1.32851331197e-07
7.00675366747e-07
-2.0835607561e-07
8.18205721065e-07
-2.71522584105e-07
8.67290363614e-07
-2.73061491177e-07
8.89243626524e-07
-2.76032398869e-07
9.4658197446e-07
-3.26176874614e-07
1.00747392283e-06
-3.54543642611e-07
1.05623810106e-06
-3.48217387854e-07
1.10268596223e-06
-3.31431489775e-07
1.15056937098e-06
-3.12291311896e-07
1.19425285752e-06
-2.89621581616e-07
1.21752932748e-06
-2.53907695918e-07
1.2547493858e-06
-2.46312680589e-07
1.28115495744e-06
-2.2176074214e-07
1.30999665519e-06
-2.00363968227e-07
1.31239484635e-06
-1.58119201596e-07
1.32528005201e-06
-1.40265749095e-07
1.35434725478e-06
-1.45934522339e-07
1.38051321254e-06
-1.51584379015e-07
1.47424629895e-06
-2.116420131e-07
1.58044973709e-06
-2.72954950444e-07
1.65434934313e-06
-3.12476677811e-07
1.70692217454e-06
-3.1887567666e-07
1.75017792023e-06
-3.08607414419e-07
1.78925373898e-06
-2.90288312736e-07
1.82776831152e-06
-2.65541167162e-07
1.86941758278e-06
-2.33470607509e-07
1.9121929681e-06
-1.99269824908e-07
1.94989997515e-06
-1.69382976341e-07
1.97982701721e-06
-1.43522233834e-07
2.00256508365e-06
-1.17755975312e-07
2.01906347812e-06
-8.8919438104e-08
2.02966072842e-06
-5.50743271519e-08
2.033651227e-06
-1.47790795166e-08
2.02958109526e-06
3.3341353583e-08
2.01547753539e-06
9.02310039113e-08
1.98857393196e-06
1.55965697023e-07
1.94612211649e-06
2.2995144418e-07
1.88743242953e-06
3.10814201146e-07
1.81296800218e-06
3.96115503855e-07
1.71794518381e-06
4.85082842623e-07
1.59689757986e-06
5.83727735532e-07
1.44934798104e-06
6.95595147477e-07
1.27816333671e-06
8.1149287655e-07
1.0901238195e-06
9.15628157889e-07
9.00645297376e-07
9.89087100344e-07
7.31033032431e-07
1.02186339969e-06
5.95449047776e-07
1.01634990448e-06
4.97427755902e-07
9.60800288792e-07
3.62641957419e-07
9.83980378248e-07
2.26965673454e-07
7.24218921876e-07
1.36096716031e-07
4.89442765415e-07
5.01363697986e-08
4.05245344809e-07
-2.72650591761e-08
3.59721788049e-07
-9.56560623324e-08
3.31904915211e-07
-1.57722731901e-07
3.1999065882e-07
-1.96426845544e-07
2.75689497615e-07
-2.09594432989e-07
1.85066976836e-07
-2.22148118191e-07
1.0961592934e-07
-2.29635595868e-07
4.8319778478e-08
-2.20961851932e-07
-1.94804726842e-08
-1.9372290706e-07
-9.58450181376e-08
-1.56213253709e-07
-1.51640045043e-07
-1.1229796131e-07
-1.93607924026e-07
-5.8620694253e-08
-2.79256714906e-07
-3.12719057066e-07
2.49265553541e-08
-2.97093112284e-07
1.15388531937e-07
-4.10311504133e-07
1.50644152423e-07
-5.22290237317e-07
1.15355242632e-07
-3.70841336069e-07
1.4845921497e-07
-2.27579312482e-07
2.85956311675e-07
-3.91711813748e-07
3.57198070972e-07
-4.83139614254e-07
3.98393579971e-07
-4.67477933319e-07
4.26579113631e-07
-4.22799694378e-07
4.72691788134e-07
-3.97916116806e-07
4.43757210961e-07
-2.61071298349e-07
4.17923143157e-07
-1.31884603678e-07
4.54179320814e-07
-1.35527009022e-07
5.11785245896e-07
-1.55590209544e-07
6.18571676134e-07
-2.39442274874e-07
7.41437819382e-07
-3.31049543585e-07
7.88668227258e-07
-3.18614782597e-07
8.04760489314e-07
-2.89019168435e-07
8.70717686035e-07
-3.41843628683e-07
9.42312604537e-07
-3.97630840727e-07
9.95537258191e-07
-4.07642521807e-07
1.04318128093e-06
-3.95745015885e-07
1.08978197772e-06
-3.77912820632e-07
1.125621218e-06
-3.48044765103e-07
1.15028780851e-06
-3.14208013727e-07
1.17887413035e-06
-2.82416594516e-07
1.19788739029e-06
-2.65251871486e-07
1.22841704032e-06
-2.52219182565e-07
1.24085713327e-06
-2.12757638012e-07
1.24334581371e-06
-1.60558634519e-07
1.28015898572e-06
-1.76994164029e-07
1.32703337288e-06
-1.92707476787e-07
1.40066594291e-06
-2.25064194829e-07
1.49527923807e-06
-3.06072610394e-07
1.59793136203e-06
-3.75439246153e-07
1.66097386418e-06
-3.75376214484e-07
1.70610113336e-06
-3.63877516908e-07
1.7474898621e-06
-3.49878615023e-07
1.78866579768e-06
-3.31343276357e-07
1.83001282181e-06
-3.06757008802e-07
1.87252015574e-06
-2.75835272615e-07
1.91497587844e-06
-2.41575842621e-07
1.95369509643e-06
-2.07949960037e-07
1.9863240703e-06
-1.76000804036e-07
2.01263052053e-06
-1.43914393288e-07
2.03298319021e-06
-1.09127982513e-07
2.04721979081e-06
-6.91693971393e-08
2.05423818803e-06
-2.16600877883e-08
2.05226260133e-06
3.54499969497e-08
2.03913585454e-06
1.03487555989e-07
2.01238422952e-06
1.82837781301e-07
1.96961634428e-06
2.72842065767e-07
1.90877508677e-06
3.71774234454e-07
1.82694981221e-06
4.78086541309e-07
1.71906364406e-06
5.93132879488e-07
1.58189649729e-06
7.21114209933e-07
1.4174231518e-06
8.60293980966e-07
1.23181967611e-06
9.97363303307e-07
1.03618386167e-06
1.11155398454e-06
8.50340207796e-07
1.17525963154e-06
7.08241071239e-07
1.16430706476e-06
6.14972667722e-07
1.10997453872e-06
4.98925632832e-07
1.07715945155e-06
4.0698078575e-07
1.07622075084e-06
2.20984627819e-07
9.10407036875e-07
1.11950676834e-07
5.98608060611e-07
1.91605245235e-08
4.98157112703e-07
-7.03881088387e-08
4.49373975369e-07
-1.47585783532e-07
4.092106635e-07
-2.00131370262e-07
3.72647253311e-07
-2.22126349933e-07
2.97794676203e-07
-2.4033718243e-07
2.03394148962e-07
-2.62132293602e-07
1.31531710698e-07
-2.71831272462e-07
5.81935219629e-08
-2.61137962388e-07
-3.00286890076e-08
-2.35804948245e-07
-1.20981533992e-07
-1.92076028286e-07
-1.9523178008e-07
-1.3606388376e-07
-2.49538314769e-07
-7.62523390947e-08
-3.38749097632e-07
-3.88972967058e-07
4.89684800943e-08
-3.45873525413e-07
1.33741490601e-07
-4.95088112371e-07
1.40853777832e-07
-5.29349150857e-07
8.03886013107e-08
-3.10342900105e-07
1.73671244975e-07
-3.2076814592e-07
2.93427808996e-07
-5.11312596884e-07
3.37176319778e-07
-5.26823282544e-07
3.8185379888e-07
-5.1208927962e-07
3.71914872099e-07
-4.12960717041e-07
3.7975578037e-07
-4.0576226453e-07
3.45606257965e-07
-2.26941487502e-07
3.97918276336e-07
-1.84130306216e-07
4.46665399171e-07
-1.84142835233e-07
5.32196506928e-07
-2.40960106772e-07
6.50090637531e-07
-3.57148983574e-07
7.08761978665e-07
-3.89567899338e-07
7.2095708137e-07
-3.30697366484e-07
7.85292495244e-07
-3.53225247824e-07
8.66927995809e-07
-4.23333832443e-07
9.24726199013e-07
-4.55296744798e-07
9.71688025061e-07
-4.54484629996e-07
1.01718157349e-06
-4.41113784684e-07
1.06805398588e-06
-4.28699771008e-07
1.11445106542e-06
-3.94367021642e-07
1.12870328287e-06
-3.28378031106e-07
1.16323097744e-06
-3.16882908782e-07
1.1800487389e-06
-2.81999749667e-07
1.17733466718e-06
-2.4944255337e-07
1.18630522093e-06
-2.21659074998e-07
1.26482000695e-06
-2.38993379615e-07
1.3099997658e-06
-2.22082605695e-07
1.32997702812e-06
-2.12536380517e-07
1.42430946766e-06
-3.19227329585e-07
1.54098660255e-06
-4.22574404134e-07
1.60406570768e-06
-4.38367536926e-07
1.65442702682e-06
-4.25609377589e-07
1.69992642992e-06
-4.09261056096e-07
1.74364107325e-06
-3.93481332036e-07
1.78744766308e-06
-3.75033075271e-07
1.83141030766e-06
-3.50592416123e-07
1.87537997335e-06
-3.19665325788e-07
1.91853648898e-06
-2.84584512814e-07
1.95882474596e-06
-2.48087250901e-07
1.99436556784e-06
-2.11391506476e-07
2.02448509712e-06
-1.73886884163e-07
2.04904771652e-06
-1.33547153534e-07
2.06741032495e-06
-8.73932746028e-08
2.07812225054e-06
-3.22370680607e-08
2.07924103056e-06
3.44642262937e-08
2.06854374191e-06
1.14311271953e-07
2.04346825101e-06
2.08044585847e-07
2.00100677077e-06
3.15417688521e-07
1.93741350568e-06
4.3549927625e-07
1.84774668141e-06
5.67879979392e-07
1.72727357333e-06
7.13802888357e-07
1.57530059218e-06
8.73279780728e-07
1.39672371447e-06
1.0391292875e-06
1.19885595932e-06
1.19548920939e-06
9.91090193279e-07
1.31963911408e-06
8.03454409717e-07
1.36324006642e-06
6.79258340342e-07
1.2888852524e-06
5.96674631533e-07
1.19289603776e-06
5.25353025818e-07
1.14882049706e-06
4.73205939664e-07
1.1286484046e-06
3.01546636172e-07
1.08232810327e-06
9.87672841644e-08
8.01557289626e-07
-2.17073390809e-08
6.18754329606e-07
-1.19017518809e-07
5.46824259985e-07
-1.92783880928e-07
4.83103517362e-07
-2.32136444827e-07
4.12118925745e-07
-2.53795505198e-07
3.19564538941e-07
-2.84378190188e-07
2.34079111031e-07
-3.13169546028e-07
1.60475516585e-07
-3.26366932501e-07
7.15150554833e-08
-3.19167334551e-07
-3.70087314493e-08
-2.95320885445e-07
-1.44694274796e-07
-2.47818911635e-07
-2.42559726045e-07
-1.72772334465e-07
-3.2434466087e-07
-9.44216746293e-08
-4.17105366046e-07
-4.83175593547e-07
6.71987422438e-08
-4.13111524917e-07
1.32171362615e-07
-5.60049513446e-07
1.07746362492e-07
-5.04978251604e-07
1.07493602385e-07
-3.10041202235e-07
2.22971608061e-07
-4.36153086824e-07
2.71195973341e-07
-5.59449267156e-07
3.11035966404e-07
-5.66650166589e-07
3.49262902192e-07
-5.50351681105e-07
3.49253754602e-07
-4.12948801148e-07
3.53784460499e-07
-4.10344340593e-07
3.5552436355e-07
-2.28630579164e-07
3.9898129895e-07
-2.27501421838e-07
4.56455842496e-07
-2.41457188776e-07
5.59920517376e-07
-3.44222649775e-07
6.63205713066e-07
-4.60303216202e-07
6.83725950136e-07
-4.09989999315e-07
7.1004167211e-07
-3.56897119158e-07
7.79747444209e-07
-4.22786890163e-07
8.49472327662e-07
-4.92917511406e-07
9.02703818479e-07
-5.08394648303e-07
9.47292993045e-07
-4.98932354048e-07
9.82320095955e-07
-4.76053432944e-07
1.01318452675e-06
-4.59501364478e-07
1.04385192652e-06
-4.24973129305e-07
1.06710949522e-06
-3.51593293044e-07
1.09174015346e-06
-3.41444092189e-07
1.13131749945e-06
-3.21506861536e-07
1.17736502051e-06
-2.95419727954e-07
1.22187679405e-06
-2.66109543685e-07
1.25215745735e-06
-2.69185906239e-07
1.30034931095e-06
-2.70131379726e-07
1.40696659997e-06
-3.18973979437e-07
1.49117919024e-06
-4.0324699334e-07
1.5486642332e-06
-4.79891731392e-07
1.59809352538e-06
-4.87664646052e-07
1.6457089501e-06
-4.73110595282e-07
1.69277657074e-06
-4.56220900432e-07
1.73890830982e-06
-4.39503972717e-07
1.78494504984e-06
-4.20954431383e-07
1.83128463837e-06
-3.96806027888e-07
1.877413463e-06
-3.6565845881e-07
1.92233320796e-06
-3.2936077413e-07
1.96480589263e-06
-2.90413036324e-07
2.00363193294e-06
-2.50070315758e-07
2.03794321173e-06
-2.08053032616e-07
2.06708083045e-06
-1.62543698175e-07
2.09009576067e-06
-1.10268883842e-07
2.10542114508e-06
-4.74253304276e-08
2.11103617817e-06
2.89849836844e-08
2.1046110192e-06
1.20880618308e-07
2.0832000632e-06
2.29571435089e-07
2.04276591351e-06
3.55981904152e-07
1.97763628287e-06
5.00719551954e-07
1.88126906381e-06
6.64423305825e-07
1.74911262072e-06
8.46103830202e-07
1.58278547477e-06
1.03984797054e-06
1.38858167966e-06
1.23354116506e-06
1.17248462762e-06
1.41188612726e-06
9.43530815808e-07
1.54891052764e-06
7.57219718967e-07
1.54995802393e-06
6.62138680478e-07
1.38432762081e-06
6.00827412732e-07
1.25456380564e-06
5.39652389445e-07
1.21030548806e-06
4.75377162799e-07
1.19323768974e-06
3.9174946254e-07
1.16621987452e-06
1.57110659243e-07
1.03641493189e-06
-7.18299187866e-08
8.47929751934e-07
-1.74679901897e-07
6.49840255219e-07
-2.3727851873e-07
5.45875239261e-07
-2.68476688804e-07
4.43462531374e-07
-2.97560763681e-07
3.48763180566e-07
-3.37716999589e-07
2.74384614902e-07
-3.72699675351e-07
1.95577501389e-07
-3.91706910673e-07
9.07720220594e-08
-3.92963608261e-07
-3.56215005874e-08
-3.71425268744e-07
-1.65988751232e-07
-3.19597911979e-07
-2.9419481062e-07
-2.26521164381e-07
-4.17337835694e-07
-1.16665035885e-07
-5.26542045612e-07
-5.99840202793e-07
8.20535448412e-08
-4.9493980939e-07
1.38317222881e-07
-6.16216905212e-07
9.68217436939e-08
-4.63431949348e-07
1.34394811311e-07
-3.47587845499e-07
2.36418097766e-07
-5.38129951844e-07
2.43340002736e-07
-5.6639898227e-07
2.78971591125e-07
-6.02236995545e-07
2.82720904993e-07
-5.54156767577e-07
3.12809026541e-07
-4.43034904861e-07
2.9485914691e-07
-3.9236030532e-07
3.38303566121e-07
-2.72021008073e-07
3.93559464102e-07
-2.82609199083e-07
4.58862152102e-07
-3.06619970066e-07
5.56265385084e-07
-4.4148424996e-07
6.10777441746e-07
-5.14677902301e-07
6.13715792066e-07
-4.12841725818e-07
6.7674210093e-07
-4.19807321328e-07
7.55415083164e-07
-5.0131870874e-07
8.19512182722e-07
-5.56872617732e-07
8.75848996152e-07
-5.64590339071e-07
9.24979851521e-07
-5.47980813874e-07
9.6910588684e-07
-5.20097008562e-07
9.89557165739e-07
-4.79884886823e-07
1.00538820602e-06
-4.4076417587e-07
1.05275980211e-06
-3.98905477353e-07
1.06811400395e-06
-3.56726960209e-07
1.06846747787e-06
-3.21814293751e-07
1.07988330794e-06
-3.06780954335e-07
1.14242164464e-06
-3.28558009066e-07
1.22241412973e-06
-3.49063346061e-07
1.30084322137e-06
-3.4839965303e-07
1.37718999336e-06
-3.95120518283e-07
1.48274349728e-06
-5.08595249517e-07
1.5424546681e-06
-5.39453087386e-07
1.58888717039e-06
-5.33977201263e-07
1.63661777288e-06
-5.20732175848e-07
1.6853458856e-06
-5.04842677235e-07
1.73354308617e-06
-4.87594084976e-07
1.78140717549e-06
-4.68705523982e-07
1.82972402701e-06
-4.45002362295e-07
1.87816373411e-06
-4.1396792226e-07
1.92559521802e-06
-3.76654887484e-07
1.9709652129e-06
-3.35641175534e-07
2.01347986062e-06
-2.9244260524e-07
2.05239473758e-06
-2.46827285728e-07
2.0867292699e-06
-1.96738802202e-07
2.11514270005e-06
-1.38547161634e-07
2.13610734687e-06
-6.82522763041e-08
2.1478812784e-06
1.73585676465e-08
2.14812718635e-06
1.20763110739e-07
2.13343993543e-06
2.44416560447e-07
2.09840311649e-06
3.91097870642e-07
2.03512155607e-06
5.64180127501e-07
1.93442357578e-06
7.65227374405e-07
1.79099375331e-06
9.89761739871e-07
1.60751314757e-06
1.22349414976e-06
1.38912364144e-06
1.45220043578e-06
1.1360207691e-06
1.66528083538e-06
8.80871422167e-07
1.80447480367e-06
7.35144877962e-07
1.69612233155e-06
6.8695386263e-07
1.43291869409e-06
6.30964300151e-07
1.31085937099e-06
5.51359983658e-07
1.29019343552e-06
4.61930901867e-07
1.28296015697e-06
3.80799824796e-07
1.24765130532e-06
2.23065767029e-07
1.19447439576e-06
-2.9492600227e-08
1.10070846524e-06
-2.2344562815e-07
8.44039153882e-07
-2.80119760686e-07
6.02720305473e-07
-3.11067350092e-07
4.74516838846e-07
-3.47097649555e-07
3.84915958167e-07
-3.92762503571e-07
3.20115332401e-07
-4.36655468379e-07
2.39642944882e-07
-4.68333442699e-07
1.22508799054e-07
-4.81813016792e-07
-2.18847934809e-08
-4.63315562464e-07
-1.84348676039e-07
-4.04449681325e-07
-3.52891089903e-07
-2.95963330842e-07
-5.25512942212e-07
-1.52803278217e-07
-6.69756542315e-07
-7.52502805213e-07