/*--------------------------------*- C++ -*----------------------------------*\
| =========                 |                                                 |
| \\      /  F ield         | OpenFOAM: The Open Source CFD Toolbox           |
|  \\    /   O peration     | Version:  v1806                                 |
|   \\  /    A nd           | Web:      www.OpenFOAM.com                      |
|    \\/     M anipulation  |                                                 |
\*---------------------------------------------------------------------------*/
FoamFile
{
    version     2.0;
    format      ascii;
    class       volScalarField;
    location    "684";
    object      pa;
}
// * * * * * * * * * * * * * * * * * * * * * * * * * * * * * * * * * * * * * //

dimensions      [0 2 -2 0 0 0 0];


internalField   nonuniform List<scalar> 
6400
(
-0.123106234138
-0.123106999153
-0.123109157882
-0.123113398242
-0.123119755371
-0.123128273858
-0.12313902603
-0.12315243294
-0.123168946066
-0.123189170939
-0.123214978807
-0.123247571134
-0.123286555993
-0.123332295577
-0.123385839455
-0.123448546217
-0.123521581822
-0.123605524629
-0.123700288561
-0.123804610463
-0.123917068047
-0.124038775726
-0.124173160082
-0.124323997412
-0.124494102034
-0.124684298239
-0.124893977782
-0.125122847281
-0.125371613952
-0.125641522407
-0.12593377259
-0.126248360279
-0.126583023095
-0.126935282912
-0.127304347951
-0.127689222226
-0.128090654203
-0.128512792904
-0.12895521963
-0.129412507114
-0.129885566356
-0.130383260796
-0.130910516036
-0.131462161841
-0.132030506006
-0.132609916646
-0.13319590999
-0.13378484836
-0.134373236996
-0.134957899755
-0.135536074147
-0.136102695305
-0.136649053495
-0.137163989936
-0.137644461825
-0.13809358914
-0.138505782254
-0.138868831374
-0.139176804762
-0.139434707033
-0.139646726102
-0.139813734084
-0.139933394729
-0.140029163801
-0.140138956081
-0.140300879725
-0.140509820925
-0.140719785855
-0.14089575466
-0.141035113702
-0.141147164033
-0.141242320894
-0.141327223642
-0.141400028342
-0.141462829715
-0.141515796272
-0.14155849756
-0.141585888031
-0.141603114139
-0.141610312423
-0.123105179269
-0.123105992508
-0.123107940709
-0.123112056514
-0.12311874515
-0.123127575376
-0.123138349329
-0.123151194642
-0.123167068363
-0.12318710047
-0.12321263116
-0.123244710296
-0.123283496735
-0.123329181499
-0.123382394472
-0.12344426392
-0.123516678521
-0.123600426947
-0.123695172484
-0.123799252744
-0.123910588546
-0.12403113018
-0.124164905473
-0.124315283408
-0.124485043996
-0.124675009846
-0.124884258239
-0.125112792594
-0.125361373099
-0.125630997827
-0.125922643652
-0.126236822986
-0.126571391422
-0.126923101709
-0.127291745877
-0.127676369405
-0.12807735937
-0.128499514866
-0.128942467347
-0.129400133635
-0.129872505389
-0.13037017012
-0.130899405767
-0.131452644613
-0.132021805807
-0.132602215982
-0.133189342027
-0.133779719143
-0.134369516714
-0.134954455356
-0.13553164656
-0.136099026871
-0.136649769511
-0.137167074197
-0.137649358666
-0.138101475055
-0.138512487656
-0.138872882521
-0.139181258882
-0.13943914806
-0.139648603054
-0.13981607005
-0.139939353288
-0.140039564207
-0.140153366227
-0.140316214648
-0.140528014823
-0.140737472066
-0.140911692443
-0.141050115236
-0.141161461375
-0.141256430008
-0.141341738782
-0.141415227936
-0.141476701042
-0.141527312866
-0.141566374607
-0.141592479754
-0.141608968549
-0.141614432146
-0.123102170614
-0.123103472474
-0.123105190653
-0.123108906047
-0.123115270446
-0.123124932272
-0.123136322525
-0.123148500517
-0.123163340216
-0.12318261123
-0.123207512258
-0.123238925101
-0.123277160742
-0.123322343482
-0.123374773554
-0.12343467863
-0.123505204005
-0.12358934821
-0.123684104774
-0.123786940635
-0.123896188707
-0.124014017032
-0.124146424195
-0.124296660051
-0.12446564304
-0.124654316071
-0.124862789259
-0.125090789335
-0.125338719591
-0.125607553879
-0.125898202704
-0.126211507319
-0.126545856962
-0.126896102512
-0.127262832073
-0.127647540675
-0.128047906351
-0.12846882939
-0.128911996143
-0.129371317579
-0.129847296495
-0.13034754004
-0.130876287402
-0.131429065242
-0.131998979336
-0.132580768961
-0.133170029455
-0.133762880785
-0.134355437629
-0.134943833553
-0.135524684414
-0.136093747087
-0.136643144695
-0.137163883359
-0.137653640569
-0.138108192146
-0.13851800632
-0.138877735699
-0.139186192749
-0.139444412303
-0.139655538283
-0.13982285248
-0.139950462551
-0.140061209715
-0.140189136014
-0.140360479583
-0.140564984628
-0.140767351443
-0.140941789928
-0.141081643217
-0.141194264958
-0.141289322943
-0.141371054144
-0.141439890309
-0.14149853031
-0.14154621298
-0.141581376246
-0.141605037597
-0.141619654275
-0.141624818684
-0.123097883948
-0.123099176914
-0.123100574327
-0.12310390178
-0.12310933812
-0.123118632847
-0.123132445114
-0.123144394063
-0.123157836564
-0.123175885614
-0.12319980377
-0.123230376163
-0.123267859159
-0.123311927562
-0.123362897537
-0.123422481493
-0.123492616526
-0.123574442114
-0.123665383423
-0.12376335315
-0.123869975372
-0.123987787213
-0.124119630706
-0.124268483834
-0.124436157442
-0.124623551837
-0.124830855478
-0.125057820977
-0.125304714531
-0.125572306543
-0.125861808164
-0.126173847525
-0.126506899743
-0.126856883812
-0.127220648163
-0.12760225362
-0.128003582149
-0.128423963311
-0.128865314554
-0.129326452088
-0.129807044893
-0.130311001729
-0.130841075672
-0.131394541785
-0.131965907569
-0.13254998115
-0.133142230005
-0.133738566059
-0.134335028695
-0.134927695574
-0.135512605601
-0.136084810959
-0.136637432774
-0.137163456733
-0.137657995424
-0.138114577156
-0.138525209207
-0.13888537354
-0.139194233959
-0.139453231795
-0.139665825446
-0.139837273302
-0.13997806983
-0.140108227133
-0.1402481044
-0.140415923861
-0.140617885812
-0.140819411682
-0.140994180754
-0.141134466255
-0.141244702545
-0.14133333495
-0.141408075743
-0.141475195005
-0.141533198723
-0.141576595902
-0.141606026788
-0.141627835426
-0.141642710782
-0.141648792478
-0.123091187137
-0.123091397904
-0.123093036764
-0.12309627893
-0.12310201226
-0.123110070933
-0.123122221993
-0.123135065979
-0.123148867521
-0.123166390451
-0.123189198931
-0.123218776518
-0.123255259789
-0.12329905468
-0.123350164833
-0.123408046474
-0.123474528604
-0.123550808842
-0.123636670273
-0.123731886782
-0.12383700095
-0.123953398433
-0.124083808156
-0.124231068623
-0.12439694248
-0.124582537378
-0.124788060214
-0.125013493019
-0.125258963951
-0.125525076887
-0.125812754635
-0.126123617316
-0.126456221342
-0.126802573391
-0.127163568638
-0.127542629839
-0.127941349566
-0.128361788916
-0.128804232722
-0.129267802831
-0.129752452913
-0.130260274366
-0.130792790788
-0.131348118188
-0.131921862802
-0.132509135821
-0.133105333583
-0.133706208302
-0.134307697911
-0.134905741214
-0.13549598961
-0.136073221315
-0.13663108774
-0.13716300393
-0.137662544163
-0.138122155689
-0.138534653995
-0.138896273516
-0.139206718771
-0.13946829743
-0.139685944565
-0.139867764683
-0.140027110629
-0.140176878224
-0.140325524089
-0.140494930395
-0.14069399647
-0.140893415243
-0.141067506115
-0.141205536283
-0.141309042789
-0.141389803321
-0.141463046999
-0.141531497959
-0.141585459565
-0.14162269947
-0.141648951755
-0.14167203554
-0.141685583499
-0.141689830979
-0.123079170734
-0.12307903735
-0.123081637766
-0.123084763922
-0.12309060915
-0.123098449178
-0.123109548307
-0.123122036536
-0.123136293262
-0.123153553004
-0.123174938065
-0.123203236469
-0.123239877253
-0.123283670161
-0.123332540192
-0.123387049919
-0.12344909991
-0.123520718765
-0.123602557441
-0.123694484605
-0.123796581234
-0.123910589742
-0.124039016924
-0.124184288069
-0.124347983651
-0.124530980378
-0.124734200006
-0.124957544366
-0.125201211442
-0.125465528065
-0.125751393398
-0.126059795713
-0.126388915231
-0.126734499927
-0.127091282506
-0.127465894719
-0.127863195922
-0.12828415768
-0.128728210569
-0.129194547831
-0.129683125382
-0.130195043656
-0.130730974859
-0.131289362991
-0.131866560202
-0.132458036222
-0.133059205274
-0.133665714408
-0.134273401491
-0.134878065653
-0.135475117762
-0.136059191763
-0.136624028847
-0.137162761683
-0.137667946752
-0.138131689146
-0.138547560932
-0.138912616179
-0.13922738071
-0.139495387373
-0.139723159419
-0.139920488919
-0.140101297321
-0.140266406139
-0.140424691507
-0.140602074399
-0.140803801195
-0.14099945457
-0.141167687971
-0.141297009676
-0.14139094601
-0.141469033155
-0.1415453285
-0.141610432632
-0.141657378538
-0.141689002394
-0.141714692859
-0.14173534462
-0.141745338076
-0.141749213464
-0.123061151887
-0.123062271569
-0.123066391363
-0.123070781471
-0.123075030802
-0.1230825645
-0.123093665607
-0.123105848156
-0.123120028762
-0.123136863708
-0.123158085874
-0.123184882386
-0.123220682223
-0.123262031348
-0.123307663825
-0.123358303595
-0.123416572348
-0.123484668923
-0.12356279927
-0.123650255852
-0.123748519261
-0.123859684294
-0.123985422949
-0.124127859285
-0.124288728927
-0.124469302207
-0.124668759518
-0.124889341906
-0.125130941627
-0.125393928955
-0.12567702186
-0.125981478814
-0.126307115936
-0.126647110486
-0.127000967652
-0.127373159888
-0.127769524617
-0.128191063142
-0.128636861087
-0.12910606585
-0.129598569341
-0.130114884732
-0.130655090485
-0.131217696061
-0.131799504245
-0.132396298032
-0.133003567064
-0.13361691518
-0.134232107561
-0.134844829061
-0.135450313827
-0.136043009888
-0.136616429125
-0.137163191548
-0.137675266269
-0.138144912783
-0.138566615168
-0.13893841675
-0.13926181167
-0.139541251966
-0.139784295023
-0.140001265722
-0.140200494333
-0.140382046256
-0.140559800981
-0.140748051928
-0.140951430119
-0.141138780933
-0.141293878013
-0.141410936587
-0.141499916559
-0.14158111024
-0.141656186896
-0.141713185482
-0.141752277748
-0.141779243676
-0.141802604456
-0.141816496248
-0.141820320231
-0.141822425653
-0.123040235953
-0.123042519156
-0.123046983369
-0.123052906987
-0.123056847321
-0.123064511129
-0.123074519279
-0.12308635086
-0.123100456631
-0.123115305984
-0.123136675618
-0.123163491837
-0.123196506805
-0.123234460533
-0.123276418571
-0.123322972523
-0.123378025424
-0.123442794266
-0.123516265605
-0.123598903894
-0.123692897317
-0.123800396377
-0.123922734933
-0.124062158749
-0.124219884551
-0.124396574092
-0.124593130102
-0.124808007496
-0.125047772509
-0.125309578336
-0.125589359738
-0.125886861127
-0.12620718117
-0.126542554183
-0.126892580444
-0.127263931934
-0.127660084717
-0.128082104046
-0.12852953546
-0.129001634112
-0.129498162479
-0.130019239989
-0.130564529371
-0.131132472758
-0.131720105342
-0.132323445045
-0.132938087092
-0.133559645992
-0.134183845474
-0.134806273575
-0.135421990612
-0.136025185877
-0.136608966928
-0.13716545995
-0.137686441548
-0.138164752319
-0.138595968125
-0.138978939986
-0.139315476824
-0.139610202484
-0.139870927129
-0.140107136249
-0.140326111773
-0.140533642642
-0.140732539658
-0.140935655599
-0.141136001786
-0.141312580529
-0.141453397532
-0.141560405054
-0.141647798974
-0.141728558602
-0.141795254357
-0.141842326487
-0.141873017116
-0.14189434093
-0.141907857271
-0.141911192323
-0.141905561008
-0.141902311858
-0.123017643489
-0.123020490701
-0.123024613195
-0.123028764507
-0.123033684628
-0.123042664546
-0.123051739616
-0.123062792799
-0.12307722567
-0.123091577839
-0.123109578149
-0.123135816816
-0.123166848415
-0.123200888022
-0.123239202866
-0.123282962582
-0.12333389156
-0.123394018797
-0.123462582876
-0.123540541162
-0.123629913678
-0.123732735649
-0.12385028523
-0.123985397615
-0.124140973997
-0.124312369562
-0.124504921223
-0.124717580407
-0.124951401408
-0.125208479531
-0.125485062209
-0.125780257379
-0.126090112962
-0.126418918702
-0.126767179535
-0.127138016147
-0.127534038119
-0.127956486491
-0.128405435059
-0.128880421498
-0.129381136508
-0.129907398596
-0.130458559194
-0.131032943117
-0.131627670668
-0.132238912119
-0.132862381441
-0.133493744777
-0.134128705281
-0.134762753548
-0.135390768573
-0.136006618638
-0.136602982281
-0.13717163348
-0.137704531563
-0.138195380808
-0.138640741328
-0.139039177532
-0.139391759061
-0.139703426528
-0.139983210592
-0.140240876713
-0.140484016733
-0.140718083313
-0.140942133532
-0.141164203447
-0.141372101155
-0.14153297909
-0.141658686568
-0.141756275304
-0.141838817903
-0.141909434917
-0.141964002569
-0.142000811335
-0.142022207063
-0.142032013548
-0.142028178084
-0.14201475953
-0.141996881024
-0.141985495501
-0.122993219729
-0.122996297714
-0.123000694557
-0.123003769095
-0.123008729557
-0.123016854838
-0.123025106724
-0.123034801094
-0.12304728924
-0.12306349295
-0.123079438681
-0.123102847598
-0.123131280459
-0.123161920505
-0.123195971561
-0.123236829892
-0.123284309802
-0.123338974362
-0.123401776408
-0.123474614711
-0.123559309696
-0.123657303406
-0.123769492527
-0.123897841045
-0.124049581256
-0.12421858325
-0.124401875463
-0.12461103038
-0.12483965808
-0.125092834591
-0.125364534821
-0.125653242606
-0.125957411805
-0.126279398161
-0.12662464953
-0.126994625029
-0.127390445402
-0.127813272022
-0.128263632541
-0.128741466895
-0.129246539557
-0.129778454485
-0.130336288636
-0.130918221109
-0.1315213825
-0.132142037583
-0.132776011909
-0.133419048151
-0.134066840656
-0.134714785766
-0.135357565464
-0.13598875169
-0.136600641743
-0.137184873717
-0.137733834803
-0.138242070058
-0.138706440133
-0.139122778037
-0.139491333213
-0.139821338681
-0.140125584355
-0.140410952717
-0.140680435581
-0.140939814364
-0.141189614936
-0.141428197654
-0.141641294897
-0.14181414658
-0.141924127274
-0.142007146074
-0.14207333094
-0.142121745906
-0.142164292209
-0.142192785088
-0.142203682698
-0.142194495871
-0.14216602524
-0.142128019601
-0.14209298024
-0.142071521814
-0.122966095531
-0.122968782583
-0.122973014656
-0.122976255178
-0.122982273423
-0.122987999984
-0.12299489118
-0.123003273029
-0.123011785316
-0.123027358092
-0.123043073508
-0.123063769646
-0.123089227084
-0.12311729714
-0.123147797185
-0.123184158093
-0.123227416847
-0.123276855681
-0.123333757769
-0.123400520431
-0.12347968755
-0.123572961092
-0.123681335682
-0.123802380647
-0.12394426045
-0.124111240699
-0.124289908638
-0.124490862889
-0.124713394609
-0.124955501869
-0.125223639383
-0.125507226591
-0.12580543998
-0.126122576991
-0.126464676382
-0.126833062409
-0.127228303598
-0.127651385549
-0.128103069107
-0.128583684057
-0.129093247402
-0.129631287897
-0.130196622398
-0.130787247065
-0.13140026599
-0.132032022164
-0.132678452867
-0.133335373058
-0.133998472072
-0.134663058433
-0.135323679803
-0.135973669066
-0.136605106081
-0.1372096345
-0.137780028117
-0.138310910293
-0.138798525794
-0.139231617192
-0.139613638473
-0.139967279408
-0.140310606269
-0.140634840516
-0.140927860732
-0.141208327327
-0.141476666765
-0.141727489765
-0.141949743367
-0.14214298116
-0.14225734448
-0.142325467213
-0.142356393406
-0.14236130096
-0.142397747419
-0.142424323496
-0.142424661657
-0.14239066214
-0.142327597036
-0.142252394652
-0.142190085454
-0.14215273205
-0.122935715407
-0.122937445315
-0.122939782658
-0.1229440449
-0.122950954968
-0.1229551962
-0.122960785106
-0.122968282686
-0.122974046901
-0.122985733274
-0.123000308981
-0.12301840173
-0.123040382278
-0.123065793656
-0.123094423602
-0.123126044822
-0.12316376377
-0.123207482566
-0.123258384698
-0.12331844246
-0.123390296072
-0.123476774206
-0.12358226423
-0.123700395531
-0.123830726971
-0.123988640744
-0.124163649562
-0.124353759363
-0.124572144161
-0.124808165716
-0.12506440055
-0.125339446663
-0.125632267906
-0.125946737452
-0.126286019815
-0.126652234824
-0.127046414429
-0.127469548054
-0.127922505222
-0.128405852277
-0.128919964331
-0.129464547012
-0.130038226884
-0.130638739151
-0.131263138619
-0.131907882452
-0.132569034283
-0.133242461789
-0.133923826388
-0.134608417111
-0.135290756993
-0.135964161971
-0.136620695782
-0.137251957831
-0.137850308956
-0.138407900532
-0.138923574354
-0.139369666744
-0.139759131195
-0.140146559857
-0.140562230362
-0.14094348145
-0.141243982894
-0.14153804313
-0.141822412322
-0.142088633908
-0.14232026545
-0.142508819467
-0.142654212454
-0.142707991186
-0.142690455054
-0.142604889997
-0.142668456143
-0.14271177394
-0.142705128365
-0.142638154684
-0.142522467049
-0.142382512912
-0.142273977674
-0.142207619392
-0.122902284601
-0.122903106566
-0.122903083265
-0.122907401354
-0.122912875303
-0.122916992879
-0.12292169856
-0.122927904814
-0.122932614667
-0.122940838584
-0.122952352333
-0.122967082419
-0.122985046681
-0.123006186757
-0.123032292898
-0.123060359857
-0.123092820846
-0.123130584528
-0.123175244573
-0.123228447059
-0.123292143115
-0.123369277066
-0.123467317648
-0.123584773101
-0.123708444471
-0.123852230073
-0.12402206847
-0.124203814802
-0.124408490481
-0.124637932142
-0.124886583636
-0.125154041215
-0.125440136199
-0.125750589395
-0.12608688289
-0.126450673116
-0.126843361252
-0.127266176681
-0.127720321679
-0.128206516135
-0.128725288914
-0.12927670325
-0.129859482089
-0.130471118169
-0.131108543753
-0.131768374763
-0.132446860537
-0.133139875169
-0.13384302861
-0.134551680662
-0.13526065697
-0.135963665687
-0.13665307658
-0.13731985352
-0.137953045283
-0.138535970642
-0.139096961229
-0.139552320642
-0.139924482992
-0.14035709904
-0.140945762078
-0.141498630364
-0.141718766389
-0.142024255522
-0.142334860981
-0.142632139301
-0.142879394502
-0.143029896307
-0.143171185864
-0.14331351753
-0.143273178734
-0.142785521358
-0.142942399001
-0.143043482548
-0.143050053652
-0.142946058627
-0.14275140753
-0.14249910668
-0.142323550042
-0.142201797812
-0.122866450054
-0.122867105264
-0.122867422948
-0.122868694564
-0.12287131795
-0.12287461783
-0.122878250131
-0.122882188327
-0.122886628373
-0.122891585647
-0.122899408827
-0.122910248919
-0.122923898241
-0.12294014306
-0.122960658357
-0.12298505778
-0.123013196217
-0.12304541052
-0.123083644472
-0.123129746807
-0.123185327575
-0.123252511315
-0.123339407124
-0.123451670543
-0.123573199834
-0.123703671395
-0.123863272586
-0.124039722885
-0.124229993879
-0.124446845727
-0.124685582568
-0.124945079276
-0.125226848408
-0.125533125943
-0.125865758575
-0.126226626
-0.126617509287
-0.127039707592
-0.127494662444
-0.127983678535
-0.128507425484
-0.129066064776
-0.129658581109
-0.130282482031
-0.130934642073
-0.131611887246
-0.132310692539
-0.133026867165
-0.133755847493
-0.134493309707
-0.1352350163
-0.135975964636
-0.136709445428
-0.137424234991
-0.138099299312
-0.138689696779
-0.139375124132
-0.139868205636
-0.140081677596
-0.140517177912
-0.141373368926
-0.141328243928
-0.141282263998
-0.141381427461
-0.141502889486
-0.141648006124
-0.141803202079
-0.141976417181
-0.142094194157
-0.142009630373
-0.141835212162
-0.142222301888
-0.143461914472
-0.143852339134
-0.143832578848
-0.143597729583
-0.143212605534
-0.14258379582
-0.142304354883
-0.142068248662
-0.122827880274
-0.122828483329
-0.122829645914
-0.122827646024
-0.122827549905
-0.122829226066
-0.122831309552
-0.122833257731
-0.122837295508
-0.122838093883
-0.12284170624
-0.122848337347
-0.122857534959
-0.12286910567
-0.122883522376
-0.122902457244
-0.122925362186
-0.122951757257
-0.122983239744
-0.123021721851
-0.123068997305
-0.123126697642
-0.123200642416
-0.123302186039
-0.123421448633
-0.123542287692
-0.123685581848
-0.123856717319
-0.124040291304
-0.124239919468
-0.1244656305
-0.124715882053
-0.124991220965
-0.125292448465
-0.125620828226
-0.125978262044
-0.126366744066
-0.126788059141
-0.127243685291
-0.127735245941
-0.128264060341
-0.128830445456
-0.129433434203
-0.130070645521
-0.130739175274
-0.131436305542
-0.132158812123
-0.132902172159
-0.133661397433
-0.134432719627
-0.135214290419
-0.136004211429
-0.136797868788
-0.137579118079
-0.138297359182
-0.13877766778
-0.139880367728
-0.13986235503
-0.139806811251
-0.139864606022
-0.140176523387
-0.140486109769
-0.140450684567
-0.140275027311
-0.14001264906
-0.139723573409
-0.139457637798
-0.139287954371
-0.139208941314
-0.139136538798
-0.13907063472
-0.139228354259
-0.139917795815
-0.140769700106
-0.141506138262
-0.141897350448
-0.141978615572
-0.142280327897
-0.142336655651
-0.141736543263
-0.122786269216
-0.12278635316
-0.122786144056
-0.122783068994
-0.122780978929
-0.122780916215
-0.122780786726
-0.122779968809
-0.122782288497
-0.122779666683
-0.122779182965
-0.122781521611
-0.1227862818
-0.122793280782
-0.122801564591
-0.122813845545
-0.122830306075
-0.122850066465
-0.122874145288
-0.122904353844
-0.122942538871
-0.122990545966
-0.123052285259
-0.123139539143
-0.123250933457
-0.123367817474
-0.123492855775
-0.123646875142
-0.123824105131
-0.124014785358
-0.124226951551
-0.124465867671
-0.124732682784
-0.125027359656
-0.125350507757
-0.125703632374
-0.12608906226
-0.126508847133
-0.126964893384
-0.127458902571
-0.127992688608
-0.128567169291
-0.129181488186
-0.129833103246
-0.130519397093
-0.131238783341
-0.131988792484
-0.132763991916
-0.133557718455
-0.134367120711
-0.135196102079
-0.136049176633
-0.136929273083
-0.137828386425
-0.138704959064
-0.138911071792
-0.139159927876
-0.139409582068
-0.139377584158
-0.139251712944
-0.13920208733
-0.139192888264
-0.1388908457
-0.138358082702
-0.137660914419
-0.136903064668
-0.1361710017
-0.135551320251
-0.135074081259
-0.134699756587
-0.134367806296
-0.13429826318
-0.134881500565
-0.136035844633
-0.137481388563
-0.13887643636
-0.139929982195
-0.140395161343
-0.140465368923
-0.140374784102
-0.122742500904
-0.122742017956
-0.122740727556
-0.12273614485
-0.122732564459
-0.12273034931
-0.122727478649
-0.122722896036
-0.122721066299
-0.122716033317
-0.1227117092
-0.122709664315
-0.122709976192
-0.122712647158
-0.122714086422
-0.122719172117
-0.122728371172
-0.122740703574
-0.122756538056
-0.122777694083
-0.122805882836
-0.122843151611
-0.122892721864
-0.122964219063
-0.123061988445
-0.12317500367
-0.123287370349
-0.123421217343
-0.123581233908
-0.123761930309
-0.123963194023
-0.124191763929
-0.12444897661
-0.124735685042
-0.125052598495
-0.125400719299
-0.125782174083
-0.126199725619
-0.126655583453
-0.127151795207
-0.127690488795
-0.128273148769
-0.128899467693
-0.129566708217
-0.130272178386
-0.131016176641
-0.13179791675
-0.132609712945
-0.133441167402
-0.134290196878
-0.135171522921
-0.136099179164
-0.137081410047
-0.138181471385
-0.138340402887
-0.13855807343
-0.138754296787
-0.138877500383
-0.138776235388
-0.138485201608
-0.138088121027
-0.137569199767
-0.136839383903
-0.135955966396
-0.134958813738
-0.133923124344
-0.132907126368
-0.131952482221
-0.131064976484
-0.130246362704
-0.129536987157
-0.129062776611
-0.12910324113
-0.129833024133
-0.131261183319
-0.1332239282
-0.135251887534
-0.136687754293
-0.137985833942
-0.140508489733
-0.122697638599
-0.122696429664
-0.12269309228
-0.122687454743
-0.122682971006
-0.122678395074
-0.122672644822
-0.122664530274
-0.122658085797
-0.122648784055
-0.122639817663
-0.122632737697
-0.12262786086
-0.122625693906
-0.122620003336
-0.122617624758
-0.122619002546
-0.122623417183
-0.122630252308
-0.122641572334
-0.122658851126
-0.12268424914
-0.122720829238
-0.122775901684
-0.122856149128
-0.122958728442
-0.123066318458
-0.123183383472
-0.12332338446
-0.123486952147
-0.123674468839
-0.123891039138
-0.124137086947
-0.124414449626
-0.124724098098
-0.125066272127
-0.125443220105
-0.125857780138
-0.126312871997
-0.126810749401
-0.127353947448
-0.127944900523
-0.128583938184
-0.129268254073
-0.129993557368
-0.130761886241
-0.131578493796
-0.13243476629
-0.133308632247
-0.134191677011
-0.135124217261
-0.136128920799
-0.137239395207
-0.137428375073
-0.137740506683
-0.13816856682
-0.138338902577
-0.138191681303
-0.137779554518
-0.137143876952
-0.136319307751
-0.135298882917
-0.134098477615
-0.132785393024
-0.131395020386
-0.129976572845
-0.128570371871
-0.127205195294
-0.125891869059
-0.124665599952
-0.123627938931
-0.122866663383
-0.122552374787
-0.12289601761
-0.12407478776
-0.126140651963
-0.128625218631
-0.130572624712
-0.133442761841
-0.143953194078
-0.122652805972
-0.122650825811
-0.122645322693
-0.122638826815
-0.122633033456
-0.122625774356
-0.122616767022
-0.122605518623
-0.122593730221
-0.122578927679
-0.122564248159
-0.122551177227
-0.122539880227
-0.122530404207
-0.122518231732
-0.122508346056
-0.122501335132
-0.122496946172
-0.122494431459
-0.122495411596
-0.122501026704
-0.122513343291
-0.122535945561
-0.122573808078
-0.122633822543
-0.12271878449
-0.12281843788
-0.122922839151
-0.12304455337
-0.123190349219
-0.123360721991
-0.123561933342
-0.123795335355
-0.12406110714
-0.124361825535
-0.124696974058
-0.125068286156
-0.125479152285
-0.125932877547
-0.126432217377
-0.126979649361
-0.127578301144
-0.12822965376
-0.128931705086
-0.129680296836
-0.130478100686
-0.131332237267
-0.132230696629
-0.133148877609
-0.134050660051
-0.135025600866
-0.136099329207
-0.136275173587
-0.136603085834
-0.137330249795
-0.13769617322
-0.137578307585
-0.137057625352
-0.136211754207
-0.135107160375
-0.133783882823
-0.132259027575
-0.130572176473
-0.12877750256
-0.126906458838
-0.124993233729
-0.123065837247
-0.121142684503
-0.119230308316
-0.117362090938
-0.115647359444
-0.114234597254
-0.113207313919
-0.112724339379
-0.113005754783
-0.114297386155
-0.116347069934
-0.117657265619
-0.117697294148
-0.121946711466
-0.12260897443
-0.122606334943
-0.122599356757
-0.12259181568
-0.122583715858
-0.122573188704
-0.12256006864
-0.122545439223
-0.12252785502
-0.122506854933
-0.122485709045
-0.122465859911
-0.122447335641
-0.122428997554
-0.122409570222
-0.122391613869
-0.122375492002
-0.122360994759
-0.122348278262
-0.122338370098
-0.122331758663
-0.12232992645
-0.122337375906
-0.12235727471
-0.1223958453
-0.122458342861
-0.122540287922
-0.122632429081
-0.122737810508
-0.122865625529
-0.123019042714
-0.123201173418
-0.123418290818
-0.12367077708
-0.123961525475
-0.124288986111
-0.124653646426
-0.125059624865
-0.125510887084
-0.126010930201
-0.126562521645
-0.127168811561
-0.127833085559
-0.128554936812
-0.129330540657
-0.130159658282
-0.131051553166
-0.132002726003
-0.132990776704
-0.13385072422
-0.134847801442
-0.135065327529
-0.135348465
-0.136234140467
-0.136934910051
-0.136915647297
-0.13633815357
-0.135328246902
-0.133965061159
-0.132317018679
-0.13043211551
-0.128343762644
-0.126089698981
-0.123702846587
-0.121202039909
-0.118606468353
-0.115932577189
-0.113191786748
-0.110389458832
-0.107551816468
-0.104771119991
-0.102191215474
-0.0998170885315
-0.0976192253696
-0.0957309533017
-0.0945529309187
-0.0939455400602
-0.0900883988966
-0.0749196074817
-0.0563040214812
-0.122566458167
-0.122563199917
-0.122555130602
-0.12254629424
-0.122535417335
-0.122521156019
-0.122503623384
-0.122484841933
-0.122460656196
-0.122433053601
-0.12240488518
-0.122377630366
-0.122351366597
-0.122324154889
-0.122295534894
-0.122268384123
-0.122242282288
-0.122216542463
-0.122191913904
-0.122169933769
-0.122150203664
-0.12213317707
-0.122123855677
-0.12212494571
-0.122141459245
-0.122179314569
-0.122239423452
-0.122316052265
-0.122408969709
-0.122515328554
-0.122647805657
-0.122810139781
-0.123007803073
-0.123240979825
-0.123516842672
-0.123836190277
-0.124194125498
-0.124594766855
-0.125042270299
-0.125541424128
-0.126096526204
-0.126711108653
-0.127389403183
-0.128130988603
-0.128929347339
-0.129786174067
-0.130721647207
-0.131754839225
-0.132909572015
-0.133550283977
-0.133927929471
-0.134194896974
-0.135046796535
-0.135988779309
-0.136223355795
-0.135656144913
-0.134511074937
-0.132915318402
-0.130954592771
-0.128693113162
-0.126177716235
-0.12344353045
-0.120520716927
-0.117429616659
-0.114182783668
-0.110793552618
-0.10727442601
-0.103633730317
-0.099871494017
-0.0959893622531
-0.0920140836878
-0.0879896619432
-0.083850690885
-0.0793007743716
-0.0742568533501
-0.0690708177422
-0.0631145844463
-0.0495072617707
-0.0123959271199
0.0420494970545
-0.122525287241
-0.122521370726
-0.122512397134
-0.122501972916
-0.122488006162
-0.122469767668
-0.122448037967
-0.122423888939
-0.122392660589
-0.122358298419
-0.122322433015
-0.122286987459
-0.122252208362
-0.122215480237
-0.122176523835
-0.122139006165
-0.122102129434
-0.122063762078
-0.122025596137
-0.121989921183
-0.121955462405
-0.121922030515
-0.121893920773
-0.121875136599
-0.121868970911
-0.121880694015
-0.121915468556
-0.121969849558
-0.122046894784
-0.122136123475
-0.122245125601
-0.122381820399
-0.12255771013
-0.122773688348
-0.123029152475
-0.123333214246
-0.123682674691
-0.12407717272
-0.124521045079
-0.125018485823
-0.125575426701
-0.126198498838
-0.126891311727
-0.127649870243
-0.128463030715
-0.129336686079
-0.13032037383
-0.131519749193
-0.133648676595
-0.133080036924
-0.133288905915
-0.133916266843
-0.134956008328
-0.135420125975
-0.135005577842
-0.133793075226
-0.131999714345
-0.129748521774
-0.127127923347
-0.124200410739
-0.121012612914
-0.117601067313
-0.113996545617
-0.11022250318
-0.106297463321
-0.102236516189
-0.0980463294911
-0.0937186277936
-0.0892238095973
-0.0845082151932
-0.0794914510824
-0.0740588681254
-0.0680342336685
-0.061018754187
-0.0527490188281
-0.0433481196925
-0.0310365295294
-0.00625268990058
0.0478896441544
0.116859465161
-0.12248529817
-0.122480698591
-0.122470764906
-0.122458368206
-0.122440795116
-0.12241863466
-0.122392577215
-0.122362015819
-0.122324011749
-0.122283033892
-0.122238827232
-0.122194367891
-0.122150166549
-0.122102971269
-0.122052586792
-0.122003339852
-0.121954626455
-0.121901966075
-0.121849035091
-0.121798059118
-0.121746394902
-0.121695573399
-0.121647101769
-0.121606443486
-0.121576872733
-0.121561720563
-0.12156827225
-0.121595221286
-0.121646985592
-0.121719104403
-0.121808215688
-0.121918507359
-0.122063648312
-0.122255739452
-0.122493782987
-0.122779156646
-0.123115136163
-0.123500337641
-0.123938388224
-0.124434002681
-0.124993106364
-0.125623435467
-0.126328572397
-0.127099333906
-0.12791994397
-0.128783708145
-0.129693378293
-0.130597353819
-0.131477974092
-0.132191461555
-0.132368173555
-0.133821232905
-0.134504137925
-0.134314330261
-0.133169737067
-0.131246559891
-0.128752181718
-0.125808362353
-0.122505968483
-0.118911555392
-0.115078473969
-0.111051028238
-0.106866826513
-0.102554457845
-0.0981315515596
-0.0936001466063
-0.0889393740028
-0.0840999595028
-0.0790028027205
-0.0735357176112
-0.0675301704358
-0.0607219586663