/*--------------------------------*- C++ -*----------------------------------*\
| =========                 |                                                 |
| \\      /  F ield         | OpenFOAM: The Open Source CFD Toolbox           |
|  \\    /   O peration     | Version:  v1806                                 |
|   \\  /    A nd           | Web:      www.OpenFOAM.com                      |
|    \\/     M anipulation  |                                                 |
\*---------------------------------------------------------------------------*/
FoamFile
{
    version     2.0;
    format      ascii;
    class       surfaceScalarField;
    location    "412";
    object      phi;
}
// * * * * * * * * * * * * * * * * * * * * * * * * * * * * * * * * * * * * * //

dimensions      [0 3 -1 0 0 0 0];
oriented        oriented;


internalField   nonuniform List<scalar> 
12640
(
-1.92081657847e-07
1.92384594655e-07
-3.68214441295e-07
1.7636736733e-07
-5.231931912e-07
1.55153117199e-07
-6.52885387402e-07
1.29830511356e-07
-7.45288964247e-07
9.25324078989e-08
-7.98388236509e-07
5.32319518469e-08
-8.31963831333e-07
3.36974441995e-08
-8.91111549567e-07
5.92568575413e-08
-9.77717598374e-07
8.67035286652e-08
-1.05775500194e-06
8.01205386611e-08
-1.13066629213e-06
7.29766572055e-08
-1.20875807693e-06
7.81488493796e-08
-1.27757812796e-06
6.8869996747e-08
-1.33116973472e-06
5.36369704197e-08
-1.37777625231e-06
4.66481569187e-08
-1.43282199979e-06
5.50900034064e-08
-1.48964954905e-06
5.68682768475e-08
-1.53385627394e-06
4.42454503003e-08
-1.56294774068e-06
2.91188989505e-08
-1.58575398801e-06
2.28260345992e-08
-1.62291368517e-06
3.7173478017e-08
-1.67764526455e-06
5.47443284195e-08
-1.73688647768e-06
5.9250218611e-08
-1.79369587089e-06
5.68181882803e-08
-1.84456517723e-06
5.08748414813e-08
-1.88885700642e-06
4.4297479784e-08
-1.92971725586e-06
4.08624387417e-08
-1.96539069463e-06
3.56759318377e-08
-1.99404468256e-06
2.86520893702e-08
-2.01706190798e-06
2.30153592168e-08
-2.03873371939e-06
2.16647072297e-08
-2.05741056758e-06
1.8670094455e-08
-2.0696548462e-06
1.22351733141e-08
-2.08131940451e-06
1.165316348e-08
-2.09216570968e-06
1.08262714058e-08
-2.10079549729e-06
8.60966034327e-09
-2.11100430754e-06
1.01811209821e-08
-2.11984809186e-06
8.81060150251e-09
-2.12390506179e-06
4.01637770923e-09
-2.12641577324e-06
2.46934244762e-09
-2.13719822235e-06
1.07373281258e-08
-2.14755202767e-06
1.03111490905e-08
-2.14061488971e-06
-6.98252945808e-09
-2.12184262183e-06
-1.88200476513e-08
-2.0974364261e-06
-2.44601857573e-08
-2.06645431608e-06
-3.10384027752e-08
-2.02850846951e-06
-3.80093351972e-08
-1.98184724006e-06
-4.67277368309e-08
-1.9267097784e-06
-5.52111165014e-08
-1.87014267967e-06
-5.66424671097e-08
-1.81954762469e-06
-5.06819323438e-08
-1.7623889651e-06
-5.72467984474e-08
-1.67179766314e-06
-9.06862662064e-08
-1.55548656763e-06
-1.16416388535e-07
-1.42028763695e-06
-1.35313789324e-07
-1.25754960653e-06
-1.62858178736e-07
-1.08949553154e-06
-1.68203399218e-07
-9.2280027747e-07
-1.66881648946e-07
-7.33659756884e-07
-1.89366229116e-07
-5.23319497757e-07
-2.10620396228e-07
-2.98908333021e-07
-2.2475315643e-07
-5.99017689231e-08
-2.39397084066e-07
2.40072939962e-07
-3.00386269942e-07
4.43747650845e-07
-2.03932353729e-07
5.52756063164e-07
-1.09166544611e-07
6.17334620386e-07
-6.46846574205e-08
6.55684971241e-07
-3.84503310612e-08
6.79287584898e-07
-2.37116557475e-08
6.88794707595e-07
-9.63147873026e-09
6.81064017184e-07
7.59512024957e-09
6.56249507534e-07
2.46699655474e-08
6.16141574244e-07
3.99629664747e-08
5.61845670218e-07
5.41563647397e-08
4.86431137024e-07
7.52770664556e-08
4.09909520605e-07
7.63953629732e-08
3.33644481909e-07
7.61426597241e-08
2.74192970015e-07
5.93046110823e-08
1.97691306082e-07
7.63702651653e-08
1.21735881838e-07
7.57823260153e-08
1.21569961263e-07
-9.77486248891e-08
2.90261520365e-07
-2.26788039937e-07
3.05566152169e-07
-3.51610723506e-07
2.80099058069e-07
-4.82998826317e-07
2.61323194439e-07
-6.536192543e-07
2.63271379737e-07
-7.86411923455e-07
1.86145370494e-07
-8.61076913536e-07
1.08487932149e-07
-9.28252906019e-07
1.26544203642e-07
-1.0009819198e-06
1.59531826258e-07
-1.08171591194e-06
1.6093309303e-07
-1.15887633415e-06
1.50206376737e-07
-1.22106804839e-06
1.40395036004e-07
-1.27651385547e-06
1.2436991537e-07
-1.3295326018e-06
1.06704886416e-07
-1.38031238713e-06
9.74826100245e-08
-1.43797846036e-06
1.12801527434e-07
-1.48798328382e-06
1.0691796876e-07
-1.50499298635e-06
6.12822125541e-08
-1.51627559368e-06
4.04250528243e-08
-1.54695717929e-06
5.35200256439e-08
-1.5991828225e-06
8.94135487684e-08
-1.67194758595e-06
1.27515616688e-07
-1.74259216105e-06
1.29907679814e-07
-1.79462811818e-06
1.08858185515e-07
-1.84135717208e-06
9.7613387657e-08
-1.89111646501e-06
9.40573054204e-08
-1.93301363091e-06
8.27661485323e-08
-1.96606703714e-06
6.87260657841e-08
-1.99405597798e-06
5.66434804826e-08
-2.01772207008e-06
4.66735954021e-08
-2.03596958881e-06
3.99105939467e-08
-2.04994021661e-06
3.26313138217e-08
-2.05768066368e-06
1.9969013664e-08
-2.06604600896e-06
2.00007969033e-08
-2.08191158185e-06
2.66794238927e-08
-2.09144349043e-06
1.81116078418e-08
-2.09910365731e-06
1.78133935759e-08
-2.11497727351e-06
2.4644711312e-08
-2.13329250611e-06
2.22958148706e-08
-2.14041077599e-06
9.53995592425e-09
-2.10767876534e-06
-2.20331016697e-08
-2.05514503324e-06
-4.22685742748e-08
-2.02623600101e-06
-3.59318101093e-08
-2.01323254214e-06
-3.18766522229e-08
-2.00180576099e-06
-3.59368022102e-08
-1.9893691274e-06
-4.35378733301e-08
-1.97098898099e-06
-5.6448886231e-08
-1.94600219525e-06
-7.17868906497e-08
-1.91150438775e-06
-8.97786022168e-08
-1.85509770559e-06
-1.13131565349e-07
-1.76802117522e-06
-1.37836453387e-07
-1.67377677682e-06
-1.51581408343e-07
-1.61529140167e-06
-1.49265644005e-07
-1.54403178031e-06
-1.87790170264e-07
-1.4301769685e-06
-2.49287513673e-07
-1.30881936875e-06
-2.84360485305e-07
-1.16751822107e-06
-3.09671076693e-07
-9.91993020261e-07
-3.42613721316e-07
-7.96189682336e-07
-3.85418960601e-07
-5.71639620307e-07
-4.35483389623e-07
-3.0380840689e-07
-4.92909087624e-07
-3.08587462368e-08
-5.12706430412e-07
2.47365207971e-07
-5.78989773373e-07
4.42231051548e-07
-3.99060020096e-07
5.42591013621e-07
-2.09666318104e-07
5.89420330343e-07
-1.11620412162e-07
6.32115502741e-07
-8.12406926323e-08
6.70963184373e-07
-6.26679432173e-08
6.88793510367e-07
-2.75835380036e-08
6.81103358978e-07
1.51460067141e-08
6.48064853989e-07
5.75642861736e-08
5.96993406931e-07
9.08942758872e-08
5.46292555149e-07
1.04719284899e-07
5.03688552431e-07
1.17738235783e-07
4.50640046547e-07
1.29301554392e-07
3.92207339543e-07
1.3442957734e-07
3.1875397809e-07
1.32619333871e-07
2.42016894843e-07
1.52925349139e-07
1.29921269069e-07
1.87649573994e-07
2.51396183275e-07
-1.30107137537e-07
4.20534055221e-07
-1.91034083755e-07
3.66622998957e-07
-3.49441399459e-07
4.38632872424e-07
-5.36623485523e-07
4.48633680245e-07
-7.04392766399e-07
4.31162819043e-07
-7.8595561056e-07
2.67805567923e-07
-8.23766873915e-07
1.46391393028e-07
-8.98132792514e-07
2.01009097239e-07
-9.86245824477e-07
2.47733538389e-07
-1.07299082051e-06
2.47753433519e-07
-1.15302761815e-06
2.30306437242e-07
-1.21921995052e-06
2.06649194346e-07
-1.27520582723e-06
1.80417985598e-07
-1.32932395489e-06
1.60884723555e-07
-1.36592556347e-06
1.34139982092e-07
-1.3332879843e-06
8.02099663127e-08
-1.26539565946e-06
3.90533135664e-08
-1.25629244383e-06
5.2199406218e-08
-1.31995660304e-06
1.04103050542e-07
-1.45417892572e-06
1.87755479149e-07
-1.59603161955e-06
2.31278626664e-07
-1.67839297277e-06
2.09891097476e-07
-1.73257407822e-06
1.84098174493e-07
-1.79369971212e-06
1.69993801375e-07
-1.85013311469e-06
1.54052364156e-07
-1.89331721885e-06
1.37247554045e-07
-1.92985535336e-06
1.19305704545e-07
-1.96251593136e-06
1.01388887963e-07
-1.98977722124e-06
8.39022241563e-08
-2.01322822725e-06
7.01235124374e-08
-2.02851105017e-06
5.51890113593e-08
-2.03935989242e-06
4.34736614428e-08
-2.05155736702e-06
3.21583842153e-08
-2.04653312478e-06
1.49649574565e-08
-2.04827835923e-06
2.84004088442e-08
-2.07547902188e-06
4.52860779122e-08
-2.08768340955e-06
2.99839946159e-08
-2.09545115219e-06
3.23762272121e-08
-2.12196267593e-06
4.87655466758e-08
-2.14471792222e-06
3.22559432726e-08
-2.15698943613e-06
-9.80471308418e-09
-2.15870048415e-06
-4.06002348426e-08
-2.146344661e-06
-4.83368952598e-08
-2.12652546387e-06
-5.17457676067e-08
-2.10225536956e-06
-6.02637220579e-08
-2.07235112535e-06
-7.35001761157e-08
-2.03752274256e-06
-9.13425667065e-08
-1.9967855037e-06
-1.12591008276e-07
-1.94920399135e-06
-1.37433889791e-07
-1.8960059392e-06
-1.66404597525e-07
-1.83750167953e-06
-1.9642394881e-07
-1.76555783818e-06
-2.23614325214e-07
-1.66021605373e-06
-2.54707653234e-07
-1.54170712846e-06
-3.06407243158e-07
-1.43222724695e-06
-3.58893202287e-07
-1.30836172743e-06
-4.08371197324e-07
-1.15169760221e-06
-4.66507952018e-07
-9.63640442718e-07
-5.30872827191e-07
-7.48488032797e-07
-6.00811193151e-07
-5.08931830736e-07
-6.75308761247e-07
-2.60372296695e-07
-7.41777390554e-07
1.71797289179e-08
-7.90596674e-07
2.27940827861e-07
-7.9006461452e-07
3.85148928852e-07
-5.56481751038e-07
4.99948481744e-07
-3.2460745103e-07
5.91073014334e-07
-2.02847957848e-07
6.45064640256e-07
-1.35329312821e-07
6.65801113257e-07
-8.35059326971e-08
6.65613195911e-07
-2.75117122396e-08
6.46654605032e-07
3.39740440259e-08
6.19847243822e-07
8.42350206573e-08
5.99449370067e-07
1.11154213724e-07
5.74946811512e-07
1.29081150554e-07
5.31367529583e-07
1.61180479256e-07
4.64382818877e-07
1.96156580347e-07
3.87361263611e-07
2.11321855119e-07
3.12128727711e-07
2.07696689295e-07
2.42809919822e-07
2.2211311576e-07
1.08854019508e-07
3.21479433993e-07
3.60170681683e-07
-9.21085142873e-08
5.12735787664e-07
-1.17622624135e-07
3.92224869291e-07
-3.05050358308e-07
6.26185940218e-07
-4.53028997648e-07
5.96740168775e-07
-4.48959271365e-07
4.27182330058e-07
-3.8040607744e-07
1.9929251193e-07
-5.30019666865e-07
2.96057704953e-07
-7.77572978465e-07
4.4864111464e-07
-9.4153692639e-07
4.11777501422e-07
-1.0501827412e-06
3.56470320796e-07
-1.14264307186e-06
3.22835955911e-07
-1.21856973772e-06
2.82646220491e-07
-1.26543802908e-06
2.27354635903e-07
-1.24502214989e-06
1.40530310716e-07
-1.1748790752e-06
6.40432509885e-08
-1.14251813611e-06
4.78779152734e-08
-1.18795321046e-06
8.450871347e-08
-1.30638733825e-06
1.70649331839e-07
-1.46214981662e-06
2.59882333559e-07
-1.56928680084e-06
2.94910373938e-07
-1.62393159794e-06
2.85940969424e-07
-1.68324292286e-06
2.69216212159e-07
-1.74623962907e-06
2.47107581094e-07
-1.79953821339e-06
2.23301721239e-07
-1.84585277688e-06
2.0037585898e-07
-1.88640443664e-06
1.77804160329e-07
-1.92409204952e-06
1.56998295345e-07
-1.95658661706e-06
1.33883583486e-07
-1.98493154798e-06
1.12247966471e-07
-2.00463727827e-06
8.98279506682e-08
-2.02264382205e-06
7.31932697275e-08
-2.0284858e-06
4.93122789004e-08
-2.02227388769e-06
2.59358491013e-08
-2.04340261207e-06
3.60747924838e-08
-2.05840121932e-06
4.33760931359e-08
-2.06981535036e-06
5.66688880821e-08
-2.1145273299e-06
7.46608004384e-08
-2.1516958566e-06
6.95065613155e-08
-2.15871872395e-06
5.57515816919e-08
-2.15648265334e-06
2.99791681751e-08
-2.15847786957e-06
-7.85191302434e-09
-2.15911528141e-06
-4.00095012336e-08
-2.14982966215e-06
-5.76696128544e-08
-2.13185748649e-06
-6.97691614253e-08
-2.1079377543e-06
-8.42362397968e-08
-2.07859299633e-06
-1.02902919846e-07
-2.04411143996e-06
-1.2588463991e-07
-2.00395157573e-06
-1.5281716717e-07
-1.95749076264e-06
-1.83963899701e-07
-1.90440682192e-06
-2.19563700625e-07
-1.84237902665e-06
-2.58531030792e-07
-1.76536725057e-06
-3.00712872476e-07
-1.66937247005e-06
-3.5079742709e-07
-1.56305015811e-06
-4.12839087535e-07
-1.44263532933e-06
-4.79432507243e-07
-1.29838466497e-06
-5.52766460525e-07
-1.12561129066e-06
-6.39447345825e-07
-9.20832373795e-07
-7.35842371416e-07
-6.85360063024e-07
-8.36497943062e-07
-4.28902998037e-07
-9.32004577088e-07
-1.68538148242e-07
-1.00238861121e-06
6.33925253076e-08
-1.02278809384e-06
2.10961490713e-07
-9.37892184194e-07
3.88066426213e-07
-7.33798248051e-07
5.30711617226e-07
-4.67396916861e-07
5.99612120557e-07
-2.71849311602e-07
6.405291943e-07
-1.7633480005e-07
6.65140690106e-07
-1.08214219276e-07
6.74092875032e-07
-3.65775507724e-08
6.696896027e-07
3.82472611495e-08
6.54035963452e-07
9.97513936508e-08
6.22061951479e-07
1.42993458753e-07
5.62308678424e-07
1.88714676889e-07
4.88642957479e-07
2.3473990009e-07
4.15882743802e-07
2.68806240305e-07
3.30669415638e-07
2.9642372285e-07
2.37687748681e-07
3.00600859615e-07
1.64772480311e-07
2.94950308394e-07
8.61228242727e-08
4.00023424537e-07
4.46272429986e-07
-1.40927618576e-08
5.26912331054e-07
-1.06203900886e-07
4.8440746326e-07
-2.59308467645e-07
7.7940391031e-07
-3.57452912729e-07
6.94991903163e-07
-3.23369122832e-07
3.93157117396e-07
-4.01040670205e-07
2.77000595156e-07
-6.04221017681e-07
4.99293728e-07
-7.63789211078e-07
6.08284143342e-07
-8.9070986054e-07
5.38770395953e-07
-1.00742943681e-06
4.73263926525e-07
-1.11385583419e-06
4.29340313185e-07
-1.15951176335e-06
3.28371491403e-07
-1.11807295898e-06
1.85974891636e-07
-1.07719556678e-06
9.96953691218e-08
-1.10889936753e-06
9.57758804572e-08
-1.20183623194e-06
1.40837966822e-07
-1.33811166981e-06
2.2080488268e-07
-1.46330311179e-06
2.95861459368e-07
-1.52760078219e-06
3.24201391127e-07
-1.56528411424e-06
3.32614583588e-07
-1.62256803137e-06
3.43243748533e-07
-1.68634379814e-06
3.3300854162e-07
-1.74440116618e-06
3.05178754209e-07
-1.79469842377e-06
2.73611599482e-07
-1.83902456014e-06
2.44711145364e-07
-1.88104904331e-06
2.19837339955e-07
-1.91532527375e-06
1.9127714051e-07
-1.94848790003e-06
1.67049660419e-07
-1.97236589869e-06
1.3612858919e-07
-1.99254863516e-06
1.10012499074e-07
-1.99733339195e-06
7.79768021126e-08
-2.01006196347e-06
6.2033039344e-08
-2.04384082175e-06
5.97001678206e-08
-2.05190777795e-06
4.41189198091e-08
-2.07582383079e-06
6.72621700276e-08
-2.11891943016e-06
9.9731534555e-08
-2.14579657596e-06
1.01503397121e-07
-2.16100915667e-06
8.46846087567e-08
-2.16565950922e-06
6.03646765967e-08
-2.16518879216e-06
2.9469041827e-08
-2.16581331043e-06
-7.27052564534e-09
-2.16471087482e-06
-4.11569103247e-08
-2.15613137732e-06
-6.62970136862e-08
-2.13941231818e-06
-8.65374760744e-08
-2.11623468007e-06
-1.07466328078e-07
-2.08755224406e-06
-1.31640078383e-07
-2.05365449861e-06
-1.5984131829e-07
-2.01418251748e-06
-1.92351478606e-07
-1.96843045922e-06
-2.29783072007e-07
-1.91522556024e-06
-2.72839744956e-07
-1.85187568239e-06
-3.2195757497e-07
-1.77433088702e-06
-3.78341269659e-07
-1.68061698447e-06
-4.44605241641e-07
-1.57180096281e-06
-5.21761099633e-07
-1.44267207499e-06
-6.08682859947e-07
-1.28550565317e-06
-7.10071036082e-07
-1.09552446245e-06
-8.295831923e-07
-8.70472867934e-07
-9.61065674044e-07
-6.15567583751e-07
-1.09159130736e-06
-3.47837070068e-07
-1.19993039768e-06
-9.36441839049e-08
-1.25679121107e-06
1.1064279085e-07
-1.22729017856e-06
2.43905700284e-07
-1.07135802665e-06
4.38299026101e-07
-9.28379215513e-07
5.84254680481e-07
-6.13497583071e-07
6.53824709968e-07
-3.41523217416e-07
6.79867456251e-07
-2.02471572675e-07
6.88313949396e-07
-1.16758986163e-07
6.89103199212e-07
-3.74746455458e-08
6.83826101682e-07
4.3405746992e-08
6.5874832904e-07
1.24705453884e-07
6.00249102319e-07
2.01385035086e-07
5.27350664828e-07
2.61523479373e-07
4.55779241122e-07
3.06220028228e-07
3.78368238668e-07
3.46137812074e-07
2.91407168439e-07
3.8330647374e-07
2.22667617303e-07
3.69267661841e-07
1.50177042776e-07
3.67387725476e-07
6.74868886435e-08
4.82680081356e-07
5.13713040226e-07
-5.73184113113e-09
5.32675310105e-07
-1.360774937e-07
6.14817962751e-07
-2.17011983882e-07
8.60435302916e-07
-2.60877251463e-07
7.38933339819e-07
-2.48481812695e-07
3.80799716844e-07
-4.49606492117e-07
4.78170152988e-07
-6.55778402068e-07
7.05532046715e-07
-7.48695291658e-07
7.01267505237e-07
-8.50978228033e-07
6.4112850738e-07
-9.43963045653e-07
5.66327592059e-07
-9.80683845194e-07
4.66134411215e-07
-9.21706698484e-07
2.69449029934e-07
-9.07252005676e-07
1.71557367966e-07
-9.73499974851e-07
1.65970449995e-07
-1.08990326171e-06
2.12201836646e-07
-1.25215448143e-06
3.03111161571e-07
-1.39657181367e-06
3.65246592079e-07
-1.46118559039e-06
3.60501384826e-07
-1.49590945518e-06
3.58949879107e-07
-1.56040077701e-06
3.97129077762e-07
-1.62736123682e-06
4.10225363519e-07
-1.68352827062e-06
3.89194335224e-07
-1.73660916757e-06
3.5827597904e-07
-1.78898855748e-06
3.26003715219e-07
-1.83515107466e-06
2.90885741336e-07
-1.86354475466e-06
2.48238454181e-07
-1.89967490349e-06
2.27414644987e-07
-1.9276733362e-06
1.95053141993e-07
-1.95269723127e-06
1.61155091047e-07
-1.95460892637e-06
1.11925242459e-07
-1.96145991291e-06
8.48248694796e-08
-1.97983848897e-06
8.04004869795e-08
-1.99582817376e-06
7.56697843707e-08
-2.05668165017e-06
1.04944997579e-07
-2.11333210232e-06
1.23880563548e-07
-2.14421176824e-06
1.30578833438e-07
-2.16058026028e-06
1.17839668205e-07
-2.16987847305e-06
9.39493608434e-08
-2.17401164796e-06
6.44624251592e-08
-2.17507177798e-06
3.04900897941e-08
-2.17527222386e-06
-7.11256741885e-09
-2.17293061937e-06
-4.35440071165e-08
-2.16441725494e-06
-7.4857338342e-08
-2.14858073939e-06
-1.02422751314e-07
-2.12626166058e-06
-1.29835738462e-07
-2.09834555143e-06
-1.59609261391e-07
-2.06518585874e-06
-1.93056880976e-07
-2.02648675533e-06
-2.31110049531e-07
-1.98142557309e-06
-2.74908004284e-07
-1.92852784882e-06
-3.25805680828e-07
-1.86527914052e-06
-3.85280493608e-07
-1.78852300005e-06
-4.55178815533e-07
-1.69566686808e-06
-5.375527372e-07
-1.58360272581e-06
-6.33928671683e-07
-1.44555946411e-06
-7.46842330228e-07
-1.27434905548e-06
-8.81408754404e-07
-1.06636231081e-06
-1.03771008808e-06
-8.23341703656e-07
-1.20423757559e-06
-5.55153519775e-07
-1.35993904158e-06
-2.8179205376e-07
-1.47346185055e-06
-3.39991937245e-08
-1.50475740528e-06
1.58566407619e-07
-1.42002827127e-06
3.26157337808e-07
-1.2391281692e-06
4.91465998444e-07
-1.0938719812e-06
6.09334656358e-07
-7.31495718732e-07
6.77476519102e-07
-4.09759773065e-07
7.12694913455e-07
-2.37778817356e-07
7.24147010575e-07
-1.2830616096e-07
7.25121683162e-07
-3.85508221815e-08
7.08264917053e-07
6.01512095948e-08
6.51325645528e-07
1.81541459924e-07
5.76433336328e-07
2.76194393911e-07
5.03630288536e-07
3.34248673883e-07
4.31550476818e-07
3.78235372319e-07
3.55874760291e-07
4.21731596054e-07
2.86992505616e-07
4.52132200732e-07
2.17358315719e-07
4.38862440411e-07
1.4425320342e-07
4.40452834433e-07
7.18147585775e-08
5.55037754247e-07
5.85505826117e-07
-5.05350766143e-08
5.83263737294e-07
-2.07411930032e-07
7.71760189449e-07
-2.7726534307e-07
9.30379249877e-07
-2.32822316705e-07
6.94556633316e-07
-3.04479417302e-07
4.52494871557e-07
-5.34975269415e-07
7.0872125178e-07
-6.4964040172e-07
8.20259953385e-07
-7.27088147297e-07
7.78787642427e-07
-7.92774567495e-07
7.06885074711e-07
-8.85400154406e-07
6.59030740126e-07
-8.61205266875e-07
4.42001899482e-07
-8.29295713733e-07
2.37578358944e-07
-8.92407585344e-07
2.34697761925e-07
-9.87185919931e-07
2.60769194562e-07
-1.14143008358e-06
3.66468438826e-07
-1.29867888506e-06
4.60389711858e-07
-1.36807541787e-06
4.34673491464e-07
-1.40293879751e-06
3.95391700052e-07
-1.48098942621e-06
4.37026160216e-07
-1.56010520651e-06
4.7627011772e-07
-1.62149963788e-06
4.71643304749e-07
-1.67801878639e-06
4.45734355562e-07
-1.73244284979e-06
4.12716272617e-07
-1.77620357036e-06
3.69780438866e-07
-1.80874247451e-06
3.23437685223e-07
-1.84206056123e-06
2.81566233454e-07
-1.86335197809e-06
2.48712981925e-07
-1.89371952687e-06
2.2542478128e-07
-1.90744952239e-06
1.74888558937e-07
-1.91165738804e-06
1.16133093872e-07
-1.93654402952e-06
1.09703566601e-07
-1.97059910436e-06
1.14441287633e-07
-2.02340384678e-06
1.28450923535e-07
-2.07790766001e-06
1.59419522323e-07
-2.13243668711e-06
1.78379553025e-07
-2.15909219302e-06
1.57204336069e-07
-2.17175642947e-06
1.30472963449e-07
-2.17971576523e-06
1.01876041105e-07
-2.18466273697e-06
6.93737964989e-08
-2.18684605411e-06
3.26346068095e-08
-2.1868930737e-06
-7.10753177312e-09
-2.18372898373e-06
-4.67522334934e-08
-2.17502545465e-06
-8.36068334716e-08
-2.1596794675e-06
-1.17815845475e-07
-2.13805874615e-06
-1.51505453275e-07
-2.1108656029e-06
-1.86853242787e-07
-2.07844226813e-06
-2.25533650432e-07
-2.04056384137e-06
-2.6904543023e-07
-1.99646071085e-06
-3.19071506023e-07
-1.94470595268e-06
-3.77626633017e-07
-1.88298285733e-06
-4.47075130035e-07
-1.80813233732e-06
-5.30109296677e-07
-1.71614288833e-06
-6.29631382257e-07
-1.601169596e-06
-7.49001156658e-07
-1.45523618048e-06
-8.92882435344e-07
-1.27166531592e-06
-1.06509635699e-06
-1.04879652473e-06
-1.26070207888e-06
-7.91449316702e-07
-1.46171729759e-06
-5.10405869117e-07
-1.6411275287e-06
-2.23249522119e-07
-1.76077053455e-06
3.72329548228e-08
-1.76539631127e-06
2.53521489539e-07
-1.63648121344e-06
4.49833226798e-07
-1.43560989987e-06
5.39682199691e-07
-1.18386674893e-06
6.56197829682e-07
-8.48123277993e-07
7.2932054752e-07
-4.82969338071e-07
7.84035305703e-07
-2.9258537788e-07
8.05262992016e-07
-1.49628521816e-07
7.89470005997e-07
-2.28590613896e-08
7.30691374358e-07
1.18832622769e-07
6.46690150408e-07
2.65457733411e-07
5.65955913352e-07
3.56852815503e-07
4.88234466365e-07
4.11908280909e-07
4.15534873588e-07
4.5085000708e-07
3.49406883668e-07
4.8781291021e-07
2.99622971967e-07
5.01851662911e-07
2.24777133528e-07
5.13656103307e-07
1.43036996342e-07
5.22135114036e-07
7.91117923062e-08
6.18912560471e-07
6.64552878287e-07
-9.41896082933e-08
6.77484582833e-07
-2.33955312287e-07
9.11593050988e-07
-2.61393861334e-07
9.57876627509e-07
-1.75364918522e-07
6.08565839893e-07
-3.46485325726e-07
6.23658035801e-07
-5.39971751366e-07
9.02267257194e-07
-6.21483109768e-07
9.01838532567e-07
-7.05847567073e-07
8.63218618808e-07
-7.17299620972e-07
7.18413135287e-07
-7.42740703632e-07
6.84534679795e-07
-7.09388538589e-07
4.08691064456e-07
-8.00549455695e-07
3.28768832274e-07
-8.85500216593e-07
3.19670849752e-07
-1.02062430094e-06
3.95917063711e-07
-1.18240080195e-06
5.28275004842e-07
-1.2648251055e-06
5.42847313957e-07
-1.2995141826e-06
4.69393684012e-07
-1.38414619943e-06
4.80052435823e-07
-1.47966000552e-06
5.32568055062e-07
-1.54874185004e-06
5.45379408542e-07
-1.60559648198e-06
5.28522844199e-07
-1.66055912469e-06
5.00716906e-07
-1.71959066626e-06
4.71768333962e-07
-1.77468670452e-06
4.24894285458e-07
-1.80025292458e-06
3.4901646351e-07
-1.83731442295e-06
3.18639568496e-07
-1.8615833969e-06
2.72989812705e-07
-1.85862644605e-06
2.22472965527e-07
-1.8721483186e-06
1.88411337395e-07
-1.93699551009e-06
1.80976434454e-07
-1.97643213788e-06
1.49131285025e-07
-1.98635904856e-06
1.24348678845e-07
-2.04502180188e-06
1.87088991594e-07
-2.11466577029e-06
2.2903586755e-07
-2.14775826851e-06
2.11444056226e-07
-2.16856602538e-06
1.7798351686e-07
-2.18228489502e-06
1.44161709874e-07
-2.19145796074e-06
1.11016717443e-07
-2.19751320729e-06
7.53938178322e-08
-2.20063124654e-06
3.57142120611e-08
-2.20071162831e-06
-7.06849918993e-09
-2.19698005444e-06
-5.05274060833e-08
-2.18800651904e-06
-9.26251931638e-08
-2.17287441866e-06
-1.32994066255e-07
-2.151683222e-06
-1.72743833236e-07
-2.12498553264e-06
-2.13599997447e-07
-2.0931493044e-06
-2.57421693832e-07
-2.05611739961e-06
-3.06131588476e-07
-2.01337676849e-06
-3.61872134887e-07
-1.96376727224e-06
-4.27299934104e-07
-1.90511615108e-06
-5.0579820198e-07
-1.83383572594e-06
-6.0146845441e-07
-1.74439906459e-06
-7.19155455083e-07
-1.62892343571e-06
-8.64569641672e-07
-1.47848174234e-06
-1.04342399816e-06
-1.28686030744e-06
-1.25681954949e-06
-1.05343260039e-06
-1.4942440076e-06
-7.82023374208e-07
-1.73324833628e-06
-4.77366645955e-07
-1.94592114849e-06
-1.55385915597e-07
-2.08289127775e-06
1.43067911732e-07
-2.06399947942e-06
3.90769990679e-07
-1.88432765019e-06
5.72182979942e-07
-1.61716515316e-06
6.83102410561e-07
-1.29492081525e-06
7.76720933544e-07
-9.41873196608e-07
8.33226859247e-07
-5.3957237782e-07
8.67566143257e-07
-3.27005369313e-07
8.74179718338e-07
-1.56327611656e-07
8.31048967809e-07
2.018579652e-08
7.46944617804e-07
2.02851755047e-07
6.52873775864e-07
3.59444726972e-07
5.58225108782e-07
4.51435245619e-07
4.70861679387e-07
4.99182404672e-07
4.02498379834e-07
5.19166912431e-07
3.58087526391e-07
5.32131724734e-07
3.15681575952e-07
5.44212979287e-07
2.44490038293e-07
5.84793246759e-07
1.47918426499e-07
6.18642408679e-07
7.65715483522e-08
6.90153711008e-07
7.41103118502e-07
-1.24376282271e-07
8.01921851141e-07
-2.30174324551e-07
1.01745711293e-06
-2.11635123397e-07
9.39400228527e-07
-2.23743011443e-07
6.20710845743e-07
-4.20770058191e-07
8.20733920047e-07
-5.07071302037e-07
9.88630744276e-07
-5.83141746834e-07
9.77976421984e-07
-6.62140156965e-07
9.42284143281e-07
-6.85257448434e-07
7.41587219061e-07
-7.11585276486e-07
7.10923343802e-07
-7.25740086257e-07
4.22877111938e-07
-8.04867758067e-07
4.07922347551e-07
-9.05915448888e-07
4.20739653511e-07
-1.06031399766e-06
5.50341412058e-07
-1.19783043501e-06
6.65829597711e-07
-1.2451454559e-06
5.90200401147e-07
-1.29199605333e-06
5.16276003647e-07
-1.38003539704e-06
5.68121500997e-07
-1.46529149951e-06
6.1785404521e-07
-1.53420471494e-06
6.14320188497e-07
-1.59218636927e-06
5.86527506601e-07
-1.63875572582e-06
5.47310987487e-07
-1.67901755165e-06
5.12053873631e-07
-1.72138794411e-06
4.672830919e-07
-1.7579247207e-06
3.85570233135e-07
-1.78154102444e-06
3.42267451671e-07
-1.82397994842e-06
3.15436076515e-07
-1.8705534331e-06
2.69051114137e-07
-1.9087535454e-06
2.26613317359e-07
-1.93576574101e-06
2.07983689782e-07
-1.97555019441e-06
1.8890046959e-07
-2.05736459364e-06
2.06140686789e-07
-2.10395058289e-06
2.33648543918e-07
-2.13357328407e-06
2.58632092059e-07
-2.15885095703e-06
2.36695920349e-07
-2.17930747422e-06
1.9841286399e-07
-2.19469996703e-06
1.59524537578e-07
-2.20537651411e-06
1.21660696272e-07
-2.21241707246e-06
8.23987710389e-08
-2.216309998e-06
3.95686855453e-08
-2.21670098458e-06
-6.71828816481e-09
-2.21273584808e-06
-5.453478819e-08
-2.20345907852e-06
-1.01945499279e-07
-2.18827267738e-06
-1.48224693622e-07
-2.16716737653e-06
-1.93895111554e-07
-2.14056260804e-06
-2.40252823603e-07
-2.10896897929e-06
-2.89065362801e-07
-2.07270604061e-06
-3.42450138318e-07
-2.03173544116e-06
-4.0290057017e-07
-1.98538429498e-06
-4.73717406995e-07
-1.93172623449e-06
-5.59526858184e-07
-1.86675496603e-06
-6.66518567569e-07
-1.78361215759e-06
-8.02381223521e-07
-1.6727063738e-06
-9.75562194499e-07
-1.52386291534e-06
-1.19235182347e-06
-1.32980823819e-06
-1.45097225298e-06
-1.08704783787e-06
-1.73710435949e-06
-7.93588566924e-07
-2.02682978425e-06
-4.49502651447e-07
-2.29013357442e-06
-7.8806922227e-08
-2.45372737841e-06
2.54540821442e-07
-2.39747298937e-06
5.19750871703e-07
-2.14966830238e-06
7.25819731872e-07
-1.82336047322e-06
8.81983695991e-07
-1.45122415833e-06
9.71493254723e-07
-1.03150828279e-06
1.01511097405e-06
-5.83302816666e-07
9.95645920122e-07
-3.0762988403e-07
9.71588313021e-07
-1.32345447414e-07
8.98750591225e-07
9.29474323778e-08
7.85536785482e-07
3.15982755173e-07
6.65748945522e-07
4.79162241513e-07
5.4276071132e-07
5.74329363351e-07
4.40401696416e-07
6.01488218038e-07
3.81107615447e-07
5.78354757052e-07
3.63535914579e-07
5.49662310444e-07
3.35436836079e-07
5.72236958493e-07
2.67126561388e-07
6.53033490707e-07
1.617598481e-07
7.23951962941e-07
7.22079514791e-08
7.79662121336e-07
8.13257749145e-07
-1.45632011339e-07
9.47587034523e-07
-2.42076588853e-07
1.11395672659e-06
-1.94160138885e-07
8.91528725714e-07
-2.72242033172e-07
6.98836568971e-07
-4.42910700161e-07
9.91462552215e-07
-4.7144482479e-07
1.0172299902e-06
-5.37230690323e-07
1.0438236896e-06
-5.66126250834e-07
9.71241477423e-07
-6.27774343743e-07
8.03283147051e-07
-6.23345441957e-07
7.06533565647e-07
-7.01847075407e-07
5.01407312359e-07
-8.00648686764e-07
5.06744450109e-07
-9.14137952596e-07
5.34254081429e-07
-1.05679000541e-06
6.93028875216e-07
-1.13832672283e-06
7.47404554363e-07
-1.1683344324e-06
6.20243304768e-07
-1.25846493196e-06
6.06438932015e-07
-1.35800892019e-06
6.67697286996e-07
-1.43891694519e-06
6.98792476766e-07
-1.51241068727e-06
6.87841398869e-07
-1.58006123988e-06
6.5420760252e-07
-1.63831808968e-06
6.05594325917e-07
-1.66937375167e-06
5.43132628376e-07
-1.69138566889e-06
4.89316809998e-07
-1.74936007199e-06
4.43559866631e-07
-1.77842754313e-06
3.71346424269e-07
-1.77724899322e-06
3.14268199822e-07
-1.79642173301e-06
2.88230122381e-07
-1.84926489789e-06
2.79454901111e-07
-1.92523859679e-06
2.83949072425e-07
-1.99352518022e-06
2.57169884565e-07
-2.04979611127e-06
2.62387191597e-07
-2.1158221121e-06
2.99647970238e-07
-2.14929616147e-06
2.92082358293e-07
-2.17219253315e-06
2.59568206233e-07
-2.19275162883e-06
2.18945402478e-07
-2.20970354963e-06
1.76446789183e-07
-2.22191238489e-06
1.33836893479e-07
-2.22982917111e-06
9.02801159935e-08
-2.23424645072e-06
4.39480380009e-08
-2.23497486492e-06
-6.0297524209e-09
-2.23102695909e-06
-5.85241370056e-08
-2.22149041937e-06
-1.11524078152e-07
-2.20595191507e-06
-1.63807003341e-07
-2.18447246357e-06
-2.15419664438e-07
-2.15745270927e-06
-2.67319789902e-07
-2.1255695373e-06
-3.21001028882e-07
-2.08970672763e-06
-3.78366161593e-07
-2.05069587009e-06
-4.41973695726e-07
-2.00874308065e-06
-5.15734324766e-07
-1.96254150057e-06
-6.05801520071e-07
-1.90803136483e-06
-7.21105487402e-07
-1.83735156565e-06
-8.73139684898e-07
-1.73907887187e-06
-1.07390854893e-06
-1.60044990761e-06
-1.33106291358e-06
-1.40930670856e-06
-1.64219887182e-06
-1.15207472047e-06
-1.99443777505e-06
-8.21338591591e-07
-2.35768675395e-06
-4.33859456976e-07
-2.6777301133e-06
-2.62608758524e-08
-2.86145061748e-06
3.28640005664e-07
-2.75248919214e-06
6.29550177729e-07
-2.45069157559e-06
8.94088619258e-07
-2.08801569808e-06
1.11420063928e-06
-1.67146168754e-06
1.29350072226e-06
-1.21094160518e-06
1.42252268985e-06
-7.12460776076e-07
1.31216829161e-06
-1.97389806922e-07
1.084144891e-06
9.55932790951e-08
9.68801164685e-07
2.08228604226e-07
8.31753509129e-07
4.52963641239e-07
6.72066020263e-07
6.38761180839e-07
5.03332675936e-07
7.4299451657e-07
3.78617523865e-07
7.26098138716e-07