/*--------------------------------*- C++ -*----------------------------------*\
| =========                 |                                                 |
| \\      /  F ield         | OpenFOAM: The Open Source CFD Toolbox           |
|  \\    /   O peration     | Version:  v1806                                 |
|   \\  /    A nd           | Web:      www.OpenFOAM.com                      |
|    \\/     M anipulation  |                                                 |
\*---------------------------------------------------------------------------*/
FoamFile
{
    version     2.0;
    format      ascii;
    class       volVectorField;
    location    "412";
    object      Ua;
}
// * * * * * * * * * * * * * * * * * * * * * * * * * * * * * * * * * * * * * //

dimensions      [0 1 -1 0 0 0 0];


internalField   nonuniform List<vector> 
6400
(
(5.36610473516e-05 7.44082102603e-05 0)
(0.000148125603858 5.80254080033e-05 0)
(0.000217520434121 4.81804550246e-05 0)
(0.000295963669167 4.40660923989e-05 0)
(0.000353368203523 2.92297237583e-05 0)
(0.000394669691022 1.70188492795e-05 0)
(0.000414866636769 1.23575495544e-05 0)
(0.00043033164032 1.91453318856e-05 0)
(0.000484097330478 2.81951547529e-05 0)
(0.000540821545903 2.77237507212e-05 0)
(0.00056226980455 2.50357080469e-05 0)
(0.000615318530771 2.78308557657e-05 0)
(0.000663920087771 2.66010853182e-05 0)
(0.000704787039293 2.30590967322e-05 0)
(0.000735655494411 2.13687002955e-05 0)
(0.000769045983285 2.39964022524e-05 0)
(0.000811944101113 2.51745956065e-05 0)
(0.000849696024647 2.31325554456e-05 0)
(0.000878094688136 1.95479721936e-05 0)
(0.000904329244461 1.779902082e-05 0)
(0.000938604188519 2.2718495942e-05 0)
(0.000982819537412 2.85969336648e-05 0)
(0.00103193747492 3.06479385503e-05 0)
(0.0010782429197 3.08946856903e-05 0)
(0.00112324317353 2.96643298266e-05 0)
(0.00116706921627 2.78626132039e-05 0)
(0.00121189058632 2.76631001278e-05 0)
(0.00125509273943 2.70240460598e-05 0)
(0.00129407966395 2.54831173221e-05 0)
(0.00132945087805 2.42525581884e-05 0)
(0.00136117481245 2.45260835253e-05 0)
(0.00139532795756 2.43685244277e-05 0)
(0.00143090904041 2.32353397412e-05 0)
(0.00146379220986 2.41386213916e-05 0)
(0.00149644872722 2.46475733364e-05 0)
(0.00153683418435 2.53733404653e-05 0)
(0.0015767167205 2.71597609806e-05 0)
(0.00160157050404 2.66495171628e-05 0)
(0.00163981892799 2.5525470023e-05 0)
(0.00168791680766 2.67661307262e-05 0)
(0.00173167978481 3.30910425066e-05 0)
(0.00176696947339 3.4304065473e-05 0)
(0.00179943350062 2.56589218075e-05 0)
(0.00182783847364 1.98754917298e-05 0)
(0.00184968347695 1.77327802917e-05 0)
(0.00186786922303 1.5385892957e-05 0)
(0.00188175467749 1.31464572645e-05 0)
(0.0018896967846 1.00366795001e-05 0)
(0.00189224865525 7.38392434686e-06 0)
(0.00189037656036 9.37377522832e-06 0)
(0.0018903302567 1.64644462118e-05 0)
(0.00190908728196 1.62482550859e-05 0)
(0.00190429240544 -2.90574673431e-06 0)
(0.00189002560793 -1.16607532488e-05 0)
(0.00185330574069 -1.87716915664e-05 0)
(0.00176269365031 -3.52051643723e-05 0)
(0.00166923241539 -3.09057182471e-05 0)
(0.00162120908656 -1.82034895355e-05 0)
(0.00160170968726 -2.44840284191e-05 0)
(0.00149759055861 -2.96162362005e-05 0)
(0.00144217313419 -1.19967777266e-05 0)
(0.0013692699695 -2.68685772363e-05 0)
(0.00146251883696 -8.95866389214e-05 0)
(0.00114327782921 -9.17378899658e-05 0)
(0.000923880061716 -6.08887218074e-05 0)
(0.000822391315451 -4.08764083619e-05 0)
(0.000758431137873 -3.84493226847e-05 0)
(0.000706970876446 -3.780088305e-05 0)
(0.000652374544315 -3.85768648907e-05 0)
(0.000579910768329 -4.02658789067e-05 0)
(0.000504189051893 -4.03546363725e-05 0)
(0.000421853209329 -3.8061172333e-05 0)
(0.000345710203456 -3.60859744914e-05 0)
(0.000291979658053 -3.63146744234e-05 0)
(0.000210361457678 -2.78775952652e-05 0)
(0.000175457381331 -2.34762721726e-05 0)
(0.000111811225777 -1.41314625615e-05 0)
(0.00011115773077 -1.7840623085e-05 0)
(4.6883628949e-05 -1.17731542995e-05 0)
(3.45864058764e-05 -2.13530621776e-05 0)
(2.01842620175e-05 0.000102482538971 0)
(8.70659834552e-05 0.000115856942281 0)
(0.000152284477868 0.000106350586976 0)
(0.000194130501206 8.52150706554e-05 0)
(0.000284370031542 8.45130021034e-05 0)
(0.00037055745167 6.0871456976e-05 0)
(0.000422345544922 3.89075700838e-05 0)
(0.000458624129618 5.1930868788e-05 0)
(0.000497734755722 6.87723246734e-05 0)
(0.000541919550522 6.80242237339e-05 0)
(0.00058474430035 6.47006074532e-05 0)
(0.000624793462986 6.48757738714e-05 0)
(0.000662973069189 5.96785009727e-05 0)
(0.000698723634075 5.22525181257e-05 0)
(0.000735619394146 4.95687078029e-05 0)
(0.000772988437456 5.98676885164e-05 0)
(0.000811779226463 6.4259861828e-05 0)
(0.00084417449042 4.78680859099e-05 0)
(0.000845856157061 3.57627964153e-05 0)
(0.000877627204163 3.72366748816e-05 0)
(0.000921500051062 5.22467501409e-05 0)
(0.000972887110325 7.14516130868e-05 0)
(0.00103186175481 7.67089603272e-05 0)
(0.00108333330296 7.05582734675e-05 0)
(0.00111602807478 6.56849676125e-05 0)
(0.00116621068363 6.44410361055e-05 0)
(0.0012138987724 6.19378389387e-05 0)
(0.00125422045308 5.76978820427e-05 0)
(0.00129158773149 5.34106303823e-05 0)
(0.00132760905429 5.0209830347e-05 0)
(0.00136190287169 4.96568218914e-05 0)
(0.00138769632556 4.82527622719e-05 0)
(0.0014225138977 4.39341560696e-05 0)
(0.00145344319724 4.71687952525e-05 0)
(0.00148181004884 5.18655740078e-05 0)
(0.00153292902366 4.98649574726e-05 0)
(0.00156593636687 5.28855080775e-05 0)
(0.0015919375432 5.65085908035e-05 0)
(0.00163788646891 5.51103510636e-05 0)
(0.00169950584643 5.2604129172e-05 0)
(0.00174648445369 4.60263076039e-05 0)
(0.00170284005341 3.69011857793e-05 0)
(0.00169794920791 3.24956697953e-05 0)
(0.00173159467574 3.10590054731e-05 0)
(0.00175711596704 2.92262818553e-05 0)
(0.00178770490413 2.59043869957e-05 0)
(0.00181952391717 2.03417258254e-05 0)
(0.00184054204175 1.29479357061e-05 0)
(0.00186576496287 5.04601137498e-06 0)
(0.00188111754915 -1.30444689581e-06 0)
(0.00187123051277 -3.81534376192e-06 0)
(0.00182080029647 -6.75317351109e-06 0)
(0.00177706839745 -1.27146523061e-05 0)
(0.00188843345923 -3.25197500065e-05 0)
(0.00183270101295 -7.02848153989e-05 0)
(0.00178160426481 -9.45012789108e-05 0)
(0.00179801483189 -8.85507854424e-05 0)
(0.00176860983002 -7.51943483874e-05 0)
(0.00172210494013 -8.75699248636e-05 0)
(0.00168016609139 -0.000106136939875 0)
(0.0016616118031 -0.000122874043559 0)
(0.00133724185779 -0.000132486741418 0)
(0.00144676209355 -0.000249235465808 0)
(0.00114364063475 -0.000268570930159 0)
(0.000937272606267 -0.000204466485052 0)
(0.000782216331774 -0.000139705657782 0)
(0.000697437677612 -0.000103567751994 0)
(0.000675436933547 -9.64698703546e-05 0)
(0.000625168543011 -0.000104639472253 0)
(0.000565980618788 -0.000117665996182 0)
(0.000485959282992 -0.000122514890196 0)
(0.000401713794494 -0.000115616590102 0)
(0.000318531117455 -9.80830723403e-05 0)
(0.000274077818789 -9.08028516929e-05 0)
(0.000223693585943 -8.01778181283e-05 0)
(0.000180968445398 -6.91781152644e-05 0)
(0.000141070998195 -5.59997573328e-05 0)
(0.000107050444937 -5.280915358e-05 0)
(6.48227410878e-05 -5.25638706131e-05 0)
(2.92586069783e-05 -8.20243483644e-05 0)
(2.99016869218e-05 0.000177796606468 0)
(8.41889092464e-05 0.000194026725609 0)
(0.000129342957223 0.000182983526217 7.90757109194e-29)
(0.000224049237185 0.000188066745991 -7.49979001007e-29)
(0.000314226449933 0.000188079216842 -6.75823658663e-29)
(0.000367996324661 0.000152890102134 6.20711490905e-29)
(0.000405805406414 8.54971263206e-05 -6.28727779789e-29)
(0.000443382611061 9.34904752339e-05 6.19463655079e-29)
(0.000484894014564 0.000113928949643 0)
(0.000531896219177 0.000117394542064 0)
(0.000578564150251 0.000112037214629 0)
(0.000620082661615 0.000105226030983 0)
(0.000657995809866 9.68433917449e-05 0)
(0.000692640065515 9.17394319053e-05 0)
(0.000728653032599 8.99210280661e-05 0)
(0.000765779284649 8.30449430108e-05 0)
(0.000700636159074 6.3410954422e-05 0)
(0.000685608688818 5.22297153031e-05 0)
(0.000717568490431 6.11843816475e-05 0)
(0.000780084868322 9.10649265735e-05 0)
(0.000909493077856 0.000126300151773 0)
(0.00098677595667 0.000137419562434 0)
(0.00101863239892 0.000130052826636 0)
(0.00106974195275 0.000121153267437 0)
(0.00112316194079 0.000115947945957 0)
(0.0011666165602 0.000112400331313 0)
(0.00120739982642 0.000106004746138 0)
(0.00124780997709 9.89999809396e-05 0)
(0.00128564911765 9.28680504047e-05 0)
(0.00131958904243 8.84130214095e-05 1.26164993971e-28)
(0.00135689215253 8.4620774461e-05 -1.22422217761e-28)
(0.00137613356689 8.12181451724e-05 0)
(0.00140632644877 7.78813958598e-05 0)
(0.00145561635279 7.68143640941e-05 0)
(0.00145064437939 8.69493980973e-05 0)
(0.00150129804581 9.52668818772e-05 0)
(0.00156967868208 9.34710592748e-05 0)
(0.00157050660442 9.77811123181e-05 0)
(0.00162408267659 0.000108128417908 0)
(0.00169440449184 0.000102743392691 0)
(0.00174383168063 7.52943491375e-05 0)
(0.00177352359946 5.43955155334e-05 0)
(0.00180066394536 5.60924611851e-05 0)
(0.00182727888632 6.0059839291e-05 0)
(0.0018494344138 5.86371735915e-05 0)
(0.00186765603846 5.40894098485e-05 0)
(0.00188253628258 4.54438208548e-05 0)
(0.00189413618005 3.46878770537e-05 0)
(0.0019026814803 2.17625977286e-05 0)
(0.00190785831539 4.52121580235e-06 0)
(0.00190968195281 -1.36699445941e-05 0)
(0.00190749533247 -2.20972418786e-05 0)
(0.00189865226751 -1.61090946608e-05 0)
(0.00186324340193 -4.13753483481e-05 0)
(0.00180788585581 -8.57373883484e-05 0)
(0.00180901767848 -0.00010332717425 0)
(0.0017944688529 -0.000106665695374 0)
(0.00175235860857 -0.000115334699849 0)
(0.00169869247067 -0.000133187573683 0)
(0.00163926649374 -0.000165501209128 0)
(0.00155650467227 -0.000232832247938 0)
(0.00145852789935 -0.000307269004684 0)
(0.00139573169966 -0.000468147416626 0)
(0.00105824841484 -0.000462812488095 0)
(0.000809265909412 -0.000314963047515 0)
(0.000734652970101 -0.000223846287886 0)
(0.000692418134908 -0.000176755347261 0)
(0.000632812592553 -0.000159606839227 0)
(0.00057401483873 -0.00017147159597 0)
(0.000507400439537 -0.00018945912466 0)
(0.000430075622995 -0.000192056686658 0)
(0.000359274538966 -0.000176524872101 0)
(0.000310590759685 -0.000158354915611 0)
(0.000265754962394 -0.000146081041366 0)
(0.000214955681565 -0.000132847200019 0)
(0.000166210052281 -0.000115379711612 0)
(0.000123309244521 -9.75302109284e-05 0)
(9.04871194883e-05 -9.53077334685e-05 0)
(6.07259028517e-05 -0.000113954516051 0)
(1.50676454629e-05 -0.000109581084148 0)
(2.88830576188e-05 0.000266134237239 0)
(3.86686585803e-05 0.000177667724827 0)
(0.000105264705783 0.000277088947353 0)
(0.000195233915796 0.000280469750239 0)
(0.000269768832336 0.000238781603608 0)
(0.000152220203951 9.21412306865e-05 0)
(0.00019048506475 9.48925535102e-05 0)
(0.000362218908954 0.00017689778557 0)
(0.000452482769966 0.000188835878184 0)
(0.00051095072904 0.000173842904365 0)
(0.000565996599486 0.000161954661639 0)
(0.000612343554765 0.000148164741745 0)
(0.000651693011911 0.0001348314454 0)
(0.000679572826051 0.000113929415612 0)
(0.000645399834773 8.19640758172e-05 0)
(0.000615911903311 5.99310974117e-05 0)
(0.000623710723695 5.88095750199e-05 0)
(0.000674224109551 8.8149113281e-05 0)
(0.000780704929872 0.000139140750391 0)
(0.000889180269198 0.000190435894807 0)
(0.000931167843384 0.000201418555653 0)
(0.000975335740417 0.000190135645797 0)
(0.00102616854836 0.000179505907359 0)
(0.00107291018705 0.000171366014186 0)
(0.00111632718489 0.000162414083033 0)
(0.0011574459449 0.000153455078759 0)
(0.0011965217755 0.000145318246339 0)
(0.00123983166165 0.000137341658487 0)
(0.00127343647027 0.000129080830191 0)
(0.00131514343404 0.000122698241964 0)
(0.00133629404804 0.000115976794425 0)
(0.00137802325677 0.000109763135355 0)
(0.00138094146502 0.00010089378162 0)
(0.00141643661989 0.000106115840002 0)
(0.00148253695021 0.000122492827502 0)
(0.00148647691637 0.000136150170471 0)
(0.00155183112512 0.00014323791516 0)
(0.0016228815628 0.000149385862141 0)
(0.00166469250462 0.000156196658504 0)
(0.0017010608971 0.00014464840904 0)
(0.0017373740235 0.000116812173113 0)
(0.00177017150057 9.32482343949e-05 0)
(0.00180001404839 8.45429931432e-05 0)
(0.00182683767969 8.1507951704e-05 0)
(0.00184925146113 7.64974957636e-05 0)
(0.00186774580214 6.83892294231e-05 -1.17200729006e-28)
(0.00188287348569 5.71149359846e-05 1.18081512398e-28)
(0.00189471408849 4.32942397779e-05 0)
(0.00190324842091 2.69452250031e-05 0)
(0.00190817589415 7.99248791848e-06 0)
(0.00190879668667 -1.1140059806e-05 0)
(0.00190298276941 -2.7593785698e-05 0)
(0.00188762363334 -4.62958657853e-05 0)
(0.00186088500022 -7.77775068916e-05 0)
(0.00183140305836 -0.000107458688815 0)
(0.00180528489535 -0.000126218221981 0)
(0.00177133490396 -0.000146489524342 0)
(0.00172037748946 -0.000171588309927 -2.34106126002e-28)
(0.00165168440281 -0.000205867481279 2.71136641211e-28)
(0.00156280379448 -0.000258910329403 0)
(0.00144794889718 -0.000338885591112 0)
(0.00131428054821 -0.000451706217694 0)
(0.00119403537449 -0.000617856259811 0)
(0.00103140630065 -0.000651818964589 0)
(0.000862724790392 -0.000482822121339 0)
(0.000699441080274 -0.00029985511471 0)
(0.000626686577014 -0.00023332572254 0)
(0.000573948261165 -0.000221989199638 0)
(0.000519725967657 -0.000236103995574 0)
(0.000468455045505 -0.000261319619388 0)
(0.000405286986913 -0.000266331285774 0)
(0.000341504145337 -0.000246024762583 0)
(0.000281735394862 -0.000219094898937 0)
(0.00021720008813 -0.000191247678272 0)
(0.000169418862026 -0.000175423377391 0)
(0.000126476177064 -0.000163181765294 0)
(8.43282351131e-05 -0.000139100368821 0)
(4.66852975672e-05 -0.000104476974751 0)
(3.32916173528e-05 -0.000123979165833 0)
(1.08357766473e-05 -0.000138735254555 0)
(1.24718692079e-06 0.00026334381263 0)
(1.88648336381e-05 0.000216535232347 0)
(9.50357146317e-05 0.000363906749284 0)
(0.000165155050609 0.000337234355042 0)
(0.000173836307684 0.000219899956419 0)
(0.000137289395606 0.000123659028395 0)
(0.000237670138053 0.000204473518071 0)
(0.000369347075453 0.000291636169049 0)
(0.000421618752647 0.000265583136418 0)
(0.000485231016738 0.000236467809661 0)
(0.0005439682912 0.000220640007788 0)
(0.000593468082604 0.000196757637862 0)
(0.000600417017401 0.000145546107919 0)
(0.000551767640026 9.10404579008e-05 0)
(0.000567879704518 7.43497251473e-05 0)
(0.000611399788712 8.63883017909e-05 0)
(0.000685689474462 0.000123989480445 0)
(0.000779993088948 0.000181493298063 0)
(0.000851323008457 0.00022609160649 0)
(0.000876788926913 0.000235979301518 0)
(0.000919781504513 0.000240360743712 0)
(0.000973108007162 0.000239887882456 0)
(0.00101931194729 0.00022954674273 0)
(0.00106393533885 0.000216505270998 0)
(0.00110581760407 0.000204388636035 0)
(0.00114457027571 0.000194610758671 0)
(0.00118893106148 0.000185393511735 0)
(0.00121993424251 0.000174766950138 0)
(0.00126828554739 0.000165883989519 0)
(0.00128589933943 0.000154410177283 0)
(0.00133810492745 0.000147113264812 1.2055956895e-28)
(0.0013241719815 0.000134467584281 -1.12930115446e-28)
(0.00138443030886 0.000136463823949 0)
(0.00144096066458 0.000145098251445 0)
(0.00145243248723 0.0001608926972 0)
(0.00152883507873 0.000188155970302 0)
(0.00158132028293 0.000204204761556 0)
(0.00162612395639 0.000201437964898 0)
(0.00166459079737 0.000191878827158 0)
(0.00169981655387 0.000175841636333 0)
(0.00173512052173 0.000151932569739 0)
(0.0017689099537 0.000129283025259 0)
(0.00179976204226 0.00011517237302 0)
(0.00182692601293 0.000106108031606 0)
(0.00184980492776 9.67675671281e-05 0)
(0.00186882492029 8.51035806455e-05 0)
(0.00188437157538 7.064547199e-05 0)
(0.00189645006891 5.34818411312e-05 0)
(0.00190478982756 3.34962598561e-05 0)
(0.00190881911225 1.07166861393e-05 0)
(0.00190752516229 -1.37984824959e-05 0)
(0.00189901189556 -3.93998363852e-05 0)
(0.001881298456 -6.84363105338e-05 0)
(0.00185443558508 -0.000102777924295 0)
(0.00182269549629 -0.000135729004427 0)
(0.00178728258091 -0.000165761101296 0)
(0.00174026629245 -0.000200654118102 0)
(0.00167286317061 -0.00024541181175 0)
(0.00158027806517 -0.000303995099657 0)
(0.00146119795781 -0.000381507515501 0)
(0.00132153935261 -0.000480058416283 0)
(0.00118245300134 -0.000599114696085 0)
(0.00106041984685 -0.000728677402766 0)
(0.000987341312314 -0.000774079747462 0)
(0.000861843918966 -0.000622731958869 0)
(0.000708793319806 -0.000426808223333 0)
(0.000611230977402 -0.000330279151895 0)
(0.000530502049917 -0.000294419309111 0)
(0.000464516333706 -0.000295969596037 0)
(0.000411273184532 -0.000317956592906 0)
(0.000357120335819 -0.00033201211049 0)
(0.00029341392451 -0.00031209568764 0)
(0.000223659189151 -0.000266820747573 0)
(0.000173984715092 -0.000241599594978 0)
(0.000128075092564 -0.000227414700872 0)
(8.5300033011e-05 -0.000208308417111 0)
(5.13957982344e-05 -0.000162219253476 0)
(3.06249162856e-05 -0.000128998578286 0)
(1.72576885375e-05 -0.000149918891638 0)
(3.53698265511e-06 -0.000149900146326 0)
(-1.6999633107e-06 0.000244856131627 0)
(2.36180865054e-05 0.000263202174417 0)
(9.58011179057e-05 0.000413693457281 0)
(0.000133597413197 0.000344527137853 0)
(9.90692827741e-05 0.000170663069 0)
(0.000137086162127 0.000176620350039 0)
(0.000297918070576 0.000332609968616 0)
(0.000352845877007 0.000351235347866 0)
(0.000398342802624 0.000323692813979 0)
(0.0004543413386 0.000299071126762 0)
(0.000511528918127 0.000263588174417 0)
(0.000477363697037 0.000184908468074 0)
(0.000437049443564 0.000114139697169 0)
(0.000476018293196 0.000102268846974 0)
(0.000527797350461 0.000120720637235 0)
(0.0006234142711 0.000166568697542 0)
(0.000726368251982 0.000219004308951 0)
(0.000797586335387 0.000250122513706 0)
(0.000811397643533 0.000254026796045 0)
(0.000860019514824 0.000273982410749 0)
(0.00091855207519 0.000291659276769 0)
(0.000963675700171 0.000288232743386 0)
(0.00100721686266 0.000275422331762 0)
(0.00104895103083 0.000260857803855 0)
(0.0010956425053 0.000248107687117 0)
(0.00113444138748 0.000233086405358 0)
(0.00115591509197 0.000221719516118 0)
(0.0012169244769 0.00021469153327 0)
(0.00122237576042 0.000196689785921 0)
(0.00129010620582 0.000185554553328 0)
(0.00125691521562 0.000165510663233 0)
(0.00133938870862 0.000171898797247 0)
(0.00132013328098 0.000172236109332 0)
(0.00140533334817 0.000192597089181 0)
(0.00148951004368 0.000223529990416 0)
(0.00154341330042 0.000247555530222 0)
(0.00158612145984 0.000250041068723 0)
(0.00162555964512 0.000241342344919 0)
(0.00166258058062 0.000227710008373 0)
(0.00169842326275 0.000209695797093 0)
(0.00173376263141 0.000187000026185 0)
(0.00176782157115 0.00016421113705 0)
(0.0017992366938 0.000146031269116 0)
(0.00182690134537 0.000131610007485 0)
(0.00185048507994 0.000117708165634 0)
(0.00187020066221 0.000102247797117 0)
(0.00188632324639 8.43255643444e-05 0)
(0.00189865454392 6.35130273219e-05 0)
(0.00190660653374 3.93897616806e-05 0)
(0.00190938476545 1.17320664275e-05 0)
(0.00190589755313 -1.92232078048e-05 0)
(0.00189461362704 -5.34083827534e-05 0)
(0.00187428647441 -9.13164754763e-05 0)
(0.00184511051 -0.000132143143454 0)
(0.0018083242787 -0.00017338017056 0)
(0.00176179579206 -0.000217599222966 0)
(0.00169792510739 -0.000272036163451 0)
(0.00160943805534 -0.000341266242455 0)
(0.00149488129961 -0.000426008303136 0)
(0.00135766960101 -0.000522410354731 0)
(0.00121389105042 -0.000625792546899 0)
(0.00108467423517 -0.000724256654968 0)
(0.000921885631466 -0.000768087420447 0)
(0.000949976052101 -0.000893730644528 0)
(0.000770405104163 -0.000716266128252 0)
(0.000642679828868 -0.000517507567421 0)
(0.000565679539717 -0.000423978729117 0)
(0.000482432739653 -0.000373560409393 0)
(0.000407105400664 -0.000357255028878 0)
(0.000355904940355 -0.000382884150687 0)
(0.000302100012506 -0.000402453802317 0)
(0.000233192441046 -0.000359131751685 0)
(0.000178425805728 -0.000315454440184 0)
(0.000131681595294 -0.000295641853092 0)
(8.35544948801e-05 -0.000274402442923 0)
(4.96565125043e-05 -0.000241474314036 0)
(2.67258823495e-05 -0.000177335047649 0)
(1.24294345954e-05 -0.000145410785377 0)
(3.79388544889e-06 -0.000160501817085 0)
(3.38406984573e-07 -0.000153862564282 0)
(7.78062692787e-06 0.000265239765155 0)
(5.50850480365e-05 0.000343340448065 0)
(0.000124676712902 0.000448712703617 0)
(0.000136835983321 0.000418542865139 0)
(9.13773165518e-05 0.000213673064486 0)
(0.000197244024173 0.000311753282144 0)
(0.000305409188421 0.000405796635336 0)
(0.000334344107302 0.000393767892615 0)
(0.00037769153874 0.000368475596747 0)
(0.000407216823112 0.000339293630942 0)
(0.000477735635864 0.000290007291189 -2.87552494231e-28)
(0.000369682734462 0.000151374812297 1.69625726204e-28)
(0.000426776779102 0.000140750668098 0)
(0.000460737646649 0.000153570269142 0)
(0.000545073729863 0.000203289100853 0)
(0.000657803841193 0.000271664826424 0)
(0.000733350720657 0.000296198284633 0)
(0.000732631577069 0.000275637298676 0)
(0.000786397448789 0.000295212967476 0)
(0.00085840452892 0.000331682001129 0)
(0.000902974957585 0.000341008191351 0)
(0.000949102013662 0.000333956516864 0)
(0.000994177011508 0.000320934836386 0)
(0.00103753383239 0.000304096627199 0)
(0.00107156029751 0.000283959303353 0)
(0.00109654711089 0.000264754749782 0)
(0.00115334918535 0.000257884261505 0)
(0.00114709526729 0.00024417506287 0)
(0.00123123596743 0.000233450222953 0)
(0.00118921984071 0.000195564561101 0)
(0.0012788679274 0.000200868488295 0)
(0.00126657476678 0.000206086679892 -1.09270777375e-28)
(0.00135248508019 0.000226441128987 1.14161072075e-28)
(0.00140646847587 0.00026162978654 0)
(0.00150046383222 0.000294612811871 0)
(0.00154645963814 0.000298860289511 0)
(0.0015845973281 0.000291110420175 0)
(0.00162244110302 0.000278971148418 0)
(0.00166024594587 0.000263675662507 0)
(0.00169711042907 0.00024474208675 0)
(0.00173275538268 0.000222138296548 0)
(0.00176705312781 0.000198554341588 0)
(0.00179887597535 0.000177093046149 0)
(0.00182712940712 0.000158046942719 0)
(0.00185149101832 0.000139673202331 0)
(0.00187206486227 0.00012021969034 0)
(0.00188887435229 9.84662593614e-05 0)
(0.00190141750575 7.34789015576e-05 0)
(0.0019088344323 4.44698875976e-05 0)
(0.00191019596747 1.09382538388e-05 0)
(0.00190442486084 -2.72472318485e-05 0)
(0.00189023147323 -6.99983610744e-05 0)
(0.00186660563828 -0.00011694973598 0)
(0.00183307124088 -0.000167317332786 0)
(0.00178853290668 -0.000221609826771 0)
(0.00172887606412 -0.000284545176846 0)
(0.00164732349766 -0.000362177858161 0)
(0.00154005556714 -0.000455630826965 0)
(0.00141144463658 -0.000559132532 0)
(0.001275400638 -0.000662622830183 0)
(0.00114621975065 -0.000755575006687 0)
(0.0010334771591 -0.000831883134879 0)
(0.000946598529829 -0.000905370329577 0)
(0.000900127585053 -0.000973505652864 0)
(0.000746822809675 -0.000829709190423 0)
(0.000565345042971 -0.000588511867842 0)
(0.000511504410033 -0.000507585533823 0)
(0.000439267648842 -0.000462943592187 0)
(0.000363243217695 -0.000441465869965 0)
(0.000302356952131 -0.000455552342548 0)
(0.000245313782136 -0.000451474197708 0)
(0.000187291010743 -0.000402046997503 0)
(0.000138312338745 -0.000373490229765 0)
(8.445402538e-05 -0.000348623777383 0)
(3.98597789261e-05 -0.000315631977527 0)
(1.48754737514e-05 -0.000254586272495 0)
(1.0480375553e-06 -0.000196377633613 0)
(-1.05517811911e-05 -0.000156108051446 0)
(-1.26023074148e-05 -0.000159792457934 0)
(-4.26679259608e-06 -0.000153725629814 0)
(1.688469284e-05 0.000308077623289 0)
(7.85459993804e-05 0.000420098674701 0)
(0.000138818286938 0.000464176399655 0)
(8.44040100644e-05 0.000277575566216 0)
(9.45976051349e-05 0.000265000036619 0)
(0.000229321669575 0.000432947974848 0)
(0.000278099236055 0.000447297621768 0)
(0.000318689986613 0.000435259674029 0)
(0.000340905978324 0.0003980795191 0)
(0.000386290117205 0.00037000467772 0)
(0.000312944648537 0.000221266117658 0)
(0.000358492648666 0.000178939272312 0)
(0.0004087560808 0.000184572752766 0)
(0.000453293349836 0.000216562173793 0)
(0.000577301009328 0.000304419545527 0)
(0.000664754311755 0.000348181216021 0)
(0.00065775890136 0.000314671572231 0)
(0.000701561162902 0.000317432714413 0)
(0.000784089651686 0.000361811578337 0)
(0.000841826762969 0.000386617892529 0)
(0.000883190204371 0.000386624657749 0)
(0.000925435303519 0.0003778633971 0)
(0.000974673924068 0.000367622533819 0)
(0.00101685117431 0.000348327968408 0)
(0.00106381297688 0.000319963733332 0)
(0.0010698712139 0.000300673547489 0)
(0.00113896313841 0.000292628683927 0)
(0.0011483001568 0.000272008879876 0)
(0.00114837066193 0.000247677230096 0)
(0.00119066080524 0.00023910724246 0)
(0.00129052917114 0.000249924489531 0)
(0.00128895269419 0.000247043691459 0)
(0.00132382293933 0.000284191203069 0)
(0.00144963315206 0.000340046260692 0)
(0.00149827404647 0.000355041204066 0)
(0.00154059951017 0.000344785501423 0)
(0.0015802764538 0.000331101757035 0)
(0.00161882711399 0.000316989487562 0)
(0.00165755144621 0.00030073880668 0)
(0.00169554792433 0.000280950933872 0)
(0.00173189860242 0.000257665035261 0)
(0.0017665015605 0.0002327525087 0)
(0.00179877519373 0.000208398892251 0)
(0.00182777353231 0.000185305766998 0)
(0.00185307189395 0.000162668859796 -1.13285969975e-28)
(0.0018746474394 0.000139094585661 1.12979747649e-28)
(0.00189222870238 0.000113104599498 0)
(0.0019049898693 8.33141605284e-05 0)
(0.00191184484418 4.86244499206e-05 0)
(0.00191178211938 8.34229490801e-06 0)
(0.00190370517327 -3.78192755925e-05 0)
(0.00188638396483 -8.97827959973e-05 0)
(0.00185869474367 -0.000147219520493 0)
(0.00181924525066 -0.000210368021789 0)
(0.00176525007703 -0.000281742275698 0)
(0.00169192629591 -0.000366341382295 0)
(0.00159489181898 -0.000467186373881 0)
(0.00147554451939 -0.000580082754718 0)
(0.0013441002587 -0.000693809948959 0)
(0.00121442248998 -0.000794234693116 0)
(0.00109527871252 -0.000869320318446 0)
(0.000997365404618 -0.000924108262307 0)
(0.000925002792042 -0.00097432998309 0)
(0.000867073516972 -0.00102767157979 0)
(0.000855059983071 -0.0010563636881 0)
(0.000567616457651 -0.000718900169533 0)
(0.00044570463496 -0.000587005239403 0)
(0.000374453151579 -0.000537606896 0)
(0.000300813684322 -0.000508452453549 0)
(0.000245818072041 -0.00050708594613 0)
(0.000199332097354 -0.000489710044731 0)
(0.000149026733363 -0.00045585305568 0)
(9.20623648061e-05 -0.000434644888166 0)
(3.41733803989e-05 -0.000400954753502 0)
(-6.20567379259e-06 -0.00034686815949 0)
(-2.56492366946e-05 -0.00026889852112 0)
(-3.70739510592e-05 -0.000210943593268 0)
(-4.13830300275e-05 -0.000163900665076 0)
(-3.46277050904e-05 -0.000148777010107 0)
(-1.27956581758e-05 -0.000141091118501 0)
(2.37384713361e-05 0.000362409599589 0)
(8.92397378896e-05 0.000481867121906 0)
(0.000113456523609 0.000474910319847 0)
(7.91684781563e-05 0.00030344746881 0)
(0.000133302740718 0.000350214808247 0)
(0.000234922592103 0.000489679209121 0)
(0.000251529237863 0.000485347899952 0)
(0.000303369951292 0.000473067702565 0)
(0.000287860909975 0.000393770329587 0)
(0.000376676136946 0.000414592426383 0)
(0.000295418290225 0.000243464868072 0)
(0.000356990269711 0.000226235732503 0)
(0.000396385781357 0.000236828660505 0)
(0.000478173708956 0.000307110089962 0)
(0.000585230201375 0.000394275061644 0)
(0.000640359541072 0.000395172457125 0)
(0.000630498773978 0.000350599410645 0)
(0.000695034727658 0.000380110226249 0)
(0.000766347370537 0.000423755015981 0)
(0.000817099194767 0.000437170422065 0)
(0.000864022366219 0.000432604473948 0)
(0.000901442853744 0.000419645576931 0)
(0.000947175312321 0.000408189813169 0)
(0.000975387115104 0.000385689270707 0)
(0.000996998329626 0.000345174064769 0)
(0.00107133876838 0.000337230115405 0)
(0.00103810912997 0.000314652175083 0)
(0.00116342741259 0.00031200133103 0)
(0.00112347119473 0.00028593914048 0)
(0.00124248643187 0.000300836116841 0)
(0.00120340507393 0.000280246449787 0)
(0.00132518896154 0.000309083757358 0)
(0.00138733466676 0.000361343230656 -1.2270445341e-28)
(0.00144676594186 0.00040145587406 1.25231652335e-28)
(0.00149142203037 0.000402051574561 0)
(0.00153344004022 0.000388201967718 0)
(0.00157496171722 0.000372343129416 0)
(0.00161496904559 0.000356449814961 0)
(0.00165454202314 0.000339024626252 0)
(0.00169344271409 0.000318258578804 0)
(0.00173078211543 0.000293856014943 0)
(0.00176611961429 0.00026724016968 0)
(0.00179903036664 0.000240167787596 0)
(0.00182891927138 0.000213462301301 0)
(0.00185541272018 0.00018679034625 0)
(0.00187819418541 0.000158974425025 0)
(0.00189665777688 0.00012832929923 0)
(0.00190974950345 9.31033395777e-05 0)
(0.00191622808297 5.1945042319e-05 0)
(0.00191492815491 4.05189583247e-06 0)
(0.00190466149021 -5.09954928391e-05 0)
(0.00188413769543 -0.000113337739301 0)
(0.00185193117778 -0.000183265379739 0)
(0.00180575775466 -0.000262224078255 0)
(0.00174180309569 -0.000353524668428 0)
(0.00165589753678 -0.000460377677966 0)
(0.00154732205278 -0.000580988716398 0)
(0.00142287124778 -0.000706798195887 0)
(0.0012947169923 -0.000826642494528 0)
(0.00116911697633 -0.000924378456924 0)
(0.00105029913323 -0.000980470057313 0)
(0.000950379537697 -0.00100557100484 0)
(0.00087963451451 -0.00103207278921 0)
(0.000831420160412 -0.00106891564578 0)
(0.000827569413031 -0.00110860039394 0)
(0.000708972802486 -0.000987562301632 0)
(0.000418220238024 -0.000680748260475 0)
(0.000304271547151 -0.000616833215932 0)
(0.00024692649007 -0.000577949088363 0)
(0.000203273935991 -0.000550420654083 0)
(0.000163114648251 -0.000530017721415 0)
(0.000110347410224 -0.000519767998139 0)
(4.24616011145e-05 -0.00050133643776 0)
(-2.01069732304e-05 -0.00045275932323 0)
(-6.08371144809e-05 -0.000373546167924 0)
(-8.13007023295e-05 -0.000286500314045 0)
(-8.97979446375e-05 -0.00021717227384 0)
(-8.348834964e-05 -0.000161206384656 0)
(-6.01245214879e-05 -0.000125281614977 0)
(-2.21855620209e-05 -0.000106712553167 0)
(2.90702841039e-05 0.000430014182208 0)
(9.90465894452e-05 0.000526641371265 0)
(0.000102050281298 0.000467173351057 0)
(7.91483839468e-05 0.000325307765752 0)
(0.000171547062689 0.000473206427029 0)