/*--------------------------------*- C++ -*----------------------------------*\
| =========                 |                                                 |
| \\      /  F ield         | OpenFOAM: The Open Source CFD Toolbox           |
|  \\    /   O peration     | Version:  v1806                                 |
|   \\  /    A nd           | Web:      www.OpenFOAM.com                      |
|    \\/     M anipulation  |                                                 |
\*---------------------------------------------------------------------------*/
FoamFile
{
    version     2.0;
    format      ascii;
    class       surfaceScalarField;
    location    "697";
    object      phi;
}
// * * * * * * * * * * * * * * * * * * * * * * * * * * * * * * * * * * * * * //

dimensions      [0 3 -1 0 0 0 0];
oriented        oriented;


internalField   nonuniform List<scalar> 
12640
(
-2.48326563187e-07
2.49151215472e-07
-4.68035121981e-07
2.20385652572e-07
-6.54760711599e-07
1.87228856634e-07
-8.08875584799e-07
1.54521419516e-07
-9.22097445121e-07
1.1357939312e-07
-9.93995137547e-07
7.22490161415e-08
-1.04521260435e-06
5.1543851526e-08
-1.11957361762e-06
7.46556089834e-08
-1.2182581856e-06
9.89534808988e-08
-1.310188426e-06
9.21656957019e-08
-1.39359442032e-06
8.36036107857e-08
-1.47772821288e-06
8.43121491157e-08
-1.5517160504e-06
7.41507148126e-08
-1.61164911644e-06
6.0085388648e-08
-1.6654871604e-06
5.39803051723e-08
-1.72587963414e-06
6.05307328804e-08
-1.78757912797e-06
6.18294328307e-08
-1.83886939753e-06
5.14139774045e-08
-1.87860574757e-06
3.98469687984e-08
-1.91533595645e-06
3.6834134361e-08
-1.96386964599e-06
4.86317092311e-08
-2.0244000026e-06
6.06259445845e-08
-2.08577344825e-06
6.14630004364e-08
-2.14262127934e-06
5.69338308109e-08
-2.19353442584e-06
5.0992875492e-08
-2.23885434429e-06
4.53975732468e-08
-2.28056364945e-06
4.17826940277e-08
-2.31776268676e-06
3.72717330519e-08
-2.34957409812e-06
3.18800699586e-08
-2.37715624239e-06
2.76502283911e-08
-2.40308973655e-06
2.59974908535e-08
-2.42645927891e-06
2.34337753963e-08
-2.44569112944e-06
1.92942692227e-08
-2.46443713655e-06
1.88083066507e-08
-2.48304277382e-06
1.86641641583e-08
-2.50034679017e-06
1.73632341782e-08
-2.51765255956e-06
1.73608396549e-08
-2.53325385901e-06
1.56545127973e-08
-2.54480390989e-06
1.15995971949e-08
-2.55274528241e-06
7.9916499562e-09
-2.56054319268e-06
7.84488829215e-09
-2.56513413843e-06
4.63704899971e-09
-2.56032477765e-06
-4.76752925331e-09
-2.54864067348e-06
-1.16432027958e-08
-2.53301009424e-06
-1.55934622548e-08
-2.51275780079e-06
-2.0215069452e-08
-2.48722602634e-06
-2.54978451222e-08
-2.45519842332e-06
-3.19932916097e-08
-2.41649217913e-06
-3.86749267328e-08
-2.37438171826e-06
-4.20782930898e-08
-2.33261963425e-06
-4.17334639603e-08
-2.28561608214e-06
-4.69733418114e-08
-2.22125042259e-06
-6.43362725063e-08
-2.14222300684e-06
-7.89955130115e-08
-2.04910723375e-06
-9.30849149866e-08
-1.93774283691e-06
-1.11332182719e-07
-1.82106548931e-06
-1.16648364466e-07
-1.70248630432e-06
-1.1855054655e-07
-1.5667953637e-06
-1.35664306005e-07
-1.41261699685e-06
-1.54154213612e-07
-1.24789551915e-06
-1.64697147327e-07
-1.05187278006e-06
-1.95983455333e-07
-7.74708269091e-07
-2.77089964728e-07
-4.78352268844e-07
-2.96260283022e-07
-2.65184393148e-07
-2.13102625623e-07
-1.23731643889e-07
-1.41402750917e-07
-1.29351890694e-08
-1.10752670929e-07
8.60574075619e-08
-9.89480148628e-08
1.75455607921e-07
-8.934226029e-08
2.51843024122e-07
-7.63239387983e-08
3.07544975978e-07
-5.56322081072e-08
3.3677145089e-07
-2.9159370096e-08
3.39068653783e-07
-2.22803364761e-09
3.1361727685e-07
2.55233959013e-08
2.75467821293e-07
3.82202354833e-08
2.3027131607e-07
4.52597092722e-08
1.92355462754e-07
3.79740689154e-08
1.39993499618e-07
5.24232934821e-08
8.65706500451e-08
5.35614269592e-08
8.66390543864e-08
-1.3106399727e-07
3.80663487282e-07
-3.03467252849e-07
3.93272726842e-07
-4.67592527447e-07
3.51750283141e-07
-6.33513846988e-07
3.2076721341e-07
-8.33504449968e-07
3.13910168829e-07
-9.81729817837e-07
2.20804799321e-07
-1.06628263255e-06
1.36425530901e-07
-1.14586161664e-06
1.5454033031e-07
-1.23300503356e-06
1.86372030516e-07
-1.3258559264e-06
1.85249522813e-07
-1.41315565899e-06
1.7111143726e-07
-1.48575307525e-06
1.57087606901e-07
-1.55005275527e-06
1.3861960577e-07
-1.60977887752e-06
1.19968974937e-07
-1.66643387069e-06
1.10793436758e-07
-1.7285103366e-06
1.22751444966e-07
-1.78597833795e-06
1.19433445049e-07
-1.81908398759e-06
8.46337687839e-08
-1.84761281667e-06
6.84845017087e-08
-1.89161044415e-06
8.09304693931e-08
-1.95128719961e-06
1.08410841648e-07
-2.02261148773e-06
1.32044429931e-07
-2.08980676041e-06
1.28753876337e-07
-2.14326580554e-06
1.10477434728e-07
-2.1914572728e-06
9.92698698676e-08
-2.23973509116e-06
9.37516345811e-08
-2.28208459109e-06
8.42114450054e-08
-2.31790053616e-06
7.31585600089e-08
-2.34954237121e-06
6.359624467e-08
-2.37769871606e-06
5.58728910509e-08
-2.40205543668e-06
5.042450728e-08
-2.42319204865e-06
4.46339931637e-08
-2.44034481904e-06
3.65142677187e-08
-2.45773865112e-06
3.62627617831e-08
-2.47905693687e-06
4.00474912878e-08
-2.49725055244e-06
3.5613133204e-08
-2.51335135682e-06
3.35211813334e-08
-2.53199619693e-06
3.43506306843e-08
-2.55049106454e-06
3.0149909903e-08
-2.56136382959e-06
1.89128063878e-08
-2.55176151763e-06
-1.70453220768e-09
-2.53006763813e-06
-1.70128237864e-08
-2.51598818726e-06
-1.88001949129e-08
-2.50759898759e-06
-1.99940173899e-08
-2.49779218003e-06
-2.53582682192e-08
-2.48494324753e-06
-3.30293911745e-08
-2.46693430742e-06
-4.34679694798e-08
-2.44357126735e-06
-5.53243119977e-08
-2.41367903075e-06
-6.85309564053e-08
-2.37145595917e-06
-8.42714908008e-08
-2.31245142294e-06
-1.00703894816e-07
-2.24787058763e-06
-1.11525723783e-07
-2.19648940984e-06
-1.15684353972e-07
-2.13604291948e-06
-1.39412549536e-07
-2.05119092941e-06
-1.77904271352e-07
-1.95989145699e-06
-2.02603607473e-07
-1.85801402229e-06
-2.18495010594e-07
-1.73668590417e-06
-2.39852184043e-07
-1.6019682386e-06
-2.70354726988e-07
-1.44686420135e-06
-3.09235630799e-07
-1.24850638496e-06
-3.63017871519e-07
-1.02163066251e-06
-4.22808228468e-07
-7.53597423221e-07
-5.45043350471e-07
-4.80240893504e-07
-5.6953959722e-07
-2.64859662801e-07
-4.28414960997e-07
-1.11182532493e-07
-2.95033414511e-07
4.4571825319e-09
-2.26349686269e-07
1.04808897394e-07
-1.9925182692e-07
1.94584915939e-07
-1.79066878014e-07
2.69528383953e-07
-1.51205339849e-07
3.19444957883e-07
-1.05486571074e-07
3.40381559564e-07
-5.00338013838e-08
3.43466082864e-07
-5.24746924354e-09
3.37123858172e-07
3.19356296174e-08
3.12862588256e-07
6.25531830443e-08
2.77716877309e-07
8.04755000859e-08
2.28235362014e-07
8.7535084735e-08
1.73983988726e-07
1.06765420018e-07
9.3667982022e-08
1.33964806759e-07
1.80433993776e-07
-1.67769887363e-07
5.4882908056e-07
-2.56146798941e-07
4.82047182693e-07
-4.51421135281e-07
5.47408039967e-07
-6.71492613372e-07
5.41204961916e-07
-8.70978106088e-07
5.13726761869e-07
-9.75878879726e-07
3.2597866719e-07
-1.02889704302e-06
1.89716085678e-07
-1.1169964226e-06
2.42926040758e-07
-1.21887155375e-06
2.88507912509e-07
-1.31751524901e-06
2.84122985845e-07
-1.40814021767e-06
2.61934266104e-07
-1.48447232858e-06
2.33603748168e-07
-1.5493769532e-06
2.0370010162e-07
-1.61066450388e-06
1.81427106601e-07
-1.65849157375e-06
1.58780194464e-07
-1.65272649338e-06
1.17128585371e-07
-1.61663344732e-06
8.34547380448e-08
-1.62716931682e-06
9.52718521723e-08
-1.70158194875e-06
1.42994118272e-07
-1.82791764599e-06
2.07366587971e-07
-1.95194412307e-06
2.32538741666e-07
-2.02880616352e-06
2.09006560672e-07
-2.08434420195e-06
1.84383866529e-07
-2.14227656957e-06
1.68498635223e-07
-2.19603830287e-06
1.53113949492e-07
-2.24061729486e-06
1.38411109437e-07
-2.28000504963e-06
1.2367445362e-07
-2.31587706994e-06
1.09105491451e-07
-2.34751417964e-06
9.53040511648e-08
-2.37576288103e-06
8.41926843677e-08
-2.39865392235e-06
7.33829638989e-08
-2.41859620432e-06
6.46430709619e-08
-2.43847102089e-06
5.64541537955e-08
-2.44975081585e-06
4.76075838881e-08
-2.46483996451e-06
5.51963328037e-08
-2.49207937211e-06
6.2912644694e-08
-2.51111383046e-06
5.26118740103e-08
-2.52563108205e-06
4.89232868289e-08
-2.54600949453e-06
5.05803806137e-08
-2.5620495369e-06
3.50063712385e-08
-2.57009075634e-06
6.38655536443e-09
-2.57099364833e-06
-1.60608278137e-08
-2.56405198469e-06
-2.56976318786e-08
-2.55202315157e-06
-3.19789146167e-08
-2.53621452981e-06
-4.11268592158e-08
-2.51586622319e-06
-5.33374159118e-08
-2.49103543961e-06
-6.82619738942e-08
-2.46115038405e-06
-8.51721784461e-08
-2.42557670004e-06
-1.0407050418e-07
-2.38470180554e-06
-1.25111170724e-07
-2.3389615461e-06
-1.46411527434e-07
-2.28476681445e-06
-1.65686566047e-07
-2.21287344649e-06
-1.87545443271e-07
-2.13060755413e-06
-2.21645171532e-07
-2.04985470057e-06
-2.58626110002e-07
-1.96115529701e-06
-2.91272596112e-07
-1.85360476598e-06
-3.26016727577e-07
-1.72685184392e-06
-3.66576930676e-07
-1.58158093435e-06
-4.15598465721e-07
-1.41379239371e-06
-4.76991147656e-07
-1.2217969089e-06
-5.54972999805e-07
-9.78648420364e-07
-6.6589927345e-07
-7.07953128833e-07
-8.1566489398e-07
-4.47087360948e-07
-8.30333458285e-07
-2.32602694744e-07
-6.42848755923e-07
-8.40424822669e-08
-4.43550366206e-07
3.76351983599e-08
-3.47983301938e-07
1.37321242123e-07
-2.98900495744e-07
2.19534186351e-07
-2.61228411831e-07
2.85978419525e-07
-2.17604050469e-07
3.37427259306e-07
-1.56881733727e-07
3.76825552917e-07
-8.93751994247e-08
3.95339738811e-07
-2.36984648392e-08
3.81282926994e-07
4.60612873815e-08
3.39436382126e-07
1.04471545907e-07
2.8497319771e-07
1.35014133508e-07
2.2984996034e-07
1.4272127353e-07
1.78538323432e-07
1.58143954952e-07
7.9957348259e-08
2.32720912594e-07
2.60405337084e-07
-1.2108125904e-07
6.70246979176e-07
-1.65363037941e-07
5.26593912921e-07
-3.85565363424e-07
7.67964382931e-07
-5.66099817503e-07
7.22089126217e-07
-5.85194702245e-07
5.33080969118e-07
-5.27122454823e-07
2.68042545272e-07
-7.17115967377e-07
3.79887982441e-07
-9.9849725695e-07
5.2455951689e-07
-1.17620173796e-06
4.66459880676e-07
-1.29624810451e-06
4.04388979559e-07
-1.39865893169e-06
3.6454699407e-07
-1.48467495288e-06
3.19809358039e-07
-1.54499773396e-06
2.64201964816e-07
-1.54844279396e-06
1.85036811695e-07
-1.50690538072e-06
1.17385994154e-07
-1.49356404804e-06
1.03907251741e-07
-1.55013787202e-06
1.40135954418e-07
-1.67026682946e-06
2.15504039672e-07
-1.81152267831e-06
2.84356846618e-07
-1.90891476205e-06
3.04865946397e-07
-1.96773224695e-06
2.91460530694e-07
-2.02897145199e-06
2.70343894865e-07
-2.09067230322e-06
2.46178517316e-07
-2.1446966099e-06
2.22610328007e-07
-2.19286541227e-06
2.01366568369e-07
-2.23621262295e-06
1.81836972544e-07
-2.27652266696e-06
1.64061372869e-07
-2.31274377147e-06
1.45399446732e-07
-2.34506894845e-06
1.27701477404e-07
-2.37153187416e-06
1.10725352909e-07
-2.39603250855e-06
9.79524679301e-08
-2.41334756337e-06
8.20249773086e-08
-2.42468169062e-06
6.78529114916e-08
-2.44979017539e-06
7.27783119116e-08
-2.47193164051e-06
7.73996228134e-08
-2.4912129685e-06
8.2252259862e-08
-2.52414378054e-06
8.56002551701e-08
-2.5511166539e-06
7.59516234201e-08
-2.56179886567e-06
6.13179296773e-08
-2.56633185321e-06
3.95918052156e-08
-2.57086264816e-06
1.09686204669e-08
-2.5726125672e-06
-1.42629799397e-08
-2.5676018506e-06
-3.06613648432e-08
-2.55633624196e-06
-4.32003815944e-08
-2.54026371745e-06
-5.71558651816e-08
-2.51962230151e-06
-7.39379263787e-08
-2.49438669135e-06
-9.34572714956e-08
-2.46418008919e-06
-1.15340957096e-07
-2.42863696799e-06
-1.39575970091e-07
-2.38763033559e-06
-1.66082070627e-07
-2.34005794839e-06
-1.93947226112e-07
-2.28266248891e-06
-2.23046416329e-07
-2.21336439042e-06
-2.56807189944e-07
-2.1367875368e-06
-2.98187599494e-07
-2.05283074007e-06
-3.4255014616e-07
-1.95564990837e-06
-3.88421928525e-07
-1.84122001736e-06
-4.40416234335e-07
-1.70627461846e-06
-5.01491324132e-07
-1.54703532628e-06
-5.74803574545e-07
-1.35854252277e-06
-6.65443835833e-07
-1.13462486977e-06
-7.78837908969e-07
-8.84480453665e-07
-9.15983411682e-07
-6.70224326861e-07
-1.02986533938e-06
-4.54496173469e-07
-1.04601231961e-06
-2.18161413681e-07
-8.79133270668e-07
-4.6261548366e-08
-6.15403881037e-07
8.01494441907e-08
-4.74360929648e-07
1.84549992194e-07
-4.03255320162e-07
2.7243596385e-07
-3.4908743237e-07
3.50210283207e-07
-2.95332715788e-07
4.16243655611e-07
-2.22869648224e-07
4.48661025912e-07
-1.21737744056e-07
4.28714842928e-07
-3.69527290703e-09
3.79473511296e-07
9.53592416692e-08
3.23578499399e-07
1.60425492777e-07
2.54527728285e-07
2.04124731199e-07
1.79362603183e-07
2.17952840941e-07
1.21986905701e-07
2.15591291822e-07
6.30671181603e-08
2.91651290999e-07
3.23549017399e-07
-2.76225951919e-08
6.98058319177e-07
-1.46929716594e-07
6.46110625657e-07
-3.25923314355e-07
9.4725288885e-07
-4.61525904534e-07
8.57965002003e-07
-4.46350460145e-07
5.18087733763e-07
-5.52997169438e-07
3.74824845892e-07
-7.87889842951e-07
6.14976256876e-07
-9.67367145086e-07
7.04268849327e-07
-1.11805738026e-06
6.17376380014e-07
-1.25230402992e-06
5.38848655319e-07
-1.37253696926e-06
4.84984073396e-07
-1.43989409035e-06
3.87347971149e-07
-1.42506514729e-06
2.49532143913e-07
-1.40299099856e-06
1.63099210749e-07
-1.44575839159e-06
1.60275939565e-07
-1.54610583692e-06
2.04372337112e-07
-1.67825932096e-06
2.72405595575e-07
-1.79212300522e-06
3.29483417322e-07
-1.85764225553e-06
3.49988852473e-07
-1.90551245694e-06
3.52844961788e-07
-1.96581116198e-06
3.51863465821e-07
-2.02969859047e-06
3.34330663316e-07
-2.08877473049e-06
3.0534763269e-07
-2.14135429475e-06
2.75277985836e-07
-2.18843513446e-06
2.48530307223e-07
-2.23256906887e-06
2.26050668585e-07
-2.27145455648e-06
2.03021762459e-07
-2.30831144547e-06
1.82329972801e-07
-2.33873522828e-06
1.58197358842e-07
-2.36500129823e-06
1.37062448834e-07
-2.38179092271e-06
1.14810202247e-07
-2.40338995604e-06
1.03689238028e-07
-2.43645840714e-06
1.00984792974e-07
-2.45657065762e-06
9.2952822958e-08
-2.48268343975e-06
1.03572586076e-07
-2.51614647066e-06
1.15775113287e-07
-2.54005368687e-06
1.09565856459e-07
-2.55638756102e-06
9.2343036432e-08
-2.56576149811e-06
7.07471636911e-08
-2.57097366588e-06
4.4857862195e-08
-2.57513030003e-06
1.51767083296e-08
-2.5766417181e-06
-1.27015351973e-08
-2.57234586071e-06
-3.49093830223e-08
-2.56173886881e-06
-5.37605006976e-08
-2.54576639778e-06
-7.30832767553e-08
-2.52496570928e-06
-9.46945020588e-08
-2.49941151543e-06
-1.18969283895e-07
-2.46884686582e-06
-1.45864273534e-07
-2.43290472964e-06
-1.75478408911e-07
-2.39104397976e-06
-2.07902605094e-07
-2.34188215202e-06
-2.43069862295e-07
-2.28323397394e-06
-2.81654111768e-07
-2.21436955639e-06
-3.25632629129e-07
-2.13671306942e-06
-3.75806279906e-07
-2.04850743245e-06
-4.30719148273e-07
-1.94488009255e-06
-4.92014308805e-07
-1.82101571611e-06
-5.64243741909e-07
-1.67158731018e-06
-6.50880354226e-07
-1.4912546462e-06
-7.55092666651e-07
-1.27755982478e-06
-8.79087921187e-07
-1.038362967e-06
-1.01798133276e-06
-8.0755751046e-07
-1.14673886381e-06
-6.23450373779e-07
-1.21392538657e-06
-4.09735433965e-07
-1.25967554599e-06
-1.96747080248e-07
-1.09207201106e-06
-1.56326779575e-08
-7.96483651672e-07
1.30826626707e-07
-6.20774632383e-07
2.47740391306e-07
-5.20154845218e-07
3.44359738497e-07
-4.45665116858e-07
4.33614341072e-07
-3.84561121355e-07
4.98199324183e-07
-2.87409978854e-07
4.95745673555e-07
-1.1924084582e-07
4.49642639855e-07
4.24485976763e-08
3.9170525317e-07
1.53338380086e-07
3.19029454527e-07
2.33150191495e-07
2.34857165734e-07
2.88352490427e-07
1.70019399016e-07
2.82823635932e-07
1.1000936239e-07
2.75620541349e-07
4.75430470304e-08
3.54239192042e-07
3.7108300629e-07
-1.49086250952e-08
7.13116385879e-07
-1.76895819417e-07
8.08281131562e-07
-2.79839279519e-07
1.05043920198e-06
-3.47748451685e-07
9.26083952807e-07
-3.47882441923e-07
5.18346375157e-07
-5.97127649343e-07
6.24228913806e-07
-8.28238416419e-07
8.46297646815e-07
-9.42922716883e-07
8.1916445608e-07
-1.07105105544e-06
7.45712338101e-07
-1.19094019384e-06
6.5895012733e-07
-1.2560274383e-06
5.50261810785e-07
-1.22047902405e-06
3.51949702677e-07
-1.21831989104e-06
2.47496330667e-07
-1.29773974503e-06
2.42634079398e-07
-1.42590448357e-06
2.88557519981e-07
-1.58639178964e-06
3.649815494e-07
-1.72069945264e-06
4.06836678397e-07
-1.79086048333e-06
3.99764308907e-07
-1.83770018135e-06
3.96943020527e-07
-1.90255965474e-06
4.17814978182e-07
-1.96862034777e-06
4.18029685442e-07
-2.02745454956e-06
3.93263952852e-07
-2.0834091212e-06
3.61395462195e-07
-2.1374373017e-06
3.29393370652e-07
-2.18577853793e-06
2.96954500087e-07
-2.22243599395e-06
2.62786341108e-07
-2.26223886089e-06
2.42900545947e-07
-2.29722286517e-06
2.17387495196e-07
-2.32837367394e-06
1.89419664443e-07
-2.34468128044e-06
1.53439253693e-07
-2.36312841503e-06
1.33324313113e-07
-2.38835629802e-06
1.28981375392e-07
-2.41328365645e-06
1.25973831134e-07
-2.46143188639e-06
1.41162235509e-07
-2.50440218823e-06
1.46604280403e-07
-2.53108229906e-06
1.42516064077e-07
-2.54881765144e-06
1.27361122157e-07
-2.56183627595e-06
1.05419987757e-07
-2.57084283369e-06
7.98105484194e-08
-2.5768441825e-06
5.09139563351e-08
-2.58099377629e-06
1.93793097608e-08
-2.58218661763e-06
-1.14574230202e-08
-2.57816050296e-06
-3.88852426749e-08
-2.56807388512e-06
-6.37980378324e-08
-2.55236411424e-06
-8.87448599336e-08
-2.53152354223e-06
-1.15488244715e-07
-2.50568660441e-06
-1.44760284119e-07
-2.47463627496e-06
-1.76869856798e-07
-2.43793346825e-06
-2.12136340767e-07
-2.39485817769e-06
-2.50934011821e-07
-2.34415333796e-06
-2.93728921722e-07
-2.28433607937e-06
-3.41427464565e-07
-2.21464954197e-06
-3.9527508766e-07
-2.13441407004e-06
-4.56000167358e-07
-2.04046469762e-06
-5.24629083579e-07
-1.92752355005e-06
-6.0491415767e-07
-1.78985169028e-06
-7.01872153911e-07
-1.62188541646e-06
-8.1879868805e-07
-1.42095980334e-06
-9.55965881666e-07
-1.19301559411e-06
-1.10697800049e-06
-9.57890054644e-07
-1.25305455824e-06
-7.43088327721e-07
-1.3614939478e-06
-5.51981488276e-07
-1.40499261426e-06
-3.50203517364e-07
-1.46141884581e-06
-1.43723011247e-07
-1.29851889092e-06
2.57374868496e-08
-9.65897568724e-07
1.85546936048e-07
-7.80571081386e-07
3.26054982407e-07
-6.60616128869e-07
4.47181688988e-07
-5.6678317059e-07
5.4617570117e-07
-4.83518337112e-07
5.78615256741e-07
-3.19821685609e-07
5.46482612436e-07
-8.70778525809e-08
4.93574104122e-07
9.53859270155e-08
4.19212424505e-07
2.27732241345e-07
3.25420131003e-07
3.26979271984e-07
2.37424352983e-07
3.76378698911e-07
1.62501756556e-07
3.57786137765e-07
9.89405829785e-08
3.39244852221e-07
4.60298902757e-08
4.07126951516e-07
4.17177024887e-07
-6.94066351533e-08
7.82649154361e-07
-2.53673797096e-07
9.92725813296e-07
-3.44557273429e-07
1.14153110051e-06
-3.1295880654e-07
8.94661080813e-07
-4.16530291021e-07
6.22051124828e-07
-6.8212443056e-07
8.90007811884e-07
-8.1321582846e-07
9.77589889293e-07
-9.14110540592e-07
9.20254866004e-07
-1.00866610042e-06
8.40470048005e-07
-1.13116371515e-06
7.8163541326e-07
-1.13207301607e-06
5.51334445424e-07
-1.11653756322e-06
3.36534264489e-07
-1.19668934059e-06
3.27761032589e-07
-1.3086826801e-06
3.54738620996e-07
-1.46856717336e-06
4.48563541095e-07
-1.6184325959e-06
5.14976886956e-07
-1.69740661284e-06
4.85936284798e-07
-1.74889385055e-06
4.51369551422e-07
-1.82622889722e-06
4.74393383762e-07
-1.90166520785e-06
4.93363280319e-07
-1.96433987922e-06
4.8080995239e-07
-2.02347332986e-06
4.52497017976e-07
-2.0806400997e-06
4.18654412133e-07
-2.12986168736e-06
3.78701903893e-07
-2.17072678605e-06
3.37902415505e-07
-2.21035620609e-06
3.02493421357e-07
-2.24154384136e-06
2.74163453376e-07
-2.27723380386e-06
2.53149396731e-07
-2.30251724353e-06
2.14773219111e-07
-2.32080204574e-06
1.71791457336e-07
-2.35025816323e-06
1.62845947183e-07
-2.3848677847e-06
1.6365407927e-07
-2.43099626546e-06
1.72164012406e-07
-2.47491466034e-06
1.85142732156e-07
-2.51569044794e-06
1.87442812766e-07
-2.54035780502e-06
1.67245647388e-07
-2.5560206911e-06
1.43084862866e-07
-2.56809530431e-06
1.1755411004e-07
-2.57744822662e-06
8.92213141449e-08
-2.58412406474e-06
5.7646156362e-08
-2.58836186876e-06
2.36719707656e-08
-2.58932156228e-06
-1.04438815115e-08
-2.58537634104e-06
-4.27775691307e-08
-2.57563820101e-06
-7.34839080488e-08
-2.56018336401e-06
-1.04148357153e-07
-2.53932352812e-06
-1.36297245876e-07
-2.51313861096e-06
-1.70895073941e-07
-2.48139503373e-06
-2.0856302886e-07
-2.44362537082e-06
-2.49856388418e-07
-2.3991065702e-06
-2.95400908937e-07
-2.34677794511e-06
-3.46008613697e-07
-2.28537740087e-06
-4.02777111985e-07
-2.21356674021e-06
-4.67039895903e-07
-2.1290522558e-06
-5.40470304177e-07
-2.02743160777e-06
-6.26205527728e-07
-1.90284323302e-06
-7.29456075233e-07
-1.74966201282e-06
-8.55000728853e-07
-1.56489432845e-06
-1.00351137309e-06
-1.35259514071e-06
-1.16821013318e-06
-1.12618133735e-06
-1.33334087242e-06
-9.07593706701e-07
-1.47159719103e-06
-7.0993425111e-07
-1.55911922973e-06
-5.06001755097e-07
-1.6088990615e-06
-3.38453404183e-07
-1.6289373325e-06
-1.04167884393e-07
-1.53276119941e-06
9.48783675917e-08
-1.16492881915e-06
2.73622165012e-07
-9.59265682857e-07
4.42935269484e-07
-8.29926406517e-07
5.81780348829e-07
-7.05589273884e-07
6.59806179716e-07
-5.61530568451e-07
6.6305635717e-07
-3.23048255121e-07
6.32372799056e-07
-5.63756289965e-08
5.67762156014e-07
1.60016745386e-07
4.63041344969e-07
3.32476903252e-07
3.41400032602e-07
4.48646656703e-07
2.45091902489e-07
4.72721924702e-07
1.53653749747e-07
4.49248274549e-07
8.14881095954e-08
4.11412349343e-07
4.10001705784e-08
4.47733552762e-07
4.58159689942e-07
-1.21493479622e-07
9.04292508327e-07
-2.78482418955e-07
1.14989292149e-06
-3.26624678796e-07
1.18984231252e-06
-2.4987523616e-07
8.18029036178e-07
-4.60376894261e-07
8.32695046177e-07
-6.75126803717e-07
1.10494795271e-06
-7.80216363343e-07
1.08286649761e-06
-8.88494990894e-07
1.02872378261e-06
-9.30989670999e-07
8.83141614442e-07
-9.80407880533e-07
8.31223974875e-07
-9.70304662544e-07
5.41347889189e-07
-1.0813803841e-06
4.47719468285e-07
-1.18667571088e-06
4.33162166331e-07
-1.33696313995e-06
5.05142119294e-07
-1.49887975783e-06
6.10611516923e-07
-1.58915897817e-06
6.05386505189e-07
-1.64356071756e-06
5.40459364922e-07
-1.73118173296e-06
5.39108926235e-07
-1.82266147198e-06
5.6599045127e-07
-1.89314858189e-06
5.63963112462e-07
-1.95330758628e-06
5.41075085123e-07
-2.01110503135e-06
5.10391975978e-07
-2.07116188232e-06
4.78803270213e-07
-2.12808724707e-06
4.3571510254e-07
-2.16504384109e-06
3.74938916758e-07
-2.20715583138e-06
3.44683339293e-07
-2.24074536333e-06
3.07827188984e-07
-2.25499966009e-06
2.67475174547e-07
-2.27945244724e-06
2.39293426455e-07
-2.3351025562e-06
2.27507480231e-07
-2.37491807414e-06
2.02726273345e-07
-2.39663865787e-06
1.85437056794e-07
-2.44302841061e-06
2.1861647605e-07
-2.49441239293e-06
2.36590385883e-07
-2.52482488622e-06
2.17918965256e-07
-2.54640515738e-06
1.8888884065e-07
-2.56277366518e-06
1.59515268868e-07
-2.57551748619e-06
1.30358582353e-07
-2.58547709531e-06
9.92403772505e-08
-2.5927518963e-06
6.49791673099e-08
-2.59717291702e-06
2.81502084423e-08
-2.59802371375e-06
-9.53663424234e-09
-2.59412965232e-06
-4.66155886882e-08
-2.58464773341e-06
-8.29102848425e-08
-2.56939023185e-06
-1.19350317514e-07
-2.54844681019e-06
-1.57185292038e-07
-2.52177693264e-06
-1.97508771414e-07
-2.4891052588e-06
-2.41178397249e-07
-2.44997818333e-06
-2.88924594605e-07
-2.40375639674e-06
-3.41566505451e-07
-2.34949698292e-06
-4.00208856916e-07
-2.28584931882e-06
-4.66372442748e-07
-2.21070740851e-06
-5.42130448603e-07
-2.12051176952e-06
-6.30619894524e-07
-2.01000947263e-06
-7.3665991569e-07
-1.87356366564e-06
-8.65847177397e-07
-1.70752627283e-06
-1.02098439349e-06
-1.51263929291e-06
-1.19834094596e-06
-1.29712259887e-06
-1.38367953979e-06
-1.0755923041e-06
-1.55482758661e-06
-8.64022485551e-07
-1.68313019187e-06
-6.63822529764e-07
-1.75929008677e-06
-4.79752755722e-07
-1.79294721087e-06
-3.28502028215e-07
-1.78016498927e-06
-1.20722962483e-07
-1.7405327144e-06
1.67633251298e-07
-1.45324721791e-06
3.79205626582e-07
-1.17083307465e-06
5.59663710788e-07
-1.01033489632e-06
6.9667052012e-07
-8.42583715402e-07
7.64246585306e-07
-6.2908566002e-07
7.83210505385e-07
-3.42005104446e-07
7.66700069679e-07
-3.98563124482e-08
6.75254532079e-07
2.5147424332e-07
5.22562468059e-07
4.85187898648e-07
3.64811269767e-07
6.06419841029e-07
2.36133798656e-07
6.01425002523e-07
1.31965346989e-07
5.53454739108e-07
5.14356747038e-08
4.92015639807e-07
1.93906881715e-08
4.79741213637e-07
4.77612964306e-07
-1.53316426099e-07
1.05775035136e-06
-2.71697266185e-07
1.26844604576e-06
-2.74694126118e-07
1.19299001828e-06
-3.05634658887e-07
8.49088041582e-07
-5.32841194869e-07
1.06005515464e-06
-6.37685792873e-07
1.20997077314e-06
-7.36740609748e-07
1.18210077895e-06
-8.42255376042e-07
1.13440586549e-06
-8.92767268506e-07
9.33808654663e-07
-9.44438300101e-07
8.83044952544e-07
-9.79111742443e-07
5.76127068555e-07
-1.07972362122e-06
5.48431036896e-07
-1.2031041825e-06
5.56650638545e-07
-1.36735126137e-06
6.69512021467e-07
-1.50410758742e-06
7.47500021593e-07
-1.57119564603e-06
6.72603709242e-07
-1.63387272868e-06
6.03256980978e-07
-1.72336587072e-06
6.28721499855e-07
-1.80896475336e-06
6.51707151185e-07
-1.8818380513e-06
6.36948384145e-07
-1.94489341915e-06
6.04233829044e-07
-1.99782586536e-06
5.63421666051e-07
-2.04488903164e-06
5.25960123057e-07
-2.09446529566e-06
4.85374919641e-07
-2.13896116533e-06
4.19514867018e-07
-2.17080255257e-06
3.76601727944e-07
-2.21447003249e-06
3.51565827358e-07
-2.26077270777e-06
3.13848718131e-07
-2.29999243408e-06
2.78580279919e-07
-2.33305993849e-06
2.60639433016e-07
-2.37305091788e-06
2.42779277408e-07
-2.43657573313e-06
2.49025019591e-07
-2.4769691523e-06
2.59073753867e-07
-2.50563920259e-06
2.65324855234e-07
-2.53127206118e-06
2.43616323301e-07
-2.55294039704e-06
2.10621091591e-07
-2.57042706243e-06
1.7706485379e-07
-2.58412418191e-06
1.44117708386e-07
-2.59474204218e-06
1.09919342948e-07
-2.6025816936e-06
7.28792455074e-08
-2.60735370326e-06
3.29821218661e-08
-2.60831249829e-06
-8.51816270499e-09
-2.60452958279e-06
-5.03390646572e-08
-2.59527096002e-06
-9.21089980172e-08
-2.58016352357e-06
-1.34397495585e-07
-2.55904072861e-06
-1.7824622422e-07
-2.53171372719e-06
-2.24772495492e-07
-2.49786746077e-06
-2.74958612137e-07
-2.45708739437e-06
-3.29639455938e-07
-2.40882449276e-06
-3.89761588479e-07
-2.35220672055e-06
-4.56765934422e-07
-2.28565936486e-06
-5.32861014252e-07
-2.2063935907e-06
-6.2134801512e-07
-2.11000997681e-06
-7.26956356971e-07
-1.99113502899e-06
-8.55482363535e-07
-1.84545082046e-06
-1.01148128273e-06
-1.67169328882e-06
-1.19468372003e-06
-1.47081339139e-06
-1.39918039685e-06
-1.25216065068e-06
-1.60229165929e-06
-1.03187898111e-06
-1.77507380484e-06
-8.24325788883e-07
-1.89065396327e-06
-6.23639477043e-07
-1.95995818424e-06
-4.32968738282e-07
-1.98361110715e-06
-2.58126499568e-07
-1.95501352129e-06
-1.13199650067e-07
-1.88545033168e-06
1.683495826e-07
-1.7348030368e-06
4.98349805347e-07
-1.50078405418e-06
6.88626043849e-07
-1.20059339666e-06
8.20128434911e-07
-9.74054294828e-07
8.98010573128e-07
-7.06959804842e-07
9.63107952664e-07
-4.07099899429e-07
9.69487892276e-07
-4.62334341362e-08
8.29400940496e-07
3.91574356576e-07
5.947150833e-07
7.1988870398e-07
3.68506440756e-07
8.32661642371e-07
1.88105806195e-07
7.81869718197e-07
7.2049430182e-08
6.69550340357e-07
2.4556944788e-09
5.6161066092e-07
-1.43802035413e-08
4.96697090252e-07
4.63212528738e-07
-1.71948063559e-07
1.22985856419e-06
-2.84221883454e-07
1.38088398265e-06
-2.54590260416e-07
1.16349423377e-06
-3.59785936839e-07
9.54410027913e-07
-5.51905379374e-07
1.25233888046e-06
-6.02743731315e-07
1.2609737203e-06
-6.87172187512e-07
1.26669630556e-06
-7.43685751713e-07
1.19106906718e-06
-8.29200031364e-07
1.01945469621e-06
-8.49754519105e-07
9.0371541574e-07
-9.49191565777e-07
6.75660423293e-07
-1.07133765641e-06
6.7067703193e-07
-1.20653498772e-06
6.91954775455e-07
-1.35755869021e-06
8.20662962631e-07
-1.45100550664e-06
8.41077368088e-07
-1.50609043331e-06
7.27806893695e-07
-1.60328028516e-06
7.00565201043e-07
-1.7029250822e-06
7.2848643126e-07
-1.78604614147e-06
7.34944912208e-07
-1.86301368504e-06
7.14025622674e-07
-1.93567511821e-06
6.76999237725e-07
-1.99869802087e-06
6.26543946964e-07
-2.03899291933e-06
5.66344037196e-07
-2.07160973431e-06
5.18075737128e-07
-2.13020053832e-06
4.78183949049e-07
-2.16989316133e-06
4.16367625619e-07
-2.18540006132e-06
3.67146026487e-07
-2.21357703523e-06
3.42094058972e-07
-2.26290032866e-06
3.27969112987e-07
-2.32651112417e-06
3.24313213574e-07
-2.38617490226e-06
3.02504507003e-07
-2.43516246701e-06
2.98074581492e-07
-2.48572909719e-06
3.0970467911e-07
-2.51637376685e-06
2.96034860918e-07
-2.53968585837e-06
2.66993496551e-07
-2.5609724422e-06
2.31972086842e-07
-2.57935497053e-06
1.95511266451e-07
-2.59405699898e-06
1.5888312445e-07
-2.60534901421e-06
1.21274421259e-07
-2.61368311291e-06
8.1276160666e-08
-2.61888033856e-06
3.82420948586e-08
-2.62016349527e-06
-7.17229943406e-09
-2.61664482925e-06
-5.37942149591e-08
-2.60763960266e-06
-1.01049925185e-07
-2.59267057488e-06
-1.49299639227e-07
-2.57133329331e-06
-1.9951436189e-07
-2.54322054889e-06
-2.52812345109e-07
-2.50795631917e-06
-3.10148445011e-07
-2.46520125496e-06
-3.72317601433e-07
-2.41453990074e-06
-4.40351446721e-07
-2.35516857936e-06
-5.16068265445e-07
-2.28538322309e-06
-6.02590327043e-07
-2.20198084529e-06
-7.04701847697e-07
-2.10027231514e-06
-8.28613694375e-07
-1.97551546105e-06
-9.80184174513e-07
-1.82517279438e-06
-1.16176630036e-06
-1.64840796217e-06
-1.37140704166e-06
-1.43855292279e-06
-1.60899141499e-06
-1.21181601656e-06
-1.82900324045e-06
-9.95664528134e-07
-1.99120930001e-06
-8.03485833998e-07
-2.08281172346e-06
-5.90972114343e-07
-2.17247017352e-06
-3.59293875532e-07
-2.21530731446e-06
-1.39422553362e-07
-2.17491168399e-06
3.78680513195e-08
-2.06278010244e-06
2.3603413084e-07
-1.9329602624e-06
5.22959641913e-07
-1.7877186659e-06
7.91961464463e-07
-1.46955911214e-06
9.2893820818e-07
-1.111008624e-06
1.05187711755e-06
-8.29892791913e-07
1.21233123195e-06