/*--------------------------------*- C++ -*----------------------------------*\
| =========                 |                                                 |
| \\      /  F ield         | OpenFOAM: The Open Source CFD Toolbox           |
|  \\    /   O peration     | Version:  v1806                                 |
|   \\  /    A nd           | Web:      www.OpenFOAM.com                      |
|    \\/     M anipulation  |                                                 |
\*---------------------------------------------------------------------------*/
FoamFile
{
    version     2.0;
    format      ascii;
    class       volScalarField;
    location    "226";
    object      pa;
}
// * * * * * * * * * * * * * * * * * * * * * * * * * * * * * * * * * * * * * //

dimensions      [0 2 -2 0 0 0 0];


internalField   nonuniform List<scalar> 
6400
(
-0.128468951541
-0.128470264383
-0.128473912348
-0.128480835935
-0.128490669556
-0.12850324634
-0.128518650381
-0.128537623769
-0.12856021319
-0.128586391896
-0.128619486515
-0.128661279451
-0.128709635421
-0.128764731381
-0.128827944801
-0.128900806664
-0.128983831221
-0.129076663275
-0.129178633458
-0.129286959621
-0.129397512109
-0.129510141403
-0.129628517746
-0.1297571449
-0.129899446107
-0.130055557919
-0.130223199418
-0.130400912898
-0.130589022599
-0.130788622435
-0.131000772843
-0.131224864512
-0.131456743158
-0.131692301332
-0.131930598884
-0.132168657432
-0.132405552249
-0.132648604656
-0.132897387465
-0.133141879089
-0.133383360881
-0.133636729317
-0.133910354176
-0.134197180094
-0.134489683644
-0.134783597741
-0.135075532961
-0.135363860888
-0.135647282609
-0.135924912066
-0.136196934259
-0.136458896594
-0.136704906191
-0.136925501199
-0.137121854233
-0.137305578417
-0.137473821967
-0.137614138769
-0.137722840595
-0.13780870976
-0.137876734942
-0.137928419615
-0.137964342002
-0.137991944193
-0.138023787685
-0.138063384944
-0.138105008719
-0.138138382026
-0.138158589711
-0.138167161932
-0.138166727598
-0.138159183576
-0.13814578676
-0.138128755683
-0.138109012019
-0.13808851075
-0.138068718694
-0.13805437394
-0.138044382617
-0.138040046323
-0.128467033988
-0.12846841269
-0.128471622971
-0.128478403889
-0.128489163225
-0.128502680142
-0.128518408579
-0.12853641825
-0.128557893814
-0.128584120394
-0.128617006956
-0.128657946506
-0.128706420178
-0.128762150787
-0.128825562597
-0.128897491506
-0.128980031505
-0.129073280083
-0.129176336708
-0.129285583646
-0.12939490878
-0.129505878046
-0.129623545073
-0.129751630825
-0.129893956009
-0.130050634159
-0.130218227805
-0.13039615152
-0.13058488379
-0.130784958087
-0.13099672946
-0.131220797955
-0.131453512759
-0.131688874523
-0.131927396248
-0.132165631339
-0.132401868736
-0.132645188886
-0.132894759384
-0.133138626579
-0.133375713545
-0.133627036247
-0.13390566016
-0.134195931649
-0.134489831981
-0.134785299809
-0.135078533218
-0.135368441995
-0.135652898945
-0.135928748855
-0.136196338311
-0.136458558925
-0.136714538199
-0.136937930594
-0.137135509811
-0.13732429872
-0.137489139905
-0.137623530501
-0.137731729893
-0.137817177014
-0.13788220388
-0.137934688428
-0.137972807839
-0.138001583762
-0.138034479828
-0.138074946555
-0.138117303134
-0.138149814537
-0.138168556112
-0.13817574321
-0.138173919604
-0.138164901529
-0.138149682571
-0.138130263499
-0.138108778207
-0.138086965547
-0.138067068567
-0.138051790245
-0.138041344138
-0.138037640811
-0.128461723649
-0.128464034072
-0.12846676373
-0.128472942642
-0.128483365929
-0.128498671598
-0.128516080046
-0.128533514808
-0.12855363775
-0.128579075126
-0.128611450979
-0.128651827315
-0.128700193037
-0.128756148463
-0.128819488263
-0.128888930085
-0.128969762429
-0.129067250706
-0.129172703379
-0.129281183124
-0.129387598257
-0.129493931192
-0.129609867196
-0.129739573306
-0.129882008304
-0.130037690763
-0.130205828252
-0.130384844583
-0.13057436549
-0.13077503821
-0.130986921709
-0.13121111996
-0.131445645004
-0.131679844882
-0.131916170114
-0.132156888664
-0.132392249478
-0.132632761447
-0.132882674373
-0.133128527265
-0.133371992581
-0.133627144983
-0.13390167533
-0.134189152019
-0.134482695676
-0.134778548466
-0.135073641905
-0.135365855449
-0.135653080227
-0.135933306996
-0.136205672054
-0.13646882958
-0.136717611815
-0.136944731857
-0.137154550489
-0.137344876655
-0.137506072597
-0.137639023298
-0.137746847065
-0.137832439134
-0.137899514828
-0.137952139856
-0.137990003984
-0.138022456091
-0.138059761338
-0.138102509351
-0.138143095103
-0.138172953458
-0.138189388915
-0.138194031808
-0.138189302115
-0.138176670441
-0.138157601312
-0.138134477169
-0.138109682852
-0.138085282098
-0.138063647825
-0.138046653298
-0.13803549489
-0.138031118033
-0.128454585727
-0.128456850763
-0.12845885448
-0.128464498497
-0.128473586854
-0.128488650276
-0.128511531411
-0.128528851719
-0.128547339487
-0.128571414886
-0.128603014214
-0.12864296523
-0.128691286132
-0.128746638212
-0.128809766992
-0.128883026363
-0.128967443821
-0.129063107467
-0.129163559247
-0.129263588029
-0.129365740006
-0.129473985632
-0.129591057427
-0.129720207901
-0.12986279298
-0.13001903069
-0.130188109021
-0.130368246414
-0.130558945666
-0.130760243776
-0.130973303149
-0.131198061804
-0.131432694542
-0.131670722931
-0.131903458535
-0.132138879707
-0.132378345972
-0.132617155196
-0.132860348564
-0.133107513763
-0.133358185271
-0.133618622199
-0.133893612141
-0.134180535119
-0.134474548374
-0.134771822664
-0.135069258946
-0.135364423715
-0.1356551252
-0.135939351355
-0.136215382087
-0.136480906451
-0.136732098884
-0.136965036793
-0.137178788385
-0.137368985742
-0.137530384117
-0.137663426937
-0.137771294037
-0.137857483447
-0.137925716976
-0.137979270633
-0.138021222756
-0.138061204882
-0.138102080037
-0.138144011343
-0.138183383288
-0.138210757802
-0.138223348488
-0.138223451992
-0.138213696357
-0.138195513412
-0.138170751419
-0.138141609371
-0.138110718018
-0.13808212955
-0.138057769709
-0.138036520225
-0.138021268076
-0.138014730501
-0.128443548661
-0.12844367431
-0.128446170793
-0.128451875921
-0.128461853879
-0.12847570955
-0.128496009369
-0.128515630703
-0.128535526261
-0.128559973886
-0.128590985031
-0.128630634914
-0.128679125564
-0.128737826805
-0.128805952232
-0.128879974409
-0.128960810829
-0.129048226949
-0.129140550704
-0.129237815747
-0.129340325233
-0.129448555857
-0.129565677079
-0.129695039355
-0.129837863194
-0.129994760185
-0.130164556802
-0.130346077706
-0.130538103108
-0.130741052299
-0.130954815135
-0.131182139352
-0.131420915148
-0.131654243142
-0.131885432592
-0.132117815898
-0.13235088188
-0.132588988237
-0.132833161641
-0.133083016665
-0.133338823034
-0.133603774473
-0.133880703282
-0.134168557533
-0.134464003541
-0.134763548635
-0.135064083289
-0.135363002431
-0.13565803312
-0.13594706073
-0.136227925314
-0.136497970103
-0.136753862481
-0.136992216157
-0.137209793192
-0.137401698276
-0.137564265187
-0.137698347753
-0.137807346919
-0.137895108465
-0.13796545785
-0.138022111046
-0.138070173417
-0.138117568199
-0.138159579624
-0.138202091081
-0.138241178886
-0.138265784011
-0.138272916771
-0.13826580295
-0.138248051442
-0.1382217469
-0.138188556722
-0.138150229452
-0.138111305721
-0.13807607719
-0.138044159403
-0.138013375834
-0.13799249761
-0.137984164488
-0.128422700878
-0.128422315814
-0.128427042204
-0.128432687445
-0.128443432576
-0.128458315222
-0.128476760478
-0.12849681404
-0.128518609825
-0.128544023725
-0.12857399539
-0.12861383652
-0.128667523713
-0.128730867409
-0.128798545691
-0.128869087722
-0.12894375997
-0.129024953711
-0.129113966329
-0.129209581534
-0.129309809542
-0.129416911996
-0.129534134446
-0.129664023818
-0.129807416118
-0.129964263763
-0.13013542251
-0.130318140484
-0.130512255716
-0.130716766252
-0.130933395987
-0.13116185372
-0.131398330952
-0.131635939096
-0.131861113593
-0.132085132707
-0.132315680019
-0.132554316043
-0.132800454401
-0.133053481004
-0.133313695548
-0.133582931944
-0.133862847216
-0.134152945361
-0.134450861839
-0.134753543682
-0.135057974533
-0.135361496556
-0.135661809674
-0.135956737259
-0.136243904348
-0.136520453259
-0.136782967431
-0.137027555197
-0.137249737617
-0.137444713687
-0.137609959122
-0.137746764904
-0.137858519587
-0.137949160498
-0.138022745103
-0.13808420061
-0.138141259564
-0.138192280008
-0.138236469226
-0.138281138708
-0.138321058226
-0.138342413713
-0.138341832252
-0.13832389027
-0.138294743895
-0.138257214997
-0.13821186631
-0.13816115234
-0.138110955395
-0.138064315346
-0.138018832986
-0.137975558548
-0.13794740847
-0.137934484231
-0.128390728087
-0.128392941895
-0.128401442741
-0.128410002287
-0.128418572933
-0.128433285098
-0.128452952011
-0.128473400772
-0.128496588022
-0.128523030771
-0.128555101014
-0.128596045127
-0.128653803363
-0.128716845491
-0.128781737874
-0.128847088285
-0.128917253527
-0.128996707549
-0.12908455421
-0.129176034332
-0.129273375269
-0.129379935639
-0.129497006773
-0.129626626622
-0.129770305109
-0.129929531108
-0.130099818941
-0.130284449522
-0.13048079728
-0.130690004221
-0.130908727498
-0.131135959402
-0.13137210396
-0.131602214769
-0.131823942615
-0.132044334115
-0.132274012151
-0.132513796383
-0.132762238494
-0.133018445536
-0.133282707223
-0.133556187739
-0.133839818087
-0.134133232675
-0.134434628851
-0.134741349131
-0.135050547588
-0.135359640157
-0.135666389763
-0.135968621245
-0.136263822037
-0.136548862602
-0.136819861186
-0.137072154089
-0.137300578792
-0.137500683031
-0.137670761251
-0.137812326613
-0.137928495752
-0.138022895592
-0.138100387022
-0.138168172334
-0.13823146079
-0.138285675428
-0.138342053715
-0.138390479102
-0.138429005262
-0.138443697966
-0.138432123004
-0.138400351746
-0.138356649998
-0.138304158904
-0.138242192871
-0.138175240825
-0.138108773736
-0.13804364503
-0.137978425895
-0.137920279931
-0.137882403043
-0.137863356171
-0.128353445149
-0.128358057728
-0.128368117957
-0.128381112882
-0.12839041309
-0.12840524475
-0.128424133992
-0.128445314501
-0.128470378162
-0.128495148976
-0.12853095186
-0.128578274674
-0.128634527736
-0.128695542091
-0.128755851164
-0.128816168275
-0.128885269087
-0.128965056153
-0.129049028243
-0.129136476327
-0.129231353098
-0.129337054241
-0.129453957556
-0.129584367554
-0.129729120283
-0.129888607085
-0.130061568263
-0.130243065474
-0.130444951619
-0.130661038647
-0.130879089294
-0.131100445848
-0.131333774968
-0.131558113782
-0.131774362658
-0.131995682252
-0.132226367458
-0.132467445157
-0.132718096335
-0.132977441976
-0.133245621961
-0.133523424641
-0.133811350017
-0.134108976309
-0.134414790081
-0.134726456625
-0.135041368841
-0.135357135876
-0.135671674953
-0.135982863624
-0.136288065525
-0.136583788584
-0.13686549242
-0.137127709982
-0.137364872276
-0.137572873604
-0.13775045784
-0.137898803331
-0.13802002755
-0.138117222993
-0.138196950479
-0.138268550917
-0.138337129287
-0.138403809215
-0.138471632819
-0.138532912432
-0.138570061076
-0.138575007205
-0.138549225008
-0.138500437754
-0.138438304101
-0.138365318256
-0.138281709286
-0.138193152809
-0.138103253321
-0.138011752526
-0.137922165011
-0.137845288858
-0.13779473897
-0.137769480031
-0.128312970788
-0.128319163395
-0.128329395569
-0.128339633774
-0.128352209947
-0.128371446821
-0.128389632954
-0.128411086053
-0.128439340538
-0.128466402498
-0.128499584325
-0.128551244015
-0.128608409467
-0.128665776841
-0.128722088701
-0.128781624623
-0.128849235254
-0.128926525866
-0.129006852011
-0.129091676798
-0.129184420142
-0.129288137072
-0.129403457685
-0.129533415938
-0.129683433399
-0.129841721274
-0.130016946775
-0.130204156095
-0.130404444495
-0.130618907477
-0.130839807907
-0.131065910403
-0.131283645721
-0.131500172758
-0.131716975578
-0.1319400544
-0.132172288283
-0.132414820659
-0.132667570751
-0.132929990826
-0.133202102916
-0.133484389732
-0.133777080769
-0.13407967109
-0.134390767911
-0.134708283438
-0.1350299204
-0.135353596463
-0.1356774617
-0.135999491047
-0.136316942931
-0.136625918613
-0.136921146799
-0.137196381697
-0.137445680045
-0.137665036923
-0.13785292191
-0.138009164894
-0.138133904097
-0.138230470262
-0.138310009614
-0.138386765235
-0.13846623703
-0.138546690733
-0.13862476984
-0.138703651483
-0.138754589352
-0.13874565002
-0.138701809728
-0.138631993726
-0.138544897048
-0.138443940822
-0.138332944203
-0.13821596618
-0.138093981513
-0.137968420914
-0.13784859257
-0.137747331349
-0.137678165495
-0.13764381558
-0.128268858394
-0.128276293587
-0.128288105582
-0.128297903577
-0.128311160317
-0.128330604754
-0.128348970425
-0.128370061466
-0.128396730469
-0.128431873033
-0.128466828632
-0.128517584508
-0.128574451073
-0.128628531156
-0.128680718708
-0.128740930529
-0.128809802984
-0.128882687669
-0.128958621692
-0.129041053541
-0.129132668804
-0.129234946632
-0.129348750744
-0.129475568707
-0.129628648681
-0.129792378315
-0.129960350729
-0.130153242985
-0.130354764599
-0.130572028564
-0.130792332748
-0.131013564041
-0.131227217896
-0.131436274
-0.131652534952
-0.131877368418
-0.132111351063
-0.132355493928
-0.132610257548
-0.132875613761
-0.133151669482
-0.13343865579
-0.133736540679
-0.134044725643
-0.134361892173
-0.134686161635
-0.135015583642
-0.135348493256
-0.135683369815
-0.136018343626
-0.13635061885
-0.136675925835
-0.136988285821
-0.137280646774
-0.137546526685
-0.137781302525
-0.137981891121
-0.138144671768
-0.138267191547
-0.138358234739
-0.138439142411
-0.138527913472
-0.138624534764
-0.138720898592
-0.13881185603
-0.138895703822
-0.138956676336
-0.138968124669
-0.138901786526
-0.138802628581
-0.138681369263
-0.138543858292
-0.138398617904
-0.138245324105
-0.138082211664
-0.137913704457
-0.137753438827
-0.13761575613
-0.137514532548
-0.137461139152
-0.128219318401
-0.128226578196
-0.128239017427
-0.128251399365
-0.128268691569
-0.12828435697
-0.128302216104
-0.128323832625
-0.128345504816
-0.128383708027
-0.128424974748
-0.128475246055
-0.128531398425
-0.128584339058
-0.128635003835
-0.128693742152
-0.128762361524
-0.12883202605
-0.128904344402
-0.128983628484
-0.129073852717
-0.129175903806
-0.129291649601
-0.129416145807
-0.129561838105
-0.129735094176
-0.129907078811
-0.13009653374
-0.130297262182
-0.130504132119
-0.130729861076
-0.130949364729
-0.131158111948
-0.131364689766
-0.131581163683
-0.131807422355
-0.132043128432
-0.132289032154
-0.132545800583
-0.132813890561
-0.13309379363
-0.133385651996
-0.133689118812
-0.134003446831
-0.134327380697
-0.134659275143
-0.134997580648
-0.135341115587
-0.135688775573
-0.136038961685
-0.136388950937
-0.136734253722
-0.137068290993
-0.137383219221
-0.137671433862
-0.13792628853
-0.138139927228
-0.138301652464
-0.138412910921
-0.138498505777
-0.138589903989
-0.138701709429
-0.13882277519
-0.138938153304
-0.139039211713
-0.139121087864
-0.139179044543
-0.139210613149
-0.139157849781
-0.139027618319
-0.138857108691
-0.138669422803
-0.138482417051
-0.138284942057
-0.138070943627
-0.137846292245
-0.137627519761
-0.137430551377
-0.137274389997
-0.137185859497
-0.128163121592
-0.128168772723
-0.12817759285
-0.128193839847
-0.128216484712
-0.128231022811
-0.128248605426
-0.128272177792
-0.128292273316
-0.128327282701
-0.128373060787
-0.128423893504
-0.128478640253
-0.128531217937
-0.128584529695
-0.128642619245
-0.128708515503
-0.128774764366
-0.128844170718
-0.128920211044
-0.129006783893
-0.129105775607
-0.129226401943
-0.129357842379
-0.129496097442
-0.129666340076
-0.129843381282
-0.130025610848
-0.130234078598
-0.130442953101
-0.130657486551
-0.130868077337
-0.131073926531
-0.131283982001
-0.131501976557
-0.131729588157
-0.131967010007
-0.132214849747
-0.132473795851
-0.132744468315
-0.133027924879
-0.133324673053
-0.1336340754
-0.133955024881
-0.134286318989
-0.134626645137
-0.134974917955
-0.135330472059
-0.135692694026
-0.136060415069
-0.136431232777
-0.136800727201
-0.137162173159
-0.137506913538
-0.137825104466
-0.138104093694
-0.138324289826
-0.138471254815
-0.138567014852
-0.138656966857
-0.13877625357
-0.138924971455
-0.139079126731
-0.139218175975
-0.139328227587
-0.139409243296
-0.139458278354
-0.139478621025
-0.139450361419
-0.139312608303
-0.139088682804
-0.138823645627
-0.138590369834
-0.138343591484
-0.138066485735
-0.137764687082
-0.137460212612
-0.137171448844
-0.136928148337
-0.136782500129
-0.128100148412
-0.128104166036
-0.128107846164
-0.128126237047
-0.128148292881
-0.128166093777
-0.12818510405
-0.128210756561
-0.128233700767
-0.128266751346
-0.128313542804
-0.128364037377
-0.128416764631
-0.128466636206
-0.12852309033
-0.128584541584
-0.128647646287
-0.12871070312
-0.128777652313
-0.128851233289
-0.128933754035
-0.12902686347
-0.129144300876
-0.129288922991
-0.129429276993
-0.12958666065
-0.129770881914
-0.129953992776
-0.130150967275
-0.1303614652
-0.130573306156
-0.130779508467
-0.130982046099
-0.131193787535
-0.13141385149
-0.131643175539
-0.131882317263
-0.132131995035
-0.132393371516
-0.132666958571
-0.132953791388
-0.133255090157
-0.133570487884
-0.133898463666
-0.13423764055
-0.134587098503
-0.134946332572
-0.135315204515
-0.135693618826
-0.136081047541
-0.1364757344
-0.136874054049
-0.137269992161
-0.137654340741
-0.138012140238
-0.138315323533
-0.138526123655
-0.138642944285
-0.138727692606
-0.138847181609
-0.139021888222
-0.13922152024
-0.139420141785
-0.139595179031
-0.139709202709
-0.139781082922
-0.139812022321
-0.139807925728
-0.139778875156
-0.139645404467
-0.13937254759
-0.138992011747
-0.138728374972
-0.138439207031
-0.138085870258
-0.137674503579
-0.13724687383
-0.136824371448
-0.136435598791
-0.136185485788
-0.128031062399
-0.128035642514
-0.128042171241
-0.128053944993
-0.128072331741
-0.128092002082
-0.12811285044
-0.128138907117
-0.128167235292
-0.128199636981
-0.128246496436
-0.128296259805
-0.128347342273
-0.128394975327
-0.128449513029
-0.128514155802
-0.128577203354
-0.128638880548
-0.128703979872
-0.128775571127
-0.128855174789
-0.128943147478
-0.129054269384
-0.129203239085
-0.129352760673
-0.129503845673
-0.129687531161
-0.129874567966
-0.130062668412
-0.130267904344
-0.130470913567
-0.130672680079
-0.13087934947
-0.131093729746
-0.131315960341
-0.131547178124
-0.131788501257
-0.132040200113
-0.13230358044
-0.132580173062
-0.132870784222
-0.133176529965
-0.133497627609
-0.133832649635
-0.134180050812
-0.134539226665
-0.134910271576
-0.135293508767
-0.135689327784
-0.1360980613
-0.136519175045
-0.136950882161
-0.137389812082
-0.137827021678
-0.138236394425
-0.138552540305
-0.138722087573
-0.138797819219
-0.138903782645
-0.139104894015
-0.139367273806
-0.139620339751
-0.139864461982
-0.140114073191
-0.140177315771
-0.140229593681
-0.140255844281
-0.140237433198
-0.14017015584
-0.14002111139
-0.139869260988
-0.139105784118
-0.138883996167
-0.138579857572
-0.13813772579
-0.137578032105
-0.13699148705
-0.136389265008
-0.135727431328
-0.135250007039
-0.127954068557
-0.127959144593
-0.12797068242
-0.127976418583
-0.127990664936
-0.128010492843
-0.128032630534
-0.128060079298
-0.12809498053
-0.128125971279
-0.128171915513
-0.128220915907
-0.128270916827
-0.128318069127
-0.128371057083
-0.128435606576
-0.128498328639
-0.128559367858
-0.128623114803
-0.128692673863
-0.128769894208
-0.128854895023
-0.128957867311
-0.129101040935
-0.129264286934
-0.129416903295
-0.129588172233
-0.129785378803
-0.129977496173
-0.130164540548
-0.130358671892
-0.130558352937
-0.130766496618
-0.130983004895
-0.131207550879
-0.13144098047
-0.13168425959
-0.131938432103
-0.132204261044
-0.132483421574
-0.132777763924
-0.133088203194
-0.133414873168
-0.133756609452
-0.134112137501
-0.134481368974
-0.134864835402
-0.135263092814
-0.135676776506
-0.13610718929
-0.136555785885
-0.137024686721
-0.137515828529
-0.13802374996
-0.138497956748
-0.138790904659
-0.138876772112
-0.138952211902
-0.13914880916
-0.139524257763
-0.139935986354
-0.140130217826
-0.140274912961
-0.140100966794
-0.139988264191
-0.139892721671
-0.139768429981
-0.139625788251
-0.139453473172
-0.139139663559
-0.138654223685
-0.13870517014
-0.139404807725
-0.139287526058
-0.138654670658
-0.137674697275
-0.136722307866
-0.135892443011
-0.134688239987
-0.133701548881
-0.127867612598
-0.127872057673
-0.127881820436
-0.127888319419
-0.1279006187
-0.127920809865
-0.127943120235
-0.12796938145
-0.128010045022
-0.128044211357
-0.128089060901
-0.128137683309
-0.128187377212
-0.128235449529
-0.128287811799
-0.128350727016
-0.128412347923
-0.128472845136
-0.128535405182
-0.128602970632
-0.128677498916
-0.128760139855
-0.128857401808
-0.128991840556
-0.129160341096
-0.129321845244
-0.129481774502
-0.129669021515
-0.129866607874
-0.130053276432
-0.130239900239
-0.130435910154
-0.130643970106
-0.130862041176
-0.131088641378
-0.131323894206
-0.131569271881
-0.131825605152
-0.132094214706
-0.132376266767
-0.132674041796
-0.132989140772
-0.133321521682
-0.13366960763
-0.134032408832
-0.1344112997
-0.134807801034
-0.135221704754
-0.135652116808
-0.136101571625
-0.136576466
-0.137083790918
-0.137633904021
-0.13823768846
-0.138773952672
-0.138957833142
-0.139050926636
-0.139210737504
-0.139506600111
-0.139828178286
-0.139604391693
-0.13930571286
-0.139152318404
-0.138973308825
-0.138492433685
-0.137856443649
-0.137174067028
-0.136551020514
-0.136055841858
-0.135664448867
-0.135286752192
-0.134961006043
-0.135125442838
-0.13539187938
-0.135405958157
-0.135472784802
-0.136319421171
-0.136039747712
-0.133256484067
-0.130779685887
-0.127773180791
-0.127776951309
-0.127786441844
-0.127792402781
-0.127804220791
-0.127823973187
-0.127846000639
-0.127869298638
-0.127909008344
-0.127949889835
-0.127996285742
-0.128045338934
-0.128095572087
-0.128146587894
-0.128198241981
-0.128259244009
-0.128319512882
-0.128379621064
-0.128441015671
-0.128506645734
-0.128578381522
-0.128657845614
-0.128750333784
-0.128875236316
-0.129038691055
-0.129214404491
-0.129373999219
-0.129547344573
-0.129735320846
-0.129919613502
-0.130103567109
-0.130300537339
-0.130509481248
-0.130728977768
-0.130957857033
-0.131195535306
-0.131442771339
-0.131701414315
-0.131972606476
-0.132257837952
-0.13255914763
-0.132878420005
-0.133216318424
-0.133570811041
-0.133940162582
-0.134328062236
-0.134737830141
-0.135166590699
-0.135609484224
-0.136072442164
-0.136568719577
-0.137110444705
-0.137713398582
-0.138412977119
-0.13898609799
-0.139168550178
-0.139228596782
-0.139091481209
-0.138831121443
-0.138645723254
-0.138222943693
-0.137427156673
-0.136456885779
-0.135388652233
-0.134115711937
-0.132687896584
-0.131230380744
-0.129878204955
-0.128719945909
-0.127761135975
-0.12692080498
-0.126388162322
-0.126628085181
-0.127552105571
-0.128832692568
-0.130226594716
-0.13105739627
-0.131133701253
-0.131152602179
-0.12822460457
-0.127672153979
-0.127674952707
-0.127681540148
-0.127688098808
-0.127701985023
-0.127721049573
-0.127743455828
-0.127765002881
-0.127802542857
-0.127846451681
-0.127893833955
-0.127942873814
-0.127992670527
-0.128047722898
-0.128100396401
-0.128159464048
-0.1282185544
-0.128279026683
-0.128339480944
-0.12840330508
-0.128472278808
-0.128548055549
-0.12863575231
-0.128751973247
-0.128907495568
-0.12908861806
-0.129258312487
-0.129423672841
-0.129598313841
-0.129774098344
-0.12995512637
-0.130151682577
-0.130360712496
-0.130581316475
-0.13081264339
-0.131053316741
-0.131303623407
-0.131564697076
-0.131838926758
-0.132127302683
-0.132432029472
-0.132755953604
-0.133099629478
-0.133460580846
-0.133833271761
-0.134223644382
-0.134644902856
-0.135092487447
-0.135544467367
-0.136008565213
-0.136514134828
-0.137070853957
-0.137695367769
-0.138487327538
-0.139464279925
-0.139157279864
-0.138774150727
-0.138274337189
-0.137520320735
-0.136624639013
-0.135496210006
-0.133981401142
-0.132172243031
-0.130196090711
-0.128120912781
-0.125994997028
-0.1238853232
-0.12186034156
-0.119953837133
-0.118176355698
-0.116560460881
-0.11525554535
-0.114643896412
-0.114962891699
-0.116246489022
-0.118498099773
-0.121309980835
-0.123469290716
-0.123550089092
-0.122824938543
-0.127566077346
-0.12756805359
-0.127571354884
-0.127578893888
-0.127594438509
-0.127612452742
-0.127634704277
-0.12765702506
-0.127690873425
-0.127735239142
-0.127782396551
-0.127830607878
-0.127878482713
-0.12793367157
-0.127990745573
-0.128049310381
-0.12810738609
-0.128168271156
-0.12822914443
-0.128291877489
-0.128358569811
-0.128430132495
-0.128512934011
-0.128620786023
-0.128764978621
-0.128938795381
-0.129118127656
-0.129284324404
-0.129450939143
-0.129620277641
-0.129795129726
-0.129989015919
-0.130198311477
-0.130417684695
-0.130651520227
-0.130895632286
-0.131148631848
-0.131413183879
-0.13169134679
-0.131984410987
-0.132293241973
-0.132620916954
-0.132969242732
-0.13333742696
-0.133721410052
-0.134122404363
-0.134547905503
-0.134986956825
-0.135428946877
-0.135883489909
-0.136385516506
-0.136916026342
-0.137414342685
-0.138362125076
-0.139132021763
-0.138530776218
-0.137525128822
-0.136493623426
-0.135108632252
-0.133428160181
-0.131398954377
-0.129041065126
-0.126456660098
-0.123758287152
-0.121044284066
-0.118371617626
-0.115778340304
-0.113279539026
-0.110851999526
-0.10848069956
-0.10625170282
-0.104250242077
-0.102686313442
-0.101832794266
-0.101950346435
-0.103351853674
-0.105707853774
-0.107320257961
-0.110332514278
-0.129091498232
-0.127455488243
-0.12745709719
-0.127459122876
-0.127468240242
-0.127483025111
-0.127498868981
-0.12751850347
-0.127542684935
-0.127572634264
-0.127615977677
-0.127662331431
-0.12770948459
-0.127755878804
-0.127808349028
-0.127868634561
-0.127928252111
-0.127985995691
-0.128046259414
-0.128107694167
-0.128170492469
-0.128236168923
-0.128303602784
-0.128381134505
-0.128481154222
-0.128613751401
-0.128776475411
-0.128953578297
-0.129122960117
-0.129281853397
-0.129445017598
-0.129619205561
-0.129806976044
-0.130014092711
-0.130234755723
-0.130471903672
-0.130719852932
-0.13097612631
-0.131244624676
-0.131527359229
-0.131825882838
-0.132140834545
-0.13247427503
-0.132831520948
-0.133215239144
-0.133619231269
-0.134029994852
-0.134449097383
-0.134873030157
-0.135293575082
-0.135712532153
-0.136222686534
-0.136654605167
-0.136443379607
-0.137783389437
-0.137045703073
-0.136065467113
-0.13501538269
-0.133368058842
-0.131273602153
-0.128810133038
-0.125998568659
-0.122944404626
-0.119765997455
-0.116557860668
-0.113383946345
-0.110266584807
-0.107199102053
-0.104145058603
-0.101039009868
-0.0978362761554
-0.0946042987325
-0.0915100867269
-0.0885955068908
-0.0859448582064
-0.0837725866792
-0.0824435331422
-0.0816999931135
-0.0786579728938
-0.0686592130481
-0.0555486891811
-0.127339089697
-0.127340532774
-0.127342522674
-0.127353831361
-0.127367322782
-0.127380661464
-0.127396571645
-0.127421471744
-0.127446609665
-0.127488051317
-0.127533530751
-0.127579604609
-0.127625021085
-0.127675889204
-0.127736268057
-0.127796728041
-0.127854757491
-0.127914342949
-0.127974878199
-0.128037599803
-0.12810325527
-0.128167365464
-0.128238865872
-0.12833138728
-0.12845298733
-0.128603367272
-0.128774038247
-0.128942939741
-0.129105070747
-0.129259244671
-0.129429290707
-0.129614064335
-0.129815188819
-0.130028987821
-0.130265348832
-0.130521006514
-0.130783391574
-0.131057753201
-0.131345326393
-0.131649431587
-0.131972435469
-0.132316116384
-0.132689517847
-0.133097105645
-0.13351861147
-0.13393863439
-0.134361854529
-0.134788760785
-0.135194611484
-0.135525423247
-0.136225250011
-0.137298648277
-0.135725708899
-0.134382753562
-0.133691666885
-0.132760763719
-0.131220970474
-0.128931447199
-0.126172375694
-0.123037483651
-0.119621098906
-0.116037569298
-0.112381259691
-0.108708058814
-0.105033320531
-0.101337670692
-0.0975822156754
-0.0937138323855
-0.0896700884883
-0.085409036575
-0.0809641991144
-0.0764367159496
-0.071767606545
-0.0667496984924
-0.0613663248936
-0.0558574120841
-0.0494301883209
-0.0362208343971
-0.0044494550518
0.0375779251779
-0.127213966778
-0.12721516774
-0.127218130589
-0.127232040331
-0.127244421129
-0.127255626228
-0.127269222628
-0.127292585368
-0.127312711943
-0.127351268349
-0.127395652721
-0.12744048517
-0.127484825493
-0.127534000555
-0.127593100307
-0.127653778495
-0.127713032613
-0.127771843961
-0.127830469481
-0.127892164713
-0.127957760762
-0.128019742213
-0.128084294957
-0.128169266543
-0.128280783651
-0.128417956237
-0.128577974117
-0.128738120544
-0.128903287896
-0.129059612234
-0.129221769608
-0.129397314671
-0.129596045563
-0.129812077928
-0.130040064722
-0.130294815384
-0.130564756318
-0.130846466753
-0.131142825891
-0.131454257082
-0.13178523274
-0.132145233658
-0.132545421913
-0.132978316844
-0.133414145087
-0.133851754157
-0.134312448618
-0.134790648699
-0.135152747092
-0.134935276686
-0.136297978548
-0.135179210767
-0.13356042332
-0.131911683265
-0.130602625557
-0.128961688681
-0.126609769375
-0.123624988827
-0.120225004705
-0.116510780528
-0.112594447004
-0.108566395051
-0.104485928909
-0.100376788819
-0.0962323559376
-0.0920247309243
-0.0877136925562
-0.0832470198837
-0.078558099893
-0.0735709530604
-0.0682114350919
-0.0624029358245
-0.0560089699027
-0.0486571503188
-0.040147092671
-0.0305184657052
-0.0179284654688
0.00608555130552
0.0547498173812
0.112452418058
-0.127075986895
-0.12707697957
-0.127080873287
-0.127097108431
-0.127108064349
-0.1271190028
-0.127131198816
-0.127151308684
-0.127168210841
-0.127204881751
-0.127248154592
-0.127291520293
-0.127334516052
-0.127381521598
-0.127438120574
-0.127497445253
-0.12755862039
-0.127616779407
-0.127673316027
-0.127733100577
-0.12779709018
-0.127858755929
-0.127916618881
-0.127992918295
-0.128095250463
-0.128219749866
-0.128366985639
-0.128515241217
-0.128670958333
-0.128832984738
-0.128997632032
-0.129166056029
-0.129348831987
-0.129560752299
-0.129793997275
-0.13004616399
-0.130319492187
-0.130607546923
-0.130912316627
-0.131234672645
-0.131580057315
-0.131963488646
-0.132393624421
-0.132845960954
-0.133304309473
-0.133792406988
-0.134363110331
-0.135056683507
-0.135754359381
-0.134834582444
-0.133736064637
-0.132494587767
-0.131057055436
-0.129320752572
-0.127283256669
-0.124691003245
-0.12147406363
-0.117784181184
-0.113788087678
-0.109583837922
-0.105267557468
-0.100901281384
-0.0965184751627
-0.0921242052374
-0.0877008580962
-0.0832110174253
-0.0785971227953
-0.073778155728
-0.0686489281223
-0.0630801104205