/*--------------------------------*- C++ -*----------------------------------*\
| =========                 |                                                 |
| \\      /  F ield         | OpenFOAM: The Open Source CFD Toolbox           |
|  \\    /   O peration     | Version:  v1806                                 |
|   \\  /    A nd           | Web:      www.OpenFOAM.com                      |
|    \\/     M anipulation  |                                                 |
\*---------------------------------------------------------------------------*/
FoamFile
{
    version     2.0;
    format      ascii;
    class       surfaceScalarField;
    location    "905";
    object      phi;
}
// * * * * * * * * * * * * * * * * * * * * * * * * * * * * * * * * * * * * * //

dimensions      [0 3 -1 0 0 0 0];
oriented        oriented;


internalField   nonuniform List<scalar> 
12640
(
-2.57909981451e-07
2.58080403417e-07
-4.82951633714e-07
2.25206435001e-07
-6.71802336649e-07
1.88977650362e-07
-8.27074681624e-07
1.55380223787e-07
-9.42312792946e-07
1.15326920989e-07
-1.01753801973e-06
7.53111405268e-08
-1.07253745156e-06
5.50809250385e-08
-1.14829678583e-06
7.58333271379e-08
-1.2457576213e-06
9.75306172698e-08
-1.33662146086e-06
9.09260246793e-08
-1.41884351713e-06
8.22755835495e-08
-1.50023231525e-06
8.14372041011e-08
-1.57168343583e-06
7.14955254601e-08
-1.63018505756e-06
5.85429059194e-08
-1.6830788192e-06
5.29325151872e-08
-1.74132212913e-06
5.8279507975e-08
-1.80049809665e-06
5.92102670541e-08
-1.85059671544e-06
5.01309502521e-08
-1.89095124978e-06
4.03852119171e-08
-1.92914217059e-06
3.82203337434e-08
-1.97686438859e-06
4.77506342123e-08
-2.03346351852e-06
5.66258387348e-08
-2.0894962801e-06
5.60577974111e-08
-2.14065647526e-06
5.1183011565e-08
-2.18622324885e-06
4.55879357036e-08
-2.22672974244e-06
4.05258793476e-08
-2.2636834754e-06
3.69720418031e-08
-2.29646838862e-06
3.28017837241e-08
-2.32451867572e-06
2.80662732234e-08
-2.3488058342e-06
2.43018521898e-08
-2.37123071086e-06
2.24387969865e-08
-2.39114608415e-06
1.99282092691e-08
-2.40751448507e-06
1.63807749363e-08
-2.42299648827e-06
1.54935061878e-08
-2.43795823448e-06
1.49729313736e-08
-2.45140262052e-06
1.34547563255e-08
-2.46396578579e-06
1.2573109922e-08
-2.47447400256e-06
1.05172659154e-08
-2.48113773187e-06
6.67240115322e-09
-2.48385170467e-06
2.72185135947e-09
-2.48456170192e-06
7.17420709745e-10
-2.48171644958e-06
-2.83875594089e-09
-2.47194308512e-06
-9.76735100578e-09
-2.45687244518e-06
-1.50653804092e-08
-2.43829821545e-06
-1.85693274349e-08
-2.41569979868e-06
-2.25941562919e-08
-2.38850828557e-06
-2.71875747731e-08
-2.35587282531e-06
-3.26321167522e-08
-2.3176005797e-06
-3.82692075051e-08
-2.27565846691e-06
-4.19396282211e-08
-2.23233785251e-06
-4.33184509886e-08
-2.18441572591e-06
-4.79204401394e-08
-2.12494581404e-06
-5.94684812318e-08
-2.05504997478e-06
-6.98948228963e-08
-1.9748473326e-06
-8.02019884522e-08
-1.88245913331e-06
-9.23880438257e-08
-1.7855654111e-06
-9.6894288069e-08
-1.68609762588e-06
-9.94693632549e-08
-1.57595060524e-06
-1.10149930826e-07
-1.45480593931e-06
-1.21149734473e-07
-1.32739428611e-06
-1.27417907758e-07
-1.1830632031e-06
-1.44339457963e-07
-9.99540916837e-07
-1.83531909058e-07
-7.89485310263e-07
-2.10065953702e-07
-6.12961727363e-07
-1.76532349822e-07
-4.88638828317e-07
-1.24331208317e-07
-3.88975249215e-07
-9.96709630323e-08
-2.98730161048e-07
-9.0253534125e-08
-2.13972913485e-07
-8.47681808952e-08
-1.34246109341e-07
-7.97388768468e-08
-6.50909752871e-08
-6.91731041615e-08
-1.18982761e-08
-5.32036877156e-08
2.43091571327e-08
-3.62222789878e-08
4.64397821978e-08
-2.21416422547e-08
5.60594766854e-08
-9.62602551106e-09
5.700924968e-08
-9.5968377906e-10
5.39868799078e-08
3.01392440816e-09
4.27170238907e-08
1.12649053775e-08
2.73843715178e-08
1.5303946404e-08
2.73706118182e-08
-1.37930259378e-07
3.96149495648e-07
-3.18937907293e-07
4.06339514425e-07
-4.8999943059e-07
3.60149938115e-07
-6.60188227475e-07
3.25656219269e-07
-8.60107238591e-07
3.15334531553e-07
-1.00623257009e-06
2.21518142266e-07
-1.09030464295e-06
1.39232753796e-07
-1.17012894178e-06
1.55737165711e-07
-1.25751355009e-06
1.84987446923e-07
-1.34931001646e-06
1.82786299354e-07
-1.43509723484e-06
1.68119613234e-07
-1.50698338694e-06
1.53373230677e-07
-1.57046401758e-06
1.35021637911e-07
-1.62888558011e-06
1.17007223639e-07
-1.68402442071e-06
1.08112044237e-07
-1.74346206411e-06
1.17756128604e-07
-1.79934857227e-06
1.15132436138e-07
-1.83524273556e-06
8.60580941732e-08
-1.86720424061e-06
7.23776416791e-08
-1.91187350836e-06
8.2919924631e-08
-1.96858275646e-06
1.04489300449e-07
-2.03309436756e-06
1.21165667029e-07
-2.09310064524e-06
1.16089845621e-07
-2.14160651832e-06
9.9712877888e-08
-2.18511294309e-06
8.91160959325e-08
-2.22773733972e-06
8.31707408173e-08
-2.26519824493e-06
7.44517096735e-08
-2.29703751921e-06
6.46588739681e-08
-2.32503666583e-06
5.60817786746e-08
-2.34979103946e-06
4.90717465944e-08
-2.37119582241e-06
4.38578318959e-08
-2.3896563544e-06
3.8402294358e-08
-2.40470840035e-06
3.1445429994e-08
-2.41935424946e-06
3.01515569143e-08
-2.43616527967e-06
3.17953263392e-08
-2.45030790578e-06
2.76083337601e-08
-2.4620472412e-06
2.43225885714e-08
-2.47437262266e-06
2.28521717709e-08
-2.485497403e-06
1.78059832481e-08
-2.49028643158e-06
7.51913694867e-09
-2.48077851413e-06
-8.78298401718e-09
-2.46227616751e-06
-2.13343776655e-08
-2.44708604872e-06
-2.4951419211e-08
-2.43428106978e-06
-2.78649690124e-08
-2.41929490099e-06
-3.35505675811e-08
-2.40094845186e-06
-4.09363134382e-08
-2.37797691915e-06
-5.01551566938e-08
-2.35027532511e-06
-6.03304167434e-08
-2.31716879815e-06
-7.13726957326e-08
-2.27519268904e-06
-8.39133833045e-08
-2.22177058482e-06
-9.67383964088e-08
-2.16362889598e-06
-1.06060689991e-07
-2.11102624616e-06
-1.12069753534e-07
-2.05099878549e-06
-1.29921677284e-07
-1.9747222002e-06
-1.56478105767e-07
-1.89241091293e-06
-1.74699832061e-07
-1.80237338014e-06
-1.86932695421e-07
-1.6999476498e-06
-2.01897349736e-07
-1.5885718989e-06
-2.21529145166e-07
-1.46537902205e-06
-2.4434806345e-07
-1.32060420441e-06
-2.72198843584e-07
-1.15993004826e-06
-3.05020330741e-07
-9.75304013216e-07
-3.68165889716e-07
-7.74538861778e-07
-4.10840805162e-07
-5.93071275607e-07
-3.58011621945e-07
-4.50884418222e-07
-2.66527414833e-07
-3.50604072378e-07
-1.99961372279e-07
-2.6942865304e-07
-1.71440210389e-07
-1.91334708283e-07
-1.6287532006e-07
-1.15329700217e-07
-1.55762082577e-07
-4.87534503526e-08
-1.35762311841e-07
1.82261503948e-09
-1.03799560152e-07
3.68482640489e-08
-7.12559091645e-08
5.9781027523e-08
-4.50858739363e-08
7.20147302042e-08
-2.18709484938e-08
7.56888454939e-08
-4.63913285512e-09
7.02875756942e-08
8.40529991375e-09
5.73476099773e-08
2.41833929218e-08
3.23874379426e-08
4.02483588011e-08
5.9729258334e-08
-1.7374199854e-07
5.69951921436e-07
-2.69258666342e-07
5.01959832445e-07
-4.68686346791e-07
5.59678655962e-07
-6.89676232159e-07
5.46739791599e-07
-8.90577287679e-07
5.16315460959e-07
-9.99120646995e-07
3.30131631703e-07
-1.05570826021e-06
1.95894235104e-07
-1.1439757233e-06
2.44080590856e-07
-1.2449791341e-06
2.86061435017e-07
-1.34218759929e-06
2.80058342886e-07
-1.43128604302e-06
2.57272717492e-07
-1.50668048045e-06
2.2881684193e-07
-1.57081759924e-06
1.99204247163e-07
-1.63084053002e-06
1.77073473117e-07
-1.67942314405e-06
1.56736147438e-07
-1.68329795446e-06
1.21668828855e-07
-1.66119646408e-06
9.306409233e-08
-1.6783444869e-06
1.03236658063e-07
-1.75015805449e-06
1.4422133376e-07
-1.86298048693e-06
1.95772545903e-07
-1.97085359727e-06
2.12392273262e-07
-2.03935664594e-06
1.89696654589e-07
-2.09010314933e-06
1.66862168765e-07
-2.14166391641e-06
1.51297297949e-07
-2.18928554811e-06
1.36759691147e-07
-2.22930151565e-06
1.23206931935e-07
-2.26469119039e-06
1.09860314383e-07
-2.29669341259e-06
9.66786626534e-08
-2.32483215094e-06
8.42370186227e-08
-2.34971974383e-06
7.39746568569e-08
-2.37015841362e-06
6.43108562029e-08
-2.38793748914e-06
5.61947551117e-08
-2.405002661e-06
4.85233632817e-08
-2.41580110292e-06
4.09620699893e-08
-2.42861197079e-06
4.46177458172e-08
-2.44873187563e-06
4.77390746727e-08
-2.46255321774e-06
3.81541705094e-08
-2.47204319929e-06
3.23516168664e-08
-2.48377739926e-06
2.95490545146e-08
-2.49134632191e-06
1.50962483978e-08
-2.49223058461e-06
-7.89118902529e-09
-2.48716268968e-06
-2.63954797143e-08
-2.47608296099e-06
-3.60250093553e-08
-2.46074944535e-06
-4.31929543053e-08
-2.44190395645e-06
-5.23910850716e-08
-2.41898367856e-06
-6.38521148468e-08
-2.39192002175e-06
-7.72148501251e-08
-2.36031479594e-06
-9.19320963773e-08
-2.32373124449e-06
-1.0795316502e-07
-2.28234190721e-06
-1.25300008108e-07
-2.23640284478e-06
-1.42675172294e-07
-2.1837559423e-06
-1.58705612258e-07
-2.11912129489e-06
-1.7670283198e-07
-2.04644002801e-06
-2.02601606751e-07
-1.97231843473e-06
-2.30598849624e-07
-1.89156308205e-06
-2.55454753879e-07
-1.79792986403e-06
-2.80566051224e-07
-1.69141920819e-06
-3.08408944832e-07
-1.57297381883e-06
-3.39976465002e-07
-1.44116611056e-06
-3.76158484723e-07
-1.29441137906e-06
-4.18956200592e-07
-1.11843217492e-06
-4.81002670659e-07
-9.12432179259e-07
-5.74170302891e-07
-7.00522686943e-07
-6.22760098876e-07
-5.25871120302e-07
-5.32672008754e-07
-4.09584137222e-07
-3.82826572023e-07
-3.10964099788e-07
-2.98594015224e-07
-2.22988840342e-07
-2.59429209418e-07
-1.45272701311e-07
-2.40609124167e-07
-7.50864856172e-08
-2.25961694303e-07
-1.49580145137e-08
-1.95915226789e-07
3.28674690199e-08
-1.51629155368e-07
6.7796211918e-08
-1.06202676338e-07
8.60203711432e-08
-6.33182337245e-08
9.23073060035e-08
-2.81641747459e-08
9.06395959842e-08
-2.98402386175e-09
8.24050385698e-08
1.66269853078e-08
6.76504098358e-08
3.89296151861e-08
3.21143669858e-08
7.57410375461e-08
9.18398018597e-08
-1.26302639333e-07
6.96366084264e-07
-1.76793137862e-07
5.52518440028e-07
-3.98207911044e-07
7.81181232611e-07
-5.82129067088e-07
7.30746940431e-07
-6.10251264984e-07
5.44505232998e-07
-5.61157208369e-07
2.81076418847e-07
-7.55897966149e-07
3.90685933915e-07
-1.03344441115e-06
5.21697840652e-07
-1.20615970871e-06
4.58845225578e-07
-1.32350886271e-06
3.97468216492e-07
-1.4235971049e-06
3.57414966353e-07
-1.50816010432e-06
3.13427471681e-07
-1.56948700835e-06
2.60575143775e-07
-1.58127341157e-06
1.88900996426e-07
-1.55340768877e-06
1.2890855907e-07
-1.54887738169e-06
1.17173795739e-07
-1.60526796265e-06
1.49487678136e-07
-1.71583089472e-06
2.13831780591e-07
-1.84091521443e-06
2.69337724082e-07
-1.92773970382e-06
2.82628257636e-07
-1.98317008055e-06
2.67852063404e-07
-2.03975853902e-06
2.4631269202e-07
-2.09558930863e-06
2.22718446652e-07
-2.14460442234e-06
2.00335947393e-07
-2.18829087605e-06
1.80467741989e-07
-2.22755348925e-06
1.62489607895e-07
-2.26374720954e-06
1.46072619399e-07
-2.2961919373e-06
1.29140827571e-07
-2.32488148384e-06
1.12942777411e-07
-2.34862003676e-06
9.77283677369e-08
-2.3702074007e-06
8.59123369022e-08
-2.38630899824e-06
7.23096244283e-08
-2.39792591875e-06
6.01528627431e-08
-2.41806337249e-06
6.11116426111e-08
-2.43559387527e-06
6.21597238005e-08
-2.45029111329e-06
6.24471528303e-08
-2.47256318924e-06
6.04363922884e-08
-2.48962157602e-06
4.94194897614e-08
-2.49495847715e-06
3.48947152686e-08
-2.49519272438e-06
1.53386067256e-08
-2.4941728341e-06
-8.90364444266e-09
-2.49004171838e-06
-3.05198179568e-08
-2.48032302463e-06
-4.5737566364e-08
-2.46538176913e-06
-5.8128657847e-08
-2.44617731844e-06
-7.15905041754e-08
-2.42283813415e-06
-8.7186768215e-08
-2.39527953954e-06
-1.04769335842e-07
-2.3632158763e-06
-1.23992072865e-07
-2.32639427556e-06
-1.44771439293e-07
-2.28471990065e-06
-1.66971388931e-07
-2.23746848966e-06
-1.89923910061e-07
-2.18254173496e-06
-2.13629941753e-07
-2.11866955597e-06
-2.4057276922e-07
-2.04856694741e-06
-2.72702224296e-07
-1.97228194053e-06
-3.06882074782e-07
-1.88618695197e-06
-3.41548073933e-07
-1.78766579638e-06
-3.79085810846e-07
-1.67504718094e-06
-4.21026277548e-07
-1.54660330899e-06
-4.68419423852e-07
-1.39937294986e-06
-5.23387639657e-07
-1.22771401905e-06
-5.90613701541e-07
-1.03207882888e-06
-6.76635822549e-07
-8.44562218452e-07
-7.61689887367e-07
-6.7160979315e-07
-7.95716354943e-07
-4.92542331046e-07
-7.11753804996e-07
-3.50123581794e-07
-5.252590079e-07
-2.45441241309e-07
-4.03291202324e-07
-1.610950011e-07
-3.43792264288e-07
-9.00939594242e-08
-3.11623895892e-07
-2.51415722936e-08
-2.90939280734e-07
3.58276115436e-08
-2.56885184351e-07
8.09211360955e-08
-1.96751236521e-07
1.00246230025e-07
-1.255280021e-07
1.05288890737e-07
-6.83733076367e-08
1.0595593393e-07
-2.88438936123e-08
9.80629241045e-08
4.89907672768e-09
7.74845287478e-08
3.71934749358e-08
5.53445473925e-08
6.10453342911e-08
2.9629120263e-08
1.01452561966e-07
1.21443977838e-07
-3.25650670791e-08
7.28950126395e-07
-1.56392516561e-07
6.76395306804e-07
-3.36560227117e-07
9.6141449195e-07
-4.79885151488e-07
8.74129075164e-07
-4.7475324694e-07
5.39422045233e-07
-5.87341004292e-07
3.93705584158e-07
-8.20844876239e-07
6.24247931641e-07
-9.98495923214e-07
6.99412708827e-07
-1.14980023742e-06
6.10212429226e-07
-1.28283458324e-06
5.30558160031e-07
-1.40090322959e-06
4.75533444601e-07
-1.47186960072e-06
3.84437872009e-07
-1.46828330052e-06
2.57028205714e-07
-1.45582333498e-06
1.76478218145e-07
-1.50038265605e-06
1.73504598016e-07
-1.59568319476e-06
2.12510688681e-07
-1.7159831787e-06
2.69823620648e-07
-1.8177144304e-06
3.15597943291e-07
-1.87901452814e-06
3.30670803658e-07
-1.92640057576e-06
3.30045215437e-07
-1.98296673835e-06
3.24447369007e-07
-2.04164755867e-06
3.05020752112e-07
-2.09578336859e-06
2.76879376313e-07
-2.14397266554e-06
2.48548291106e-07
-2.18697096087e-06
2.23487367425e-07
-2.22685222736e-06
2.02390551278e-07
-2.26225330337e-06
1.81492098175e-07
-2.29530596851e-06
1.62210552558e-07
-2.32292244533e-06
1.40575185129e-07
-2.34640243428e-06
1.21223216209e-07
-2.3626082012e-06
1.02131971242e-07
-2.38174995329e-06
9.14644653197e-08
-2.40839938303e-06
8.68148728055e-08
-2.42565690718e-06
7.8381265634e-08
-2.44552710243e-06
8.20414044585e-08
-2.46895162027e-06
8.58824646858e-08
-2.4851377912e-06
7.6632627038e-08
-2.4952405135e-06
5.9531537094e-08
-2.49964264842e-06
3.93054949694e-08
-2.50023238987e-06
1.59363362635e-08
-2.49903608875e-06
-1.00925977138e-08
-2.49492118137e-06
-3.46280041214e-08
-2.48574891612e-06
-5.49037121236e-08
-2.47118449318e-06
-7.26875026052e-08
-2.45188734334e-06
-9.08825829546e-08
-2.42821700677e-06
-1.10852456535e-07
-2.40018478264e-06
-1.32797313451e-07
-2.36759063522e-06
-1.56582307066e-07
-2.33018757037e-06
-1.82170866436e-07
-2.28762568008e-06
-2.0952995137e-07
-2.23898369185e-06
-2.38562681373e-07
-2.18281284365e-06
-2.69797752427e-07
-2.11865269746e-06
-3.04729885202e-07
-2.04739897569e-06
-3.43952876678e-07
-1.96794285634e-06
-3.86334872012e-07
-1.87704396453e-06
-4.32443508704e-07
-1.77146838234e-06
-4.84657322881e-07
-1.64788530663e-06
-5.44605059773e-07
-1.502649e-06
-6.13650895293e-07
-1.33238708743e-06
-6.93644892132e-07
-1.13835169389e-06
-7.84642791682e-07
-9.40452031504e-07
-8.74533244888e-07
-7.70794149957e-07
-9.31345164344e-07
-6.05208121512e-07
-9.61314367521e-07
-4.49489026203e-07
-8.67484428031e-07
-3.08029326211e-07
-6.66736407024e-07
-1.87421667846e-07
-5.23916233168e-07
-9.27260856365e-08
-4.38502361769e-07
-1.88071767775e-08
-3.8556484687e-07
4.68649367084e-08
-3.56610922646e-07
1.01751154321e-07
-3.11809160074e-07
1.24420523598e-07
-2.19411550831e-07
1.27906739931e-07
-1.29039566993e-07
1.30810721867e-07
-7.12866725724e-08
1.27343772035e-07
-2.53915124455e-08
1.10347834332e-07
2.18752524299e-08
8.75148164562e-08
6.00072290355e-08
6.20334664951e-08
8.6519199187e-08
2.9691053697e-08
1.33749665612e-07
1.51132522653e-07
-1.8814170908e-08
7.47824602471e-07
-1.84413433155e-07
8.42038854739e-07
-2.9134899583e-07
1.06839921993e-06
-3.65781388266e-07
9.48610600463e-07
-3.72555055847e-07
5.46229406544e-07
-6.26290599753e-07
6.47488745546e-07
-8.54544006223e-07
8.52560529782e-07
-9.72397983715e-07
8.17325654715e-07
-1.10363079933e-06
7.41496470657e-07
-1.22677047456e-06
6.53751078235e-07
-1.29868869021e-06
5.47496930321e-07
-1.27565314123e-06
3.61438801998e-07
-1.27999876611e-06
2.61407413652e-07
-1.35960441346e-06
2.56118581251e-07
-1.48267105278e-06
2.96608439004e-07
-1.63047592289e-06
3.60354232711e-07
-1.7519086691e-06
3.91293799603e-07
-1.81888972912e-06
3.82613890657e-07
-1.86599636653e-06
3.77810104856e-07
-1.92634896868e-06
3.90428783749e-07
-1.987218019e-06
3.85345439073e-07
-2.04205263138e-06
3.59882141445e-07
-2.09394584388e-06
3.28797316115e-07
-2.14341656822e-06
2.9804181697e-07
-2.18753883867e-06
2.67630530061e-07
-2.22219183756e-06
2.3706292575e-07
-2.25823853695e-06
2.17556731105e-07
-2.29043745475e-06
1.94426223112e-07
-2.31868393822e-06
1.68837305179e-07
-2.33554158479e-06
1.38095365017e-07
-2.35295138269e-06
1.19555395609e-07
-2.37482724988e-06
1.13353361197e-07
-2.39618270434e-06
1.081828025e-07
-2.43239346564e-06
1.1460406741e-07
-2.46345041315e-06
1.13109829296e-07
-2.48214094738e-06
1.04583689282e-07
-2.49388247636e-06
8.8384054991e-08
-2.50160549915e-06
6.72637259087e-08
-2.50567935701e-06
4.33878486826e-08
-2.50675051752e-06
1.70153505311e-08
-2.50557401489e-06
-1.12618520199e-08
-2.50131443809e-06
-3.88809354199e-08
-2.49235436607e-06
-6.38576933746e-08
-2.47809079701e-06
-8.69455060022e-08
-2.45883300302e-06
-1.10135244966e-07
-2.43491841414e-06
-1.34762306695e-07
-2.40641444757e-06
-1.61296847179e-07
-2.37315535602e-06
-1.89837204539e-07
-2.33485091137e-06
-2.20471406152e-07
-2.29103572928e-06
-2.53341235483e-07
-2.2408814213e-06
-2.88713352124e-07
-2.1834138444e-06
-3.27261511609e-07
-2.11817068858e-06
-3.69969103367e-07
-2.04471606169e-06
-4.17403200508e-07
-1.96089503541e-06
-4.70151095223e-07
-1.86294189162e-06
-5.30390898368e-07
-1.74653890513e-06
-6.01053921904e-07
-1.60715197828e-06
-6.83984318848e-07
-1.44126074467e-06
-7.7953458088e-07
-1.24983965123e-06
-8.85057086026e-07
-1.04437786832e-06
-9.90099684328e-07
-8.48638355985e-07
-1.07026567288e-06
-6.77277953482e-07
-1.1027115016e-06
-5.13845260355e-07
-1.12474856214e-06
-3.59162082659e-07
-1.02218570447e-06
-2.33891050811e-07
-7.92021880456e-07
-1.15575429664e-07
-6.42244585584e-07
-1.27779856332e-08
-5.41319820979e-07
7.03831323808e-08
-4.68729255287e-07
1.35532811552e-07
-4.21798650363e-07
1.64581871323e-07
-3.40841676869e-07
1.62450705985e-07
-2.17320811653e-07
1.63254206899e-07
-1.29844679696e-07
1.641855417e-07
-7.22413951737e-08
1.55142292707e-07
-1.63709630781e-08
1.32108915266e-07
4.48882482391e-08
1.03191819596e-07
8.89065439388e-08
7.25325685575e-08
1.17144392758e-07
3.69829503784e-08
1.6929549432e-07
1.88085771139e-07
-7.37866229146e-08
8.21624357678e-07
-2.58901029154e-07
1.02719004488e-06
-3.54045853495e-07
1.16357863568e-06
-3.30954141158e-07
9.25556647889e-07
-4.41913011597e-07
6.57227008787e-07
-7.06173268824e-07
9.11802833921e-07
-8.37726037245e-07
9.84170282016e-07
-9.43062900493e-07
9.22709612174e-07
-1.04374858232e-06
8.42235059744e-07
-1.17071400512e-06
7.80756015527e-07
-1.1830890815e-06
5.59910176839e-07
-1.17650168801e-06
3.54882119418e-07
-1.25842970987e-06
3.43369171233e-07
-1.36928060592e-06
3.67006176336e-07
-1.51968835297e-06
4.47055264972e-07
-1.65706684443e-06
4.97771626857e-07
-1.73404561795e-06
4.68309087043e-07
-1.78718869237e-06
4.35791077825e-07
-1.85901220322e-06
4.49666404424e-07
-1.92806775617e-06
4.59515368181e-07
-1.98648027127e-06
4.43786550402e-07
-2.04167119265e-06
4.15099594962e-07
-2.09474202123e-06
3.81892575481e-07
-2.14091629409e-06
3.44238272099e-07
-2.17985051806e-06
3.0658534171e-07
-2.21686619792e-06
2.74097498494e-07
-2.24677437998e-06
2.47482634509e-07
-2.27930999896e-06
2.26978188786e-07
-2.30400734976e-06
1.93549823077e-07
-2.32257319736e-06
1.56675330355e-07
-2.34788074456e-06
1.44876555775e-07
-2.37630557583e-06
1.41791107836e-07
-2.41229209881e-06
1.44181830206e-07
-2.44528257028e-06
1.4760655136e-07
-2.47465446104e-06
1.42493014568e-07
-2.4920286793e-06
1.21968398975e-07
-2.50223624284e-06
9.86013187537e-08
-2.50914899151e-06
7.41854757424e-08
-2.51334892577e-06
4.75961167785e-08
-2.51482594117e-06
1.85000948325e-08
-2.51369635273e-06
-1.23843192754e-08
-2.50928935194e-06
-4.32813669803e-08
-2.50038552778e-06
-7.27554888446e-08
-2.48631463683e-06
-1.01010814055e-07
-2.46711214289e-06
-1.29332559688e-07
-2.44297973515e-06
-1.58889825308e-07
-2.41394684263e-06
-1.90325086912e-07
-2.37983584666e-06
-2.23943791227e-07
-2.34033504761e-06
-2.59967763015e-07
-2.29498695766e-06
-2.98685236757e-07
-2.2431207913e-06
-3.40575141429e-07
-2.18395688295e-06
-3.86421017282e-07
-2.11667282851e-06
-4.37248411129e-07
-2.0397361782e-06
-4.94334368557e-07
-1.9499619531e-06
-5.59918792299e-07
-1.84269077713e-06
-6.37654753305e-07
-1.7126950582e-06
-7.3104046589e-07
-1.55582474315e-06
-8.40844959146e-07
-1.37236608583e-06
-9.62982928944e-07
-1.17012845357e-06
-1.08728755125e-06
-9.6601402744e-07
-1.19420442276e-06
-7.77143267628e-07
-1.25913712082e-06
-5.95533435898e-07
-1.28431337861e-06
-4.45341887319e-07
-1.27495233353e-06
-2.76384734178e-07
-1.19114664715e-06
-1.3733133886e-07
-9.31082610135e-07
-2.151462458e-08
-7.58078267334e-07
8.72114274299e-08
-6.50054234063e-07
1.75732521942e-07
-5.57282178939e-07
2.22025009869e-07
-4.6807760852e-07
2.18913181214e-07
-3.37781528087e-07
2.08487515151e-07
-2.06890333105e-07
2.06824218493e-07
-1.28217250312e-07
2.03399788715e-07
-6.88377643253e-08
1.8925941102e-07
-2.25399348038e-09
1.63968449442e-07
7.01544594026e-08
1.27528036015e-07
1.25321769046e-07
8.65328603726e-08
1.58128364098e-07
4.66371106077e-08
2.0913430222e-07
2.3472329978e-07
-1.25970828293e-07
9.47658114463e-07
-2.82068938366e-07
1.18332790024e-06
-3.36496200879e-07
1.21804747249e-06
-2.69443394399e-07
8.58532412823e-07
-4.83499699955e-07
8.71323508887e-07
-6.95482434292e-07
1.12383994848e-06
-8.05027792735e-07
1.09376211575e-06
-9.1759563919e-07
1.03532635635e-06
-9.70434739865e-07
8.9510817098e-07
-1.02752946223e-06
8.37891728832e-07
-1.02918379671e-06
5.61591579263e-07
-1.14189550401e-06
4.67625431014e-07
-1.24864707391e-06
4.50154352318e-07
-1.39420553885e-06
5.1260205308e-07
-1.54572348352e-06
5.98613750854e-07
-1.63346343895e-06
5.8554955933e-07
-1.69095904619e-06
5.25839358042e-07
-1.77389131873e-06
5.18757121467e-07
-1.85809732919e-06
5.33905399214e-07
-1.92419508712e-06
5.25643980356e-07
-1.98098733424e-06
5.00607429612e-07
-2.03513011764e-06
4.69268626085e-07
-2.09051666015e-06
4.37302817435e-07
-2.14298045655e-06
3.96724083309e-07
-2.17935187953e-06
3.4297667717e-07
-2.21825574098e-06
3.13019921106e-07
-2.25046505691e-06
2.79709170186e-07
-2.26684830679e-06
2.43377485176e-07
-2.29067081203e-06
2.17387094017e-07
-2.33642681158e-06
2.0244536963e-07
-2.37014728133e-06
1.78610446938e-07
-2.38939751443e-06
1.61054353567e-07
-2.42451301167e-06
1.7930983361e-07
-2.46235526155e-06
1.85460674226e-07
-2.48494354694e-06
1.65092379966e-07
-2.50018755102e-06
1.37222654227e-07
-2.51082316232e-06
1.09246444338e-07
-2.51807759332e-06
8.14487106707e-08
-2.52257683193e-06
5.21035346017e-08
-2.52438481907e-06
2.03156397362e-08
-2.52333551468e-06
-1.34266209413e-08
-2.51883225317e-06
-4.77781842828e-08
-2.50994664971e-06
-8.16351150302e-08
-2.49601158763e-06
-1.14940330628e-07
-2.47684740398e-06
-1.48491498677e-07
-2.45247341952e-06
-1.8325881654e-07
-2.42281592631e-06
-2.19977776371e-07
-2.38765043714e-06
-2.59104455077e-07
-2.34666471417e-06
-3.00949004657e-07
-2.2994622776e-06
-3.45882841006e-07
-2.2454937803e-06
-3.94539035611e-07
-2.18397042677e-06
-4.47939353615e-07
-2.11359397229e-06
-5.07619299267e-07
-2.03192688635e-06
-5.75994820705e-07
-1.93492434842e-06
-6.56914459397e-07
-1.81734730257e-06
-7.55222797495e-07
-1.6741101697e-06
-8.74267465915e-07
-1.50305292459e-06
-1.01189203639e-06
-1.30873236599e-06
-1.15729481565e-06
-1.10201729787e-06
-1.2939917921e-06
-8.94830828867e-07
-1.40138681676e-06
-6.97130706479e-07
-1.45682419642e-06
-5.20649943049e-07
-1.46079629964e-06
-3.79597684349e-07
-1.41599708419e-06
-2.28255554949e-07
-1.34249087546e-06
-3.74667601273e-08
-1.12187994902e-06
9.29379456465e-08
-8.88486987294e-07
1.97904152415e-07
-7.55047354474e-07
2.77660664562e-07
-6.37049784426e-07
3.01953638412e-07
-4.92419543445e-07
2.82388385446e-07
-3.18203252317e-07
2.6353388112e-07
-1.88076127636e-07
2.51753357813e-07
-1.16450158366e-07
2.46103570388e-07
-6.32146899682e-08
2.35094513089e-07
8.73143227892e-09
2.08077115933e-07
9.71467923471e-08
1.62535391533e-07
1.7083826944e-07
1.0520880764e-07
2.154127967e-07
5.37043621968e-08
2.60638564788e-07
2.88385655468e-07
-1.56541433255e-07
1.10421282333e-06
-2.75063773542e-07
1.30188524372e-06
-2.87076024801e-07
1.23008510988e-06
-3.24689714271e-07
8.96177170307e-07
-5.51236470778e-07
1.09791202465e-06
-6.58831137653e-07
1.23147954041e-06
-7.624552067e-07
1.19742864207e-06
-8.73167868626e-07
1.14607470368e-06
-9.32902875258e-07
9.54879538674e-07
-9.93061604667e-07
8.98081282603e-07
-1.03491172698e-06
6.03470178845e-07
-1.13845449026e-06
5.71197667394e-07
-1.26294584583e-06
5.74682192995e-07
-1.42032104437e-06
6.70016797269e-07
-1.54948556392e-06
7.27815660544e-07
-1.61984618996e-06
6.55946116792e-07
-1.68416286793e-06
5.90190253287e-07
-1.76862640728e-06
6.03254658679e-07
-1.84899214438e-06
6.14303974398e-07
-1.91827461243e-06
5.94957408659e-07
-1.97843577115e-06
5.60797070027e-07
-2.02917474717e-06
5.20032965872e-07
-2.07425761874e-06
4.82409157693e-07
-2.12149870949e-06
4.4398598243e-07
-2.16433104732e-06
3.85828262128e-07
-2.19516296721e-06
3.4387013733e-07
-2.23448367096e-06
3.19046461259e-07
-2.27544922099e-06
2.84358847148e-07
-2.30968599731e-06
2.51638331202e-07
-2.33928977207e-06
2.32062959778e-07
-2.3730596123e-06
2.12393682664e-07
-2.42219970518e-06
2.10207578308e-07
-2.45309077416e-06
2.10213428476e-07
-2.47485330628e-06
2.07234900836e-07
-2.49388931555e-06
1.84139180953e-07
-2.50919552069e-06
1.52538872878e-07
-2.52056185456e-06
1.20622050564e-07
-2.528373212e-06
8.92686934786e-08
-2.53320796701e-06
5.69462643409e-08
-2.53530115048e-06
2.24162224787e-08
-2.53441564418e-06
-1.43053148177e-08
-2.52993832874e-06
-5.22491782019e-08
-2.52110200922e-06
-9.04655791728e-08
-2.50729030304e-06
-1.28746508836e-07
-2.48815965961e-06
-1.67616896578e-07
-2.46351157619e-06
-2.07901808999e-07
-2.43312471986e-06
-2.5035957862e-07
-2.39670461318e-06
-2.95519759552e-07
-2.35393066221e-06
-3.43717847976e-07
-2.30446420124e-06
-3.95344656737e-07
-2.24782451958e-06
-4.51173598277e-07
-2.18312895483e-06
-5.12629712645e-07
-2.10866645822e-06
-5.82075680063e-07
-2.02143999941e-06
-6.63215487678e-07
-1.91712739095e-06
-7.6121904189e-07
-1.79079586124e-06
-8.81545479532e-07
-1.63798913918e-06
-1.02706563102e-06
-1.45700201879e-06
-1.1928697389e-06
-1.25489627593e-06
-1.35938932964e-06
-1.04339660981e-06
-1.50548258466e-06
-8.25893816739e-07
-1.61887347822e-06
-6.15263244818e-07
-1.66744698312e-06
-4.26865964953e-07
-1.64917807305e-06
-2.67343014197e-07
-1.5755135137e-06
-1.49107174489e-07
-1.4607218138e-06
2.50554049227e-08
-1.29603636695e-06
2.12844750643e-07
-1.07630708887e-06
3.12653179661e-07
-8.54902322977e-07
3.87016425263e-07
-7.11472656664e-07
4.02751763263e-07
-5.0816310152e-07
3.6545841377e-07
-2.80951211202e-07
3.18856489079e-07
-1.41477779285e-07
2.87409141925e-07
-8.50279993994e-08
2.87542997582e-07
-6.33644352899e-08
2.94732200619e-07
1.51730916172e-09
2.65998101885e-07
1.25852556983e-07
2.03168063397e-07
2.33640589251e-07
1.27585038447e-07
2.90979271533e-07
5.77712632001e-08
3.30376355728e-07
3.46160237895e-07
-1.73363802944e-07
1.27764689233e-06
-2.87403309954e-07
1.41596905014e-06
-2.67426658099e-07
1.21014343862e-06
-3.77813641566e-07
1.00659341464e-06
-5.68460973253e-07
1.28859740733e-06
-6.26064746343e-07
1.28911888653e-06
-7.14693520131e-07
1.28609712633e-06
-7.79431259775e-07
1.21084223047e-06
-8.70668125293e-07
1.04614687669e-06
-9.01948056652e-07
9.29389467291e-07
-1.00484812905e-06
7.0639641713e-07
-1.12938784489e-06
6.95770614031e-07
-1.26494877963e-06
7.10276477946e-07
-1.41062602198e-06
8.15731787542e-07
-1.50400369985e-06
8.21230568031e-07
-1.56519494456e-06
7.17169737046e-07
-1.65948768421e-06
6.8451633619e-07
-1.75341665505e-06
6.97217579583e-07
-1.83236205725e-06
6.93282120355e-07
-1.90568340541e-06
6.68309124858e-07
-1.97506876262e-06
6.30209791134e-07
-2.03514207954e-06
5.80132069589e-07
-2.07495286243e-06
5.22242600477e-07
-2.10763937958e-06
4.7669292188e-07
-2.16145101575e-06
4.39658900376e-07
-2.2003868879e-06
3.82823466538e-07
-2.21802861215e-06
3.36704753103e-07
-2.24517950012e-06
3.11524783075e-07
-2.28696725065e-06
2.93440626446e-07
-2.33924290398e-06
2.84352370449e-07
-2.38801091062e-06
2.61175064529e-07
-2.42711758582e-06
2.49327297163e-07
-2.46519582127e-06
2.48304108566e-07
-2.4881548143e-06
2.30205315663e-07
-2.50509070711e-06
2.01085604201e-07
-2.51985729695e-06
1.67315202314e-07
-2.53172343964e-06
1.32497263378e-07
-2.54011736644e-06
9.76710061231e-08
-2.54528527289e-06
6.21219508503e-08
-2.54758710396e-06
2.47252130967e-08
-2.54688487808e-06
-1.50009048567e-08
-2.54255727053e-06
-5.6570661129e-08
-2.53386649007e-06
-9.91506116658e-08
-2.52021305979e-06
-1.42394532248e-07
-2.50114522002e-06
-1.86679494709e-07
-2.47624649259e-06
-2.32795418622e-07
-2.44507817459e-06
-2.81522911015e-07
-2.40722374658e-06
-3.33369044851e-07
-2.36234287874e-06
-3.88593971511e-07
-2.31013540391e-06
-4.47547010371e-07
-2.25016034667e-06
-5.11143762764e-07
-2.18146993123e-06
-5.81314701769e-07
-2.10217598293e-06
-6.61363879059e-07
-2.0093113304e-06
-7.56073596542e-07
-1.89933173136e-06
-8.71192324688e-07
-1.76872090266e-06
-1.01214909866e-06
-1.6119330338e-06
-1.183843044e-06
-1.42172745135e-06
-1.38306948407e-06
-1.21118904317e-06
-1.56992049929e-06
-9.98909773245e-07
-1.71774552796e-06
-7.6606642599e-07
-1.85169743814e-06
-5.27018685987e-07
-1.90646644315e-06
-3.01571085179e-07
-1.87460416129e-06
-1.0703487844e-07
-1.77002716953e-06
3.7002935072e-08
-1.60474004757e-06
1.50917746416e-07
-1.40996944606e-06
2.65187222398e-07
-1.19063159739e-06
4.01612293069e-07
-9.91413447486e-07
5.06720995005e-07
-8.16635101198e-07