/*--------------------------------*- C++ -*----------------------------------*\
| =========                 |                                                 |
| \\      /  F ield         | OpenFOAM: The Open Source CFD Toolbox           |
|  \\    /   O peration     | Version:  v1806                                 |
|   \\  /    A nd           | Web:      www.OpenFOAM.com                      |
|    \\/     M anipulation  |                                                 |
\*---------------------------------------------------------------------------*/
FoamFile
{
    version     2.0;
    format      ascii;
    class       volVectorField;
    location    "562";
    object      Ua;
}
// * * * * * * * * * * * * * * * * * * * * * * * * * * * * * * * * * * * * * //

dimensions      [0 1 -1 0 0 0 0];


internalField   nonuniform List<vector> 
6400
(
(4.99078307445e-05 6.57856816922e-05 0)
(0.000135496440411 4.98870338663e-05 0)
(0.000197713139547 4.07121851384e-05 0)
(0.000265610478162 3.68181211601e-05 0)
(0.000316473575491 2.52354870935e-05 0)
(0.000354498937455 1.61615613169e-05 0)
(0.000377064765964 1.29236905871e-05 0)
(0.000396764458186 1.85005821232e-05 0)
(0.000445229587276 2.56852953379e-05 0)
(0.000495606565957 2.55882341238e-05 0)
(0.000521873698424 2.37583058383e-05 0)
(0.000569796847578 2.57411841703e-05 0)
(0.000615516007333 2.50515114469e-05 0)
(0.000655879765021 2.28473688319e-05 0)
(0.000690002370026 2.21474959062e-05 0)
(0.000726702173412 2.45530862796e-05 0)
(0.000770782576809 2.5789743843e-05 0)
(0.000811930055337 2.4602803105e-05 0)
(0.000847208106961 2.25639517575e-05 0)
(0.000882639722346 2.22360675047e-05 0)
(0.000925812104606 2.67048434946e-05 0)
(0.00097686872751 3.14001637067e-05 0)
(0.00103112338474 3.28563804167e-05 0)
(0.00108299934214 3.27936064893e-05 0)
(0.00113360196145 3.18684431081e-05 0)
(0.00118376627307 3.07436312279e-05 0)
(0.00123498262414 3.07335727909e-05 0)
(0.00128525311485 3.04545642624e-05 0)
(0.00133281861013 2.95825910394e-05 0)
(0.00137802192908 2.89406432471e-05 0)
(0.00142091095536 2.929821524e-05 0)
(0.00146564458382 2.9363051175e-05 0)
(0.00151206002384 2.89020319511e-05 0)
(0.00155724009469 2.99144707036e-05 0)
(0.00160308276554 3.07488524469e-05 0)
(0.00165493409844 3.15406150236e-05 0)
(0.00170563382997 3.27644080375e-05 0)
(0.00174609329575 3.2333273963e-05 0)
(0.00179539437781 3.13009972778e-05 0)
(0.00185127579171 3.14098343532e-05 0)
(0.00190102796258 3.41272341209e-05 0)
(0.0019411279351 3.37902684036e-05 0)
(0.00197806450269 2.79044197484e-05 0)
(0.00201285449135 2.37870975531e-05 0)
(0.00204284739073 2.20531284006e-05 0)
(0.00206923007089 2.01411626269e-05 0)
(0.00209156495548 1.81354273231e-05 0)
(0.00210860780108 1.54321205608e-05 0)
(0.00212055073139 1.28771419889e-05 0)
(0.00212755692004 1.32464211679e-05 0)
(0.00213375419032 1.70385123871e-05 0)
(0.00214871675616 1.63320453535e-05 0)
(0.00215037403491 4.39120807327e-06 0)
(0.00214622195203 -1.73776946758e-06 0)
(0.00212385139685 -7.23515269864e-06 0)
(0.00206307456737 -1.87048070305e-05 0)
(0.00199871319975 -1.61333741723e-05 0)
(0.0019686256076 -6.73627216294e-06 0)
(0.00195679615239 -1.02805779103e-05 0)
(0.00188589788347 -1.31969290944e-05 0)
(0.0018460593407 3.52290071219e-06 0)
(0.00178775247833 -4.869115445e-06 0)
(0.00194824947014 -5.89626738392e-05 0)
(0.00168809839216 -9.67505305065e-05 0)
(0.00135284170424 -7.45107207436e-05 0)
(0.00122050376167 -4.9391819302e-05 0)
(0.00114206562914 -4.78248061362e-05 0)
(0.00108159022316 -4.72791534445e-05 0)
(0.00101801881883 -4.84958861106e-05 0)
(0.000925940099371 -5.15941556896e-05 0)
(0.000828172821264 -5.29647865892e-05 0)
(0.000714833764096 -5.17494959027e-05 0)
(0.000605035696059 -5.18654891563e-05 0)
(0.000530022997816 -5.62474566275e-05 0)
(0.000394284744584 -4.51728988857e-05 0)
(0.000341352456171 -3.98932030513e-05 0)
(0.000223911063643 -2.46815119876e-05 0)
(0.000229409087518 -3.38745708877e-05 0)
(9.83823141114e-05 -2.38643119081e-05 0)
(7.33410419533e-05 -4.40903503401e-05 0)
(1.91951968084e-05 9.22064706234e-05 0)
(8.20918078648e-05 0.000102756976713 0)
(0.000142542636399 9.29156103721e-05 0)
(0.000182183329243 7.51316777763e-05 0)
(0.000262556673191 7.4291086505e-05 0)
(0.000335788673772 5.40834717699e-05 0)
(0.00038083428696 3.71235390317e-05 0)
(0.000414930385669 4.85772606159e-05 0)
(0.000452344723972 6.25695151085e-05 0)
(0.000494220086328 6.28751740694e-05 0)
(0.00053522817642 6.07172539015e-05 0)
(0.000574476001078 6.09572906571e-05 0)
(0.000612858790057 5.77382362048e-05 0)
(0.000649849404105 5.32320096319e-05 0)
(0.000688208677026 5.26022395749e-05 0)
(0.000727692680183 6.1512909166e-05 0)
(0.0007690207414 6.6276605656e-05 0)
(0.000806505752769 5.60976418097e-05 0)
(0.00082381248914 4.84775867073e-05 0)
(0.000863674012593 5.15982138593e-05 0)
(0.000914336075917 6.44232387483e-05 0)
(0.000970109112847 7.89392830979e-05 0)
(0.00103024628494 8.23585604199e-05 0)
(0.00108495972696 7.7652299348e-05 0)
(0.00112765655116 7.40260093911e-05 0)
(0.00118171716915 7.33014395014e-05 0)
(0.00123481789942 7.19561236565e-05 0)
(0.00128324211972 6.94532253524e-05 0)
(0.0013298262834 6.69139584619e-05 0)
(0.00137574718811 6.51943385082e-05 0)
(0.00142040169296 6.52246380012e-05 0)
(0.00145995113254 6.45992906631e-05 0)
(0.00150606167655 6.23616099747e-05 0)
(0.00155035031827 6.54585987664e-05 0)
(0.00159388805496 6.96546042419e-05 0)
(0.001652529074 6.91199601574e-05 0)
(0.00169961364694 7.07814677156e-05 0)
(0.00174056147393 7.2363249708e-05 0)
(0.00179478179611 7.04145080477e-05 0)
(0.00185955294646 6.67576391101e-05 0)
(0.00191128323411 5.95386281471e-05 0)
(0.00190646522731 5.05591620938e-05 0)
(0.00191995864593 4.53472955113e-05 0)
(0.00195898013236 4.27844341199e-05 0)
(0.00199177077442 3.99504537828e-05 0)
(0.00202553848357 3.59011255695e-05 0)
(0.00205816528412 3.01667712657e-05 0)
(0.00208247548929 2.30331280391e-05 0)
(0.00210770510648 1.54414607713e-05 0)
(0.00212550625739 8.83509962307e-06 0)
(0.00212549812622 4.74049899669e-06 0)
(0.0020964670221 8.60801499019e-07 0)
(0.00207444429864 -4.66065529774e-06 0)
(0.00214486411231 -1.92739450272e-05 0)
(0.00210963025282 -4.69729872423e-05 0)
(0.0020712269113 -6.54508254901e-05 0)
(0.00207732555942 -6.08783617985e-05 0)
(0.00205777457206 -5.10109981998e-05 0)
(0.00202595309065 -5.85953443375e-05 0)
(0.00200010249469 -6.86861452916e-05 0)
(0.001991908367 -7.51675365274e-05 0)
(0.00175697684917 -8.50500849137e-05 0)
(0.00191133802209 -0.000208915973319 0)
(0.00165797537322 -0.00030438638184 0)
(0.00136806402776 -0.000263420614766 0)
(0.00115260635837 -0.000180503648524 0)
(0.00104302307874 -0.000129663145891 0)
(0.00103114861113 -0.000117778615201 0)
(0.000974964932602 -0.000129912055007 0)
(0.000906371479287 -0.000151319621939 0)
(0.000801322665571 -0.000163267136306 0)
(0.000684914635533 -0.000160108059205 0)
(0.000562467693062 -0.000140720660719 0)
(0.000504399485718 -0.000137365361919 0)
(0.000428114478417 -0.000127817659906 0)
(0.000359982395507 -0.000116271509338 0)
(0.000290939704481 -9.88212921578e-05 0)
(0.00022793173271 -0.000101138447515 0)
(0.000140357082702 -0.000107050584424 0)
(6.42768859764e-05 -0.000173029801108 0)
(2.72397112881e-05 0.000159696395692 0)
(7.79687405772e-05 0.000171737170308 0)
(0.000120469977855 0.000160559468239 7.21893168646e-29)
(0.000202668540632 0.000162442428406 -6.70020845724e-29)
(0.000279648343877 0.000160975330543 -5.9050103852e-29)
(0.000329017205105 0.000132070039092 5.38416604819e-29)
(0.00036593834481 7.85904387735e-05 -5.40429514875e-29)
(0.000401037168062 8.60900399649e-05 5.24346743106e-29)
(0.000440057596115 0.000104420471814 0)
(0.000483918545584 0.000108258230356 0)
(0.000527730563227 0.00010490613447 0)
(0.000568074352297 0.000100366963423 0)
(0.000606073158311 9.50523896982e-05 0)
(0.000642127202944 9.26538802215e-05 0)
(0.000680483167823 9.41565666981e-05 0)
(0.00072026272679 9.28330731359e-05 0)
(0.000687314898796 7.96529623701e-05 0)
(0.000686752269347 7.22507883431e-05 0)
(0.000726465698707 8.20787913925e-05 0)
(0.000792721884861 0.000108339971234 0)
(0.000905820673545 0.000136846325051 0)
(0.000977439673972 0.000144846013664 0)
(0.00101900418999 0.000139100517842 0)
(0.00107302737666 0.000132459772093 0)
(0.00112907716598 0.000128828160812 0)
(0.00117890623523 0.000126765240569 0)
(0.00122743168499 0.000123131904073 0)
(0.00127605688329 0.000119116387183 0)
(0.00132318997319 0.00011571263292 0)
(0.00136816018322 0.000113441569067 9.98260818698e-29)
(0.00141495807762 0.000111725201486 -9.66489154105e-29)
(0.00145029816744 0.00011002263178 0)
(0.00149416875215 0.000108940434506 0)
(0.00155060340333 0.000110410765621 0)
(0.00157364648033 0.000118581289672 0)
(0.00163293977068 0.000125238662416 0)
(0.00170222170222 0.000123916698461 0)
(0.00172891202421 0.000124932543238 0)
(0.00178687860499 0.000129327533165 0)
(0.00185542082672 0.000122507157536 0)
(0.00190802738446 0.00010073219215 0)
(0.00194522577883 8.27372800748e-05 0)
(0.00197956100656 7.96270266492e-05 0)
(0.00201362059637 7.91476918635e-05 0)
(0.00204387958534 7.51515838608e-05 0)
(0.00207011439599 6.87517046698e-05 0)
(0.00209267868901 5.95101470865e-05 0)
(0.00211153834608 4.87364178265e-05 0)
(0.00212687546334 3.64554305303e-05 0)
(0.00213822824286 2.13822056891e-05 0)
(0.00214510829187 5.85667949528e-06 0)
(0.00214758758607 -2.57265588257e-06 0)
(0.00214595260487 -2.18340764316e-06 0)
(0.00212617963697 -2.25543122424e-05 0)
(0.00209011387683 -5.63958806759e-05 0)
(0.00208780961844 -7.05593098188e-05 0)
(0.00207816591236 -7.1940124247e-05 0)
(0.00205053203652 -7.52861441874e-05 0)
(0.0020155679958 -8.39954067548e-05 0)
(0.00197866482617 -0.000101409313314 0)
(0.00192072668662 -0.000145776863884 0)
(0.00185408951405 -0.00020686846238 0)
(0.00181424645648 -0.000406947233625 0)
(0.00148042848057 -0.00051512411683 0)
(0.0011599175261 -0.000392304128244 0)
(0.00107461742336 -0.00028145784986 0)
(0.0010350151565 -0.000216279052987 0)
(0.000964772710608 -0.00019189167094 0)
(0.000895089515506 -0.000211166059738 0)
(0.00081333583628 -0.000242011098673 0)
(0.000713461567086 -0.000253196285655 0)
(0.000621824901546 -0.000239308946442 0)
(0.000564494618574 -0.000221335838213 0)
(0.000506479218244 -0.000215652745825 0)
(0.00042761343184 -0.000210030934929 0)
(0.000346122476768 -0.000193298642129 0)
(0.000269840113714 -0.000173236863248 0)
(0.000206030399487 -0.000185223965815 0)
(0.000141822999042 -0.000239612594977 0)
(3.62360315917e-05 -0.000237713632409 0)
(2.57289413294e-05 0.000234836445768 0)
(3.760585676e-05 0.000161564848262 0)
(9.670530091e-05 0.000240040651612 0)
(0.000172478529691 0.000240067091547 0)
(0.0002409740586 0.000207260067462 0)
(0.00014560553868 8.65268157565e-05 0)
(0.000184517919714 9.05617726414e-05 0)
(0.000337333945901 0.000160760821433 0)
(0.000411039104314 0.000169231306851 0)
(0.000464081302978 0.000158674425926 0)
(0.000513989446501 0.00015054003921 0)
(0.000557859526987 0.000141011308234 0)
(0.00059709295777 0.00013266101205 0)
(0.000628545542655 0.000120549919381 0)
(0.000616809925591 0.000100128794503 0)
(0.000604864772035 8.55506633765e-05 0)
(0.00062179283315 8.70978846195e-05 0)
(0.000675512767168 0.000113707194617 0)
(0.000773889954546 0.00015815970659 0)
(0.000867539923139 0.000198836923031 0)
(0.000915058110866 0.000207875613229 0)
(0.000964507678118 0.000199925539375 0)
(0.00101851530273 0.000192108898149 0)
(0.00107005933134 0.000186178281661 0)
(0.00111975738235 0.000180274242271 0)
(0.0011681828804 0.000174907974923 0)
(0.00121580490495 0.000170414203641 0)
(0.00126639233816 0.00016618405953 0)
(0.00131133718773 0.000161632299058 0)
(0.00136111782578 0.000158512676596 0)
(0.00139845073589 0.000155024622987 0)
(0.00144802275322 0.000152234090001 0)
(0.00147442886197 0.000147662352481 0)
(0.00152420065322 0.000154070453318 0)
(0.0015926983141 0.000168089991588 0)
(0.00162285376675 0.000177592469206 0)
(0.00169056043673 0.000181203444092 0)
(0.00176000538859 0.000182554694291 0)
(0.00181055986067 0.000183101957468 0)
(0.00185747902202 0.000171013604252 0)
(0.00190275920887 0.000147362359167 0)
(0.00194334403441 0.000126198508138 0)
(0.00198051027257 0.000115406141488 0)
(0.00201486218001 0.000109115818794 0)
(0.00204514640801 0.000101487039265 0)
(0.00207137826495 9.14320597882e-05 -8.89610990686e-29)
(0.00209385534082 7.89892649232e-05 8.95748719976e-29)
(0.00211258106814 6.46537453378e-05 0)
(0.00212752904752 4.85016690863e-05 0)
(0.00213840160801 3.05986572776e-05 0)
(0.00214461370123 1.28962177155e-05 0)
(0.00214498098406 -2.36191237018e-06 0)
(0.00213789438152 -1.91301034613e-05 0)
(0.00212155255148 -4.50689106724e-05 0)
(0.00210186800088 -6.9874100149e-05 0)
(0.00208493655586 -8.49042938037e-05 0)
(0.00206348830402 -9.73377082491e-05 0)
(0.00203063207451 -0.000111126653615 -1.79751890223e-28)
(0.0019858306092 -0.000130609750463 2.10311696245e-28)
(0.00192524427948 -0.000165797044605 0)
(0.00183643310703 -0.000232092342317 0)
(0.00171475290163 -0.00035745011959 0)
(0.0015648656153 -0.000581203844835 0)
(0.00140002362618 -0.000713334673777 0)
(0.00123200340037 -0.000586865706391 0)
(0.00101927824476 -0.000365928655318 0)
(0.000932582186977 -0.000279729017556 0)
(0.00087494170183 -0.00026560086608 0)
(0.000814232550829 -0.000288411410927 0)
(0.000760114506423 -0.000329672127978 0)
(0.000688201712886 -0.000344371023854 0)
(0.000613353693482 -0.000324871875099 0)
(0.000535593080741 -0.000302287939409 0)
(0.00043400624264 -0.0002832113721 0)
(0.000357869607517 -0.000278785432796 0)
(0.000286764088191 -0.000276492510041 0)
(0.000207674996901 -0.000253894236398 0)
(0.000121403019843 -0.000209502736484 0)
(8.84803219377e-05 -0.000267945090637 0)
(2.94595060291e-05 -0.000309985238305 0)
(2.18780676424e-06 0.000235739224184 0)
(1.95028443445e-05 0.000196099770176 0)
(8.44833007126e-05 0.000310399304509 0)
(0.000144655498501 0.000290163395837 0)
(0.000160514020312 0.000199239081191 0)
(0.00013098388003 0.000116860060444 0)
(0.000223811473376 0.000188569409101 0)
(0.000332032459095 0.000256255938639 0)
(0.000380288189634 0.000235879061284 0)
(0.000437955931547 0.000214288887724 0)
(0.000491519209319 0.000203101223049 0)
(0.000538370948014 0.000187039921305 0)
(0.000555398234184 0.000152501590062 0)
(0.000527943869822 0.000112648766414 0)
(0.000549330623794 0.000103752606877 0)
(0.000595584750613 0.000118269524272 0)
(0.000667073775289 0.000152555445241 0)
(0.000751568862779 0.000200352323949 0)
(0.000817192662089 0.000236548545276 0)
(0.000853002499831 0.000247225526814 0)
(0.000901094297401 0.000252607128302 0)
(0.000956456609632 0.000252957537226 0)
(0.00100756008682 0.000245792764882 0)
(0.00105783910957 0.000236836121088 0)
(0.00110656185339 0.000228979554491 0)
(0.00115360517693 0.000223313156883 0)
(0.00120456387962 0.000218663536043 0)
(0.00124793019792 0.000212906712822 0)
(0.00130201194544 0.000208478911876 0)
(0.00133754534804 0.000201933193568 0)
(0.00139375607476 0.0001989584336 9.57240426075e-29)
(0.00140820954631 0.000191478771204 -9.08997622707e-29)
(0.00147276185511 0.000196364283699 0)
(0.00153677095729 0.000206241863811 0)
(0.00157301458722 0.000219199791798 0)
(0.00164771854591 0.000237641670489 0)
(0.00170747389408 0.00024569943703 0)
(0.00176095826896 0.000240076607659 0)
(0.00180979830356 0.000229347822766 0)
(0.00185593382225 0.000213371071727 0)
(0.00190078733786 0.000191045089949 0)
(0.00194289750075 0.000169120420919 0)
(0.00198156425355 0.000153325556717 0)
(0.00201649219107 0.000141462777133 0)
(0.00204714348907 0.000129430620373 0)
(0.00207364052607 0.000115528921545 0)
(0.00209619148562 9.9442852895e-05 0)
(0.00211476517487 8.1319996712e-05 0)
(0.00212916135099 6.1179557407e-05 0)
(0.00213897153468 3.92091449792e-05 0)
(0.00214349653775 1.64162981864e-05 0)
(0.00214154232782 -6.59766142677e-06 0)
(0.00213189188969 -3.18185562297e-05 0)
(0.00211462718284 -6.06365746491e-05 0)
(0.00209338809981 -8.74895053526e-05 0)
(0.00207012126839 -0.000109614242185 0)
(0.00203920982525 -0.000132126205079 0)
(0.00199345332836 -0.000160377381255 0)
(0.00192719367335 -0.000201209339645 0)
(0.0018332002533 -0.000266501348562 0)
(0.00170539013625 -0.000370403745812 0)
(0.0015563890556 -0.000523264607999 0)
(0.00139902832954 -0.000712005885875 0)
(0.00132646837724 -0.000831943952331 0)
(0.00122289251458 -0.000736227582101 0)
(0.00103109062251 -0.000519399049568 0)
(0.000908798958851 -0.000397922978001 0)
(0.000811132317436 -0.000350944322192 0)
(0.000734835275986 -0.000355519485379 0)
(0.000680531922385 -0.000390158616283 0)
(0.000629019637794 -0.000417511718934 0)
(0.000554439851389 -0.000407858888341 0)
(0.00044933449867 -0.000371568179104 0)
(0.000375003746451 -0.00036137009491 0)
(0.00030414482913 -0.000364188114967 0)
(0.000230844012964 -0.000359808017534 0)
(0.000156566748996 -0.000306811859969 0)
(0.000100910444428 -0.00026845522663 0)
(6.44513147047e-05 -0.000335362114475 0)
(1.64513539388e-05 -0.000347517998076 0)
(-9.65187027831e-07 0.000220593869583 0)
(2.23693565121e-05 0.000236596354848 0)
(8.24609886116e-05 0.000352478230227 0)
(0.000117894818885 0.000302923789194 0)
(9.18949854277e-05 0.000158740896984 0)
(0.000128695694302 0.000165653130164 0)
(0.00026549397099 0.00029443401971 0)
(0.000311208653598 0.000308012050875 0)
(0.000354642052888 0.00028843220975 0)
(0.000406951100815 0.000271109554402 0)
(0.000460585648991 0.000245788784983 0)
(0.000446462990161 0.00018825777192 0)
(0.000418958458227 0.000132976003536 0)
(0.000458330473252 0.000128864078257 0)
(0.000511232301389 0.000150822784638 0)
(0.000600062246941 0.000193963099853 0)
(0.000690233617258 0.000237582128615 0)
(0.000755267218938 0.000263967774772 0)
(0.000782982950004 0.000272167700118 0)
(0.000834294418978 0.000290872188909 0)
(0.000892460780548 0.000305945279503 0)
(0.000942394384338 0.000304933213042 0)
(0.000991592494411 0.000296602226608 0)
(0.0010400869504 0.000286917571705 0)
(0.00109198553668 0.000278954162667 0)
(0.00113901299957 0.000270259719734 0)
(0.00117591237351 0.000264489486432 0)
(0.00123807232021 0.000262125860535 0)
(0.00126609176965 0.000251221692497 0)
(0.00133247891163 0.000245918130976 0)
(0.0013350891782 0.000233485990735 0)
(0.00141256334275 0.000241772150199 0)
(0.00142621145995 0.000244549180051 0)
(0.00151151549305 0.00026415910196 0)
(0.00159475282256 0.00028769377935 0)
(0.00165572990045 0.000302160152458 0)
(0.00170873137463 0.000300508723742 0)
(0.00175920152886 0.000290296497641 0)
(0.00180760654966 0.000276021057669 0)
(0.00185444538865 0.000257743894845 0)
(0.00189979218698 0.000235160612589 0)
(0.00194281438373 0.000211911917428 0)
(0.00198254843449 0.000191893345108 0)
(0.0020182438693 0.000174726851708 0)
(0.00204955099302 0.000157918825942 0)
(0.00207651776855 0.00013980004165 0)
(0.00209927611843 0.00011972096914 0)
(0.00211765868833 9.74678756476e-05 0)
(0.00213125012904 7.2883686749e-05 0)
(0.00213950376829 4.60047517049e-05 0)
(0.00214167803369 1.72304743882e-05 0)
(0.00213676856828 -1.32694702973e-05 0)
(0.00212404066577 -4.58982921373e-05 0)
(0.00210395589694 -7.98174043417e-05 0)
(0.00207806857808 -0.000112352075537 0)
(0.00204529738924 -0.000144496972116 0)
(0.00199940703266 -0.000182229925782 0)
(0.00193278685683 -0.000232354323727 0)
(0.00183987841139 -0.000302200417518 0)
(0.0017171374526 -0.000398430078394 0)
(0.0015723332036 -0.000524286857134 0)
(0.00142767607592 -0.000669618625848 0)
(0.00124061163389 -0.000778900158895 0)
(0.00126772588861 -0.000949877478815 0)
(0.00108474739327 -0.000831365802955 0)
(0.000927376681344 -0.000623249618949 0)
(0.0008371173012 -0.00051082877794 0)
(0.000739934709486 -0.000443937632589 0)
(0.000654266853138 -0.000421393562683 0)
(0.000610001175838 -0.000457101699406 0)
(0.000562224947311 -0.000497395237315 0)
(0.000468550004321 -0.000468781066249 0)
(0.000390028092907 -0.000440714597749 0)
(0.000327132129187 -0.000442282394078 0)
(0.000251977619484 -0.000443086638259 0)
(0.000189948513139 -0.000428185292397 0)
(0.000126124747555 -0.000348352395396 0)
(8.09471787666e-05 -0.000315325537738 0)
(4.85938477783e-05 -0.000376766480457 0)
(1.3610747827e-05 -0.000376375880633 0)
(7.00286428856e-06 0.000238438658285 0)
(4.75580184787e-05 0.000303283473948 0)
(0.000103006765317 0.000381332025463 0)
(0.000116055240382 0.000362376658932 0)
(8.3682921244e-05 0.000199611877517 0)
(0.000176233921938 0.000283051306379 0)
(0.000262247737383 0.000353355091803 0)
(0.000290248270851 0.000346272247051 0)
(0.000330728309952 0.000330285490604 0)
(0.000363657007941 0.000311768073535 0)
(0.000426459563471 0.00027667155323 -2.46656999614e-28)
(0.000348999968476 0.000166205563552 1.55604240878e-28)
(0.000400981412878 0.000162495458902 0)
(0.000438591055946 0.000180168184383 0)
(0.000519084518368 0.00022894482754 0)
(0.000616944865698 0.000286905066546 0)
(0.000684118218925 0.000307861242966 0)
(0.000701286689824 0.000297925742716 0)
(0.000756354681853 0.000317814849624 0)
(0.000823543827918 0.000348167749751 0)
(0.000872635020592 0.000357789864418 0)
(0.000923037864021 0.000355007766864 0)
(0.00097346715869 0.000347324396696 0)
(0.00102310697048 0.000336481692104 0)
(0.00106662574162 0.000323594470487 0)
(0.00110543617051 0.00031273517326 0)
(0.00116474592421 0.000310786430746 0)
(0.00118429131347 0.000303662410911 0)
(0.00126188370847 0.000299332929377 0)
(0.00125788962682 0.000273947196883 0)
(0.00134174279729 0.000281986809851 0)
(0.00135878559814 0.00028844107811 -8.91829896351e-29)
(0.00144309410456 0.000309182911213 9.1068242459e-29)
(0.00150988724468 0.000337726258118 0)
(0.00159801211861 0.00036104775038 0)
(0.00165498915118 0.000361754503635 0)
(0.00170541476008 0.000352557076958 0)
(0.00175544057935 0.000339469472086 0)
(0.00180497208822 0.000323328138981 0)
(0.00185309421434 0.000303509427935 0)
(0.00189931074651 0.000279948616832 0)
(0.00194322429816 0.000254912063951 0)
(0.00198391339787 0.000231109081744 0)
(0.00202050429102 0.00020899549213 0)
(0.0020526218841 0.000187267045789 0)
(0.00208022999811 0.000164561746737 0)
(0.00210326953065 0.000140007146934 0)
(0.00212134493246 0.000113039979734 0)
(0.00213383393548 8.32672102307e-05 0)
(0.00214008189318 5.05403386794e-05 0)
(0.00213934337871 1.49861167134e-05 0)
(0.00213076661923 -2.31625788798e-05 0)
(0.00211379695209 -6.34673915867e-05 0)
(0.00208842534 -0.000104949308657 0)
(0.00205420724343 -0.000147442458505 0)
(0.00200782895233 -0.000194599125929 0)
(0.00194257415999 -0.000253158258622 0)
(0.00185260186583 -0.000328626140411 0)
(0.00173838414884 -0.000423277152443 0)
(0.00160998517013 -0.000536088177707 0)
(0.00147992604959 -0.00066202733587 0)
(0.00135745126786 -0.000790586659472 0)
(0.00125824820801 -0.000917616414615 0)
(0.00119859229402 -0.00104568184921 0)
(0.00103575245335 -0.000959997871089 0)
(0.00080995461208 -0.000703073794848 0)
(0.000754480257376 -0.000604575697999 0)
(0.000678518286392 -0.000543086135648 0)
(0.000598816012929 -0.000510607925897 0)
(0.000543862630789 -0.000532849753315 0)
(0.00048530694755 -0.000551733527139 0)
(0.000408485327677 -0.000521677931436 0)
(0.00035110055453 -0.000517553507307 0)
(0.00027977602821 -0.000519871317805 0)
(0.000210647636061 -0.000515893260145 0)
(0.000153354865973 -0.000465033967451 0)
(0.000106460692572 -0.000403429714149 0)
(5.62526576549e-05 -0.000357485458788 0)
(2.93946867877e-05 -0.000401765803796 0)
(1.01321497874e-05 -0.000407421266065 0)
(1.46350163349e-05 0.000275205503059 0)
(6.47375126364e-05 0.000363605763153 0)
(0.000111505098712 0.000395605597462 0)
(7.32721495997e-05 0.000253223842246 0)
(8.48913807454e-05 0.000245122198861 0)
(0.000194291895237 0.000378659123843 0)
(0.000234814104133 0.000389518594467 0)
(0.00027082112977 0.000382973057778 0)
(0.000295345568491 0.000361262977181 0)
(0.000338464027544 0.000344058196405 0)
(0.000288482677682 0.000225048654398 0)
(0.00032996723805 0.000195798715118 0)
(0.000378288518034 0.00020648198263 0)
(0.000425598595162 0.000240930201435 0)
(0.000534507511713 0.000319636085948 0)
(0.000609160600725 0.000355855394837 0)
(0.000620323528839 0.000335455196929 0)
(0.000667699809168 0.000343737952196 0)
(0.000742915742078 0.000381743888438 0)
(0.000800853274209 0.000403812689506 0)
(0.000847967832155 0.000407217949306 0)
(0.000895979859512 0.000403722998845 0)
(0.000948990730095 0.000398685373068 0)
(0.000997995119817 0.00038674422412 0)
(0.00104994547493 0.000369083208021 0)
(0.00107636664289 0.000358258703415 0)
(0.00114472518723 0.000357274976981 0)
(0.00117419535435 0.000345197447183 0)
(0.00119515943167 0.000329433147833 0)
(0.00124884919675 0.000327413892695 0)
(0.0013418920762 0.000341662155468 0)
(0.00136730591772 0.000343456807731 0)
(0.0014197328285 0.000374478916494 0)
(0.00153128567228 0.000417759056033 0)
(0.00159238590842 0.000428074016442 0)
(0.0016469700969 0.000418340130082 0)
(0.00169946624898 0.000404642053151 0)
(0.00175089868407 0.000389657446079 0)
(0.00180189289731 0.000372130931491 0)
(0.00185160700245 0.000350834686936 0)
(0.00189913966828 0.000325745495891 0)
(0.00194410323579 0.000298486719161 0)
(0.00198585226599 0.000271064608833 0)
(0.00202353636426 0.00024426062473 0)
(0.00205666655696 0.000217544401963 -8.59283137983e-29)
(0.00208506627694 0.000189889222481 8.57070970178e-29)
(0.00210842351619 0.000160270081464 0)
(0.00212607192449 0.000127822870089 0)
(0.00213719472819 9.19512768287e-05 0)
(0.00214104002929 5.23838211872e-05 0)
(0.00213681739987 9.1377742525e-06 0)
(0.002123676197 -3.75026988734e-05 0)
(0.0021009012378 -8.70284575649e-05 0)
(0.00206761841112 -0.000139315590349 0)
(0.00202162910701 -0.000196304977454 0)
(0.00195833606856 -0.000263077132927 0)
(0.00187217243055 -0.000345013135848 0)
(0.00176294436024 -0.000441869477132 0)
(0.00164158075683 -0.000548566319306 0)
(0.00152318885014 -0.000661278125302 0)
(0.00141349319093 -0.000775719770567 0)
(0.0013160874396 -0.000889183816271 0)
(0.00123564600385 -0.00100365151398 0)
(0.00115491448548 -0.00111876490841 0)
(0.00115139949264 -0.00121137457582 0)
(0.000800989911337 -0.000857280934982 0)
(0.000651427472581 -0.000691036378667 0)
(0.000581177168114 -0.000618377688358 0)
(0.000509555263921 -0.000574457097421 0)
(0.000465041923183 -0.00058081444467 0)
(0.000423299604632 -0.000587689373761 0)
(0.000371070157938 -0.000580566019579 0)
(0.000312413320706 -0.000592318763186 0)
(0.000238498939214 -0.000595285444564 0)
(0.000174396520468 -0.00057543404342 0)
(0.000119105787824 -0.000508736028181 0)
(7.39892927059e-05 -0.000458047333267 0)
(2.54412242472e-05 -0.000406672105586 0)
(4.5065539291e-07 -0.000415982829129 0)
(-1.17628087108e-06 -0.000426205113933 0)
(1.97541594522e-05 0.000320082013077 0)
(7.04858760023e-05 0.000409636243689 0)
(8.95955192799e-05 0.00040661238898 0)
(6.69779987059e-05 0.000275866165869 0)
(0.000113070959739 0.000316680209514 0)
(0.000191598450136 0.000422490080201 0)
(0.000208807946793 0.00042242171751 0)
(0.000251857886627 0.00041628653809 0)
(0.000248477684043 0.000363753073319 0)
(0.00031883277951 0.000385719425237 0)
(0.000265174125953 0.00024980129978 0)
(0.000318989779855 0.000240273529394 0)
(0.000359566475227 0.000257071032384 0)
(0.000436035795617 0.000324312112816 0)
(0.000526294188357 0.000397279058065 0)
(0.00057799382323 0.000403501113698 0)
(0.000587480811176 0.000376994521408 0)
(0.000649237186043 0.000404869340064 0)
(0.00071674950516 0.000442255944187 0)
(0.000770649305285 0.000456873428899 0)
(0.00082178242473 0.000457488434398 0)
(0.000867203835867 0.000451388178314 0)
(0.000918158702477 0.000446067039163 0)
(0.000957131610477 0.000432033131687 0)
(0.000993237872182 0.000406320500165 0)
(0.001063984017 0.000404930587366 0)
(0.00106400805828 0.000391348037876 0)
(0.00117055655331 0.000396502930208 0)
(0.00116817810305 0.00037974490609 0)
(0.0012718466007 0.000396452601211 0)
(0.00127324237674 0.000384647167135 0)
(0.00138302325268 0.000414450733591 0)
(0.00145517108411 0.00045644157358 -9.55418610597e-29)
(0.00152317784954 0.000486405162793 9.59141974189e-29)
(0.00158160836757 0.000486665594579 0)
(0.00163721076399 0.000474150722901 0)
(0.00169209066309 0.000458602580201 0)
(0.0017456489404 0.000441847787445 0)
(0.00179833603601 0.000422767775704 0)
(0.00184974861394 0.000399882065618 0)
(0.00189899542669 0.000372908394363 0)
(0.00194545822494 0.000343076013514 0)
(0.00198854259216 0.000312030625098 0)
(0.00202755963672 0.000280669892442 0)
(0.00206198668147 0.000248882573786 0)
(0.00209137721338 0.000215865958771 0)
(0.00211510374911 0.000180493013631 0)
(0.00213226429568 0.000141672413502 0)
(0.00214187138633 9.86629367124e-05 0)
(0.002143022047 5.11154848356e-05 0)
(0.00213479169837 -1.04664691926e-06 0)
(0.00211617495648 -5.77178174942e-05 0)
(0.002086053757 -0.000118903859788 0)
(0.00204255215438 -0.000185669279705 0)
(0.0019822374325 -0.00026127899788 0)
(0.00190058979609 -0.000350168460799 0)
(0.00179496850444 -0.00045373053934 0)
(0.00167308654325 -0.000562705746895 0)
(0.00155470888102 -0.000668628393889 0)
(0.00144999754463 -0.00077377304095 0)
(0.00135328386415 -0.000876123047352 0)
(0.00126102880133 -0.000973954697913 0)
(0.00118274541908 -0.0010745389262 0)
(0.00111703167163 -0.00117688617281 0)
(0.00110713227048 -0.00128131607925 0)
(0.000976161169214 -0.00118366699416 0)
(0.000597004556625 -0.000797750103256 0)
(0.00047019158751 -0.000694632328801 0)
(0.000428774327967 -0.000633550726656 0)
(0.00040490468261 -0.000610912444003 0)
(0.000381475926674 -0.000615244738261 0)
(0.000343796638627 -0.000641382040494 0)
(0.000279636397559 -0.000667960576564 0)
(0.000203573143991 -0.000668250577217 0)
(0.000134749534462 -0.000629883306895 0)
(7.38743457397e-05 -0.000567112626588 0)
(2.01571694153e-05 -0.000508601107733 0)
(-2.08966900741e-05 -0.000453801341996 0)
(-3.41705031077e-05 -0.000422170474213 0)
(-1.56078693921e-05 -0.000411069619 0)
(2.29344253894e-05 0.000373247533607 0)
(7.53592307711e-05 0.000441783484809 0)
(7.84806045747e-05 0.000403199741447 0)
(6.47487911105e-05 0.000296049640877 0)
(0.000136405101368 0.000413298062012 0)
(0.000166146981113 0.000435318319356 0)
(0.00018477524067 0.000450453583671 0)