/*--------------------------------*- C++ -*----------------------------------*\
| =========                 |                                                 |
| \\      /  F ield         | OpenFOAM: The Open Source CFD Toolbox           |
|  \\    /   O peration     | Version:  v1806                                 |
|   \\  /    A nd           | Web:      www.OpenFOAM.com                      |
|    \\/     M anipulation  |                                                 |
\*---------------------------------------------------------------------------*/
FoamFile
{
    version     2.0;
    format      ascii;
    class       volScalarField;
    location    "71";
    object      alpha;
}
// * * * * * * * * * * * * * * * * * * * * * * * * * * * * * * * * * * * * * //

dimensions      [0 0 -1 0 0 0 0];


internalField   nonuniform List<scalar> 
6400
(
0.804147391436
1.16074705408
1.7382950069
1.86015425976
2.00499463372
2.2218284642
2.76686375787
3.43317483642
3.35944434428
3.40960642256
4.50606821006
4.70718408912
4.80022037528
5.06397740288
5.69699920813
6.32134093407
6.61962886899
6.95418904052
7.34912131892
7.51597311083
7.33142327887
7.0581922796
6.96104235204
7.19904616046
7.50487813397
7.72111814499
7.70610452175
7.63867062911
7.72863883252
7.97681130729
8.35113850043
8.42241631251
8.21121064729
7.98530266581
7.73085708343
7.16343705137
6.69925398156
7.20738691521
6.82058809879
5.9507823829
5.244495998
4.94420877963
4.82679356555
4.74191237966
4.71375502625
4.63358395733
4.65909509691
4.88405229368
5.24717748521
5.49797124106
5.65424383448
3.6571934657
3.34918687746
3.00978810075
3.73184845143
6.04900095111
7.17929780832
6.5163700273
5.20624439582
5.22746070949
4.63228439087
3.89672552313
3.06061157708
5.19604967935
9.42376841586
14.4448433576
17.4855541044
17.2285018344
15.2439692685
13.5601581176
12.5877325168
12.6424097451
13.0446868058
12.8359156483
14.7647107819
14.1637308467
15.9911073424
9.88706932995
12.8711163762
4.81225542072
3.04571285758
2.31814261485
2.80433427303
3.96737656481
3.47050617856
2.83036266585
2.645712849
2.77474179721
3.04199229796
3.42262367936
3.95619728438
4.48981097366
4.92516807925
5.33959572717
5.71905482869
6.18470209492
6.67844770436
7.28219167015
8.59980538759
8.48887277123
7.93508913374
7.45059270083
7.02350937423
7.05856910703
7.90725420429
7.82425588648
7.67260005094
7.75599294644
7.93221800264
8.16064277169
8.40464434743
8.95506402886
8.79645075467
8.68878755741
8.70956436634
7.54656760181
7.59672648922
7.98065402877
7.23267960618
5.6384946301
4.77106444108
9.68888093727
11.4034360298
11.3668670824
11.2163668208
10.5940342443
9.67537359458
9.01324956505
7.93699501967
7.16217955869
7.61080898007
9.25512861301
9.96011479275
3.53457448563
4.52601877579
4.91392419316
1.87266271744
1.54437547423
1.41281239769
1.24732101123
1.16647709808
4.02610473919
2.92297783467
5.26020468605
9.40780885392
15.3376052216
19.1187159034
17.9632201794
15.812077997
13.8570406559
13.0456858152
13.3211549241
14.272701641
13.6280277589
13.4034558772
12.8264498002
11.5917888185
9.73464921765
8.17696307573
4.26129630956
2.93595853624
2.42229461141
2.88297122284
2.80421221774
2.82221332475
3.03196039255
2.93357101989
2.76646547038
2.99679405268
3.41510196823
3.91940202939
4.47395264392
4.96864343506
5.40640843331
5.69111803041
6.13909173038
10.1111543826
12.416309294
12.5594877421
11.2723993847
7.96857094906
6.62070898518
7.4071335943
7.51573505779
7.43266685569
7.64973984618
7.85910265878
7.9675240237
8.13383747335
8.48412629479
8.5942954776
9.4839596351
9.57538337042
8.48252775991
10.1801284097
9.25319421241
7.42392245235
9.22843591985
8.09387112824
5.82287416083
4.36060109555
4.3646472857
4.53235177507
4.55747353571
4.49598531061
4.38435859815
4.23889501248
4.06800530091
3.87434246049
3.66226370072
3.40884641527
3.11506926689
2.9469198026
4.16107260892
5.31241772525
3.19481949251
1.90091265264
1.62784190069
1.4957502177
1.4366981553
1.51470431097
1.6020048565
1.9575170189
5.7345920328
11.3082320478
16.1320114666
18.507200748
18.6658321238
17.0780404344
15.3643786417
14.5896747384
14.4007024591
13.6714198434
13.0120261332
12.9142267757
12.5080096798
11.4833197539
9.84396951672
7.40497372072
7.58158824715
2.57005023122
5.20767764279
2.81877075244
2.60886502905
3.21508448799
11.597150203
9.87371069846
3.85495613097
3.05327715213
3.47515897942
3.93920747428
4.48306296458
4.97175563323
5.62380154899
8.10153788448
10.6819889955
12.3501514442
12.2709085257
9.87428006618
7.17265678388
6.90444434406
6.91734876113
6.89329172022
7.12955556969
7.50427551464
7.87612256187
8.206208767
8.19501133747
8.61061063573
8.54110762457
9.5254481425
9.25239248617
10.6412382057
10.273971621
8.40786125813
9.81414513124
8.2841724208
5.98409481688
5.14311762015
4.80168883786
4.62593992076
4.60365555688
4.63715083774
4.62992933086
4.57017336294
4.46139924934
4.30877609798
4.12399550707
3.91921239458
3.70530852821
3.49378493593
3.32239775214
3.26038947529
3.22306271932
3.00909258126
2.56589098201
2.08683697672
1.82906150372
1.83438177473
1.92649178073
2.0352070147
2.15445563282
2.60093459763
5.69640624297
10.2427351216
16.3225740924
20.0072391018
20.2518965876
18.5973939282
16.2371100267
14.5868944643
13.7248317634
13.8144356564
15.1286264604
15.0046940735
13.6328697398
13.44508293
16.7039281892
13.1003643149
11.112234449
5.03367182789
7.14407998507
2.99815805366
3.33902133632
5.87377930236
11.470597406
7.36302424902
3.61072607112
3.46160724079
3.67122538466
4.09713771213
4.72967845951
6.43812340286
9.49960544538
10.4282123631
10.426915461
9.62698465698
8.06685634136
6.86518340636
7.25510411655
7.08391558897
6.70780677961
6.87361597812
7.23712999812
7.70419507469
8.20851650505
8.31696074158
8.96465392787
8.64137431495
9.80990879253
9.20204830807
11.6129918014
10.2550988353
8.76579907633
9.70703506954
7.3943131317
6.25753571893
5.46004693646
5.08362218276
4.93929533583
4.80403901593
4.72685776995
4.70681511945
4.67931236208
4.61763051556
4.500974326
4.33716081725
4.14105053758
3.9325960171
3.73435498749
3.55963026648
3.42381721046
3.3307696317
3.21479504081
2.96953368629
2.57131665818
2.15840878818
1.9369068589
2.05270974708
2.28774420653
2.49509000827
2.70745882041
3.32171481854
5.41987079969
9.70025205305
15.5308697209
19.9142460582
21.3902591554
20.2261612686
17.4513191331
14.9502911528
14.5872079735
16.7768683699
17.5935905138
16.5027690643
15.5351979243
18.1290434284
21.1088636066
16.4043047871
15.5045877811
9.41798605818
8.49310084288
3.68636163728
4.7830191558
11.7058238964
11.0868092708
4.7148494239
3.87988424654
3.91740870864
3.97833468569
4.54548310405
8.02578829235
11.7795220953
11.9554954366
11.1869126144
9.2821150428
7.48787196292
6.64458535699
7.71024184166
7.36284847496
6.62579633
6.67551257824
7.02043915382
7.53925942409
7.80422657717
8.35180577171
9.55428702006
8.82797368659
10.5881054381
9.37516937837
12.5939021775
10.6744741892
12.7922456048
10.268665555
7.54695644243
6.2106970836
5.66287352006
5.36944574692
5.22007386949
5.07623991929
4.94563721628
4.8547359283
4.79904351343
4.75526589639
4.67734410728
4.5515597342
4.3725964284
4.16466839704
3.96194444902
3.78703698732
3.64275598727
3.52286640696
3.40413580277
3.23084212029
2.95130700505
2.59034585856
2.27432849995
2.10951537395
2.07420181577
2.38202491272
2.69548435062
3.32373779269
5.88643264309
4.33758182928
10.597679248
16.9347477614
20.9044940712
22.4313681096
21.5266924695
18.1435570082
15.9695100564
17.8030051295
19.9952132134
19.4289573783
18.3812525368
18.3975518716
22.8841359268
24.4277716974
19.3829711442
19.1629673549
11.4399635555
7.85039182079
4.48266278324
4.38830384635
11.5234524997
7.17006098958
4.21862470912
4.27020571802
4.3468950036
5.14399699472
5.37977912271
11.8830653932
12.1895729169
11.9949614349
9.84811305738
7.34744361619
6.43033530819
8.24530513944
7.88225845684
6.62823113868
6.58896895845
6.7611323504
7.11508909644
7.62797474623
8.52626023284
9.67269005618
9.32620702479
11.5897848583
9.99859660303
13.4353902732
11.4148093009
13.3964486877
11.1037885051
9.92352015181
6.39188245603
5.64992627276
5.54470329279
5.49227306904
5.35686699993
5.19802698979
5.07847811342
4.97960075472
4.90625743646
4.84448873218
4.75298587376
4.61008827155
4.41440277961
4.20155545737
4.01400918718
3.86707295403
3.7489127323
3.63693557877
3.49285265173
3.27367233237
2.9686138391
2.63080402128
2.36085269051
2.2151944948
2.19562353566
2.27054367166
2.56388379155
3.2402672401
3.50480829591
4.13953962923
10.8988877459
19.0085450861
21.8743837659
22.4409219926
21.4315163365
19.1820484863
19.060922615
21.7269211896
22.16601532
21.2835039235
20.6425094078
22.5197881162
25.1743175951
26.591284931
21.9323258717
20.7510437691
10.9221912894
6.85582279804
5.45021616696
11.3977946357
11.3997848518
5.07858459743
4.66774555201
4.69356137033
5.11249307166
5.6494209893
11.7318288982
12.5452308746
12.2931933828
11.442263225
7.85857548752
6.22593214586
8.3930068073
8.59063191317
7.01695316652
6.3354070743
6.6427895505
7.09830885604
7.36045744512
8.03026202265
8.47810292594
10.4067629438
9.54102194934
11.2880399156
13.2790476792
13.2268551467
10.4788410184
12.0408509697
11.9079453377
7.04660155835
5.97467061702
5.66430957606
5.6347972444
5.61747580643
5.48700680193
5.31874909711
5.19850277033
5.10963184289
5.02929527346
4.94806692988
4.83864351361
4.67539663687
4.46632029066
4.25726323418
4.09326881096
3.97625470526
3.88059464656
3.77021119908
3.59745336327
3.33420188827
3.00336248295
2.66663859791
2.38238590678
2.17859687154
2.07510608179
2.16760460987
2.66447858839
3.06533761401
3.55618294193
4.29468212067
6.27760701127
18.2147492869
23.0226533868
23.3802830291
22.9512661915
22.176725463
23.2794007168
24.7740205999
24.0875761182
23.3643127876
23.4945465695
25.6963119173
26.2466622639
26.773193692
23.7909818929
21.5532539903
9.843159039
6.12181075229
6.1195937358
12.245164486
9.78426736734
5.02377355731
5.16501732611
5.27496219745
7.47964908921
5.4426494915
12.5047539858
12.8791548945
12.2263183841
9.57545161572
6.65962331666
6.30616493629
8.59189099392
7.90149917723
6.60951871593
6.35278658326
6.5898069329
7.33587639241
7.85145587588
9.28943068142
10.8112958102
9.92255764209
13.2332693618
10.244009988
13.8444662648
10.6612166378
13.7830774542
9.86867670273
8.25596595286
6.46296020207
5.97433081099
5.82870617016
5.75522153608
5.71802342031
5.60892860403
5.46011895435
5.33704004191
5.2459783513
5.16320240002
5.06665070306
4.93002910108
4.74592642233
4.53402926861
4.34026095327
4.2026503272
4.11465525203
4.03711705933
3.91952714977
3.70902823993
3.39449223043
3.02731806308
2.66391048127
2.32602516865
1.99872150731
1.73216034936
1.82806631089
2.44072970063
3.38861902332
4.21308362042
4.6876979208
5.04983950296
12.0795014511
22.5522225174
24.4503709199
24.8656236344
25.9399635604
27.346212125
27.1307251633
26.1238164711
25.8754929025
26.740194581
27.758068056
27.4407689691
26.7093536576
25.5556506526
24.0406855859
8.76064580682
5.98606024162
7.42347876564
12.195204124
6.64271753365
6.10457391102
5.64420814442
5.93419197617
10.3970424622
8.71829925329
13.326797317
13.0147962369
12.1277678313
8.21563808544
6.26795944254
8.80038500759
8.90616138717
7.37096191884
6.45778764278
6.56207938532
6.68517316542
7.38528901318
7.73175433415
9.49294265937
12.6162623221
9.51349484188
13.0109637035
14.0769677304
14.0125948156
14.154170281
11.1774834801
11.3993799992
7.11082634413
6.26593905853
6.1471886566
5.99501963166
5.87437873886
5.79921257932
5.71072240525
5.60268567096
5.49796254608
5.40351554773
5.31021649242
5.19752671922
5.03802711985
4.82816423351
4.6138638369
4.44931652022
4.34887399716
4.28819036371
4.2218232545
4.08459924924
3.81631266301
3.43372857434
3.01713428817
2.60862483402
2.15399411317
1.58602175203
1.05859903682
1.38058099641
2.43113351067
3.6644297665
4.69603937236
5.5047439249
6.17364151339
6.26861188724
10.7739047964
25.8575100979
29.0134201502
30.5748046185
30.8155954847
29.5341372895
28.638771498
28.8421424434
29.8054965695
29.8908549384
29.4039054386
28.8906755749
29.0491067449
29.1120860274
8.07236093149
6.40390590743
11.4326105163
11.9476191094
5.8949102188
6.76210969838
6.04784653857
7.18861613843
9.3042248362
12.7199748183
13.9093006525
13.0607380099
12.0995548919
7.57680728522
6.24872645162
9.50906047744
8.76010982904
7.08191603995
6.40864578518
6.69994952904
7.33220286171
7.59279218531
7.91945711676
8.96971970561
12.6345278998
13.9498934165
11.6134386419
14.2931395567
10.7428551325
14.2423617013
14.0624896532
11.0700509842
6.55350602489
6.43177322865
6.35346463541
6.18030028642
6.02387210612
5.91608287047
5.81357956389
5.74430240257
5.67629647318
5.57791050531
5.47215146964
5.34339696129
5.15876508504
4.92771395632
4.71766338982
4.58563830398
4.52557639444
4.49499639314
4.43710472767
4.26508226098
3.91305675029
3.44316031014
2.96402329656
2.48353228779
1.86049429038
0.941221589433
0.400379677176
0.946064010775
2.74837751245
4.28784375985
5.51400999238
6.41934400534
7.08228541725
7.40868910409
7.22469069894
12.9155547193
30.2665954781
36.0172324523
34.9948709741
32.7731329649
31.9908095223
32.3375424013
32.8325691387
32.7957720225
32.7297643038
32.9087874958
33.2459369603
33.7987401978
7.78773841119
7.00922380513
12.9208538996
12.1510486119
9.60011850581
7.82699655672
6.60040067613
8.86359082252
8.09973582232
13.626868801
14.2843025463
13.1420263777
11.7618783453
7.58752960889
7.08142001814
10.1029736942
8.52897899734
6.92836977923
6.48153141934
6.70988965945
7.61358441649
7.92226483801
10.5854572779
9.0894892761
11.8885791816
14.2720108693
10.8169881
14.6194500234
14.920802397
11.93332139
11.9919235764
7.65329051972
7.05335738313
6.75275344438
6.58313389381
6.42770904984
6.23698212907
6.08273902356
5.90813652943
5.83013902791
5.84234768963
5.80378187045
5.6725872008
5.50762880671
5.29795335325
5.05151757705
4.84986571621
4.7475938939
4.72333446581
4.72227470023
4.66494387468
4.43582213267
3.9935416689
3.42348366913
2.85659489315
2.30585616624
1.5239209705
0.333242886127
0.215110608833
1.08551096713
3.58384607631
5.36348062983
6.6843982501
7.65624086652
8.29314150195
8.56192231003
8.58043329138
7.93696324476
25.0314508326
36.4903777464
39.7266550494
37.1367285398
36.4680877078
36.7051553808
36.9105697192
36.6811964792
37.0469163254
37.3736698751
36.9059905975
36.9208409662
7.96991454574
7.49755486023
12.4221940167
12.2904585891
12.1616487916
8.49568278116
7.30034925198
12.2222827997
7.87500311042
14.465733212
14.569920439
13.2491756459
11.4634756068
7.75226012897
11.075883728
11.2507092271
8.39450828803
6.92496962849
6.69265843577
6.89482238819
7.58480414181
7.82344158274
12.4069393804
13.6800522615
10.7933930889
14.3975904135
15.1722033302
13.8922619077
14.9272369481
14.7444228082
12.9273242115
7.36153522936
7.38177896465
7.11794905261
6.84825912724
6.64057381523
6.40358476016
6.31333057055
6.1700951857
5.95714388702
5.94423265777
5.99575748879
5.91816733535
5.71803187911
5.46309152026
5.20196405549
5.01277609644
4.93276936435
4.92912179022
4.94020227272
4.86463511356
4.55097118163
4.04801395755
3.35038293672
2.6469592242
2.11015159092
1.17675160232
0
0
1.77852845687
4.76554667895
6.86105857416
8.24605411574
9.25453892767
9.80114978011
9.90457009929
9.78450569596
9.61796582659
20.1205747648
33.3034396136
40.4234300935
42.1588057647
40.671061857
41.0550048414
41.1097216896
41.2271304606
41.6926726611
41.7568750682
41.2122149426
41.1150474453
8.19448930412
7.92919035071
7.8124278234
12.4418698898
12.4178660738
8.7592997405
7.99578199056
12.9206592621
8.04412998597
15.2752066662
14.7965880375
13.3607850226
11.3045777531
7.76789661909
12.3382626163
11.349424883
8.35400209915
7.07592009667
6.95387531914
7.28899060412
7.66720499675
7.80744992351
13.1684652995
14.4743872298
10.7881843555
14.6005856662
15.625199793
12.1752710524
14.5749868496
13.7529489079
8.32318918886
7.77244205346
7.76524403788
7.4498203321
7.07564022589
6.97703581167
6.73194004844
6.41036990199
6.35415915699
6.24150017659
6.13377425937
6.17013455481
6.15003701371
5.96492398417
5.66793033656
5.37798768575
5.18391903347
5.10089891725
5.1298146756
5.18556346231
4.96970723537
4.5589183755
3.9866936734
3.13656046348
2.26891159452
1.84167292527
0.0225579236521
0
0
2.30935548378
6.02327096739
8.691523939
10.0679075413
10.3187576298
9.51428127073
8.87303798566
8.52725953876
8.38657872292
7.33272402966
12.5111520005
40.9326065005
43.6372116975
45.9677466044
44.9119384364
44.2585829777
45.8158298693
46.1254962903
46.0675982776
46.5871048667
46.8626978564
8.56550331828
8.55556283494
12.992444689
12.8189201267
12.5258906402
8.90732816455
8.87344446005
13.3523675173
8.72079868058
15.9217367703
14.9736904211
13.4606542644
11.1689096136
7.92933094901
12.4441552049
11.0441026571
8.34443492548
7.28000010456
7.20190438347
7.49663084721
7.87072251277
8.05610692112
12.0433112773
15.1505312537
15.4136553823
13.2989256044
15.6817303411
16.3061516725
11.2548123359
9.38199464378
8.00990233763
7.98271498796
7.86553046385
7.66110279369
7.52342993528
7.25362611179
6.99645765572
6.806446422
6.49436643796
6.44648978594
6.41792571553
6.42047422563
6.39309791576
6.20865985119
5.88460454447
5.53101013058
5.32288814683
5.43009054329
5.65879694347
5.58246764917
5.08139850363
4.52796485567
4.06861640216
2.68256342389
1.51342408406
0.36493754888
0
0
0
3.1029685375
7.42017954528
9.4748544184
8.32314118008
4.95553012123
1.39813068661
0.750384491052
0.422476137571
0.451797279489
0.535992945255
0.705037436481
2.53275266213
35.6603913115
49.6178699449
50.3194571757
47.7488560696
50.0985424864
51.0765467505
52.2572677852
53.6588395783
53.8838014389
8.84863431073
8.9988857318
14.4351782641
13.0607802842
12.0060537315
9.11378000011
9.81046252856
13.5536369837
13.6000021039
16.6224805165
15.1436421311
13.594229361
11.0033328042
8.25733852057
12.5311210003
10.7044909481
8.40001950566
7.52467426905
7.40760298401
7.64142883115
8.01244015348
8.49185257282
10.9636107676
15.3553199402
16.7606460845
11.8602001247
15.353144127
15.9156763146
15.0276825018
10.6871256205
8.35636266248
8.22383913065
8.20121390285
8.22513027747
7.70083630454
7.5726605611
7.20753521194
7.06413740929
6.79693036056
6.66787805417
6.70400774909
6.7081068565
6.59227759396
6.4076962294
6.1700349918
6.12398803168
6.21396519835
6.59846995272
6.63925170718
6.42790273347
6.2673804556
5.82632662416
5.29345064268
5.3714740505
0.0223651504973
0
0
0
0
3.40262149362
4.66706501396
0
0
0
0
0
0
0
0
0
0
0.00091503186829
0.308621305839
33.3316721718
54.8538058195
55.1080775461
56.1744947787
60.5798601838
61.956150331
61.9074879805
9.05149200281
9.24253147075
16.8319231178
13.1409426303
11.0217686751
9.34189100922
10.4392763734
13.0710298681
15.1278319728
17.4129794859
15.4151624811
13.7992201222
10.9825052928
8.96192734426
12.8342465571
10.5441450277
8.5834195052
7.8602891351
7.66129365658
7.82406444985
8.1343428987
8.59571641138
10.4350250786
15.2239413886
17.634218836
16.6431451373
14.4864343016
15.2536624121
14.0767562032
8.62668417492
8.83437246431
8.85003249386
9.21598508748
8.74640679544
8.31127194202
7.7665541976
7.69706243612
7.29678271742
7.12753519944
6.9661237556
6.90765650864
7.01572366087
7.27677043889
7.13926618466
6.86446472044
6.91740291574
7.60647012809
8.45095187158
8.85832804017
9.16258762565
9.45710773345
9.84454689345
9.97644807349
9.83149894477
7.73504370973
0
0
0
0
0.0222974677738
0
0
0
0
0
0
0
0
0
0
0
0
0
0.0117901845777
0.11716112466
2.56842570419
52.9497495272
63.5078965012
66.6795394103
66.2747635488
9.17761762241
9.35711877235
19.0738386833
13.1130119958
10.4118182349
9.59881040818
11.2877397603
11.4708478911
16.1128775209
17.9609155273
15.6914623011
14.015781024
11.1931004709
11.4753062956
13.2174215488
10.6527979288
9.00197685988
8.45854637015
8.02702854868
8.10832417112
8.32748158702
8.71055979402
10.2178886012
15.105283499
17.9309452368
18.2436153927
12.3662360875
12.7541135136
10.2348087618
8.82624168541
8.92844190787
9.63636438159
9.82280675431
9.12252627931
8.65185795787
8.88068985001
8.0150971779
7.6444426239
7.38711652413
7.18439067998
7.53448930457
7.70690764151
7.86530200323
7.8221763483
8.60765608464
12.6947463735
16.9222440433
18.2162621408
15.6919972724
15.5963198265
16.1217365659
17.2366640962
18.4604245483
19.505083854
20.233851665
2.09177649257
0
0
0
0
0
0
0
0
0
0
0
0
0
0
0
0
0
0
0
0
0.182154655328
1.23352123946
57.7535621608
64.2276203031
9.34972592709
9.5100636311
18.6621838022
11.6311455715
10.0598867755
9.7942564498
12.2027162495
10.7640081375
16.8999864249
18.5120400602
15.9827752619
14.2388013601
11.3259095408
14.285444975
13.793985523
10.9762931265
9.52959881672
9.73561132543
8.62104745628
8.57578203397
8.64824174724
8.81284502606
10.2196897435
14.9764482748
17.7628564562
19.3446960936
17.0841342028
15.4946418389
13.3818993446
9.34079344934
9.40344611828
10.9234642062
9.7352431157
9.37402344073
10.3434458088
9.26185777713
8.505511874
8.13321309365
7.92000110515
7.83676723615
7.72557253114
8.22331126876
9.11340513087
11.7021508109
15.0901909479
18.7156299049
20.9799744179
20.7799119856
21.2925493197
23.4769999334
26.4465822082
30.9151773116
33.6350851891
35.7015619277
37.393494256
32.2976225388
0
0
0
0
0
0
0
0
0
0
0
0
0
0
0
0
0
0
0
0
0
0
0.560486937965
97.1967125851
9.65441693352
9.81671479113
17.9829502329
10.4468773305
10.0449550542
9.92146923867
12.9075892862
10.8223805894
17.4761755317
19.0467308037
16.284941918
14.49582492
11.46856677
14.757990642
14.2943200515
11.3674746351
10.0438378255
10.4810477194
9.36983757985
9.28765048914
9.25128940331
8.85243196423
10.4449863336
14.9562454223
17.4418841722
19.749758628
18.3826618085
15.4047203721
10.1431270562
9.93603222434
10.5115251842
11.9227674854
11.8767196463
11.529950663
11.1191406949
9.54488973739
9.00129689467
8.86082469859
8.62427803395
8.60966377461
8.67169225675
9.53471733435
11.7459919324
15.9265720509
18.2232142012
18.3496405458
19.516968203
20.6918042182
25.6526453112
31.0577665443
38.6362143375
44.1045319825
45.2723263785
45.9770499405
46.3367582695
50.01593725
29.1448093903
0
0
0
0
0
0
0
0
0
0
0
0
0
0
0
0
0
0
0
0
0
0.0941917150039
0.124624242226
10.2455071798
10.4131792037
17.1288068049
10.1272902009
10.4521881201
10.1655091815
12.2185314302
11.4534197725
17.744372116
19.5208297266
16.6226352291
14.8111246171
11.7833681064
15.229369432
14.7922289657
11.9495842216
10.6885612535
11.2601110409
10.0651009984
10.1672643069
10.261917172
9.13232072607
10.9452280139
15.0664417165
17.2843919168
19.8485426911
18.7334137786
15.1896208833
9.95724190629
10.116426484
11.7583883533
10.8837129152
10.4775180655
10.7931290213
12.1829463841
10.5026363234
10.1137681342
9.39098743934
9.2494032982
9.57404755422
9.95110208683
10.9225570073
15.8299810651
19.5496477947
19.3955774276
19.4323025373
21.3483825884
27.5531763989
35.1053179482
41.5606002953
46.6386480174
42.9820926835
33.7341812015
21.0942512976
5.1796945947
10.4988211796
1.61222716777
0
0
0
0
0
0
0
0
0
0
0
0
0
0
0
0
0
0
0
0
0
0.00696198609131
0.0316123331409
11.2448850517
11.2985138585
16.8061921381
10.7239367534
11.632357183
10.7854682383
11.7748272494
13.0682568364
17.2261245069
19.7380580808
17.0347223563
15.2137284602
12.24428134
15.7594291072
15.3264991424
12.7532257173
11.6176691547
12.2740931328
10.7470492998
11.1947043792
11.7175711973
9.81980175266
11.3831105474
15.2847748499
17.2910874614
19.5524696568
18.8641230304
15.1451712738
13.8665407212
11.3194400318
12.4765308865
13.0535617428
14.0494123643
11.1486911595
11.211568972
12.1564549951
10.900229996
10.928742969
10.4180192004
10.3905896363
10.9630366814
15.4264783342
21.102958633
22.0535096495
21.1698797569
23.0396558949
30.3319013801
39.6169131615
45.8374342415
44.2424511257
34.6059837452
2.36046205354
0.412002156209
0
0
0
0
0
0
0
0
0
0
0
0
0
0
0
0
0
0
0
0
0
0
0
0
0
0
0
12.7867460651
12.3743013096
16.952992182
12.7849263676
13.8486066382
11.8354605297
12.2773659464
15.5063526949
16.8991191332
20.0686454859
17.6024386937
15.7261816478
12.8462878157
16.3170828132
15.856912985
13.6824237759
13.2876688367
13.6819352312
11.4976759953
12.4156324978
13.5682083089
11.032022016
11.531570168
15.5219456562
17.4509234914
19.2036791526
19.0241279783
14.887475796
15.0758925845
13.2788282529
14.032946163
11.2003530362
11.5739081902
13.3862343406
12.1364133685
12.1388108879
11.9491029495
11.737176059
11.8980150909
11.7737063365
14.7238533594
21.752939632
25.0398182646
24.8712936009
25.5814006035
31.1906286557
40.9763307462
46.690325391
34.9242536916
9.88669765373
6.86768030738
0.108470902066
0
0
0
0
0
0
0
0
0
0
0
0
0
0
0
0
0
0
0
0
0
0
0
0
0
0
0
0
14.5031862638
13.3431765581
17.2090733538
15.8408487504
15.4537106256
13.1810011403
12.8576072589
16.5009212572
14.8175439812
20.2414276304
18.3225526643
16.3442350794
13.5849064884
16.8913072889
16.3500118327
14.4367014139
16.0574621712
15.3880238503
12.3897267873
13.9123854243
14.9710275133
12.6542765971
10.9493905548
15.3433906625
17.4834265744
18.8672867576
18.9851394106
14.7981732121
15.1935936529
14.7438578405
14.9377982214
11.8107728528
12.7496781604
12.0264468065
13.1868004546
13.6378743937
13.3340561594
12.9927664471
12.8531955308
14.6293275915
21.5581994304
27.1890976117
28.9705828867
29.5512822084
32.5394441679
39.4509949404
42.037098199
22.0110796768
13.6820607769
12.899004146
0
0
0
0
0
0
0
0
0
0
0
0
0
0
0
0
0
0
0
0
0
0
0
0
0
0
0
0
0
0
15.0933466287
14.0096441554
17.2618526841
16.5931228782
16.2275101425
14.5292902069
13.8062793923
17.7773912078
15.5717054117
20.5434020252
19.0430576861
17.0181656729
14.4461846959
17.501183512
16.8842907903
15.1041232676
16.8498368967
16.2320732426
13.314839573
15.4781550509
15.4415913398
12.965959001
12.2911119989
12.5250443364
16.9648098403
18.2291591679
18.6427013891
14.7178191245
15.1146527941
15.0621389283
15.5665498687
14.7351573358
11.5467246327
11.7143341065
13.409985432
14.6086894418
14.8159703984
15.0332032075
15.0911586569
20.9888381177
27.9787362083
31.8786126609
33.049272917
34.322782903
37.9272221272
35.9362777455
14.7924968083
17.9764058325
16.2767396009
0
0
0
0
0
0
0
0
0
0
0
0
0
0
0
0
0
0
0
0
0
0
0
0
0
0
0
0
0
0
0
14.7711891483
14.5050957937
17.3023201955
16.515813621
16.7315178428
15.6039785633
14.6564006592
19.006602971
17.2796103713
20.9478171248
19.8060520463
17.7239490958
15.4133304217
18.1577568324
17.4963205026
15.9584894115
17.4503068842
16.9828006906
14.3920968861
16.3350275238
13.7544763746
13.4471768162
13.1730926278
13.8548896201
14.9695695939
15.6366614234
17.6558230534
14.7010102796
13.9803278995
14.8463793334
15.8628321805
16.036539871
13.5483807442
12.4256983569
12.8195182935
13.9966420064
15.5100953265
17.1492108126
19.7607010275
27.3035367172
33.0065593829
35.6838408882
35.9324829063
35.8850971794
29.6351026988
17.5483536957
18.3865819869
18.5900936672
6.55885386289
0
0
0
0
0
0
0
0
0
0
0
0
0
0
0
0
0
0
0
0
0
0
0
0
0
0
0
0
0
0
0
14.7869444715
14.8711300294
17.4079005612
14.5022185726
16.8429198187
16.1070486272
15.2092409333
19.3229545808
17.8383985974
21.4148147223
20.6440343877
18.4483942897
16.5053091325
18.8474678043
18.1578821102
16.9613660407
18.0278512667
17.8468752561
15.5740341753
17.5522932345
15.0101629141
15.4623092064
14.3907142364
15.0343767269
17.2822058567
17.8954884918
17.2149790421
14.6689994647
12.9409573785
14.7895820199
15.8994432138
16.1868928971
15.8665337679
13.5293678086
15.5978607841
15.0285424541
16.2365426357
19.4440830045
25.089454894
32.5710707491
36.9769577975
38.1942063603
35.4004107548
25.8326291386
21.5468713068
21.1761044172
21.8666154059
19.8032834979
0
0
0
0
0
0
0
0
0
0
0
0
0
0
0
0
0
0
0
0
0
0
0
0
0
0
0
0
0
0
0
0
15.3626368025
15.4558123919
17.4001385236
14.7401817964
16.87891572
16.2530450712
15.5863112963
19.1805331661
18.2620020747
21.7066050988
21.5215352616
19.1538373186
17.731677916
19.5350369148
18.8078090773
17.9561380183
18.5475423141
18.8217332897
16.8242202525
18.7326515771
16.8230210568
17.8638615152
17.5041748283
15.473523039
17.5707113305
18.8021430633
19.0441511769
14.642638264
11.6327759762
14.7538614459
16.0445353615
14.9715729107
14.7188591185
13.8449176204
15.120824387
15.2629642293
17.1661785617
21.8659837853
29.9851527268
37.2940482673
40.2947043243
38.7092364924
27.0755302171
22.8664800805
23.6885704794
22.6781163596
22.954573812
0
0
0
0
0
0
0
0
0
0
0
0
0
0
0
0
0
0
0
0
0
0
0
0
0
0
0
0
0
0
0
0
0
16.1128314477
17.9539654626
17.447173423
15.7203708984
17.2247604458
16.4368814259
15.9463059259
19.0174896368
18.6873032699
21.5704479666
22.4326502179
19.8258146476
18.8158148576
19.9852409656
19.4600448527
18.6247055649
18.2362168315
19.7445899995
18.2564713068
19.7481069669
19.1262462076
18.9737629731
18.6710463255
18.2638450647
17.0257315892
18.1132355403
19.9370710161
13.0813230049
11.0858190113
13.5920054308
15.9926419046
16.0590724806
16.6919071321
13.9208909924
14.8279979946
15.7076442104
17.6853278628
24.0260246471
34.3836686339
41.5326609316
43.0581198182
33.7903354916
25.2003639561
26.7125336014
26.0265531251
22.7709049937
17.971625261
0
0
0
0
0
0
0
0
0
0
0
0
0
0
0
0
0
0
0
0
0
0
0
0
0
0
0
0
0
0
0
0
0
16.618383612
18.4899832769
17.9449204111
16.5667515344
17.7908537046
16.8688518936
16.3789525466
18.9540140228
19.1392229027
21.1005194514
23.2679219472
20.5628663568
19.3528316218
20.3270132458
20.2775111105
19.2132496704
17.9597262224
20.38097023
19.9027256646
20.6113915735
20.3460482621
20.4504399047
18.1982915886
18.3237216642
17.7673487467
20.1245419382
21.2006559304
16.7700551795
10.6183420244
12.204422349
15.4372635082
16.5540558234
16.2294880698
14.7075905841
14.1938029526
16.1665325938
17.755331113
25.6986039913
38.267064441
45.7058033596
42.2286068623
26.3813161678
27.2956777684
29.5283809213
27.9558182375
23.1535223581
0
0
0
0
0
0
0
0
0
0
0
0
0
0
0
0
0
0
0
0
0
0
0
0
0
0
0
0
0
0
0
0
0
0
17.0061344001
18.7100966576
18.4119724504
17.0820570263
18.3831739884
17.5229131535
16.906410727
19.0903107718
19.6870892739
20.1580683229
23.7937267255
21.4447900011
19.7179344407
19.8585654053
21.1888633583
20.0152894378
18.3330500339
20.9137698963
20.6225314186
21.2714585847
21.2153118869
21.4705134731
21.4118664698
21.3833906544
20.8699549922
20.2469813572
22.1543127625
18.8005428679
10.4287161192
11.1760398536
12.5904827177
15.2689525802
16.560955012
17.6591818872
15.3484627768
15.2476520338
17.2831708956
26.1438341817