/*--------------------------------*- C++ -*----------------------------------*\
| =========                 |                                                 |
| \\      /  F ield         | OpenFOAM: The Open Source CFD Toolbox           |
|  \\    /   O peration     | Version:  v1806                                 |
|   \\  /    A nd           | Web:      www.OpenFOAM.com                      |
|    \\/     M anipulation  |                                                 |
\*---------------------------------------------------------------------------*/
FoamFile
{
    version     2.0;
    format      ascii;
    class       volVectorField;
    location    "71";
    object      U;
}
// * * * * * * * * * * * * * * * * * * * * * * * * * * * * * * * * * * * * * //

dimensions      [0 1 -1 0 0 0 0];


internalField   nonuniform List<vector> 
6400
(
(-9.33851476654e-05 -0.000132548970491 0)
(-0.000265891130119 -0.000111248585768 0)
(-0.000395776356943 -9.9020582642e-05 0)
(-0.000562829472811 -9.52872092941e-05 0)
(-0.000678640556272 -5.4013603869e-05 0)
(-0.000754416711298 -1.32680171299e-05 0)
(-0.000757677728344 7.31018482446e-07 0)
(-0.000748243752286 -2.20838247253e-05 0)
(-0.000864793359006 -4.94202811165e-05 0)
(-0.00101117993935 -4.6381108489e-05 0)
(-0.00100145644005 -4.08506437117e-05 0)
(-0.00114749366175 -5.81398017946e-05 0)
(-0.00126616254611 -5.48208077911e-05 0)
(-0.00136435378957 -3.83127166119e-05 0)
(-0.00140932389473 -2.81756243568e-05 0)
(-0.00146513924036 -3.87827780273e-05 0)
(-0.00156820984352 -4.41102458205e-05 0)
(-0.00164448015249 -3.67491874218e-05 0)
(-0.00167430240988 -1.6912327466e-05 0)
(-0.0016761456723 3.17188239627e-06 0)
(-0.00168789354287 -7.46421844517e-06 0)
(-0.00173450395768 -2.78984683306e-05 0)
(-0.00181456740274 -3.87714918967e-05 0)
(-0.00189403715357 -5.11343868301e-05 0)
(-0.00198594869594 -5.07017792133e-05 0)
(-0.00206512964457 -3.96118752938e-05 0)
(-0.00215491747578 -4.36399912526e-05 0)
(-0.00224776720021 -4.27801973929e-05 0)
(-0.00231752025561 -3.26816343197e-05 0)
(-0.00236973518818 -2.30909589125e-05 0)
(-0.00239532008462 -2.93908750453e-05 0)
(-0.00245052783802 -3.03226142729e-05 0)
(-0.0024978824885 -1.33322218587e-05 0)
(-0.00251175541666 -1.04453690723e-05 0)
(-0.00249454392606 4.91712484182e-06 0)
(-0.0024947870486 1.31189452309e-05 0)
(-0.00253187226495 1.50332758773e-05 0)
(-0.00236800989783 2.83822365369e-05 0)
(-0.00235094402823 3.67602905673e-05 0)
(-0.00233577046668 3.9209592642e-06 0)
(-0.0024402911886 -0.000125354374255 0)
(-0.00265461213107 -0.00021101089908 0)
(-0.00281887870299 -8.06250945656e-05 0)
(-0.00287612466692 -1.12415815031e-05 0)
(-0.00286061112591 3.22958476566e-05 0)
(-0.00283107716761 7.6903920353e-05 0)
(-0.00274158813062 0.000116908201084 0)
(-0.00259149284042 0.000138925967328 0)
(-0.00241251514503 0.000116571660421 0)
(-0.00232726045572 3.61419181408e-05 0)
(-0.00213986347656 -0.000103375144075 0)
(-0.00271027684326 -0.000142822042891 0)
(-0.00253547767898 0.000102862818241 0)
(-0.0025299197565 0.000173915481815 0)
(-0.00217038508041 0.000233931593045 0)
(-0.00148402506856 0.00029718503058 0)
(-0.00105416422237 0.000111201258869 0)
(-0.000813597054766 2.44045832908e-05 0)
(-0.0008135642394 6.4783694395e-06 0)
(-0.000718418378111 -4.03714838467e-06 0)
(-0.000757691304543 -4.12728721173e-05 0)
(-0.000815144064762 -4.85886056365e-05 0)
(-0.00088808963029 7.82696409392e-05 0)
(-0.000605991397574 6.5623045454e-05 0)
(-0.000459310318407 6.00332136617e-05 0)
(-0.000346236505582 5.48211370707e-05 0)
(-0.000248891616639 5.6874593287e-05 0)
(-0.000147121866628 6.00529081138e-05 0)
(-2.98087404462e-05 6.38835978284e-05 0)
(9.92149768449e-05 6.45178484707e-05 0)
(0.000226844450222 5.91278935881e-05 0)
(0.000330087109468 4.59115948422e-05 0)
(0.000393122952386 2.72537200678e-05 0)
(0.000443965188531 4.16507442267e-06 0)
(0.000403820067815 -1.05058739186e-05 0)
(0.000406966463955 -2.10120430936e-05 0)
(0.000300314673904 -1.77113301788e-05 0)
(0.000335965432472 -3.80497293729e-05 0)
(0.000152699322385 -3.34461515409e-05 0)
(0.000115533666244 -6.78967911661e-05 0)
(-3.20487569664e-05 -0.000174993937444 0)
(-0.000139439117333 -0.000205449738497 0)
(-0.000247800348604 -0.000199591015724 0)
(-0.000312667030844 -0.00015817913196 0)
(-0.000480329422661 -0.000158698621241 0)
(-0.000678444389352 -0.00011325697323 0)
(-0.000808337922523 -5.69750547944e-05 0)
(-0.000882857932647 -9.32554106135e-05 0)
(-0.000957443308803 -0.000146688835545 0)
(-0.00104730729604 -0.000142811122459 0)
(-0.00113515413893 -0.000139278441971 0)
(-0.00121385431664 -0.000155027749814 0)
(-0.00128377242839 -0.00014037656406 0)
(-0.00134966999978 -0.000111161356957 0)
(-0.0014267940261 -9.66596527853e-05 0)
(-0.00150362427298 -0.00013533430056 0)
(-0.00157623881892 -0.000144795203225 0)
(-0.00161321060386 -5.41290432239e-05 0)
(-0.00148845928795 3.5307778596e-07 0)
(-0.00151636313332 9.41183737037e-06 0)
(-0.00155851775744 -3.34138839945e-05 0)
(-0.00164647129911 -0.000118500226311 0)
(-0.00180654613499 -0.000163058471989 0)
(-0.00194460388124 -0.000145272779409 0)
(-0.00192895487501 -0.000133070060109 0)
(-0.00207850693673 -0.000143878767482 0)
(-0.00219586442747 -0.000139713179238 0)
(-0.00226107897782 -0.000117430906879 0)
(-0.00231362280943 -9.10438801877e-05 0)
(-0.00235438902676 -6.62069269794e-05 0)
(-0.00240293890463 -6.43452790424e-05 0)
(-0.00235258490106 -5.67472384716e-05 0)
(-0.00238336178756 -5.28392106155e-06 0)
(-0.00235809848059 -8.23811493982e-06 0)
(-0.00226966151801 -1.26299378138e-05 0)
(-0.00240610701786 6.13370399472e-05 0)
(-0.00229009940776 6.16071551839e-05 0)
(-0.00219301195382 3.52143351041e-05 0)
(-0.00223553150415 4.5195900628e-05 0)
(-0.00234917014325 4.40990145876e-05 0)
(-0.00245136778743 -3.93819556835e-06 0)
(-0.00142956282743 -2.8187824518e-05 0)
(-0.0013252413633 -2.35789185587e-05 0)
(-0.00128936096668 -5.6932922512e-06 0)
(-0.00128200249879 1.56795677374e-05 0)
(-0.00132498394403 4.20420151916e-05 0)
(-0.00141020027044 7.68239599325e-05 0)
(-0.00147302318638 0.000102540588133 0)
(-0.00159327975789 0.000104718896345 0)
(-0.00166978769201 6.29361481006e-05 0)
(-0.00151030495992 -5.53292175931e-05 0)
(-0.00124293500195 -7.74616089576e-05 0)
(-0.00105096394624 -6.66621675734e-05 0)
(-0.00238532897597 3.83755173263e-06 0)
(-0.00215777201018 0.000360185787659 0)
(-0.00191080125414 0.00042311882669 0)
(-0.00306283049871 0.000370041152003 0)
(-0.00290350496215 0.00013288370327 0)
(-0.00283732038434 0.000111890247946 0)
(-0.00271650068113 0.000190207937606 0)
(-0.00252715822005 0.000302755220527 0)
(-0.000990849674221 0.000165082958519 0)
(-0.00116330727352 0.000276051613993 0)
(-0.000675388155947 0.000224371868981 0)
(-0.000512351142716 0.000214173378236 0)
(-0.000356949447653 0.000178969253894 0)
(-0.000242171736082 0.000164659944932 0)
(-0.000140952736238 0.000179265158102 0)
(-1.88332237488e-05 0.000195041894689 0)
(0.000114632771863 0.000201417182998 0)
(0.000243863923042 0.000181171365581 0)
(0.00034598086574 0.000133712547989 0)
(0.000400823004267 7.77457175886e-05 0)
(0.00046084153795 2.70859275907e-05 0)
(0.00047439175555 -1.78762227079e-05 0)
(0.000463304186772 -5.35330484853e-05 0)
(0.000422347445583 -7.33055825105e-05 0)
(0.000362051307452 -0.000116470316328 0)
(0.000234707126283 -0.000153991500664 0)
(0.000111975012057 -0.000275438699804 0)
(-5.21442654969e-05 -0.0002993329226 0)
(-0.00013793599885 -0.000343464202031 0)
(-0.000212946347023 -0.000337072825305 -1.03029922184e-28)
(-0.000409112647365 -0.000371250593811 1.05099605394e-28)
(-0.000616226526088 -0.000397769586777 1.04004247803e-28)
(-0.000711951262615 -0.000320638566982 -9.75350348895e-29)
(-0.000762247533939 -0.000155164810508 1.00668988146e-28)
(-0.000840169939388 -0.000181964034955 -1.05804550595e-28)
(-0.0009244977433 -0.000231710023499 0)
(-0.00102435522131 -0.000243797622522 0)
(-0.001125257005 -0.000234357467645 0)
(-0.00120637093318 -0.000224021430957 0)
(-0.00127699010344 -0.000203941952742 0)
(-0.00133863964097 -0.000190892814288 0)
(-0.0013943885768 -0.000169288170704 0)
(-0.00144714160361 -0.000109530558789 0)
(-0.00108908577095 -3.23828530974e-05 0)
(-0.00101826809317 7.78474833982e-06 0)
(-0.00103727278849 2.24375326914e-07 0)
(-0.00112051237343 -7.66142562316e-05 0)
(-0.00146191115427 -0.000199027906272 0)
(-0.00174019194411 -0.000284505058181 0)
(-0.00171956974996 -0.000270639831089 0)
(-0.0018627730111 -0.000251784961457 0)
(-0.00202641095438 -0.00025238635199 0)
(-0.00211490587327 -0.000252659414049 0)
(-0.00217400195627 -0.000215717803478 0)
(-0.00223386339527 -0.000172918745468 0)
(-0.00228157228047 -0.000131417296346 0)
(-0.00228493835974 -9.94500923935e-05 -3.0005169427e-28)
(-0.00235732116735 -6.29659941363e-05 2.96463060136e-28)
(-0.00225666936038 -3.60624177869e-05 0)
(-0.00221883600375 3.90287782229e-06 0)
(-0.00237301945304 8.72803688345e-05 0)
(-0.00197605659382 3.45492087235e-05 0)
(-0.00202616589301 4.35997249885e-05 0)
(-0.00228504776978 0.000150224989856 0)
(-0.0018722498978 6.05289709919e-05 0)
(-0.00202833969875 -8.46390231002e-05 0)
(-0.00240125542441 -0.000158059164762 0)
(-0.00290516598824 7.74281972314e-07 0)
(-0.00306077849082 0.000140390511802 0)
(-0.00316634480895 1.02425282691e-05 0)
(-0.00321282272668 -1.93426768307e-05 0)
(-0.00324150721233 -6.05756260246e-06 0)
(-0.00326310175869 1.8892525472e-05 0)
(-0.00328285990894 5.50110884891e-05 0)
(-0.00330206166018 7.31296030769e-05 0)
(-0.00331665250552 7.34776975592e-05 0)
(-0.00332643883437 8.52171405789e-05 0)
(-0.00332968564351 6.89823792115e-05 0)
(-0.00330688153977 6.00992133312e-06 0)
(-0.00320385801274 -0.000154931709903 0)
(-0.00249092305929 5.67072199612e-05 0)
(-0.0020625277276 0.000176223785287 0)
(-0.00263864420872 -4.91886199491e-05 0)
(-0.00300196421607 -9.15296494806e-05 0)
(-0.00289504046267 7.73968198771e-05 0)
(-0.00284962131698 0.000263703751889 0)
(-0.00272612207979 0.000563250081279 0)
(-0.00252377260647 0.000953512731533 0)
(-0.00222406231287 0.00115801239814 0)
(-0.00171490740112 0.00102245634664 0)
(-0.00078838445065 0.000557409566809 0)
(-0.000528447006622 0.000372861259769 0)
(-0.000382536346872 0.000314162588701 0)
(-0.000262425535292 0.000304728960904 0)
(-0.000133580461131 0.000311917573116 0)
(-1.82138784028e-06 0.000327502744025 0)
(0.000135283348925 0.000327611112985 0)
(0.000267428576182 0.000290149624332 0)
(0.000380748771357 0.000222729945245 0)
(0.000482236130007 0.000153341984372 0)
(0.000545725045318 6.94252581518e-05 0)
(0.00054629250644 -2.09466376383e-05 0)
(0.00051362859197 -8.55659103723e-05 0)
(0.000458416014407 -0.000133973093856 0)
(0.000383175868736 -0.000224624527544 0)
(0.000276904040389 -0.000371388086099 0)
(7.5367800155e-05 -0.000403186851908 0)
(-5.41496047197e-05 -0.000467268556948 0)
(-5.22741145009e-05 -0.000289971385777 0)
(-0.00018008461568 -0.000532667675567 0)
(-0.000391678514522 -0.000579567082167 0)
(-0.000506274400587 -0.000474160273011 0)
(-0.000229797061806 -0.000146313890201 0)
(-0.000275900511277 -0.000148585079895 0)
(-0.000583265163536 -0.000332974201215 0)
(-0.00084436511972 -0.000408082848183 0)
(-0.000968455884204 -0.000371350634537 0)
(-0.00109931121864 -0.000345254528757 0)
(-0.00119469649542 -0.000313456732743 0)
(-0.0012600784203 -0.000271518252677 0)
(-0.00127355695725 -0.000179998132203 0)
(-0.00104834914978 -5.55715207157e-05 0)
(-0.00093200566342 1.84655854087e-05 0)
(-0.000917690351632 3.60674606808e-05 0)
(-0.000991098076454 -2.8340230477e-05 0)
(-0.00120540010432 -0.000149939025881 0)
(-0.00156816872841 -0.000345981084109 0)
(-0.00163744059252 -0.000416172481126 0)
(-0.00171165101495 -0.000398355052856 0)
(-0.00184165926905 -0.000390211286321 0)
(-0.00194800227177 -0.000388622759513 0)
(-0.00202339194445 -0.000360116620027 0)
(-0.00208512759701 -0.000315280936782 0)
(-0.00212146505682 -0.000268854340663 0)
(-0.00221203879503 -0.000219849950238 0)
(-0.00219316214532 -0.000163432206608 0)
(-0.00230209085153 -0.000114824762413 0)
(-0.00217533851171 -5.83220322589e-05 0)
(-0.00232409582563 5.16443846318e-06 0)
(-0.00207066031666 7.79845550354e-05 0)
(-0.00203043451605 0.000108666592424 0)
(-0.00228575373764 0.000125783107923 0)
(-0.00193922533421 3.71767030063e-05 0)
(-0.0021416144601 8.43098226277e-06 0)
(-0.00264041415261 -0.000103653615919 0)
(-0.00286670054312 -0.00037261535148 0)
(-0.00292657386905 -0.000457273016653 0)
(-0.00296859768532 -0.000298621720751 0)
(-0.00305003954413 -0.000132649063389 0)
(-0.00313741233917 -8.73171454145e-05 0)
(-0.00319416859208 -7.07408555313e-05 0)
(-0.00323121035148 -4.99556178706e-05 0)
(-0.00325663909813 -2.36565306729e-05 5.46392669506e-28)
(-0.00327739910054 3.05881700511e-06 -5.63193994418e-28)
(-0.00329531321274 2.11857412185e-05 0)
(-0.00330835390285 3.02634765035e-05 0)
(-0.00331411072815 4.0012607336e-05 0)
(-0.00330659341194 6.26018852853e-05 0)
(-0.00327776038184 0.000137846430712 0)
(-0.0032337845718 0.000285768340348 0)
(-0.00322631455988 0.000380462017954 0)
(-0.00322498777651 0.0001628208708 0)
(-0.00312341112686 -0.000101954602647 0)
(-0.00295576426004 -6.7145750863e-06 0)
(-0.002773279597 0.00021290569455 1.17672795219e-27)
(-0.00255663761315 0.000440206924649 -1.17529440437e-27)
(-0.00237572610779 0.000750884070518 0)
(-0.00221929449749 0.00112032835803 0)
(-0.00203921354217 0.00142024520359 0)
(-0.00178566807405 0.00157505895632 0)
(-0.00101221570693 0.00109312672736 0)
(-0.000658364562741 0.000660894618102 0)
(-0.000424218721912 0.000473494496614 0)
(-0.000269353248934 0.000437204583348 0)
(-0.000122856151778 0.000452502951463 0)
(2.6339197081e-05 0.000471743220337 0)
(0.000181845843072 0.000479056626114 0)
(0.000343838877449 0.000441294884249 0)
(0.000491142516053 0.000356241758628 0)
(0.000579185274106 0.000228340407342 0)
(0.000571838312276 7.82365830355e-05 0)
(0.000555757920715 -4.09777373492e-05 0)
(0.000528502924516 -0.000139758808042 0)
(0.000449385313087 -0.000229247955707 0)
(0.000286526222527 -0.000284182408737 0)
(0.000215298264827 -0.000447966818541 0)
(7.43780930092e-05 -0.000559898143188 0)
(1.58955113225e-06 -0.000442247338403 0)
(-1.79505564254e-05 -0.000354310135317 0)
(-0.000180241644703 -0.000749021296439 0)
(-0.00032701048145 -0.000677199388607 0)
(-0.000279980005282 -0.000371377881884 0)
(-0.00020317967518 -0.000190830613616 0)
(-0.000361267053708 -0.000347439102118 0)
(-0.000690639717935 -0.000624266533588 0)
(-0.000798910171203 -0.000582264243364 0)
(-0.000925078000386 -0.000510136260971 0)
(-0.00104682816569 -0.000474450039697 0)
(-0.00112938014868 -0.00039313287685 0)
(-0.00103698017134 -0.000202423439333 0)
(-0.000859195419251 -5.0966413233e-05 0)
(-0.000879480048303 7.85981915424e-06 0)
(-0.00094715078755 -1.1573460894e-06 0)
(-0.00108792310527 -7.69051589176e-05 0)
(-0.00132900515076 -0.00024140529298 0)
(-0.00157181133806 -0.000417947633086 0)
(-0.00153543654677 -0.0004387114107 0)
(-0.00160846943581 -0.000471999873897 0)
(-0.00175535014712 -0.000519147250272 0)
(-0.00184824307684 -0.0005072824833 0)
(-0.00192934798796 -0.00046710168647 0)
(-0.00199286061541 -0.000419282532643 0)
(-0.00203217998873 -0.000374886182861 0)
(-0.00212916681571 -0.000320097219683 0)
(-0.00207556263435 -0.000250308116149 0)
(-0.00223234819511 -0.000194430309765 0)
(-0.00206410285802 -0.000114403107526 0)
(-0.00230001391863 -4.94229555254e-05 -2.78690294228e-28)
(-0.00196604796238 3.17016492617e-05 2.23021678871e-28)
(-0.00217048958256 9.33746169158e-05 0)
(-0.00232408920763 0.000144001528702 0)
(-0.00200537355934 8.76567473296e-05 0)
(-0.00240618062678 -7.18607175545e-05 0)
(-0.00260495964989 -0.000329306781378 0)
(-0.0028236768788 -0.000472034877405 0)
(-0.00292263656448 -0.000502109433999 0)
(-0.00294323389751 -0.000453790031547 0)
(-0.00299021235841 -0.000346558186727 0)
(-0.00306209233172 -0.000234907116908 0)
(-0.0031330086573 -0.000170837172167 0)
(-0.00318954415183 -0.00012914989207 0)
(-0.00322813238103 -9.25235720661e-05 0)
(-0.00325779082283 -5.80527561813e-05 0)
(-0.00327988888216 -2.83227577025e-05 0)
(-0.003297020467 -7.52085286359e-06 0)
(-0.00330840090914 8.78843891374e-06 0)
(-0.00330820983337 3.40254704919e-05 0)
(-0.00329357312414 8.34324088393e-05 0)
(-0.00326695043061 0.000167737203925 0)
(-0.0032385615948 0.000264588717524 0)
(-0.00321802103079 0.000302683279432 0)
(-0.00317567210827 0.000240792502851 0)
(-0.00308007021542 0.000180119464947 0)
(-0.00295595619926 0.000277253155777 0)
(-0.00281715111841 0.000499695345463 0)
(-0.0025786526359 0.000701896703796 0)
(-0.00238265445951 0.000943563826411 0)
(-0.00223987941448 0.00129685721889 0)
(-0.00211762311061 0.00170335109787 0)
(-0.00196994716217 0.00206798658456 0)
(-0.00133111058767 0.00170842050439 0)
(-0.000772431677763 0.00098815894116 0)
(-0.000525188323652 0.000721087531366 0)
(-0.000316840218891 0.000646856836227 0)
(-0.000118312563122 0.000633583455785 0)
(6.67892406115e-05 0.000638982197392 0)
(0.000253132223083 0.000646939242365 0)
(0.000453819708587 0.000614136680317 0)
(0.000599276278178 0.000468756772216 0)
(0.000614532336028 0.000246287935423 0)
(0.000618935481106 7.15869810435e-05 0)
(0.000614780055382 -7.31099371181e-05 0)
(0.000572452790871 -0.000219097722021 0)
(0.000446982999643 -0.00032848547233 0)
(0.000311278070945 -0.000405334947505 0)
(0.000221401089833 -0.000606143732647 0)
(6.49131444886e-05 -0.000679839908886 0)
(5.07783138233e-06 -0.000403523741649 0)
(-3.18246710638e-05 -0.000436974324649 0)
(-0.000189409437315 -0.000850029982735 0)
(-0.000239082534044 -0.000624979513073 0)
(-0.000154830044413 -0.000267375637314 0)
(-0.000205259937908 -0.000275262617823 0)
(-0.00053398881676 -0.000644305370708 0)
(-0.000701267354922 -0.000761927028014 0)
(-0.000766903067835 -0.000690110860259 0)
(-0.000860862924027 -0.000626334953655 0)
(-0.000940400023484 -0.000512584330612 0)
(-0.000747972761897 -0.000267370138195 0)
(-0.000654951328059 -0.000100522387065 0)
(-0.000720612238503 -5.62487886832e-05 0)
(-0.00080255069042 -7.30560816927e-05 0)
(-0.000985623742684 -0.000163071301401 0)
(-0.00125646031201 -0.0003226911854 0)
(-0.00149058426984 -0.000450255327581 0)
(-0.00138126407093 -0.000413510692142 0)
(-0.00148042656925 -0.000489510593858 0)
(-0.00166325547565 -0.000610679226495 0)
(-0.00174877853812 -0.000625819903956 0)
(-0.00182401035881 -0.000591031757876 0)
(-0.00187876994083 -0.000540472543732 0)
(-0.00198183590698 -0.000497230918137 0)
(-0.00202602201793 -0.000411739722285 0)
(-0.00191144784673 -0.000333216290059 0)
(-0.00215165687828 -0.000294265794079 0)
(-0.00189170512197 -0.000181467972099 0)
(-0.00221263305514 -0.000110624906162 0)
(-0.00176526393224 -3.01802126127e-06 0)
(-0.00213942144046 3.52661675593e-05 0)
(-0.00179734998818 3.5062366208e-05 0)
(-0.00202281858362 5.93035874449e-05 0)
(-0.00234234517804 -8.92602881556e-05 0)
(-0.00260883197123 -0.000388914681075 0)
(-0.00277267858262 -0.000556910668716 0)
(-0.00287301139378 -0.000602669813213 0)
(-0.00291086778871 -0.000562840803851 0)
(-0.00295302090903 -0.000500568137043 0)
(-0.00300606950673 -0.000418512768508 0)
(-0.00307028919042 -0.000326313233756 0)
(-0.00313590013086 -0.000251452917117 0)
(-0.0031876903189 -0.000191937941472 0)
(-0.00322966299827 -0.000141920567389 0)
(-0.00325947486774 -9.92330839964e-05 0)
(-0.00328378276925 -6.48471787275e-05 0)
(-0.00330205596523 -3.85599732187e-05 0)
(-0.00331108189703 -1.01376274949e-05 0)
(-0.00330624463081 3.54712108029e-05 0)
(-0.00328774849528 0.000107553433664 0)
(-0.00325933165069 0.000202225322431 0)
(-0.00322619379627 0.000292014599336 0)
(-0.00318880883686 0.000335600062793 0)
(-0.00313401621817 0.000326243859279 0)
(-0.0030526722802 0.000334451404501 0)
(-0.00295179941098 0.00045335825414 0)
(-0.00286637736453 0.000677499127957 0)
(-0.00287298643113 0.000928779161841 0)
(-0.00273238308528 0.00112939856343 0)
(-0.00266570702137 0.00146520055902 0)
(-0.00253364021431 0.00186485938149 0)
(-0.00169184912092 0.00168629784098 0)
(-0.00192575543148 0.00254215411498 0)
(-0.00083567324679 0.00133315941421 0)
(-0.000604044349044 0.000959797729271 0)
(-0.000370418669177 0.000888883508314 0)
(-0.000113038862602 0.00085564993867 0)
(0.000127939985421 0.000840443721773 0)
(0.00036850445499 0.00086487843598 0)
(0.000590916692575 0.000793819420942 0)
(0.000663030765142 0.000522189752456 0)
(0.000680833665629 0.000267429821352 0)
(0.000719479864863 7.55493985983e-05 0)
(0.000707070125988 -0.000115647013771 0)
(0.000649619899967 -0.00031798466382 0)
(0.000489308911986 -0.000431812314626 0)
(0.000359070335804 -0.000528703002552 0)
(0.000252722852807 -0.000753136449181 0)
(7.84111100198e-05 -0.000814794021161 0)
(-1.28288682085e-05 -0.000437085295559 0)
(-0.00010010674454 -0.000597374997193 0)
(-0.000271691995147 -0.000925664168148 0)
(-0.000265892170985 -0.000801923185083 0)
(-0.000141631516302 -0.000323881943101 0)
(-0.000329215119064 -0.000526034909767 0)
(-0.00062780001634 -0.000857397395365 0)
(-0.000673652430273 -0.000839460943865 0)
(-0.000739169845325 -0.000756171918767 0)
(-0.000731520896615 -0.00064246388724 0)
(-0.000851556864672 -0.000504700962699 4.58468035703e-28)
(-0.000554598703854 -0.00016992181868 -2.15244480189e-28)
(-0.000669777687249 -0.000134515317973 0)
(-0.000709106862255 -0.000139189734743 0)
(-0.000849523464461 -0.000227944424439 0)
(-0.00112787455939 -0.000425236728984 0)
(-0.00137907103345 -0.000543147420491 0)
(-0.00121256525432 -0.000415422097558 0)
(-0.00131078808107 -0.000472078760819 0)
(-0.00154662988274 -0.000661880167328 0)
(-0.00163766424728 -0.000730448776911 0)
(-0.0017274413489 -0.000711606448823 0)
(-0.00180003198894 -0.000665114625582 0)
(-0.00186163795732 -0.0006006970677 0)
(-0.00187056184645 -0.000506347654829 0)
(-0.00179708307575 -0.000392377151235 0)
(-0.00197941534498 -0.000361697244259 0)
(-0.00171522042749 -0.000275878093045 0)
(-0.00207344761419 -0.000204116937226 0)
(-0.00164614996833 -3.10457991644e-05 0)
(-0.00197925643719 4.97452807823e-07 0)
(-0.00173804359076 -1.76172351891e-05 1.94911780376e-28)
(-0.0020214185865 5.77388744265e-06 -2.33523659626e-28)
(-0.00197358643242 -0.000166410869779 0)
(-0.00257010975914 -0.000473648251006 0)
(-0.00272506425852 -0.000641242030744 0)
(-0.00280642458655 -0.000685735085726 0)
(-0.00285452049748 -0.000664345721293 0)
(-0.00290590265966 -0.000616760821651 0)
(-0.00296250230929 -0.000562136030355 0)
(-0.00301687933234 -0.000491056081611 0)
(-0.00308097441748 -0.000408172949195 0)
(-0.00314267244011 -0.000327015413882 0)
(-0.00319278571346 -0.000255145972528 0)
(-0.00323360806369 -0.000194072075223 0)
(-0.00326480925965 -0.000143791242558 0)
(-0.00329083192367 -0.000104282743899 0)
(-0.00330879135729 -6.8812146037e-05 0)
(-0.00331358516244 -2.35779816935e-05 0)
(-0.00330269220185 4.39239752682e-05 0)
(-0.00327823932686 0.000135145570345 0)
(-0.00324272945298 0.000238898394759 0)
(-0.00320072606208 0.000330398129322 0)
(-0.00315394254789 0.000385412612375 0)
(-0.00309809452696 0.000411041662965 0)
(-0.00303260731362 0.000455926054269 0)
(-0.00297210380842 0.000557855759689 0)
(-0.00297686448631 0.000698684172261 0)
(-0.0031212143867 0.000873345502776 0)
(-0.00341285673526 0.00113639471863 0)
(-0.00366806780751 0.00158542197654 0)
(-0.00359996077764 0.0021574029854 0)
(-0.00341990958306 0.00284058581692 0)
(-0.00290519621558 0.00324771959917 0)
(-0.00120894954067 0.0018252714795 0)
(-0.000669769121647 0.00119284853179 0)
(-0.000422788645673 0.00119408075411 0)
(-9.06133041533e-05 0.0011768144762 0)
(0.000225635984983 0.00114753744948 0)
(0.000509723220672 0.00111458427683 0)
(0.000691042925262 0.000909133827142 0)
(0.000742163278677 0.000575194049084 0)
(0.000818099105815 0.000318164313233 0)
(0.000861975631598 8.09740675437e-05 0)
(0.000846205863803 -0.000175348226257 0)
(0.000739537408034 -0.000412612009176 0)
(0.000601563399838 -0.000573104697255 0)
(0.000425163761915 -0.000672659716903 0)
(0.000293768311711 -0.000905770706768 0)
(0.000101233065133 -0.00100250800829 0)
(-2.87368287122e-05 -0.000511955298799 0)
(-0.000163860680537 -0.000779888415057 0)
(-0.0003223930228 -0.000934934745937 0)
(-0.000145553530069 -0.000443074582228 0)
(-0.000145427332854 -0.000408282657885 0)
(-0.000446558659564 -0.00083463814491 0)
(-0.000579886691435 -0.000936487614922 0)
(-0.000655887961305 -0.00091226607578 0)
(-0.00064146384965 -0.000754779711346 0)
(-0.000696403762702 -0.00065955001945 0)
(-0.000482439731165 -0.000310463465693 0)
(-0.0005657858389 -0.000201974770116 0)
(-0.000651407139018 -0.000200781360056 0)
(-0.000703766328374 -0.000245783626496 0)
(-0.000957072893853 -0.000451738285983 0)
(-0.00124677694291 -0.000635104566175 0)
(-0.00109092464073 -0.000486184771637 0)
(-0.00114640433632 -0.000468537926183 0)
(-0.00137487864185 -0.000659727118051 0)
(-0.00153947431021 -0.000807134163052 0)
(-0.0015977551629 -0.000819558259098 0)
(-0.00165744365028 -0.000783937789455 0)
(-0.00176815986234 -0.000750928238217 0)
(-0.00181175907493 -0.00066055335717 0)
(-0.00190839966151 -0.000517068457773 0)
(-0.00172277235428 -0.00041176678052 0)
(-0.00195846496396 -0.000359088617254 0)
(-0.00180251856488 -0.000258017601693 0)
(-0.00170977618525 -0.00015617212945 0)
(-0.00174004576563 -8.86366114725e-05 0)
(-0.0021167933382 -6.61939877479e-05 0)
(-0.00191284497016 -2.19130902608e-05 0)
(-0.00182827989644 -0.000164855067459 0)
(-0.00250906114721 -0.000542158497851 0)
(-0.00263964993655 -0.000770857779018 0)
(-0.00273663909319 -0.000785710373026 0)
(-0.00278981816971 -0.000756482511388 0)
(-0.00283721607574 -0.000723299808422 0)
(-0.00290120984173 -0.000685658821243 0)
(-0.00297011415786 -0.000635606921938 0)
(-0.00303107166024 -0.000567151527822 0)
(-0.00309198241999 -0.000485832535292 0)
(-0.00315170689789 -0.000399693829423 0)
(-0.00320229832477 -0.000318079559728 0)
(-0.00324222892678 -0.000247927301904 5.05844835535e-28)
(-0.00327461565987 -0.000191858978624 -5.21539051098e-28)
(-0.00330108995679 -0.000145203166785 0)
(-0.00331698208713 -9.55060634482e-05 0)
(-0.00331542880921 -2.88420456702e-05 0)
(-0.00329681004168 6.14147370135e-05 0)
(-0.00326374057022 0.000170497824775 0)
(-0.00321809303142 0.000283186234547 0)
(-0.00316650936747 0.000377739106888 0)
(-0.00311521136471 0.000438461451508 0)
(-0.00306643655448 0.000476321987417 0)
(-0.00302549456714 0.000524160681025 0)
(-0.0030251880193 0.000583139884029 0)
(-0.00315827413734 0.000600760965265 0)
(-0.00354450644666 0.000605661100777 0)
(-0.00411976772642 0.00078872825302 0)
(-0.00446311446362 0.00127418197514 0)
(-0.0047966556386 0.00213827366814 0)
(-0.00469017895598 0.00315184868713 0)
(-0.00428442883957 0.0040903305702 0)
(-0.00298220727947 0.00376673056972 0)
(-0.000953258746854 0.00173448921373 0)
(-0.000502812894707 0.00161824445915 0)
(-4.35324639761e-05 0.00155317100081 0)
(0.000337405228932 0.00145621780831 0)
(0.000627467554622 0.00131849119839 0)
(0.000788777828832 0.00101588431952 0)
(0.000892388681516 0.00067596001689 0)
(0.00101134896208 0.000388944637628 0)
(0.0010549103318 8.12711581488e-05 0)
(0.00102212285132 -0.000249263664959 0)
(0.000886150616502 -0.000525558749704 0)
(0.000752612830399 -0.000742085457508 0)
(0.000531108784239 -0.000876998070886 0)
(0.000334882426818 -0.00108949376221 0)
(0.000118482524363 -0.0012396697461 0)
(-4.34629895058e-05 -0.000614076215899 0)
(-0.00020832047602 -0.000953874084625 0)
(-0.000262894289803 -0.00092554383581 0)
(-0.000140921298457 -0.000483881049352 0)
(-0.00023845664042 -0.00057470701634 0)
(-0.000510568411652 -0.00100769070028 0)
(-0.000518250712921 -0.00100605625636 0)
(-0.000637125393689 -0.000971827223646 0)
(-0.000507607775994 -0.000679127341457 0)
(-0.000721027346491 -0.000740865600564 0)
(-0.000470513580834 -0.000327014100789 0)
(-0.000596780079014 -0.000283044446744 0)
(-0.000647856252868 -0.000284554042299 0)
(-0.000778027666909 -0.000419052973984 0)
(-0.00107157952995 -0.000699175079689 0)
(-0.00122169342019 -0.000715720276036 0)
(-0.0010437426288 -0.000508813323051 0)
(-0.00119236562993 -0.000615238955499 0)
(-0.0013895780167 -0.000826255218347 0)
(-0.00148830919058 -0.000908617678073 0)
(-0.00156832049454 -0.000895946372297 0)
(-0.00157965771545 -0.000834297982731 0)
(-0.00165893127808 -0.000787759226735 0)
(-0.00164908021276 -0.000673884724351 0)
(-0.00157427211245 -0.000470180125626 0)
(-0.00183294947556 -0.000447282193531 0)
(-0.00151200618415 -0.00035155435649 0)
(-0.00204796101315 -0.000293934509552 0)
(-0.00164083702976 -0.000195592568192 0)
(-0.00217882767518 -0.000217308858043 0)
(-0.00172487040211 -0.000125222260661 0)
(-0.00223220178039 -0.000131366423687 0)
(-0.00231126284566 -0.000454577041297 3.08137323525e-28)
(-0.00261066527523 -0.000822577211173 -3.84901781088e-28)
(-0.00265846772458 -0.000898474843686 0)
(-0.00271143367026 -0.000865119586008 0)
(-0.00277380436919 -0.000825699138655 0)
(-0.00282869903632 -0.000794423824692 0)
(-0.00289675429997 -0.000764798135695 0)
(-0.00296986224238 -0.000717965778451 0)
(-0.00303953005695 -0.000647834887493 0)
(-0.0031041870493 -0.000562859028778 0)
(-0.00316369015724 -0.000471624662379 0)
(-0.00321496789687 -0.000382492663956 0)
(-0.00325764087138 -0.000304118826713 0)
(-0.00329039155036 -0.00024056608591 0)
(-0.00331400419862 -0.000184247859185 0)
(-0.00332509308356 -0.000116639446457 0)
(-0.00331747334649 -2.46294380135e-05 0)
(-0.00329009420954 9.00821620282e-05 0)
(-0.00324611291048 0.000216550614839 0)
(-0.00318824818233 0.000337453299055 0)
(-0.0031261506865 0.00043134476347 0)
(-0.00307301203457 0.000484165088783 0)
(-0.00303775546142 0.000505443340963 0)
(-0.00303263618567 0.000520395584251 0)
(-0.00310358310599 0.000499153354434 0)
(-0.00346325476486 0.000317271669865 0)
(-0.00438943846992 5.91072633248e-05 0)
(-0.00537421675949 0.000251853479241 0)
(-0.00581725091885 0.00101355357392 0)
(-0.00578841021359 0.00206998476487 0)
(-0.00564061339876 0.00329197152657 0)
(-0.00544758924333 0.00462648883759 0)
(-0.00527253464018 0.00557897052506 0)
(-0.00232588699676 0.00326563757174 0)
(-0.000663406956797 0.00203661637701 0)
(7.01838081297e-05 0.00203782979476 0)
(0.000476505777832 0.00182762099755 0)