/*--------------------------------*- C++ -*----------------------------------*\
| =========                 |                                                 |
| \\      /  F ield         | OpenFOAM: The Open Source CFD Toolbox           |
|  \\    /   O peration     | Version:  v1806                                 |
|   \\  /    A nd           | Web:      www.OpenFOAM.com                      |
|    \\/     M anipulation  |                                                 |
\*---------------------------------------------------------------------------*/
FoamFile
{
    version     2.0;
    format      ascii;
    class       volScalarField;
    location    "975";
    object      alpha;
}
// * * * * * * * * * * * * * * * * * * * * * * * * * * * * * * * * * * * * * //

dimensions      [0 0 -1 0 0 0 0];


internalField   nonuniform List<scalar> 
6400
(
0.916259433545
1.50096170639
2.40609133748
3.06909301636
3.70042216484
4.32152620101
5.06125598533
5.88177979164
6.46465656304
7.30121142318
8.65859393102
9.71031807354
10.6263242192
11.622552928
12.7964088308
14.0379337428
15.2044657996
16.3116780367
17.261817065
17.9145182223
18.3934447703
19.0478448847
20.0605990989
21.3873380227
22.8099276914
24.1295060484
25.2895215014
26.3890640398
27.5193720127
28.6956855747
29.8626446939
30.8494652844
31.5800110215
32.1570794996
32.6335207634
33.0337674366
33.5891557467
34.3104840243
34.763623674
35.026667466
35.6039781404
36.6020772999
37.5746597898
38.1792924125
38.4412563662
38.4543597703
38.2815445521
37.9598175789
37.5018100944
36.9252926894
36.1637202104
35.0343956607
33.494852363
31.6370293692
29.8314760801
28.0692500291
25.8324876044
22.9714507344
19.9885411259
17.2747578663
14.5393248151
11.7089114339
9.18399674565
8.35871636945
10.4925658723
14.5483971758
17.0877631122
16.4710088945
14.2157401239
12.4108338455
11.4409109191
11.6450013102
12.2583829346
12.1961267061
14.4026746517
13.8925990131
15.8771531803
9.76906046132
12.8493088071
4.79682704093
3.19009698608
2.59623054148
3.26313190181
4.56558409377
4.63861311208
4.71614331969
5.06975084311
5.64191204758
6.42933303688
7.41477828478
8.57782655114
9.74384521686
10.7993455451
11.8197260946
12.8712498369
14.0615233829
15.318971047
16.5181147097
17.6794926246
18.1818347861
18.5078158388
19.1557545575
20.1640018597
21.4859133765
22.9985223511
24.2765885631
25.4144374771
26.5428457538
27.683373618
28.8337432724
29.9796619457
31.0311245856
31.755094365
32.3234304221
32.8228992669
33.1679259118
33.7555465486
34.5017554583
34.9302458617
35.1021812528
35.6590145369
36.9956880249
38.1593173848
38.6943785022
38.9133249891
38.8807750506
38.6520414023
38.2918465445
37.7306633078
37.0396015044
36.3207180923
35.5280422805
34.1104862495
31.8584133449
30.1232175448
28.2167549266
25.6318642616
22.823784054
19.9886839881
17.155677082
14.4308063148
11.9474574813
9.51912683783
8.83196774186
10.8309210649
15.5758188005
18.8154388815
17.2571992194
14.8440734257
12.7406071475
11.9545559854
12.378484072
13.5624792109
13.0153399388
12.9457816373
12.4997178725
11.3815776968
9.60057385931
8.11156289064
4.19028558586
3.36201993324
3.0116195594
3.54709496618
3.94901984473
4.64113250636
5.1806556565
5.24388825906
5.523119076
6.31872991677
7.38284817823
8.55932872752
9.74415302413
10.8400158658
11.8582182504
12.7666859445
13.8616025179
16.3644661468
18.3918808063
19.0604896376
18.8964475845
18.3147691638
18.8910946103
20.2571114873
21.6221046536
22.9465749196
24.2704039475
25.4900683832
26.6203754431
27.7423715716
28.8846668624
30.0062646493
31.1253559917
31.8379588841
32.2376130948
32.9533426179
33.3207264638
33.701246166
34.5710215414
35.0578087555
35.2998507902
35.8713527704
36.8400717947
37.7811155688
38.3845941223
38.6713443373
38.7233090162
38.5829372701
38.2694435557
37.7862534746
37.1506692376
36.3563466125
35.2915713123
33.8375904319
32.187442214
30.425405636
28.1753918238
25.5641439052
22.7985538877
19.9771231575
17.1815435775
14.4929784754
11.9087114252
10.0124131851
10.0631437234
13.0099533341
16.5926124563
18.2816441616
18.0466993584
16.2508954463
14.4513966452
13.6968701731
13.5802148802
12.9054877527
12.3394494184
12.3993419542
12.1553900933
11.2611292096
9.68320601334
7.24571929169
7.46581784233
3.50928955784
5.64421298021
3.98523586871
4.1902935851
4.95114864175
12.0202089219
10.4809203359
5.98645589126
6.26460654129
7.36212173346
8.57299378137
9.78056265188
10.8507117926
11.8594011561
13.5307336963
15.5938252351
17.3716501839
18.11439291
17.6815942967
17.5090209708
18.1800851807
19.1076695774
20.2624422831
21.6134126001
23.0100054357
24.3564187912
25.5971360446
26.7137075473
27.8442761296
28.9362746216
30.1394563121
31.1206778329
32.0246973446
32.3956814945
32.639863913
33.3732856305
33.8387363428
34.3261387208
34.9434129268
35.5098525025
36.1659025141
37.0114946111
37.8452807561
38.4449143219
38.7682201989
38.8543768118
38.7396287695
38.4449603013
37.9789603078
37.345816519
36.5240573915
35.4471215702
34.0692635106
32.4397022657
30.53160412
28.2333875406
25.6077055315
22.8263837843
20.0100124233
17.2548907
14.6758562328
12.5184840076
11.3988473916
11.6323529215
13.1184626706
17.0900061969
19.9480412898
19.7946896231
17.9343592755
15.4481124921
13.7410150907
12.8851456674
13.0564966119
14.5494817033
14.5497626605
13.2871157821
13.2193013436
16.5853962993
12.9449934701
10.9277921683
5.94543618504
7.76614347336
4.90874871766
5.2338875508
6.90835842622
11.9250074217
8.65409708793
6.57857848833
6.79422193653
7.57067184878
8.70053309841
9.91657919528
11.3922810278
13.5498048962
14.6872866438
15.338496465
15.7898486
16.1445460241
16.6989846283
17.5372917161
18.2880460841
19.1646949066
20.3448440984
21.6928766545
23.0947190925
24.46110941
25.6848224651
26.886832498
27.9303230026
29.1343900169
30.1726442204
31.5335367881
31.9727219884
32.13990121
32.678461355
33.0805529574
33.7017995768
34.4125683622
35.1021386698
35.7500195119
36.4375378585
37.2161092073
37.9755007907
38.5614734219
38.9099134595
39.0275135071
38.9393722415
38.6663233708
38.2187899029
37.5946177392
36.7696973941
35.69971035
34.3531291997
32.7187583028
30.7419166593
28.3799857786
25.7284254084
22.9521248105
20.1887999212
17.5771145102
15.3198632451
13.7581039475
13.2287046594
13.1311584921
13.8528499634
17.0120203013
20.2004273974
21.1584523559
19.7708165248
16.875174131
14.2742436058
13.8586500075
16.1340790969
17.026674787
16.0214983203
15.1472012474
17.8859231118
20.9510712001
16.1925252368
15.2953185983
10.2089431785
9.41189360303
6.1252417272
6.57982248089
12.2215894738
11.7477086351
7.35459932751
7.23748117651
7.45598045904
7.92705065533
8.91123175488
11.4117697792
14.4558805976
15.0644289912
14.9946833293
14.5903204272
14.7913327167
15.5754423358
16.7292981061
17.4777377198
18.2053565675
19.2260741402
20.4624173445
21.8266511305
23.1708071144
24.5396528838
25.9356287069
26.9714084632
28.2823051744
29.1813082254
30.7115999922
31.3780931393
32.3620239017
32.2641430571
32.2963669767
32.9128809178
33.7435848219
34.5602780237
35.3083561137
36.0067515944
36.7150439622
37.4591270144
38.1705507266
38.741424597
39.1054218181
39.2496241237
39.1877368569
38.9387765627
38.5138400988
37.9082414835
37.0980447115
36.045750225
34.7127914196
33.0567645735
31.0279673501
28.6351163265
25.9995896837
23.2916046513
20.6749501246
18.3387161024
16.5273564109
15.5409239166
15.3720491822
14.5933910488
15.8664617671
19.1584454939
21.7377021107
22.5671487156
21.3649010476
17.8556834038
15.5225350738
17.2065825213
19.3646057456
18.8215865562
17.8436762305
17.9414387795
22.6183991623
24.2461316835
19.1581935162
18.9594747467
12.3696046534
9.44461666221
7.43303997603
6.9720169295
12.2340794369
8.95224249682
7.72628562364
7.88659987279
8.08057086489
8.8323987885
9.46086032417
13.982602295
14.8492778478
15.0760720729
14.1796545166
13.7750110129
14.4628966628
15.9015041713
16.6402740274
17.2195014809
18.1979643458
19.3114586366
20.5515082458
21.9109846938
23.3819484452
24.7938185617
25.9436464442
27.5170324303
28.3730106373
29.9697066828
30.5301774365
31.7725229403
31.9842884341
32.0908538254
32.205805805
32.9130430044
33.8513059366
34.7432379491
35.5387512606
36.2772438638
37.0072209269
37.7386223566
38.4233568136
38.9833278338
39.3580528586
39.5246680963
39.4889251165
39.2677980984
38.8721894196
38.2957833578
37.513177565
36.4844459827
35.1605518278
33.4896274557
31.4436894254
29.0740822277
26.5258333792
23.9781530328
21.6032297274
19.5859499516
18.1501053298
17.3787262524
16.8337420495
16.6726786661
17.9850198696
22.0368898129
23.4307524983
23.164051687
21.7433626923
19.280319904
18.7948082862
21.1599754432
21.4833144623
20.6149002905
20.0173316838
22.0469406683
24.8786013657
26.4102521977
21.7502039765
20.5974570562
12.1794989891
9.28917295022
8.63916892168
12.5091988819
12.4389202519
8.2812127393
8.4398017826
8.6383702074
8.74207985607
9.37734938545
13.6564126405
14.6622123665
14.9318353844
14.7037173407
13.2493965844
13.4562604942
15.0627996621
15.9682683226
16.3241042815
17.0836832579
18.2017236068
19.4292896409
20.7063984534
22.107393585
23.4496999311
25.036431448
25.9814134327
27.518633026
29.231997417
30.0989480627
30.2974187979
31.3698560563
31.9877376362
31.765462244
32.230413239
33.0663959889
34.017789977
34.9426335104
35.7847800948
36.5649237998
37.3206786176
38.0554360565
38.7303772363
39.2858388723
39.6699118113
39.8570085565
39.8487935916
39.6605656368
39.3022421624
38.7655382015
38.0219641963
37.0260953632
35.722615384
34.0662004442
32.0605852727
29.7944512174
27.4234346487
25.1016165833
22.9539837519
21.1418507463
19.8709385689
19.1635205535
18.8646600188
19.0105003589
18.9661033851
22.9292312509
25.6175740203
24.9604132982
23.9277380158
22.656539768
23.11582973
24.1928828519
23.3523535788
22.6032848297
22.7940856354
25.21449283
25.9661725098
26.635008664
23.7264944934
21.5601144257
11.5858472218
9.37348088093
9.33753956031
13.5415968104
11.6305041824
9.04483159908
9.21801140469
9.55085337283
10.582948539
9.55603898195
14.4187880651
15.2269033546
15.004534766
13.6860999564
13.021167905
13.5735712652
15.0889829248
15.7240969023
16.2127350479
17.0706893664
18.1741948641
19.4548651211
20.8137569759
22.5431555339
24.0267829288
24.994694563
26.9510502635
27.4565804598
29.3296066206
29.7570857752
31.0540584168
30.9073534644
31.202197
31.7165198742
32.4048273368
33.2708473447
34.2178132313
35.1612040657
36.0470008675
36.8733575858
37.6614308902
38.4109220673
39.0894939883
39.6483600876
40.0433936211
40.2516732428
40.2744800117
40.1255698191
39.8131077962
39.3269917796
38.6357984338
37.6901529345
36.4362455624
34.8479019691
32.9648436286
30.8986392281
28.7736386345
26.6487148695
24.587990565
22.8588122256
21.7859673693
21.3983619342
21.3894368018
21.3704851805
21.1267880517
21.5531493133
26.37119235
27.3443359109
26.7253943387
26.7604774501
27.2781748395
26.545817253
25.3053878243
24.98933746
25.9829505948
27.2758754143
27.2345069438
26.719184849
25.7415466259
24.384653073
11.2234156316
9.93545400766
10.4845996433
13.6703620814
10.0127680965
10.0827113728
10.0004123472
10.3016479812
13.0853993734
11.9633548757
15.2506017643
15.5426098663
15.1422169766
13.1803239528
13.1005460413
14.6299424118
15.2702396749
15.502799769
16.1555107915
17.1696282432
18.2640865747
19.4885903495
20.7069482099
22.6272969742
24.811568838
24.9304266726
26.8660223809
28.4267939523
29.5022124075
30.5235407215
30.5753851486
31.0298408291
30.9928487095
31.6573293164
32.5689061997
33.4977375389
34.4465831637
35.4017972762
36.3259725535
37.2025966604
38.0326863415
38.8079975518
39.5007895757
40.0711507561
40.482082554
40.71509169
40.7740246336
40.6721351672
40.4151859929
39.9918125869
39.3704237243
38.5030669088
37.3470298786
35.904729959
34.2472149938
32.4712632462
30.5850237378
28.4943080673
26.3975971394
24.9222529646
24.3716340183
24.4340936192
24.5315694696
24.281409673
23.6490259427
22.1362822473
21.1507369833
29.5105908805
31.6173384491
31.8060129286
30.9140190212
28.9418880297
27.6605261459
27.7649932578
28.943651651
29.3972418808
29.3322529672
29.2255081729
29.688943638
29.9525619176
11.3803882889
10.872687889
13.7424527357
13.9709039238
10.3069149555
10.8928235357
10.7840506536
11.2006707497
12.782894256
15.2776627986
16.1545365022
15.8904713487
15.4763339047
13.3313657192
13.2737081994
15.0745151212
15.3894567145
15.4871220255
16.1484470035
17.2502713494
18.5391083039
19.8006499043
20.8203344547
22.2348067605
24.9184974275
26.3468258835
26.5865631607
28.4727280062
28.6915050832
30.4947371663
31.281652856
31.0158620766
30.9877139733
31.7570013823
32.7551613375
33.7321981303
34.6982787111
35.6683209944
36.6243679446
37.5518286958
38.4345441033
39.2482660115
39.965807044
40.5560151591
40.9899253959
41.2548825021
41.3577599833
41.3113396349
41.1198926058
40.7731388399
40.2440489975
39.4945042231
38.5041294621
37.3086809665
35.9870721088
34.5402014915
32.7598435165
30.5411433773
28.6098123748
27.9071264458
28.2578684221
28.7127616841
28.7833051486
28.2434912421
27.0884728565
25.1178769033
22.5351369821
22.478004524
33.5594547101
37.569674634
35.3386346625
32.101377622
30.6886208508
30.8943990498
31.6903237279
32.2061649578
32.8751402454
33.7870883115
34.5893789385
35.389801006
11.8830793645
11.8170915459
15.4277376698
14.8192997803
13.124541613
12.168780042
11.803350131
12.6298439417
12.4364298517
16.260002367
16.8917467468
16.3242505343
15.7012514269
14.0592362724
14.0204628782
15.4932842898
15.4460030273
15.5770808648
16.2292771893
17.2467644502
18.6189104612
20.2078586025
21.9755765112
22.2783568614
24.403558629
26.6307290763
26.5042157049
28.6204005253
29.8611445181
29.8987858853
30.6102559407
30.6423116967
31.2312803032
32.0408529011
32.9928837994
33.9846635399
34.9747818907
35.9665845605
36.9486116342
37.9194752132
38.8630448802
39.732825211
40.4875484
41.1057624181
41.5719161748
41.8798365004
42.0375554939
42.0562572319
41.94025601
41.6844858741
41.2735957392
40.6919798113
39.9539176377
39.1182280105
38.2084223386
37.0176484295
35.2269178661
33.0860524794
31.7545502059
32.7609890553
34.886851584
35.3870089751
35.3710774477
34.6263861455
33.1465435608
30.5440766535
26.7492513979
22.1339194616
28.6649600379
38.5555471504
40.0550979496
36.1556727902
34.6882733023
34.8331352686
35.4238141037
35.8954951521
37.506718663
39.0638445019
39.279389599
39.7007861021
12.5778220206
12.5221929183
15.2675109265
15.4090597582
15.4764872609
13.3983246491
12.9463222307
15.3504632238
12.9412400738
17.1301446876
17.455659469
16.7623018178
15.9116503025
14.7554501505
16.3339380166
16.5068798111
15.6945901752
15.8073387221
16.4461542459
17.3337747862
18.5246359815
20.1690616794
23.0613771016
24.1141823276
23.9244688045
26.5984558744
27.8387751373
28.2033038957
29.7686650248
30.6450232646
30.8368640961
30.6776330898
31.4062976958
32.3324279802
33.282132487
34.269409553
35.271225699
36.2946445955
37.3164196315
38.3216896402
39.3157800487
40.2525908772
41.0651602082
41.7251641587
42.2345392492
42.5996801875
42.8270312265
42.9221049148
42.8901049358
42.7370624011
42.4708970921
42.1154802498
41.7253917506
41.3373813602
40.8090314033
39.778004183
38.5305641175
37.3674438046
36.2493186458
38.2548288695
36.8978756697
34.568662835
31.4843509483
27.8911275575
22.5740453553
14.4087064846
11.9374646434
0.00180582002535
7.62432563557e-05
24.3762393665
34.719105238
36.4478865595
32.2168037375
31.4035479248
33.6141910094
37.2965020916
41.1471628863
44.5509294341
44.923395603
45.314416119
13.3193824998
13.2751086724
12.9263903913
15.8013856896
16.0863661625
14.2612769995
13.9617886099
16.4087228841
13.6922956792
18.0453853165
17.9724619948
17.2108969554
16.2097030782
15.1302961098
17.4545615908
17.176759002
16.2094223061
16.2246671802
16.7795387145
17.5910385931
18.5477558803
19.9883692397
23.4603720307
25.1312857932
24.2093694189
26.496873627
28.2582894652
27.8265546177
29.3331302585
30.2748306361
30.2443607559
30.9694405816
31.7902107293
32.6721374443
33.6016408868
34.5984089884
35.6132325587
36.6416600825
37.7063469037
38.7710551215
39.8141121496
40.8097381306
41.6904016275
42.4123289315
42.9839235642
43.4259441632
43.7416149492
43.9245156195
43.9821852579
43.9388649056
43.8386354463
43.7697823717
43.811709731
43.8670686928
43.5054740647
42.9814697145
43.3571790814
35.5346201483
26.7029302395
0.0389954638111
1.32182194394e-12
2.68432262407e-16
9.29720980353e-19
9.48573750439e-20
7.52749440296e-21
2.12034330053e-21
2.49580360337e-20
2.55009498872e-19
2.88060157425e-18
7.52386538554e-18
1.24939648992e-14
3.27960464752e-12
2.9926910583e-09
1.55017033226e-06
0.00391807033688
32.829901002
43.4322799509
47.8767376462
51.6801370785
51.9995849601
14.2345117516
14.3373084554
16.4567001167
16.5155228004
16.6150082691
14.9968097866
15.0328217782
17.3357939653
14.7562593217
18.8583993274
18.476080679
17.6843279007
16.5853054763
15.5568230175
17.775194311
17.4766840838
16.7102326193
16.706445197
17.16518282
17.8876837183
18.7501499361
19.915224807
22.9274182642
25.8782556393
26.1971765812
25.9175365732
28.3816476481
29.5242441347
28.5133007974
29.1253084743
30.150821472
31.1586567929
32.1097833511
33.0281896478
33.9707868702
34.9568876708
35.9882857768
37.0473248433
38.1269149907
39.2459217449
40.3604157515
41.4196071385
42.366132755
43.1613323346
43.8201768732
44.3675615849
44.7967629823
45.0846263928
45.2313774017
45.2858764168
45.3680838297
45.6427486536
46.1447048867
46.3836258179
45.4941224787
44.1356964977
28.5117933448
3.15279369872e-22
3.46774612347e-25
6.50078431221e-27
1.10192748988e-28
3.18814962997e-31
9.06002531472e-34
1.56827323372e-38
1.22670797638e-38
2.97816488017e-38
2.0075185923e-37
9.40310500516e-37
3.47351168263e-36
2.20736239194e-35
1.72831547787e-35
1.49940764382e-33
8.53413484906e-31
8.57862655576e-29
6.50972840617e-27
1.49903315064e-24
2.52334450337e-20
32.2988097807
55.5895933939
49.8174244647
15.0966256556
15.2929812584
18.0949237449
17.2721521962
16.8548366939
15.7217471472
16.0596268099
18.1447910744
18.1297717511
19.873534987
19.0539272903
18.2546978548
17.0500933146
16.115966154
18.113069591
17.6946173841
17.1678270932
17.1859465229
17.5616595559
18.1899374467
18.9992135384
20.0687619888
22.4331918661
26.0689025081
27.4519016732
25.7222592338
27.7909445638
29.5785654924
29.8955281058
29.4179901056
30.1515646458
31.3116318127
32.4128849701
33.4118828988
34.3440941313
35.3442231115
36.3886379529
37.482076339
38.6005938419
39.7588819516
40.9447392178
42.0854141294
43.0999177061
43.964161106
44.7292600434
45.4375815016
46.035177379
46.4345319676
46.6260112256
46.7597045258
47.0612582313
47.7207597164
48.6799965678
48.3322603359
40.4785409873
16.8517184288
1.74346550667e-28
7.06019393238e-31
2.04169379612e-32
2.97233190825e-34
2.41495686411e-37
4.02958695682e-40
2.84047433896e-41
0
0
0
0
0
0
0
0
3.95061540493e-45
1.33246078895e-42
1.99307732812e-40
1.15631963924e-37
1.61509475566e-34
8.74615088879e-30
1.32820859573e-25
1.03552229625e-18
61.538331346
15.7934988238
16.0114453524
20.171109966
17.8670657889
16.8587739678
16.3503276434
16.8003404437
18.3054195633
19.6945374209
21.0193650834
19.779847473
18.9580558604
17.7590845776
16.9492828122
18.6536176303
18.0530485987
17.6886819263
17.7013432568
17.9906626463
18.5251680924
19.2528509927
20.2395073671
22.1952107453
25.8784103616
28.3645728308
27.8565538386
27.2419266185
28.8764836838
29.6966473848
29.5173747798
30.5031591752
31.6739300476
32.8252123295
33.8364644708
34.8007811999
35.7691123742
36.8336861624
37.9479468994
39.1126403844
40.3205357199
41.5653073191
42.793526667
43.9085597227
44.8475457658
45.7244132923
46.6296487573
47.4417696036
47.9622142866
48.1917844205
48.39018661
48.918337698
50.0629186775
51.2502110291
38.3843127252
0.000332626790756
2.52413838911e-31
8.27807488527e-35
3.34731159545e-36
4.56395859522e-38
1.25156148204e-40
0
0
0
0
0
0
0
0
0
0
0
0
0
5.090367498e-44
5.05838714455e-43
1.10890806157e-41
5.37694185042e-40
2.9859391905e-36
2.48538711596e-27
4.7909848402e-32
16.321443993
16.5323754712
22.158207595
18.3154878942
17.0618070827
16.9132481898
17.5821065634
17.8194577187
20.6086307402
21.8325815518
20.4673274369
19.6668408093
18.6465195297
18.7152455411
19.4137922567
18.6479449642
18.3968810051
18.3999701045
18.5229146773
18.9408478869
19.5539475646
20.45164954
22.1253214011
25.6433765981
28.6952981248
29.3992606324
27.2306182015
27.9351758108
28.6608907007
29.5350544764
30.7335200095
32.057779929
33.2346839646
34.3054384438
35.3059847614
36.3270460181
37.3411897648
38.4715706633
39.6676207532
40.9132626172
42.243316042
43.5739375373
44.7850157247
45.7622501995
46.7034941063
48.0820351818
49.6766362664
50.4384950502
50.199293898
50.2777662282
50.9148040146
52.216513921
38.2015277778
1.33572889043e-25
2.01311841148e-30
9.03116571302e-42
9.12610483313e-39
1.48912880912e-40
0
0
0
0
0
0
0
0
0
0
0
0
0
0
0
0
0
0
7.86445819381e-43
5.32568119188e-42
9.82099766502e-40
91.8447591164
16.7523397045
16.930410905
22.0272430983
17.8552843877
17.2987352416
17.3856813528
18.456708241
17.8913192677
21.3867665752
22.5727667498
21.1013664768
20.3081406389
19.3330333814
20.7895673775
20.4443765382
19.4350510989
19.2086968005
19.4162175699
19.2704654976
19.5201770983
19.9484983393
20.7100586071
22.1857542097
25.3921977665
28.4805164751
30.4016372875
29.5232311004
28.9809425133
29.2606938898
29.6404027963
30.9028021485
32.5194442273
33.6284986815
34.7862420265
35.9792502851
36.9043945918
37.9296160059
39.083391799
40.3183613746
41.5987825628
42.9421574666
44.3590896657
45.7180820217
46.9823130233
48.3152317774
50.0298410032
51.6123022589
52.2919468864
52.7082680761
52.8740267835
52.9073178292
41.6097254713
6.07437380336e-25
5.5446902716e-30
7.28751101554e-34
9.89783677012e-36
0
0
0
0
0
0
0
0
0
0
0
0
0
0
0
0
0
0
0
0
0
0
2.4198811081e-42
1.76131922936e-31
17.2225611183
17.3758063268
21.6917580063
17.5795083936
17.5836968576
17.7587666096
19.2026940032
18.3637387944
22.0757557448
23.2925293639
21.7134241095
20.9244936752
19.8857716882
21.547169298
21.3809512893
20.264703142
19.9957468972
20.2899322902
20.1584444958
20.3079646588
20.5282392186
21.0280571562
22.4009293938
25.2717208146
28.0949093166
30.5963023899
30.6089563299
29.5613774162
28.9102009913
29.9927820106
31.2344085704
32.8322935375
34.2634578972
35.5782861522
36.7415206843
37.5942898392
38.6000542686
39.7744797946
41.0473241948
42.3843450545
43.7693979772
45.2833416806
46.9057334735
48.6035547941
49.9759477053
51.1194052445
52.5993960771
54.0445139139
56.1313610064
57.0892920169
45.5383968382
5.5349357956e-24
7.34933806761e-30
1.26735566985e-33
2.59941174438e-36
6.29367585771e-38
2.11257335345e-40
0
0
0
0
0
0
0
0
0
0
0
0
0
0
0
0
0
0
0
0
0
4.06669158973e-43
5.38060441637e-43
17.9132481067
18.0654958675
21.4042100717
17.8534993561
18.1008452989
18.2147555743
19.2442363316
19.0504039308
22.5834455029
23.9706583746
22.3415106555
21.5681910551
20.5269458416
22.2114888856
22.1982651538
21.1447345394
20.8097886678
21.120293601
21.0166718118
21.2263110199
21.3534552838
21.4922871364
22.8050845834
25.3568200405
27.8472660399
30.5477927693
31.0868650353
30.3521105676
29.3897932835
30.1023047539
31.6355183813
32.9557429093
34.3111720846
35.81167112
37.5600674178
38.5609272553
39.5006155575
40.5776160099
41.8328051275
43.251493058
44.754175097
46.4048468508
48.4831422166
50.328123502
51.236415922
52.3257344428
54.3927811284
58.087886883
64.468571059
50.4098206462
1.58134839471e-24
2.62689733093e-31
1.08707154458e-35
3.56415083155e-39
2.23631350642e-41
4.53282624608e-41
6.96072968164e-42
0
0
0
0
0
0
0
0
0
0
0
0
0
0
0
0
0
0
0
0
0
3.00581110389e-44
1.36485049997e-43
18.9668090334
19.0837851825
21.7105935006
18.733784552
19.1838010493
19.020738844
19.5638065499
20.2803663212
22.6799625184
24.483574045
23.014277104
22.2632542722
21.2557219448
22.9672809884
23.0314873843
22.1601992667
21.774902786
22.0711428584
21.8736142785
22.223276918
22.4568916569
22.1528707497
23.2937481837
25.65585167
27.8025364138
30.3046180697
31.236802729
30.9973324993
31.1259429034
30.82415338
31.8571133943
33.4741620431
35.3520677458
36.3221122306
37.8505364729
39.4933307803
40.5276709475
41.6541976256
42.8402661572
44.2079066211
45.8456693205
48.0331425687
50.5630795181
51.8637226153
52.4142895983
54.0191880743
58.1200089654
63.8918111892
57.0423093417
37.1774324398
3.97989125588e-33
3.71577115535e-38
2.54245311557e-40
0
0
0
0
0
0
0
0
0
0
0
0
0
0
0
0
0
0
0
0
0
0
0
0
0
0
0
20.4480210069
20.3509635789
22.516459047
20.5050024191
21.0200685207
20.2111137437
20.4623563244
22.0587283922
22.9124216671
25.0819406894
23.7806905311
23.0189740568
22.046292761
23.7529713074
23.8554046834
23.2703937751
23.1726249389
23.3118046249
22.8172366277
23.2937587043
23.8256281599
23.0848426828
23.663536873
26.0431444449
27.96818346
30.0854172764
31.2712161636
31.0917170955
32.2041470734
32.2652771352
32.719006267
33.1720674341
35.1108198786
37.3101962509
38.7090590089
40.2248188758
41.5510002369
42.7406205259
44.0447938984
45.4444838659
47.3808068313
50.3210328278
52.6235946374
53.5178718812
54.5399651183
57.9000547548
64.7580105883
60.4226315184
35.2108435307
3.55172390692e-35
6.2091630388e-38
2.8430965866e-40
0
0
0
0
0
0
0
0
0
0
0
0
0
0
0
0
0
0
0
0
0
0
0
0
0
0
0
0
22.0051537759
21.5263074269
23.3657014452
22.8521840453
22.6260576134
21.5652808668
21.4255969162
23.1135577536
22.2286524977
25.5405855572
24.6231416946
23.8254709057
22.8852054577
24.5345523492
24.6082045618
24.18415492
25.0647976459
24.7892113222
23.8542910017
24.4434477804
25.0375117439
24.2572539294
23.7687031878
25.9265236133
28.0205273068
29.8726774938
31.1829173683
31.0233808215
32.4826167587
33.4181411567
34.0078611427
33.8066662246
35.1028234572
37.1820734962
39.4920150501
41.3461341873
42.790511055
43.9870922307
45.2977263032
47.002034769
49.7851061516
52.9098641083
54.8462488818
56.0815371343
58.4647631378
63.3101830103
63.2029270165
34.3187326113
9.56332428499e-35
1.38449295815e-37
4.84876143142e-40
0
0
0
0
0
0
0
0
0
0
0
0
0
0
0
0
0
0
0
0
0
0
0
0
0
0
0
0
0
22.7321458716
22.3022550799
23.8674343352
23.8108971966
23.5864311055
22.8107113715
22.4951290929
24.3685079976
23.1851925628
26.122139494
25.4689324835
24.6555855734
23.7653039138
25.320991891
25.3396309475
24.9143019539
25.9424801041
25.7938219359
24.79979715
25.516323487
25.6573127354
24.9325875735
24.5603987683
24.7472884435
27.2744923143
29.1196978723
30.7331139269
30.746071853
32.342152784
33.7985439771
35.0243419942
35.3833608244
35.3992200065
37.0730223961
39.5753138979
42.1114212268
44.1355157788
45.6068267472
46.9201280149
49.3632941255
52.774322147
55.6502660515
57.405984004
59.362034556
62.8746142158
59.4614708453
37.9541562422
28.2100649152
4.55099184185e-37
1.29614603748e-39
0
0
0
0
0
0
0
0
0
0
0
0
0
0
0
0
0
0
0
0
0
0
0
0
0
0
0
0
0
0
22.7162948363
22.7191950253
24.1115028405
23.9286345542
24.1356816856
23.733928228
23.393441203
25.5958810734
24.7232900104
26.8427183969
26.3491274816
25.4911224721
24.6809224064
26.1273242238
26.1100407489
25.7381121373
26.636903781
26.6236541205
25.739827678
26.3815320352
25.4638842722
25.5026624721
25.3715349054
25.5632079294
26.2898602943
27.3921656058
29.5074781135
30.1262273887
31.6427257103
33.5429227039
35.2311365615
36.526182479
36.7063182773
37.6583848126
39.6276436288
42.213664149
44.9967406055
47.2926623334
49.2041681845
52.419076141
55.9016155998
58.4079689007
59.9893181895
62.0407993379
57.8362518551
39.3305975004
40.7505699665
1.58081237122e-36
3.54116758982e-39
0
0
0
0
0
0
0
0
0
0
0
0
0
0
0
0
0
0
0
0
0
0
0
0
0
0
0
0
0
0
0
22.8144889076
22.9484865263
24.2713304991
22.9715174764
24.2914673726
24.1731250724
23.9354613806
26.0957999496
25.4392249621
27.5320307221
27.226765917
26.2955250464
25.636556763
26.9408965863
26.8981687097
26.676901521
27.4246339225
27.5573100975
26.8066627109
27.6222366864
26.6256190818
26.8974917612
26.4398732462
26.6965526351
27.8222578033
28.3863404879
28.7040333648
29.3485351334
30.7785327878
33.0453227585
34.7937971842
36.4109025759
37.6293747063
38.479112192
40.572801294
42.7203381503
45.6298997555
48.8146611748
51.9793756196
55.7892049607
59.0220436707
60.983292068
61.2104046979
59.5669655108
60.4505868738
36.7045432429
1.32650109767e-35
3.01984465822e-38
0
0
0
0
0
0
0
0
0
0
0
0
0
0
0
0
0
0
0
0
0
0
0
0
0
0
0
0
0
0
0
0
23.3218194594
23.4220508991
24.4204676661
23.1945378866
24.3913850648
24.3339296056
24.2456046037
26.1659759979
25.8678220147
27.9870359919
28.0445440831
27.0082984623
26.6174557967
27.7071968846
27.6146884739
27.5610860014
28.1624670687
28.555975014
27.9161593265
28.8910094178
28.21949501
28.7090763146
28.5601461547
27.5308402997
28.4172872341
29.2084558274
29.3936003584
28.5890072649
29.7423327371
32.3913365847
34.3841699612
35.5961698284
36.9873043327
38.3212359316
40.6040442572
43.0965222699
46.2964766725
50.300952518
54.9397629434
59.3470612282
62.0322403398
62.8653121794
61.6221180748
57.0237777277
37.2458606268
51.6043315813
2.10434647635e-37
8.5331717469e-40
0
0
0
0
0
0
0
0
0
0
0
0
0
0
0
0
0
0
0
0
0
0
0
0
0
0
0
0
0
0
0
0
23.9876923766
25.0100338186
24.6816037594
23.9258941649
24.7232581709
24.5166144877
24.5052818276
26.1708126658
26.2210418291
28.0767117082
28.7947496629
27.5884013642
27.4365246349
28.2686689533
28.2243196013
28.1615548074
28.3483740927
29.4129615105
29.0479117682
29.9464458081
29.8962979589
29.8405723718
29.7175550625
29.3027130137
28.5116786625
29.0016794868
29.810280552
27.4353385907
28.4267184714
30.992303231
33.7420254372
35.3807733181
36.8197847203
37.5410959273
39.7464031172
42.7489552744
46.4735610786
51.6137807545
57.9385365161
62.9105471738
64.8040694767
62.3051736148
61.0853307287
65.1034335866
44.2253360528
1.42634513058e-36
3.64037584714e-39
0
0
0
0
0
0
0
0
0
0
0
0
0
0
0
0
0
0
0
0
0
0
0
0
0
0
0
0
0
0
0
0
0
24.4047796347
25.4785248646
25.1293282535
24.5290861099
25.1614445767
24.8243977128
24.791161943
26.2106312861
26.529459941
27.8712118261
29.4045810631
28.0835351505
27.829029233
28.6445220284
28.8193453039
28.6191739564
28.408538372
29.9452473236
30.1582956349
30.8038051822
30.9632132484
31.1795183808
30.1032512236
30.0584194893
29.4064760299
30.1148701191
30.5441683177
28.1771215036
26.8364808029
28.8632576947
31.9338938501
34.5162113973
36.1730362614
37.0304356938
38.2142024066
41.3386464577
45.6390811672
52.3977761684
60.7977150516
66.6037446161
66.9220315835