/*--------------------------------*- C++ -*----------------------------------*\
| =========                 |                                                 |
| \\      /  F ield         | OpenFOAM: The Open Source CFD Toolbox           |
|  \\    /   O peration     | Version:  v1806                                 |
|   \\  /    A nd           | Web:      www.OpenFOAM.com                      |
|    \\/     M anipulation  |                                                 |
\*---------------------------------------------------------------------------*/
FoamFile
{
    version     2.0;
    format      ascii;
    class       volScalarField;
    location    "175";
    object      alpha;
}
// * * * * * * * * * * * * * * * * * * * * * * * * * * * * * * * * * * * * * //

dimensions      [0 0 -1 0 0 0 0];


internalField   nonuniform List<scalar> 
6400
(
0.828430256053
1.23706808292
1.89064539793
2.15183603465
2.41848210039
2.73137760772
3.29518194807
3.96236535611
4.0531072677
4.32547535524
5.43027760156
5.87635425606
6.19481179063
6.65546534404
7.39745746267
8.15490049145
8.68620295955
9.20707777023
9.68963039181
9.88856598236
9.77192084033
9.6580558866
9.80308759306
10.2853924387
10.8632538566
11.3360727258
11.6108039134
11.8407289344
12.1733051578
12.6181779582
13.1241920001
13.3996015854
13.3897617051
13.2873883404
13.0950787521
12.6754957448
12.4421008445
12.7070226678
12.4270932184
11.772605015
11.562025847
11.9893392481
12.4765020686
12.704761008
12.7627502078
12.69111519
12.5714437423
12.4748460057
12.4017295483
12.3511396829
12.1396395077
11.2777767536
10.491296927
9.63113262425
9.29716362848
9.78138238446
9.71481433532
8.45446110372
6.92319908368
6.42197261068
5.61269338839
4.70140762974
3.78690039765
5.52404203409
9.60797651762
14.556912389
17.5523017911
17.2586946954
15.2421464524
13.5345301095
12.5499647268
12.6054055843
13.0160788943
12.8156663022
14.7561019024
14.1603930372
15.9912663925
9.8890382349
12.8717450906
4.8127682745
3.07568966878
2.37638405265
2.90050368616
4.08655470815
3.71520037557
3.26373105841
3.22939929978
3.46938838054
3.86394551419
4.39451711481
5.08613385137
5.77604441687
6.3556844717
6.90865363191
7.45319620808
8.09976979503
8.77576922765
9.48226386224
10.570608963
10.5396937272
10.1243684024
9.88862342935
9.87093490595
10.268142509
11.154148815
11.4733570121
11.6749416305
11.9907737071
12.3669024815
12.7738405034
13.2089308906
13.7187751588
13.7192340751
13.648670287
13.5671864471
12.8734184086
12.8186664328
13.0824083482
12.6193062204
11.5823173351
11.2840166743
13.7340104368
15.1510709627
15.2048332295
15.1302459807
14.7497463607
14.1990225135
13.7788083071
13.132217324
12.6119955941
12.6148999083
13.2945364553
13.174213721
9.85274336481
9.8369274973
9.5912564187
7.9130520776
6.77724074359
5.87895382988
4.9989907253
4.3318799072
5.03313630344
3.97212360791
5.69382393401
9.65222081472
15.4671990985
19.1909802842
18.0021815715
15.8206542609
13.8428290086
13.0190398542
13.2927209003
14.2507876914
13.6117042508
13.3950336303
12.8243425583
11.5938103077
9.73818591096
8.17941465418
4.26433159275
3.02430939898
2.55056013039
3.03077100832
3.0793051517
3.29035290574
3.56837485369
3.47856008
3.42356633417
3.7965194786
4.38082391014
5.05931829913
5.76836690236
6.40388510966
6.97347293298
7.38673726751
7.96652359789
11.2789738085
13.4511736729
13.6460301885
12.5472299436
10.0056506696
9.30373708306
10.1069955018
10.568910022
10.9119368307
11.401175658
11.8201156581
12.1437156344
12.498070004
12.9414814183
13.2973525695
14.0099372275
14.090105462
13.4810166218
14.2854031204
13.6308284578
12.6449080849
13.551723318
12.9929118561
11.85141932
11.5071984114
12.0203676545
12.5904155952
12.8590428056
12.938568736
12.9082308068
12.800167028
12.6336411552
12.4080511702
12.1472549545
11.8522029842
11.4390968341
10.8471304074
10.5390180289
10.4163553595
9.09166494784
7.80317607516
6.82334797647
5.98412691264
5.25083905466
4.72612638041
4.19751315114
3.91179474449
6.40527200174
11.5985318927
16.3012600538
18.613672762
18.7262892943
17.1088058674
15.3747380092
14.58582758
14.3893486787
13.6590916964
13.0031533543
12.9105597501
12.5099164301
11.4889502162
9.85059547307
7.41310778411
7.58851109705
2.77774446297
5.29236333196
3.10318983931
3.02893554142
3.64398729672
11.6720003007
9.97461711915
4.28757301574
3.82360475115
4.41500754442
5.08270510001
5.79381629944
6.40852988609
7.09150059312
9.17313207979
11.5517441241
13.2000722136
13.2591247412
11.3125134849
9.4339564452
9.38130781055
9.58502865113
9.88014527818
10.4028942014
11.0041262011
11.5742948645
12.0563213143
12.3206088084
12.7727605845
13.0223344224
13.7831294538
13.9172553497
14.7356213633
14.3638995634
13.2676994323
13.920287324
13.0799997296
12.1332674879
11.9413944548
11.8513832476
11.8875415618
12.2105343742
12.6100082692
12.8692244835
12.9812182268
12.979795577
12.8914561788
12.7362068121
12.5232344394
12.2636232418
11.95478778
11.5754450219
11.1241181848
10.6504358861
10.0111747545
9.03654851611
7.93110587119
6.96498171464
6.18694157393
5.58163596327
5.14388560015
4.83181725573
4.97475372068
6.92123789456
10.7709754104
16.5618551821
20.1500182141
20.3467397327
18.6632262922
16.2852239361
14.6182265678
13.7423235468
13.8228609712
15.1318736449
15.00834635
13.6396833208
13.4537567725
16.7104081205
13.1115658929
11.1277730481
5.22196353876
7.26718499459
3.50901206578
3.83249248354
6.08333588057
11.5494408124
7.61017287888
4.35834727478
4.29736251017
4.63408967605
5.23761443138
5.98857841044
7.5002054392
10.2436106389
11.1983745754
11.3127010432
10.7810634193
9.74635233576
9.12472575851
9.50213927577
9.5336597081
9.5228326257
9.92940355205
10.50920811
11.1618587903
11.8066130563
12.1876943969
12.7805518411
12.875268309
13.7131974733
13.7144041934
15.3225109799
14.5407219018
13.5418917589
13.8254297068
12.6627476112
12.2150120595
12.0465799786
12.016775448
12.0411572407
12.1306401547
12.3652366853
12.6677161819
12.9063404186
13.0351538042
13.0550348248
12.9840306935
12.8426569868
12.645747122
12.4014594746
12.1062712887
11.7515460233
11.3323623453
10.8234467235
10.1123568023
9.14562424587
8.10348281063
7.20507587525
6.52941002798
6.06268095506
5.78069928999
5.72874756452
6.24606180811
7.41119701824
10.5526449183
15.9397369239
20.1544410142
21.548090863
20.344860052
17.5542431549
15.040757641
14.6488497295
16.8049221251
17.6089523591
16.5162884357
15.5491011377
18.1419787472
21.1217122691
16.4269478958
15.5317182538
9.57683593476
8.68007256025
4.3398038278
5.19871878314
11.801120406
11.2057105081
5.34740219791
4.77587642236
4.82363805323
4.95828178052
5.57942350269
8.6638481299
12.2341512211
12.4890775694
11.8430392192
10.2620219023
9.03006057319
8.71659236956
9.60712467745
9.53324855146
9.26735601726
9.54771568927
10.0777970875
10.7438520715
11.2719172275
11.946311516
12.9289314949
12.8094925457
14.0001912889
13.5962133003
15.7264550459
14.7867048402
16.0795529584
14.2628019066
12.5540827851
12.0466130233
12.0272511044
12.0914505555
12.1601260271
12.2268433864
12.338016094
12.5335334084
12.7768900382
12.9909754925
13.121944013
13.1549070496
13.0977698122
12.9720206823
12.7974102147
12.5807511028
12.3154106073
11.9882316711
11.5757524388
11.0269694407
10.2739099839
9.3391872609
8.3899661462
7.58950669489
6.99070887034
6.62743731241
6.49794632538
6.84484902036
8.25094057328
7.56753722175
11.7722581178
17.5153412481
21.2792543571
22.687386412
21.7252599507
18.3381375815
16.1457935249
17.9011397299
20.0449705721
19.4646426148
18.4100932599
18.4234828757
22.9070724669
24.4529259069
19.4248089844
19.2095463941
11.626876476
8.19937591198
5.28160764502
5.02906875869
11.6503308747
7.54227806462
5.1690780687
5.24090668044
5.30556469216
6.00463999686
6.29719474128
12.2352924228
12.6634923548
12.5267933414
10.6234903287
8.69486334338
8.31269321941
9.7900785814
9.68036454755
9.03858260371
9.26604310396
9.65346380699
10.1811348065
10.8424060158
11.7600009209
12.7424003234
12.8568243447
14.5143554282
13.8188479832
16.1839266971
15.0398116303
16.4485574415
14.9509635471
13.9015739865
12.0421384712
11.818110732
12.0236607608
12.2072078693
12.3120176656
12.4009726314
12.529959885
12.7101557908
12.9206795067
13.113730268
13.2412661648
13.2804351387
13.2355151097
13.1301430383
12.9860953714
12.806742906
12.5783913723
12.2766372933
11.8629129867
11.2874980048
10.5266033423
9.64617750163
8.79212857218
8.07601159514
7.52525205316
7.16074816573
7.15882666413
7.63113606701
7.95653974034
8.55092670178
12.7010984305
19.771140953
22.440837581
22.8705516491
21.7861445753
19.5128650372
19.3096766084
21.8624345647
22.2545127477
21.3511708057
20.6962208696
22.5650538841
25.2214736741
26.6386397576
22.0042344467
20.8349139661
11.1787424181
7.43850013561
6.29963354601
11.6132088575
11.5902808809
5.87986326086
5.68980739739
5.75760876717
5.98972953264
6.50334544693
12.0695821426
12.9165450073
12.7648165564
12.008910955
8.93670824025
7.92405418219
9.73844166213
10.0489985808
9.06983535202
8.8481240807
9.31988910268
9.90926067247
10.4188570279
11.1758542634
11.7967682565
13.2997186458
13.0024752716
14.3918988973
16.1107626837
16.1694053141
14.4303912073
15.4963336603
15.3241958092
12.4584876201
11.8982654139
11.9141951058
12.1176846331
12.3264692875
12.4632178118
12.5736215187
12.7167340306
12.8975611611
13.0926376791
13.2690936853
13.3898609216
13.4319854272
13.4007443993
13.3220158816
13.2167107392
13.0821244409
12.8953684928
12.6196533461
12.2074943541
11.6228646343
10.8810927609
10.067780806
9.28922752951
8.5851557802
7.94140533352
7.4949451422
7.59354288858
8.16973089196
8.92899566684
9.96687957483
11.0794729673
19.5201407399
23.8857358661
24.0472858963
23.4982310686
22.6398217266
23.598627602
24.9751308262
24.2385767823
23.4802026746
23.5867273154
25.7777627186
26.3390893667
26.8663088219
23.9124150876
21.7045096388
10.2107074794
6.96444161987
6.94033084121
12.4974943042
10.1629193577
6.11202154534
6.2531404968
6.42424288792
8.15909041699
6.41768230222
12.842640016
13.3177399696
12.731415131
10.3519401572
8.11990334768
8.03573277532
9.88221187188
9.55181898564
8.83235604759
8.87413367936
9.29455210796
10.0543523671
10.7321805991
12.0947768919
13.3496319336
13.0674556125
15.6041135396
13.8913883029
16.4991180489
14.6806145615
16.6870141151
14.1188989324
13.028241178
12.2143578436
12.0023212809
12.0712299098
12.2407262696
12.4446129561
12.6125688964
12.7543781203
12.9126342978
13.0969200913
13.2870979908
13.453324105
13.5654409213
13.6096993085
13.5968292288
13.5522181659
13.4924666931
13.4086461731
13.2681425587
13.0220861292
12.6191221037
12.0417852826
11.3356200972
10.5836546133
9.82553726956
8.99761137306
8.06391325001
7.44679464142
7.84599381047
9.07870310902
10.3873000706
11.4610316095
12.359256546
15.6616774538
23.8117932879
25.4846747121
25.6886904609
26.5551814526
27.7693709599
27.4410094066
26.3656917767
26.0595372753
26.8883338489
27.902637715
27.6037424138
26.8899468463
25.768622901
24.2960292549
9.31178443034
7.06619642466
8.15668291335
12.4741350152
7.44891910682
7.13106437669
6.81296974009
7.06401410554
10.9541382977
9.40734087522
13.6680914121
13.4946458201
12.681583737
9.24205326856
7.94291473465
9.98387785365
10.1644164333
9.15483913781
8.75499605912
9.06445395282
9.41119940053
10.1120211246
10.6354970064
12.2823812194
14.8518113345
12.8441239561
15.4678885927
16.5715153
16.7307625253
16.9849951485
15.0103189845
14.8813135558
12.401728656
12.04021401
12.1343715372
12.2354884455
12.3766378022
12.5637754909
12.7546996411
12.9367503981
13.1220803388
13.3147614732
13.5030389026
13.6631732253
13.7696011262
13.8161503765
13.8246326222
13.8219620119
13.8156166109
13.7879369162
13.6983137097
13.4873264888
13.1021087188
12.5449082716
11.880646335
11.1612337365
10.3051917008
9.08811154736
7.61000854769
7.05678848358
8.39436175499
10.4760083247
12.148653935
13.3821214998
14.3154471389
14.3743147616
15.5535650037
27.1864834632
30.0533344634
31.3750363414
31.4109125081
30.0038024135
29.0003280266
29.1166608542
30.0360205983
30.1291034765
29.6740451103
29.2051690784
29.4085199668
29.5064292248
8.86395243951
7.64688715468
11.9309513152
12.3590577681
7.05273855482
7.80311469116
7.33291510489
8.14055451907
10.0663457573
13.2354800134
14.3329516175
13.6119134127
12.7378560503
8.87809463572
7.99695948443
10.6103281644
10.1318807401
9.00360357911
8.75490754936
9.21608671045
9.90715357014
10.4246590758
10.825246485
11.8046163727
14.9631536784
16.1312184782
14.5686636305
16.7506265099
14.5065323551
17.0388039214
16.9786434667
14.6734483426
12.2211303959
12.1316259626
12.3021696539
12.4111599792
12.5339627984
12.7014827091
12.8943855747
13.1146292484
13.3420972874
13.5520189208
13.7416450074
13.8983557571
14.0016458449
14.0545303225
14.088899258
14.1324179193
14.1843013361
14.2178468529
14.1841798844
14.0140943601
13.6561853571
13.1310355265
12.5031531557
11.7377274685
10.4843887742
8.39524781816
6.63916409971
7.07196998179
9.84406882798
12.6366730214
14.4889303123
15.7223430108
16.3894053391
16.3486163622
15.8192897618
17.6238771248
31.6397763914
37.0150239428
35.8326229899
33.4503187761
32.4956521951
32.7262908027
33.1800303942
33.1657393568
33.1607174622
33.4215520302
33.8381927748
34.4264198713
8.823023331
8.33708010747
13.4673705398
12.7380875336
10.4144361864
8.9084836534
8.03073759633
9.70463369845
9.11447344777
14.1560142972
14.7982094523
13.7768463628
12.5423678184
9.1686452148
8.77508634792
11.1398083828
10.0050436521
8.97225917297
8.85485502983
9.24827111505
10.1180312091
10.8475425143
12.8960167427
11.9430541122
14.3069449433
16.5094330615
14.1292934774
17.0748625013
17.5207414758
15.445264731
15.3812534864
12.9295245131
12.5710161328
12.451679921
12.5149208827
12.6181454345
12.7276542731
12.875729377
13.041491983
13.2701573951
13.5556820554
13.815231662
14.0111443936
14.1601825177
14.2630302766
14.3284260813
14.3933571502
14.4847367993
14.5956260377
14.6919621282
14.7150444708
14.5917729792
14.2800700835
13.7990544776
13.1643605188
12.0862269876
9.76918785245
6.9110271525
5.90894367394
8.13474330762
12.4194816258
15.6136870316
17.4869131199
18.7733122735
19.35908652
19.1253322776
18.406078168
17.2317579141
27.6446572462
37.9866879487
40.8481456893
38.0673800299
37.1173903485
37.2263459604
37.4045911128
37.2381423034
37.7205338795
38.1854543281
37.8766941571
37.9655661899
9.16158686554
8.86052437068
13.0312422893
12.9904981405
12.9103277544
9.76375796246
8.86591414995
12.8665516014
9.12271201286
14.9927774773
15.148906441
13.9597282853
12.3731650026
9.5301897106
12.1508145861
12.2536224655
10.0044196108
9.08157753552
9.08617163734
9.40877686464
10.0835725427
10.777220947
14.5026367571
15.5499899739
13.4675099168
16.6156791039
17.3709099143
16.4446109982
17.4977379635
17.4250973147
16.0158190168
12.8454680475
12.7638743091
12.7709238235
12.7738816726
12.8368999316
12.9140491325
13.0806002893
13.2636115044
13.4517064755
13.7432690981
14.0675943181
14.3092314812
14.4595115161
14.5591217926
14.6412568104
14.7419075189
14.8807479052
15.0452255649
15.1955897888
15.2687012873
15.2023008584
14.967524125
14.525928452
13.7370874303
11.7876273112
7.98979212356
4.99154242671
5.65374501697
10.6100213076
16.0757419901
19.4832404067
21.2360594446
22.7889907973
22.9318663389
21.8278349267
20.4463291913
19.1141153544
23.8141069198
35.1595102463
42.1959665186
43.3411690665
41.4842931742
41.7672624621
41.8371254346
42.0656090307
42.7429272798
43.0180320615
42.7400308911
42.776596926
9.5546182304
9.38426074983
9.12903259567
13.1816041342
13.2519828503
10.2303679274
9.64560918249
13.6569066817
9.47871313266
15.8166920919
15.4412861059
14.1490640072
12.335494048
9.65664529219
13.3653407865
12.5361590124
10.1728058972
9.34474571361
9.38187015776
9.75114705168
10.173073528
10.7002230504
15.1485390989
16.5095879829
13.6635971996
16.7486870663
17.8860718647
15.2928210557
17.1113642528
16.6418682637
13.4748933219
13.207635776
13.1797196083
13.1119936281
13.0439816886
13.1213227632
13.1792573993
13.2488616555
13.4635081703
13.7036541673
13.9743070906
14.3119736695
14.6060213967
14.7887250453
14.8985375879
15.0008736076
15.1376922687
15.315588422
15.5245421297
15.7163942928
15.8095043166
15.8157574348
15.7045894786
15.3011286903
14.0487972486
10.2098140951
4.77316281768
2.54802859542
7.82569524022
15.1330294875
21.1176614035
24.3782854376
23.9937698827
22.1626968042
19.2074662746
17.3535490526
16.4826537542
15.0394599945
11.9409408267
14.1462121136
41.7355638039
45.2798026277
46.2890568444
45.6484719979
45.3786489891
47.1353703441
47.7914421913
48.0051713089
48.9702407611
49.4072047947
10.1110771638
10.1567230222
13.7482171889
13.6390400477
13.4742374648
10.5898644869
10.5627517751
14.2383416594
10.283156351
16.4894671706
15.6919399433
14.339009025
12.3482963867
9.90120892043
13.5177935279
12.4189870947
10.3525644411
9.64853441213
9.67449921431
9.99966404867
10.4021922688
10.8192075768
14.23276434
17.2651415105
17.3776782773
15.7266964185
18.0429406243
18.6328380395
14.8075428187
13.7644843369
13.2908405138
13.3658823058
13.4078282857
13.389531374
13.39325966
13.392503407
13.4419288938
13.5412059209
13.6580315514
13.9291894092
14.2509853087
14.5937949014
14.9090865466
15.1308602486
15.2802371559
15.4098810547
15.5756006562
15.8085447998
16.060409349
16.2260599426
16.2893582333
16.3873962811
16.4383825698
15.9696267916
13.5467613876
7.19531713615
0
4.50724905499
13.0736519844
21.27187323
24.9852604645
20.9480414894
13.4146816714
0.0633015258818
0.0495146413561
0.12021016312
0.810311541356
3.79545401945
9.98513259864
14.419210401
10.5312003901
31.3773073036
50.0988981814
50.6558668111
48.2464950999
50.8334444173
52.6895364819
55.0324073987
57.3339570212
57.5376619581
10.5956159203
10.7703133565
15.2487222793
14.0279839611
13.1871333027
10.984982187
11.4929836301
14.6311500331
14.6382615841
17.2699778529
15.9600847767
14.586041553
12.385500562
10.300429019
13.6686402797
12.2622842125
10.5608695985
9.97010810229
9.94355285535
10.2026899412
10.5976967966
11.145340036
13.408465943
17.4891186577
18.7734223541
14.8443024532
17.6196367412
18.4552272551
17.6549377994
14.5498375875
13.4626499906
13.5631575934
13.7100352319
13.7913777276
13.6431214621
13.6776890517
13.6844120604
13.8013534852
13.929597324
14.1658354007
14.5295818169
14.9136182759
15.2257385381
15.4568868035
15.6709650823
15.9292004049
16.1958641408
16.4632091792
16.6136399291
16.6962339893
16.793845151
16.913840583
17.1861648504
16.673975085
11.0217728604
0.00073464544367
2.8484208055
10.3593742336
18.1712903049
18.9803590857
0.974769263095
0.00162649592912
0.000114652444496
0
0
0
0
0
0
0
0
1.59461998029e-08
5.37832306926e-06
0.000804482492956
0.466734979575
46.6820695658
58.6542690058
59.8970118964
67.2087135995
65.9554557717
10.9694484288
11.172366158
17.5445057446
14.2577648565
12.5357983571
11.3514645235
12.1247461826
14.3374456004
16.1887885287
18.1690719711
16.3565116945
14.9332566379
12.6284187595
11.0355615956
14.0322299065
12.2789192937
10.8749389442
10.3590562149
10.2532893203
10.4391751158
10.7722084342
11.29419621
13.029823742
17.3381523957
19.7136919546
18.6939177869
16.8683686379
17.7569461576
16.9913541578
13.7503141606
13.9242724595
14.0932170921
14.3618289474
14.2430914191
14.1127400194
13.9523536428
14.0208071557
14.05532788
14.2119479592
14.4450420255
14.7858686479
15.2173936642
15.6592894194
15.9216294089
16.190509311
16.5734565008
16.98191817
17.2829488228
17.4060034127
17.5168612483
17.649886178
17.7586918704
17.618128323
16.5959854039
10.2966048408
0
5.19650129718
7.73210230777
0.184218882862
0.000505178242186
0
0
0
0
0
0
0
0
0
0
0
0
0
2.05466766246e-07
2.04175916458e-06
4.47597847432e-05
0.00217034006824
12.0523964118
71.4736117994
48.4356354718
11.2415354088
11.4304781386
19.7172767187
14.3790317947
12.2275739281
11.7108111618
12.9155666144
13.113967874
17.1439519534
18.795204261
16.7501487419
15.2950712578
13.0953973291
13.2307528451
14.5308042577
12.5558432452
11.4062926865
10.9785338019
10.6726151062
10.7687407115
11.0055085765
11.4607603534
12.9023590791
17.2013207151
20.0637171617
20.3526688151
15.6556685246
15.8860113401
14.5088319192
13.8409936987
14.0921432183
14.6350952177
14.8469689812
14.6808752621
14.5356941522
14.6329279482
14.375142073
14.3829434575
14.4922330008
14.683714853
15.1451458018
15.6312778962
16.0816478015
16.3003029676
16.7139189385
18.7524055195
21.5438495503
22.4214600443
20.6009664366
20.4131741706
20.653592632
21.0174695084
21.0653546031
19.7094506132
18.7378556026
3.64532504817e-05
0.0368364612028
0.000601069531921
0
0
0
0
0
0
0
0
0
0
0
0
0
0
0
0
0
0
3.1743971216e-06
2.14964929935e-05
0.00396413153339
58.9051447176
11.5148071077
11.6762053256
19.3738324369
13.25761311
12.1101283477
12.0031269726
13.8050353543
12.6975332105
17.919657055
19.4039223317
17.144203041
15.6452585193
13.4275120591
15.7820891559
15.2706069186
13.044659133
12.0380345505
12.1144445604
11.3215267797
11.2744532221
11.3481032292
11.6382849207
12.9494005664
17.0488986391
19.8938197545
21.467622418
19.4589398416
17.9776017648
16.4854099122
14.2053779059
14.4282515443
15.5153685461
15.08206776
15.0593884696
15.5505026473
15.085136526
14.8512661893
14.8328020018
14.9326167452
15.1008733172
15.3601791327
15.9231490215
16.6204683225
17.8955689981
19.8149464626
22.4738671357
24.4341716425
24.3964001647
24.7013156123
26.2745499163
28.5311845044
31.8990362268
33.444773981
31.6234282674
27.3153306836
22.1508920136
0
0
0
0
0
0
0
0
0
0
0
0
0
0
0
0
0
0
0
0
0
0
9.76756876937e-06
98.6894907303
11.8977894056
12.0495620892
18.7913334074
12.4437020985
12.2146610932
12.2187095694
14.5260112954
12.9209973001
18.5241886456
19.9973152806
17.5470603967
16.0222617285
13.7206246096
16.3506054188
15.9360450361
13.6067115091
12.64890399
12.9009234439
12.1239610027
12.0145166151
11.9309716517
11.808032741
13.1806024107
17.012802498
19.5764859286
21.8284454778
20.7186775642
18.1204708364
14.6535766409
14.750116827
15.1334846768
16.1697673742
16.4240266631
16.4506156099
16.3494370257
15.5838533577
15.3678218857
15.3954627301
15.4726163005
15.6554998604
15.8866030677
16.5308048824
17.8505602006
20.4221459377
22.0907123095
22.3471331643
23.4517173031
24.5324369035
28.4796851861
33.1182803416
39.8384227983
44.1656597588
45.0607863233
43.6129467872
10.4922233113
0.254036909278
0.000852715674381
0
0
0
0
0
0
0
0
0
0
0
0
0
0
0
0
0
0
0
0
0
1.64147278284e-06
2.17181842041e-06
12.5508965946
12.7078262511
18.1173808699
12.4036378769
12.6682259682
12.5482840838
14.1272356576
13.5732206343
18.865150415
20.5415461142
17.9897432515
16.4598851459
14.1696786144
16.8930049123
16.5622198045
14.3178436951
13.3570848927
13.6886618683
12.8836432087
12.9106669196
12.861484602
12.1710950252
13.6409592176
17.133428593
19.4189396743
21.9212160113
21.1416811305
18.3524723909
14.8003933145
14.8630840381
15.9982026763
15.8024955067
15.8107408489
16.2199040168
17.3159163699
16.5525504862
16.2617927383
15.979013109
15.998849454
16.3078513805
16.6824946332
17.3710120715
20.3465135077
23.1271665235
23.1171660076
23.2752344592
24.9959389242
30.3049740088
37.1375429777
43.2115333663
47.8148028832
43.9533549004
25.1908129294
0.0143862804809
9.02661948586e-05
0.000182962261782
2.80961761397e-05
0
0
0
0
0
0
0
0
0
0
0
0
0
0
0
0
0
0
0
0
0
1.213260708e-07
5.50906037231e-07
13.6039810991
13.6862895326
18.0281613332
13.1650305039
13.8236503122
13.2635101676
14.0241373521
15.0354220746
18.5516027549
20.8623650346
18.507578301
16.983459799
14.7497282515
17.5123355572
17.2224833462
15.2291264875
14.3052963837
14.6750038802
13.6406397549
13.9286128772
14.1873975707
12.8470839197
14.1060805627
17.3973213554
19.4352806914
21.6775584338
21.3024424181
18.6370423629
17.6327589035
15.8074113902
16.5078569952
17.1922070612
18.1520007589
16.6514325909
16.9452218856
17.7186004932
17.1230131468
17.1188167296
16.9018255664
16.9724050575
17.4484193988
20.0864622601
24.3188530943
25.2115706789
24.5739918106
26.2117827512
32.6912748613
41.4428459303
47.425821328
46.3481610697
36.5510875519
0.149982782913
0.00102623164279
0
0
0
0
0
0
0
0
0
0
0
0
0
0
0
0
0
0
0
0
0
0
0
0
0
0
0
15.1610179022
14.8922871329
18.4522303031
15.1454220487
15.9224482676
14.4096382886
14.7285780098
17.2382492653
18.4331492555
21.3000937082
19.1704660605
17.609758525
15.4452865104
18.1644106707
17.8767867572
16.2597974028
15.8772451429
16.0279223714
14.4783607452
15.0912706512
15.8803113448
13.946806409
14.3602292651
17.7108064313
19.6200869743
21.4016821268
21.4540307722
18.5258580577
18.8148510096
17.5468642611
17.7864416742
16.1685835857
16.8888725193
18.3165564593
17.8212424432
18.024127805
18.0269163567
17.9334799505
18.0672481297
18.0682086493
19.7356536756
24.8363771988
27.7004649949
27.654445061
28.3121822495
33.3691677199
42.6767812694
48.4306103053
37.8099232722
19.3102453245
0.250625647593
0.00114758288474
0
0
0
0
0
0
0
0
0
0
0
0
0
0
0
0
0
0
0
0
0
0
0
0
0
0
0
0
16.8589704775
16.0051517854
18.9780699196
17.9566864131
17.5912058538
15.8123338547
15.5312164985
18.2933628367
16.9029963502
21.5838548675
19.9668525157
18.3322766903
16.2502162676
18.8335949406
18.4814672647
17.096806186
18.3262123799
17.6853202228
15.4515455482
16.4628341485
17.2560393666
15.4170663101
14.123757574
17.5745440254
19.706207897
21.1479262474
21.441905022
18.4799274229
19.0059189786
18.8657106628
18.9070435065
16.7980934243
17.3808955387
17.6194918069
18.7482485873
19.256906426
19.2168571827
19.005290092
18.9852184618
19.9936594466
24.7832696525
29.5511828006
31.2383276547
31.8367635607
34.6101005644
41.1484040791
43.8823676553
27.7953368904
22.3846415995
0.558834487124
0.00195714618248
0
0
0
0
0
0
0
0
0
0
0
0
0
0
0
0
0
0
0
0
0
0
0
0
0
0
0
0
0
17.5647300047
16.7789580779
19.2558294024
18.8582831995
18.5126063605
17.1844589803
16.6060736326
19.6262713473
17.7917558034
21.9994123799
20.7671850614
19.1085100234
17.1555151048
19.5400333399
19.1178778682
17.8078907894
19.1879543072
18.6490488897
16.4283643249
17.8700597036
17.8301800837
15.9661085331
15.2821690531
15.4533793993
19.1621449522
20.5570829991
21.1421954345
18.3891480075
18.9551225735
19.2509061744
19.73645279
19.061661779
17.0068063092
17.409315178
18.8325027648
20.0579989916
20.5225436685
20.6890098557
20.6687446403
24.5877169875
30.327639918
33.870254102
35.022703113
36.2985955451
39.8068352044
38.1737883228
23.2247645686
24.8203161967
1.83695494937
0.0052317427967
0
0
0
0
0
0
0
0
0
0
0
0
0
0
0
0
0
0
0
0
0
0
0
0
0
0
0
0
0
0
17.4498511307
17.3060489725
19.4366858613
18.9190121556
19.1089660192
18.269037076
17.5606804973
20.9271417176
19.5079826294
22.5631840042
21.6220568741
19.9204198773
18.1514986222
20.2969311297
19.8331559596
18.6868388085
19.8698366409
19.4942195155
17.5129700746
18.7946402796
16.8287295134
16.5534034477
16.229002184
16.6551650873
17.6163612544
18.3957903813
20.2031675688
18.2596879598
18.1514985513
19.1250013323
20.0600394211
20.377889147
18.6699035057
18.0783571322
18.5959466666
19.7362850785
21.1494712141
22.420858749
24.1022860863
29.9462495951
34.9901993245
37.4863835938
37.7977433274
37.9482603243
32.7767807827
24.8482148147
25.3432027483
6.38076535895
0.0142935112976
0
0
0
0
0
0
0
0
0
0
0
0
0
0
0
0
0
0
0
0
0
0
0
0
0
0
0
0
0
0
0
17.598857037
17.6927021343
19.6415662445
17.4794745827
19.3128596925
18.8283293421
18.1995715258
21.3900265555
20.22155791
23.1829729267
22.5436289908
20.7489966411
19.2531716796
21.0920540182
20.5991174607
19.7122890114
20.586046642
20.453213506
18.7146909192
20.1024472548
18.1161450187
18.3642695772
17.4328523734
17.860787085
19.7035420299
20.2888625888
19.7823704938
18.0975653603
17.392571744
19.0294407539
20.0244640826
20.4991267487
20.4121533221
19.1052305751
20.5005222075
20.4869853267
21.7035604097
24.1656787395
28.4464356779
34.7689859331
38.7919099708
39.9522791328
37.4912759877
29.6289843208
27.0984525427
27.3771665783
23.2395943977
0.121892518906
0
0
0
0
0
0
0
0
0
0
0
0
0
0
0
0
0
0
0
0
0
0
0
0
0
0
0
0
0
0
0
0
18.2695524345
18.3451254979
19.8092950578
17.8262400692
19.4661459277
19.0801347387
18.6518443936
21.4239852255
20.7438706622
23.6205667945
23.485102035
21.5470532985
20.460726877
21.887580492
21.3466225646
20.7203421811
21.2586017532
21.5134829865
19.9732341638
21.3895564789
19.8963340855
20.6049621914
20.2311114934
18.5251278924
20.1519672048
21.2656314042
21.3631604346
17.9772025383
16.4982391004
18.9119600669
20.1293656306
19.6646436365
19.6902043251
19.3201178162
20.3780072917
20.8340799602
22.4296833426
26.0547398294
32.7295990397
39.2410052151
42.0286889498
40.6160074094
30.6843084686
27.7879411997
28.6454550811
26.3582317718
0.84939499108
0.00344431557318
0
0
0
0
0
0
0
0
0
0
0
0
0
0
0
0
0
0
0
0
0
0
0
0
0
0
0
0
0
0
0
0
19.1303992163
20.5454797781
20.0946306139
18.8338869149
19.9311529678
19.38907188
19.0921962581
21.4417238668
21.2450035666
23.6722730889
24.4375592387
22.2887401503
21.5363864271
22.4888038848
22.0819519217
21.4426352234
21.2353368978
22.4979935066
21.3619947799
22.500240117
22.0197149505
21.7961146887
21.5025010102
21.0317041292
19.976704871
20.9092896752
22.2884028734
16.9478324403
15.9546815528
17.9606853448
20.0975435914
20.4276528005
20.9344693199
19.2662905776
20.0558103558
21.053988706
22.7772039665
27.7960187544
36.7324774688
43.3133505799
44.7152500206
36.4405673941
29.6903987638
30.9816308377
30.182592334
5.75727629969
0.0146939538948
0
0
0
0
0
0
0
0
0
0
0
0
0
0
0
0
0
0
0
0
0
0
0
0
0
0
0
0
0
0
0
0
0
19.7621517088
21.2073536762
20.7332128532
19.7320775485
20.5955030043
19.918299013
19.6096331135
21.5595670355
21.7548867295
23.4301450478
25.3057629756
23.0569718404
22.134014298
22.9801387519
22.9489647978
22.1008150365
21.2108531063
23.1816728754
22.8852664578
23.4582288074
23.2875936392
23.3388707642
21.4986488186
21.4815589819
20.9053660594
22.7288118802
23.6029205576
19.7186339641
15.4956699675
16.7665816979
19.446016592
20.7513834071
20.8023368936
19.8803184978
19.5278219238
21.1218937096
22.6945176848
29.163930474
40.3582811919
47.3544799665
44.1519494047
30.6033569474
31.5400306918
33.4902686802
28.7448418052
0.169755662293
0.000570475431039
0
0
0
0
0
0
0
0
0
0
0
0
0
0
0
0
0
0
0
0
0
0
0
0
0
0
0
0
0
0
0
0
0
20.2453146989
21.5415497855
21.313747351
20.339444443
21.2700210659
20.6293551534
20.2193823122
21.8680940051
22.3405517269
22.7756603186
25.8860966503
23.9339985533
22.5597572327
22.7601029612