/*--------------------------------*- C++ -*----------------------------------*\
| =========                 |                                                 |
| \\      /  F ield         | OpenFOAM: The Open Source CFD Toolbox           |
|  \\    /   O peration     | Version:  v1806                                 |
|   \\  /    A nd           | Web:      www.OpenFOAM.com                      |
|    \\/     M anipulation  |                                                 |
\*---------------------------------------------------------------------------*/
FoamFile
{
    version     2.0;
    format      ascii;
    class       surfaceScalarField;
    location    "105";
    object      phi;
}
// * * * * * * * * * * * * * * * * * * * * * * * * * * * * * * * * * * * * * //

dimensions      [0 3 -1 0 0 0 0];
oriented        oriented;


internalField   nonuniform List<scalar> 
12640
(
-1.61799016636e-07
1.60713709447e-07
-3.16428491073e-07
1.536025347e-07
-4.58653562098e-07
1.41397509485e-07
-5.80907362912e-07
1.21499219606e-07
-6.6460994465e-07
8.30257075764e-08
-7.03906965482e-07
3.86925906069e-08
-7.20747096882e-07
1.62948262829e-08
-7.69944946887e-07
4.8698604311e-08
-8.55328640352e-07
8.48808624271e-08
-9.32898491322e-07
7.71003383021e-08
-1.00406865369e-06
7.07522833594e-08
-1.08915959072e-06
8.46910838766e-08
-1.16472118695e-06
7.51748110403e-08
-1.21973957482e-06
5.46561128525e-08
-1.26420088382e-06
4.41361991577e-08
-1.32158477324e-06
5.70993086975e-08
-1.38226838117e-06
6.04107163343e-08
-1.42512033593e-06
4.2591765337e-08
-1.44442587043e-06
1.90316533984e-08
-1.44900206764e-06
4.27754257286e-09
-1.47143614956e-06
2.21128205332e-08
-1.52182141737e-06
5.00549821961e-08
-1.58447267441e-06
6.23166828044e-08
-1.65085549011e-06
6.60614045027e-08
-1.71196011491e-06
6.07996685383e-08
-1.76449715442e-06
5.22412220934e-08
-1.81578839034e-06
5.09974721327e-08
-1.86153257664e-06
4.5455167196e-08
-1.89687508699e-06
3.50542740031e-08
-1.92365045676e-06
2.64960911216e-08
-1.95191834744e-06
2.79859119841e-08
-1.97795128445e-06
2.57573928832e-08
-1.99196760697e-06
1.37439979564e-08
-2.00653424688e-06
1.4283584921e-08
-2.01779398499e-06
1.09536719775e-08
-2.02382409693e-06
5.71302259468e-09
-2.03613962704e-06
1.19776211019e-08
-2.04681094643e-06
1.03107053686e-08
-2.05108413126e-06
3.88396727943e-09
-2.06750341616e-06
1.59940835096e-08
-2.1384323323e-06
7.04888281881e-08
-2.22221122597e-06
8.33749932745e-08
-2.25286619708e-06
3.02687396675e-08
-2.25466879248e-06
1.409710054e-09
-2.24458985907e-06
-1.04787920148e-08
-2.2212579508e-06
-2.37449023031e-08
-2.18617577746e-06
-3.55098636095e-08
-2.1373819004e-06
-4.92349585018e-08
-2.08107938247e-06
-5.67533962871e-08
-2.04460330723e-06
-3.69370251829e-08
-2.05344036471e-06
8.3459426747e-09
-2.06104488693e-06
7.10304061748e-09
-1.97128829004e-06
-9.02892386197e-08
-1.82929950815e-06
-1.42608992607e-07
-1.66252370538e-06
-1.67389376001e-07
-1.44098260162e-06
-2.22135605889e-07
-1.24164196857e-06
-2.00008044325e-07
-1.09210151081e-06
-1.5033100593e-07
-9.24847502418e-07
-1.68159309414e-07
-7.34054601676e-07
-1.91812692852e-07
-5.38740130674e-07
-1.96442480508e-07
-3.19536984708e-07
-2.2043571589e-07
-1.14163197361e-08
-3.09461536491e-07
2.21631810076e-07
-2.33989776484e-07
3.75941926944e-07
-1.54910849514e-07
4.88179301559e-07
-1.12674274069e-07
5.80685252787e-07
-9.29053010994e-08
6.68641744949e-07
-8.8390941301e-08
7.52729643831e-07
-8.45965323106e-08
8.25912556918e-07
-7.3766576258e-08
8.77702195277e-07
-5.24192307845e-08
8.97370592526e-07
-2.03002269495e-08
8.77508440619e-07
1.92325967338e-08
8.06405231323e-07
7.04561970293e-08
7.12826847473e-07
9.29389294812e-08
6.03414319188e-07
1.08771499335e-07
5.10931519879e-07
9.18684962747e-08
3.76185272443e-07
1.34090345621e-07
2.34089363364e-07
1.40874362649e-07
2.33393071839e-07
-7.8469402484e-08
2.38471493139e-07
-1.82168272302e-07
2.565618565e-07
-2.83857349205e-07
2.42440700093e-07
-3.9553297106e-07
2.32630488022e-07
-5.56106753014e-07
2.43042080408e-07
-6.92230792807e-07
1.74225263819e-07
-7.70259002423e-07
9.3747089614e-08
-8.34395453344e-07
1.12249565669e-07
-9.00941439739e-07
1.50881785651e-07
-9.79405210563e-07
1.55056055153e-07
-1.05630127041e-06
1.47195214411e-07
-1.114357853e-06
1.42328966804e-07
-1.16669750284e-06
1.2714532545e-07
-1.2201637075e-06
1.07782372581e-07
-1.27249357821e-06
9.61635427758e-08
-1.33362161103e-06
1.17927567478e-07
-1.37903779819e-06
1.05571645859e-07
-1.37126572138e-06
3.45506447621e-08
-1.35666147127e-06
4.16258865452e-09
-1.37118697417e-06
1.85041888534e-08
-1.41700077569e-06
6.75946661864e-08
-1.50363062179e-06
1.36323372629e-07
-1.59364634158e-06
1.51993991862e-07
-1.65136389883e-06
1.23444442241e-07
-1.70453440712e-06
1.13662999396e-07
-1.77098629616e-06
1.18382035941e-07
-1.82452041739e-06
1.04237036455e-07
-1.86324819026e-06
8.38810345018e-08
-1.8954879283e-06
6.70090681533e-08
-1.92221547888e-06
5.29301841548e-08
-1.93953417328e-06
4.50308644028e-08
-1.95098375747e-06
3.69377263066e-08
-1.95108694667e-06
1.35742643727e-08
-1.9540908509e-06
1.69966750853e-08
-1.97759489271e-06
3.41722327097e-08
-1.98193389121e-06
9.71216219101e-09
-1.98539049252e-06
1.50766748231e-08
-2.01819527438e-06
4.27492450967e-08
-2.06343433177e-06
4.87285172769e-08
-2.08615415873e-06
3.82698261556e-08
-1.98559549851e-06
-3.04919700911e-08
-1.83973454892e-06
-6.28526043705e-08
-1.79357491309e-06
-1.62376087664e-08
-1.80125546859e-06
8.72788442849e-09
-1.82633324396e-06
1.42284224342e-08
-1.86469772559e-06
1.42252856889e-08
-1.90238049325e-06
1.76331928624e-09
-1.93759491913e-06
-1.44546369052e-08
-1.95946591216e-06
-3.53370440176e-08
-1.92584795349e-06
-7.10274757858e-08
-1.81197353063e-06
-1.05990289244e-07
-1.69881837823e-06
-1.06510429447e-07
-1.74842592414e-06
-4.11982970601e-08
-1.78992013627e-06
-1.01731911306e-07
-1.71672369957e-06
-2.41203414542e-07
-1.6598526329e-06
-2.79704017779e-07
-1.57485811183e-06
-2.85846908271e-07
-1.41442802748e-06
-3.11736871934e-07
-1.22522000148e-06
-3.58484200595e-07
-9.92629745199e-07
-4.25668832393e-07
-6.7379884609e-07
-5.16573898014e-07
-3.57646047027e-07
-5.37853918733e-07
-3.83978428973e-08
-6.30060715282e-07
1.98981980025e-07
-4.72312038037e-07
3.51796304503e-07
-3.08316090475e-07
4.56572922911e-07
-2.17877929219e-07
5.57245126175e-07
-1.93970982632e-07
6.61943993614e-07
-1.93529559148e-07
7.57175146908e-07
-1.80336185433e-07
8.33676932849e-07
-1.50851393687e-07
8.77905662955e-07
-9.72725221786e-08
8.83882393684e-07
-2.68950631392e-08
8.7205113773e-07
3.04276271131e-08
8.54588175479e-07
8.72211892356e-08
8.03185963078e-07
1.43613792153e-07
7.27156769405e-07
1.84074771121e-07
6.09775091619e-07
2.08429197914e-07
4.71940032657e-07
2.71031120781e-07
2.57348047735e-07
3.54523574061e-07
4.89666982596e-07
-1.08459908357e-07
3.46430984796e-07
-1.52280142217e-07
2.99730469671e-07
-2.94288449463e-07
3.83797459583e-07
-4.73301864575e-07
4.11019204955e-07
-6.30765309361e-07
3.99934198239e-07
-6.99071145488e-07
2.42055878494e-07
-7.28001176189e-07
1.22152349919e-07
-7.98207301281e-07
1.81859612793e-07
-8.83732079356e-07
2.358226192e-07
-9.69609084834e-07
2.40407368376e-07
-1.04890827967e-06
2.26036633395e-07
-1.11220962307e-06
2.05245707484e-07
-1.16517786927e-06
1.79778991067e-07
-1.21823595572e-06
1.60533455064e-07
-1.24342747381e-06
1.21067807609e-07
-1.16511441987e-06
3.93559479541e-08
-1.04473505786e-06
-1.50363114193e-08
-1.01196628666e-06
1.56060967199e-09
-1.06463667869e-06
5.65795767962e-08
-1.21946173278e-06
1.73020857959e-07
-1.40550941603e-06
2.53287618608e-07
-1.50889730055e-06
2.39357492222e-07
-1.56862884477e-06
2.11386881717e-07
-1.64996389439e-06
2.04456238175e-07
-1.7257820851e-06
1.89165508034e-07
-1.77628392154e-06
1.68582895299e-07
-1.8161855074e-06
1.43841209793e-07
-1.85217711504e-06
1.19584486941e-07
-1.87994054125e-06
9.44848587792e-08
-1.90438758632e-06
7.7102325922e-08
-1.91323872608e-06
5.36175149761e-08
-1.9140356511e-06
3.74689792399e-08
-1.9242591951e-06
2.35413072696e-08
-1.88961622141e-06
-1.79225981535e-08
-1.86807875615e-06
1.2321621177e-08
-1.91628822827e-06
5.75871985793e-08
-1.92539020805e-06
2.38130930885e-08
-1.93406032222e-06
5.10423311277e-08
-2.02003731347e-06
1.3430045469e-07
-2.11456923659e-06
1.32376521095e-07
-2.19537493141e-06
4.98809420492e-08
-2.24921981637e-06
-9.43214564007e-09
-2.26005811974e-06
-5.82476598612e-09
-2.25659123184e-06
4.83371781149e-09
-2.24796766969e-06
5.16686392808e-09
-2.23189705422e-06
-2.29166913187e-09
-2.21242508665e-06
-1.81685469114e-08
-2.18845851957e-06
-3.88913004945e-08
-2.15964065168e-06
-6.46373483315e-08
-2.13381499883e-06
-9.73460192638e-08
-2.11157467301e-06
-1.28744412008e-07
-2.06921977257e-06
-1.4940724868e-07
-1.94065047209e-06
-1.70339028803e-07
-1.8028622798e-06
-2.40105311975e-07
-1.74801027644e-06
-2.96682454663e-07
-1.69223467322e-06
-3.36209250853e-07
-1.57559171635e-06
-4.03339057142e-07
-1.40970259488e-06
-4.78590724043e-07
-1.21059161225e-06
-5.58679518668e-07
-9.84375040131e-07
-6.53075518078e-07
-7.49551045373e-07
-7.52663051386e-07
-4.38678345689e-07
-8.50100423546e-07
-1.28783448034e-07
-9.41276505441e-07
1.21852844387e-07
-7.23775686791e-07
2.979785208e-07
-4.84974328241e-07
4.39982989426e-07
-3.60301573153e-07
5.58623026933e-07
-3.13004084324e-07
6.55215869078e-07
-2.90534861857e-07
7.38192214445e-07
-2.63785428731e-07
8.07064749325e-07
-2.20267705439e-07
8.66361999116e-07
-1.57147797319e-07
9.25475430678e-07
-8.66272630034e-08
9.62058917186e-07
-6.83104203522e-09
9.42111720262e-07
1.06451953479e-07
8.63090317078e-07
2.21879248812e-07
7.51284496543e-07
2.95085509727e-07
6.27128766417e-07
3.31888617387e-07
4.96698997109e-07
4.00730014666e-07
2.26036052048e-07
6.23712190084e-07
7.15490019007e-07
-7.51420294242e-08
4.20926923271e-07
-8.81455040583e-08
3.12319939814e-07
-2.68317537281e-07
5.63341592895e-07
-4.03386107504e-07
5.45497034019e-07
-3.76284803236e-07
3.72418934286e-07
-2.92370494943e-07
1.57938929512e-07
-4.16142964697e-07
2.45592869501e-07
-6.57237666757e-07
4.22376043435e-07
-8.30201389499e-07
4.08197962414e-07
-9.42046530567e-07
3.51740706245e-07
-1.03657082401e-06
3.20137488448e-07
-1.1106900998e-06
2.79016878128e-07
-1.14361364218e-06
2.12407501468e-07
-1.08522098655e-06
1.01891728313e-07
-9.70263954484e-07
5.8809126451e-09
-9.16135747728e-07
-1.50105610954e-08
-9.51957722377e-07
2.05403011682e-08
-1.0729135642e-06
1.22236295289e-07
-1.26540889191e-06
2.48744664794e-07
-1.40432013789e-06
3.11578706524e-07
-1.46168069466e-06
3.10297675422e-07
-1.52741184794e-06
3.04739049589e-07
-1.60517468478e-06
2.88812137754e-07
-1.66655258979e-06
2.65512403166e-07
-1.71728040511e-06
2.39591603395e-07
-1.75956512504e-06
2.10573746168e-07
-1.80059490149e-06
1.8459008136e-07
-1.83342754404e-06
1.52133034908e-07
-1.86319597174e-06
1.23982396179e-07
-1.8764828735e-06
9.0127882595e-08
-1.89093461781e-06
6.78137263683e-08
-1.88153521525e-06
2.78313751556e-08
-1.84062182299e-06
-1.76337857847e-08
-1.87070433675e-06
1.18589790904e-08
-1.88244064772e-06
2.3733552487e-08
-1.88915426543e-06
6.39453383605e-08
-2.00606001132e-06
1.40323387434e-07
-2.12031159613e-06
1.64875239461e-07
-2.15332639447e-06
1.66899461034e-07
-2.16121984681e-06
1.39849176317e-07
-2.19181045766e-06
8.00452335727e-08
-2.23129154437e-06
2.96204095669e-08
-2.24999925713e-06
1.24584936845e-08
-2.25282221652e-06
7.22936531638e-09
-2.24694997988e-06
-1.13682932956e-09
-2.23435178119e-06
-1.53311618337e-08
-2.21737619631e-06
-3.55953030054e-08
-2.19608622429e-06
-6.06454116588e-08
-2.17056400605e-06
-9.0635194822e-08
-2.14232401888e-06
-1.26076765022e-07
-2.10729001193e-06
-1.6428685776e-07
-2.05322546107e-06
-2.04003309389e-07
-1.97217982191e-06
-2.51942042119e-07
-1.89581525768e-06
-3.17062691073e-07
-1.8145851388e-06
-3.78556557724e-07
-1.70654522404e-06
-4.44975758504e-07
-1.57125330547e-06
-5.39457615235e-07
-1.40076550529e-06
-6.5001555741e-07
-1.19510011264e-06
-7.65382657204e-07
-9.65984373869e-07
-8.83301736097e-07
-7.21069989809e-07
-9.98728114599e-07
-4.63390881061e-07
-1.1089688267e-06
-2.45963108766e-07
-1.15971751174e-06
4.08704590121e-08
-1.0114145686e-06
2.66717345131e-07
-7.11400890471e-07
4.14021772888e-07
-5.08024394593e-07
5.36684966238e-07
-4.36036845428e-07
6.51124083652e-07
-4.05364063228e-07
7.57630221857e-07
-3.70731837104e-07
8.61503053102e-07
-3.24640160252e-07
9.6069472899e-07
-2.56921647278e-07
1.02001125927e-06
-1.46573271288e-07
9.94458152168e-07
1.80836436614e-08
9.15200880175e-07
1.85054878654e-07
8.20942478492e-07
3.15459581661e-07
6.8572390363e-07
4.2960900133e-07
5.0924446864e-07
5.07672717729e-07
3.57348654013e-07
5.51972894597e-07
1.88757076649e-07
7.92033902104e-07
9.03586979666e-07
-5.54310173229e-09
4.26258764637e-07
-8.2078878852e-08
3.88497079489e-07
-2.32239961083e-07
7.13009299727e-07
-3.03831927216e-07
6.16696591991e-07
-2.50493909606e-07
3.1881205009e-07
-3.09399865749e-07
2.16597511216e-07
-5.03755619398e-07
4.39510343456e-07
-6.67376614286e-07
5.85452345812e-07
-7.85109866043e-07
5.25397553406e-07
-8.96741011457e-07
4.62920796386e-07
-9.98023033013e-07
4.21053948711e-07
-1.01698826417e-06
2.97696865522e-07
-9.36418995985e-07
1.31620740714e-07
-8.73707581448e-07
3.89663440266e-08
-8.98745349216e-07
3.06669124362e-08
-9.88646498665e-07
7.46085803655e-08
-1.14045497377e-06
1.72024371031e-07
-1.2997441672e-06
2.81165048875e-07
-1.37320806102e-06
3.21854493872e-07
-1.3984724431e-06
3.36499530344e-07
-1.46144199184e-06
3.72920810476e-07
-1.5369758888e-06
3.79928887792e-07
-1.60251697941e-06
3.5402697183e-07
-1.65547689293e-06
3.18169029032e-07
-1.70104533641e-06
2.84867380991e-07
-1.74679403881e-06
2.56048978959e-07
-1.77668511627e-06
2.14203068545e-07
-1.80994014032e-06
1.85126043949e-07
-1.82595998419e-06
1.39750736992e-07
-1.84270120476e-06
1.06623579691e-07
-1.83128751634e-06
5.61668528167e-08
-1.83476499039e-06
3.10619238717e-08
-1.88918204678e-06
3.65064838586e-08
-1.87760301146e-06
-4.45620427438e-11
-1.91652857978e-06
6.2296681755e-08
-2.02084074226e-06
1.67857012506e-07
-2.09122420519e-06
2.10296293734e-07
-2.13638014444e-06
2.09622690918e-07
-2.15848901655e-06
1.88598979778e-07
-2.17267998433e-06
1.53626867461e-07
-2.19802302005e-06
1.04968615873e-07
-2.22821500244e-06
5.93908301774e-08
-2.24713543546e-06
3.09563395559e-08
-2.25314577522e-06
1.28165716617e-08
-2.25006713321e-06
-4.64323868264e-09
-2.24042735043e-06
-2.54056313932e-08
-2.22584909425e-06
-5.06189518955e-08
-2.20664464921e-06
-8.03065538492e-08
-2.18251123959e-06
-1.15238329309e-07
-2.15266277986e-06
-1.56408485556e-07
-2.11363456845e-06
-2.03815193733e-07
-2.06018536625e-06
-2.57973373398e-07
-1.99197564892e-06
-3.20698549431e-07
-1.9178342122e-06
-3.91784647325e-07
-1.83014444463e-06
-4.66882834429e-07
-1.71701847563e-06
-5.58809331657e-07
-1.57481550951e-06
-6.82466218887e-07
-1.39678896011e-06
-8.28948435988e-07
-1.18445959545e-06
-9.7870005151e-07
-9.54164603895e-07
-1.11461865101e-06
-7.21227428896e-07
-1.23269052661e-06
-5.10258717079e-07
-1.32087881624e-06
-3.57011149834e-07
-1.31386019296e-06
-2.30549972585e-08
-1.34617558016e-06
2.2052226546e-07
-9.5554300769e-07
3.92494709911e-07
-6.80430082765e-07
5.35748780648e-07
-5.7966838416e-07
6.65684262958e-07
-5.35659998965e-07
7.90983826343e-07
-4.96421358048e-07
9.24104312138e-07
-4.58235698118e-07
1.03397570994e-06
-3.67327923453e-07
1.04688758807e-06
-1.60049639904e-07
9.92202859002e-07
7.2211635747e-08
9.21407848118e-07
2.5526218958e-07
8.15117681443e-07
4.21080246988e-07
6.57430070694e-07
5.86623858501e-07
5.10414239066e-07
6.54251442469e-07
3.51766092212e-07
7.10284894533e-07
1.61975027547e-07
9.80763256084e-07
1.06554021132e-06
-6.27910737693e-10
4.26581131373e-07
-1.14916270445e-07
5.02502702924e-07
-1.86626143383e-07
7.84324282433e-07
-2.12710631988e-07
6.42442060341e-07
-1.91194526742e-07
2.97100513218e-07
-3.65176209217e-07
3.90258325843e-07
-5.75407027801e-07
6.49253461255e-07
-6.62624165453e-07
6.72159986e-07
-7.499858463e-07
6.1233391955e-07
-8.20616009325e-07
5.33166398783e-07
-8.23848230466e-07
4.23978860552e-07
-7.34382866271e-07
2.08045050382e-07
-7.11411760298e-07
1.08461348789e-07
-7.70611637319e-07
9.79375110931e-08
-8.80917046009e-07
1.40693114185e-07
-1.05765269458e-06
2.50999159781e-07
-1.23526234114e-06
3.49258331955e-07
-1.29868010223e-06
3.44234963891e-07
-1.31445217484e-06
3.37294151778e-07
-1.39069219368e-06
4.12394178501e-07
-1.47237060258e-06
4.54251718416e-07
-1.53193312499e-06
4.3916142243e-07
-1.58644435582e-06
4.08227781106e-07
-1.64288525219e-06
3.74314005916e-07
-1.69150925334e-06
3.332193053e-07
-1.70407747054e-06
2.68352214452e-07
-1.73853341598e-06
2.48409894673e-07
-1.75553078655e-06
2.01880233222e-07
-1.77403240808e-06
1.58009759954e-07
-1.75317829695e-06
8.55434206314e-08
-1.74296821087e-06
4.57295955163e-08
-1.75848370516e-06
4.63215266378e-08
-1.7636923123e-06
4.14281405846e-08
-1.87387024758e-06
1.09788825323e-07
-1.99633401246e-06
1.84356449909e-07
-2.07175080912e-06
2.42861896075e-07
-2.11419135467e-06
2.52332559388e-07
-2.14116971009e-06
2.362022425e-07
-2.16107089478e-06
2.08101533236e-07
-2.18007567747e-06
1.72226806346e-07
-2.20385134389e-06
1.28331900545e-07
-2.22916733222e-06
8.4289585338e-08
-2.2473246463e-06
4.86954364809e-08
-2.25539415925e-06
2.04667112945e-08
-2.25488949128e-06
-5.57048414091e-09
-2.24774177601e-06
-3.29826852451e-08
-2.23523840234e-06
-6.35606672615e-08
-2.21747391326e-06
-9.85208834003e-08
-2.19379814701e-06
-1.39376108485e-07
-2.16308045845e-06
-1.87602197841e-07
-2.12331428049e-06
-2.44073186749e-07
-2.07255539812e-06
-3.09242566821e-07
-2.01082637366e-06
-3.82961934388e-07
-1.93837916104e-06
-4.64804810302e-07
-1.84769699191e-06
-5.58183410896e-07
-1.73039786077e-06
-6.7679934683e-07
-1.58322050395e-06
-8.30418825403e-07
-1.40427348793e-06
-1.00876320992e-06
-1.19538597445e-06
-1.18853749427e-06
-9.73948963678e-07
-1.33702351887e-06
-7.67880195887e-07
-1.43966568197e-06
-5.89326126089e-07
-1.50026000515e-06
-4.12098491844e-07
-1.49182847749e-06
-1.26813582007e-07
-1.63218457121e-06
1.41010673374e-07
-1.22393689714e-06
3.31769612919e-07
-8.71600597136e-07
5.15697105296e-07
-7.63953447885e-07
6.90505599792e-07
-7.10826595625e-07
8.6094795025e-07
-6.67234727491e-07
1.01834818333e-06
-6.16033442047e-07
1.08856801098e-06
-4.38019052009e-07
1.07013903186e-06
-1.42086047401e-07
1.03376574185e-06
1.08070187681e-07
9.68879823426e-07
3.19563160006e-07
8.52253576641e-07
5.3709515785e-07
7.02698318855e-07
7.35636678534e-07
5.38212620446e-07
8.18204506979e-07
3.66407742122e-07
8.8145688692e-07
1.8478446212e-07
1.16234636123e-06
1.24967524376e-06
-4.0236938365e-08
4.6665890377e-07
-1.89658191617e-07
6.51627420588e-07
-2.49063956812e-07
8.434187964e-07
-1.91197824429e-07
5.8429530615e-07
-2.40559824503e-07
3.46216977194e-07
-4.63428894093e-07
6.12715282137e-07
-5.82751160189e-07
7.68087170077e-07
-6.47149881355e-07
7.36163361591e-07
-6.86853867196e-07
6.51645401153e-07
-7.5261678894e-07
5.98648940771e-07
-7.02166849055e-07
3.73302064522e-07
-6.54621664605e-07
1.60327515733e-07
-7.05684761615e-07
1.59309639308e-07
-7.88424790502e-07
1.80408546583e-07
-9.46528330164e-07
2.98460136571e-07
-1.13388345301e-06
4.37980922224e-07
-1.19674442505e-06
4.11775967585e-07
-1.20476210446e-06
3.51935112216e-07
-1.29571822744e-06
4.27909659982e-07
-1.39556583887e-06
5.1188825704e-07
-1.46408365119e-06
5.22434835318e-07
-1.5223124474e-06
4.97071750293e-07
-1.57695032936e-06
4.62560406894e-07
-1.61247414979e-06
4.09566273154e-07
-1.62877622569e-06
3.49262848375e-07
-1.65240160224e-06
2.91735246121e-07
-1.65661744568e-06
2.52381953413e-07
-1.68111057292e-06
2.26141921102e-07
-1.67781116724e-06
1.54491622049e-07
-1.65792406322e-06
6.54438786474e-08
-1.68247934154e-06
7.00349002814e-08
-1.725538413e-06
8.91190213774e-08
-1.80089977075e-06
1.16475979039e-07
-1.90742703892e-06
2.15941591872e-07
-2.03100614298e-06
3.07528550427e-07
-2.08923758933e-06
3.00690440377e-07
-2.11894471578e-06
2.81646138542e-07
-2.14226279108e-06
2.59130412392e-07
-2.16468182887e-06
2.30127485525e-07
-2.186798083e-06
1.93943635229e-07
-2.2102138862e-06
1.51342094998e-07
-2.23317386526e-06
1.06840010241e-07
-2.25063646697e-06
6.57463777837e-08
-2.25994472212e-06
2.93614163941e-08
-2.26145313117e-06
-4.47955928699e-09
-2.2563750715e-06
-3.84844118151e-08
-2.24544112541e-06
-7.49276378351e-08
-2.22849102679e-06
-1.15914117649e-07
-2.20490854447e-06
-1.63413899965e-07
-2.17397499276e-06
-2.19003131376e-07
-2.13484127239e-06
-2.83687449475e-07
-2.08672341311e-06
-3.57857453672e-07
-2.02868421121e-06
-4.41523629784e-07
-1.95772931527e-06
-5.36311355041e-07
-1.86704152768e-06
-6.49473556258e-07
-1.75048596797e-06
-7.94016722209e-07
-1.60540321983e-06
-9.76251173096e-07
-1.43038073997e-06
-1.18465597741e-06
-1.2307302774e-06
-1.38911714694e-06
-1.03256890703e-06
-1.53609942607e-06
-8.84577495137e-07
-1.58850918182e-06
-7.69329676888e-07
-1.61625582611e-06
-5.58135655685e-07
-1.70372833975e-06
-3.627037793e-07
-1.8283145357e-06
2.9725368164e-08
-1.61687109336e-06
2.8274768462e-07
-1.12500423135e-06
5.24553939504e-07
-1.00613619127e-06
7.62674101099e-07
-9.49295187857e-07
9.70410825692e-07
-8.75291218623e-07
1.10330829879e-06
-7.49284335622e-07
1.13882177641e-06
-4.73886092133e-07
1.14475193936e-06
-1.4844778747e-07
1.13062468666e-06
1.21702011702e-07
1.06287527396e-06
3.86740024968e-07
9.3606543435e-07
6.63303222827e-07
7.9638949851e-07
8.74732732031e-07
6.02209217024e-07
1.01195020305e-06
3.94667749664e-07
1.08871658585e-06
2.1678421698e-07
1.33902091029e-06
1.46647518492e-06
-7.95287321174e-08
5.45874516582e-07
-2.23802784105e-07
7.9560893033e-07
-2.34659388295e-07
8.53956968252e-07
-1.34144445582e-07
4.83590306461e-07
-2.84600551806e-07
4.96393599181e-07
-4.85332593387e-07
8.13002449539e-07
-5.55940783368e-07
8.38307312346e-07
-6.26931417567e-07
8.06773227292e-07
-6.03841192433e-07
6.28308507273e-07
-6.0780372457e-07
6.02330414568e-07
-5.52064521924e-07
3.17407157119e-07
-6.32081416467e-07
2.40143531539e-07
-7.03176237728e-07
2.30162084578e-07
-8.29156153824e-07
3.06096515915e-07
-1.00811807565e-06
4.77047761904e-07
-1.09128788544e-06
5.2078542128e-07
-1.09705243315e-06
4.17241361266e-07
-1.18706766491e-06
4.41633493797e-07
-1.30375173412e-06
5.44239726185e-07
-1.38018024678e-06
5.87968324028e-07
-1.43763027121e-06
5.7955611874e-07
-1.4927511878e-06
5.5188004795e-07
-1.5554074681e-06
5.2494119693e-07
-1.61071678795e-06
4.64614342759e-07
-1.61231709543e-06
3.50622489971e-07
-1.64145467254e-06
3.20642826657e-07
-1.64848672568e-06
2.59186342426e-07
-1.6137413204e-06
1.91174033142e-07
-1.61013901196e-06
1.5067977986e-07
-1.70355886111e-06
1.5863053196e-07
-1.74993230979e-06
1.161528312e-07
-1.73920414742e-06
7.80956067433e-08
-1.84876067851e-06
2.25692160937e-07
-1.99001267707e-06
3.56799766877e-07
-2.04917033872e-06
3.66289644789e-07
-2.08825915115e-06
3.39389700803e-07
-2.11773864628e-06
3.10740885158e-07
-2.14355035059e-06
2.84558285308e-07
-2.16886822055e-06
2.55057812164e-07
-2.19358838756e-06
2.18270067874e-07
-2.21742529106e-06
1.74779387111e-07
-2.23931562762e-06
1.28326768458e-07
-2.25656986566e-06
8.25946979642e-08
-2.26694749005e-06
3.93307242307e-08
-2.27007178715e-06
-1.76730905261e-09
-2.26652135472e-06
-4.24530870722e-08
-2.25653034184e-06
-8.53446934345e-08
-2.23976810263e-06
-1.33113175627e-07
-2.21589578655e-06
-1.87733193181e-07
-2.18485006031e-06
-2.50507514191e-07
-2.14659940425e-06
-3.22408750765e-07
-2.10073962833e-06
-4.04204621437e-07
-2.04562965193e-06
-4.97140230273e-07
-1.97739620515e-06
-6.05086879274e-07
-1.89062183098e-06
-7.36815258322e-07
-1.78156189655e-06
-9.03712491513e-07
-1.64820926016e-06
-1.11036072558e-06
-1.48606438898e-06
-1.34766503772e-06
-1.29323059178e-06
-1.58290442869e-06
-1.11849094505e-06
-1.71176906467e-06
-1.02165801961e-06
-1.68615488769e-06
-9.26276987609e-07
-1.7123067751e-06
-7.90781536008e-07
-1.83980794269e-06
-6.41374954313e-07
-1.97826931897e-06
-2.3293378385e-07
-2.02584896138e-06
2.19005109674e-07
-1.57736651112e-06
5.37919001781e-07
-1.32541602976e-06
8.21217378623e-07
-1.23296664779e-06
1.04315304641e-06
-1.09754742865e-06
1.16785820372e-06
-8.74284600878e-07
1.23108873317e-06
-5.37469200115e-07
1.28001935175e-06
-1.97778169769e-07
1.27819682522e-06
1.23007949932e-07
1.20521411012e-06
4.59156131416e-07
1.07889952936e-06
7.89043505686e-07
9.1871449409e-07
1.03439478442e-06
7.02819687132e-07
1.22726067623e-06
4.38399742845e-07
1.35233944747e-06
2.2854770114e-07
1.54890737872e-06
1.69425733108e-06
-1.10961419392e-07
6.56625506704e-07
-2.2567588959e-07
9.10014521104e-07
-1.83357211665e-07
8.11415274138e-07
-1.81362096721e-07
4.81395584411e-07
-3.72224922105e-07
6.86944037059e-07
-4.5516944243e-07
8.9556896974e-07
-5.19265233329e-07
9.02071542766e-07
-5.79032962006e-07
8.66268685333e-07
-5.77497372493e-07
6.26519229847e-07
-5.83045611408e-07
6.07650495612e-07
-5.79397389005e-07
3.13572962668e-07
-6.4422659478e-07
3.04765683515e-07
-7.3003363048e-07
3.15700813136e-07
-8.85547534585e-07
4.61262844542e-07
-1.04599359665e-06
6.37138068926e-07
-1.07053413232e-06
5.45008808241e-07
-1.09754856188e-06
4.43956669062e-07
-1.19425267387e-06
5.38000396137e-07
-1.29119337851e-06
6.40826490686e-07
-1.35986897051e-06
6.5629795639e-07
-1.41262845128e-06
6.31981326709e-07
-1.44867608581e-06
5.87647033182e-07
-1.4768090618e-06
5.52813568883e-07
-1.50499488434e-06
4.9257641755e-07
-1.52838474425e-06
3.73807175795e-07
-1.54278379411e-06
3.34816783066e-07
-1.58846960921e-06
3.04666401884e-07
-1.64190009156e-06
2.44384807576e-07
-1.68453130429e-06
1.93103627032e-07
-1.70424801999e-06
1.78112830034e-07
-1.75206920875e-06
1.637014651e-07
-1.88354587572e-06
2.09237005692e-07
-1.96385008942e-06
3.05613282773e-07
-2.01409439209e-06
4.06651815263e-07
-2.05228528964e-06
4.04098164981e-07
-2.08630227779e-06
3.73028894958e-07
-2.11749975305e-06
3.41560682032e-07
-2.14575715268e-06
3.12435382265e-07
-2.17294496603e-06
2.81860522738e-07
-2.19969703826e-06
2.44631904158e-07
-2.22501163679e-06
1.99699729333e-07
-2.24732006996e-06
1.50238486631e-07
-2.26498129009e-06
9.98572908345e-08
-2.27654066309e-06
5.04889765503e-08
-2.28113023622e-06
2.41711688149e-09
-2.27852379272e-06
-4.54708274464e-08
-2.26868342209e-06
-9.56059408339e-08
-2.25141009323e-06
-1.50816337551e-07
-2.22670837089e-06
-2.12876253976e-07
-2.19513870219e-06
-2.82527217426e-07
-2.15743302381e-06
-3.60575245302e-07
-2.11357750268e-06
-4.48532706208e-07
-2.06185094509e-06
-5.49361169068e-07
-1.99870191692e-06
-6.68730409802e-07
-1.92051952039e-06
-8.15540778578e-07
-1.82554271476e-06
-9.99324199243e-07
-1.71174175874e-06
-1.2249320108e-06
-1.56988648969e-06
-1.49045720068e-06
-1.38900722122e-06
-1.76475090566e-06
-1.26548928545e-06
-1.83624587935e-06
-1.23858903536e-06
-1.7137946203e-06
-1.16140751361e-06
-1.79003337723e-06
-1.02365511726e-06
-1.97805762518e-06
-8.39928965141e-07
-2.16243694012e-06
-5.8219551165e-07
-2.28406205452e-06
-5.81209787816e-09
-2.15421765003e-06
5.74366545532e-07
-1.90609742353e-06
9.02214081778e-07
-1.56117612316e-06
1.13122745519e-06
-1.32693145313e-06
1.27212707676e-06
-1.01552700789e-06
1.38917222771e-06
-6.54846386009e-07
1.47790146802e-06
-2.86960662049e-07
1.47807036053e-06
1.22341829454e-07
1.39155643714e-06
5.45103729186e-07
1.25382506603e-06
9.26210292804e-07
1.05526645274e-06
1.23236201061e-06
8.06024910492e-07
1.47600332714e-06
4.98254791629e-07
1.65981745611e-06
2.30608134939e-07
1.815167553e-06
1.92490593583e-06
-1.38556073968e-07
7.94808905153e-07
-2.39229255808e-07
1.01034059142e-06
-1.68878911924e-07
7.40822706917e-07
-2.30080763304e-07
5.42387491499e-07
-4.0290585828e-07
8.59454871074e-07
-4.12657523613e-07
9.05046455459e-07
-4.72808100285e-07
9.6189732524e-07
-4.73776942804e-07
8.67013832101e-07
-5.1937599931e-07
6.71913523547e-07
-4.93986135731e-07
5.82056088029e-07
-5.61043566876e-07
3.80449277948e-07
-6.45210392464e-07
3.88688570689e-07
-7.44620267714e-07
4.14846974222e-07
-8.93264387365e-07
6.09574014819e-07
-9.72176783202e-07
7.15697344441e-07
-9.68769880316e-07
5.41331947778e-07
-1.05963620312e-06
5.34525296257e-07
-1.17172573741e-06
6.49748378597e-07
-1.25933691559e-06
7.28085087444e-07
-1.33377510234e-06
7.3039513344e-07
-1.39519428069e-06
6.93110384473e-07
-1.44771465426e-06
6.39882611361e-07
-1.46142517825e-06
5.66276611165e-07
-1.46349321918e-06
4.94433283353e-07
-1.52454655594e-06
4.34656173538e-07
-1.53318219742e-06
3.43247460416e-07
-1.49956714683e-06
2.70855880098e-07
-1.50291074557e-06
2.47538553853e-07
-1.56654684324e-06
2.56519885584e-07
-1.67212591146e-06
2.83451622485e-07
-1.76077800597e-06
2.52067164734e-07
-1.84399665377e-06
2.92115612213e-07
-1.96619472518e-06
4.27412603969e-07
-2.01824328735e-06
4.58318712615e-07
-2.05199948799e-06
4.37484624608e-07
-2.0861933017e-06
4.06852892906e-07
-2.11939508527e-06
3.7438821475e-07
-2.14964214518e-06
3.42303921692e-07
-2.17788951035e-06
3.09725364482e-07
-2.20580566147e-06
2.72161939958e-07
-2.23275598913e-06
2.26261446738e-07
-2.25662395989e-06
1.7371595605e-07
-2.27564260523e-06
1.18483792288e-07
-2.28865116172e-06
6.3102883496e-08
-2.29472188478e-06
8.08796939266e-09
-2.29296680798e-06
-4.76329558168e-08
-2.28271081948e-06
-1.06276433472e-07
-2.26392000285e-06
-1.70032288099e-07
-2.23732649724e-06
-2.3990174332e-07
-2.20428457168e-06
-3.16011191703e-07
-2.16636954385e-06
-3.98940554173e-07
-2.12436840964e-06
-4.90998049111e-07
-2.07703999412e-06
-5.9715723371e-07
-2.02152505912e-06
-7.24722485313e-07
-1.95572703003e-06
-8.81847659881e-07
-1.8798045092e-06
-1.07585982362e-06
-1.79399411038e-06
-1.31159794777e-06
-1.68778862877e-06
-1.59763039563e-06
-1.55213631993e-06
-1.90157708184e-06
-1.57283013237e-06
-1.81652632687e-06
-1.5844652552e-06
-1.70280510702e-06
-1.46451363405e-06
-1.91046451041e-06
-1.26707933807e-06
-2.17581404846e-06
-1.02308774138e-06
-2.40683562796e-06
-7.57909372654e-07
-2.54970947488e-06
-2.82556956882e-07
-2.6301529574e-06
3.99086089863e-07
-2.58829013536e-06
9.53938589793e-07
-2.11658674251e-06
1.20923923681e-06
-1.58266335021e-06
1.41206054266e-06
-1.21868088852e-06
1.60736264948e-06
-8.50675883854e-07
1.73770464778e-06
-4.17728279658e-07