/*--------------------------------*- C++ -*----------------------------------*\
| =========                 |                                                 |
| \\      /  F ield         | OpenFOAM: The Open Source CFD Toolbox           |
|  \\    /   O peration     | Version:  v1806                                 |
|   \\  /    A nd           | Web:      www.OpenFOAM.com                      |
|    \\/     M anipulation  |                                                 |
\*---------------------------------------------------------------------------*/
FoamFile
{
    version     2.0;
    format      ascii;
    class       surfaceScalarField;
    location    "105";
    object      phia;
}
// * * * * * * * * * * * * * * * * * * * * * * * * * * * * * * * * * * * * * //

dimensions      [0 3 -1 0 0 0 0];
oriented        oriented;


internalField   nonuniform List<scalar> 
12640
(
1.92759281305e-07
-1.81931916796e-07
3.74681429016e-07
-1.76370164973e-07
5.43553650796e-07
-1.65345620418e-07
6.88662727415e-07
-1.43477180359e-07
7.910976761e-07
-9.9953233605e-08
8.41544085191e-07
-4.55284110022e-08
8.61879133988e-07
-1.5565383489e-08
9.20320450911e-07
-5.41204096528e-08
1.02424942431e-06
-1.00529920183e-07
1.12011321181e-06
-9.32432814602e-08
1.20759562362e-06
-8.6295068015e-08
1.31304997341e-06
-1.04676113999e-07
1.4085981387e-06
-9.53000905747e-08
1.4804625958e-06
-7.15861496246e-08
1.53973387974e-06
-5.86135767727e-08
1.6166221397e-06
-7.47604795357e-08
1.69849070636e-06
-7.96382171222e-08
1.75882439608e-06
-5.76614345109e-08
1.78986168885e-06
-2.98744359729e-08
1.80249849844e-06
-1.26831523729e-08
1.83803320061e-06
-3.64333108084e-08
1.91034466918e-06
-7.31517396313e-08
1.99899977951e-06
-8.9820662138e-08
2.09325611712e-06
-9.50810960193e-08
2.18197529197e-06
-8.94870619133e-08
2.26121356067e-06
-7.95332753395e-08
2.34017599226e-06
-7.92405947206e-08
2.41375964463e-06
-7.33299642891e-08
2.47528979147e-06
-6.14063815262e-08
2.52689537789e-06
-5.10163449122e-08
2.58149058772e-06
-5.43265834843e-08
2.63498576278e-06
-5.28085764881e-08
2.67416581303e-06
-3.79178930497e-08
2.716239019e-06
-4.06856457428e-08
2.75489140705e-06
-3.80787162661e-08
2.78817548823e-06
-3.18617240483e-08
2.8314971449e-06
-4.24924217584e-08
2.87116845352e-06
-4.0037927125e-08
2.90219358523e-06
-3.21687128845e-08
2.95109417382e-06
-5.00037335831e-08
3.07908849095e-06
-1.29169426115e-07
3.22611874331e-06
-1.47654676392e-07
3.29660226636e-06
-7.06136365465e-08
3.32296877721e-06
-2.67313318159e-08
3.32970423029e-06
-7.03664605191e-09
3.31422494293e-06
1.521690918e-08
3.27827138075e-06
3.55655519663e-08
3.21795504493e-06
5.97701794506e-08
3.14184375354e-06
7.5466690066e-08
3.09030437344e-06
5.13651739528e-08
3.10263038023e-06
-1.3466548433e-08
3.11496871994e-06
-1.23198446844e-08
2.98028271034e-06
1.35862249568e-07
2.76172902656e-06
2.19720671087e-07
2.50509219203e-06
2.5806120478e-07
2.1671491991e-06
3.39418705301e-07
1.86508684665e-06
3.01737245742e-07
1.64967479133e-06
2.14209855458e-07
1.42776663647e-06
2.20461159585e-07
1.19433847377e-06
2.31031523777e-07
9.95295540165e-07
1.95348270961e-07
7.96553177027e-07
1.9757277929e-07
5.16194003471e-07
2.81487455346e-07
3.11667166591e-07
2.07054259881e-07
1.81644719068e-07
1.31246378984e-07
9.33800885673e-08
8.94251686916e-08
2.15249935149e-08
7.25540897025e-08
-4.53685689352e-08
6.77453430968e-08
-1.09799908118e-07
6.55672834128e-08
-1.69884608761e-07
6.19219488845e-08
-2.20086477205e-07
5.2260966629e-08
-2.5459368286e-07
3.64822231914e-08
-2.69120209514e-07
1.69890553827e-08
-2.61539555079e-07
-4.73262757203e-09
-2.40623172486e-07
-1.77340716932e-08
-2.10685078069e-07
-2.75116603022e-08
-1.83267067307e-07
-2.52161251989e-08
-1.37984836569e-07
-4.36120402956e-08
-8.40642068796e-08
-4.47368886595e-08
-8.16292207673e-08
9.59002236992e-08
-2.78421835925e-07
2.18777811859e-07
-2.96637695333e-07
3.39438404852e-07
-2.85471859262e-07
4.72861584299e-07
-2.76110734807e-07
6.64893018345e-07
-2.89020226329e-07
8.27975471236e-07
-2.05212307082e-07
9.22608020449e-07
-1.05257636764e-07
1.00152012684e-06
-1.29402789147e-07
1.08376309305e-06
-1.79622758729e-07
1.1792863117e-06
-1.87317847839e-07
1.2746015811e-06
-1.80319059326e-07
1.34759248749e-06
-1.77509211005e-07
1.41453164352e-06
-1.61202043436e-07
1.48373431212e-06
-1.39398002258e-07
1.55341043576e-06
-1.25305500713e-07
1.63399770182e-06
-1.52910909783e-07
1.69636421272e-06
-1.38796995905e-07
1.69315242478e-06
-5.3596465315e-08
1.68147670599e-06
-1.79250708909e-08
1.70641098265e-06
-3.87227526155e-08
1.77210622994e-06
-1.0333496728e-07
1.88922291059e-06
-1.92298120728e-07
2.01256763515e-06
-2.14005321887e-07
2.09619248544e-06
-1.80106185789e-07
2.175091561e-06
-1.68755613391e-07
2.27153731456e-06
-1.76862892327e-07
2.35370235772e-06
-1.61131850662e-07
2.41770903055e-06
-1.37686753878e-07
2.47501627788e-06
-1.18013029765e-07
2.52617963931e-06
-1.02187038678e-07
2.56672612547e-06
-9.38942842826e-08
2.6005906834e-06
-8.55716203711e-08
2.62100289886e-06
-5.6931497946e-08
2.64635166661e-06
-6.51345436976e-08
2.70169320882e-06
-9.13470692258e-08
2.73247063038e-06
-6.2529924011e-08
2.76283700308e-06
-7.2762695948e-08
2.83223181823e-06
-1.10263619567e-07
2.92136690064e-06
-1.21964018625e-07
2.98315216138e-06
-1.1310242438e-07
2.8682991439e-06
-1.41560000222e-08
2.67883375165e-06
4.16575469077e-08
2.62907224076e-06
-2.06002902592e-08
2.65702505326e-06
-5.53846953917e-08
2.71058923574e-06
-6.09044540641e-08
2.78271852736e-06
-5.79608459166e-08
2.85285693374e-06
-3.50146975822e-08
2.91682968509e-06
-5.294715951e-09
2.95928656591e-06
3.25994405466e-08
2.9161952341e-06
9.37010039033e-08
2.74853331757e-06
1.54608920186e-07
2.57150232503e-06
1.6453373179e-07
2.63682971727e-06
7.06091758544e-08
2.69260309207e-06
1.63704209399e-07
2.57575767756e-06
3.74840999564e-07
2.48249747471e-06
4.31407325333e-07
2.35567170674e-06
4.27561333564e-07
2.12918891946e-06
4.39116353644e-07
1.87751523828e-06
4.70427759222e-07
1.59064099288e-06
5.15117090443e-07
1.20030892948e-06
5.85465404848e-07
8.44142378548e-07
5.53634510469e-07
5.40053089763e-07
5.87811174909e-07
3.24613615138e-07
4.24971431012e-07
1.86342573592e-07
2.72019345891e-07
8.9876292436e-08
1.86819558447e-07
1.49937593655e-08
1.48530274956e-07
-5.33809727546e-08
1.36992499643e-07
-1.18574798497e-07
1.32173463511e-07
-1.78624091606e-07
1.23326229198e-07
-2.25931638781e-07
1.01234379351e-07
-2.55254361302e-07
6.7557350493e-08
-2.72136474e-07
3.60723742105e-08
-2.81698737271e-07
7.44320247451e-09
-2.75889972069e-07
-2.06496874378e-08
-2.58180073605e-07
-4.23663835211e-08
-2.21638605154e-07
-5.84019269945e-08
-1.74094366604e-07
-8.6266621101e-08
-9.74618563962e-08
-1.19085456878e-07
-1.69681270495e-07
1.30602503002e-07
-4.00608077333e-07
1.81679072986e-07
-3.46486312232e-07
3.50665186293e-07
-4.53219381716e-07
5.64131010916e-07
-4.86682133633e-07
7.50971805911e-07
-4.72093564843e-07
8.32082788151e-07
-2.8359521319e-07
8.69213101338e-07
-1.40955401322e-07
9.55813035462e-07
-2.14542863156e-07
1.0599086458e-06
-2.82772485326e-07
1.16448069838e-06
-2.91428384898e-07
1.26220870198e-06
-2.7775900882e-07
1.34184725184e-06
-2.55462195276e-07
1.40994196381e-06
-2.26347598363e-07
1.47837648415e-06
-2.04200715142e-07
1.51472234441e-06
-1.58061562218e-07
1.42558104045e-06
-6.09831400046e-08
1.2827222787e-06
4.53263240009e-09
1.2463195026e-06
-1.74250681626e-08
1.31585907504e-06
-8.85794455082e-08
1.51348342159e-06
-2.37992919731e-07
1.75293957815e-06
-3.44504855673e-07
1.89276855851e-06
-3.33226206519e-07
1.97831931321e-06
-3.00804638355e-07
2.09128399227e-06
-2.9378246027e-07
2.19890730652e-06
-2.77162818184e-07
2.27568620825e-06
-2.53808600762e-07
2.33963481286e-06
-2.25381583473e-07
2.3999699855e-06
-1.97712675913e-07
2.45088380154e-06
-1.68776701379e-07
2.49926730282e-06
-1.49768329286e-07
2.5285318805e-06
-1.21973431286e-07
2.54754482728e-06
-1.03661360929e-07
2.58084260203e-06
-8.8254545694e-08
2.55685602969e-06
-3.93381745885e-08
2.55026752333e-06
-8.47267490379e-08
2.63898632608e-06
-1.51196660687e-07
2.67729646885e-06
-1.11676033988e-07
2.7154397315e-06
-1.49520078876e-07
2.86192083999e-06
-2.69690999545e-07
3.02279959417e-06
-2.74145800296e-07
3.16515138056e-06
-1.56464870593e-07
3.27144833647e-06
-6.45231351797e-08
3.31478311824e-06
-6.44663303811e-08
3.33492959676e-06
-7.59656425224e-08
3.34504268378e-06
-7.18797119351e-08
3.34157072313e-06
-5.51535712471e-08
3.32976512407e-06
-2.41952823028e-08
3.30794971472e-06
1.58520766441e-08
3.2747900779e-06
6.51127764053e-08
3.2417412233e-06
1.26846968355e-07
3.20872247291e-06
1.87616588335e-07
3.14149426808e-06
2.31655761816e-07
2.94118328265e-06
2.70618938425e-07
2.71993921245e-06
3.8454578103e-07
2.6194626374e-06
4.74012423616e-07
2.52197778339e-06
5.27515844143e-07
2.33995000427e-06
6.08069143353e-07
2.0946057407e-06
6.83134949563e-07
1.81919234901e-06
7.44311770914e-07
1.52995380251e-06
8.03605982111e-07
1.25909377952e-06
8.55300525164e-07
9.28152455874e-07
8.85812931735e-07
5.92624421598e-07
9.27409815639e-07
3.28911542999e-07
6.90991047523e-07
1.74515092493e-07
4.27853858392e-07
7.8766792718e-08
2.84034769842e-07
-7.41281717505e-10
2.29083536506e-07
-6.93960505737e-08
2.06653025189e-07
-1.30953657074e-07
1.94583363155e-07
-1.87048290881e-07
1.80293663607e-07
-2.37287394011e-07
1.52400454532e-07
-2.82301447905e-07
1.14062478856e-07
-3.1487235637e-07
7.07599144549e-08
-3.22062434147e-07
1.75364926919e-08
-3.05201161148e-07
-3.40779616769e-08
-2.74406001695e-07
-6.94424517293e-08
-2.36229635534e-07
-9.36792735872e-08
-1.90579736469e-07
-1.29665412124e-07
-8.3043687109e-08
-2.13092685135e-07
-2.53408085441e-07
8.56534120525e-08
-4.887643108e-07
1.04766133824e-07
-3.64238542691e-07
3.17449200705e-07
-6.63622428846e-07
4.78848535651e-07
-6.44131829052e-07
4.44971470643e-07
-4.35780087964e-07
3.46085222612e-07
-1.84368851898e-07
4.93593639927e-07
-2.88964866705e-07
7.8000071436e-07
-5.02239905932e-07
9.8822467733e-07
-4.91598274638e-07
1.12524543207e-06
-4.28467681573e-07
1.24268232258e-06
-3.93489780333e-07
1.33571677448e-06
-3.45018131619e-07
1.37963334439e-06
-2.65899479862e-07
1.31423542159e-06
-1.34459469779e-07
1.17933948692e-06
-2.07112270784e-08
1.11605260836e-06
2.33574448203e-09
1.16319448345e-06
-4.3561085302e-08
1.31631013514e-06
-1.72175809208e-07
1.56003530646e-06
-3.34142644781e-07
1.74145277744e-06
-4.20783802051e-07
1.82297041122e-06
-4.2709109227e-07
1.91372455435e-06
-4.25173136747e-07
2.02090365379e-06
-4.08838687723e-07
2.10897788372e-06
-3.82613007843e-07
2.18448286399e-06
-3.52852508081e-07
2.24968950749e-06
-3.19327844765e-07
2.31472922175e-06
-2.90121231354e-07
2.37025057591e-06
-2.53259722922e-07
2.42395294907e-06
-2.21833110988e-07
2.45720926683e-06
-1.81986846813e-07
2.49351843109e-06
-1.57094059355e-07
2.49947028024e-06
-1.07466149319e-07
2.46402978526e-06
-5.16562606961e-08
2.52552256814e-06
-1.00386460008e-07
2.5660039963e-06
-1.25066274206e-07
2.60109310152e-06
-1.87277484145e-07
2.78726109661e-06
-2.99315919949e-07
2.97694392272e-06
-3.40452326139e-07
3.05514472045e-06
-3.48227353305e-07
3.0942696807e-06
-3.13546101416e-07
3.1649656197e-06
-2.27450459492e-07
3.24972991383e-06
-1.49887731225e-07
3.3043438951e-06
-1.19495675424e-07
3.33429802733e-06
-1.06492104448e-07
3.34977867618e-06
-8.77718336891e-08
3.35287431602e-06
-5.88404375492e-08
3.34670790169e-06
-1.85085248923e-08
3.33040830784e-06
3.15231812995e-08
3.30349619865e-06
9.17009686984e-08
3.26752640975e-06
1.62597162423e-07
3.21589033891e-06
2.3936860743e-07
3.12941368536e-06
3.18282548109e-07
2.99316433106e-06
4.0682061773e-07
2.85802753312e-06
5.18908588535e-07
2.71265741142e-06
6.18339090072e-07
2.52594592818e-06
7.12949568594e-07
2.30075708908e-06
8.32235879267e-07
2.03247839917e-06
9.50642906781e-07
1.7306718047e-06
1.04568657962e-06
1.4205191985e-06
1.11307002768e-06
1.12359820656e-06
1.15291604802e-06
8.3908192823e-07
1.17166101628e-06
6.14554168846e-07
1.15161858046e-06
3.58415039857e-07
9.49152871641e-07
1.75096135028e-07
6.13535478605e-07
6.33938320147e-08
3.97341960274e-07
-1.99226515848e-08
3.13670207115e-07
-9.25670778326e-08
2.80072558931e-07
-1.58673874878e-07
2.60940026172e-07
-2.23645868522e-07
2.45315821847e-07
-2.87215464427e-07
2.16720374363e-07
-3.32459292849e-07
1.60891840537e-07
-3.40199270978e-07
8.0989302315e-08
-3.24492613509e-07
4.82175833171e-09
-3.01767983974e-07
-5.34408616264e-08
-2.61602442146e-07
-1.06064026922e-07
-1.99259461599e-07
-1.51995956285e-07
-1.39864984733e-07
-1.83385043955e-07
-7.54751272496e-08
-2.79325785817e-07
-3.22015849659e-07
6.99023726335e-09
-4.9100139153e-07
9.70910796677e-08
-4.53757169554e-07
2.74067479488e-07
-8.36566133101e-07
3.5855502947e-07
-7.23567384207e-07
2.95599863176e-07
-3.71621450331e-07
3.64251040352e-07
-2.53965682405e-07
5.94932694334e-07
-5.21672232487e-07
7.90699140559e-07
-6.98885052788e-07
9.31839410086e-07
-6.33425668057e-07
1.06706809994e-06
-5.6232990061e-07
1.19210631703e-06
-5.14674522687e-07
1.21817483287e-06
-3.67038714421e-07
1.12510765347e-06
-1.69021138995e-07
1.05214233078e-06
-5.97864083779e-08
1.08460297994e-06
-5.36754036422e-08
1.19794674782e-06
-1.12435865709e-07
1.38932630761e-06
-2.36846883651e-07
1.5924643876e-06
-3.77354792835e-07
1.69196162733e-06
-4.35028118417e-07
1.73143705011e-06
-4.61345719704e-07
1.81754445229e-06
-5.14171687875e-07
1.92055604344e-06
-5.29041053795e-07
2.012286897e-06
-5.01192370848e-07
2.08919371231e-06
-4.59645507556e-07
2.15761193604e-06
-4.21422902623e-07
2.22712765046e-06
-3.8836799065e-07
2.2770249426e-06
-3.40189342693e-07
2.33344245403e-06
-3.09064365477e-07
2.36820599011e-06
-2.55460114594e-07
2.40655823978e-06
-2.18882850521e-07
2.40779319082e-06
-1.56632266733e-07
2.43004830762e-06
-1.28661532807e-07
2.52109132583e-06
-1.42084361602e-07
2.52980836413e-06
-1.09571705555e-07
2.60855469987e-06
-2.05184571212e-07
2.78112460252e-06
-3.61381643666e-07
2.9092881416e-06
-4.28630335524e-07
3.00184843293e-06
-4.33507941722e-07
3.06172390931e-06
-4.08399864758e-07
3.10984127482e-06
-3.61908823272e-07
3.17429722667e-06
-2.92371311582e-07
3.24703397206e-06
-2.23130155746e-07
3.30352487958e-06
-1.76580102261e-07
3.3402887273e-06
-1.4369997279e-07
3.36221778978e-06
-1.10132937238e-07
3.37242449923e-06
-6.93699042922e-08
3.37250217496e-06
-1.89843461094e-08
3.36198742623e-06
4.17083004681e-08
3.33920519758e-06
1.14168888147e-07
3.30193988295e-06
1.99847912138e-07
3.24367356626e-06
2.97783214731e-07
3.15511586058e-06
4.0702818324e-07
3.03409477571e-06
5.27751843205e-07
2.89511282288e-06
6.57473435547e-07
2.72791872849e-06
7.84813642918e-07
2.5169560011e-06
9.23353990115e-07
2.2616640553e-06
1.08744117669e-06
1.95997064658e-06
1.25259751448e-06
1.62442971724e-06
1.38123966904e-06
1.2907555418e-06
1.44689038728e-06
9.90316067658e-07
1.45265295142e-06
7.53554224278e-07
1.40709654782e-06
6.18041786509e-07
1.28874721481e-06
3.52134313052e-07
1.21694272427e-06
1.77698866626e-07
7.89339804741e-07
5.732332303e-08
5.19552037208e-07
-4.05364360984e-08
4.12572546833e-07
-1.23009252853e-07
3.62686629491e-07
-1.96435344557e-07
3.34167043224e-07
-2.71151829503e-07
3.20148269026e-07
-3.36677878997e-07
2.83014903785e-07
-3.593592148e-07
1.85415159208e-07
-3.52744809354e-07
7.67564884513e-08
-3.4057491867e-07
-4.48612035255e-09
-3.13354861102e-07
-7.6969494974e-08
-2.61027451758e-07
-1.5415415674e-07
-2.06392059781e-07
-2.03956334258e-07
-1.46591626913e-07
-2.42931724902e-07
-6.60684088879e-08
-3.48406288072e-07
-3.8983436026e-07
5.70158660438e-10
-4.94538275171e-07
1.35005611271e-07
-5.8649283609e-07
2.20514282046e-07
-9.18270664109e-07
2.49536473506e-07
-7.50363256566e-07
2.25131749507e-07
-3.46996930804e-07
4.29483654084e-07
-4.5960969122e-07
6.77054417641e-07
-7.7048221962e-07
7.81377049154e-07
-8.04582846499e-07
8.85162617396e-07
-7.35667365455e-07
9.72866930675e-07
-6.46773834333e-07
9.79951682204e-07
-5.17967927667e-07
8.74415217567e-07
-2.58335469877e-07
8.48227743942e-07
-1.41795259985e-07
9.20945312518e-07
-1.33196966808e-07
1.05738426854e-06
-1.91925521347e-07
1.27762438735e-06
-3.35188575091e-07
1.50154226241e-06
-4.62950544292e-07
1.58595199463e-06
-4.62861446622e-07
1.6120850599e-06
-4.6211657233e-07
1.71446433407e-06
-5.64647697438e-07
1.8246695082e-06
-6.25138800049e-07
1.90781694872e-06
-6.12656916812e-07
1.98527287715e-06
-5.78833542246e-07
2.06576360003e-06
-5.40285891123e-07
2.13780745308e-06
-4.92973235303e-07
2.16403609193e-06
-4.14454027303e-07
2.22056281786e-06
-3.95967360674e-07
2.25400852766e-06
-3.41550771289e-07
2.29299541059e-06
-2.9344662229e-07
2.27889655548e-06
-2.03395160113e-07
2.28317772723e-06
-1.59582915949e-07
2.32148088178e-06
-1.66546762419e-07
2.3479665653e-06
-1.69214669894e-07
2.51678678429e-06
-2.79852168426e-07
2.7154820517e-06
-4.05746098711e-07
2.85055934762e-06
-4.97704306313e-07
2.938881319e-06
-5.17533059373e-07
3.00558279491e-06
-5.00358908463e-07
3.06285993559e-06
-4.65645871731e-07
3.1192267932e-06
-4.18444683462e-07
3.18309595277e-06
-3.56690374597e-07
3.2503023683e-06
-2.90978577446e-07
3.30769773615e-06
-2.34553404038e-07
3.35007597312e-06
-1.86546442222e-07
3.37894106747e-06
-1.39316332632e-07
3.39635814045e-06
-8.70461989015e-08
3.40332301337e-06
-2.61472241041e-08
3.39867441057e-06
4.61757992347e-08
3.37984346219e-06
1.32916401117e-07
3.34333573226e-06
2.36384012519e-07
3.28418240475e-06
3.57139023886e-07
3.19729540329e-06
4.94093447386e-07
3.08076687267e-06
6.44220524508e-07
2.93461257524e-06
8.03380763778e-07
2.74786246471e-06
9.71431538147e-07
2.50992476534e-06
1.1616538264e-06
2.22113446442e-06
1.37717380517e-06
1.88724661686e-06
1.58751775297e-06
1.52348945322e-06
1.74570214862e-06
1.17128771767e-06
1.79839318616e-06
8.85112434701e-07
1.73717855392e-06
6.82903453541e-07
1.60867405545e-06
5.40614353445e-07
1.42980255822e-06
3.40573316235e-07
1.41607102039e-06
1.61832223777e-07
9.70892498363e-07
4.76763629924e-08
6.35607344996e-07
-6.0942443463e-08
5.22305408438e-07
-1.60470387552e-07
4.62605824264e-07
-2.51471473942e-07
4.25079250762e-07
-3.33831378069e-07
4.02432936249e-07
-3.77417745753e-07
3.27594967416e-07
-3.81681884585e-07
1.91438747668e-07
-3.82325079629e-07
7.97990050528e-08
-3.73412485134e-07
-1.02913698973e-08
-3.41499284974e-07
-1.05229975914e-07
-2.89164983733e-07
-2.03333513685e-07
-2.27376874283e-07
-2.62537119981e-07
-1.57629971695e-07
-3.06296002881e-07
-8.25918622728e-08
-4.27246284423e-07
-4.65745294106e-07
4.77709069263e-08
-5.40102963428e-07
2.22031022075e-07
-7.59482963732e-07
2.92432213641e-07
-9.83737627377e-07
2.23427459605e-07
-6.79113058295e-07
2.81374797586e-07
-4.05779452677e-07
5.43160165893e-07
-7.23037880098e-07
6.82540166064e-07
-9.11551760443e-07
7.60080060716e-07
-8.80607376221e-07
8.06543579411e-07
-7.80656964034e-07
8.87382857281e-07
-7.23134690762e-07
8.27082442878e-07
-4.54137167517e-07
7.72812664787e-07
-2.02820857113e-07
8.35578694683e-07
-2.05051729944e-07
9.36671192023e-07
-2.36562303567e-07
1.13201056614e-06
-3.9012107013e-07
1.36633243361e-06
-5.71381314655e-07
1.44768256914e-06
-5.45233734336e-07
1.46189059421e-06
-4.78028168052e-07
1.58097495493e-06
-5.82276114213e-07
1.7133574391e-06
-6.97801719919e-07
1.80681745754e-06
-7.18997025355e-07
1.88725521421e-06
-6.93254436555e-07
1.96449266895e-06
-6.56354874108e-07
2.0192291312e-06
-5.94535863571e-07
2.04859382042e-06
-5.21779154011e-07
2.08844942606e-06
-4.53815816024e-07
2.10612077993e-06
-4.12999211671e-07
2.14908168008e-06
-3.83921431858e-07
2.15636980145e-06
-2.99523455088e-07
2.14327996591e-06
-1.89293573368e-07
2.19529451454e-06
-2.11301530942e-07
2.26796287476e-06
-2.3939266835e-07
2.3894858268e-06
-2.92103319724e-07
2.56308639882e-06
-4.55343341434e-07
2.76033847641e-06
-6.04293240537e-07
2.86978813836e-06
-6.07759667733e-07
2.94006648945e-06
-5.87960273435e-07
3.00211167135e-06
-5.62322646872e-07
3.06396572653e-06
-5.2746465196e-07
3.12638029016e-06
-4.81031495565e-07
3.19165140952e-06
-4.22376304455e-07
3.25751800374e-06
-3.57369195281e-07
3.31641562355e-06
-2.93963242292e-07
3.36383855666e-06
-2.34365265141e-07
3.39958479735e-06
-1.75342524559e-07
3.42464517989e-06
-1.12284055909e-07
3.43898025847e-06
-4.0587147979e-08
3.44073557914e-06
4.43964146966e-08
3.42684845257e-06
1.4684712582e-07
3.3937521354e-06
2.69635590098e-07
3.33728975931e-06
4.13804482993e-07
3.2531488463e-06
5.78362403369e-07
3.13696081359e-06
7.60500918087e-07
2.98202618763e-06
9.58471963958e-07
2.7771273838e-06
1.17700217835e-06
2.51455164605e-06
1.42566077366e-06
2.19539492685e-06
1.69809167381e-06
1.82640587445e-06
1.9576993012e-06
1.42828110739e-06
2.14283700377e-06
1.06412121464e-06
2.15993481229e-06
8.25752111393e-07
1.9730967979e-06
6.92529104061e-07
1.73875516308e-06
5.27276681188e-07
1.59256937786e-06
4.17396326566e-07
1.52800584369e-06
1.63750428146e-07
1.22665421005e-06
2.44460622154e-08
7.77098786485e-07
-9.81912004205e-08
6.46578896537e-07
-2.18180450882e-07
5.83484877184e-07
-3.21933689421e-07
5.28985817733e-07
-3.88850902306e-07
4.69786808843e-07
-4.09935246081e-07
3.49701350982e-07
-4.22067872558e-07
2.05326346809e-07
-4.33250025865e-07
9.34644679931e-08
-4.24284395549e-07
-1.60837631778e-08
-3.87799249217e-07
-1.38227309586e-07
-3.38464908187e-07
-2.48958522859e-07
-2.65701410256e-07
-3.32440016078e-07
-1.83753648106e-07
-3.89096004247e-07
-9.82388842471e-08
-5.00158776956e-07
-5.66550225532e-07
9.15423177405e-08
-6.34523947406e-07
2.6175813632e-07
-9.27759250556e-07
2.72658318669e-07
-9.94189097251e-07
1.56142040909e-07
-5.62407157757e-07
3.30784351619e-07
-5.81305860971e-07
5.63697957709e-07
-9.57431769526e-07
6.47408187915e-07
-9.94542530007e-07
7.29978632233e-07
-9.62175742043e-07
7.05593181372e-07
-7.51680075645e-07
7.11616693737e-07
-7.2677253031e-07
6.45419473951e-07
-3.86290201026e-07
7.40387811958e-07
-2.98162557035e-07
8.25896553388e-07
-2.9245883084e-07
9.79319168608e-07
-3.92291132461e-07
1.20172217512e-06
-6.14900392139e-07
1.30761540179e-06
-6.7869175415e-07
1.31632666212e-06
-5.54520313565e-07
1.43108589823e-06
-5.93642024277e-07
1.58293005294e-06
-7.35086369913e-07
1.68571227443e-06
-8.01142471152e-07
1.76505900606e-06
-7.98566130397e-07
1.84111430598e-06
-7.6973537145e-07
1.92757391824e-06
-7.42329005842e-07
2.00543162495e-06
-6.71657853265e-07
2.01452936577e-06
-5.30532918833e-07
2.06394416665e-06
-5.0231658297e-07
2.08097729736e-06
-4.29422851553e-07
2.05358957792e-06
-3.5573508302e-07
2.05566194505e-06
-3.01162761625e-07
2.19434912742e-06
-3.27600352729e-07
2.26806733744e-06
-2.84881658333e-07
2.27826293275e-06
-2.50848757998e-07
2.45010335531e-06
-4.65573913343e-07
2.67134788963e-06
-6.78089597035e-07
2.77949783048e-06
-7.13218762456e-07
2.86036842729e-06
-6.8882226639e-07
2.93030701251e-06
-6.57795928867e-07
2.99688866401e-06
-6.2870882828e-07
3.0642172468e-06
-5.94690080332e-07
3.13205881124e-06
-5.48988707076e-07
3.20004553409e-06
-4.90715812937e-07
3.26678945255e-06
-4.24584009819e-07
3.32835593561e-06
-3.55976577881e-07
3.38114059653e-06
-2.87476563746e-07
3.42401784193e-06
-2.18416700638e-07
3.45704391856e-06
-1.45369699735e-07
3.4792787124e-06
-6.27751102202e-08
3.48829122674e-06
3.55287303991e-08
3.48094320732e-06
1.54419229578e-07
3.45385786373e-06
2.96973212866e-07
3.40305107435e-06
4.64837870696e-07
3.32340755118e-06
6.58173603952e-07
3.20760484104e-06
8.76438167083e-07
3.04539949833e-06
1.12124612659e-06
2.82561900645e-06
1.39816470784e-06
2.54271388649e-06
1.71081623614e-06
2.19716815391e-06
2.0457970258e-06
1.78823258865e-06
2.36624458488e-06
1.32616619216e-06
2.60191128486e-06
9.30520765257e-07
2.55108114069e-06
7.32693537334e-07
2.16702914426e-06
6.36298522972e-07
1.83254356342e-06
5.62412149838e-07
1.66494796279e-06
5.12471018239e-07
1.57806995324e-06
2.77431933507e-07
1.4632867957e-06
1.44502201144e-08
1.04298464325e-06
-1.43463308469e-07
8.07264075522e-07
-2.76191085822e-07
7.18730175338e-07
-3.7759746273e-07
6.31710826954e-07
-4.30377141932e-07
5.23554398081e-07
-4.55758978813e-07
3.76168528804e-07
-4.84857448997e-07
2.36226558552e-07
-5.02431940152e-07
1.1358006009e-07
-4.936445954e-07
-2.17026730343e-08
-4.59183742452e-07
-1.69369730773e-07
-4.07346665375e-07
-2.97916480538e-07
-3.27951172961e-07
-4.08916432684e-07
-2.16287187599e-07
-4.93112419739e-07
-1.18443325433e-07
-6.03489654436e-07
-6.77890924177e-07
1.28223400211e-07
-7.60795051347e-07
2.60526036315e-07
-1.05863146134e-06
2.10741762847e-07
-9.41741042599e-07
2.09164446959e-07
-5.61016116581e-07
4.31335655978e-07
-8.04132737483e-07
5.26142871741e-07
-1.05233798386e-06
6.01845052537e-07
-1.0682151962e-06
6.70136558434e-07
-1.02753077338e-06
6.68275421105e-07
-7.48057041124e-07
6.73585920025e-07
-7.29115718848e-07
6.71191015639e-07
-3.84094700645e-07
7.49417158916e-07
-3.77437648388e-07
8.51431754235e-07
-3.96973956609e-07
1.04093699834e-06
-5.84924632804e-07
1.23951616245e-06
-8.14559823766e-07
1.26909320039e-06
-7.08415558098e-07
1.30592820684e-06
-5.92073687505e-07
1.431548347e-06
-7.20429085481e-07
1.55826849244e-06
-8.62673109271e-07
1.64982628707e-06
-8.93255090153e-07
1.72226261165e-06
-8.71813683473e-07
1.77577398974e-06
-8.22860197516e-07
1.81988478059e-06
-7.85404983334e-07
1.86201726259e-06
-7.1301170039e-07
1.89642205223e-06
-5.63703988339e-07
1.9276373708e-06
-5.32894959123e-07
1.99356521372e-06
-4.94919704576e-07
2.07030373295e-06
-4.31899684917e-07
2.14181846399e-06
-3.71985755035e-07
2.18384648011e-06
-3.69461948132e-07
2.26073930938e-06
-3.62916568097e-07
2.45330964949e-06
-4.45260691506e-07
2.59922663109e-06
-6.13456871058e-07
2.69583587212e-06
-7.7591026728e-07
2.77317434971e-06
-7.90841756093e-07
2.84673180566e-06
-7.62228678687e-07
2.91953776572e-06
-7.30323530747e-07
2.99074084885e-06
-6.99684636581e-07
3.06224218576e-06
-6.66117438347e-07
3.1347408153e-06
-6.21619616918e-07
3.2070013435e-06
-5.6326089924e-07
3.27701634766e-06
-4.94948534306e-07
3.34253333221e-06
-4.21790533966e-07
3.40135303601e-06
-3.46491708404e-07
3.45191382327e-06
-2.69022174417e-07
3.49316814567e-06
-1.86540565306e-07
3.52370984192e-06
-9.31009033731e-08
3.54108704808e-06
1.84566333242e-08
3.54226733807e-06
1.53567001809e-07
3.52407522118e-06
3.15484370215e-07
3.48238361231e-06
5.06706850703e-07
3.4107740281e-06
7.29894699568e-07
3.2991913085e-06
9.88418153108e-07
3.13452629814e-06
1.28713850155e-06
2.90503991292e-06
1.63023324425e-06
2.60469481155e-06
2.01434733235e-06
2.22718259579e-06
2.42352898968e-06
1.75446488014e-06
2.83555039619e-06
1.176244388e-06
3.17310564017e-06
7.59651263826e-07
2.9622366236e-06
6.56895429376e-07
2.26724384128e-06
6.25835276844e-07
1.86155056644e-06
5.82698810066e-07
1.7077142663e-06
5.22705048534e-07
1.63671686943e-06
4.20771742735e-07
1.56714492387e-06
1.0454140452e-07
1.36218353328e-06
-2.01403474353e-07
1.11805306301e-06
-3.44788986184e-07
8.65256379285e-07
-4.35139043653e-07
7.25333814728e-07
-4.8353323185e-07
5.73872895705e-07
-5.24803910215e-07
4.18921309701e-07
-5.67105305442e-07
2.8028050281e-07
-5.8805468458e-07
1.37103322172e-07
-5.79687362768e-07
-2.72455821269e-08
-5.48470442473e-07
-1.97584590608e-07
-4.90991631855e-07
-3.52147851545e-07
-4.01384009182e-07
-4.95375572324e-07
-2.72205605727e-07
-6.24219249775e-07
-1.31000306356e-07
-7.31428004045e-07
-8.11939659845e-07
1.58931425883e-07
-9.23367319893e-07
2.74150489954e-07
-1.1746609686e-06
1.9171566885e-07
-8.5933518462e-07
2.62894422805e-07
-6.31752882772e-07
4.61541031396e-07
-1.00225143232e-06
4.73597789874e-07
-1.06177805213e-06
5.43142215111e-07
-1.13687434939e-06
5.42871936778e-07
-1.02425548911e-06
5.98229908595e-07
-8.02064671418e-07
5.65568625025e-07
-6.96227004072e-07
6.43974644258e-07
-4.62943563132e-07
7.43349712357e-07
-4.79261362949e-07
8.61361858288e-07
-5.17088632462e-07
1.04395938842e-06
-7.69110031528e-07
1.14212532481e-06
-9.13945244404e-07
1.13628027572e-06
-7.02884581813e-07
1.24925270977e-06
-7.05841013658e-07
1.39333010575e-06
-8.65577737737e-07
1.50807340291e-06
-9.78299042396e-07
1.60579679767e-06
-9.91851919123e-07
1.68719874827e-06
-9.52679807942e-07
1.76064561904e-06
-8.95668354158e-07
1.78589396495e-06
-8.09892528521e-07
1.79732731113e-06
-7.23133383241e-07
1.87920867519e-06
-6.44871927963e-07
1.89471230571e-06
-5.47985403895e-07
1.8716296277e-06
-4.70738197987e-07
1.8824199765e-06
-4.41979351104e-07
1.98399162027e-06
-4.73470650999e-07
2.12803094741e-06
-5.14035616242e-07
2.26093703795e-06
-4.97326422143e-07
2.39390557729e-06
-5.80519577709e-07
2.58904367508e-06
-8.10717106649e-07
2.68694375166e-06
-8.74482418044e-07
2.75854002873e-06
-8.62397638376e-07
2.83291578412e-06
-8.36339598322e-07
2.90912649442e-06
-8.0625125825e-07
2.98419393772e-06
-7.74531048121e-07
3.05881576298e-06
-7.40656578881e-07
3.13490870229e-06
-6.97765003898e-07
3.2116898659e-06
-6.40218524373e-07
3.28664858296e-06
-5.70112556743e-07
3.35765159172e-06
-4.92946032319e-07
3.42324953156e-06
-4.12105768977e-07
3.4820904783e-06
-3.27738393097e-07
3.53243511013e-06
-2.36585822778e-07
3.5720252498e-06
-1.32265925982e-07
3.5986653275e-06
-7.67337603709e-09
3.61028379587e-06
1.4248800614e-07
3.60423032659e-06
3.219189226e-07
3.57639835498e-06
5.34845239456e-07
3.51910716066e-06
7.87378359856e-07
3.41926535654e-06
1.08867592383e-06
3.25983607385e-06
1.44802845223e-06
3.0255872337e-06
1.86768287394e-06
2.70489825175e-06
2.33676626781e-06
2.27603909797e-06
2.85086167674e-06
1.66730090588e-06
3.4368093446e-06
8.89279675951e-07
3.94104775537e-06
6.23830605931e-07
3.22235727414e-06
6.7004795331e-07
2.2210236413e-06
6.71277354931e-07
1.86123202015e-06
6.10946224153e-07
1.76664513511e-06
5.21740504045e-07
1.72599747094e-06
4.27986069385e-07
1.66171200989e-06
2.0998939391e-07
1.58302874212e-06
-1.31074773512e-07
1.46347105422e-06
-3.96440892047e-07
1.13685271574e-06
-4.88192400708e-07
8.21305670479e-07
-5.49904613485e-07
6.37310124334e-07
-6.11948924501e-07
4.83613988821e-07
-6.62177516801e-07
3.32089714752e-07
-6.87380851625e-07
1.64077740843e-07
-6.82908874579e-07
-2.94544492746e-08
-6.51471194407e-07
-2.26908050818e-07
-5.87505498426e-07
-4.13505569811e-07
-4.82844968483e-07
-5.97290704239e-07
-3.32060579076e-07
-7.66656233713e-07
-1.65847174238e-07
-9.0394874083e-07
-9.70789210633e-07