/*--------------------------------*- C++ -*----------------------------------*\
| =========                 |                                                 |
| \\      /  F ield         | OpenFOAM: The Open Source CFD Toolbox           |
|  \\    /   O peration     | Version:  v1806                                 |
|   \\  /    A nd           | Web:      www.OpenFOAM.com                      |
|    \\/     M anipulation  |                                                 |
\*---------------------------------------------------------------------------*/
FoamFile
{
    version     2.0;
    format      ascii;
    class       volScalarField;
    location    "200";
    object      alphak;
}
// * * * * * * * * * * * * * * * * * * * * * * * * * * * * * * * * * * * * * //

dimensions      [0 0 -1 0 0 0 0];


internalField   nonuniform List<scalar> 
6400
(
0.831122356903
1.2455062382
1.9073754456
2.18309307281
2.46254909733
2.78570104197
3.35290958705
4.0218341147
4.12978946451
4.42349744805
5.53179076607
6.00083202313
6.34081257709
6.81986226579
7.57348021701
8.34450302736
8.89703288967
9.4354186367
9.92779186766
10.1331456281
10.0273316952
9.93225908281
10.102013511
10.6083502506
11.2110695282
11.7080053516
12.0088153704
12.2641825353
12.6178380027
13.0799317017
13.5987104527
13.8904336664
13.8975301028
13.8073646104
13.6247967693
13.2228977684
13.0082457619
13.2684733612
13.0028556324
12.3744501168
12.1931298605
12.6480759947
13.1587763167
13.3992763502
13.4580994576
13.382192364
13.2517026
13.1360805314
13.0377185195
12.9593755794
12.7251226038
11.8748779766
11.0586071863
10.1537823508
9.7541923899
10.1346162815
9.9820030456
8.66819520167
7.09781688886
6.53290587872
5.67988268203
4.73099167827
3.78025428099
5.4982131797
9.58297613731
14.5354702489
17.5347780334
17.2458944669
15.2356494473
13.5357971656
12.5591523009
12.620630282
13.0341082895
12.8357892206
14.7712046995
14.1746488208
15.9986383957
9.89798789455
12.873614778
4.81413689158
3.07902348843
2.3829173548
2.91133976441
4.10028034387
3.74301493547
3.31113690347
3.2916002616
3.54285069006
3.95039677344
4.49618765961
5.20358661314
5.90910285243
6.50363384837
7.07079461721
7.6312875897
8.29497948854
8.98882104043
9.70712291347
10.7817118259
10.7609527502
10.3629266409
10.1528134256
10.1711524683
10.599151747
11.4951377625
11.8469292583
12.0782496169
12.4156174019
12.8104174331
13.2345803707
13.6858968782
14.1992979553
14.215018819
14.1527942208
14.0734254176
13.4139408204
13.3641246354
13.6267648024
13.189529735
12.1994582066
11.9360458514
14.2643432927
15.6526716256
15.7207613041
15.6520981466
15.287724242
14.757613182
14.344436452
13.712804813
13.1931658585
13.1613270474
13.76536196
13.5789871424
10.3751646035
10.2796456627
9.97765854059
8.29424206526
7.09700953694
6.13063245754
5.1877664016
4.45906490621
5.07708274554
3.98744245409
5.68134370726
9.63238980115
15.4498029382
19.1773770858
17.9920972004
15.8166106594
13.8461165446
13.0296107185
13.3085483222
14.2683903661
13.632258669
13.4150959477
12.8424918694
11.6083667188
9.74924308507
8.18536518601
4.27100166237
3.03420774733
2.56473505232
3.04691944433
3.10851579237
3.3384265144
3.62442802387
3.53732383835
3.49378542156
3.88105894563
4.48191830865
5.17763023723
5.90228674012
6.5522569945
7.13535182767
7.56272017385
8.15693774205
11.4152893968
13.574527401
13.7772265934
12.7014364447
10.2352183411
9.5863938498
10.3975733844
10.889802113
11.2673574783
11.7807490863
12.2205331762
12.5650565953
12.9378690325
13.3944306438
13.7701748656
14.4773510831
14.5643303124
13.9895152012
14.7471077933
14.1213244824
13.1945117992
14.057122811
13.5394906208
12.4657431475
12.1657237159
12.6957775196
13.2783328344
13.5551876231
13.6360677634
13.6021916564
13.4866451069
13.3091856799
13.0696699625
12.7927237567
12.4805051273
12.0457880645
11.4177094129
11.0445372131
10.850796509
9.51654564494
8.18974363215
7.14865030342
6.2447618164
5.4510554855
4.87307395759
4.30135354205
3.98382244854
6.42335074751
11.59352398
16.2908905838
18.6041707668
18.7211212016
17.1091163541
15.3811182865
14.5980559559
14.4067389878
13.6819908062
13.0292603609
12.9353610287
12.5313737465
11.5062177583
9.86524106004
7.42893012691
7.60085636853
2.8005930705
5.30208333294
3.13296915775
3.07113069387
3.6889508698
11.6809432239
9.98698425095
4.33732269377
3.90488649898
4.51373908013
5.20122849311
5.92918298101
6.55775717961
7.24695319133
9.29662671447
11.6555528736
13.3026200793
13.3782288968
11.4807214996
9.67492818116
9.64275072966
9.86595571913
10.1889448253
10.7369390923
11.3601032089
11.9503589027
12.4501104114
12.7387089767
13.2017390161
13.4760322407
14.231331468
14.3929192053
15.1811499377
14.8184169945
13.7768631111
14.391532856
13.6042577548
12.7302442505
12.5657511043
12.4902449083
12.5426323932
12.8826023574
13.2963685927
13.5645922888
13.6792608774
13.6756345222
13.581255895
13.4165736713
13.1910250927
12.9158657315
12.5879608883
12.1827741392
11.6950833365
11.1774435833
10.4944933674
9.47735122998
8.32472091486
7.3027552333
6.46530298554
5.80508471821
5.32228142738
4.97875798876
5.10062829308
6.98691369558
10.7865339421
16.5615514684
20.1484201229
20.3484699444
18.6697778692
16.2974957844
14.6371721649
13.7680890287
13.8517470639
15.1574213918
15.0320750695
13.6619292519
13.4722662476
16.7222005807
13.1293249743
11.1505487047
5.24318669518
7.28120934235
3.55999088453
3.88253397665
6.10722994319
11.5589256107
7.63892531808
4.43494698076
4.38284005804
4.73379086735
5.3556822207
6.12078021808
7.61956310777
10.3322461038
11.2899512855
11.4176468486
10.9156248809
9.93268747934
9.35978422951
9.74188213249
9.79353817949
9.81344945071
10.2424746448
10.84354105
11.5154443499
12.1766986691
12.5821382507
13.180753934
13.3072496737
14.1332858477
14.1753448886
15.7347640392
14.9976546162
14.0366885066
14.2910757068
13.2024334295
12.7942905964
12.6561279791
12.6455405423
12.6832268043
12.7879773588
13.0390354418
13.3555633808
13.6034579992
13.7360192505
13.7551291284
13.6795808151
13.530200436
13.3218247049
13.0623510949
12.7474625903
12.3666060495
11.913558704
11.365055042
10.612154554
9.60247493541
8.5142802498
7.56547670919
6.83813393403
6.32531818026
6.00807617896
5.93329561926
6.42839527871
7.53860161514
10.603987703
15.95527541
20.1631726482
21.5590665989
20.3603499
17.5758589374
15.0702846185
14.6817783938
16.8328532441
17.6354148882
16.5427594369
15.5752244481
18.1635215485
21.1399692184
16.455958422
15.5639991914
9.59487585438
8.70120266792
4.40504844393
5.24345022688
11.8122645158
11.2198201822
5.41449004001
4.86462125101
4.91541915156
5.0595183093
5.68978302914
8.73980051679
12.289967486
12.5540598926
11.9224858437
10.3775893792
9.20057537902
8.93216211694
9.81559611605
9.76804083357
9.54041474183
9.84232892556
10.3911525672
11.0740844642
11.6263488077
12.3160737824
13.2925539679
13.2186845272
14.3807188038
14.03418373
16.0929597278
15.2262462985
16.4640288329
14.7112810237
13.0774355883
12.6144867942
12.6218120529
12.7062843906
12.7909005744
12.8723061671
12.9987947372
13.2100548251
13.4672414173
13.6909456663
13.8268411787
13.8604569447
13.8003373947
13.6680283133
13.4829657587
13.2516124156
12.9668177261
12.6145452367
12.1710421439
11.5864662937
10.7944749391
9.81883594247
8.82737770184
7.98507449827
7.3482407607
6.94999503158
6.79189418102
7.10737818715
8.44755069261
7.78364379722
11.8670871417
17.5531253276
21.302954265
22.7112340165
21.7539027339
18.3756881335
16.1884008146
17.9351763737
20.0742371548
19.4954444054
18.4416776911
18.4573876883
22.9352948678
24.4800800164
19.4669510124
19.2542574437
11.6481230978
8.23781824927
5.36110612278
5.09604438587
11.6654006896
7.58428359413
5.26315644341
5.33685580227
5.40285422557
6.09688015562
6.39844844716
12.2788697519
12.7206415668
12.591430574
10.7165318039
8.84524486874
8.5085567252
9.96444065872
9.88119328087
9.290141438
9.54091350008
9.94939780964
10.4958853714
11.1743331973
12.0996922835
13.0786014553
13.2305577225
14.8507666768
14.2252230505
16.5134918944
15.4420959769
16.8097637845
15.3793825406
14.3546632483
12.5955757122
12.399678368
12.6234733904
12.8237752583
12.9454604682
13.0505418861
13.1949673854
13.3905542498
13.6147474543
13.8178658506
13.9513844826
13.9926916549
13.9463826237
13.8358484465
13.6824078043
13.4892390021
13.2425366781
12.9176559907
12.4761276345
11.8689172249
11.0733768542
10.1573852437
9.26953508095
8.52413484
7.9491047078
7.56148516967
7.52764139103
7.95972873381
8.2648789331
8.83502701282
12.8481060898
19.836471902
22.4897448486
22.9185598283
21.8392125369
19.5710928102
19.3590430891
21.8984589667
22.2900252751
21.3885695278
20.7370208249
22.6077336735
25.2639350653
26.6783438936
22.0619615162
20.899909007
11.2078241476
7.50031681192
6.38502987867
11.6380802471
11.6127984313
5.96328928862
5.79090648261
5.86286531379
6.08219653783
6.59615508699
12.1104593372
12.9617692632
12.8216872652
12.0778344158
9.06084485532
8.10198653053
9.89072890883
10.2157357174
9.29019049213
9.10591868887
9.59447878436
10.1994732087
10.7324147299
11.5031574348
12.1430828243
13.6219828002
13.3726664985
14.7415857549
16.4389771289
16.5131574552
14.8569580589
15.8894219273
15.7244505471
12.992635562
12.4614208872
12.4987945961
12.7198933898
12.9453445021
13.0998371344
13.2276632368
13.3867935919
13.5827568974
13.7914953059
13.9786535937
14.1065224395
14.152275738
14.1211936661
14.0386677776
13.9251636369
13.7780877886
13.5748274062
13.2787884314
12.8428882894
12.2317248525
11.4619107101
10.6219512768
9.82220150345
9.10497903948
8.4533360585
7.98846160265
8.04001449017
8.56776041279
9.29322443098
10.3052529332
11.370006799
19.6322089504
23.9724623143
24.1304412886
23.5797194555
22.7138989342
23.653420485
25.0188215748
24.2832172607
23.5271965643
23.6399376023
25.8344537773
26.4018576741
26.9279124552
23.9909679938
21.7993274624
10.2520114407
7.05054913029
7.02487687732
12.5266280679
10.2059147027
6.22040213482
6.3613516795
6.53859621943
8.23426459933
6.522337104
12.8835609084
13.369835316
12.7919304513
10.4438603878
8.27633365179
8.21612570022
10.0301849307
9.73459264828
9.06397993363
9.13239910851
9.5717980765
10.3392915496
11.0349564727
12.3971868461
13.6391836784
13.4078877177
15.8860302515
14.2778784557
16.8131768763
15.1013366138
17.0295505883
14.5697084102
13.5229058071
12.7615115475
12.5705196471
12.6574651876
12.845611401
13.0669965968
13.2529881414
13.4128101928
13.5879429272
13.7877754841
13.9918416454
14.1694853327
14.2900341588
14.3394424256
14.3281303777
14.2810271837
14.214498767
14.1199811276
13.9655210056
13.7029359905
13.2816871905
12.6851818225
11.9604935668
11.1940875786
10.4300660467
9.6068666663
8.68348906004
8.05229323447
8.38029052419
9.5400764073
10.8109573113
11.8634888501
12.7264314435
15.8985764126
23.939564513
25.6225812203
25.8094729924
26.6472618317
27.8356269035
27.4979021362
26.4215863108
26.1183848286
26.9552222386
27.9792133272
27.6912264527
26.98634621
25.8806424942
24.426408715
9.37249749703
7.17358240322
8.23489118628
12.506935737
7.53513540927
7.23622989248
6.92929558398
7.17916103867
11.0170955157
9.48498114702
13.7094235205
13.5513320797
12.7477854846
9.35915989308
8.11573740013
10.1184292169
10.3094477619
9.34878129793
8.9910856087
9.32078082704
9.69032202164
10.398722359
10.9412163532
12.5838806621
15.1116395074
13.1992855352
15.7573634798
16.8658401142
17.0484073983
17.3160904667
15.4249002393
15.2837701486
12.9247191674
12.5906113726
12.7030052814
12.8241503795
12.9850598232
13.1908020829
13.3999779759
13.6000236359
13.8027348032
14.0117374031
14.2146309957
14.3870951868
14.5033021103
14.5566878045
14.5682127494
14.5642615105
14.5526183548
14.5164411026
14.4161371236
14.1936036312
13.7975175779
13.2311927515
12.5608648039
11.8413688783
10.9950246215
9.80050721983
8.36724455521
7.80462032257
9.01410369497
11.011046991
12.6536254198
13.8663240044
14.7608253038
14.7747943051
15.8867307498
27.3498540041
30.2106168479
31.4910223498
31.496986056
30.0763667574
29.0670986282
29.1871261777
30.1179762223
30.228822572
29.7927381944
29.3438982428
29.5644368883
29.6741724997
8.94887021064
7.76962435035
11.9866838262
12.4062332152
7.17107464929
7.9112437575
7.46014962625
8.24215909804
10.1508717154
13.2944978321
14.3829786194
13.6762930961
12.8133972104
9.02003458866
8.17655202908
10.7375990493
10.2866559402
9.20774514634
8.99384671677
9.47242008226
10.1758925485
10.7173574116
11.1316473131
12.1134969225
15.2299899069
16.3902270146
14.8997420743
17.0417043642
14.9086782813
17.3677689892
17.3220840761
15.0859007635
12.7567491679
12.6805469385
12.8706872044
13.0017545079
13.1456567313
13.3330366669
13.5452670271
13.7834313542
14.0282951425
14.2555257328
14.460891943
14.6310753872
14.745650567
14.8070955261
14.8460319893
14.8895755329
14.9377310793
14.9651893932
14.9246846464
14.7493661863
14.3902673819
13.8690209583
13.2500400331
12.4977266375
11.266231727
9.24416255271
7.58197500545
7.94132661033
10.538314576
13.265563343
15.1004509305
16.3311627954
16.9742394436
16.8846461163
16.2961723132
18.0249248889
31.8300349683
37.1584459178
35.9438021254
33.5355776572
32.5661065079
32.8017934249
33.2757003519
33.2913224815
33.3181961264
33.611768828
34.0546465825
34.6538900431
8.93140141943
8.46909160208
13.5284072768
12.8034050205
10.5034021019
9.02183578193
8.17183262404
9.79728040798
9.22396831482
14.2168106048
14.8579375938
13.8503008154
12.6331196294
9.33371494382
8.95169469976
11.2618778507
10.1695771776
9.18537488572
9.09549577788
9.50613737243
10.3817500145
11.1452236103
13.1551105798
12.2536289537
14.584452074
16.771391281
14.4880674494
17.3642198782
17.8265293468
15.8328117209
15.7704933998
13.4402121591
13.0989423358
13.000805377
13.0846755541
13.2095563668
13.3414404639
13.5109359778
13.6986598068
13.9465552768
14.2484901071
14.5249186576
14.738175805
14.9025725383
15.0184151566
15.0941380143
15.1652446316
15.2580783227
15.3668483653
15.4594923925
15.4800414384
15.3590602432
15.0578774646
14.5968115792
13.9866639505
12.929670924
10.6717182536
7.93881156001
7.00196051947
9.07685558981
13.2264748171
16.3809581767
18.2364488558
19.5664393534
20.1569527488
19.8852057278
19.0818901316
17.827283209
27.9285461555
38.1777568918
40.983110968
38.1556619786
37.1720446168
37.2873904518
37.5001787182
37.3915510163
37.9269701596
38.4433813338
38.1798534184
38.29116055
9.28532119564
8.99794051242
13.1003161933
13.0681445785
12.9929984129
9.89445901707
9.02034646514
12.9402481713
9.25447936831
15.0539330606
15.2158829168
14.0416245614
12.4776674808
9.71202037625
12.273369706
12.3720226046
10.1811168954
9.30293999614
9.32831784837
9.66531116647
10.3469578959
11.0786966421
14.7413779459
15.773478488
13.7690360614
16.8759965976
17.6342936942
16.7464169556
17.8018403255
17.7455290507
16.3803464634
13.3644621972
13.2889009052
13.3190614257
13.3454846338
13.4309504535
13.5319273146
13.7187096693
13.9234548484
14.1351696017
14.4451017242
14.7851885629
15.0439772915
15.2116369446
15.3266754113
15.4211812086
15.5297041927
15.6714566538
15.8353034185
15.9842205506
16.0591358956
16.0031157747
15.791757079
15.3894402547
14.6381991316
12.7091770961
9.01356328839
6.14066678381
6.90190405927
11.6997776823
17.1225382844
20.4562425541
22.1225686279
23.8356870448
23.9753803706
22.8624470469
21.4327208781
19.9074216182
24.2538510207
35.4462030465
42.3734008289
43.4144081814
41.4924600961
41.7842871202
41.9155880379
42.2559864026
43.0173945957
43.3684744732
43.1469212003
43.22081694
9.69450280425
9.53137952603
9.26713780127
13.2649008255
13.3444240931
10.3799667989
9.80958541912
13.7408462371
9.62873522009
15.8801822952
15.5157917669
14.2397922814
12.4528144173
9.84946177665
13.4837257998
12.6723497546
10.3675347735
9.5751909701
9.62745557526
10.0047766494
10.4365969433
10.9986337993
15.3781275374
16.7450588249
13.9798111255
17.0036120044
18.1530598595
15.6433089928
17.4150907139
16.9838784997
13.971949686
13.72413144
13.7078469058
13.6620622195
13.6193921366
13.7161819389
13.7980896223
13.8940312158
14.1287435356
14.3908436989
14.6836217753
15.0389118497
15.3498466935
15.5507507592
15.6784746747
15.7959006395
15.9427799972
16.1252866912
16.3342268503
16.5253114318
16.6247538384
16.6481445211
16.5727235095
16.2287800923
15.0123087913
11.1744975768
5.75212282637
3.87243673565
9.35198732215
16.5842326461
22.7156975472
25.5338720125
24.5996749639
22.594651578
19.6771757527
18.0117337691
17.4723965077
16.5421166258
14.1807822916
15.7720021494
41.9146529391
45.2006425997
45.900188691
45.3372841984
45.3054871487
47.3997766278
48.1800954162
48.4873407839
49.4799174482
49.9665933209
10.2684727725
10.3179712345
13.8342166243
13.7315827704
13.5789006656
10.7584786654
10.7325196791
14.3375821636
10.4457531504
16.5567710253
15.7750019025
14.4399172578
12.4808731269
10.1025725689
13.6423950193
12.5740730044
10.5640383052
9.88837536121
9.92543393116
10.2575916453
10.6677899485
11.1092224271
14.4833185603
17.5069349216
17.6120146591
16.0090450011
18.3168640121
18.9084829671
15.1969778031
14.214874941
13.7967173188
13.8864224334
13.9458574129
13.946834604
13.9689923792
13.9913110165
14.0644635628
14.1870133264
14.3307690505
14.6229480468
14.9660990475
15.3290189157
15.6626891306
15.9034733425
16.0725012166
16.2211231651
16.4006508068
16.637662827
16.8866539952
17.0522573281
17.1255541707
17.2428621722
17.3387730737
16.9587937121
14.5293942981
7.88116056807
1.06327984382
6.80324223743
15.3433659496
22.9933982925
25.6122554404
20.6015283925
12.6405332835
0.00454440380484
0.00355464613908
0.00862986342039
0.0581721024943
0.272474880294
1.00652356791
6.39629997943
5.00816009907
31.5551162579
50.6515604803
50.7778517261
47.5057124173
51.0681400917
52.9221739676
55.5786020053
57.8398259388
58.0767292155
10.7720351593
10.9482805021
15.3409850758
14.1360850498
13.315211054
11.1706193275
11.6649988751
14.7494355241
14.753421463
17.3461875177
16.0542527716
14.6994549612
12.5379246581
10.5095822309
13.8008863577
12.4353669247
10.7859719815
10.218252865
10.2016368707
10.4670470216
10.8687815507
11.4281536396
13.6813970366
17.7336985207
19.0099080251
15.1736221822
17.8881986241
18.7489552731
17.9664198896
14.9673911602
13.9581168776
14.083564356
14.2502556212
14.3468176331
14.2272000108
14.2805710161
14.3136058761
14.4524336074
14.6067150705
14.8669442234
15.2513965343
15.6562903848
15.9901202283
16.24229009
16.4765132243
16.7528227908
17.0341300786
17.3040207529
17.4524316408
17.5325160542
17.6299193431
17.7632580726
18.0704070972
17.6287854748
11.6162450525
0.0267349518604
4.70460755677
12.6758635015
18.6101262038
16.4000615278
0.069978489244
0.000116765815451
8.23087591877e-06
0
0
0
0
0
0
0
0
1.14477447498e-09
3.86108730858e-07
5.77536362826e-05
0.0335068102622
31.0908316323
59.2939545329
59.238841913
66.4031651791
65.7965149397
11.1625634774
11.3663092132
17.6274385107
14.3819083002
12.6958807916
11.5505199409
12.2998700718
14.4754682643
16.3062530811
18.2565929467
16.4641460417
15.0617362472
12.8050328175
11.2492705368
14.1717007033
12.4690258136
11.1117881489
10.6140238771
10.5182261042
10.7098749291
11.0493993629
11.5813781438
13.3152947947
17.5830359519
19.9557850957
18.9402455678
17.1513392364
18.0518553527
17.3301789573
14.2393920724
14.4182940829
14.6088351663
14.8868798287
14.7978158222
14.6942014782
14.5636567417
14.6508393648
14.7138195528
14.8943990572
15.1525325965
15.5172702645
15.9693353723
16.4264324485
16.7097171625
17.0000653795
17.4032490438
17.8240582484
18.1217839549
18.2304076255
18.3176172588
18.4240390208
18.4939600486
18.3201854604
17.214425033
10.2223533864
0.790506796184
5.69772224878
0.969954420139
0.0132250365302
3.62666443491e-05
0
0
0
0
0
0
0
0
0
0
0
0
0
1.47504178025e-08
1.4657747956e-07
3.21329593967e-06
0.00015580827676
0.865239113092
72.9141291006
37.820979279
11.4490254591
11.6387976038
19.7934801656
14.5190036871
12.4155952438
11.9207936331
13.0885497462
13.2883775944
17.2597996418
18.8913861633
16.8705393778
15.4388988114
13.2950760173
13.4198300689
14.6822534663
12.7618306838
11.6533179709
11.2377487261
10.9441938581
11.0451412246
11.287951155
11.7531362003
13.1954772083
17.445569127
20.3110463556
20.6017749688
16.0136000937
16.2364125759
14.9459032858
14.3290024081
14.5963032319
15.1432993827
15.3695765314
15.24045415
15.1237828445
15.2294717439
15.0111840491
15.0468517524
15.1831954217
15.4020423364
15.8791967164
16.3861897196
16.855650344
17.0946498073
17.510405545
19.4612969282
22.152232147
22.9949632727
21.2299907127
21.0117611894
21.1864110636
21.3935245089
21.2245852559
19.4682913199
18.1833410483
2.61697151656e-06
0.00264448213712
4.31506607429e-05
0
0
0
0
0
0
0
0
0
0
0
0
0
0
0
0
0
0
2.27889330574e-07
1.54322890625e-06
0.000284584205077
55.8104926466
11.732751205
11.894364969
19.4585577002
13.4327184785
12.3196508615
12.2237998845
13.9777748073
12.899096521
18.0357591787
19.5067353798
17.275874357
15.8026264376
13.6461895791
15.9484591556
15.4377749664
13.266171389
12.2951650534
12.3656678549
11.5995038299
11.5559714745
11.6345782245
11.9377190675
13.2469498877
17.2921077543
20.1426424799
21.7172993878
19.7381333053
18.2732052783
16.8387272895
14.6826950997
14.9267531818
15.9999495028
15.6220415591
15.6282297545
16.1094745512
15.6886489999
15.4897834309
15.5001417224
15.6270475765
15.8217111659
16.1097428123
16.6874069271
17.3906800116
18.6180002267
20.455465911
23.03057501
24.947007633
24.9081160737
25.1742255266
26.657618598
28.7832652582
31.8571629418
33.0773690017
31.2534902354
24.6128776304
2.86810780868
0
0
0
0
0
0
0
0
0
0
0
0
0
0
0
0
0
0
0
0
0
0
7.01211796417e-07
94.1231417434
12.1239552181
12.274970267
18.8874399934
12.6523932523
12.436384718
12.4494536383
14.7017791348
13.1384189762
18.644557252
20.1069547025
17.6897489499
16.1923336142
13.9541467161
16.5276145506
16.1193447972
13.8442647215
12.9164277337
13.1578265535
12.408264733
12.3004067411
12.2183166936
12.1186344074
13.4798735074
17.2556162662
19.8270288519
22.0755148637
20.9943211085
18.4395274283
15.107259246
15.2245626451
15.6131640256
16.6357032183
16.9178022128
16.9779056852
16.9079689422
16.2001244884
16.0122640177
16.062914704
16.1684064731
16.3764460496
16.6351091629
17.2906077987
18.5868602921
21.0590105226
22.6781678127
22.9511046124
24.0364883177
25.0968551458
28.921779076
33.4408433356
39.99802153
43.8997480568
44.8370612193
39.9445578307
0.753234600163
0.018237258597
6.12162866711e-05
0
0
0
0
0
0
0
0
0
0
0
0
0
0
0
0
0
0
0
0
0
1.17841000765e-07
1.55914407364e-07
12.7838854881
12.9398169439
18.2331662586
12.6365167335
12.8963416632
12.7885775769
14.3301930575
13.794502775
18.9941228259
20.6591096737
18.1436829089
16.6426496538
14.4163576489
17.0782783623
16.7583920806
14.567887398
13.6326002141
13.94921212
13.1755719502
13.2002667522
13.144564257
12.4897457899
13.9384480961
17.3779079738
19.6703728464
22.1682331925
21.4251415622
18.7077055217
15.2796485547
15.3421593773
16.4560330394
16.3125401834
16.3557727475
16.7823808853
17.8678912278
17.1701015141
16.9010465055
16.6551955937
16.7007664778
17.0271437507
17.4234829437
18.1302777194
20.9963798597
23.6955168506
23.7051516331
23.8762343363
25.5820495608
30.7928305707
37.5374844452
43.536446728
48.0879880306
43.2766025061
3.15002000741
0.00103278818076
6.48019196456e-06
1.31348239557e-05
2.01701883125e-06
0
0
0
0
0
0
0
0
0
0
0
0
0
0
0
0
0
0
0
0
0
8.70997420822e-09
3.95494335535e-08
13.8429381198
13.9271067231
18.1677081269
13.4121735643
14.0517502654
13.5135312933
14.256853002
15.2454970841
18.7019187754
20.9911806305
18.6726187563
17.1785615014
15.0082388705
17.7073374723
17.4313010844
15.4896120306
14.585243609
14.9358169511
13.9410181705
14.2200874197
14.4612493161
13.1669912816
14.4067049044
17.6465011375
19.6883416096
21.9304299999
21.590091021
19.0182564267
18.041226021
16.2751276496
16.9531864828
17.6515444238
18.6168267979
17.22213579
17.5411365573
18.3147420072
17.771414028
17.7807556309
17.5986959175
17.6956692923
18.1954665654
20.7439094299
24.8492592229
25.7414222733
25.1339061118
26.7546944305
33.1465234357
41.83937
47.8039169097
46.8205858021
34.9454650786
0.0107672338041
7.36729631263e-05
0
0
0
0
0
0
0
0
0
0
0
0
0
0
0
0
0
0
0
0
0
0
0
0
0
0
0
15.4025868772
15.1447602871
18.6183822756
15.3870145463
16.1414240793
14.6689722952
14.9791125536
17.4283681395
18.6046735105
21.4402132587
19.3453717042
17.8163524125
15.7135873434
18.3695940443
18.0982067455
16.530231706
16.1516156725
16.2859291923
14.7882246158
15.3808122055
16.1415839931
14.2603686014
14.6710860058
17.9673377448
19.8764268036
21.6628504805
21.7420586784
18.9231605389
19.2220707378
18.0014654483
18.2133024395
16.6861701614
17.4335918943
18.8497396348
18.418904424
18.6471158859
18.676234824
18.6053744779
18.7532103817
18.7865895978
20.4047501249
25.3409225117
28.1635667462
28.1355945579
28.7947492045
33.8016201405
43.0584015674
48.8077080584
38.3154882863
10.224822334
0.0179923648071
8.23847443663e-05
0
0
0
0
0
0
0
0
0
0
0
0
0
0
0
0
0
0
0
0
0
0
0
0
0
0
0
0
17.1001394495
16.2705848813
19.1696591692
18.1780772326
17.8158620985
16.0778663364
15.800827504
18.4901361688
17.1268985647
21.7361229996
20.1497977588
18.5494041006
16.52610001
19.0489954494
18.7146429968
17.3764687168
18.5748246326
17.9401007247
15.770687499
16.7445167277
17.5161072562
15.7210469442
14.4639359911
17.8375879259
19.9685278331
21.418586602
21.7341473384
18.8843563749
19.4245022844
19.3149010342
19.3527395436
17.3242474789
17.8935357349
18.1994807118
19.3401658761
19.8699332315
19.8621266767
19.6764255332
19.6802035095
20.6665607672
25.2852716343
29.962358249
31.6423689239
32.2461579845
35.0085431848
41.5285859923
44.2777247378
28.6698802022
17.2742729854
0.0401186153759
0.000140503130602
0
0
0
0
0
0
0
0
0
0
0
0
0
0
0
0
0
0
0
0
0
0
0
0
0
0
0
0
0
17.8170068789
17.0547891645
19.4687903541
19.0930280257
18.7506642449
17.4533760255
16.8871532583
19.8287665341
18.0285084297
22.1641934067
20.9586477367
19.3359539945
17.4371848987
19.7657190333
19.3619673874
18.0941721571
19.4447281935
18.9158259138
16.7551866431
18.1409087682
18.102642022
16.2928558661
15.6124085914
15.7820490891
19.425313533
20.8345689662
21.4406826553
18.7966875621
19.3804942233
19.7104288123
20.2027984569
19.5473356864
17.5772379071
18.003207502
19.4259151689
20.6665893153
21.163620895
21.343309876
21.3415493771
25.1111643972
30.7212634096
34.2260782627
35.3792502211
36.6624010512
40.1782645959
38.6191160657
24.3984798519
23.1064185652
0.131874626163
0.000375585762588
0
0
0
0
0
0
0
0
0
0
0
0
0
0
0
0
0
0
0
0
0
0
0
0
0
0
0
0
0
0
17.7208506415
17.5865071055
19.6634369591
19.1676429301
19.3560427434
18.5401674308
17.8513905294
21.1364973423
19.7457641822
22.7441256936
21.8230176113
20.1584474869
18.4376233294
20.5331600934
20.0881959707
18.9778428779
20.1362018179
19.7713444869
17.8440517805
19.0742692906
17.1634501515
16.89377231
16.5685051783
16.9761000172
17.9253242275
18.7169435813
20.5088303352
18.661434558
18.605607422
19.5961550164
20.5345454227
20.8672107057
19.2252305118
18.6752321696
19.217246221
20.372565247
21.7965862228
23.0594641716
24.6866336562
30.3642769243
35.3363428295
37.8148934526
38.1392607117
38.3219417253
33.3014615376
25.7766336666
24.6758108484
0.458073861112
0.00102612829976
0
0
0
0
0
0
0
0
0
0
0
0
0
0
0
0
0
0
0
0
0
0
0
0
0
0
0
0
0
0
0
17.8820661173
17.9769836173
19.8782783934
17.7763327166
19.5695017298
19.1055946281
18.4986016982
21.6135537192
20.4735952573
23.3789925809
22.75306814
20.9973350768
19.5419679114
21.3391189632
20.8651328155
20.0076275462
20.8666083039
20.7405650007
19.05066408
20.3918373009
18.4568197303
18.6912054868
17.7755813087
18.1872236211
19.9931268686
20.5771593155
20.0919572326
18.4904909909
17.8705593144
19.5024030277
20.499201063
20.9948133286
20.9310007042
19.7027057168
21.0652631262
21.1096529545
22.3476855085
24.7755236834
28.9422886705
35.1385388377
39.1211962787
40.2798300156
37.868357314
30.2325302574
27.8354477862
27.423932906
3.84381784101
0.00875063940374
0
0
0
0
0
0
0
0
0
0
0
0
0
0
0
0
0
0
0
0
0
0
0
0
0
0
0
0
0
0
0
0
18.5609639004
18.6358662937
20.0618610365
18.1330620762
19.7342732488
19.3675714122
18.958330122
21.6642466412
21.0055089058
23.8308754263
23.700967156
21.8045780595
20.7494801964
22.1454813689
21.6229268622
21.0191838203
21.554606557
21.8101197819
20.3130354593
21.6903607207
20.2369610034
20.9197852814
20.5478924292
18.875197618
20.4605670598
21.5634060916
21.6505550205
18.3668123389
17.0075827622
19.3845089894
20.6070558705
20.19903702
20.2499288817
19.9206551031
20.9747656372
21.4711743749
23.0682660994
26.6309403373
33.1669186892
39.5869053413
42.3543254524
40.9684413457
31.2898137988
28.5568013753
29.1867952245
21.4270834689
0.0609778954852
0.000247266721896
0
0
0
0
0
0
0
0
0
0
0
0
0
0
0
0
0
0
0
0
0
0
0
0
0
0
0
0
0
0
0
0
19.4308652816
20.812371596
20.3673850012
19.1432464405
20.2099634934
19.687846643
19.4063463501
21.6986952529
21.5141139327
23.9006184776
24.6574757871
22.5533444539
21.8257371473
22.7610550703
22.3669985173
21.7484020591
21.5587405115
22.8019529066
21.700860034
22.8119522948
22.3474208341
22.1220371626
21.8323076424
21.3596003043
20.324988278
21.2437628105
22.5818638531
17.3862335453
16.4674711044
18.4544111379
20.5816815019
20.9442156039
21.4480294758
19.8693896732
20.6610001751
21.6821323374
23.4123263327
28.3435500783
37.1315421069
43.6456421768
45.0322497449
36.9155426546
30.4189943447
31.7341935192
28.9202735353
0.413313707013
0.00105487599323
0
0
0
0
0
0
0
0
0
0
0
0
0
0
0
0
0
0
0
0
0
0
0
0
0
0
0
0
0
0
0
0
0
20.0730785254
21.4848814341
21.0176906807
20.0459768306
20.8828093579
20.2257656604
19.9315275054
21.8327540668
22.0298807601
23.6798358757
25.528774446
23.3249588665
22.4299608745
23.266249544
23.239155965
22.4142837955
21.5581796029
23.4923322952
23.2157800732
23.7808366699
23.622324757
23.6733504954
21.8757563042
21.8502963336
21.2760949504
23.0492202718
23.9040693879
20.08352861
16.0146477797
17.2771498011
19.9269690548
21.2585170606
21.3517660467
20.4813014812
20.1466123912
21.7212376534
23.3210151755
29.6866355672
40.7324549462
47.6733520604
44.5154408072
31.3068566832
32.2444187327
33.6539420122
14.1708456799
0.0121867248359
4.0954316397e-05
0
0
0
0
0
0
0
0
0
0
0
0
0
0
0
0
0
0
0
0
0
0
0
0
0
0
0
0
0
0
0
0
0
20.5642764796
21.8291896554
21.6075082988
20.6610132085
21.5642385904
20.9419061385
20.5484191243
22.1560042749
22.6195353774