/*--------------------------------*- C++ -*----------------------------------*\
| =========                 |                                                 |
| \\      /  F ield         | OpenFOAM: The Open Source CFD Toolbox           |
|  \\    /   O peration     | Version:  v1806                                 |
|   \\  /    A nd           | Web:      www.OpenFOAM.com                      |
|    \\/     M anipulation  |                                                 |
\*---------------------------------------------------------------------------*/
FoamFile
{
    version     2.0;
    format      ascii;
    class       volVectorField;
    location    "139";
    object      U;
}
// * * * * * * * * * * * * * * * * * * * * * * * * * * * * * * * * * * * * * //

dimensions      [0 1 -1 0 0 0 0];


internalField   nonuniform List<vector> 
6400
(
(-7.73060565235e-05 -0.000104970451338 0)
(-0.000215576356948 -8.43277721057e-05 0)
(-0.000318075374818 -7.1827428158e-05 0)
(-0.000441905188445 -6.61936280867e-05 0)
(-0.00052860669247 -3.82366269358e-05 0)
(-0.000587157503823 -1.3696162731e-05 0)
(-0.000602184346251 -4.99204424385e-06 0)
(-0.000607759522573 -1.84277499456e-05 0)
(-0.000690415388876 -3.42366876443e-05 0)
(-0.000781576718098 -3.17955495364e-05 0)
(-0.000790532400043 -2.79010053461e-05 0)
(-0.000876911915177 -3.4659868911e-05 0)
(-0.000949244416916 -3.13351590741e-05 0)
(-0.00100585684308 -2.25537163701e-05 0)
(-0.00103685269952 -1.77668631974e-05 0)
(-0.00107219487592 -2.24092603461e-05 0)
(-0.00112814650028 -2.38968377752e-05 0)
(-0.00117021415703 -1.89098235234e-05 0)
(-0.00118934421188 -9.7415541619e-06 0)
(-0.0011979306796 -2.479143545e-06 0)
(-0.00121622570575 -9.3146805803e-06 0)
(-0.00125292997435 -1.96382356612e-05 0)
(-0.00130232484229 -2.40282218953e-05 0)
(-0.00134799919095 -2.63426045117e-05 0)
(-0.00139404994429 -2.45168849114e-05 0)
(-0.00143628809495 -2.00332844172e-05 0)
(-0.00148068748339 -1.95507681416e-05 0)
(-0.00152192554049 -1.76269422938e-05 0)
(-0.00155277662655 -1.34288073211e-05 0)
(-0.00157501021844 -9.98208165737e-06 0)
(-0.0015879256633 -1.06265467875e-05 0)
(-0.00160717022168 -9.76248212914e-06 0)
(-0.00162623232302 -5.20108291446e-06 0)
(-0.00163535235816 -5.04903663015e-06 0)
(-0.00163884827054 -3.09976140235e-06 0)
(-0.00165481520448 -1.80254898192e-06 0)
(-0.00167189363441 -4.23201969932e-06 0)
(-0.00164790354225 -2.57039693928e-06 0)
(-0.00165695798971 4.51716427947e-07 0)
(-0.0016834874739 -4.46202568947e-06 0)
(-0.00171690645373 -2.76505863549e-05 0)
(-0.00175058167203 -3.61228653617e-05 0)
(-0.00177772869041 -1.13690674808e-05 0)
(-0.00178580342528 3.09164388018e-06 0)
(-0.00177711399568 8.73167789059e-06 0)
(-0.00176179462175 1.46492570379e-05 0)
(-0.00173738838103 1.92387958974e-05 0)
(-0.00170153409157 2.45338621133e-05 0)
(-0.00165743152371 2.68194537859e-05 0)
(-0.00161151814351 1.7552830007e-05 0)
(-0.00157466254998 -1.14745322702e-06 0)
(-0.00159742637059 3.51379038648e-07 0)
(-0.00154998176048 4.63762143031e-05 0)
(-0.00147831881873 6.14589165366e-05 0)
(-0.00136827850295 6.85089980458e-05 0)
(-0.00117867105618 8.73498423831e-05 0)
(-0.00100688570752 7.1793080468e-05 0)
(-0.000885916989438 5.45719968162e-05 0)
(-0.000784925279198 6.33869640729e-05 0)
(-0.000600654696984 6.80069013252e-05 0)
(-0.000442518942555 6.91508246276e-05 0)
(-0.000268554386077 9.38784106781e-05 0)
(-4.41547520422e-05 0.000126100801824 0)
(0.000202948677207 9.15921073189e-05 0)
(0.000331533330527 5.76870435747e-05 0)
(0.000412520050825 4.193654536e-05 0)
(0.000477826410555 3.21441084893e-05 0)
(0.000541442810783 2.69321712821e-05 0)
(0.000603556834163 2.33851894835e-05 0)
(0.000648748814326 1.75891495732e-05 0)
(0.000681372053681 9.57310646874e-06 0)
(0.000682253527359 -1.10956168143e-06 0)
(0.000653832138496 -1.51127489119e-05 0)
(0.000637095967435 -3.37378100092e-05 0)
(0.000521660384972 -3.66545485206e-05 0)
(0.000487204942431 -4.0054511122e-05 0)
(0.000340601437103 -2.78762084546e-05 0)
(0.000366484334608 -4.68096600251e-05 0)
(0.000162571755429 -3.71358428773e-05 0)
(0.000122046817007 -7.25455691408e-05 0)
(-2.76103162643e-05 -0.000141668684694 0)
(-0.000119140000381 -0.000163193085158 0)
(-0.000209760611749 -0.000153893534889 0)
(-0.000264950117698 -0.000122362623089 0)
(-0.000398512372864 -0.000122017905432 0)
(-0.0005407351055 -8.57974594081e-05 0)
(-0.000626901040617 -4.62861030036e-05 0)
(-0.000678514490096 -6.80155090596e-05 0)
(-0.000731348463295 -9.88928002496e-05 0)
(-0.000793072354298 -9.61269895195e-05 0)
(-0.000852162409418 -9.09088855161e-05 0)
(-0.000905265300973 -9.43115133357e-05 0)
(-0.000953606898774 -8.33892443595e-05 0)
(-0.000997162814202 -6.61259795158e-05 0)
(-0.00104310195858 -5.73950280551e-05 0)
(-0.00108769600602 -7.55625373004e-05 0)
(-0.00113233047157 -7.99414326211e-05 0)
(-0.00115990784649 -3.80237070107e-05 0)
(-0.00111321823964 -1.03366797385e-05 0)
(-0.00113379906887 -7.49554319161e-06 0)
(-0.00116982829464 -3.2532921802e-05 0)
(-0.00122407862268 -7.19953925518e-05 0)
(-0.00130228432868 -8.66509094046e-05 0)
(-0.00136496168321 -7.57731139883e-05 0)
(-0.00137677765409 -6.77090714929e-05 0)
(-0.00143898828994 -6.65126551865e-05 0)
(-0.00149127359924 -6.07372750615e-05 0)
(-0.00152455898699 -5.01869800214e-05 0)
(-0.00155090072306 -3.92141123718e-05 0)
(-0.00157320083264 -3.01575184369e-05 0)
(-0.00159274112016 -2.77036995597e-05 0)
(-0.0015873116282 -2.34199101243e-05 0)
(-0.00160386772317 -9.20437561911e-06 0)
(-0.00160565771845 -1.18913772183e-05 0)
(-0.00159497503862 -1.66422196568e-05 0)
(-0.00164209426985 -3.31778475313e-06 0)
(-0.00163360583481 -8.91040608664e-06 0)
(-0.00161660526846 -1.84271832448e-05 0)
(-0.00164575961702 -1.49152773489e-05 0)
(-0.00170693037152 -1.35377841296e-05 0)
(-0.00174750297481 -8.32600700239e-06 0)
(-0.0015254974677 -1.2196624467e-06 0)
(-0.00147012617995 1.76552556524e-06 0)
(-0.00148362542482 3.7629860818e-06 0)
(-0.00148478743334 6.43695221864e-06 0)
(-0.00150446335885 1.15738372001e-05 0)
(-0.00153249400301 2.0747503724e-05 0)
(-0.00153944941049 3.21579279486e-05 0)
(-0.00156072590575 4.383700821e-05 0)
(-0.00155968124716 5.09429812753e-05 0)
(-0.0015017876304 4.74095506995e-05 0)
(-0.00137674716746 4.64087276515e-05 0)
(-0.00126106925856 5.57030598931e-05 0)
(-0.0014758843963 0.000105723903126 0)
(-0.00133577541579 0.000167065943381 0)
(-0.00123717094551 0.000200697068263 0)
(-0.00123504112386 0.000206817556718 0)
(-0.00111423490425 0.000201060120127 0)
(-0.000961080390832 0.000228954474811 0)
(-0.000794194449634 0.000272174417338 0)
(-0.000597565766605 0.0003134185446 0)
(-0.000284583060301 0.000289265676593 0)
(-6.22721881898e-05 0.000372405140365 0)
(0.00019012917392 0.000285774070349 0)
(0.000324009657643 0.000183543211875 0)
(0.00039137931287 0.000116740495561 0)
(0.000448448264237 9.28043654671e-05 0)
(0.000534582041635 8.87597459326e-05 0)
(0.000600901597743 7.67005559529e-05 0)
(0.000657330260164 5.58958895616e-05 0)
(0.000683091538871 2.47601951943e-05 0)
(0.00067766669365 -1.22266615122e-05 0)
(0.000633552525989 -4.12386406542e-05 0)
(0.000631953156102 -7.3927625554e-05 0)
(0.000588916194803 -9.73758261948e-05 0)
(0.000535332508358 -0.00011267435215 0)
(0.000462568858473 -0.00011337997118 0)
(0.000381842849945 -0.00014194902962 0)
(0.00024244635164 -0.0001691968065 0)
(0.000114244390758 -0.000290096423163 0)
(-4.34807599562e-05 -0.000244224156613 0)
(-0.000117850850488 -0.000274145090039 0)
(-0.000180697702736 -0.000261905589127 -9.934993256e-29)
(-0.000327675634291 -0.000279033035815 9.80289153747e-29)
(-0.0004741565128 -0.000288074005658 9.25245596432e-29)
(-0.000551981014376 -0.000231065363882 -8.60101061519e-29)
(-0.000600326894564 -0.000111063191988 8.82604299391e-29)
(-0.000655025924457 -0.000123844513096 -8.9769701977e-29)
(-0.000712607704616 -0.000156860354292 0)
(-0.000779942684585 -0.000162909420122 0)
(-0.000846951571674 -0.000153842016139 0)
(-0.00090277984489 -0.00014245991495 0)
(-0.000951446711491 -0.000125816330952 0)
(-0.000993119118209 -0.000113710386125 0)
(-0.00103377428448 -0.000101289805802 0)
(-0.00107271729067 -7.32044431702e-05 0)
(-0.000891649158295 -3.32863291649e-05 0)
(-0.000843234634816 -1.13448888186e-05 0)
(-0.000864083685395 -2.0031412267e-05 0)
(-0.000929770073719 -6.62912561858e-05 0)
(-0.00113642610055 -0.000127484757159 0)
(-0.00126250723014 -0.000154620656432 0)
(-0.0012721583336 -0.000143693254718 0)
(-0.00133743488852 -0.000128504455513 0)
(-0.00140701679516 -0.00011999143684 0)
(-0.00144968402284 -0.000113365651364 0)
(-0.00148409933034 -9.70406102988e-05 0)
(-0.00151720687587 -7.88226094446e-05 0)
(-0.0015437119193 -6.22890226316e-05 0)
(-0.00155816677404 -4.96362986131e-05 -2.09785789592e-28)
(-0.00158550427915 -3.72736148334e-05 2.04505252652e-28)
(-0.00156311018408 -2.76089264666e-05 0)
(-0.00156394852425 -1.407260597e-05 0)
(-0.00161486736521 2.97151431555e-06 0)
(-0.00151124577374 -1.55829684855e-05 0)
(-0.00154954750563 -2.36661874949e-05 0)
(-0.00164017006752 -9.52006110043e-06 0)
(-0.00154349895609 -2.81673486501e-05 0)
(-0.00160117037794 -5.95380560251e-05 0)
(-0.00170167731842 -5.37453192389e-05 0)
(-0.00176379003017 6.05418893401e-06 0)
(-0.00177918181639 4.37784893017e-05 0)
(-0.00178710276806 2.2931622202e-05 0)
(-0.00178789526014 7.86018838096e-06 0)
(-0.00177945985955 5.97132637885e-06 0)
(-0.00176499889471 9.55956883288e-06 0)
(-0.00174593016161 2.15120905655e-05 0)
(-0.00172297638704 3.66898902516e-05 0)
(-0.00169676007701 5.55858883675e-05 0)
(-0.00166845176984 8.33722821919e-05 0)
(-0.00164013413369 0.00011199139483 0)
(-0.00160723277969 0.000122924197209 0)
(-0.00155273849234 0.000103894731235 0)
(-0.00144436330582 0.000147702220973 0)
(-0.00131787225552 0.000217463901331 0)
(-0.00130495594833 0.000256839057711 0)
(-0.00123373787354 0.00028825952904 0)
(-0.00110691941823 0.000332411873678 0)
(-0.000952714686761 0.000386966478968 0)
(-0.000777363807753 0.000454058677883 0)
(-0.000577886908494 0.000528254312098 0)
(-0.000356559817559 0.00060474950034 0)
(-0.000103503233108 0.000665942453612 0)
(0.000132743975417 0.00046111551526 0)
(0.000264562086917 0.000278997181108 0)
(0.000371731739449 0.000203878222141 0)
(0.000464901866937 0.000174658434131 0)
(0.000533098601118 0.000153716752278 0)
(0.000590837066488 0.000125400206173 0)
(0.000635003019281 8.58421707414e-05 0)
(0.000657322631474 3.81298653435e-05 0)
(0.000667729971667 -7.95367981841e-06 0)
(0.000690924765339 -4.75566217086e-05 0)
(0.000689425280596 -0.000100932072439 0)
(0.000634520092009 -0.000155757197727 0)
(0.00055766976867 -0.000185529898773 0)
(0.000470819351409 -0.000202237843808 0)
(0.000380152048902 -0.000266785132861 0)
(0.000269951339285 -0.000395317387766 0)
(7.21715145117e-05 -0.000413908243332 0)
(-4.49636803342e-05 -0.00037611112149 0)
(-4.97900549265e-05 -0.000240471665694 0)
(-0.00015134878508 -0.000406937717666 0)
(-0.000299179618748 -0.000425619749712 0)
(-0.000399954517622 -0.000354239354282 0)
(-0.000201339177179 -0.000119035980873 0)
(-0.000247190460039 -0.00011879384667 0)
(-0.000498911540324 -0.00024208308625 0)
(-0.000661047680111 -0.000272872575281 0)
(-0.000747678038036 -0.000246482893834 0)
(-0.000832455253918 -0.000225857456286 0)
(-0.00089814826931 -0.000201162143366 0)
(-0.000948318591679 -0.000172468973931 0)
(-0.000971324344269 -0.000120163040467 0)
(-0.00085875574167 -4.9228415801e-05 0)
(-0.000782597994432 -5.11991250405e-06 0)
(-0.000773324054026 1.96852645086e-06 0)
(-0.000827515098262 -4.16058109919e-05 0)
(-0.000976261282999 -0.000118354781506 0)
(-0.00116441842937 -0.000213208880731 0)
(-0.00120408573067 -0.000236944831353 0)
(-0.00124877916316 -0.00021727170869 0)
(-0.00131101778362 -0.00020023025713 0)
(-0.00136233727994 -0.000187923700719 0)
(-0.00140405332415 -0.000169942612424 0)
(-0.00144005803492 -0.000148915535685 0)
(-0.00146901587807 -0.000128135954251 0)
(-0.0015105381921 -0.000106392771227 0)
(-0.00152215820612 -8.42733807967e-05 0)
(-0.00156131445805 -6.49596449413e-05 0)
(-0.00153859830605 -4.59667321274e-05 0)
(-0.0015817846571 -2.44079788227e-05 0)
(-0.001511555092 6.53687406821e-07 0)
(-0.00151508007241 4.22034543135e-06 0)
(-0.0016017327399 -1.06290893626e-05 0)
(-0.00151262456558 -4.0225386095e-05 0)
(-0.00159365270472 -5.32625317739e-05 0)
(-0.00170506898194 -7.24695632326e-05 0)
(-0.00173331019214 -0.000104166296489 0)
(-0.00174290618386 -8.86215413944e-05 0)
(-0.00175785641572 -3.42335657004e-05 0)
(-0.00177328268322 7.06404185717e-06 0)
(-0.00178342912655 1.49356839027e-05 0)
(-0.00178546746363 1.4687979269e-05 0)
(-0.00177889725822 1.91823773303e-05 0)
(-0.00176616586896 2.89512028602e-05 2.2065422737e-28)
(-0.00174883909738 4.39356093921e-05 -2.22162018164e-28)
(-0.00172760767572 6.25252505875e-05 0)
(-0.00170283472504 8.47034095227e-05 0)
(-0.00167478812972 0.000110844770489 0)
(-0.0016428211744 0.000137232255087 0)
(-0.00160201537149 0.000160950836367 0)
(-0.00154490320969 0.0001904525909 0)
(-0.00147250454425 0.000242285268117 0)
(-0.00139836027677 0.000289217272971 0)
(-0.00132274419459 0.000331648442426 0)
(-0.00122774397344 0.000398070048087 0)
(-0.00110037427527 0.000476447495101 4.0599830265e-28)
(-0.000941057620881 0.000560769560618 -4.52287884275e-28)
(-0.000756018818099 0.000650645760864 0)
(-0.00055213883286 0.000737076994523 0)
(-0.000341882453299 0.000810727541218 0)
(-0.000151883003641 0.000835653499964 0)
(6.26128883855e-05 0.00066343965831 0)
(0.000255638920097 0.000446084346018 0)
(0.000363975786106 0.000304580620606 0)
(0.000449035413452 0.000246544794445 0)
(0.000527851574734 0.00021444672168 0)
(0.000593615967714 0.000175741162721 0)
(0.000657223312317 0.000126846698959 0)
(0.000707234897166 7.20532337556e-05 0)
(0.000743341015658 1.54788041261e-05 0)
(0.000738941620677 -5.98004090412e-05 0)
(0.000659149561941 -0.000145127307654 0)
(0.000593335549373 -0.000217175341939 0)
(0.000526130873054 -0.000276848095812 0)
(0.00042229369954 -0.000316758804915 0)
(0.000261600483058 -0.000320132860591 0)
(0.0001947764088 -0.00046213476461 0)
(6.68514057631e-05 -0.000560910208388 0)
(-1.71692390021e-06 -0.000364241567927 0)
(-2.17475596579e-05 -0.000294267205333 0)
(-0.000144035996601 -0.000553596236214 0)
(-0.000253457391064 -0.000505729334345 0)
(-0.000242863698677 -0.000299042780982 0)
(-0.000182784548783 -0.000156483456312 0)
(-0.000318894217003 -0.000273217999179 0)
(-0.000543875242732 -0.000433859322866 0)
(-0.000620561556238 -0.000392055942804 0)
(-0.000715388974643 -0.000340389115283 0)
(-0.000802484516709 -0.000312985218709 0)
(-0.000870047997784 -0.000263599876233 0)
(-0.000841828880145 -0.000152234086352 0)
(-0.000729011457281 -5.1692923609e-05 0)
(-0.000741723146243 -1.24621538021e-05 0)
(-0.000790225331625 -2.08120637587e-05 0)
(-0.00088785162561 -7.44205109349e-05 0)
(-0.00103388737188 -0.00017123389969 0)
(-0.00115022631704 -0.000254458227329 0)
(-0.00114954765667 -0.000265763805706 0)
(-0.00119334980304 -0.000271840147412 0)
(-0.00126284095825 -0.000274963265018 0)
(-0.00131199848311 -0.000257273367092 0)
(-0.0013571386616 -0.000232120324813 0)
(-0.00139505610811 -0.000206684821863 0)
(-0.00142441449961 -0.000184071695686 0)
(-0.00146963302231 -0.00015876529524 0)
(-0.00147275959682 -0.000130868877242 0)
(-0.00152995305736 -0.000104902351835 0)
(-0.00149520330243 -7.5552624603e-05 0)
(-0.00156771596122 -4.9452431208e-05 -1.98318701815e-28)
(-0.00146090888825 -2.03732309317e-05 1.76550871568e-28)
(-0.00153781566008 -5.38483962115e-06 0)
(-0.00159408049257 -3.52842134422e-07 0)
(-0.00152010534678 -2.56975633321e-05 0)
(-0.00163725192203 -7.9076602618e-05 0)
(-0.00168509024656 -0.000125117533815 0)
(-0.00172130260314 -0.000129302246789 0)
(-0.00173943483271 -0.000116266245486 0)
(-0.00174838339963 -8.97597677117e-05 0)
(-0.0017614116998 -4.82183418417e-05 0)
(-0.00177554638938 -1.15428649473e-05 0)
(-0.00178489259993 7.25692741012e-06 0)
(-0.00178698949807 1.77577502528e-05 0)
(-0.00178155323938 2.92007031769e-05 0)
(-0.00177035586912 4.41972018671e-05 0)
(-0.00175452843514 6.314700851e-05 0)
(-0.00173457657324 8.55215280875e-05 0)
(-0.00171054528197 0.000111524690266 0)
(-0.0016820515233 0.000141545966602 0)
(-0.001647930915 0.000174719185615 0)
(-0.00160507537944 0.000211018694039 0)
(-0.00155027964963 0.000253800776506 0)
(-0.00148450440586 0.000306113874357 0)
(-0.0014121844202 0.000361281791034 0)
(-0.00133109944784 0.000427825868688 0)
(-0.00122985714405 0.000518221803083 0)
(-0.00109782997953 0.000626061865483 0)
(-0.000932185026667 0.000738810145401 0)
(-0.000741095382467 0.000846748656733 0)
(-0.000538920836973 0.000939927778635 0)
(-0.000345367687437 0.00100872870212 0)
(-0.000193837509532 0.00100496750202 0)
(1.26447666789e-05 0.000889485632466 0)
(0.00024285794637 0.000638195292697 0)
(0.000369018635211 0.00043085570439 0)
(0.000463190444924 0.000337751101427 0)
(0.000542037218931 0.000285958692757 0)
(0.000610550858355 0.000236683736799 0)
(0.000683894881024 0.000183788123588 0)
(0.000760909552673 0.000119629265445 0)
(0.00078387434012 1.70441375019e-05 0)
(0.00070588069883 -0.000105808826947 0)
(0.000647957397228 -0.000208384366729 0)
(0.00059188177952 -0.000298409136793 0)
(0.000513562502652 -0.000383957503101 0)
(0.000384673261137 -0.000414303581899 0)
(0.000262593501929 -0.000435330969281 0)
(0.000182193605472 -0.000606538314734 0)
(5.20332663541e-05 -0.00066136743369 0)
(2.51594104432e-06 -0.000335375315447 0)
(-3.09257720988e-05 -0.000361472936931 0)
(-0.000149055640132 -0.000630557192828 0)
(-0.000198493761891 -0.000491793210678 0)
(-0.00013802336565 -0.000222531284601 0)
(-0.000185718985091 -0.00022782228659 0)
(-0.000437233105669 -0.000481015304158 0)
(-0.000535413520118 -0.000528047856339 0)
(-0.000595396357282 -0.000475229336331 0)
(-0.000673805145943 -0.000428287730593 0)
(-0.000748514771902 -0.000358174652074 0)
(-0.000646233016819 -0.000208412664176 0)
(-0.000574125038949 -8.85686227083e-05 0)
(-0.00062438198272 -5.57591042454e-05 0)
(-0.000686483689056 -6.90759842126e-05 0)
(-0.000818776695901 -0.000129746733229 0)
(-0.00098404615991 -0.000219196096932 0)
(-0.00110073225828 -0.000275868650053 0)
(-0.0010705309498 -0.000267272824459 0)
(-0.00112876423387 -0.000298435400681 0)
(-0.00121306074451 -0.000335281787959 0)
(-0.00126030344923 -0.000329078767664 0)
(-0.00130354377138 -0.000304019658958 0)
(-0.00134059019841 -0.000275081517387 0)
(-0.00139217399226 -0.000247960815609 0)
(-0.00142235108836 -0.000210931348183 0)
(-0.00140170945934 -0.000180804260744 0)
(-0.00149254578129 -0.000157072821886 0)
(-0.00142411003408 -0.000114274050867 0)
(-0.00153630643027 -7.88994854119e-05 0)
(-0.00138043226508 -3.61211639532e-05 0)
(-0.0015191845336 -2.86896835383e-05 0)
(-0.00139531664232 -2.646415763e-05 0)
(-0.0015061061524 -3.59095370254e-05 0)
(-0.00162350097985 -8.45383177274e-05 0)
(-0.0016791500484 -0.000146007675051 0)
(-0.00170768324938 -0.00016058178684 0)
(-0.00172798836754 -0.00015004955433 0)
(-0.00174165094201 -0.000128151346711 0)
(-0.00175354648883 -9.86229266275e-05 0)
(-0.00176645856372 -6.17609675618e-05 0)
(-0.00177922778329 -2.63490910595e-05 0)
(-0.0017880647072 -3.00985108545e-07 0)
(-0.00179029057029 1.91937687687e-05 0)
(-0.00178596186133 3.7700143239e-05 0)
(-0.00177596861383 5.80986680087e-05 0)
(-0.00176135686328 8.14000556106e-05 0)
(-0.00174227700596 0.000107925733247 0)
(-0.00171833266851 0.000138331064205 0)
(-0.00168903217398 0.000173385361361 0)
(-0.00165355560423 0.000213471053195 0)
(-0.00161026163665 0.000259208243544 0)
(-0.00155774915015 0.00031172778133 0)
(-0.00149617355806 0.000371567744676 0)
(-0.0014256044135 0.000439909029362 0)
(-0.0013417846499 0.000526986077302 0)
(-0.0012357313203 0.000641587770478 0)
(-0.00110062583926 0.000777216666677 0)
(-0.000937158590572 0.000918297909106 0)
(-0.000748085006984 0.00104067295859 0)
(-0.000557143413975 0.00113118846831 0)
(-0.000385870194866 0.00115754342566 0)
(-0.000208912393367 0.00104285452461 0)
(-2.96820304699e-05 0.0011701692615 0)
(0.000199207527386 0.000808572989819 0)
(0.000338286603485 0.000550028308131 0)
(0.000458168891189 0.000433441568523 0)
(0.000561746246649 0.000365758690865 0)
(0.000646148557131 0.000308826973051 0)
(0.000749211349184 0.000255867820533 0)
(0.000825264013654 0.000151349603395 0)
(0.000771611733611 -1.42263838519e-05 0)
(0.000705860043321 -0.000154598669639 0)
(0.000673758598829 -0.000269741341166 0)
(0.000608722480088 -0.000381809687785 0)
(0.000530091499472 -0.000491799740281 0)
(0.000388793288076 -0.000505569121621 0)
(0.000278509245744 -0.000543118755034 0)
(0.000191132915313 -0.000726181985562 0)
(5.8626405055e-05 -0.000765357223525 0)
(-1.16259926796e-05 -0.000364044480943 0)
(-8.22021421808e-05 -0.000484839809845 0)
(-0.000204130994955 -0.000687571565708 0)
(-0.000216787421518 -0.000616892215922 0)
(-0.000129014613357 -0.000274797943542 0)
(-0.000284932535776 -0.000424423791364 0)
(-0.000479376523213 -0.000612244130251 0)
(-0.000516233435917 -0.000588336814509 0)
(-0.000576089189153 -0.000533717420426 0)
(-0.000597265072936 -0.000467548422451 0)
(-0.000702146483898 -0.000371990637329 4.03722890495e-28)
(-0.000494922287706 -0.000141938285204 -2.10327686177e-28)
(-0.000581156792626 -0.000113521791968 0)
(-0.000614431311477 -0.000118049928203 0)
(-0.000724414132527 -0.000178775821817 0)
(-0.000904007088639 -0.000290195134769 0)
(-0.00103277549752 -0.000337345933548 0)
(-0.000971825158492 -0.000281344423819 0)
(-0.00103862218906 -0.000306336152489 0)
(-0.00115326525399 -0.000376999585771 0)
(-0.00120021700022 -0.00039433236064 0)
(-0.00125131041975 -0.000377023188498 0)
(-0.00129691470971 -0.000348811678092 0)
(-0.00133768727107 -0.000313858375534 0)
(-0.00135605146878 -0.00027012493642 0)
(-0.00134726577327 -0.000222144405446 0)
(-0.00142509485266 -0.000199974632653 0)
(-0.00133571289826 -0.000166544272482 0)
(-0.0014827176985 -0.000128962761866 0)
(-0.00131554258164 -5.30743388725e-05 0)
(-0.00146043885662 -4.23464001418e-05 0)
(-0.00136141593914 -5.05064397135e-05 1.64048750328e-28)
(-0.00148424290695 -5.73762173126e-05 -1.81526286754e-28)
(-0.00150539360669 -0.000114572931686 0)
(-0.00166693518766 -0.000177814633962 0)
(-0.00169678134501 -0.000191848325562 0)
(-0.0017141333562 -0.000183359597729 0)
(-0.00172952703693 -0.000165076649052 0)
(-0.00174531591118 -0.000140292783013 0)
(-0.00175974236037 -0.000109947981393 0)
(-0.00177271343432 -7.45236847487e-05 0)
(-0.0017848175943 -3.86536042491e-05 0)
(-0.00179326741362 -7.27523843022e-06 0)
(-0.00179574223159 1.96043117715e-05 0)
(-0.00179216428229 4.4826663199e-05 0)
(-0.00178319823879 7.07834426945e-05 0)
(-0.00176945482353 9.88820894542e-05 0)
(-0.00175066611014 0.000130138233483 0)
(-0.00172624745965 0.000165597234739 0)
(-0.0016959606959 0.000206244692946 0)
(-0.00165957466593 0.000252838742584 0)
(-0.00161641766301 0.000306015129323 0)
(-0.00156586825778 0.000366424322742 0)
(-0.00150732388448 0.000435618493781 0)
(-0.00143880822875 0.00051887184011 0)
(-0.00135534796813 0.000626631536384 0)
(-0.00124991201966 0.000764709165322 0)
(-0.00111793501462 0.000924951950253 0)
(-0.000959322782641 0.00108769302947 0)
(-0.000782197462513 0.00122452632983 0)
(-0.000607482201067 0.00129755428912 0)
(-0.000453969837033 0.00130856945572 0)
(-0.000292413610996 0.00134961981112 0)
(-0.000127789061706 0.00134259700361 0)
(0.000119266324872 0.000984330212183 0)
(0.000308721507959 0.000679597529689 0)
(0.000475388476191 0.000571134283004 0)
(0.000621387622807 0.000491467976909 0)
(0.000736670354772 0.000415441555307 0)
(0.000834749670332 0.000317944402212 0)
(0.00085006886722 0.000141511695395 0)
(0.000779769509272 -4.98494498436e-05 0)
(0.000756968025394 -0.000197050523762 0)
(0.000718241853875 -0.000329335967399 0)
(0.000656931933295 -0.000469340995252 0)
(0.000555867137539 -0.000572351827206 0)
(0.000443531019525 -0.000627537721219 0)
(0.000303264164399 -0.000659393373343 0)
(0.000204685132048 -0.000837955667995 0)
(7.09902159517e-05 -0.000904475409964 0)
(-2.52274828572e-05 -0.000426178925168 0)
(-0.000125803050587 -0.000615144632744 0)
(-0.000235357459148 -0.000705325456145 0)
(-0.000126717627367 -0.000372405850118 0)
(-0.000135036315698 -0.00034673421242 0)
(-0.000360004354887 -0.000634176604858 0)
(-0.000444003808217 -0.000673391390833 0)
(-0.000504501292998 -0.000647657010803 0)
(-0.000520990918519 -0.000557883072904 0)
(-0.000577566291351 -0.000494045350922 0)
(-0.000431633865559 -0.00025163724722 0)
(-0.000500559380584 -0.000169586369388 0)
(-0.000567524195134 -0.000166378997171 0)
(-0.000613773780152 -0.000199378921895 0)
(-0.0008005321712 -0.000326157479835 0)
(-0.000955574454857 -0.000408187226384 0)
(-0.000888991923837 -0.000333502621449 0)
(-0.000936155777445 -0.000321919100755 0)
(-0.00106654431613 -0.00040039786066 0)
(-0.00114564340878 -0.000447793748277 0)
(-0.00118318693296 -0.000443347421972 0)
(-0.00122334060916 -0.000421471190118 0)
(-0.00128159739998 -0.000397708689136 0)
(-0.00131858791849 -0.000354949832427 0)
(-0.00137211951232 -0.000288722051126 0)
(-0.00131476163505 -0.000243084388452 0)
(-0.00142083327475 -0.000211320108756 0)
(-0.00137109797191 -0.000164232575193 0)
(-0.00132266343166 -0.000116157954325 0)
(-0.0013500658109 -8.42120129175e-05 0)
(-0.00151149612003 -7.51471096856e-05 0)
(-0.00143099298944 -6.04913198955e-05 0)
(-0.00142110391499 -0.000121382427569 0)
(-0.00164533281798 -0.000213317549579 0)
(-0.00167228782976 -0.00024382880626 0)
(-0.00169822378812 -0.000224485494711 0)
(-0.00171663372506 -0.000202244108111 0)
(-0.00173244156957 -0.000180281892229 0)
(-0.0017498384475 -0.000154574207231 0)
(-0.00176650975819 -0.000123325842587 0)
(-0.00178042495761 -8.73349049007e-05 0)
(-0.00179207627058 -4.97724053418e-05 0)
(-0.00180039288941 -1.38722107055e-05 0)
(-0.00180338190085 1.93597631462e-05 0)
(-0.001800535789 5.09634391128e-05 2.13577414117e-28)
(-0.00179235617159 8.26451075098e-05 -2.13015632428e-28)
(-0.00177901114906 0.000116079989219 0)
(-0.00175988568658 0.000152727684583 0)
(-0.00173440853039 0.000193735370769 0)
(-0.00170280217065 0.000240018775613 0)
(-0.00166544059947 0.000292383807807 0)
(-0.00162239007509 0.000351638422697 0)
(-0.00157358066332 0.000419073170297 0)
(-0.00151809454883 0.000497954679759 0)
(-0.00145313663385 0.000595492579559 0)
(-0.00137407863844 0.000721380170546 0)
(-0.00127582940433 0.000879703666028 0)
(-0.00115471254444 0.00106291765856 0)
(-0.00100897579813 0.00125106245243 0)
(-0.000841287216813 0.00139696351176 0)
(-0.000674418725036 0.00144711876777 0)
(-0.000532213855009 0.00146535266047 0)
(-0.000387086331826 0.00148473055349 0)
(-0.000240680591869 0.00147618971378 0)
(-4.0609354703e-06 0.00139782690304 0)
(0.000278215065065 0.000874051415241 0)
(0.000499410886397 0.000741079669008 0)
(0.000687751995242 0.000634675160593 0)
(0.000813011785551 0.000508011783936 0)
(0.000887139897592 0.000342458003185 0)
(0.000874722618522 0.000121132877734 0)
(0.000837984236389 -7.44412396094e-05 0)
(0.000828415453157 -0.000232797296402 0)
(0.000785805664399 -0.000389014158552 0)
(0.000724827292932 -0.000550033942764 0)
(0.000616543403326 -0.000662863376382 0)
(0.00051453864509 -0.000762457475053 0)
(0.000350644013088 -0.000816585112875 0)
(0.000213175160878 -0.000962161373948 0)
(7.51285551774e-05 -0.00106791002301 0)
(-3.73535685214e-05 -0.000508977180279 0)
(-0.000152514571651 -0.000730524530968 0)
(-0.000196106591308 -0.000712482087932 0)
(-0.000122324110808 -0.00040794034402 0)
(-0.000203881459847 -0.000476758656063 0)
(-0.000390408771035 -0.000741551929428 0)
(-0.000406087889329 -0.000728786498167 0)
(-0.000493055302836 -0.000700731181686 0)
(-0.000433446005 -0.000529921203906 0)
(-0.000595354560125 -0.000552903986437 0)
(-0.000422636641279 -0.000269615551226 0)
(-0.000519729333443 -0.000233411739801 0)
(-0.000564275032777 -0.000233100448226 0)
(-0.000672806239495 -0.000323695109513 0)
(-0.000855217914323 -0.000471789089146 0)
(-0.000940684075636 -0.00046443420704 0)
(-0.000865806989562 -0.000359827883526 0)
(-0.000959081691451 -0.000405351456531 0)
(-0.00106560674401 -0.000485474700768 0)
(-0.00112323167805 -0.000505584235932 0)
(-0.00117347725748 -0.000489929839808 0)
(-0.00119712765665 -0.000458446313763 0)
(-0.00124472823923 -0.000430927506294 0)
(-0.00125148351489 -0.00038178461392 0)
(-0.00123898537674 -0.000290609071037 0)
(-0.00135894182754 -0.000263051737788 0)
(-0.00121894774761 -0.000219365236595 0)
(-0.0014578946554 -0.000182859702155 0)
(-0.00129231767759 -0.000136037660848 0)
(-0.00151204602542 -0.000139023422057 0)
(-0.0013383294919 -0.000100061649929 0)
(-0.00154730598167 -0.000109892628442 0)
(-0.00159423758312 -0.000200927820854 2.09924342688e-28)
(-0.00165618615982 -0.000280313593054 -2.2530440187e-28)
(-0.00167691511806 -0.000275984550056 0)
(-0.00169840148492 -0.000249348340157 0)
(-0.00171974566942 -0.000222517659072 0)
(-0.00173745282412 -0.000197563284395 0)
(-0.00175544685939 -0.000170641483802 0)
(-0.00177319070219 -0.000138393702497 0)
(-0.00178865541347 -0.00010086214078 0)
(-0.00180106234757 -6.06791028866e-05 0)
(-0.00180965509007 -2.04885477022e-05 0)
(-0.00181329104881 1.84634437494e-05 0)
(-0.00181145553941 5.63100657104e-05 0)
(-0.00180391390157 9.41223277057e-05 0)
(-0.00179035362133 0.000133557396995 0)
(-0.00177017117391 0.000176265718819 0)
(-0.00174303985701 0.000223254393201 0)
(-0.00170952848088 0.000275073125091 0)
(-0.00167064166625 0.000332424333976 0)
(-0.00162729832446 0.00039653118732 0)
(-0.00158014439731 0.000469776720225 0)
(-0.00152843875916 0.000556948613774 0)
(-0.00146940029153 0.000665916397684 0)
(-0.00139911421675 0.000805300089101 0)
(-0.00131362349529 0.000978989922721 0)
(-0.00120987751505 0.00118243118012 0)
(-0.00108808248045 0.00139751135116 0)
(-0.000946905834614 0.00155953471757 0)
(-0.000803709150119 0.00158831181132 0)
(-0.000672842102386 0.00159703660963 0)
(-0.000515753908971 0.00164050242043 0)
(-0.00032130071196 0.00166475621921 0)
(-0.000111665643444 0.00159690002307 0)
(0.000224146153557 0.00127048846483 0)
(0.000521519682656 0.000888832573683 0)
(0.000785247542011 0.000809184151313 0)