/*--------------------------------*- C++ -*----------------------------------*\
| =========                 |                                                 |
| \\      /  F ield         | OpenFOAM: The Open Source CFD Toolbox           |
|  \\    /   O peration     | Version:  v1806                                 |
|   \\  /    A nd           | Web:      www.OpenFOAM.com                      |
|    \\/     M anipulation  |                                                 |
\*---------------------------------------------------------------------------*/
FoamFile
{
    version     2.0;
    format      ascii;
    class       volVectorField;
    location    "139";
    object      Ua;
}
// * * * * * * * * * * * * * * * * * * * * * * * * * * * * * * * * * * * * * //

dimensions      [0 1 -1 0 0 0 0];


internalField   nonuniform List<vector> 
6400
(
(3.34276952649e-05 4.69420758238e-05 0)
(9.45019747242e-05 3.84412560753e-05 0)
(0.000139932926213 3.34837232771e-05 0)
(0.000194998735529 3.19256067885e-05 0)
(0.000234387422677 2.02951291915e-05 0)
(0.000261597731175 9.58628089036e-06 0)
(0.00026946233381 5.34177433292e-06 0)
(0.000272594512685 1.11231635098e-05 0)
(0.000310446748485 1.92654831518e-05 0)
(0.000353847118542 1.90296179994e-05 0)
(0.000359880131205 1.66546247409e-05 0)
(0.000400797696566 2.03746106151e-05 0)
(0.000436361217176 1.9637799627e-05 0)
(0.000465400618717 1.60694959715e-05 0)
(0.000483088942281 1.38770691073e-05 0)
(0.000503072791296 1.61848044687e-05 0)
(0.000533304655769 1.73544312105e-05 0)
(0.000557678452535 1.54306544158e-05 0)
(0.000571591706745 1.12730416116e-05 0)
(0.000580744213427 8.04322044782e-06 0)
(0.000595122551903 1.18461270734e-05 0)
(0.000619260652992 1.75442162602e-05 0)
(0.000650336010222 2.02886584629e-05 0)
(0.000679971094141 2.18382693689e-05 0)
(0.000710119416352 2.12574822328e-05 0)
(0.000738772227467 1.93997549821e-05 0)
(0.00076920215511 1.97854697051e-05 0)
(0.000798945867577 1.95076387941e-05 0)
(0.000824197343579 1.78959117308e-05 0)
(0.000845750520057 1.64594198218e-05 0)
(0.000863017328351 1.71529714094e-05 0)
(0.0008844596927 1.72665137399e-05 0)
(0.000906968852788 1.56129492086e-05 0)
(0.000925451037783 1.64721297444e-05 0)
(0.000941847043736 1.61381886928e-05 0)
(0.000966580913435 1.65909326965e-05 0)
(0.000994136303263 1.90875714655e-05 0)
(0.000997360889801 1.78502527041e-05 0)
(0.0010200593686 1.66654191761e-05 0)
(0.00105524527589 2.10228249589e-05 0)
(0.00109695654915 3.72144492953e-05 0)
(0.00113917964411 4.33199554103e-05 0)
(0.00117666079648 2.75905889455e-05 0)
(0.00120173258708 1.79106606717e-05 0)
(0.00121546092699 1.38789209979e-05 0)
(0.00122437778969 9.58343611483e-06 0)
(0.00122664195881 5.96432221282e-06 0)
(0.00122005681861 1.41020207225e-06 0)
(0.00120643644524 -1.30946030752e-06 0)
(0.00119033990617 4.28586279384e-06 0)
(0.00117906267198 1.77432544266e-05 0)
(0.00121276348525 1.84553404558e-05 0)
(0.00119389438211 -1.65139487457e-05 0)
(0.00115627640429 -2.79843300185e-05 0)
(0.00109012175354 -3.51581669464e-05 0)
(0.000958304875884 -5.34296724536e-05 0)
(0.000839937838353 -4.25304725654e-05 0)
(0.000768129543682 -2.62891693887e-05 0)
(0.000724788010014 -2.95080801731e-05 0)
(0.000614306290826 -3.16901076776e-05 0)
(0.000544010562893 -2.37232147115e-05 0)
(0.000471877827428 -3.51898855651e-05 0)
(0.000417563692994 -5.97158257929e-05 0)
(0.000266363196237 -4.67160871876e-05 0)
(0.000180639552357 -3.03766152338e-05 0)
(0.000130981234977 -2.20023462749e-05 0)
(9.53141702174e-05 -1.94330246902e-05 0)
(6.276922398e-05 -1.85055577012e-05 0)
(2.84049172612e-05 -1.83881372738e-05 0)
(-7.80469349855e-06 -1.78301446764e-05 0)
(-4.27341721734e-05 -1.60113217715e-05 0)
(-7.12115420065e-05 -1.24388346573e-05 0)
(-8.93280340884e-05 -7.70027063121e-06 0)
(-0.000103879555758 -1.92729426739e-06 0)
(-9.63904794378e-05 1.85971155184e-06 0)
(-9.87170336694e-05 4.62762306033e-06 0)
(-7.37422913622e-05 3.999884282e-06 0)
(-8.32903069277e-05 9.24075481432e-06 0)
(-3.80949933466e-05 8.20003701287e-06 0)
(-2.89280256387e-05 1.6840597996e-05 0)
(1.21285728024e-05 6.34695751627e-05 0)
(5.27053376437e-05 7.3038140243e-05 0)
(9.28856296016e-05 6.92711578746e-05 0)
(0.000117697447255 5.51628435617e-05 0)
(0.000176908336814 5.5207549863e-05 0)
(0.000240096249853 3.91675154551e-05 0)
(0.000279167305092 2.16377744221e-05 0)
(0.000303727740961 3.19346581648e-05 0)
(0.0003292457381 4.64698891166e-05 0)
(0.000358828784705 4.55843169671e-05 0)
(0.00038760813748 4.3590747801e-05 0)
(0.000413940424479 4.55861233904e-05 0)
(0.00043831300008 4.13203944406e-05 0)
(0.000460927789073 3.40943406342e-05 0)
(0.000485286954083 3.06375337155e-05 0)
(0.000509898827958 4.01140811531e-05 0)
(0.000534888241405 4.32384924489e-05 0)
(0.000552533466396 2.43742357268e-05 0)
(0.000534629857359 1.15610456908e-05 0)
(0.000548965121022 1.07677216376e-05 0)
(0.000571974187922 2.34900787783e-05 0)
(0.000604742476167 4.35833811799e-05 0)
(0.000649885825242 5.17064288803e-05 0)
(0.000688246584891 4.69203075552e-05 0)
(0.000700947861468 4.3127644493e-05 0)
(0.000739448181213 4.34079336056e-05 0)
(0.000774064573097 4.15932428128e-05 0)
(0.000799626708145 3.72803610316e-05 0)
(0.000822331765276 3.27089359335e-05 0)
(0.000843716277387 2.90813079636e-05 0)
(0.000864710855031 2.90367773045e-05 0)
(0.000872706559832 2.79762485557e-05 0)
(0.000893426858854 2.17359149976e-05 0)
(0.000907827111807 2.52539145722e-05 0)
(0.000915850516868 2.98208015732e-05 0)
(0.0009584281242 2.42056346397e-05 0)
(0.000970988659197 2.86217446007e-05 0)
(0.000978057049187 3.47347327606e-05 0)
(0.00101286517277 3.38097165132e-05 0)
(0.00106926001897 3.50222507495e-05 0)
(0.00111787159506 3.27800902437e-05 0)
(0.00099427865423 2.40521033799e-05 0)
(0.000973048806702 2.05870182527e-05 0)
(0.00099837760854 1.94653061694e-05 0)
(0.00101570740739 1.76635925538e-05 0)
(0.0010456896301 1.42075806321e-05 0)
(0.00108222982992 7.77772580321e-06 0)
(0.00110402470695 -8.91704917374e-07 0)
(0.00113613484109 -9.83525115373e-06 0)
(0.00115261913957 -1.59910734288e-05 0)
(0.00112660659469 -1.50487187372e-05 0)
(0.00104764083382 -1.68293019331e-05 0)
(0.000970186666414 -2.47487254843e-05 0)
(0.00115228040505 -5.81646147533e-05 0)
(0.00106270798997 -0.000106566808917 0)
(0.0010010112743 -0.000132037301853 0)
(0.00102683695849 -0.000128627463852 0)
(0.000965623722765 -0.000112576875765 0)
(0.00088410288808 -0.000122389012223 0)
(0.000802804797813 -0.000140151476856 0)
(0.000718395857643 -0.00015289890304 0)
(0.000476990401924 -0.000136082029696 0)
(0.000436054849573 -0.000178113278643 0)
(0.000274373092775 -0.000144424904269 0)
(0.000187686827261 -0.000100410085046 0)
(0.000127548291707 -6.88467396297e-05 0)
(8.79047443606e-05 -5.49270840575e-05 0)
(5.73462104881e-05 -5.3993617788e-05 0)
(2.28330321677e-05 -5.52210224579e-05 0)
(-1.32286803437e-05 -5.5267347976e-05 0)
(-4.79379956928e-05 -4.93286487732e-05 0)
(-7.57344887479e-05 -3.70094059228e-05 0)
(-9.18416197724e-05 -2.26724076182e-05 0)
(-0.000108568819159 -1.00787984724e-05 0)
(-0.000113986459007 1.33325320813e-06 0)
(-0.000113105803305 1.06152876346e-05 0)
(-0.000104464212552 1.62029309442e-05 0)
(-9.04271418532e-05 2.77168505165e-05 0)
(-5.90306692512e-05 3.78237634478e-05 0)
(-2.79232775234e-05 6.856875382e-05 0)
(1.89349961876e-05 0.000109757911223 0)
(5.19478036705e-05 0.00012264080321 0)
(7.92215852779e-05 0.000118537026506 8.6780459172e-29)
(0.000144606847744 0.00012662701648 -8.56263213847e-29)
(0.000210132824309 0.000131165937888 -8.08096545885e-29)
(0.000244600784751 0.000105903446319 7.51199762807e-29)
(0.000266111006089 5.36507209299e-05 -7.70725977516e-29)
(0.000291587767784 6.036718838e-05 7.83905275735e-29)
(0.000319541943781 7.59398571241e-05 0)
(0.000351708371314 7.93357692062e-05 0)
(0.000383923912389 7.58458276317e-05 0)
(0.000411325207851 7.14520491304e-05 0)
(0.000435721550959 6.49218209644e-05 0)
(0.00045749014665 6.0805518619e-05 0)
(0.000478986499208 5.69480295242e-05 0)
(0.000501715337887 4.58882909357e-05 0)
(0.000420546028863 2.62279847301e-05 0)
(0.000400229750339 1.57005631206e-05 0)
(0.000413642292069 2.05203663362e-05 0)
(0.00044920123363 4.42691020117e-05 0)
(0.000554209298768 7.77623350293e-05 0)
(0.000622830222925 9.37486351148e-05 0)
(0.000634055990028 8.87788529497e-05 0)
(0.000672523636713 8.21780793301e-05 0)
(0.00071439186963 7.93422855896e-05 0)
(0.000743316196044 7.74524577561e-05 0)
(0.000768405512966 7.08563613125e-05 0)
(0.000793572853088 6.34590364444e-05 0)
(0.000816262536397 5.6847065237e-05 0)
(0.000833304206744 5.21794269762e-05 1.81618974603e-28)
(0.000858331253525 4.77149167224e-05 -1.7704743615e-28)
(0.000857234113131 4.40780275796e-05 0)
(0.000868536847598 3.95974513176e-05 0)
(0.000910523770707 3.45961329667e-05 0)
(0.00086665431889 4.57689526653e-05 0)
(0.000902639493118 5.4363688903e-05 0)
(0.000973255213647 5.05503444562e-05 0)
(0.000933416432741 5.93995859091e-05 0)
(0.00098520300693 8.10674904868e-05 0)
(0.00106617665113 8.30046981191e-05 0)
(0.00112512719949 4.75028671254e-05 0)
(0.00115545827 2.19019625515e-05 0)
(0.0011815901664 3.38212447511e-05 0)
(0.00120295411758 4.35221028522e-05 0)
(0.00121784469524 4.46476224704e-05 0)
(0.00122829857724 4.17331035311e-05 0)
(0.00123501499612 3.24867877425e-05 0)
(0.00123829174919 2.03288415969e-05 0)
(0.00123830106252 4.83430471497e-06 0)
(0.00123556040421 -1.77877916084e-05 0)
(0.00123163956625 -4.16274791524e-05 0)
(0.00122367542178 -5.20890822062e-05 0)
(0.00119947287093 -3.77754008313e-05 0)
(0.00113193791623 -7.2331622515e-05 0)
(0.00104665311302 -0.000126742622102 0)
(0.00105501413575 -0.000150659707513 0)
(0.00102444276591 -0.000162709315396 0)
(0.000954263356578 -0.000180576822446 0)
(0.000870162434758 -0.000202716860745 0)
(0.000779631560249 -0.000232118237115 0)
(0.000677721764653 -0.000271948497619 0)
(0.000570972422854 -0.000304677057573 0)
(0.00046912883158 -0.000340558499901 0)
(0.000278865951696 -0.0002518614634 0)
(0.000172843969585 -0.000157610868733 0)
(0.000123024235846 -0.000115537576425 0)
(8.55257752263e-05 -9.83692429128e-05 0)
(4.87270161219e-05 -9.15897468327e-05 0)
(1.34655776422e-05 -9.08666926273e-05 0)
(-2.19975157402e-05 -8.84005868942e-05 0)
(-5.60129820445e-05 -7.78248685476e-05 0)
(-8.54875145519e-05 -6.05844022587e-05 0)
(-0.000112108840267 -4.34447605382e-05 0)
(-0.000129745392733 -2.29245809248e-05 0)
(-0.000132206512293 -3.32676236887e-07 0)
(-0.000126455112929 1.64073675513e-05 0)
(-0.000114652650136 2.96244915766e-05 0)
(-9.68760408446e-05 5.38145048892e-05 0)
(-7.0588493997e-05 9.20823792754e-05 0)
(-1.89246823531e-05 0.000101131160937 0)
(1.85477294428e-05 0.00016846328306 0)
(2.16240802581e-05 0.000107623926954 0)
(6.56134786257e-05 0.000183902307343 0)
(0.000131498210749 0.000192786101201 0)
(0.00017717653974 0.000160866718256 0)
(8.90306536283e-05 5.49092238228e-05 0)
(0.000108966077264 5.57809470055e-05 0)
(0.000220207720861 0.000114880066633 0)
(0.000294437342987 0.000130670749701 0)
(0.000335326309823 0.000119458390869 0)
(0.000375391727677 0.000110823306926 0)
(0.00040718374301 0.000100423643842 0)
(0.000431912444409 8.90652922955e-05 0)
(0.000445266888216 6.74434094259e-05 0)
(0.0003962349488 3.54916636277e-05 0)
(0.000363107183883 1.49327045687e-05 0)
(0.000361699997177 1.18422464884e-05 0)
(0.000390945037438 3.34773293025e-05 0)
(0.00046581821978 7.32551538298e-05 0)
(0.000561813308937 0.000123824691798 0)
(0.000587307883497 0.000137966395303 0)
(0.000614386204331 0.00013019918919 0)
(0.000650962112552 0.000123539072854 0)
(0.00068294287289 0.000118901599949 0)
(0.00071048574565 0.000111503799511 0)
(0.000735592629121 0.000102760400268 0)
(0.000757571724349 9.4463785908e-05 0)
(0.000786923145815 8.62069072405e-05 0)
(0.000801449840855 7.73142126734e-05 0)
(0.000831624203219 7.04442383839e-05 0)
(0.00082937574329 6.23325569795e-05 0)
(0.000863603425607 5.45599413905e-05 0)
(0.000836542435432 4.23898873505e-05 0)
(0.000850169473552 4.52654417791e-05 0)
(0.000914969898958 6.12534119262e-05 0)
(0.00088047267099 7.85143194057e-05 0)
(0.000943628649866 9.08707669227e-05 0)
(0.00102906380602 0.000108246042408 0)
(0.00106695406602 0.000130448994315 0)
(0.00109240688446 0.000123981679369 0)
(0.00112100574416 9.15301238393e-05 0)
(0.00115091324861 6.4092692883e-05 0)
(0.00117843138138 5.76550630841e-05 0)
(0.001200973573 5.7291004302e-05 0)
(0.00121769515769 5.38844282944e-05 0)
(0.00123001398519 4.65563423912e-05 -1.89564247228e-28)
(0.0012387765299 3.4944001376e-05 1.90859620977e-28)
(0.00124416828543 1.98441208008e-05 0)
(0.00124608609879 1.20038904833e-06 0)
(0.00124434349818 -2.13517129317e-05 0)
(0.00123821363868 -4.48940296891e-05 0)
(0.00122394140097 -6.64687205523e-05 0)
(0.00119552337093 -9.12733020409e-05 0)
(0.00115352804265 -0.000131474158094 0)
(0.00110990362012 -0.000165489397012 0)
(0.00106711318097 -0.000189781938771 0)
(0.00101243121151 -0.000224630746398 0)
(0.000937753582202 -0.000262222988263 -3.48221060148e-28)
(0.000845750848581 -0.000298749685962 3.87926915561e-28)
(0.000742491488358 -0.000336924824424 0)
(0.000632776401257 -0.000375504617189 0)
(0.000525526105381 -0.000412579139153 0)
(0.000435866450217 -0.000447061904229 0)
(0.000303106106639 -0.000374892108733 0)
(0.000194396156406 -0.000250777814829 0)
(0.000119799872045 -0.00016474944514 0)
(7.54266689371e-05 -0.000135351360821 0)
(3.71805214065e-05 -0.000128515012615 0)
(2.94037103754e-07 -0.000127278980505 0)
(-3.71069102351e-05 -0.000126164665153 0)
(-7.62858806021e-05 -0.000115845708395 0)
(-0.000112812733669 -9.50560655895e-05 0)
(-0.000135931039474 -6.42020623063e-05 0)
(-0.000136641126419 -2.73723962344e-05 0)
(-0.000135419760827 2.11310036266e-06 0)
(-0.000131537703529 2.71906354497e-05 0)
(-0.000114107479182 5.16526035909e-05 0)
(-7.37463165282e-05 6.87671461603e-05 0)
(-5.60054265629e-05 0.000111846550909 0)
(-1.89843267261e-05 0.000141452432361 0)
(-2.44268428465e-07 0.00016255278911 0)
(9.21622137745e-06 0.000131916141272 0)
(6.22413969438e-05 0.000249533381868 0)
(0.000111213607179 0.000228577165086 0)
(0.000105701805056 0.000136072325833 0)
(7.95894034375e-05 7.25021555007e-05 0)
(0.000140191282164 0.000126603416457 0)
(0.000240691521488 0.000202553097239 0)
(0.000275744504684 0.000185859875754 0)
(0.000318846359327 0.000163763407613 0)
(0.000359732904321 0.000152454527236 0)
(0.000391925109161 0.000131402937511 0)
(0.000380968419862 8.24412631472e-05 0)
(0.000330854902653 3.6666669507e-05 0)
(0.000338156402216 2.0490744333e-05 0)
(0.000363538277993 2.63856457906e-05 0)
(0.000413167771583 5.32606833716e-05 0)
(0.000486880176522 0.00010207246325 0)
(0.000548018571679 0.000145771668557 0)
(0.00055302948096 0.000153636429526 0)
(0.000578965446066 0.00015976939366 0)
(0.000618404412713 0.00016461545351 0)
(0.000648531568609 0.000158124588482 0)
(0.000676948201546 0.000147548452315 0)
(0.00070232453852 0.000136835609244 0)
(0.000723736096338 0.000127789677341 0)
(0.000753938239632 0.000118363274914 0)
(0.000763035747641 0.000106810520781 0)
(0.000801213006083 9.79137887095e-05 0)
(0.000791736043313 8.48648028821e-05 0)
(0.000840427979348 7.66472877899e-05 1.71572094282e-28)
(0.00079338213111 6.07016506334e-05 -1.52740103242e-28)
(0.000845532899233 5.99188458267e-05 0)
(0.000890983661505 6.59370904597e-05 0)
(0.00086492430229 8.21058413604e-05 0)
(0.000949708828971 0.000121694732318 0)
(0.000997900298494 0.000154258681844 0)
(0.00103828140989 0.000160634166887 0)
(0.00106821753285 0.000156374695324 0)
(0.00109300815536 0.000143649513305 0)
(0.00112085817877 0.000120163899692 0)
(0.00115043831248 9.73560435909e-05 0)
(0.00117797490639 8.4784955647e-05 0)
(0.00120130889287 7.74773429056e-05 0)
(0.00121977230124 6.92943450853e-05 0)
(0.0012342846265 5.80996376235e-05 0)
(0.00124535768941 4.31949664857e-05 0)
(0.00125297555593 2.45854569487e-05 0)
(0.00125667164065 1.92629933175e-06 0)
(0.00125559096073 -2.50782812332e-05 0)
(0.00124834895988 -5.54865754975e-05 0)
(0.00123218960263 -8.85773962798e-05 0)
(0.00120429063373 -0.000125851513515 0)
(0.00116543105364 -0.000168487984259 0)
(0.00112017597413 -0.000208843145733 0)
(0.00106851558856 -0.000249835785918 0)
(0.00100323381539 -0.000299729071464 0)
(0.000918312655458 -0.000353940950623 0)
(0.000814307984928 -0.000404502364081 0)
(0.00069959590448 -0.000448235952823 0)
(0.000585596664463 -0.000484653486337 0)
(0.00048552116302 -0.000517085629261 0)
(0.000408843115535 -0.000536243471173 0)
(0.000318840813108 -0.000486466810819 0)
(0.000205219374908 -0.000345748290539 0)
(0.000127699920426 -0.000235441767126 0)
(7.35705464905e-05 -0.000189807655769 0)
(2.60953851583e-05 -0.000172337949794 0)
(-1.62298616015e-05 -0.000166321935707 0)
(-5.82689630376e-05 -0.000165203135505 0)
(-0.000104220463165 -0.00015715599528 0)
(-0.000138822415891 -0.000123375766136 0)
(-0.000144311334705 -7.03900772637e-05 0)
(-0.000148228918988 -2.87980786075e-05 0)
(-0.000150938448908 6.22940200355e-06 0)
(-0.000144449775696 4.36403462099e-05 0)
(-0.000115490013129 7.52527894058e-05 0)
(-8.18057681079e-05 9.8917319409e-05 0)
(-5.92503871516e-05 0.000152460794039 0)
(-1.7086739172e-05 0.000173226061851 0)
(-1.73282193915e-06 0.000149760718777 0)
(1.32438736716e-05 0.000161896223871 0)
(6.47169812631e-05 0.000283359239705 0)
(8.61564021571e-05 0.000222402073545 0)
(5.91772656225e-05 0.000101368936236 0)
(8.02181968516e-05 0.000104566103141 0)
(0.000191672454818 0.000221245882405 0)
(0.000236181490396 0.000244821279804 0)
(0.000262908317132 0.000223641952956 0)
(0.000297896228405 0.000204915590498 0)
(0.000333363782364 0.000175045486088 0)
(0.000288399034917 0.000106261924664 0)
(0.000256149905385 5.225003387e-05 0)
(0.00027978207952 4.00421570235e-05 0)
(0.000310418646955 4.92842076409e-05 0)
(0.000374799784615 8.12183971236e-05 0)
(0.000456367017968 0.000127008740247 0)
(0.000516359581083 0.000157662100368 0)
(0.00050660151166 0.000155423710503 0)
(0.000538779754601 0.000174512503086 0)
(0.000585059514541 0.00019698361356 0)
(0.000613708713453 0.00019708352409 0)
(0.000640466088776 0.000187205488885 0)
(0.000664492356725 0.0001750233863 0)
(0.000696161553196 0.000164616134853 0)
(0.000717985988517 0.000148921821439 0)
(0.000714056526273 0.000136135512656 0)
(0.000768140321846 0.00012992860526 0)
(0.000740320979943 0.000109461526536 0)
(0.000807621533014 9.89131932671e-05 0)
(0.00073417478845 7.53505456833e-05 0)
(0.000819040294122 8.04136183911e-05 0)
(0.000763941604721 7.92725725485e-05 0)
(0.000836730972404 9.69022279475e-05 0)
(0.000920322585995 0.000137924812111 0)
(0.000972782986826 0.000179994365723 0)
(0.00100829095288 0.000193496397844 0)
(0.00103867528811 0.000191783228252 0)
(0.00106567013695 0.000182899840745 0)
(0.00109246395519 0.000168921900527 0)
(0.00112079426925 0.000149100898876 0)
(0.00115009952939 0.000128254741741 0)
(0.00117799357418 0.000111967789834 0)
(0.00120236792966 9.91982562326e-05 0)
(0.00122284159509 8.64558672541e-05 0)
(0.00123970669113 7.1531334416e-05 0)
(0.00125335844392 5.32833165534e-05 0)
(0.00126343519193 3.09836982482e-05 0)
(0.00126897048354 3.7978736586e-06 0)
(0.00126877147562 -2.89111828248e-05 0)
(0.00126137567361 -6.71034641933e-05 0)
(0.00124476653309 -0.000110451300047 0)
(0.00121729061483 -0.000158454081949 0)
(0.00117903054366 -0.000209473953673 0)
(0.00113080950727 -0.000261354032424 0)
(0.00107056134164 -0.000318454430428 0)
(0.000993001980172 -0.000385175967144 0)
(0.000895764532503 -0.000455776011534 0)
(0.000783863788159 -0.000519524563095 0)
(0.000663216402896 -0.000564528465483 0)
(0.000552271954515 -0.000591752747736 0)
(0.000463106249296 -0.000596702587156 0)
(0.000352653469951 -0.00054121044821 0)
(0.000338164410733 -0.000611550053245 0)
(0.00019811616581 -0.000423576171046 0)
(0.000124419116435 -0.000295093915832 0)
(6.9664203714e-05 -0.000245502694298 0)
(1.3800539204e-05 -0.000221470055495 0)
(-3.73575818102e-05 -0.000210153619944 0)
(-8.86895735446e-05 -0.000213445328966 0)
(-0.000136572283494 -0.000198018226319 0)
(-0.000152693900876 -0.000136364104074 0)
(-0.000158937526829 -7.81218588022e-05 0)
(-0.000172276597497 -3.44031878936e-05 0)
(-0.000174814789087 1.15723604534e-05 0)
(-0.000166011519618 6.42636086982e-05 0)
(-0.000128777395336 9.9455086844e-05 0)
(-9.68854528457e-05 0.000129588504158 0)
(-6.99209035673e-05 0.0001911773268 0)
(-2.14396673309e-05 0.000210199591495 0)
(4.61959435358e-06 0.000162316986165 0)
(3.58565393742e-05 0.000216679314428 0)
(8.88270382152e-05 0.000307706169334 0)
(9.24022881927e-05 0.000277199105485 0)
(5.43219731217e-05 0.000125082521877 0)
(0.000122728950273 0.000193600789099 0)
(0.00020907696997 0.000280070814754 0)
(0.000225896602122 0.00027223561065 0)
(0.000252053448551 0.000250184032668 0)
(0.00026180093411 0.000222914828652 0)
(0.000308013017945 0.000182562183204 -3.52446488334e-28)
(0.000216896771081 7.62267558893e-05 1.83615343059e-28)
(0.000255705081053 6.61693467869e-05 0)
(0.000272790501838 7.10975789192e-05 0)
(0.000325402916701 0.000103785706184 0)
(0.000412172734882 0.000161632842376 0)
(0.000476711095783 0.000188206356023 0)
(0.000451718005884 0.000162392651348 0)
(0.000486429057232 0.000178893388715 0)
(0.000546558896796 0.000219022846941 0)
(0.000575035214644 0.000231206998312 0)
(0.000604765716878 0.000226134934879 0)
(0.000632286906577 0.000215286602185 0)
(0.000657891196336 0.000200611000745 0)
(0.000672934697447 0.000181130581115 0)
(0.000673639870837 0.000159968840803 0)
(0.000720087144741 0.000154625829619 0)
(0.000681480367943 0.000138680875516 0)
(0.00076424032629 0.000129025376675 0)
(0.000684301128748 8.76630958231e-05 0)
(0.000769511860649 9.27255804622e-05 0)
(0.000728809327658 9.77117397574e-05 -1.41806993295e-28)
(0.000806368272855 0.000114635198771 1.56914887964e-28)
(0.000834184731363 0.000156569728554 0)
(0.000942952397751 0.000209762919504 0)
(0.000979087107202 0.000225636409702 0)
(0.00100691830176 0.000225252250247 0)
(0.00103419163541 0.000219239007412 0)
(0.00106262191278 0.000209638560719 0)
(0.00109138880412 0.000196164172239 0)
(0.00112036698818 0.000178223786405 0)
(0.00114996957469 0.000158299381215 0)
(0.00117847921657 0.000139708059178 0)
(0.00120418266506 0.000122892332171 0)
(0.00122671095085 0.000106176957146 0)
(0.00124621032477 8.77367088565e-05 0)
(0.00126272832155 6.60635767051e-05 0)
(0.00127548042114 3.97288012309e-05 0)
(0.00128314632235 7.38265812772e-06 0)
(0.00128441736136 -3.19112568198e-05 0)
(0.00127788347794 -7.84201840949e-05 0)
(0.00126181554309 -0.000131708241548 0)
(0.00123473037249 -0.000190539659259 0)
(0.00119565342313 -0.00025342720057 0)
(0.00114317230144 -0.000320796874341 0)
(0.00107421659276 -0.000396578128323 0)
(0.000985357302469 -0.000481478546461 0)
(0.000877378946046 -0.000566632563368 0)
(0.000757217842197 -0.000637150217509 0)
(0.000638701038386 -0.000678814548024 0)
(0.000537983911555 -0.000683294898547 0)
(0.000463069376636 -0.000666781018956 0)
(0.000404114847885 -0.00067603239432 0)
(0.000359589553146 -0.00068194909624 0)
(0.000225927185622 -0.000507035454636 0)
(0.000117656568947 -0.000350463557386 0)
(6.00733178261e-05 -0.000309575557066 0)
(-4.40182865446e-06 -0.000287911543729 0)
(-6.63397696665e-05 -0.000273894944177 0)
(-0.000122392446671 -0.000264813370555 0)
(-0.000157415304685 -0.000221258981395 0)
(-0.00016800355164 -0.000149218762169 0)
(-0.000188662128718 -9.46553732871e-05 0)
(-0.000205557138286 -4.24662694813e-05 0)
(-0.000210188834713 1.89130209608e-05 0)
(-0.000191351977437 8.29064925426e-05 0)
(-0.000161835764488 0.000131639286995 0)
(-0.000118798755306 0.000165562248031 0)
(-8.48703671357e-05 0.000232702174563 0)
(-2.88331295549e-05 0.000263117570371 0)
(1.03877869774e-05 0.000189545375779 0)
(5.46410591213e-05 0.000274186142769 0)
(0.000102273711789 0.000314817600852 0)
(5.32659752744e-05 0.000166954808187 0)
(5.62757030189e-05 0.000156849401574 0)
(0.000154268670003 0.000287931446384 0)
(0.000191739264573 0.000307315771881 0)
(0.000218591037427 0.000298882263708 0)
(0.000224485378582 0.000260981000497 0)
(0.000250428499139 0.000236406339303 0)
(0.000186168400782 0.000123907821616 0)
(0.000215598506613 9.0238271924e-05 0)
(0.00024677612167 9.17169200848e-05 0)
(0.000269830774609 0.000110389497266 0)
(0.000357063976934 0.000176859428463 0)
(0.000433079064039 0.000221419043783 0)
(0.000405658982194 0.000186203700603 0)
(0.000429548468284 0.000185245376871 0)
(0.000495118121852 0.000230220721304 0)
(0.000538430894379 0.000258759422782 0)
(0.000561807248404 0.000260211343976 0)
(0.000585939111476 0.000252656834886 0)
(0.000619306026169 0.000244842883846 0)
(0.000642403560368 0.000226737690446 0)
(0.000673478453382 0.000197587056664 0)
(0.000651109425493 0.000176914139578 0)
(0.000709363733848 0.00016876433874 0)
(0.000692454783167 0.000147489238885 0)
(0.000674311892058 0.00012321442088 0)
(0.000695315089398 0.000113908238526 0)
(0.000788907166974 0.000123910545248 0)
(0.00075894510724 0.000118242262545 0)
(0.00076776230837 0.000157868344792 0)
(0.000908167854235 0.000235074182196 0)
(0.000942622816691 0.000264524259659 0)
(0.00097335310175 0.000261301958405 0)
(0.00100123783921 0.000254265041531 0)
(0.00102891021755 0.000247141811699 0)
(0.00105870432372 0.00023808185006 0)
(0.00108932352664 0.000225237360852 0)
(0.00111952750639 0.000208135685629 0)
(0.00114964353069 0.000188425323534 0)
(0.00117906691334 0.000168263686083 0)
(0.00120645842631 0.000148486595692 0)
(0.00123130185755 0.000128491547341 -1.83440132638e-28)
(0.0012536849642 0.000106874149225 1.8295763659e-28)
(0.00127331634293 8.17653660499e-05 0)
(0.00128903851265 5.11194811059e-05 0)
(0.00129932247081 1.31979184059e-05 0)
(0.00130287662743 -3.31192839173e-05 0)
(0.00129828245488 -8.82683951109e-05 0)
(0.00128375901731 -0.000151910293943 0)
(0.00125750169715 -0.000223038996479 0)
(0.00121735662509 -0.000301021233379 0)
(0.00116027340765 -0.000387073831799 0)
(0.00108293569076 -0.000483195333628 0)
(0.000984052312215 -0.000586355605343 0)
(0.000866915255185 -0.000685090900304 0)
(0.000740597988251 -0.000761093824372 0)
(0.000619689434595 -0.000789123957713 0)
(0.00052391377307 -0.000758426448989 0)
(0.000466562880433 -0.000724676178127 0)
(0.000425570842404 -0.000715502852728 0)
(0.000388129631904 -0.000722415299006 0)
(0.000335369753035 -0.000704581562351 0)
(0.00014268994061 -0.000443935811355 0)
(4.86771317492e-05 -0.000382385336599 0)
(-2.78281549148e-05 -0.000356218244814 0)
(-9.50374022572e-05 -0.00033092360488 0)
(-0.000146610941544 -0.000301204194418 0)
(-0.000174287017055 -0.000240858515174 0)
(-0.000196362810466 -0.000173958585471 0)
(-0.000228648797856 -0.000118237126589 0)
(-0.00024935141443 -5.28491138974e-05 0)
(-0.0002544564392 2.63124675187e-05 0)
(-0.000232701451978 0.000102402452461 0)
(-0.000208514606209 0.000168431224814 0)
(-0.000155255069034 0.000216904824409 0)
(-0.000102898205149 0.000284732559327 0)
(-3.61413628241e-05 0.000333337380763 0)
(1.54107075124e-05 0.000225716380197 0)
(6.59839928596e-05 0.000324450523114 0)
(8.32553000701e-05 0.000316860862958 0)
(5.05999662794e-05 0.000182821878776 0)
(8.59573751417e-05 0.000214530293752 0)
(0.000166520866607 0.00033455105693 0)
(0.000173103721303 0.000331998034467 0)
(0.000211209763546 0.000322253776674 0)
(0.000184407697265 0.000246857192536 0)
(0.000251619855565 0.000264339278009 0)
(0.000178964088369 0.000133653932221 0)
(0.000221306534777 0.000119874284193 0)
(0.000242433356401 0.000123305418652 0)
(0.000292806273265 0.000171031115184 0)
(0.000378794972829 0.000248274750144 0)
(0.000420448693154 0.000250242552268 0)
(0.000388703078943 0.000202370926636 0)
(0.000434833160462 0.000229881121106 0)
(0.000489846803302 0.00027600062275 0)
(0.00052213044743 0.000291456942032 0)
(0.000550776575676 0.000288131722803 0)
(0.000566960282749 0.000275701005673 0)
(0.000594901310489 0.000265954436269 0)
(0.000603975919358 0.00024348673255 0)
(0.000600296568231 0.000200088025986 0)
(0.000664988796998 0.000195573049672 0)
(0.000602129028778 0.000172098341918 0)
(0.000726200442233 0.000168920588084 0)
(0.000651232136412 0.000142730691853 0)
(0.000772040060773 0.000159369093709 0)
(0.000692426324833 0.000136327249333 0)
(0.000811133726704 0.000163014029521 0)
(0.00085562245343 0.000228842943326 -1.81319769679e-28)
(0.000909521004175 0.000288017280588 1.94604448596e-28)
(0.000937226959374 0.000298068961317 0)
(0.000964931571149 0.000291888672133 0)
(0.000994275785622 0.000284081050576 0)
(0.00102327901809 0.000276663201284 0)
(0.00105387874256 0.000268077970335 0)
(0.00108566754624 0.000255868970596 0)
(0.00111744866148 0.000239205310808 0)
(0.00114885126661 0.000219365640528 0)
(0.0011795349328 0.000198059821132 0)
(0.00120883698423 0.000176179063809 0)
(0.00123640735026 0.000153595069394 0)
(0.00126195461522 0.000129134099816 0)
(0.00128486047442 0.000100660187356 0)
(0.00130388561674 6.56389047282e-05 0)
(0.00131751280179 2.20267773608e-05 0)
(0.00132440329831 -3.14303914125e-05 0)
(0.00132307121866 -9.5431505887e-05 0)
(0.00131154912263 -0.000170158069017 0)
(0.00128740303175 -0.000255482933035 0)
(0.00124706990447 -0.000351651254131 0)
(0.00118592047499 -0.000459358211045 0)
(0.00110049634528 -0.000577365368866 0)
(0.000991205545665 -0.000698968268982 0)
(0.000862876817939 -0.000811274194783 0)
(0.000727824769334 -0.000890481331875 0)
(0.000605518069507 -0.000898417251751 0)
(0.000522110819084 -0.000822787893397 0)
(0.000479900145302 -0.000759277881188 0)
(0.000447620149802 -0.000748591060651 0)
(0.000410890250191 -0.000762970215877 0)
(0.000381470694182 -0.000767414403199 0)
(0.000247888187562 -0.000644013357779 0)
(5.46203512849e-05 -0.000454774780708 0)
(-5.7032745325e-05 -0.000437881082017 0)
(-0.000124253003314 -0.000395511773583 0)
(-0.000168530581811 -0.000336857561689 0)
(-0.000198590279775 -0.00026919883053 0)
(-0.000236640266088 -0.000210722396411 0)
(-0.000277106948016 -0.000148423538975 0)
(-0.000302474372304 -6.63531038557e-05 0)
(-0.00030650812844 3.05113568139e-05 0)
(-0.000291904155901 0.000122908119668 0)
(-0.000263678007312 0.000208812713626 0)
(-0.000205990209702 0.000286934563209 0)