/*--------------------------------*- C++ -*----------------------------------*\
| =========                 |                                                 |
| \\      /  F ield         | OpenFOAM: The Open Source CFD Toolbox           |
|  \\    /   O peration     | Version:  v1806                                 |
|   \\  /    A nd           | Web:      www.OpenFOAM.com                      |
|    \\/     M anipulation  |                                                 |
\*---------------------------------------------------------------------------*/
FoamFile
{
    version     2.0;
    format      ascii;
    class       volVectorField;
    location    "702";
    object      Ua;
}
// * * * * * * * * * * * * * * * * * * * * * * * * * * * * * * * * * * * * * //

dimensions      [0 1 -1 0 0 0 0];


internalField   nonuniform List<vector> 
6400
(
(3.12533183074e-05 4.07030832658e-05 0)
(8.4072504786e-05 3.04338820039e-05 0)
(0.000122314746659 2.45740073552e-05 0)
(0.000163491219855 2.22005567792e-05 0)
(0.00019504295622 1.57866139079e-05 0)
(0.000219366706541 1.09238649987e-05 0)
(0.000235554978817 9.38129331362e-06 0)
(0.000250822976058 1.27844811343e-05 0)
(0.000282483268178 1.70618166043e-05 0)
(0.000315427350546 1.72509958675e-05 0)
(0.000335723362782 1.63692032763e-05 0)
(0.000367897745677 1.7599182666e-05 0)
(0.000399614434759 1.74882663779e-05 0)
(0.000428842901518 1.66164074355e-05 0)
(0.000455316585795 1.66225989767e-05 0)
(0.000483856322332 1.83581296322e-05 0)
(0.000517037469574 1.93582645425e-05 0)
(0.000549184895019 1.89746708366e-05 0)
(0.000578759357059 1.82134117208e-05 0)
(0.000609531869188 1.85772180385e-05 0)
(0.000645796005342 2.16054372755e-05 0)
(0.000686990513434 2.45586208978e-05 0)
(0.000729988649695 2.54601878313e-05 0)
(0.00077162588987 2.54294675069e-05 0)
(0.00081259251036 2.49830417794e-05 0)
(0.000853675643415 2.45262763778e-05 0)
(0.000895745395894 2.46878815912e-05 0)
(0.000937599131764 2.47270647731e-05 0)
(0.00097822941267 2.442466148e-05 0)
(0.00101777865492 2.42604222174e-05 0)
(0.00105628065029 2.46167652269e-05 0)
(0.00109609629637 2.48274219597e-05 0)
(0.00113736393746 2.47956819272e-05 0)
(0.00117840578505 2.56235105735e-05 0)
(0.00122032192156 2.63455824401e-05 0)
(0.00126600719168 2.69579924717e-05 0)
(0.00131078073023 2.76491523449e-05 0)
(0.00134976560995 2.73756096824e-05 0)
(0.0013936977107 2.66840442788e-05 0)
(0.00144132833571 2.64678191405e-05 0)
(0.00148430540479 2.73720312949e-05 0)
(0.00152024985089 2.67330497777e-05 0)
(0.001553832149 2.3408131913e-05 0)
(0.00158648723116 2.1060112647e-05 0)
(0.00161641435295 1.99877140635e-05 0)
(0.0016439113662 1.88157197506e-05 0)
(0.00166870670766 1.75073978692e-05 0)
(0.00169005836767 1.57824226923e-05 0)
(0.00170799553093 1.4061321402e-05 0)
(0.00172239211907 1.38646903928e-05 0)
(0.00173536166015 1.54823791702e-05 0)
(0.00175158240138 1.48103816817e-05 0)
(0.00176133329531 8.56715706204e-06 0)
(0.00176792178669 4.97586202576e-06 0)
(0.00176252218727 1.53234874997e-06 0)
(0.00173502677346 -4.7582499414e-06 0)
(0.00170562653804 -3.56384017723e-06 0)
(0.00169568458603 1.41231901701e-06 0)
(0.00169290331738 -2.33363406495e-07 0)
(0.00165993724755 -1.67106211722e-06 0)
(0.00163690852972 6.16378195605e-06 0)
(0.00161463161311 2.2654862272e-06 0)
(0.00169468973416 -2.52752462531e-05 0)
(0.0016114178565 -6.37947461961e-05 0)
(0.00132214066127 -6.34414950955e-05 0)
(0.00117493978543 -4.61917344937e-05 0)
(0.00109635351219 -4.6069817696e-05 0)
(0.00103542505582 -4.63958378668e-05 0)
(0.000970758387521 -4.84590956028e-05 0)
(0.000876456689165 -5.2126484045e-05 0)
(0.000775820632714 -5.36859575903e-05 0)
(0.000660353384714 -5.19663763621e-05 0)
(0.000551103849822 -5.09302557742e-05 0)
(0.000477271576147 -5.36728937746e-05 0)
(0.000349579047734 -4.19624269064e-05 0)
(0.000300086002196 -3.62465487496e-05 0)
(0.000194784193415 -2.20633310044e-05 0)
(0.000198967413375 -2.9732210535e-05 0)
(8.46561526278e-05 -2.05349714784e-05 0)
(6.29334413535e-05 -3.7876142585e-05 0)
(1.21217239053e-05 5.72902447176e-05 0)
(5.16918436622e-05 6.36474556852e-05 0)
(8.95292501378e-05 5.71223523359e-05 0)
(0.000114808626305 4.65876646334e-05 0)
(0.000164143256284 4.62959743681e-05 0)
(0.00020823805019 3.47909562648e-05 0)
(0.000236450646063 2.5930411552e-05 0)
(0.000259400029165 3.34359142156e-05 0)
(0.00028491448043 4.20559127265e-05 0)
(0.000313338561864 4.28485377412e-05 0)
(0.00034153442918 4.20589121412e-05 0)
(0.000369133878489 4.26153231833e-05 0)
(0.000396779854039 4.15581925587e-05 0)
(0.000424186693605 3.99906786972e-05 0)
(0.000452986705338 4.0741978513e-05 0)
(0.000483105806908 4.67603946182e-05 0)
(0.000514837567736 5.05054998659e-05 0)
(0.000544989551955 4.59801414751e-05 0)
(0.000564910141829 4.26589851519e-05 0)
(0.000598383758833 4.57328278682e-05 0)
(0.000639072967086 5.41199696707e-05 0)
(0.000682737791918 6.28369602124e-05 0)
(0.00072862863261 6.49152295046e-05 0)
(0.000771581381014 6.24037042924e-05 0)
(0.000808332775684 6.05529553819e-05 0)
(0.000851445731669 6.05326450229e-05 0)
(0.0008945584103 6.02942352606e-05 0)
(0.000935439318214 5.94149856185e-05 0)
(0.000975583844965 5.84905079495e-05 0)
(0.00101565625123 5.8027001924e-05 0)
(0.00105517551274 5.84840406263e-05 0)
(0.00109229167054 5.85515906637e-05 0)
(0.00113349457164 5.79050053154e-05 0)
(0.00117424329078 6.02711476942e-05 0)
(0.00121511863233 6.32304459609e-05 0)
(0.00126443291118 6.34185816296e-05 0)
(0.00130755236609 6.42401944519e-05 0)
(0.00134673497842 6.4766139959e-05 0)
(0.00139327982554 6.33066514947e-05 0)
(0.00144576245879 6.05645890359e-05 0)
(0.00148979507111 5.54956434741e-05 0)
(0.0015034669273 4.93113066888e-05 0)
(0.0015249144354 4.54537383256e-05 0)
(0.00156013533283 4.33975196704e-05 0)
(0.0015917719002 4.12261795789e-05 0)
(0.00162301889727 3.8312163755e-05 0)
(0.00165289966834 3.43965722462e-05 0)
(0.00167780535146 2.96210417279e-05 0)
(0.00170250591575 2.45268230166e-05 0)
(0.0017227445381 1.98990630878e-05 0)
(0.00173257893493 1.65268403296e-05 0)
(0.00172580608405 1.33198682662e-05 0)
(0.00172404412653 9.27995120351e-06 0)
(0.00176758933342 3.37040675416e-07 0)
(0.00175533105577 -1.625413554e-05 0)
(0.0017385462141 -2.77658328412e-05 0)
(0.00174442337213 -2.60648033585e-05 0)
(0.00173760957855 -2.17410639971e-05 0)
(0.00172286655155 -2.65958524199e-05 0)
(0.00171086840069 -3.27001265535e-05 0)
(0.00169900596147 -3.6114093776e-05 0)
(0.00159855948808 -4.56026336388e-05 0)
(0.00167270301638 -0.00011740613476 0)
(0.00156768296988 -0.000219371610538 0)
(0.00132754344746 -0.000230462435138 0)
(0.00110975434399 -0.000171292401589 0)
(0.00100000820885 -0.000127148616886 0)
(0.000986325363395 -0.00011860108386 0)
(0.000928102740256 -0.000132937514333 0)
(0.000856773053953 -0.000155873402456 0)
(0.000748451691092 -0.000167366918102 0)
(0.000630115387079 -0.00016133318069 0)
(0.000508969533202 -0.000138308842887 0)
(0.000451367012491 -0.000131596712246 0)
(0.000378561243298 -0.000119407067711 0)
(0.00031523167844 -0.000106122375425 0)
(0.000252583946081 -8.85195192117e-05 0)
(0.000196589176427 -8.86436370716e-05 0)
(0.000120463212741 -9.22726246838e-05 0)
(5.52469290013e-05 -0.000148547686549 0)
(1.65930742551e-05 9.90496607477e-05 0)
(4.82157383323e-05 0.000105924553778 0)
(7.51390904299e-05 9.87403976481e-05 7.1891998822e-29)
(0.000124735833042 9.92339387749e-05 -6.58975482577e-29)
(0.000170977295464 9.81168518467e-05 -5.73726870397e-29)
(0.000201941253308 8.19488918675e-05 5.20709301328e-29)
(0.000226254761851 5.32192291661e-05 -5.19397247912e-29)
(0.000249758041087 5.88596104036e-05 4.99514914223e-29)
(0.000276127765608 7.04467809897e-05 0)
(0.000305566816463 7.3404811451e-05 0)
(0.000335252860493 7.22526679572e-05 0)
(0.000363364946527 7.0552503834e-05 0)
(0.000390609145626 6.8788395672e-05 0)
(0.000417375025306 6.89584741451e-05 0)
(0.000446429090669 7.2004311196e-05 0)
(0.000476904787695 7.37283058182e-05 0)
(0.000467437384297 6.72578289485e-05 0)
(0.000475039265935 6.39331511715e-05 0)
(0.000507872200807 7.14878249246e-05 0)
(0.000557667273353 8.88297234886e-05 0)
(0.000633447614466 0.000107006812826 0)
(0.000685047539636 0.000112221032149 0)
(0.000720520105141 0.000109222467735 0)
(0.000762886874378 0.000105835204791 0)
(0.000806801611591 0.00010434168714 0)
(0.000847718872961 0.000103887191274 0)
(0.000888348935761 0.000102755204809 0)
(0.000929419521965 0.000101418305788 0)
(0.000969990842147 0.000100403725375 0)
(0.00100974322724 9.99616283258e-05 8.933769186e-29)
(0.00105053653119 9.98446003122e-05 -8.63173423293e-29)
(0.00108544865498 9.95910009561e-05 0)
(0.00112580029622 0.000100006248848 0)
(0.00117328544291 0.000102210115729 0)
(0.00120363289266 0.000107583128296 0)
(0.0012536145348 0.000111884312853 0)
(0.00130849637999 0.000111234919254 0)
(0.00134073554987 0.000111021825049 0)
(0.0013888611538 0.00011246192629 0)
(0.00144272461933 0.000107539416924 0)
(0.00148702584766 9.42041821095e-05 0)
(0.00152172626731 8.26046374756e-05 0)
(0.00155431268099 7.91491861843e-05 0)
(0.00158681541894 7.76116624392e-05 0)
(0.00161697781863 7.42648557606e-05 0)
(0.00164440630097 6.94820229634e-05 0)
(0.00166927639096 6.31060279922e-05 0)
(0.00169155317586 5.58083319807e-05 0)
(0.00171134673829 4.76188364071e-05 0)
(0.00172826739085 3.78466515267e-05 0)
(0.0017417767449 2.78238831263e-05 0)
(0.00175212121103 2.17343827274e-05 0)
(0.00176022633313 1.98411466684e-05 0)
(0.00175798430948 6.38671694645e-06 0)
(0.00174538291973 -1.48226575621e-05 0)
(0.00174871478759 -2.50223631926e-05 0)
(0.00174847175363 -2.73859372973e-05 0)
(0.00173787988355 -3.06311090691e-05 0)
(0.00172228319205 -3.68950778994e-05 0)
(0.00170427020277 -4.73786498798e-05 0)
(0.00167256126386 -6.95776078553e-05 0)
(0.00164114095607 -0.000107962144127 0)
(0.00160803849521 -0.000241359700605 0)
(0.00140567189506 -0.000379461629244 0)
(0.00113279674706 -0.000343761650189 0)
(0.00103847373693 -0.000266741550528 0)
(0.000995810413378 -0.000212845770236 0)
(0.000923295379708 -0.000194288504467 0)
(0.000849987421453 -0.000216708753368 0)
(0.000764112802753 -0.00024895566538 0)
(0.000660506873251 -0.000258806340984 0)
(0.000566256191649 -0.000241159116413 0)
(0.00050683472374 -0.000218955025757 0)
(0.000449260352219 -0.000207729938014 0)
(0.000374942831926 -0.000196503435606 0)
(0.000300049227771 -0.000176569148372 0)
(0.000231447743593 -0.000154910609908 0)
(0.000175615044772 -0.000161847764407 0)
(0.000120699266225 -0.000206266462513 0)
(3.05440510845e-05 -0.000202892922117 0)
(1.54102998055e-05 0.000143827898568 0)
(2.37460325245e-05 0.00010083433611 0)
(5.94638510645e-05 0.000146116660068 0)
(0.00010440913039 0.000145742325064 0)
(0.000146893117096 0.000127711171903 0)
(9.23023222663e-05 5.66356901261e-05 0)
(0.000118159976851 6.097757522e-05 0)
(0.000212380245617 0.000106023280067 0)
(0.000257107269733 0.000111657094602 0)
(0.000291550800698 0.00010658662925 0)
(0.000324419186368 0.000103024162015 0)
(0.000354296428776 9.88874243171e-05 0)
(0.000382130753701 9.60680271875e-05 0)
(0.000406298832939 9.22007181791e-05 0)
(0.000407674851879 8.33367003675e-05 0)
(0.000408256997215 7.6769954516e-05 0)
(0.000425760562806 7.92882932556e-05 0)
(0.000466309816412 9.71087491067e-05 0)
(0.000533642963449 0.000126173823468 0)
(0.000596765900046 0.0001517294807 0)
(0.000634833099177 0.000158290460643 0)
(0.000674293880234 0.000154834946817 0)
(0.000716519390512 0.000151147115432 0)
(0.000757741855439 0.000148456414992 0)
(0.000798318349591 0.0001460117648 0)
(0.000838548441242 0.000144122071422 0)
(0.000878808558386 0.000142869480842 0)
(0.000921017911296 0.000141841222594 0)
(0.000960664867607 0.00014052523124 0)
(0.00100300339814 0.000140042005291 0)
(0.00103914200786 0.000139205416829 0)
(0.00108168489196 0.000138928372276 0)
(0.00111284905789 0.000137692081444 0)
(0.00115772544004 0.000143082300922 0)
(0.00121240897832 0.000152478751924 0)
(0.00124719915332 0.000158060153747 0)
(0.00130133440483 0.000159736584464 0)
(0.00135580772249 0.000159496927555 0)
(0.00140007872283 0.000158288064339 0)
(0.00144233888334 0.000149974863301 0)
(0.00148303221399 0.000134945493824 0)
(0.00152013914807 0.000121028300761 0)
(0.00155475495816 0.000113000297966 0)
(0.00158754924841 0.000107831673342 0)
(0.00161772434277 0.000102015665113 0)
(0.00164515151221 9.47722946664e-05 -7.53328412492e-29)
(0.00166997771952 8.61242014902e-05 7.57248799575e-29)
(0.00169220610913 7.63486466911e-05 0)
(0.00171182634656 6.54716570756e-05 0)
(0.00172861796649 5.3524715602e-05 0)
(0.00174217503739 4.16522881973e-05 0)
(0.0017519333226 3.11443032663e-05 0)
(0.00175716435663 1.949098671e-05 0)
(0.00175650743709 2.18849013233e-06 0)
(0.00175299972683 -1.50779121896e-05 0)
(0.00175063470703 -2.65570982848e-05 0)
(0.00174549447718 -3.56896967275e-05 0)
(0.00173329608559 -4.53661749514e-05 -1.44305218379e-28)
(0.00171368030664 -5.81337333293e-05 1.67142808778e-28)
(0.00168420984852 -7.93118747472e-05 0)
(0.00163677540195 -0.000119727475884 0)
(0.00156576757618 -0.000208673653575 0)
(0.00144697680811 -0.000382626931605 0)
(0.00131129165732 -0.000531910444296 0)
(0.00119025145647 -0.000506084474663 0)
(0.000993207205198 -0.00034890621215 0)
(0.000900177702275 -0.000278056649943 0)
(0.00083817844038 -0.000271454779966 0)
(0.000771718842373 -0.00029863969911 0)
(0.00071095954817 -0.000342011378605 0)
(0.000632476672255 -0.000355484178012 0)
(0.000552269267201 -0.000330847716907 0)
(0.000473474337084 -0.000299513890936 0)
(0.000377649749837 -0.00027064134134 0)
(0.000307715053328 -0.000258994151898 0)
(0.000243299663871 -0.000251154108751 0)
(0.000173576015314 -0.000225108011005 0)
(0.000100423021626 -0.000180966243012 0)
(7.32863454664e-05 -0.00022857171255 0)
(2.44278868014e-05 -0.000263340776858 0)
(1.44978206756e-06 0.000144998427105 0)
(1.23744765097e-05 0.000121541188113 0)
(5.04882251992e-05 0.000186761192528 0)
(8.61393857419e-05 0.00017614050172 0)
(9.80897522919e-05 0.000125927044987 0)
(8.19179312428e-05 7.70259205128e-05 0)
(0.0001401112192 0.000122406762605 0)
(0.000204393609258 0.000163172841397 0)
(0.000235506077623 0.000153234100855 0)
(0.00027249678323 0.000142546140498 0)
(0.000307535922998 0.000137601173184 0)
(0.000339048454681 0.000130567819785 0)
(0.000354646948306 0.00011443759466 0)
(0.000345140466366 9.39932460378e-05 0)
(0.000363732282216 9.22389059358e-05 0)
(0.000398620411448 0.000104145826643 0)
(0.000448975699896 0.000127115951719 0)
(0.000506453819957 0.000157353598795 0)
(0.000553102753933 0.000180624978859 0)
(0.000584293999985 0.000189379864748 0)
(0.000622587079792 0.00019470170662 0)
(0.000665223243171 0.000196450204203 0)
(0.000705944179361 0.000193522031679 0)
(0.000746526553555 0.000189528387054 0)
(0.000786615328442 0.000186321957113 0)
(0.000826210370928 0.000184600678841 0)
(0.000868298566727 0.000183767209204 0)
(0.000906962804396 0.000182195292453 0)
(0.000951452540523 0.000181452862551 0)
(0.000986708879298 0.000179271288723 0)
(0.00103265772597 0.000179389960399 8.57069151935e-29)
(0.0010568711011 0.000176491909611 -8.17919391361e-29)
(0.00110900588829 0.000181579703191 0)
(0.00116195862143 0.000189554210022 0)
(0.00120054928426 0.000198146281343 0)
(0.00125850259589 0.000208662580198 0)
(0.00130861404729 0.000212227284608 0)
(0.00135485089442 0.000207757733185 0)
(0.00139837409359 0.000200215846351 0)
(0.00144021794469 0.000189400725611 0)
(0.0014808094311 0.000174587559622 0)
(0.00151915145823 0.000159719987514 0)
(0.001554991715 0.000148393936033 0)
(0.00158830691829 0.000139556985338 0)
(0.00161876850799 0.000130754766409 0)
(0.00164638974388 0.000120878958969 0)
(0.00167129241161 0.000109727649101 0)
(0.00169348228079 9.73786105853e-05 0)
(0.00171287297243 8.38355488158e-05 0)
(0.00172924568241 6.91998690819e-05 0)
(0.00174220893976 5.40687741805e-05 0)
(0.00175113472002 3.87283196599e-05 0)
(0.00175534602574 2.17868234817e-05 0)
(0.00175478147302 2.27052993408e-06 0)
(0.00175160123321 -1.64411356295e-05 0)
(0.00174721184297 -3.21271346457e-05 0)
(0.00173825817653 -4.74862302056e-05 0)
(0.00172017434654 -6.60049005007e-05 0)
(0.00168914765416 -9.21851478999e-05 0)
(0.00163919234583 -0.000134889875326 0)
(0.00156212244019 -0.00020906356858 0)
(0.00145658862067 -0.000332550154525 0)
(0.00132139596653 -0.000497232563406 0)
(0.00124659242006 -0.000628939021994 0)
(0.00117867900097 -0.000627454459281 0)
(0.00100956782235 -0.000491714558129 0)
(0.000882459136264 -0.000397403993374 0)
(0.000779409315418 -0.000362554229319 0)
(0.000694810259279 -0.0003732366389 0)
(0.000630228314852 -0.000410425256726 0)
(0.000567981592067 -0.000436147672502 0)
(0.000487892872961 -0.000416150360507 0)
(0.000387286269246 -0.00036431299917 0)
(0.000318478561241 -0.000342599579143 0)
(0.000253751642621 -0.000336297102287 0)
(0.00018867022439 -0.000324166558436 0)
(0.000125887147346 -0.00026894320354 0)
(8.05331677572e-05 -0.000230055589485 0)
(5.08588475192e-05 -0.0002843655086 0)
(1.25798764241e-05 -0.000292976050233 0)
(-5.48174755556e-07 0.000135641859198 0)
(1.34762629775e-05 0.000145447770882 0)
(4.78037697196e-05 0.000211249206581 0)
(6.92158206623e-05 0.000185754193099 0)
(5.53240431842e-05 0.000101689053461 0)
(7.87729614464e-05 0.000107587657806 0)
(0.000160043695927 0.000185427040867 0)
(0.000188033621074 0.000194977682703 0)
(0.000216095899522 0.000186667508363 0)
(0.000249928293412 0.00017944571728 0)
(0.000284997781242 0.000167273062952 0)
(0.00028276896749 0.000136733786504 0)
(0.000270506130013 0.000106451608178 0)
(0.000298653838775 0.000108587701281 0)
(0.000336919020169 0.000126628463562 0)
(0.000397044265779 0.000156603655878 0)
(0.000456991307015 0.000184689751149 0)
(0.000502604300534 0.000202618146 0)
(0.000528980260533 0.0002108182074 0)
(0.000568514052936 0.000224807944255 0)
(0.000612176055873 0.000235966353234 0)
(0.00065185484259 0.000237416303877 0)
(0.000691478805198 0.000234294803614 0)
(0.000731154993024 0.000230252537513 0)
(0.000772995925614 0.000227425622372 0)
(0.00081261758976 0.000224528154561 0)
(0.000847548220345 0.000223365132426 0)
(0.000896147806178 0.000224420891869 0)
(0.000927385525563 0.000220079596399 0)
(0.000978683286155 0.000219425850615 0)
(0.000996858242059 0.000214116961615 0)
(0.00105507675287 0.000221390245399 0)
(0.00108057509853 0.000224958329126 0)
(0.001145902195 0.00023915510551 0)
(0.00120988179677 0.000253951582661 0)
(0.00126085360973 0.000261624855214 0)
(0.00130719061916 0.000259598386309 0)
(0.00135201858728 0.000252370163686 0)
(0.00139555572476 0.000242557770657 0)
(0.00143794489149 0.000230085505078 0)
(0.00147903768492 0.000214702586948 0)
(0.00151823370795 0.000198634398461 0)
(0.00155500739469 0.000184408322609 0)
(0.0015889808012 0.00017199586131 0)
(0.00161994006287 0.000159927959695 0)
(0.00164790216669 0.000147159975484 0)
(0.00167296537909 0.000133290504796 0)
(0.00169508374695 0.000118198738678 0)
(0.00171408622209 0.0001017960464 0)
(0.00172973051377 8.41026313242e-05 0)
(0.00174166169981 6.53271141048e-05 0)
(0.00174936808525 4.54651907978e-05 0)
(0.00175247069995 2.40644487067e-05 0)
(0.00175127908833 1.51701512964e-06 0)
(0.00174683019161 -2.04240131341e-05 0)
(0.00173851328459 -4.19796780059e-05 0)
(0.00172223287188 -6.676651115e-05 0)
(0.00169246235517 -9.96772905613e-05 0)
(0.0016437558531 -0.000147226923166 0)
(0.00157003159132 -0.000217996878 0)
(0.00147032017038 -0.000320527665668 0)
(0.00135408442001 -0.000451917288026 0)
(0.00120446143722 -0.000573668820818 0)
(0.00119739502494 -0.000724509968649 0)
(0.00106449807739 -0.000710613522701 0)
(0.000919495726847 -0.000590583399322 0)
(0.000821381688027 -0.000512667343689 0)
(0.0007153328969 -0.000464090420173 0)
(0.000616400005844 -0.000450700723963 0)
(0.00055524684265 -0.000490548625818 0)
(0.0004930018753 -0.000524992279304 0)
(0.000398770903128 -0.000475538338537 0)
(0.000325273678672 -0.000428713539028 0)
(0.000266783214494 -0.000416628623877 0)
(0.000199751588713 -0.000405843641662 0)
(0.000147024859339 -0.000381605042748 0)
(9.60782985718e-05 -0.000301805142172 0)
(6.03693910386e-05 -0.00026766410081 0)
(3.52538330321e-05 -0.000316550037672 0)
(9.63939563386e-06 -0.000314143841535 0)
(4.00194037072e-06 0.000145905322268 0)
(2.7253219507e-05 0.000183887218192 0)
(5.77761538419e-05 0.000227256776466 0)
(6.49875012621e-05 0.000219881464285 0)
(4.89086613147e-05 0.000127751493455 0)
(0.000103674578209 0.000178779681749 0)
(0.000153330803613 0.000219686184884 0)
(0.000171505511812 0.000218868640435 0)
(0.000197122423118 0.000213707244193 0)
(0.000220237720903 0.000206678166148 0)
(0.000258891057372 0.000190712562408 -2.36600736517e-28)
(0.000219290912701 0.000127069121381 1.55071306744e-28)
(0.000253116285263 0.000129342056384 0)
(0.000281565057345 0.00014512681587 0)
(0.00033636467323 0.000180292889303 0)
(0.000400245585308 0.000218343467695 0)
(0.000446185193066 0.000233400130651 0)
(0.000466182069175 0.000231345325229 0)
(0.000507386708811 0.000246960144187 0)
(0.000555638059769 0.000267880378306 0)
(0.000594487392862 0.000276274976463 0)
(0.000634307341595 0.000277291402766 0)
(0.000674682401504 0.000275129052725 0)
(0.000715008784822 0.000270863834003 0)
(0.000752323651355 0.000265541882471 0)
(0.000787905007493 0.000262038790264 0)
(0.000834741184351 0.000263720871408 0)
(0.000861131494615 0.000262012870695 0)
(0.00091834659799 0.000262523755977 0)
(0.000932673558402 0.000250096208588 0)
(0.000994785779845 0.000257799780945 0)
(0.0010216254159 0.000263666030567 -8.07495286599e-29)
(0.00108574916438 0.000279212744618 8.14072457505e-29)
(0.00114208174067 0.000297951955338 0)
(0.00120831982109 0.000312151276938 0)
(0.00125761311858 0.000312151026095 0)
(0.00130278493695 0.000305697737243 0)
(0.00134767912536 0.000296656603398 0)
(0.00139215024947 0.000285532536638 0)
(0.00143554235036 0.000271842316245 0)
(0.00147742967386 0.000255504127287 0)
(0.00151746630621 0.000237965468359 0)
(0.0015550977999 0.000221051067063 0)
(0.00158981748146 0.00020521279014 0)
(0.00162138911189 0.000189732430429 0)
(0.00164979302271 0.000173795929306 0)
(0.00167503227565 0.000156896030442 0)
(0.00169695503332 0.000138728770003 0)
(0.0017153141892 0.000119092732109 0)
(0.00172987106286 9.79073774739e-05 0)
(0.00174034108327 7.52062321074e-05 0)
(0.00174638227303 5.0984813233e-05 0)
(0.00174779646703 2.53138063934e-05 0)
(0.00174468026883 -1.35038816341e-06 0)
(0.0017367629346 -2.88788002091e-05 0)
(0.00172169496346 -5.95587447382e-05 0)
(0.00169435329418 -9.82278223589e-05 0)
(0.00164913565678 -0.000150380425677 0)
(0.00158292805184 -0.000221052635641 0)
(0.0014977951105 -0.000313881881846 0)
(0.00139925890102 -0.000428150859323 0)
(0.001295496229 -0.000554039852929 0)
(0.00120878895976 -0.000681763729979 0)
(0.00114233316013 -0.000812983352217 0)
(0.0010213545984 -0.000822581967149 0)
(0.000822973947347 -0.000672254388733 0)
(0.000753654747976 -0.000614516606834 0)
(0.000662467727412 -0.000579216168256 0)
(0.000560698961753 -0.000560945248185 0)
(0.000481271934266 -0.000584882752152 0)
(0.000407933255898 -0.000586139036053 0)
(0.000331904206318 -0.000526647828106 0)
(0.000277309906088 -0.000500337084123 0)
(0.000213107563056 -0.000485495362464 0)
(0.000154225591839 -0.000467401947089 0)
(0.00010945165884 -0.000408654901884 0)
(7.40398251074e-05 -0.000345359365303 0)
(3.58772361658e-05 -0.000300050800297 0)
(1.66149920955e-05 -0.000333417724053 0)
(5.63628361312e-06 -0.000335821689721 0)
(8.35120059528e-06 0.000167016366252 0)
(3.60488363488e-05 0.000217098401036 0)
(6.08549731045e-05 0.00023512045674 0)
(4.06277221883e-05 0.000157414131376 0)
(4.80364978571e-05 0.000154847375324 0)
(0.000109582259405 0.00023314644464 0)
(0.000133760853853 0.000241358417147 0)
(0.000155456102299 0.00024128456539 0)
(0.000171693592928 0.00023469784808 0)
(0.000199101909037 0.000229483607242 0)
(0.000175016863304 0.000160770765572 0)
(0.000200962318257 0.000148876297569 0)
(0.000233671581118 0.000160353792725 0)
(0.000268156744079 0.000186981179138 0)
(0.000338004743007 0.000240532528956 0)
(0.00038726777084 0.000265409476009 0)
(0.000403058420031 0.000257272839264 0)
(0.000439154999031 0.000266982780638 0)
(0.000491507249589 0.000293573305545 0)
(0.000534927412965 0.000310074284444 0)
(0.000572718625423 0.000315328370638 0)
(0.000611343518299 0.000316325121183 0)
(0.000653091005938 0.000316216905881 0)
(0.000693131844135 0.00031184877842 0)
(0.000734920309844 0.00030467233721 0)
(0.00076400036985 0.000301379410611 0)
(0.00081615528483 0.000304864911677 0)
(0.00084784138725 0.00030061776654 0)
(0.000874389601525 0.000293711374455 0)
(0.000920649402869 0.000295952071932 0)
(0.000988989709172 0.000308599680123 0)
(0.00102098393669 0.000312499959017 0)
(0.00106887194313 0.000333082621691 0)
(0.00114877094691 0.00036062397375 0)
(0.00120142918497 0.000367326257894 0)
(0.00124951633169 0.00036130915986 0)
(0.00129632750586 0.000352207936986 0)
(0.00134246743683 0.000341905944921 0)
(0.00138816714685 0.000329720560541 0)
(0.00143283687668 0.000314845925962 0)
(0.00147584280824 0.000297230583955 0)
(0.00151684715431 0.000277944188852 0)
(0.00155541147328 0.000258388920929 0)
(0.00159100577977 0.000239215255201 0)
(0.00162331280011 0.000220207067637 -7.30043631875e-29)
(0.00165222146378 0.000200805572112 7.2752111595e-29)
(0.00167758831017 0.000180459954683 0)
(0.0016991234518 0.000158737044203 0)
(0.00171651601095 0.000135361224774 0)
(0.00172954690092 0.000110216861151 0)
(0.00173802637598 8.3266974697e-05 0)
(0.0017417246243 5.45354499345e-05 0)
(0.00174044939661 2.4064397727e-05 0)
(0.00173374991987 -8.37595773684e-06 0)
(0.00171997474962 -4.43782255684e-05 0)
(0.00169527915126 -8.78859980969e-05 0)
(0.00165443473956 -0.000143883560211 0)
(0.00159493976672 -0.000215131320584 0)
(0.00152101337936 -0.000302309394733 0)
(0.00143972762701 -0.000405569051846 0)
(0.00135330585653 -0.000521179571147 0)
(0.00126746950625 -0.000640503895982 0)
(0.00119293339419 -0.000761303323071 0)
(0.00111501992215 -0.000885756817748 0)
(0.001100366375 -0.00100571176224 0)
(0.000828699003943 -0.000818487901618 0)
(0.000670677669009 -0.000712679907072 0)
(0.000577391752848 -0.000678940041858 0)
(0.00047204195833 -0.000653938997242 0)
(0.000393182161071 -0.000655439443193 0)
(0.000332349747277 -0.000631036601264 0)
(0.000277821818262 -0.000584011863784 0)
(0.000224323296041 -0.000566918017535 0)
(0.000162850942219 -0.000548666232916 0)
(0.000112938018167 -0.000513568964824 0)
(7.30537386291e-05 -0.000440395140712 0)
(4.00314775149e-05 -0.000386872956352 0)
(5.15778943963e-06 -0.000336641785805 0)
(-1.03168798492e-05 -0.000339738974254 0)
(-4.83384832623e-06 -0.000345100494476 0)
(1.08218169997e-05 0.000191928549431 0)
(3.7608929207e-05 0.000241125685718 0)
(4.67762214965e-05 0.000241342691418 0)
(3.54595900539e-05 0.000170391036361 0)
(6.1392533459e-05 0.000196022345739 0)
(0.000104002816648 0.000256946657669 0)
(0.000115008228386 0.000260737641969 0)
(0.000139601628024 0.000261222515675 0)
(0.000140769355246 0.00023734394099 0)
(0.0001788772201 0.000257545942109 0)
(0.000154612097421 0.000179168503225 0)
(0.000187503362502 0.000178200938387 0)
(0.000216012540281 0.000194773450995 0)
(0.000266525440389 0.000242756309431 0)
(0.000324066758733 0.000291131267052 0)
(0.000360036081192 0.000300363656646 0)
(0.000374863330389 0.000290270697506 0)
(0.000418912519452 0.000311571557007 0)
(0.000467263485083 0.000338070197892 0)
(0.00050866925479 0.000350953224553 0)
(0.00054870212099 0.000355145979564 0)
(0.000586155779407 0.000355039185992 0)
(0.000626929887635 0.000355257071864 0)
(0.000661427198287 0.000349796847504 0)
(0.000695050092896 0.000338583635877 0)
(0.000747644215229 0.000342074304426 0)
(0.000763158049023 0.000337013266232 0)
(0.000836446129065 0.000345442460654 0)
(0.000851957901351 0.000338216650325 0)
(0.000924974272092 0.00035221762803 0)
(0.000944358690768 0.00034826493975 0)
(0.00102313091021 0.000370936515827 0)
(0.00108270912182 0.000398277069839 -8.44061936006e-29)
(0.00113926489329 0.000417115257968 8.39507939048e-29)
(0.00119052169673 0.000418134247932 0)
(0.00123978080591 0.000410513850913 0)
(0.00128849865612 0.000400286136726 0)
(0.0013363852676 0.000388789259283 0)
(0.00138356266978 0.000375425638993 0)
(0.00142968115523 0.000359276525634 0)
(0.00147411302023 0.000340149370956 0)
(0.00151639270447 0.000318868283385 0)
(0.00155608727524 0.000296608335734 0)
(0.00159272196067 0.000274098096874 0)
(0.0016259273355 0.000251411052177 0)
(0.00165540967388 0.000228175827269 0)
(0.00168081949524 0.000203848274456 0)
(0.00170173050569 0.000177940539819 0)
(0.00171777595143 0.00015018422542 0)
(0.00172876224804 0.000120486868664 0)
(0.00173455612316 8.88103652951e-05 0)
(0.00173502058956 5.50197995778e-05 0)
(0.00172983812969 1.86858658743e-05 0)
(0.00171781861468 -2.16099744251e-05 0)
(0.0016960232163 -6.91388601225e-05 0)
(0.00165976353471 -0.000128439986103 0)
(0.00160524834366 -0.000201867104046 0)
(0.00153706694605 -0.000285869200711 0)
(0.00146755734754 -0.00037957319143 0)
(0.00139827423019 -0.000488206033143 0)
(0.00131856084784 -0.000607175541759 0)
(0.00123083722426 -0.000720139388026 0)
(0.001157358217 -0.000826549286672 0)
(0.00110266945361 -0.000940209171268 0)
(0.00108462159404 -0.00107043188007 0)
(0.000990033266955 -0.00108951291218 0)
(0.000647688277832 -0.000841563794879 0)
(0.000486618057501 -0.000793205272604 0)
(0.00039093335303 -0.000760224265165 0)
(0.000315951832003 -0.000720582085491 0)
(0.000262228479243 -0.000673928155617 0)
(0.000219665179485 -0.000639225305661 0)
(0.000171571281709 -0.00062661762839 0)
(0.0001176941447 -0.000603457852493 0)
(6.95601883008e-05 -0.000551544309174 0)
(2.65349795281e-05 -0.000483143968189 0)
(-1.19822121639e-05 -0.000422983708068 0)
(-3.8782762137e-05 -0.000369111170316 0)
(-4.18332873696e-05 -0.000337232332314 0)
(-1.7924170512e-05 -0.000323690373302 0)
(1.203631785e-05 0.000220155041749 0)
(3.86842160968e-05 0.000256606273866 0)
(3.87977682201e-05 0.000238842380118 0)
(3.23298965312e-05 0.000181889952599 0)
(6.96413754426e-05 0.000249785774843 0)
(8.65241771399e-05 0.000264244846588 0)