/*--------------------------------*- C++ -*----------------------------------*\
| =========                 |                                                 |
| \\      /  F ield         | OpenFOAM: The Open Source CFD Toolbox           |
|  \\    /   O peration     | Version:  v1806                                 |
|   \\  /    A nd           | Web:      www.OpenFOAM.com                      |
|    \\/     M anipulation  |                                                 |
\*---------------------------------------------------------------------------*/
FoamFile
{
    version     2.0;
    format      ascii;
    class       volVectorField;
    location    "293";
    object      U;
}
// * * * * * * * * * * * * * * * * * * * * * * * * * * * * * * * * * * * * * //

dimensions      [0 1 -1 0 0 0 0];


internalField   nonuniform List<vector> 
6400
(
(-8.4157739077e-05 -0.00011384381225 0)
(-0.000231513196507 -8.90163143126e-05 0)
(-0.000340103899338 -7.37762048459e-05 0)
(-0.000465783207529 -6.63299335876e-05 0)
(-0.000554648422042 -3.93290563369e-05 0)
(-0.000616042379807 -1.70154907098e-05 0)
(-0.000639032014538 -8.98460036722e-06 0)
(-0.000653456300077 -2.09270850185e-05 0)
(-0.000735200579598 -3.48009044656e-05 0)
(-0.000820751349772 -3.23628550152e-05 0)
(-0.000840187232757 -2.85606942491e-05 0)
(-0.00091969620909 -3.30924804056e-05 0)
(-0.000987840822994 -2.96146601678e-05 0)
(-0.00104116492843 -2.21145983009e-05 0)
(-0.00107429600152 -1.82802457103e-05 0)
(-0.00111052926407 -2.19985960926e-05 0)
(-0.00116224039933 -2.29845306519e-05 0)
(-0.00120278206174 -1.85303423683e-05 0)
(-0.0012250846897 -1.12568450542e-05 0)
(-0.0012404328971 -6.34410038448e-06 0)
(-0.00126544578905 -1.25337671214e-05 0)
(-0.00130504999787 -2.0812749406e-05 0)
(-0.00135275746069 -2.36279743883e-05 0)
(-0.00139600422731 -2.41571102367e-05 0)
(-0.00143755345324 -2.19587835596e-05 0)
(-0.00147602553427 -1.82701784672e-05 0)
(-0.0015149029781 -1.71631902468e-05 0)
(-0.00154985963379 -1.51277821272e-05 0)
(-0.00157642915466 -1.1687417013e-05 0)
(-0.00159584839477 -8.90737261355e-06 0)
(-0.00160810546981 -8.76302641822e-06 0)
(-0.00162320881294 -7.61941015432e-06 0)
(-0.00163798283338 -4.30911326968e-06 0)
(-0.00164562419821 -3.9795856477e-06 0)
(-0.00164995483526 -2.95567171031e-06 0)
(-0.00166286326583 -2.09373933234e-06 0)
(-0.00167356878276 -3.4251881815e-06 0)
(-0.00166036487463 -2.36681685558e-06 0)
(-0.00166671389643 7.0549395264e-08 0)
(-0.00168405502967 -1.0633654325e-06 0)
(-0.00169704321964 -1.10967351726e-05 0)
(-0.00170280976324 -1.36442623913e-05 0)
(-0.00170537435232 -4.82689875672e-07 0)
(-0.00169933604287 7.99619098901e-06 0)
(-0.00168295064405 1.13970443847e-05 0)
(-0.00166110407027 1.50796661802e-05 0)
(-0.00163267376751 1.83333485898e-05 0)
(-0.00159593142549 2.23909285286e-05 0)
(-0.00155181266865 2.5514740713e-05 0)
(-0.00150198134039 2.29737324137e-05 0)
(-0.00145352025917 1.56215593848e-05 0)
(-0.00142686316696 1.89733060474e-05 0)
(-0.0013664409772 4.36415880685e-05 0)
(-0.00128802241653 5.46565046313e-05 0)
(-0.00118155006427 6.17512387231e-05 0)
(-0.00102705938682 7.48583630567e-05 0)
(-0.000872182838506 7.03214150933e-05 0)
(-0.000740421898411 6.53929030581e-05 0)
(-0.000607274756655 7.59742688711e-05 0)
(-0.000417623036086 8.17285571394e-05 0)
(-0.000230603527473 8.82039287107e-05 0)
(-2.99298445816e-05 0.000110088968683 0)
(0.000252916242736 0.000134752801016 0)
(0.000488611100797 9.21847454495e-05 0)
(0.000595521729064 5.40313721163e-05 0)
(0.000664436475946 3.81576466567e-05 0)
(0.000722145199609 2.64083026665e-05 0)
(0.000779368061896 1.99601728584e-05 0)
(0.000832927684303 1.5359087414e-05 0)
(0.000862423206613 8.22115623507e-06 0)
(0.000876639722243 -7.54380410849e-07 0)
(0.000854544060081 -1.18687871334e-05 0)
(0.00080275843265 -2.65425200343e-05 0)
(0.000768790436215 -4.66640893469e-05 0)
(0.000622408806479 -4.7704241469e-05 0)
(0.00057404507752 -5.02293180097e-05 0)
(0.000398679180774 -3.45586255413e-05 0)
(0.000424352016907 -5.57516152245e-05 0)
(0.000188066833264 -4.34980442132e-05 0)
(0.000140743188069 -8.44073193807e-05 0)
(-3.06687395859e-05 -0.000155846825882 0)
(-0.000131783670184 -0.000177430636892 0)
(-0.000231292250268 -0.000164356997964 0)
(-0.000293328245492 -0.000130962987433 0)
(-0.000434808924883 -0.000129636927819 0)
(-0.000575423418689 -9.11822156205e-05 0)
(-0.000657979306407 -5.28489112354e-05 0)
(-0.000710040067653 -7.28958996402e-05 0)
(-0.000764510740579 -0.000100294287924 0)
(-0.000827002517606 -9.74877849252e-05 0)
(-0.000886483713375 -9.12664872343e-05 0)
(-0.00094024600338 -9.15720718674e-05 0)
(-0.000989586435558 -8.07278034997e-05 0)
(-0.00103363983855 -6.52410081613e-05 0)
(-0.00107827168435 -5.76623215959e-05 0)
(-0.00112131914649 -7.24412062699e-05 0)
(-0.0011649689708 -7.62791144574e-05 0)
(-0.00119529991978 -4.34074354889e-05 0)
(-0.00116911956453 -2.05426245616e-05 0)
(-0.00119428819944 -1.93815127609e-05 0)
(-0.00123457454111 -4.1109001214e-05 0)
(-0.00128700080181 -7.17746932789e-05 0)
(-0.00135383389532 -8.04098819403e-05 0)
(-0.00140740027026 -6.99466435463e-05 0)
(-0.00142679288133 -6.1940926034e-05 0)
(-0.0014775960573 -5.88355439791e-05 0)
(-0.00152149608154 -5.28030077677e-05 0)
(-0.00155145885932 -4.37176842298e-05 0)
(-0.00157533415757 -3.45525979504e-05 0)
(-0.00159553540773 -2.70563046468e-05 0)
(-0.00161193208991 -2.39828312875e-05 0)
(-0.00161250008985 -1.95791755704e-05 0)
(-0.00162615783478 -9.30013507533e-06 0)
(-0.00162994942669 -1.03276149855e-05 0)
(-0.00162669432027 -1.3347268928e-05 0)
(-0.00165748436129 -5.53078020616e-06 0)
(-0.00165562990614 -8.19711513342e-06 0)
(-0.00164510698975 -1.29808603369e-05 0)
(-0.00166346417396 -9.28214872196e-06 0)
(-0.00170117029394 -4.44809697841e-06 0)
(-0.00171826831741 3.92759210292e-06 0)
(-0.00159878030091 1.13572677666e-05 0)
(-0.0015520674729 1.5039189275e-05 0)
(-0.00155407871665 1.78878176468e-05 0)
(-0.00154469624678 2.14469544841e-05 0)
(-0.00154288930983 2.71646284975e-05 0)
(-0.00154209152321 3.58875993043e-05 0)
(-0.00152619494156 4.65377263769e-05 0)
(-0.00151446739273 5.8333469623e-05 0)
(-0.00148756984826 6.84278972139e-05 0)
(-0.00142802895113 7.32880857319e-05 0)
(-0.00132428873074 7.77184001763e-05 0)
(-0.00122646244155 8.87279967043e-05 0)
(-0.00128786682795 0.000127384619864 0)
(-0.0011643486883 0.000168230663079 0)
(-0.00105035613483 0.00019529108934 0)
(-0.000976264148253 0.000210962000113 0)
(-0.000838785619496 0.000223044754208 0)
(-0.000673386569121 0.000253559425446 0)
(-0.000490600723305 0.000294205445929 0)
(-0.00027705032376 0.00033632431306 0)
(-2.68831898023e-05 0.000319422158378 0)
(0.000253504910204 0.0003931652228 0)
(0.000479161673861 0.000285708562756 0)
(0.000592530872712 0.000167907455822 0)
(0.000632934068838 9.85002878861e-05 0)
(0.000675551492467 7.65575819776e-05 0)
(0.00076447747618 7.16086046778e-05 0)
(0.000823118847796 5.46774504757e-05 0)
(0.000867811390332 2.75498507531e-05 0)
(0.000873363110187 -8.06685161717e-06 0)
(0.000844103707093 -4.63779497201e-05 0)
(0.000773769741 -7.31221580807e-05 0)
(0.00075831391433 -0.000106567554073 0)
(0.000696898674678 -0.000129140713466 0)
(0.000625971409302 -0.000142691059237 0)
(0.000535497748505 -0.000139681774292 0)
(0.000438330462944 -0.000168700755815 0)
(0.000277517171379 -0.000197644076475 0)
(0.000129929667761 -0.000334417877773 0)
(-4.74719205536e-05 -0.000269109674126 0)
(-0.000129493828866 -0.000297955569944 0)
(-0.000198793725788 -0.000280804539768 -9.96746966243e-29)
(-0.000350406946612 -0.00029229060443 9.6171878801e-29)
(-0.00049656691012 -0.000294939943834 8.83410468165e-29)
(-0.00057962727608 -0.000236398228807 -8.15828535999e-29)
(-0.000634222333637 -0.000118351007782 8.31589693296e-29)
(-0.000688997446584 -0.000128973656413 -8.300916702e-29)
(-0.000747371534947 -0.00016060438955 0)
(-0.000814884358491 -0.000164908106371 0)
(-0.000881439238649 -0.000154613848098 0)
(-0.000938064112019 -0.000141636723018 0)
(-0.000987614696465 -0.00012450704182 0)
(-0.00103005290767 -0.000111837398194 0)
(-0.00107229282851 -0.000101472424344 0)
(-0.00111260236679 -8.03342186157e-05 0)
(-0.000973154859443 -4.67209798375e-05 0)
(-0.000931893272222 -2.74606008445e-05 0)
(-0.000959461576148 -3.71733117497e-05 0)
(-0.00103062610301 -7.90259286772e-05 0)
(-0.00121404452331 -0.000128479996629 0)
(-0.0013150286669 -0.000144593190595 0)
(-0.00133420785915 -0.000132802567547 0)
(-0.00138936697023 -0.000117532634885 0)
(-0.00144651706811 -0.000107434859314 0)
(-0.00148471868241 -9.94656712448e-05 0)
(-0.00151699433363 -8.54578048901e-05 0)
(-0.00154724635755 -7.01207938853e-05 0)
(-0.00157171744414 -5.62091527981e-05 0)
(-0.00158783819308 -4.52202100796e-05 -1.78713093622e-28)
(-0.00160933065389 -3.49097958518e-05 1.73682031271e-28)
(-0.00159889715229 -2.6321511059e-05 0)
(-0.00160432700399 -1.5234527086e-05 0)
(-0.00163816597185 -4.10967023079e-06 0)
(-0.00157856675197 -1.59272128514e-05 0)
(-0.001607704518 -2.12155330809e-05 0)
(-0.00166332395013 -1.1779287318e-05 0)
(-0.00160971874036 -2.05448956956e-05 0)
(-0.00164214764705 -3.46334135897e-05 0)
(-0.00169693410467 -2.37002926414e-05 0)
(-0.0017221883363 1.65752302891e-05 0)
(-0.00171965066243 4.2974133763e-05 0)
(-0.00171268754366 3.67750287811e-05 0)
(-0.00170289757505 3.13243245261e-05 0)
(-0.00168653986644 3.43345387015e-05 0)
(-0.00166483847582 4.15717262632e-05 0)
(-0.00163852608846 5.43825158333e-05 0)
(-0.00160763331957 7.00145370956e-05 0)
(-0.00157224056079 8.86572852294e-05 0)
(-0.00153214616748 0.000112977055419 0)
(-0.00148734025525 0.000138895401469 0)
(-0.00143511842423 0.000156052830954 0)
(-0.0013683725491 0.000160703592938 0)
(-0.00126944162497 0.00019792121796 0)
(-0.00115171500007 0.000250861631286 0)
(-0.00107890868475 0.000291973120833 0)
(-0.000970450693814 0.000329959699196 0)
(-0.000823534587569 0.000375797835368 0)
(-0.000651298159831 0.000429964651173 0)
(-0.000457538406794 0.000491353084345 0)
(-0.000245161015246 0.000551145371491 0)
(-1.58988616976e-05 0.000615897811116 0)
(0.000241754386677 0.000651527928245 0)
(0.000411208772812 0.000437646367196 0)
(0.000501824348 0.000249897144381 0)
(0.000603753812612 0.000175587097159 0)
(0.000695641122013 0.000147769386911 0)
(0.00075345791552 0.000124861540002 0)
(0.0007991114128 8.84768905306e-05 0)
(0.000827814101792 3.9543279825e-05 0)
(0.000830253308485 -1.33554394276e-05 0)
(0.000821675038222 -5.94042258155e-05 0)
(0.000831933589118 -9.79815863331e-05 0)
(0.000816204947278 -0.000152774616855 0)
(0.000741943770045 -0.000208406120138 0)
(0.000644341807631 -0.000235793967712 0)
(0.00053748751861 -0.000248570562959 0)
(0.000429802527176 -0.000315667283843 0)
(0.00030245115788 -0.000455425794404 0)
(8.07411166363e-05 -0.000474091708628 0)
(-4.85506310519e-05 -0.000409114837271 0)
(-5.76595688288e-05 -0.000268011483607 0)
(-0.000164905358034 -0.000430777206359 0)
(-0.000312528073728 -0.000440454209773 0)
(-0.000424214274591 -0.000369583361644 0)
(-0.000227857456978 -0.000132537785855 0)
(-0.000282874511721 -0.000132499551721 0)
(-0.000550773453298 -0.000254297583245 0)
(-0.000699126754341 -0.000274572872916 0)
(-0.000785977892843 -0.00024769648825 0)
(-0.000868070480311 -0.00022597671509 0)
(-0.000933686021003 -0.000200475620766 0)
(-0.0009859183402 -0.000172559377918 0)
(-0.00101518535852 -0.000127029920219 0)
(-0.000931478675963 -6.57559505178e-05 0)
(-0.000865855292457 -2.64350174073e-05 0)
(-0.00086092304414 -2.14985512541e-05 0)
(-0.000918902697831 -6.30427748148e-05 0)
(-0.00106362111641 -0.000133819601802 0)
(-0.00122057660873 -0.000209403189148 0)
(-0.00126021936351 -0.000223765365876 0)
(-0.00130417402446 -0.000202650912682 0)
(-0.00135894818756 -0.00018360472703 0)
(-0.0014050971116 -0.00016901149192 0)
(-0.00144431207102 -0.000151740889949 0)
(-0.00147866280597 -0.000133192772958 0)
(-0.00150792721707 -0.000115107506009 0)
(-0.00154358020516 -9.6312846414e-05 0)
(-0.00156000707585 -7.76252590161e-05 0)
(-0.0015904483502 -6.10995067258e-05 0)
(-0.00158285225834 -4.56548534075e-05 0)
(-0.00161179026544 -2.84569399763e-05 0)
(-0.00157158982914 -9.35626583076e-06 0)
(-0.00158053054056 -6.33983805394e-06 0)
(-0.0016364257774 -1.7353341685e-05 0)
(-0.00158714598035 -3.52146538473e-05 0)
(-0.00163875670828 -4.00916577668e-05 0)
(-0.00169921971478 -4.52009408029e-05 0)
(-0.0017114048899 -5.5453895963e-05 0)
(-0.00171461309317 -3.78411817216e-05 0)
(-0.00171881823775 1.75225642986e-06 0)
(-0.00171922645947 3.2097626079e-05 0)
(-0.00171497803269 4.18215861811e-05 0)
(-0.0017055556601 4.61347488011e-05 0)
(-0.0016898681106 5.41363170419e-05 0)
(-0.00166892039221 6.65173354697e-05 1.71838876812e-28)
(-0.00164341786985 8.31919197517e-05 -1.73094468513e-28)
(-0.00161344032047 0.000103278063498 0)
(-0.00157886084342 0.000126909018088 0)
(-0.00153921192545 0.000154313266284 0)
(-0.00149328584444 0.000183223983004 0)
(-0.00143765727108 0.000211804586727 0)
(-0.00136796869902 0.000246239007288 0)
(-0.00128276565881 0.000296670755675 0)
(-0.00118797063842 0.00034796783235 0)
(-0.00108390486377 0.000399996254676 0)
(-0.000958623208933 0.000466872791675 0)
(-0.000804084689234 0.000542703400639 3.29694315706e-28)
(-0.000621716135711 0.000623374883483 -3.7554851462e-28)
(-0.000417514478107 0.000704307679664 0)
(-0.000201528109275 0.000772794371343 0)
(1.10380148473e-05 0.000813967435592 0)
(0.00018994895377 0.000783184696362 0)
(0.000355735310359 0.000600135332816 0)
(0.00051826617413 0.000396912024227 0)
(0.000595028798106 0.000266567492941 0)
(0.000666136061226 0.000208977480359 0)
(0.000734275034852 0.000171313997337 0)
(0.000787619173274 0.000123066959964 0)
(0.000840103096655 6.26790628792e-05 0)
(0.000875499273639 1.85667656588e-06 0)
(0.000896015723366 -5.43752322161e-05 0)
(0.00087466885864 -0.000129098212414 0)
(0.000771830537395 -0.000214334518223 0)
(0.000686270295816 -0.000288568300075 0)
(0.000599312772161 -0.00034985505674 0)
(0.000473829184697 -0.000385212161757 0)
(0.000291373631982 -0.000376884452146 0)
(0.000214972489279 -0.00053091590202 0)
(7.32577872499e-05 -0.000637254022487 0)
(-3.32173086215e-06 -0.000402397459352 0)
(-2.72565342734e-05 -0.000327488380447 0)
(-0.000153209028605 -0.000575364737182 0)
(-0.00026618127349 -0.000528188324779 0)
(-0.000270250743452 -0.00032785426008 0)
(-0.000208401855339 -0.000175855995302 0)
(-0.000359844105784 -0.000297425929512 0)
(-0.000577652898868 -0.000440335030251 0)
(-0.000656370627372 -0.000393521130306 0)
(-0.000753397385715 -0.000341434588636 0)
(-0.000840633812753 -0.000312344290662 0)
(-0.000911164571822 -0.000266170618222 0)
(-0.000902486151388 -0.000167996893365 0)
(-0.000805347592318 -7.33868524167e-05 0)
(-0.000819675657194 -3.73032290233e-05 0)
(-0.000871064576883 -4.73206326816e-05 0)
(-0.00096840544685 -9.95358122734e-05 0)
(-0.00110080704916 -0.0001851683659 0)
(-0.00119737779523 -0.000251400197267 0)
(-0.00120893897508 -0.000259945883246 0)
(-0.00125245172277 -0.0002603976402 0)
(-0.00131308404561 -0.000255385858024 0)
(-0.00135927901767 -0.000235548356424 0)
(-0.0014020107642 -0.000211240200747 0)
(-0.0014388662432 -0.00018772009487 0)
(-0.0014691528049 -0.000166950055658 0)
(-0.00150847694005 -0.000144759090403 0)
(-0.00152133351654 -0.000121197667644 0)
(-0.00156521138555 -9.83178252082e-05 0)
(-0.00155191140412 -7.41834110955e-05 0)
(-0.00160061535221 -5.22996785287e-05 -1.70142723603e-28)
(-0.00153458917586 -2.97624514888e-05 1.56723969473e-28)
(-0.00158962767535 -1.79274046338e-05 0)
(-0.00163061768095 -1.39349400415e-05 0)
(-0.00159245527869 -3.02764200294e-05 0)
(-0.00166301753671 -6.08859024824e-05 0)
(-0.00169115989543 -8.14664805288e-05 0)
(-0.00170978172837 -7.56329164877e-05 0)
(-0.00171789200229 -5.96718669889e-05 0)
(-0.00172026098664 -3.49011477734e-05 0)
(-0.0017230186326 -9.1925855083e-07 0)
(-0.00172383671174 2.8960486863e-05 0)
(-0.00172008053081 4.68170118583e-05 0)
(-0.00171079100198 5.91773253147e-05 0)
(-0.00169565779296 7.28274685654e-05 0)
(-0.00167550797585 8.98946170098e-05 0)
(-0.00165087107116 0.000110772019489 0)
(-0.00162178514055 0.000135305268107 0)
(-0.0015879270182 0.000163822720606 0)
(-0.0015485291355 0.000196725243593 0)
(-0.00150207401914 0.000233656405599 0)
(-0.00144573746922 0.00027501867046 0)
(-0.0013765412806 0.00032390202576 0)
(-0.00129333487654 0.000382533711067 0)
(-0.00119716005611 0.000447375197073 0)
(-0.00108528973293 0.000523610298949 0)
(-0.000949406424896 0.000616731638856 0)
(-0.000783895098968 0.000720694502072 0)
(-0.000590647166056 0.000824978039344 0)
(-0.000379697505688 0.000916697430207 0)
(-0.000167502315546 0.000979236930226 0)
(2.56512952819e-05 0.000994439039287 0)
(0.000164093602357 0.000921134702132 0)
(0.000338515211171 0.000784251520902 0)
(0.000527297586133 0.000563268943165 0)
(0.000616725261125 0.00036702070807 0)
(0.000684648186411 0.000276101031316 0)
(0.000740114720014 0.000223207151283 0)
(0.000789828706623 0.000168209632374 0)
(0.000850417838453 0.000106062957663 0)
(0.000916417046287 3.41788280443e-05 0)
(0.000924879521544 -7.02337983873e-05 0)
(0.000825644349185 -0.000191111534798 0)
(0.000749578229053 -0.000297627284502 0)
(0.00067384162902 -0.000393586493766 0)
(0.000573430304698 -0.000480985741105 0)
(0.00042314348361 -0.000498364678233 0)
(0.000285833481163 -0.000507788400226 0)
(0.000195190395403 -0.000691016659741 0)
(5.52618580246e-05 -0.000746151978273 0)
(1.94659084839e-06 -0.000372889951186 0)
(-3.60492373522e-05 -0.000400617413969 0)
(-0.000157003570506 -0.000656300412697 0)
(-0.000214911818911 -0.000528895744612 0)
(-0.000155781600636 -0.000249793391894 0)
(-0.0002115869645 -0.000255377750517 0)
(-0.000471093986521 -0.000503916105196 0)
(-0.000561566482382 -0.000535312521259 0)
(-0.000628885268665 -0.000481536170961 0)
(-0.000713055007061 -0.00043338842647 0)
(-0.000794739250778 -0.000366913983082 0)
(-0.00071677611491 -0.000230243113694 0)
(-0.000645683647985 -0.000111887186652 0)
(-0.000698930539765 -8.07066179283e-05 0)
(-0.000765455833809 -9.61466677895e-05 0)
(-0.000898817435785 -0.000155378747491 0)
(-0.0010489034191 -0.000232574477729 0)
(-0.00114790761157 -0.000276446036787 0)
(-0.00113906892536 -0.000272412288153 0)
(-0.00119421512273 -0.000295144111658 0)
(-0.00126566488372 -0.000317091403958 0)
(-0.00131121721657 -0.000305979612065 0)
(-0.00135348190523 -0.000280667220234 0)
(-0.00139127288746 -0.000252976612284 0)
(-0.00143754927226 -0.000226652918757 0)
(-0.00146834318018 -0.000195149853677 0)
(-0.00146587701042 -0.000169806423544 0)
(-0.00153397734666 -0.000147272887376 0)
(-0.00150006651021 -0.000112691536816 0)
(-0.00157808951242 -8.13210800065e-05 0)
(-0.00147934976344 -4.72651259426e-05 0)
(-0.00157495696557 -4.02026864264e-05 0)
(-0.00149596954454 -3.60267760713e-05 0)
(-0.00158107299646 -4.26128760845e-05 0)
(-0.00166011402618 -7.02390952509e-05 0)
(-0.00169170369338 -0.000101123921835 0)
(-0.00170715763018 -0.000101704086437 0)
(-0.00171758330855 -8.62078842924e-05 0)
(-0.00172353338096 -6.37148424962e-05 0)
(-0.00172709995935 -3.58320481593e-05 0)
(-0.0017296444743 -3.23111960194e-06 0)
(-0.00173014923607 2.75852432757e-05 0)
(-0.0017265340852 5.15418905786e-05 0)
(-0.00171747868488 7.10498099108e-05 0)
(-0.00170299420145 9.05263528476e-05 0)
(-0.00168361837922 0.000112379876197 0)
(-0.00165987152482 0.000137564067729 0)
(-0.00163167465452 0.000166560107586 0)
(-0.00159849884836 0.0002001015328 0)
(-0.00155949494314 0.000239074578709 0)
(-0.00151322660563 0.000284272200741 0)
(-0.00145738629461 0.000336905929909 0)
(-0.0013894626832 0.000398791290196 0)
(-0.0013074764229 0.000471051947482 0)
(-0.00120928336354 0.000554976649767 0)
(-0.00109014953564 0.000656298527061 0)
(-0.000943539364653 0.000776964844358 0)
(-0.000767301115454 0.000907421589244 0)
(-0.000567065401026 0.00103128291395 0)
(-0.000353860492902 0.00112576015373 0)
(-0.000148986911056 0.00117070166281 0)
(2.51556606751e-05 0.00113561230765 0)
(0.000153990848288 0.000986313487584 0)
(0.000350958576274 0.000994719132074 0)
(0.00049032714483 0.000696785883741 0)
(0.000583661809768 0.000457217961558 0)
(0.000675284587493 0.000340917776734 0)
(0.000748859198165 0.000277017544088 0)
(0.000808100361704 0.000222128001391 0)
(0.000898021722433 0.000162420439843 0)
(0.000964211389956 5.06121832669e-05 0)
(0.000896306180303 -0.000112253097081 0)
(0.000815979128214 -0.000254896776575 0)
(0.00076866514301 -0.000380679054262 0)
(0.000680935958317 -0.000501610623297 0)
(0.000579722463279 -0.000611023348392 0)
(0.000418230782284 -0.00060337847865 0)
(0.000294438537944 -0.000629062721104 0)
(0.000197648389666 -0.000819877803493 0)
(6.01175656988e-05 -0.000855242198829 0)
(-1.3226906992e-05 -0.000405010508507 0)
(-8.89448715755e-05 -0.00053027577576 0)
(-0.000209884400141 -0.000715824535601 0)
(-0.000230117194498 -0.000653880516196 0)
(-0.000146673509133 -0.00031141339322 0)
(-0.000315238998181 -0.000464520667502 0)
(-0.000499617957486 -0.000627910803362 0)
(-0.00054122585614 -0.000600096106359 0)
(-0.000607521153865 -0.000547167543349 0)
(-0.000642908170507 -0.000486711008454 0)
(-0.00075412925378 -0.000393342917643 3.80704064598e-28)
(-0.00055993914287 -0.000169101283174 -2.12791300325e-28)
(-0.000647859917614 -0.000140621331219 0)
(-0.000687004037738 -0.000147372313706 0)
(-0.000803493067912 -0.000208081550205 0)
(-0.000971105823163 -0.000305534109743 0)
(-0.00108094728996 -0.000338646441261 0)
(-0.00104823429862 -0.000294872968487 0)
(-0.00111395989054 -0.000313969050579 0)
(-0.00121027767647 -0.000363656666386 0)
(-0.00125551099876 -0.000371500879599 0)
(-0.00130424103393 -0.000352504657862 0)
(-0.00134928019445 -0.000324869123691 0)
(-0.00139026776137 -0.000292111179585 0)
(-0.00141415479172 -0.000253769563723 0)
(-0.00142049431959 -0.000213894454857 0)
(-0.00148227903672 -0.000191476168931 0)
(-0.00143024509207 -0.000163648460527 0)
(-0.00153815153577 -0.000129435823985 0)
(-0.00142812150982 -6.83831235691e-05 0)
(-0.00153585292266 -5.67225366575e-05 0)
(-0.00146964849109 -5.98124550326e-05 1.49509529117e-28)
(-0.00156151579431 -6.45814722671e-05 -1.59593050705e-28)
(-0.00158827001094 -9.92903628456e-05 0)
(-0.00168761537522 -0.000129996760776 0)
(-0.00170673581672 -0.000129054769732 0)
(-0.00171603711326 -0.000114516157148 0)
(-0.00172393244866 -9.35353526988e-05 0)
(-0.00173092339285 -6.78945220098e-05 0)
(-0.00173573189723 -3.81182288559e-05 0)
(-0.00173822381249 -5.07477947073e-06 0)
(-0.00173843071461 2.75644147455e-05 0)
(-0.0017347455587 5.6481470431e-05 0)
(-0.00172590756153 8.21941952485e-05 0)
(-0.00171191755365 0.00010730685774 0)
(-0.00169326389104 0.000133977427935 0)
(-0.00167032285186 0.000163546107591 0)
(-0.00164289027474 0.000197055291908 0)
(-0.00161040979077 0.00023568618943 0)
(-0.00157218134292 0.000280826815642 0)
(-0.00152701369606 0.000334019998531 0)
(-0.00147288433011 0.000397038284881 0)
(-0.00140716773449 0.00047183345924 0)
(-0.00132663915861 0.000560669689272 0)
(-0.00122689063735 0.000667396566916 0)
(-0.0011019954336 0.000796718642764 0)
(-0.000946869617655 0.000946020184147 0)
(-0.000761981142153 0.0011004968921 0)
(-0.000554349628418 0.00123821272159 0)
(-0.000336509900969 0.00133338518806 0)
(-0.000130920939375 0.00135202851052 0)
(3.63829106808e-05 0.00128625813062 0)
(0.0001901911731 0.00121640104165 0)
(0.000325752495925 0.00111023775632 0)
(0.000455985680868 0.000814221347777 0)
(0.000551387370446 0.000550964085907 0)
(0.000686919408349 0.000442231156319 0)
(0.000796742559266 0.000368015117648 0)
(0.000880844224224 0.000301188410221 0)
(0.000960793215765 0.000206934082872 0)
(0.000969319547093 3.49010555633e-05 0)
(0.000893534366697 -0.000152745054168 0)
(0.000865287994899 -0.000311712957326 0)
(0.000810412211635 -0.000462917715329 0)
(0.000723305440606 -0.000616306026393 0)
(0.000596013470184 -0.000709487258058 0)
(0.000463801168548 -0.000744073867225 0)
(0.000308472986115 -0.000758002337613 0)
(0.000202177993008 -0.000936197711617 0)
(6.96634904504e-05 -0.00099697954381 0)
(-2.81913836979e-05 -0.000473345754786 0)
(-0.000131308275029 -0.000660921827874 0)
(-0.00023848383935 -0.000739980396085 0)
(-0.000140481803047 -0.000417558457046 0)
(-0.000154357051913 -0.000391405762574 0)
(-0.000382402601408 -0.000668447897374 0)
(-0.000463115026483 -0.000693369096952 0)
(-0.000527362057154 -0.000664308543034 0)
(-0.000557143948213 -0.000584730231525 0)
(-0.00062271271098 -0.000523073770245 0)
(-0.000487916056285 -0.000284485448488 0)
(-0.000561164896033 -0.000202128115806 0)
(-0.000632571345841 -0.000198848829318 0)
(-0.000686878611793 -0.000233572354967 0)
(-0.000873241158169 -0.000351531649882 0)
(-0.0010060970116 -0.00041347943766 0)
(-0.000965146420406 -0.000350644296335 0)
(-0.00101692180676 -0.000339806542665 0)
(-0.00113259702169 -0.000397745477634 0)
(-0.00120241046885 -0.000428011280739 0)
(-0.00124220926987 -0.000419311086598 0)
(-0.00128379324935 -0.00039705068831 0)
(-0.00133728784169 -0.000372261455033 0)
(-0.00137667153277 -0.000333768862601 0)
(-0.00142598894488 -0.000277843502131 0)
(-0.00139732775403 -0.000239012880013 0)
(-0.00148204666617 -0.000208965575056 0)
(-0.00145647542255 -0.000168474773467 0)
(-0.00142304386786 -0.00012693760647 0)
(-0.00145287141446 -9.77715301259e-05 0)
(-0.00157476904363 -8.63609720215e-05 0)
(-0.00152358525123 -7.27124607231e-05 0)
(-0.00152527633041 -0.000114186766406 0)
(-0.00167474696516 -0.000165195834791 0)
(-0.00169537452645 -0.000173526533281 0)
(-0.00171237426757 -0.000150438026373 0)
(-0.00172372977581 -0.000125631446875 0)
(-0.0017320889696 -0.000100899719595 0)
(-0.00173988896135 -7.32143208017e-05 0)
(-0.00174583144772 -4.15176162302e-05 0)
(-0.00174871147085 -6.81365856422e-06 0)
(-0.00174859832493 2.83413737828e-05 0)
(-0.00174477735344 6.16833438877e-05 0)
(-0.001736159779 9.29277420647e-05 0)
(-0.00172257210827 0.000123414401198 1.66367746598e-28)
(-0.00170446472318 0.00015487064191 -1.6585006332e-28)
(-0.00168209355918 0.000188869251759 0)
(-0.00165521944974 0.000226862052327 0)
(-0.00162345200209 0.000270370216304 0)
(-0.00158644532921 0.000321201222923 0)
(-0.00154335448899 0.000381586024396 0)
(-0.00149235251891 0.000454204805433 0)
(-0.00143048786799 0.000542298145729 0)
(-0.00135322803868 0.000650027718153 0)
(-0.00125421030735 0.000782409949477 0)
(-0.00112646802729 0.000941801918955 0)
(-0.00096557650988 0.00112063496634 0)
(-0.000772548156514 0.00130018340463 0)
(-0.000552272415557 0.00145614350548 0)
(-0.000315543721058 0.00155233851283 0)
(-9.46248141952e-05 0.0015438175127 0)
(7.8255907495e-05 0.00145202769904 0)
(0.000211223317318 0.00133070156872 0)
(0.000304610902254 0.00118995436506 0)
(0.000470433070507 0.00104628277204 0)
(0.000556890461325 0.000671539413405 0)
(0.000698969216538 0.00055912021057 0)
(0.000836364629571 0.00047047182558 0)
(0.000922931402564 0.000367130173745 0)
(0.000981714224903 0.000223275730856 0)
(0.000974026593272 1.95689726372e-05 0)
(0.00094697481313 -0.000174748113061 0)
(0.00094212971921 -0.000356581603248 0)
(0.000883939650425 -0.000548200975419 0)
(0.000789136011796 -0.000728984801086 0)
(0.000645317495695 -0.000825820803476 0)
(0.000517323342153 -0.000900421896983 0)
(0.000338451108615 -0.000928965573502 0)
(0.000197000946462 -0.00106024152712 0)
(6.82527589176e-05 -0.00115465815121 0)
(-4.08958535877e-05 -0.000562470697075 0)
(-0.000154588119629 -0.000771744736306 0)
(-0.000200455630537 -0.000755355389411 0)
(-0.000135400828533 -0.00045761790862 0)
(-0.000224001951816 -0.000528979003294 0)
(-0.000404254982426 -0.000769954998873 0)
(-0.00042681504842 -0.000753489778437 0)
(-0.000514325480066 -0.000723354968617 0)
(-0.000474411703717 -0.000571586883698 0)
(-0.000635001813838 -0.000585612682119 0)
(-0.000475891364269 -0.00030873029717 0)
(-0.00057592679094 -0.00027071093145 0)
(-0.000627499211499 -0.000271442815358 0)
(-0.000744624006221 -0.000360520942227 0)
(-0.000911582265266 -0.000485764605711 0)
(-0.00099035283425 -0.000472256553408 0)
(-0.000944267558956 -0.000385016991106 0)
(-0.0010322139723 -0.000418474989382 0)
(-0.00112712746429 -0.00047545362757 0)
(-0.00118390083462 -0.000484649042785 0)
(-0.00123440826646 -0.000466518224707 0)
(-0.0012659345249 -0.000436765179946 0)
(-0.00131275600468 -0.000409166931816 0)
(-0.0013276814922 -0.000366811923998 0)
(-0.00133281594092 -0.000292022642583 0)
(-0.00142913054955 -0.000261486201301 0)
(-0.00133290943484 -0.000223877484116 0)
(-0.00151557923379 -0.000189266013362 0)
(-0.00140379275736 -0.000148080130695 0)
(-0.00156574092117 -0.000144125758063 0)
(-0.00145162278211 -0.000110353677205 0)
(-0.00160668381641 -0.000114375181256 0)
(-0.00164589487033 -0.000169330444405 1.76047549243e-28)
(-0.00168515122943 -0.00021196284261 -1.82655300688e-28)
(-0.00170312819032 -0.000197536166405 0)
(-0.00171893024665 -0.000167798653753 0)
(-0.00173265885248 -0.00013807022972 0)
(-0.0017424536352 -0.000109628585744 0)
(-0.00175064360729 -7.95649585696e-05 0)
(-0.00175710354319 -4.58028237588e-05 0)
(-0.00176064529804 -8.75891211692e-06 0)
(-0.00176071923809 2.95029225125e-05 0)
(-0.00175681197045 6.71028460882e-05 0)
(-0.0017483052273 0.000103437609752 0)
(-0.00173507023616 0.000139110194738 0)
(-0.00171726808813 0.000175381339801 0)
(-0.00169504138931 0.00021382268586 0)
(-0.00166836916502 0.000256106813423 0)
(-0.00163726654079 0.000303947245717 0)
(-0.00160187344295 0.000359467451147 0)
(-0.00156188676375 0.000425655517963 0)
(-0.00151587170561 0.00050662975502 0)
(-0.00146065226763 0.000607789273249 0)
(-0.0013903676136 0.00073562066096 0)
(-0.00129651467261 0.000895759793441 0)
(-0.00117009052981 0.00108778283272 0)
(-0.00100492037727 0.00129998494584 0)
(-0.000798930292979 0.00151138729885 0)
(-0.00055277285107 0.00169707413052 0)
(-0.000282165367822 0.00180082287454 0)
(-4.94759025253e-05 0.00174773584341 0)
(0.000102955181837 0.00158977661141 0)
(0.000215257124474 0.0014373833091 0)
(0.000326340845682 0.0012994427175 0)
(0.000450582143007 0.00113619807403 0)
(0.00062182498726 0.000886390222458 0)
(0.00071803516925 0.000641923801692 0)
(0.000887906645507 0.000585674031925 0)
(0.000980848226043 0.000434070245789 0)