/*--------------------------------*- C++ -*----------------------------------*\
| =========                 |                                                 |
| \\      /  F ield         | OpenFOAM: The Open Source CFD Toolbox           |
|  \\    /   O peration     | Version:  v1806                                 |
|   \\  /    A nd           | Web:      www.OpenFOAM.com                      |
|    \\/     M anipulation  |                                                 |
\*---------------------------------------------------------------------------*/
FoamFile
{
    version     2.0;
    format      ascii;
    class       surfaceScalarField;
    location    "737";
    object      phia;
}
// * * * * * * * * * * * * * * * * * * * * * * * * * * * * * * * * * * * * * //

dimensions      [0 3 -1 0 0 0 0];
oriented        oriented;


internalField   nonuniform List<scalar> 
12640
(
5.27164409465e-08
-5.3686917909e-08
1.00039713644e-07
-4.80085603398e-08
1.41259069507e-07
-4.17054061307e-08
1.76527277618e-07
-3.56209754942e-08
2.0421086908e-07
-2.80143628772e-08
2.24207491899e-07
-2.03710298981e-08
2.41583120881e-07
-1.77286789652e-08
2.66275191736e-07
-2.50093229045e-08
2.98559792366e-07
-3.25564536314e-08
3.3096319786e-07
-3.26318726154e-08
3.62678069863e-07
-3.18908215562e-08
3.96451630887e-07
-3.39307524316e-08
4.30003869017e-07
-3.36908426047e-08
4.62365865716e-07
-3.24959219215e-08
4.95537197304e-07
-3.3295887764e-08
5.32878337302e-07
-3.7482620237e-08
5.72517326883e-07
-3.9768976558e-08
6.11065016911e-07
-3.86755953253e-08
6.4818277465e-07
-3.72084513663e-08
6.86898103288e-07
-3.87897289967e-08
7.32237751205e-07
-4.53964792495e-08
7.83731617977e-07
-5.15578197357e-08
8.36928217837e-07
-5.32518699498e-08
8.89663568515e-07
-5.28013075207e-08
9.41376207674e-07
-5.17697067644e-08
9.92452749622e-07
-5.1145075121e-08
1.04386308944e-06
-5.14699340046e-08
1.09522758283e-06
-5.14373356257e-08
1.14603193551e-06
-5.0866502362e-08
1.19659397957e-06
-5.06367930957e-08
1.24795698375e-06
-5.14256174469e-08
1.29964944237e-06
-5.17694652377e-08
1.35117262866e-06
-5.15933827907e-08
1.40443109326e-06
-5.3337195359e-08
1.45926979862e-06
-5.4897017963e-08
1.5149378428e-06
-5.57388969184e-08
1.57157994812e-06
-5.66940456198e-08
1.6275341731e-06
-5.60085172976e-08
1.68165659522e-06
-5.41590867987e-08
1.73433291331e-06
-5.27278896785e-08
1.78708404708e-06
-5.27903192201e-08
1.83709717726e-06
-5.0065078801e-08
1.88048926187e-06
-4.34271386483e-08
1.91923162388e-06
-3.87833724141e-08
1.95539075533e-06
-3.61791571802e-08
1.98856279337e-06
-3.31992061215e-08
2.01830892234e-06
-2.97503941844e-08
2.04370634692e-06
-2.54066564311e-08
2.06470362341e-06
-2.09812161078e-08
2.08392042973e-06
-1.92058078967e-08
2.10462283467e-06
-2.06580382629e-08
2.12274005562e-06
-1.80795083359e-08
2.12889346712e-06
-6.09525759665e-09
2.12626624374e-06
2.67698513191e-09
2.11417313016e-06
1.216393602e-08
2.08904581087e-06
2.51876090339e-08
2.06531780109e-06
2.38333945334e-08
2.04938706693e-06
1.60624641798e-08
2.02829664706e-06
2.12817355837e-08
2.00258162252e-06
2.5978698769e-08
1.98773839645e-06
1.51803343366e-08
1.96415189898e-06
2.39027060717e-08
1.88087770944e-06
8.34232935596e-08
1.7190762328e-06
1.61606885123e-07
1.55813428253e-06
1.6078962891e-07
1.44204808833e-06
1.15910495447e-07
1.33564882376e-06
1.06250823653e-07
1.22819779214e-06
1.07266180969e-07
1.11387497104e-06
1.14079635035e-07
9.87381024084e-07
1.26148165899e-07
8.56297924671e-07
1.30699479587e-07
7.30196600546e-07
1.25734797909e-07
6.12082671385e-07
1.17707655866e-07
4.89414714948e-07
1.22234610166e-07
3.85060481209e-07
1.03911549423e-07
2.95126075898e-07
8.95828553313e-08
2.31440343955e-07
6.33538524724e-08
1.60905523193e-07
7.02328631109e-08
9.71018298935e-08
6.27996346534e-08
9.6712179295e-08
2.79696090588e-08
-8.19662873349e-08
6.48054524373e-08
-8.52847562263e-08
1.00915133961e-07
-7.81385620935e-08
1.38002362654e-07
-7.29790810766e-08
1.83323261606e-07
-7.36655488052e-08
2.18679602435e-07
-5.6053495738e-08
2.431423558e-07
-4.25475872361e-08
2.69698309024e-07
-5.1864431448e-08
2.99441734532e-07
-6.25710046513e-08
3.31811885175e-07
-6.52016209257e-08
3.64479237195e-07
-6.47457631971e-08
3.9521872573e-07
-6.48088355109e-08
4.25942738891e-07
-6.45714654265e-08
4.58014062404e-07
-6.47064776264e-08
4.92043092898e-07
-6.74988705306e-08
5.30430041775e-07
-7.60056169518e-08
5.6880928321e-07
-7.82963795202e-08
6.01526834612e-07
-7.14768232977e-08
6.35027023021e-07
-7.0796168665e-08
6.76133134413e-07
-7.99384688385e-08
7.25443266066e-07
-9.47739710349e-08
7.80663903655e-07
-1.06814944861e-07
8.35612536605e-07
-1.08276654881e-07
8.86854270478e-07
-1.04084432241e-07
9.37479329768e-07
-1.02473331253e-07
9.89782423043e-07
-1.03491407404e-07
1.04146459409e-06
-1.03234792967e-07
1.09227737485e-06
-1.02295795424e-07
1.14306302627e-06
-1.017374804e-07
1.19404292943e-06
-1.0166446189e-07
1.24485816048e-06
-1.02330244677e-07
1.29559598494e-06
-1.02562934251e-07
1.3461622174e-06
-1.02250644226e-07
1.39912248569e-06
-1.06347205816e-07
1.45561988847e-06
-1.11483885304e-07
1.51191289647e-06
-1.12067370056e-07
1.56812229563e-06
-1.12974038072e-07
1.62600717152e-06
-1.13918428848e-07
1.68438116402e-06
-1.12599526897e-07
1.73892701177e-06
-1.07296834394e-07
1.78075122834e-06
-9.46853111065e-08
1.81382581338e-06
-8.31647289381e-08
1.85080144733e-06
-8.04665561975e-08
1.8913612112e-06
-7.93550571727e-08
1.93105699391e-06
-7.59238140935e-08
1.96896433699e-06
-7.11034837563e-08
2.003658187e-06
-6.44783363511e-08
2.03512377255e-06
-5.68525330862e-08
2.06256776784e-06
-4.8439861469e-08
2.08159794364e-06
-3.81945492822e-08
2.08833344061e-06
-2.73855808579e-08
2.09170583908e-06
-2.13887021429e-08
2.1084234913e-06
-2.2780567361e-08
2.12120025529e-06
-1.00151183438e-08
2.11611795937e-06
1.73034292712e-08
2.11096898357e-06
3.04533250246e-08
2.10459903271e-06
3.03040389773e-08
2.08955337754e-06
3.12862298839e-08
2.0737078418e-06
3.73298843948e-08
2.05362071915e-06
4.63841682341e-08
2.00343020901e-06
6.56071895234e-08
1.94448226878e-06
8.30624867016e-08
1.85234203589e-06
1.75571238946e-07
1.69766667845e-06
3.16242905789e-07
1.51472398464e-06
3.43507024166e-07
1.34552599918e-06
2.84969359876e-07
1.24372613404e-06
2.07872495763e-07
1.17016612159e-06
1.80646894984e-07
1.07784394068e-06
2.06137178519e-07
9.58185913365e-07
2.45523567286e-07
8.21143335182e-07
2.67419517542e-07
6.85632443922e-07
2.60920311496e-07
5.74118814035e-07
2.28859907479e-07
4.9093455346e-07
2.05022216769e-07
4.1069122126e-07
1.83742642092e-07
3.36710160491e-07
1.63156533987e-07
2.59348715799e-07
1.40259302494e-07
1.90319451641e-07
1.38657161765e-07
9.96607150504e-08
1.53005984971e-07
1.95387833986e-07
3.46301018033e-08
-1.17151022653e-07
5.27053345538e-08
-1.03713571643e-07
9.45566374073e-08
-1.20317695183e-07
1.42778154636e-07
-1.21542809439e-07
1.87795700593e-07
-1.19015423899e-07
2.12112688184e-07
-8.06344467603e-08
2.28310121393e-07
-5.89805007255e-08
2.57129653748e-07
-8.09311815164e-08
2.90236947254e-07
-9.58927714796e-08
3.23599829514e-07
-9.87505722388e-08
3.56523202626e-07
-9.78252745602e-08
3.87585273272e-07
-9.60391463187e-08
4.18001733413e-07
-9.51678665896e-08
4.50366437372e-07
-9.72605609263e-08
4.81863966413e-07
-9.91680458075e-08
5.00165581209e-07
-9.44560901426e-08
5.09894002603e-07
-8.8117506142e-08
5.34444793705e-07
-9.6100804546e-08
5.82233721917e-07
-1.18633711009e-07
6.50406472701e-07
-1.48165878622e-07
7.20681551917e-07
-1.6510226596e-07
7.76943633441e-07
-1.63145911201e-07
8.27141661098e-07
-1.58530651138e-07
8.79777338727e-07
-1.56789032534e-07
9.32636982795e-07
-1.55389770912e-07
9.83509533661e-07
-1.54433812103e-07
1.03399224595e-06
-1.53775035669e-07
1.08491627605e-06
-1.53292268826e-07
1.13587677997e-06
-1.5275936435e-07
1.18716778949e-06
-1.53033747242e-07
1.23753354397e-06
-1.52765135697e-07
1.28811598513e-06
-1.532240908e-07
1.34031268018e-06
-1.5451951936e-07
1.39059561519e-06
-1.56709335591e-07
1.44481354179e-06
-1.65753169063e-07
1.5062392852e-06
-1.73555671893e-07
1.56428220737e-06
-1.71062045518e-07
1.6204004922e-06
-1.70090877974e-07
1.6801311157e-06
-1.72370085982e-07
1.73747616728e-06
-1.64702249748e-07
1.78997233357e-06
-1.47228595033e-07
1.83812701961e-06
-1.3137833004e-07
1.88104645583e-06
-1.23423758405e-07
1.92023103157e-06
-1.18587813614e-07
1.95674054695e-06
-1.12460738945e-07
1.99014319137e-06
-1.04542615702e-07
2.02056160106e-06
-9.49100608571e-08
2.04771068082e-06
-8.40212490836e-08
2.07117324353e-06
-7.18973160846e-08
2.091376249e-06
-5.83982793402e-08
2.10909761996e-06
-4.50809437862e-08
2.12218108974e-06
-3.44471830428e-08
2.12308823372e-06
-2.36366222799e-08
2.11696940917e-06
-3.845997129e-09
2.11667703733e-06
1.76803331614e-08
2.11652206612e-06
3.07043880101e-08
2.10737459386e-06
3.958874155e-08
2.09035265196e-06
4.84746240107e-08
2.06844642175e-06
5.94587410404e-08
2.03936215257e-06
7.56825746052e-08
2.0018000876e-06
1.03374509989e-07
1.91573929806e-06
1.6922759946e-07
1.73941919164e-06
3.51868068731e-07
1.51544671178e-06
5.4006130365e-07
1.35102049801e-06
5.07816781258e-07
1.27876988965e-06
3.5706707285e-07
1.19459938147e-06
2.91892071257e-07
1.08903827332e-06
2.86027139891e-07
9.75376700408e-07
3.19607137082e-07
8.51407697385e-07
3.69278433046e-07
7.33914494351e-07
3.84682382313e-07
6.43218471783e-07
3.51327044073e-07
5.65870520431e-07
3.05861111624e-07
4.88265001979e-07
2.82215926534e-07
3.98766770252e-07
2.72793512321e-07
3.09310196657e-07
2.52142598533e-07
2.33715543953e-07
2.15453972888e-07
1.76821311445e-07
1.95185347788e-07
7.57388685648e-08
2.5269026532e-07
2.7109891111e-07
2.36534983673e-08
-1.4097250689e-07
3.19650221888e-08
-1.12255479119e-07
7.74442170374e-08
-1.66121227836e-07
1.16205474038e-07
-1.60648340787e-07
1.22325437491e-07
-1.253779507e-07
1.11301888776e-07
-6.97219789744e-08
1.55151499394e-07
-1.02953005527e-07
2.23402043565e-07
-1.49346553027e-07
2.71723988839e-07
-1.44393703225e-07
3.0918992018e-07
-1.36379814058e-07
3.44222136187e-07
-1.33034851618e-07
3.76766428634e-07
-1.28782090985e-07
4.05221255505e-07
-1.23827751175e-07
4.21011893324e-07
-1.1324409709e-07
4.26978088581e-07
-1.05286584335e-07
4.41938412847e-07
-1.09511129305e-07
4.80055142025e-07
-1.26301839811e-07
5.40714929673e-07
-1.56812527595e-07
6.11169800818e-07
-1.89149306952e-07
6.699569047e-07
-2.0701858917e-07
7.17120413273e-07
-2.12337828169e-07
7.67059403064e-07
-2.13148549687e-07
8.19406851096e-07
-2.10947093285e-07
8.70645553286e-07
-2.08090025907e-07
9.21247457318e-07
-2.06061516091e-07
9.71647786108e-07
-2.04896480474e-07
1.02269687812e-06
-2.04895679979e-07
1.07387702279e-06
-2.0453558615e-07
1.125429213e-06
-2.0438621779e-07
1.176146888e-06
-2.03824453397e-07
1.22789533385e-06
-2.04595165771e-07
1.27740135722e-06
-2.02809328316e-07
1.32611422474e-06
-2.0330657829e-07
1.38447803218e-06
-2.1513370415e-07
1.44340778048e-06
-2.24747179734e-07
1.50181074885e-06
-2.32008712832e-07
1.56800652461e-06
-2.37312703115e-07
1.63195975078e-06
-2.34094468006e-07
1.68662152039e-06
-2.27094438763e-07
1.73726007431e-06
-2.15395505808e-07
1.78786412176e-06
-1.97892878502e-07
1.83693537356e-06
-1.80499528814e-07
1.88158367806e-06
-1.68129099806e-07
1.92178327911e-06
-1.58834502284e-07
1.95849072323e-06
-1.49219971308e-07
1.99198520032e-06
-1.38075555159e-07
2.02234579791e-06
-1.25309939502e-07
2.04942307051e-06
-1.11121160231e-07
2.07305506512e-06
-9.55503571571e-08
2.09337867353e-06
-7.87248076392e-08
2.10992191634e-06
-6.16243888748e-08
2.12044871978e-06
-4.49570617516e-08
2.12333009707e-06
-2.64937670984e-08
2.12320186018e-06
-3.66454183608e-09
2.12222855064e-06
1.87256609112e-08
2.11662497486e-06
3.64137306057e-08
2.10415462226e-06
5.21900957861e-08
2.08356847503e-06
6.92245863166e-08
2.05244222613e-06
9.07589156443e-08
2.00434317571e-06
1.23939628664e-07
1.92298155757e-06
1.84789601588e-07
1.78508975355e-06
3.07108521205e-07
1.62955927401e-06
5.07371723386e-07
1.49168033886e-06
6.77913341348e-07
1.33434868599e-06
6.65026116288e-07
1.19169716286e-06
4.99565982331e-07
1.08375436603e-06
3.99666084074e-07
9.9071054876e-07
3.78924332837e-07
9.01550657802e-07
4.08643857199e-07
8.06886028656e-07
4.63817644551e-07
7.04431717869e-07
4.86923359516e-07
6.03779273771e-07
4.51685235176e-07
5.04817742932e-07
4.04463087278e-07
4.08974118275e-07
3.7768377062e-07
3.20860084942e-07
3.60505598433e-07
2.30798439223e-07
3.41782058529e-07
1.52746489159e-07
2.93044427607e-07
1.02426737864e-07
2.44911664263e-07
5.26277518394e-08
3.02535308111e-07
3.23071136975e-07
3.50705583325e-09
-1.44780203753e-07
2.66164518722e-08
-1.35557630327e-07
6.1529671698e-08
-2.01336042079e-07
8.90033607458e-08
-1.88434079329e-07
8.48159411344e-08
-1.21350669019e-07
1.10590533777e-07
-9.55715522584e-08
1.6628852743e-07
-1.58752038949e-07
2.08250750935e-07
-1.91465489418e-07
2.47385348521e-07
-1.83678068166e-07
2.86578561488e-07
-1.75750973551e-07
3.25178650548e-07
-1.71847948217e-07
3.5123219823e-07
-1.55039872488e-07
3.5841034949e-07
-1.31193679316e-07
3.6627562064e-07
-1.21245646445e-07
3.94986109184e-07
-1.34084565994e-07
4.44693363536e-07
-1.59287090232e-07
5.07621686054e-07
-1.89290862901e-07
5.67739614058e-07
-2.16995752561e-07
6.13717996323e-07
-2.35199357378e-07
6.55390750842e-07
-2.48768245054e-07
7.03182359214e-07
-2.60203552083e-07
7.54089417577e-07
-2.64129260707e-07
8.05174400568e-07
-2.62101543923e-07
8.55613558643e-07
-2.58602088653e-07
9.05833656797e-07
-2.56349909294e-07
9.56748885424e-07
-2.55885456002e-07
1.00733777309e-06
-2.55548162614e-07
1.05920075768e-06
-2.56471837881e-07
1.1098806815e-06
-2.55143564618e-07
1.16115573364e-06
-2.55184220971e-07
1.20940797211e-06
-2.52928463437e-07
1.26239717232e-06
-2.55872348284e-07
1.3226374157e-06
-2.63611414056e-07
1.37992762658e-06
-2.72483000409e-07
1.4424195372e-06
-2.8729107856e-07
1.5099966885e-06
-2.99643224577e-07
1.57223781121e-06
-2.99612363032e-07
1.63021611776e-06
-2.92138593676e-07
1.68440725627e-06
-2.8134862725e-07
1.73607380917e-06
-2.67128360058e-07
1.78708848929e-06
-2.48969478117e-07
1.83659963093e-06
-2.30075945287e-07
1.88233753142e-06
-2.13928542933e-07
1.92360090014e-06
-2.00163167597e-07
1.96092070306e-06
-1.86600071194e-07
1.99472670854e-06
-1.7194188003e-07
2.02518057644e-06
-1.55814593521e-07
2.05221318408e-06
-1.38200228432e-07
2.07570086736e-06
-1.19071843414e-07
2.0954787826e-06
-9.85305781829e-08
2.1108386956e-06
-7.69994175073e-08
2.12041005285e-06
-5.45331756729e-08
2.12404809356e-06
-3.01152098087e-08
2.12410995234e-06
-3.68885456555e-09
2.12103053234e-06
2.18730433579e-08
2.11203795656e-06
4.55013177569e-08
2.09396387442e-06
7.03794300817e-08
2.06256323306e-06
1.00748786426e-07
2.01107639678e-06
1.42358068376e-07
1.92954736202e-06
2.05519125756e-07
1.80867885453e-06
3.05667953487e-07
1.66169065057e-06
4.54075359974e-07
1.54049586043e-06
6.28532357337e-07
1.43684925217e-06
7.81463427156e-07
1.32680054307e-06
7.74951348236e-07
1.18503945098e-06
6.4118308703e-07
1.0360675234e-06
5.48517632907e-07
9.10877981648e-07
5.04031630353e-07
8.11002703615e-07
5.08442490908e-07
7.1794612025e-07
5.56731407628e-07
6.15466923552e-07
5.89181875956e-07
5.15898422983e-07
5.50953267196e-07
4.2477293392e-07
4.9528445943e-07
3.3501646122e-07
4.67115136742e-07
2.46145953778e-07
4.4898420197e-07
1.65873433236e-07
4.21610106945e-07
1.18522520746e-07
3.40106423536e-07
7.33599204763e-08
2.8998811762e-07
2.84802086096e-08
3.46340433296e-07
3.51667531372e-07
5.57279257297e-10
-1.4534530484e-07
3.08607719789e-08
-1.66022475957e-07
4.83637842524e-08
-2.19101179763e-07
6.08654656881e-08
-2.01129768199e-07
5.96932148987e-08
-1.20271297689e-07
1.14146333478e-07
-1.50107311584e-07
1.65530940558e-07
-2.10264156148e-07
1.91845036365e-07
-2.17903623215e-07
2.2390662344e-07
-2.1591451307e-07
2.57539400453e-07
-2.0958383775e-07
2.8177314505e-07
-1.96285916683e-07
2.80112789197e-07
-1.53556205077e-07
2.89453774069e-07
-1.40651528556e-07
3.23360061103e-07
-1.55228849248e-07
3.76451121271e-07
-1.87233540773e-07
4.43474680934e-07
-2.26365371412e-07
5.05581251436e-07
-2.51465551979e-07
5.49828404904e-07
-2.61324169397e-07
5.89591804282e-07
-2.750464619e-07
6.37706366695e-07
-2.96965504743e-07
6.87523186269e-07
-3.10101697791e-07
7.36375619321e-07
-3.13059870706e-07
7.86119915783e-07
-3.11922626327e-07
8.3695950335e-07
-3.09513470639e-07
8.87471116643e-07
-3.06937090326e-07
9.35447358416e-07
-3.03931930433e-07
9.8728215183e-07
-3.07459406791e-07
1.03806980703e-06
-3.073366788e-07
1.08976665715e-06
-3.06919910582e-07
1.13577618844e-06
-3.01275294601e-07
1.18664709436e-06
-3.03878744885e-07
1.24231321111e-06
-3.1160579444e-07
1.30061672465e-06
-3.21971275238e-07
1.37306811975e-06
-3.44986791669e-07
1.44617308261e-06
-3.60452034698e-07
1.51068624553e-06
-3.64218992345e-07
1.57003646383e-06
-3.59032074572e-07
1.6268693399e-06
-3.49043180555e-07
1.68162163186e-06
-3.36175325555e-07
1.73463881321e-06
-3.20218172852e-07
1.786522608e-06
-3.00926250733e-07
1.83661975381e-06
-2.80245552335e-07
1.88328437229e-06
-2.60669570143e-07
1.92563616064e-06
-2.42592658559e-07
1.96379821157e-06
-2.24841673373e-07
1.99811121081e-06
-2.06331360587e-07
2.02874608122e-06
-1.86523090018e-07
2.0556541552e-06
-1.65174687994e-07
2.0786628443e-06
-1.42139672104e-07
2.09748299062e-06
-1.17399785849e-07
2.11151921481e-06
-9.10731807004e-08
2.12008951406e-06
-6.31251317602e-08
2.12336397928e-06
-3.33887096213e-08
2.12216786387e-06
-2.46405166284e-09
2.11550113555e-06
2.85946302675e-08
2.09987985979e-06
6.11949630009e-08
2.07040998234e-06
9.99278857802e-08
2.02052757504e-06
1.5070120551e-07
1.942338227e-06
2.20589825839e-07
1.83077646157e-06
3.17080759363e-07
1.69130948301e-06
4.45089406121e-07
1.54769319104e-06
5.97633253122e-07
1.44220527024e-06
7.33985762802e-07
1.33569666004e-06
8.87968814272e-07
1.20633749848e-06
9.04230918369e-07
1.09032078786e-06
7.57072590791e-07
9.56523780789e-07
6.82213187059e-07
8.26538041152e-07
6.33926772493e-07
7.19368774269e-07
6.15513969006e-07
6.19062303318e-07
6.56910918377e-07
5.18373628089e-07
6.89653232252e-07
4.364139734e-07
6.32671977787e-07
3.500966342e-07
5.81348663865e-07
2.61749654272e-07
5.5517127804e-07
1.80603053935e-07
5.29791670251e-07
1.27624762103e-07
4.74300361315e-07
8.48465337847e-08
3.82563991792e-07
4.54202197203e-08
3.28823382024e-07
1.96256801654e-08
3.72408032038e-07
3.7070731329e-07
1.04549171451e-08
-1.55990202706e-07
4.29773709225e-08
-1.98719422774e-07
5.55234743736e-08
-2.31898069772e-07
4.47501284599e-08
-1.90527811323e-07
6.61289621546e-08
-1.41722367502e-07
1.23031375832e-07
-2.07104802682e-07
1.5019258412e-07
-2.37533987028e-07
1.72264651532e-07
-2.40137390071e-07
1.95600191156e-07
-2.39408748864e-07
2.28453176232e-07
-2.42649734696e-07
2.30367744955e-07
-1.98384961053e-07
2.34925835971e-07
-1.58233148842e-07
2.66347213514e-07
-1.72147789644e-07
3.09748928777e-07
-1.98672569587e-07
3.72702499653e-07
-2.50234721606e-07
4.35300953255e-07
-2.89039298393e-07
4.77660228671e-07
-2.939112624e-07
5.15277611212e-07
-2.99025988727e-07
5.65476873478e-07
-3.25329969747e-07
6.17195097829e-07
-3.4877110346e-07
6.65620397111e-07
-3.58613711387e-07
7.14286702394e-07
-3.61810700084e-07
7.64358508111e-07
-3.62070191419e-07
8.13124961686e-07
-3.58360042465e-07
8.60669124852e-07
-3.54560356876e-07
9.09633368542e-07
-3.52972631969e-07
9.58729476583e-07
-3.56631475136e-07
1.01068861681e-06
-3.59372347098e-07
1.0587695145e-06
-3.55081831416e-07
1.10598825266e-06
-3.4857476603e-07
1.1642786549e-06
-3.62239411436e-07
1.22594949356e-06
-3.73339348758e-07
1.29700768124e-06
-3.93082333729e-07
1.37015223358e-06
-4.18186379829e-07
1.44194111151e-06
-4.32305650024e-07
1.50569243637e-06
-4.28043180703e-07
1.56487948269e-06
-4.18295860859e-07
1.62233655901e-06
-4.06580392198e-07
1.67845062179e-06
-3.92370352616e-07
1.73303680811e-06
-3.74887155951e-07
1.78609823689e-06
-3.54071703398e-07
1.8370600191e-06
-3.31295567097e-07
1.88470703563e-06
-3.08408429733e-07
1.92816862414e-06
-2.86150846257e-07
1.96728939853e-06
-2.64060702129e-07
2.00221535346e-06
-2.41356855042e-07
2.03302163961e-06
-2.17426599716e-07
2.05960884611e-06
-1.9185509145e-07
2.08177340635e-06
-1.64389996355e-07
2.09923921961e-06
-1.34939384104e-07
2.11162025773e-06
-1.03513819115e-07
2.1185870606e-06
-7.01277201404e-08
2.12007944027e-06
-3.48916348361e-08
2.11560248192e-06
2.02798799692e-09
2.10267804757e-06
4.15531445432e-08
2.07650288156e-06
8.74120079789e-08
2.0309588014e-06
1.45497550114e-07
1.96030732487e-06
2.21369306972e-07
1.86228891466e-06
3.18592286842e-07
1.74188293285e-06
4.37464019816e-07
1.61626184648e-06
5.70674350644e-07
1.5086251363e-06
7.05272062263e-07
1.3993859225e-06
8.43256089845e-07
1.28738287177e-06
9.99933017958e-07
1.11950994152e-06
1.07196705182e-06
9.88491835046e-07
8.8798447152e-07
8.82019222323e-07
7.88586331216e-07
7.60416779765e-07
7.55429328724e-07
6.36911593701e-07
7.3893385972e-07
5.24245294335e-07
7.69431941968e-07
4.41858773324e-07
7.71873983021e-07
3.65648821807e-07
7.08710524716e-07
2.76729622442e-07
6.70074629339e-07
1.92831087769e-07
6.38834141904e-07
1.26542720703e-07
5.95824476704e-07
9.27618493915e-08
5.07764600642e-07
4.87773058155e-08
4.26304689737e-07
1.36421313924e-08
3.63993586101e-07
6.76354586341e-09
3.78185985093e-07
3.77658971909e-07
1.92183704681e-08
-1.75195679689e-07
4.4373092702e-08
-2.24034164359e-07
4.93154691199e-08
-2.36966731022e-07
2.96415906636e-08
-1.70940641384e-07
6.89442451251e-08
-1.81101335697e-07
1.10379813144e-07
-2.48638191446e-07
1.3060273794e-07
-2.57896030721e-07
1.52213797586e-07
-2.61892314617e-07
1.60786884596e-07
-2.48187942483e-07
1.79541399376e-07
-2.61565926739e-07
1.75751921153e-07
-1.94718019756e-07
2.08237092235e-07
-1.90790634399e-07
2.44415747298e-07
-2.08370288818e-07
2.98887831468e-07
-2.53190215038e-07
3.60160988479e-07
-3.11572428262e-07
4.0313475816e-07
-3.32097185769e-07
4.36721081069e-07
-3.27587834382e-07
4.85948365465e-07
-3.48341031543e-07
5.40405943332e-07
-3.79877092308e-07
5.89775499778e-07
-3.98232958313e-07
6.37423465536e-07
-4.06351685857e-07
6.85725746584e-07
-4.10193055273e-07
7.36967143864e-07
-4.13398482604e-07
7.87706544665e-07
-4.09185927519e-07
8.32663360985e-07
-3.99594932477e-07
8.8493895042e-07
-4.0533073388e-07
9.32508625623e-07
-4.04281585422e-07
9.78590877788e-07
-4.05534529919e-07
1.02601866791e-06
-4.02586498302e-07
1.09381336636e-06
-4.16442694868e-07
1.15433878202e-06
-4.22834979333e-07
1.21474356003e-06
-4.33799483335e-07
1.28927188429e-06
-4.67667305978e-07
1.36717711605e-06
-4.96156017345e-07
1.43383186305e-06
-4.99033763541e-07
1.49653894528e-06
-4.90830277683e-07
1.55741987572e-06
-4.79261378074e-07
1.61680607271e-06
-4.66054528302e-07
1.67479055616e-06
-4.50446092934e-07
1.73119478258e-06
-4.31385505066e-07
1.78575843777e-06
-4.0873360488e-07
1.83792176382e-06
-3.83562153936e-07
1.88675346877e-06
-3.57350170613e-07
1.93143891692e-06
-3.30952087835e-07
1.97161495279e-06
-3.04357994042e-07
2.007194472e-06
-2.7706062238e-07
2.03807753668e-06
-2.48434398952e-07
2.06406919713e-06
-2.17968975874e-07
2.08495457888e-06
-1.85388126282e-07
2.10053402437e-06
-1.5062003352e-07
2.11060010763e-06
-1.1365420932e-07
2.11489220173e-06
-7.44718590616e-08
2.112856511e-06
-3.28756358879e-08
2.1027531094e-06
1.21320693658e-08
2.08070984809e-06
6.36122223216e-08
2.04107223511e-06
1.27018046141e-07
1.97904724038e-06
2.07517313654e-07
1.8941801008e-06
3.06175354744e-07
1.7907491583e-06
4.22022741441e-07
1.67593319736e-06
5.52206782157e-07
1.56470580033e-06
6.81844326096e-07
1.46709509337e-06
8.02865669017e-07
1.37891617465e-06
9.31445978285e-07
1.3116234514e-06
1.06722472686e-06
1.1686682735e-06
1.21493945391e-06
9.31433694208e-07
1.1251911592e-06
7.80311343143e-07
9.39564471512e-07
6.54464085868e-07
8.81115088697e-07
5.32305090249e-07
8.60885549102e-07
4.3948203121e-07
8.62137134623e-07
3.72564087382e-07
8.38690679452e-07
2.89086375158e-07
7.92097291669e-07
2.02957959048e-07
7.56112979698e-07
1.27856532022e-07
7.13787043386e-07
7.82152553799e-08
6.45285776678e-07
4.09119057619e-08
5.44838244466e-07
2.92064027155e-09
4.6399588341e-07
-2.72823542713e-08
3.93507687662e-07
-1.8550119039e-08
3.69858636077e-07
3.58509349585e-07
2.28883593963e-08
-1.98290128934e-07
3.78999225765e-08
-2.39201795341e-07
3.2245598737e-08
-2.31476109938e-07
3.44388117917e-08
-1.7320641064e-07
7.57118965368e-08
-2.2246074426e-07
9.14350514863e-08
-2.64481589713e-07
1.0889103151e-07
-2.75503483682e-07
1.29110549388e-07
-2.82274812332e-07
1.34195200214e-07
-2.53412468761e-07
1.44768857061e-07
-2.7230324887e-07
1.58110366966e-07
-2.0813254917e-07
1.8791427828e-07
-2.20645530911e-07
2.2621752339e-07
-2.46701128779e-07
2.84626482775e-07
-3.11641719273e-07
3.35854648623e-07
-3.62889152676e-07
3.66405712662e-07
-3.62749089788e-07
4.04362408509e-07
-3.65635244923e-07
4.56036289816e-07
-4.00103271802e-07
5.08136747077e-07
-4.32069836035e-07
5.57382974717e-07
-4.47568931873e-07
6.05587704965e-07
-4.54637735582e-07
6.52266268328e-07
-4.56964380586e-07
6.99700574809e-07
-4.60930279412e-07
7.4861425387e-07
-4.58187285823e-07
7.93354629119e-07
-4.44425503688e-07
8.43147240395e-07
-4.55207441632e-07
8.96083408745e-07
-4.57296996421e-07
9.52364759953e-07
-4.61897175611e-07
1.01151563177e-06
-4.61818011903e-07
1.06919883732e-06
-4.74197569182e-07
1.13270891235e-06
-4.86402005244e-07
1.21294642161e-06
-5.1409207975e-07
1.2889154604e-06
-5.43696219539e-07
1.3562252582e-06
-5.63537116506e-07
1.42127834487e-06
-5.64169308381e-07
1.48536884757e-06
-5.55009525303e-07
1.5484718295e-06
-5.42456954405e-07
1.61021579865e-06
-5.2789504804e-07
1.67044150455e-06
-5.10772827941e-07
1.72897370705e-06
-4.90024700727e-07
1.78544029238e-06
-4.65314011715e-07
1.83923126279e-06
-4.37475541476e-07
1.88955813606e-06
-4.07807657311e-07
1.93567203827e-06
-3.77205752717e-07
1.97704001783e-06
-3.45873337431e-07
2.01329702628e-06
-3.13470866966e-07
2.04411382545e-06
-2.79407549342e-07
2.06917227591e-06
-2.43179217719e-07
2.08823816269e-06
-2.04598004661e-07
2.10120168156e-06
-1.63697522109e-07
2.10795339535e-06
-1.20500683982e-07
2.10816609825e-06
-7.47349708336e-08
2.10070260066e-06
-2.54394906139e-08
2.08279627628e-06
3.00380107294e-08
2.04965499572e-06
9.6676916255e-08
1.99614294964e-06
1.80501582111e-07
1.92149046344e-06
2.82073797792e-07
1.83289344971e-06
3.94755855725e-07
1.73476716805e-06
5.19965089614e-07
1.62213736461e-06
6.64730607577e-07
1.50776146797e-06
7.9614747221e-07
1.41479001086e-06
8.95832499947e-07
1.34705909662e-06
9.99279253591e-07
1.29764901072e-06
1.11680224994e-06
1.24995894061e-06
1.26279886803e-06
1.01276586381e-06
1.36234188386e-06
6.99556354549e-07
1.25260290806e-06
5.56269633649e-07
1.02410384941e-06
4.49664207041e-07
9.67294667132e-07
3.6919567073e-07
9.42441927264e-07
2.94954384233e-07
9.12900971479e-07
2.05135537915e-07
8.81963423805e-07
1.30593645823e-07
8.30618408014e-07
6.52925782455e-08
7.79053537139e-07
1.66922427685e-08
6.93668985052e-07
-3.15202571677e-08
5.92729496407e-07
-6.43765010767e-08
4.96533430703e-07
-7.68312481205e-08
4.06036796022e-07
-5.03208015181e-08
3.42211030548e-07
3.0842127737e-07
2.36731752946e-08
-2.21919216623e-07
3.51339804204e-08
-2.50749683243e-07
2.17786317859e-08
-2.18201919055e-07
3.58056738462e-08
-1.87326713212e-07
6.73961660172e-08
-2.54169907948e-07
7.22051738458e-08
-2.69439805288e-07
8.47529788267e-08
-2.88178112418e-07
9.51487833421e-08
-2.92826720788e-07
1.11811145609e-07
-2.70194295799e-07
1.06277152826e-07
-2.66856887172e-07
1.31801853889e-07
-2.33715729164e-07
1.65421174526e-07
-2.54286861216e-07
2.04326651108e-07
-2.85647546595e-07
2.55201346436e-07
-3.62584994203e-07
2.9336912568e-07
-4.01143524516e-07
3.1814984135e-07
-3.87624284868e-07
3.64252364009e-07
-4.11827987824e-07
4.18007804394e-07
-4.53949265621e-07
4.69229061057e-07
-4.83381921324e-07
5.19770821135e-07
-4.98198732863e-07
5.70044008146e-07
-5.05011080032e-07
6.18637600965e-07
-5.05655717937e-07
6.62255046491e-07
-5.04639810852e-07
7.0865124733e-07
-5.04680738286e-07
7.60438158958e-07
-4.96300291178e-07
8.06174930648e-07
-5.01028333133e-07
8.55563397886e-07
-5.0677544081e-07
9.0308050235e-07
-5.09500722037e-07
9.70941091521e-07
-5.29752086432e-07
1.04106614317e-06
-5.4438793025e-07
1.11602532913e-06
-5.61416433318e-07
1.19130878568e-06
-5.8942805334e-07
1.27150645683e-06
-6.2395849759e-07
1.34132022493e-06
-6.33432545257e-07
1.4069674987e-06
-6.29907398481e-07
1.47264763066e-06
-6.20785301202e-07
1.53814402362e-06
-6.08053470372e-07
1.60253220718e-06
-5.92389210156e-07
1.66534136273e-06
-5.73695366035e-07
1.72633435048e-06
-5.51139492659e-07
1.78510078352e-06
-5.2421200685e-07
1.840987706e-06
-4.93504023593e-07
1.89323127114e-06
-4.6020467409e-07
1.94108674507e-06
-4.25226127103e-07
1.98386544209e-06
-3.88827632673e-07
2.02089531911e-06
-3.50684274656e-07
2.05153086006e-06
-3.10227406604e-07
2.07526985321e-06
-2.67100580848e-07
2.09186678266e-06
-2.2135003396e-07
2.10126599676e-06
-1.73236014762e-07
2.10345526692e-06
-1.22773587614e-07
2.09798571132e-06
-6.93179485762e-08
2.08333014682e-06
-1.08066657342e-08
2.05612856958e-06
5.71528607508e-08
2.01177290766e-06
1.40949685017e-07
1.94631332934e-06
2.45865463525e-07
1.86437109784e-06
3.63819179429e-07
1.7811939276e-06
4.7774670003e-07
1.69387274146e-06
6.07342188134e-07
1.56654796172e-06
7.91790824837e-07
1.42687133371e-06
9.35603021295e-07
1.3334383897e-06
9.89248651061e-07
1.27861960136e-06
1.05424186655e-06
1.25157303713e-06
1.14414660738e-06
1.25063533422e-06
1.26401779239e-06
1.18634552482e-06
1.42678833981e-06
8.48929704883e-07
1.58995846529e-06
4.75303925827e-07
1.39753337959e-06
3.64021072129e-07
1.0782642408e-06
2.91273233591e-07
1.01509265131e-06
2.01734638952e-07
1.00251447391e-06
1.08379120972e-07
9.75506166206e-07
6.49255332593e-08
8.7435118733e-07
5.80783390362e-09
8.38175784822e-07
-6.0248125873e-08
7.5948946648e-07
-1.20657736169e-07
6.52852375272e-07
-1.48455890423e-07
5.23766214763e-07
-1.3205125871e-07
3.88868799486e-07
-7.80888757387e-08
2.88765864862e-07
2.29783622057e-07
1.88396335904e-08
-2.40986122928e-07
2.71170655201e-08
-2.59185626871e-07
1.84065595138e-08
-2.09596641978e-07
3.86646517291e-08
-2.07680232112e-07