/*--------------------------------*- C++ -*----------------------------------*\
| =========                 |                                                 |
| \\      /  F ield         | OpenFOAM: The Open Source CFD Toolbox           |
|  \\    /   O peration     | Version:  v1806                                 |
|   \\  /    A nd           | Web:      www.OpenFOAM.com                      |
|    \\/     M anipulation  |                                                 |
\*---------------------------------------------------------------------------*/
FoamFile
{
    version     2.0;
    format      ascii;
    class       volScalarField;
    location    "596";
    object      alphak;
}
// * * * * * * * * * * * * * * * * * * * * * * * * * * * * * * * * * * * * * //

dimensions      [0 0 -1 0 0 0 0];


internalField   nonuniform List<scalar> 
6400
(
0.884481251794
1.40736036523
2.22469861347
2.7546143279
3.26183521024
3.77360989603
4.43603475732
5.18032612351
5.59052807427
6.23423857813
7.46950489954
8.31072416961
9.01027302966
9.80274098062
10.791128155
11.8264947293
12.7418165368
13.6018400191
14.3256021397
14.7388191479
14.9229371496
15.2290998694
15.8678098133
16.8266360348
17.8813155911
18.8257373886
19.5956091079
20.305907247
21.0613941678
21.8770219544
22.6976940115
23.3240784715
23.6794258491
23.8896018233
23.993078997
23.9774216896
24.1353042393
24.5363243301
24.606941543
24.4459584818
24.6713668086
25.4177310124
26.1723724812
26.5754419943
26.6801488049
26.5791966193
26.3405431287
26.0114080168
25.6048684436
25.1412790712
24.5286065446
23.5315560379
22.2176690118
20.6500161148
19.2990275174
18.2337375958
16.716279688
14.4211949542
11.9999309977
10.1284665538
8.20485439721
6.2000650704
4.18633245677
4.75846622323
8.54934137253
13.4181244939
16.3808458047
16.0775783713
14.096423097
12.5195037953
11.7050536599
11.9705328145
12.5716882911
12.4929033893
14.5917517324
14.0510738015
15.9503043536
9.85175579687
12.8655060008
4.80853400035
3.14760761773
2.51527387389
3.12960708872
4.38475682135
4.29997843223
4.20461938077
4.42947814584
4.88123714469
5.52407704633
6.34274202607
7.33140502686
8.31748419958
9.18735124461
10.0197755088
10.8675469124
11.837224768
12.8559010768
13.8304822349
14.8583399495
15.0969972694
15.0844048651
15.3574346648
15.961730641
16.903617512
18.095615825
18.9770458292
19.7140342839
20.4657566147
21.2383862879
22.0226559754
22.8111205947
23.5363701916
23.8870267931
24.093282266
24.2338659549
24.1187735743
24.3307468855
24.7555850646
24.7693673912
24.4544618067
24.6465735304
26.016939964
27.1159517892
27.4161962351
27.4552714941
27.2605730932
26.9017807651
26.4888185089
25.8947180261
25.2444311611
24.7116202013
24.3131828715
23.2382704995
20.874529735
19.6601963605
18.3391173945
16.1612118058
13.9296366735
11.7823302597
9.66535740286
7.73653823232
6.56249815351
4.59752041797
5.20694313916
8.70422843406
14.4752023661
18.2004186606
16.9059860109
14.7451324564
12.8490958075
12.2043537208
12.6863703
13.8493313516
13.3059339307
13.192224799
12.6966862197
11.5226092718
9.69907386973
8.16200627378
4.24617773431
3.2375743325
2.84616785292
3.36255592298
3.64977686987
4.18963280436
4.63273626485
4.62688212233
4.78577914559
5.42818482055
6.31975560418
7.31581424376
8.32166248791
9.23819349414
10.0749709371
10.7777022684
11.6550621801
14.283228201
16.2889315275
16.7176087853
16.1474244816
14.8916926506
15.0154976648
16.0901609634
17.0851379898
18.0137341661
18.9677690906
19.8178451213
20.572232979
21.3240299798
22.1064198645
22.8578905935
23.6808932491
24.0319667548
23.9881271201
24.4785564929
24.3788718287
24.2376599266
24.8760786102
24.9312440407
24.6740810532
24.8798667613
25.6144303402
26.3528137384
26.7599654755
26.8896549872
26.8313909886
26.6265980056
26.295910984
25.8421941595
25.2884749893
24.6364968314
23.7738715737
22.5730415373
21.3107386754
20.0627225422
18.2026043146
16.0678456729
13.923117064
11.8127140295
9.79660617859
8.01282231232
6.33166468605
5.21025962755
6.59145311121
11.1108026149
15.4893421137
17.6342149677
17.7372135538
16.1669487131
14.5322095244
13.8969280509
13.8561810898
13.2358947998
12.6793197961
12.6904563227
12.3783797421
11.4195743667
9.80811252215
7.37606160354
7.5637164331
3.25054074967
5.51018438293
3.68461406725
3.80897422854
4.5073544671
11.8805863911
10.2724802494
5.35043323149
5.40095502939
6.31884518338
7.33982493852
8.36499362671
9.25704071647
10.1141614558
11.8178973021
13.9166791669
15.5943142103
16.036318081
15.0377213815
14.3021076052
14.6577093809
15.2645005445
16.0635106115
17.0597044031
18.1012619691
19.0909023975
19.970602147
20.7020908172
21.4771864688
22.1827663924
23.0758035793
23.6723084139
24.3327212025
24.2924309804
24.0103383431
24.4709349219
24.4252873488
24.4011120078
24.6405900174
24.8623946252
25.2026425069
25.7845850721
26.3913859326
26.7938205114
26.9628321403
26.9412677785
26.7647286031
26.4550784767
26.0218359595
25.4728384736
24.7931729417
23.9247112427
22.8293679118
21.5685207811
20.0873109386
18.2441792381
16.1474397026
14.0104433615
11.9489039152
10.0565747232
8.44698357615
7.24920506029
6.93675162297
7.94454870936
10.6062429782
15.9123383591
19.3540983484
19.508970078
17.8479882107
15.5059169141
13.9358890058
13.1950333725
13.4108872123
14.8550854596
14.8154563959
13.5116586998
13.3848755152
16.6817129567
13.0820916868
11.0982193918
5.68068886214
7.57849226812
4.45310553907
4.77140722642
6.60136918013
11.7736188434
8.25173262342
5.8136082854
5.92459363012
6.54111551848
7.48471369306
8.52420694237
9.94547529084
12.2280647973
13.2659742199
13.6825570155
13.7492800892
13.6165555933
13.7628966967
14.3526920061
14.7905287682
15.3124102152
16.1570778965
17.1646769138
18.2236951303
19.2458818427
20.0933206497
20.9568479904
21.5933832237
22.5010822436
23.1177182617
24.323481535
24.262857431
23.9216370635
24.1358033747
23.9753953213
24.1389946219
24.4488206105
24.7774732254
25.0924480502
25.4700369015
25.9725866454
26.4927674518
26.87866233
27.0727838732
27.0833524163
26.9350313701
26.6494344669
26.2387570521
25.7043188236
25.0280486357
24.1744370066
23.1195403782
21.8524757328
20.3009325185
18.4173438869
16.3346726682
14.2546290786
12.3235962395
10.6672142072
9.42176967799
8.75001133274
8.88272683164
9.21635469656
10.8930195757
15.4599133981
19.4467422829
20.8235500402
19.6573988561
16.8990062587
14.4370013796
14.1470373599
16.4413785576
17.3325427398
16.3103205472
15.406942676
18.0734819869
21.0918493155
16.4013769633
15.5167747582
9.97419489509
9.14174659517
5.54746374197
6.10024206445
12.0571484033
11.533469401
6.66090512689
6.41177311091
6.55259103241
6.89320642412
7.73291761775
10.3476982701
13.5467253385
14.0056933531
13.6896776266
12.8381452343
12.5506005138
12.9554966304
13.9115095357
14.3273259257
14.6830847151
15.3842632629
16.3039850193
17.3451740879
18.3342298582
19.3676636784
20.4753364651
21.0633589123
22.1318957396
22.5518488531
24.0024288042
24.103869683
24.9201861198
24.1613443971
23.5515950844
23.698677747
24.1286177547
24.5702495679
24.9649175749
25.3304836478
25.7283140778
26.1906511263
26.6559046513
27.0230479218
27.2306861201
27.2671987932
27.1460287832
26.887473732
26.5052499088
25.9981263938
25.3473036918
24.5222275166
23.4892176851
22.2042741783
20.6123133065
18.7335635666
16.7253871412
14.7864639962
13.0734769354
11.7231047738
10.8447214541
10.5957011943
11.1427394729
10.316201885
12.7453971899
17.4026212855
20.7771486188
22.1069517236
21.1807075958
17.8080959446
15.6179917579
17.4433165982
19.6708876561
19.1622135809
18.1806484036
18.2692944909
22.8485701878
24.43694804
19.429934918
19.2318787963
12.0950145866
9.00415285302
6.74485208915
6.32345091924
12.0037887629
8.4381611014
6.88942795426
7.00670467211
7.13672395003
7.83166662346
8.33299957757
13.2726000908
13.9758906815
14.0343004734
12.741466992
11.8202376798
12.1511909706
13.4809687563
13.8813784495
14.0355257528
14.6987672386
15.4995549258
16.4218249824
17.4607541479
18.6393177524
19.7691080369
20.502760245
21.8936763551
22.2118066276
23.7829793552
23.7389365103
24.8002057866
24.3706261276
23.9256130936
23.3737947017
23.6450111007
24.2084706443
24.7336279233
25.1723772342
25.5733269533
25.9900725304
26.4358630334
26.8699352669
27.2225178775
27.4381643512
27.4956651762
27.4015785229
27.1752380538
26.8307409878
26.3647443503
25.7554893027
24.9676821866
23.9555640822
22.66865644
21.084796632
19.276314379
17.4184804131
15.6975508805
14.2372065684
13.1102852024
12.4241901298
12.2146073261
12.0044851949
12.0095356969
14.3238761916
20.0626100811
22.2201562217
22.4751857689
21.3828560653
19.0969320733
18.821896766
21.3858546178
21.8311991417
21.0119418586
20.4426864489
22.4343832373
25.1922437962
26.6588561702
22.0724334367
20.9346827545
11.8145914025
8.66609990851
7.88908466268
12.1721865056
12.1111163194
7.48014018286
7.54288992427
7.69014560868
7.79129695542
8.36240428478
13.0252330626
13.9701559179
14.0721053801
13.6133258821
11.5911429377
11.4118308379
12.9768898588
13.621828153
13.5192076004
13.9128878555
14.7420775155
15.678552195
16.6299907203
17.72474453
18.7409101952
20.1277409395
20.6005629692
21.9122597727
23.461349633
23.9220699059
23.4382979001
24.2779150746
24.4494180148
23.3781071878
23.3608810697
23.79100902
24.3583444853
24.9108827083
25.390557419
25.8264024261
26.2636859883
26.7090741345
27.1294617274
27.4734998293
27.6951297104
27.7714532544
27.7065802311
27.5195024078
27.2236090641
26.8126658325
26.2601052557
25.5231016895
24.5491387004
23.298376354
21.7881983346
20.1294541613
18.4911528478
16.9970896631
15.6781180577
14.5857648212
13.8875972418
13.6070838763
13.5816083976
13.9185776859
13.9713076233
20.261526111
24.0702327432
23.9683363428
23.3137832716
22.3146297728
23.0966497934
24.436752475
23.7548401623
23.0939707396
23.3345481269
25.6934912781
26.3798975397
26.968049529
24.0894290597
21.9517584771
11.096979217
8.59695263777
8.55706004852
13.1517627903
11.0968588934
8.10326037743
8.25147835851
8.52910987093
9.71464694625
8.47430513233
13.7984678709
14.4930403836
14.1135752652
12.3938397139
11.2295595053
11.5516163143
13.0575281154
13.3409213788
13.408757406
13.9385660723
14.7466586736
15.7623601412
16.8165037072
18.315328198
19.5808869184
20.094203698
22.0134449444
21.8124850003
23.6604639578
23.3615174303
24.5882535967
23.6231809959
23.3235399165
23.2937312629
23.5339336928
23.9920944697
24.542861263
25.1037014133
25.6199270399
26.0948373817
26.5571104458
27.0113520553
27.4306490256
27.773407835
28.0016759982
28.0973109322
28.0662695717
27.9271179089
27.6914126768
27.3501283215
26.8719583993
26.2079964481
25.306587799
24.149465585
22.7918236243
21.3591838633
19.9642308492
18.5994943843
17.2135648279
16.0112671582
15.3763429046
15.3936721953
15.6921837528
15.8854246628
15.7151583795
17.1822841713
24.2974908108
25.8621150349
25.7308514151
26.254471987
27.2191531437
26.8123767617
25.7900606728
25.6207718458
26.6618363054
27.8939542997
27.7600360007
27.1548201569
26.1398549145
24.7705323537
10.5702632494
9.04061944095
9.7113446157
13.2233959018
9.15644969201
9.12137332826
8.96642177721
9.23299213076
12.304504235
11.0427917931
14.6334029401
14.7651182016
14.1876208293
11.716768501
11.2667001911
12.8526190436
13.2907286457
13.0993491028
13.3774295298
14.0930226643
14.8789270803
15.8398084199
16.754651151
18.4741236115
20.6097131524
20.0429995159
21.9652370498
23.2514554435
23.9035596732
24.5230262016
23.8508821153
23.8793848883
23.036854645
23.2104790123
23.7025409937
24.2145935697
24.7544141374
25.3148104315
25.8601574548
26.3777110666
26.8739366722
27.3459645085
27.7724160883
28.1203907228
28.3591987189
28.4769344802
28.4851992558
28.4036802743
28.2409103042
27.9852163547
27.6031218657
27.0441843197
26.2653059941
25.2752053691
24.1553493883
23.0019770511
21.7882103955
20.3306957075
18.7224873431
17.576020133
17.3595818428
17.872538127
18.3801252496
18.4980948885
18.170320488
16.8077294392
16.5982670048
27.6204110835
30.3039415895
31.0963754684
30.7735412794
29.2266113261
28.2751280938
28.60382974
29.8341016369
30.2250783465
30.0084720069
29.7265299132
30.0730330974
30.2607987096
10.5567543278
9.88432899692
13.1144960478
13.3947955279
9.27342612
9.88200355621
9.67755315033
10.157736601
11.8220298999
14.5240259819
15.4647321942
15.0373303103
14.4313472138
11.7370874751
11.4262177703
13.3680377544
13.3957176102
13.078424068
13.4051835428
14.2289909603
15.2405715439
16.1996709352
16.9386448726
18.1086324335
20.7815396666
21.9877398227
21.5982859385
23.3766650401
22.7923903246
24.5513749903
24.8929787681
23.8334416827
23.0101339605
23.3237577857
23.9016615979
24.4480453871
24.9902704027
25.5507413397
26.1144011395
26.6730836821
27.2134589878
27.71400114
28.1553279824
28.5142771064
28.7685721923
28.9142486262
28.9691315631
28.9542786254
28.8764283613
28.7232743911
28.4628869138
28.0497994488
27.4576145661
26.7218513683
25.9200028051
25.0332239881
23.7950496798
22.0564985429
20.4912877422
19.8543891588
20.3747894934
21.4118879096
22.0737653966
22.1278114128
21.4915322213
19.8669149913
17.3261273154
17.8169967265
31.6687272526
36.676340604
35.0691796599
32.401602961
31.4989410559
32.0581024625
32.9664768357
33.4052031161
33.7719437718
34.3029720043
34.9156104516
35.5877368674
10.9173387789
10.7581798495
14.7585693007
14.1109066039
12.2220944202
11.106871572
10.6144675393
11.6149975047
11.3049884737
15.4890935203
16.1195313068
15.3845991763
14.5252451658
12.3618057985
12.1885966578
13.8312827851
13.4230566934
13.1653688453
13.5240601738
14.2736028834
15.3871351912
16.6580297989
18.3645142268
18.2447249402
20.2861461088
22.3637868101
21.4952627308
23.6379635658
24.4801508095
23.750346291
23.996258579
23.2051111026
23.3024022928
23.6516649978
24.1580189134
24.7055529694
25.255716365
25.8206301519
26.3907104997
26.9768413482
27.5690299505
28.1168042699
28.5822950288
28.9558181238
29.2313370519
29.4131412436
29.5231236145
29.5829852719
29.599723959
29.5642696002
29.4515657601
29.232087845
28.9061799013
28.5194576514
28.0713965189
27.2842951326
25.7857771432
24.1000079618
23.1715204843
23.4321455533
24.8481189427
26.2947891014
27.1856524803
27.402360331
26.8016391147
24.9885746053
21.7825061078
17.050440382
26.5100476001
37.1631979741
39.8546316954
36.6993300811
35.8434948761
36.3581989765
37.1407958005
37.686482871
38.7474875862
39.5512943981
39.5225029132
39.7420931735
11.5245106156
11.4122633839
14.5097755936
14.6055783802
14.619982903
12.2485213455
11.6832046525
14.4657828557
11.6842373238
16.3499455492
16.6194697458
15.7419935835
14.6192159496
12.9785216353
14.7795035403
14.8860665318
13.617415232
13.3886787533
13.7764606855
14.4174023872
15.3485753218
16.6493782191
19.6404636693
20.5902424615
19.781353641
22.4310557866
23.3827965575
23.2148097782
24.4480368436
24.8383018867
24.3425959937
23.241630235
23.5086839281
23.9843815636
24.4698852048
24.9962056584
25.5393767158
26.1221322831
26.7164437807
27.3119541399
27.9352808004
28.5395878995
29.0509725186
29.448995608
29.7505198675
29.9770045226
30.1515134296
30.2922814663
30.4079106771
30.4979552529
30.5546790271
30.5819473282
30.6124952949
30.652653311
30.4792849371
29.4654171178
27.9863907204
27.7409601934
28.0670583194
29.4426553044
31.5218675361
32.765230991
32.6087339778
32.1441599452
30.3820314743
27.6621304139
24.3542400173
18.0305190478
17.7794145703
31.6206653501
38.496114314
38.9295776696
37.509579833
39.1533481216
40.7703386249
42.7000158408
44.4186700074
45.0573129194
45.0450885992
45.239126015
12.1904479734
12.1168702813
11.7696574774
14.9359428138
15.1584024165
13.0245445075
12.6455760409
15.4558496599
12.3468580453
17.2389390312
17.0706362259
16.1136919786
14.8227601503
13.2965245782
15.9375503979
15.4618574435
14.0569091485
13.7877262128
14.1290162015
14.7308133674
15.4348151409
16.5428139943
20.1516388699
21.6623834753
20.1288491549
22.4687261306
23.9041320627
22.7175042625
24.07955961
24.4004314084
23.3743663071
23.5925923646
23.9566901761
24.3684407908
24.814287846
25.3397967051
25.8783413386
26.4352932192
27.0570226249
27.6973887105
28.343430161
28.98455518
29.547929547
29.9886813718
30.3290258044
30.6105019219
30.8576368789
31.079668948
31.2900792467
31.5027944259
31.7366910484
32.0636174777
32.542549502
33.0442949882
32.8478432946
31.3579945212
31.1092642164
28.4975421932
25.8220357572
24.7136700738
22.1109676566
14.5140170246
0.204381486716
0.0208525909892
0.00165477657258
0.000466117174149
0.00548654985513
0.0560589914689
0.633245505719
1.65397880207
41.4432540008
48.7863332295
49.2694919659
44.5780217603
40.9602163877
43.4790241387
48.5247853705
50.4608100906
51.8660864945
52.3350548883
13.0363290358
13.127541406
15.5770390203
15.5828865147
15.6123344569
13.6862987961
13.689698993
16.3076487496
13.3650481095
18.0102242643
17.5021951269
16.5091580844
15.1081608719
13.6928561679
16.2235567003
15.6648971099
14.4944690023
14.2454244405
14.5177643428
15.0508138708
15.6908698629
16.566232125
19.5655003306
22.476723827
22.6317535965
21.8518377728
24.1188724381
24.9195701145
22.9550770061
22.9078605624
23.3164717957
23.8315503374
24.3139003871
24.756816337
25.2170642208
25.7098780557
26.2487347103
26.8218158395
27.4240050285
28.0985703308
28.7964924622
29.4736288142
30.0767069455
30.5650851448
30.9627903593
31.3142618902
31.6413926835
31.9468806541
32.2345815877
32.5326767953
32.935235935
33.6047025112
34.596775106
35.4647056218
34.8899356869
31.1800279251
21.6287252057
6.93081770842e-05
7.62318075256e-08
1.42907387337e-09
2.42237814778e-11
7.00854100332e-14
1.99167436536e-16
3.44755062926e-21
2.69668433085e-21
6.54692944181e-21
4.41314806457e-20
2.06709391453e-19
7.63585523854e-19
4.85246667462e-18
3.79937308445e-18
3.29616271884e-16
1.87606734186e-13
1.88584799794e-11
1.43104006243e-09
3.29533946676e-07
0.00554709328921
52.9734150442
57.9094910201
59.3931603468
13.8322057727
14.0231916002
17.1956137712
16.257608794
15.7330724857
14.3544390413
14.7021430234
17.0281683446
17.0011409309
18.9684531909
17.995796409
16.9976580175
15.4783603498
14.2342484089
16.5275897619
15.8071910053
14.9156885593
14.7118250225
14.9125120684
15.3642884555
15.9722014246
16.8111618874
19.0539901878
22.7391221518
24.0019330685
21.5856202155
23.6485027024
24.9879799178
24.7462180587
23.3541374416
23.4099785516
24.0581925257
24.6770189697
25.1936336759
25.6102165037
26.1097896117
26.6408008875
27.2313773983
27.8516061417
28.5345815887
29.2795659123
30.0110404419
30.6466417477
31.1659235627
31.6305786497
32.1022740875
32.5491593327
32.9124434368
33.1834641296
33.5158059933
34.0966123088
35.0856253334
36.5590477701
37.756653918
29.7625741052
0.000102575372209
3.83267754326e-11
1.5520494459e-13
4.48827575464e-15
6.53410676169e-17
5.30882366507e-20
8.85828103795e-23
6.24424295721e-24
0
0
0
0
0
0
0
0
8.68467709091e-28
2.9291617893e-25
4.38140169005e-23
2.54194895007e-20
3.55047884606e-17
1.9226750385e-12
2.9198141507e-08
0.227639895094
61.956947256
14.4837380707
14.6966900172
19.3455380082
16.7811513606
15.6058158917
14.9478715586
15.4304893839
17.0892985736
18.5921717828
20.071491586
18.6466890863
17.6208254099
16.0988040028
15.0686455823
17.0381745869
16.1028761697
15.4158341914
15.2279695798
15.3472614655
15.7148869654
16.2525418238
17.0299530657
18.8478680537
22.6163195429
24.9951405767
24.2259326778
23.1379783784
24.3591429423
24.4966424348
23.3477505277
23.8620484759
24.5391287344
25.2054241733
25.6839613313
26.1180413368
26.5466277568
27.0896799979
27.6706688007
28.3170420559
29.0217879755
29.7894849682
30.5773356073
31.2905153853
31.8419127447
32.3628216283
32.9638659038
33.5442996686
33.9293068123
34.1394388995
34.4747474905
35.177985561
36.2969752497
37.9250904736
30.2702269659
2.53804156897e-07
5.5488384961e-14
1.81977742565e-17
7.35842833319e-19
1.00329955192e-20
2.75132003924e-23
0
0
0
0
0
0
0
0
0
0
0
0
0
1.11902054397e-26
1.1119902711e-25
2.43772360788e-24
1.18201846855e-22
6.56401978544e-19
5.46365118738e-10
1.05320695689e-14
14.9929991854
15.1954105376
21.4037406369
17.1839312105
15.7338963749
15.5003188015
16.2380792312
16.4589926981
19.5441340504
20.8624074889
19.2792514736
18.2597545497
16.9189942645
16.9557403895
17.7515261173
16.6404724023
16.111820365
15.9406471951
15.8906084231
16.1528473953
16.5862059581
17.2863332253
18.8322809534
22.4793631688
25.410604171
25.873336821
22.9259528554
23.2856006597
23.2481614817
23.4699326936
24.171672724
25.0381562593
25.7069708255
26.2168421594
26.6685847112
27.1710332774
27.6043227785
28.1772404051
28.8250231414
29.5335361645
30.3681714923
31.2249298755
31.9882269637
32.5140235897
33.0404336379
34.2493305244
35.8634542052
36.4078261926
35.6170873353
35.7113377031
36.4009711499
37.5156158602
28.7614141965
2.93634608924e-08
4.42545820271e-13
1.98533013045e-24
2.00620069153e-21
3.27356665441e-23
0
0
0
0
0
0
0
0
0
0
0
0
0
0
0
0
0
0
1.72885165747e-25
1.17074978706e-24
2.15895967309e-22
94.7927209172
15.4395968155
15.6079441141
21.2419793845
16.6266506624
15.946259185
15.9795339293
17.1555416273
16.4664337646
20.350034719
21.6003573862
19.8828908118
18.8545407049
17.5568008833
19.1792512778
18.7456706098
17.3822221194
16.91363226
17.0146347456
16.6566560337
16.7602459863
17.0196456886
17.5844345359
18.9589424884
22.3299511019
25.2842926706
26.9778484435
25.6360425433
24.6507412655
24.2311511965
23.7344438613
24.4784487492
25.6815516945
26.1607965801
26.7532702304
27.4662016308
27.7818637602
28.2144748271
28.7895725223
29.4515497002
30.1627036797
30.9491320564
31.8590094241
32.7589732497
33.679301225
34.7731610857
36.3359801029
37.5940826408
37.5629264662
37.4760663279
38.0675515875
39.1563656878
32.7179026883
1.3353356276e-07
1.21889477062e-12
1.60202078611e-16
2.1758512899e-18
0
0
0
0
0
0
0
0
0
0
0
0
0
0
0
0
0
0
0
0
0
0
5.31964867956e-25
3.87192555923e-14
15.9555266433
16.1009862175
20.883567365
16.3087660368
16.2507802093
16.371682674
17.9452198123
16.9403554918
21.0516247288
22.3257239931
20.4851493811
19.4540069162
18.0947198828
19.9368862086
19.6683095264
18.1964689294
17.704127576
17.913160319
17.5738183926
17.5892386356
17.6545278095
17.9319307741
19.2464418252
22.3119394304
25.0117935356
27.3101592875
26.8428834964
25.1795136383
23.662083069
24.2489215175
25.0082988185
26.1725083663
27.0334141615
27.7463367437
28.3120585388
28.4993852629
28.9085169715
29.4965469726
30.1709077239
30.9125729306
31.7053150086
32.6930364338
33.9238915378
35.4686852407
36.5215312674
36.9313627232
37.6082507655
38.0614408949
39.6440570189
41.8005013166
38.9812351907
1.21675043447e-06
1.61561228839e-12
2.78604055921e-16
5.71431266078e-19
1.38354501607e-20
4.64409098965e-23
0
0
0
0
0
0
0
0
0
0
0
0
0
0
0
0
0
0
0
0
0
8.93984852109e-26
1.18282361406e-25
16.7167534778
16.8624180563
20.5633884705
16.6063293104
16.822047074
16.8642488942
17.9615088706
17.6767494156
21.5595453011
23.0170401065
21.1235970433
20.1051452143
18.7541090673
20.6293953328
20.5026540839
19.1031242308
18.5561853946
18.7907152576
18.4692428429
18.5649355328
18.56512255
18.4404735359
19.728219482
22.4854720025
24.8877095265
27.4066265371
27.3966415347
25.9102476603
24.161183231
24.4869905406
25.6453614765
26.3365491199
27.0668530878
27.9911914847
29.2524134368
29.5460262257
29.867277134
30.3106881016
30.9442926286
31.7617911647
32.6657136779
33.7867407277
35.731299924
37.4858106418
37.7422308087
37.974524444
39.1046758928
41.9313491372
45.6863086742
43.3697734374
3.47629388553e-07
5.77473449873e-14
2.38972017565e-18
7.83510818003e-22
4.91611019719e-24
9.96455696682e-24
1.53018412085e-24
0
0
0
0
0
0
0
0
0
0
0
0
0
0
0
0
0
0
0
0
0
6.60770441006e-27
3.00036441279e-26
17.8619776523
17.9673904186
20.8638855348
17.5617310553
17.997172796
17.7313938492
18.2822827816
19.0085373084
21.6148864411
23.5389625836
21.8274269626
20.8295953897
19.5224504857
21.4167131006
21.3655622311
20.173649379
19.5949382378
19.8164860541
19.3732446064
19.639660962
19.7912806126
19.1789146918
20.2810769223
22.8516778207
24.956368234
27.2740646135
27.6508534509
26.5627847471
26.1912653819
25.3676215065
26.0711807488
27.1795635893
28.4995211861
28.5975339399
29.5038746351
30.5987163892
30.9366450744
31.4537485914
31.9790275798
32.6990873868
33.7440908783
35.6941186357
38.3611366168
39.28149893
39.1303581153
40.3242542471
44.7391842453
51.0459851557
49.1397133433
1.25042884483e-08
8.7490344849e-16
8.16841664407e-21
5.58909994122e-23
0
0
0
0
0
0
0
0
0
0
0
0
0
0
0
0
0
0
0
0
0
0
0
0
0
0
0
19.459349917
19.3325103702
21.6927453731
19.4690664705
19.9703802319
19.0116200107
19.2376092511
20.9331673149
21.8455138434
24.1693847017
22.6500156773
21.6377615317
20.3755762916
22.242157852
22.2244018879
21.353588715
21.1141658553
21.1562371181
20.3705547283
20.8121828689
21.3202538344
20.23573447
20.7193212988
23.3058671777
25.224933839
27.1587032259
27.8385404949
26.7329844054
27.3908233699
26.973795814
27.161292279
26.9156432842
28.2293096898
29.8608645949
30.4815464146
31.337192836
32.0079583269
32.5508680006
33.226647212
33.9663223757
35.4954477388
38.6595049214
40.9240441235
41.3127841966
42.0515528435
45.9585565293
54.4169557047
52.0800755362
7.02711171369
7.80778994816e-18
1.36496647913e-20
6.25000747026e-23
0
0
0
0
0
0
0
0
0
0
0
0
0
0
0
0
0
0
0
0
0
0
0
0
0
0
0
0
21.1516355154
20.6197422432
22.5930918064
21.992918514
21.7038344732
20.497787527
20.2950364429
22.0893648591
21.1116480544
24.6654101628
23.5736460392
22.5220185771
21.3043520679
23.0814587972
23.0242772598
22.3428327951
23.2145865626
22.7712931043
21.4936321011
22.1088067391
22.6843455633
21.594147088
20.9023168116
23.3218508666
25.4240592703
27.083567662
27.9219354028
26.8379778545
27.798137729
28.2804547916
28.5373932138
27.7164830972
28.5072209094
29.8070928687
31.4322185425
32.5822500927
33.3133951807
33.8210755721
34.4719087865
35.666325772
38.5921417622
41.9925631417
43.6913434505
44.5734283952
47.0987210577
52.8508254887
49.9528046918
25.6097269218
2.10231507798e-17
3.04354462376e-20
1.06590804233e-22
0
0
0
0
0
0
0
0
0
0
0
0
0
0
0
0
0
0
0
0
0
0
0
0
0
0
0
0
0
22.007658466
21.5326533897
23.1799005551
23.0703152924
22.7991281261
21.9085266752
21.5148874301
23.4913298262
22.1805570722
25.2963455378
24.5088313064
23.4519947217
22.3040209608
23.9523630348
23.8371708064
23.1766387185
24.2077824586
23.9040207452
22.5923089846
23.3905689997
23.454173799
22.4399136486
21.9551613765
22.183975015
24.9533103588
26.6188211195
27.7374300902
26.8376144027
27.8971458061
28.8535416443
29.6722595585
29.5651964752
28.8839304906
29.9003118072
31.7043792504
33.4883431186
34.736500406
35.5089186149
36.1660269451
38.5930232518
42.4339013076
45.4041217282
46.8391370005
48.5496178886
52.3934320165
46.8556422938
21.5922977067
1.11062248246e-16
1.00044905765e-19
2.84933071038e-22
0
0
0
0
0
0
0
0
0
0
0
0
0
0
0
0
0
0
0
0
0
0
0
0
0
0
0
0
0
0
22.1393483002
22.119375437
23.5529524554
23.3269762243
23.5096589058
23.0126815151
22.5847901229
24.8717391216
23.8904226845
26.1076657435
25.5043185799
24.4146483025
23.3699261268
24.8701181984
24.7211177566
24.1418988438
25.04127382
24.8977989521
23.7450639601
24.4448726734
23.3148086132
23.2283964834
23.0259387074
23.2966924726
24.1334299767
25.1519510772
26.9383570385
26.6689241531
27.5039876503
28.9227094708
30.1676804073
30.9542312841
30.4495940064
30.7294650851
31.9417227296
33.6984747661
35.6653730284
37.2743685658
38.7532912958
42.3734340185
46.2186870478
48.616161042
49.6506792217
51.2083027161
45.9244865402
26.6662280816
15.5972496975
3.47511553978e-19
7.78458389142e-22
0
0
0
0
0
0
0
0
0
0
0
0
0
0
0
0
0
0
0
0
0
0
0
0
0
0
0
0
0
0
0
22.4321313483
22.5480264099
23.8841930218
22.5131387258
23.8380309387
23.6419528033
23.3193226652
25.5252723311
24.7828278605
26.9398697012
26.5388303227
25.381028153
24.5086736362
25.8220110671
25.649316934
25.2416090105
25.9662107251
26.0015086529
25.0207573904
25.8771008686
24.6891585324
24.881292506
24.3095585327
24.6144499138
25.9498494692
26.5812153739
26.6142495435
26.4353235444
27.0814921257
28.9000822399
30.2081876614
31.2494918034
31.8262379032
31.8672044994
33.3194572459
34.4821300194
36.4406697797
38.9346782656
41.9892830445
46.3222607846
49.7132933662
51.2073454593
50.1895284315
45.685248505
37.9219310603
26.5259284967
2.91606054074e-18
6.63855451195e-21
0
0
0
0
0
0
0
0
0
0
0
0
0
0
0
0
0
0
0
0
0
0
0
0
0
0
0
0
0
0
0
0
23.1750161586
23.2549493989
24.2406639216
22.965001661
24.1328174807
24.0116701018
23.8497337222
25.7786551787
25.4178942593
27.5697232476
27.5514424585
26.2920905985
25.7062349721
26.7629618308
26.5414000744
26.3089587453
26.8606507429
27.1895066772
26.3422914534
27.3228604763
26.4815565632
26.9537449325
26.7365991972
25.6391082493
26.7377890094
27.7071885183
27.8522915388
26.3147850266
26.5980312857
28.8369004903
30.388331292
30.9651556111
31.6963799982
32.2569296922
33.7270178161
35.1743872553
37.3430304755
40.6399160924
45.4165799718
50.3217322806
52.9626197276
52.8326786898
49.4109369921
42.8931063063
26.5221119124
9.83021139064
4.62600576399e-20
1.87585562216e-22
0
0
0
0
0
0
0
0
0
0
0
0
0
0
0
0
0
0
0
0
0
0
0
0
0
0
0
0
0
0
0
0
24.1059703928
25.1028640464
24.7508177561
23.9627279551
24.7060964271
24.4398663588
24.361125734
26.0017924369
25.9967196546
27.8603586557
28.5297421691
27.1086090381
26.7711109235
27.5437652445
27.3846961508
27.1287317492
27.2202619831
28.2723135943
27.7239740314
28.5907122763
28.435429774
28.3198103629
28.1842978888
27.8155999876
27.1467757706
27.9077753769
28.8323330972
25.9131276869
26.1578048344
28.215580795
30.4715431412
31.549670538
32.4443543101
32.3418832477
33.6583366508
35.4819772121
37.9166299393
42.2339597497
48.8102776964
54.1146710437
55.588343398
51.0108079333
47.9155181358
43.0791039681
30.9446623474
3.13554867016e-19
8.00267438904e-22
0
0
0
0
0
0
0
0
0
0
0
0
0
0
0
0
0
0
0
0
0
0
0
0
0
0
0
0
0
0
0
0
0
24.8200902433
25.8531173184
25.4888786715
24.8672679828
25.4327926119
25.0382997835
24.9372931062
26.3018516505
26.5558093838
27.8924236211
29.4005600525
27.8875791792
27.434296045
28.1930217942
28.2870519657
27.8730720252
27.5168002349
29.0543539917
29.1307983636
29.7004528287
29.7950736864
29.9612366614
28.8374415696
28.8365244862
28.3974378182
29.5374670148
30.1971707745
27.6798515818
25.8047106049
27.2921368577
29.8416072324
31.7627086983
32.7495587238
32.9583961943
33.4023617249
35.3437296591
37.9412697443
43.4772771153
52.0243321333
57.922713697
56.5588556617
50.5082007919