/*--------------------------------*- C++ -*----------------------------------*\
| =========                 |                                                 |
| \\      /  F ield         | OpenFOAM: The Open Source CFD Toolbox           |
|  \\    /   O peration     | Version:  v1806                                 |
|   \\  /    A nd           | Web:      www.OpenFOAM.com                      |
|    \\/     M anipulation  |                                                 |
\*---------------------------------------------------------------------------*/
FoamFile
{
    version     2.0;
    format      ascii;
    class       volScalarField;
    location    "798";
    object      p;
}
// * * * * * * * * * * * * * * * * * * * * * * * * * * * * * * * * * * * * * //

dimensions      [0 2 -2 0 0 0 0];


internalField   nonuniform List<scalar> 
6400
(
0.144166309982
0.14416962636
0.144179134559
0.144197829367
0.144225839193
0.144263186531
0.144309835077
0.14436688628
0.144435537017
0.144517733035
0.144619841816
0.14474527961
0.144891523076
0.145058479677
0.145248099201
0.145463062518
0.145705272286
0.145974854793
0.146269632799
0.146584148085
0.146913010126
0.147258047116
0.147627101097
0.148028246205
0.148466400291
0.148941453228
0.14944996484
0.149989246875
0.150558747899
0.151158956443
0.151790138677
0.152450203464
0.153133116118
0.153832702193
0.154545985843
0.155270360277
0.15600625198
0.156759016036
0.157527082266
0.15830182251
0.159083770231
0.159884077802
0.160708162767
0.161547914731
0.162392001868
0.16323217881
0.164062105418
0.16487670977
0.165671319692
0.166441772921
0.167184460472
0.167893605213
0.168559903714
0.169172423495
0.169728369006
0.170230839429
0.170675278598
0.171052491675
0.171360220228
0.171605307536
0.171794437213
0.171932040844
0.172023336457
0.172084903958
0.172136883281
0.172192417788
0.172247548844
0.172289106087
0.172312021189
0.172319889859
0.172316936827
0.172305818274
0.172288097922
0.172266662739
0.172242684181
0.17221841829
0.172195679317
0.172179565177
0.17216857357
0.172163817911
0.144161522233
0.14416506269
0.144173752738
0.1441920049
0.144221500638
0.144260290408
0.144307407683
0.144362706078
0.144429310765
0.14451124901
0.144613001007
0.14473743929
0.144883973686
0.145051856194
0.145241617764
0.145455216306
0.145696632009
0.145966849989
0.146262873238
0.146577843246
0.146904800803
0.147247809163
0.147616328927
0.148017567509
0.148456222432
0.148932023212
0.149440909543
0.14998082269
0.150551275142
0.151152240972
0.151783600865
0.152444149518
0.153128029719
0.153827779605
0.154541194317
0.155265883551
0.156001822414
0.156755179658
0.157524492564
0.158300309872
0.159082145372
0.159883279982
0.160710425625
0.161552537492
0.162397940439
0.163239563924
0.164071053925
0.164887524878
0.165683943028
0.16645506802
0.167197250684
0.1679075163
0.168577919601
0.169192560842
0.169750142076
0.170255024293
0.170698212139
0.171072828214
0.171379955718
0.171624009202
0.171810495806
0.17194704725
0.172038675482
0.172101517633
0.172155147483
0.172211354996
0.172266319028
0.172305271661
0.172325076238
0.17233035547
0.172325136592
0.172311861543
0.172291684905
0.172267253327
0.172241292164
0.172215781526
0.172193224996
0.172176386737
0.172165057442
0.172161126335
0.144147968452
0.144153774826
0.14416175223
0.144178589426
0.144207111507
0.144250042583
0.144300708357
0.144354442458
0.144418008286
0.144498237873
0.144599140452
0.144723041552
0.144869883139
0.145038592285
0.145228399262
0.145438668445
0.145677676799
0.145952260069
0.146251161232
0.146564684906
0.14688758704
0.147225719913
0.147593407663
0.147996912461
0.148436574163
0.14891241029
0.149422531177
0.149964255622
0.150536318053
0.151138620857
0.151770883096
0.152432572701
0.153118481362
0.153818128865
0.154530592163
0.155256869538
0.15599336928
0.156746481063
0.15751731094
0.15829651482
0.159084284912
0.159890067463
0.16071794335
0.161560576546
0.162407811827
0.163251893026
0.164086555839
0.164906450913
0.165706458171
0.166481737137
0.167228117172
0.167940521237
0.168610265777
0.16922829777
0.169792555452
0.170299330313
0.170740811379
0.171113686651
0.171419166974
0.171661173866
0.171845750531
0.171979480464
0.1720707727
0.172137721637
0.17219761155
0.172255649203
0.172305354413
0.172337843384
0.172352306041
0.172352663146
0.172342674198
0.172324160802
0.172298922203
0.172270032229
0.172240300527
0.172212147513
0.172188215181
0.172170100744
0.172158425997
0.172153995079
0.144128333316
0.144134344465
0.144141336837
0.144156928666
0.144182161224
0.144225049507
0.144288218174
0.144342218496
0.144401242628
0.144478497412
0.14457797026
0.144701576398
0.144849115522
0.145017927826
0.14520760551
0.145421750261
0.145664543609
0.145936301464
0.14622695602
0.146529776338
0.146848930205
0.147190629686
0.147560858983
0.147965199977
0.148406074212
0.148883426549
0.149395452797
0.149939416311
0.150513798542
0.151118002014
0.15175231811
0.152415657957
0.153103259988
0.153805732559
0.154516296791
0.155240418078
0.155980316104
0.156734680647
0.157505077661
0.158288770045
0.159084611991
0.159897025863
0.160728285762
0.161573303752
0.162423657309
0.163271678021
0.164110905346
0.16493572348
0.165740924798
0.166521584378
0.167272894915
0.167989074895
0.168662538573
0.169286092064
0.169854993168
0.170363321854
0.170804587117
0.171176191496
0.171479568961
0.171718863645
0.171900419578
0.172032534945
0.17212784505
0.172203324005
0.17226822405
0.172322766969
0.172366130819
0.172390772564
0.17239642525
0.17238822381
0.172370177156
0.172343834452
0.172311188067
0.17227468939
0.172237704334
0.172205328267
0.172179401187
0.172157827176
0.172142700968
0.172136417272
0.144097425908
0.144099010682
0.144107589669
0.144123706434
0.14415175816
0.144192484337
0.144250905151
0.144309573643
0.144372153982
0.144449970043
0.144548329385
0.144671869036
0.144820707576
0.144994909383
0.145191851018
0.145406563303
0.145642326826
0.145901135298
0.146181198058
0.146481281127
0.146801790531
0.147145119127
0.147517118947
0.147923252423
0.148365828221
0.148845111726
0.149359261043
0.149906043822
0.150483433563
0.151090701134
0.15172721753
0.152393992472
0.153085442555
0.153786364328
0.154496214902
0.155219668712
0.155958668264
0.156715874555
0.157490692942
0.158280609949
0.159084591927
0.159904530265
0.160741151282
0.161590498395
0.162445545729
0.163298987672
0.164144248622
0.164975506348
0.165787432711
0.166574940695
0.16733280347
0.168054983671
0.168734470102
0.169364371495
0.169938288605
0.170449177673
0.170891094381
0.171261999816
0.171563684943
0.171800914107
0.171981282835
0.172115463236
0.172217716977
0.172300263891
0.172364505923
0.172415694636
0.172452567868
0.172467171954
0.172460203395
0.17243875682
0.172408305459
0.172370617457
0.172326542524
0.172278038246
0.17223172804
0.172192857772
0.17216031586
0.172130484794
0.17211134728
0.172104300718
0.144041667761
0.144042173842
0.144055881936
0.144072879312
0.144104141673
0.144147435691
0.144202540375
0.144262146785
0.14432988725
0.1444102172
0.144507309357
0.144631519953
0.144789301781
0.144972353608
0.145168625988
0.145377118637
0.145602979879
0.145852718244
0.146127845315
0.146425772775
0.146744684951
0.147088461853
0.147462464822
0.147871000857
0.148315903989
0.148797037004
0.149314026714
0.149863880335
0.150445365788
0.151056506075
0.151697400512
0.152366397476
0.153058054485
0.153762499154
0.154470041362
0.155190474819
0.155931345822
0.156693286271
0.15747417547
0.158271533006
0.159084190254
0.159912599685
0.160756385888
0.161612066398
0.162473576522
0.163334044289
0.164186892112
0.165026159946
0.165846404744
0.166642389497
0.167408642461
0.168139009655
0.168826589174
0.169464111013
0.170044015718
0.170558751859
0.17100285204
0.171374807884
0.171676964079
0.171915064094
0.172098097234
0.172238063262
0.172348418427
0.17243260498
0.172494767533
0.172540946256
0.172569747171
0.172571562153
0.172547406192
0.172507070184
0.172459290149
0.172405413779
0.172344241523
0.172279737652
0.172220440521
0.172170233751
0.172125486095
0.172086468632
0.172063405039
0.17205365491
0.143956947751
0.143963729585
0.143985671965
0.144010455096
0.144038243569
0.144082476162
0.144139677647
0.144202040988
0.144273778883
0.144357313746
0.144458843018
0.144587303268
0.1447531197
0.144935540478
0.145127268984
0.14532780295
0.145547383991
0.145794560852
0.146067515318
0.146360588097
0.146676921655
0.147021511691
0.147397337398
0.147807872468
0.148255489532
0.14874064256
0.14925924155
0.149812728235
0.150399145459
0.151017330312
0.15166248164
0.152332074646
0.1530247281
0.153725781569
0.154433289458
0.155155077649
0.155899750217
0.156667539211
0.157455614117
0.158261356404
0.159083410906
0.159921342256
0.160773982397
0.161637968996
0.162507825932
0.163377062043
0.164239173669
0.165088141663
0.165918447408
0.166724748698
0.167501420626
0.168242168936
0.168939879093
0.169586702231
0.170174357446
0.170695237006
0.171144448546
0.171521090188
0.171828057579
0.172071685124
0.17226159059
0.17240939335
0.172524230736
0.172608121889
0.172672891435
0.172713169558
0.17272571419
0.172706805911
0.172659447105
0.172595237559
0.172524749285
0.172448725112
0.172364606436
0.172279113679
0.172200390084
0.172131362902
0.172069893789
0.172022677267
0.171996413704
0.171984262127
0.143856378222
0.143869194574
0.143894189795
0.143929119747
0.143959960468
0.144006473549
0.144062482538
0.144128276741
0.144205098609
0.144287127995
0.144397686643
0.144539445444
0.144703887902
0.144882989111
0.145068110991
0.145261696275
0.14548038984
0.145728005637
0.145996251416
0.146284520983
0.146598870413
0.146943793192
0.147321250899
0.147734830728
0.14818609764
0.148674607145
0.14919745083
0.149751608241
0.150345342397
0.150973005654
0.15162047481
0.152288063836
0.152979313819
0.15367904903
0.154386593241
0.1551135292
0.155864293928
0.156638852275
0.157434896927
0.158249897828
0.159082236426
0.159930853697
0.160793999886
0.161668240744
0.162548407477
0.163428294123
0.164301513061
0.165162056173
0.166004374407
0.166823055774
0.167612356998
0.1683657983
0.169075929836
0.169734414721
0.170332712027
0.170863595257
0.171322880753
0.171709980949
0.172027351595
0.172280704256
0.172479303775
0.172633079443
0.172749776149
0.172836016621
0.172898906229
0.172937369569
0.17292802746
0.172878952512
0.172800976043
0.172706501395
0.172606909472
0.172501913604
0.172389207574
0.172274620178
0.172165702747
0.172069022976
0.171990583744
0.171936896347
0.17190978311
0.171898329934
0.143745044902
0.143761383111
0.143786925291
0.143817790076
0.143856384432
0.143911877046
0.143968904647
0.144037014876
0.144122581389
0.144210749855
0.144319932363
0.144471023573
0.144638686486
0.144812481435
0.144991889408
0.145185398896
0.145403726273
0.145648516861
0.145912389304
0.146197994588
0.146511002714
0.14685546769
0.147233080671
0.147648803535
0.14810766795
0.148598516019
0.149126085268
0.149688141859
0.150284101903
0.15091377918
0.151567294183
0.152240570962
0.152923083749
0.15361950419
0.154332357694
0.155066485796
0.155824660344
0.156606997541
0.157411849895
0.15823699604
0.159080632475
0.159941210665
0.160816519753
0.161702963785
0.162595484741
0.163488061683
0.164374442719
0.165248682619
0.166105229637
0.166938617973
0.167743004414
0.168511735973
0.169237103907
0.169910601208
0.170523964536
0.171070744778
0.171547270699
0.171952014325
0.17228486377
0.172550326621
0.172758878162
0.172919258011
0.173038600594
0.173121896529
0.173172769142
0.173202038269
0.173185424099
0.173097765184
0.172979152974
0.172845647796
0.172708235769
0.172568086062
0.172421188211
0.172264911574
0.172108036647
0.171974628251
0.171881230858
0.171826158396
0.171801356332
0.171793441413
0.143621058338
0.143639576217
0.143669293781
0.143699347629
0.14374115613
0.143797400255
0.143857308701
0.143926138596
0.144012786468
0.144118619678
0.144233652821
0.144385566495
0.144554609017
0.144725205106
0.144899332499
0.145095910068
0.145317662016
0.145557733547
0.145816358266
0.146099725537
0.146412579741
0.146757791004
0.147136026884
0.147550940302
0.148016428539
0.14851607733
0.149041614161
0.14961068055
0.150212356698
0.150846795024
0.15150407472
0.152176262536
0.152858622583
0.153553654934
0.15427145647
0.155013691692
0.155780468332
0.156571684479
0.157386280488
0.158222494198
0.159078519106
0.159952437945
0.160841620987
0.161742251057
0.162649270075
0.163556769972
0.164458632017
0.165349000255
0.166222327346
0.1670730902
0.16789537683
0.168682469573
0.169426675243
0.170119828635
0.170754543478
0.171325332769
0.171828083644
0.172257802483
0.172609534002
0.172889693067
0.173115141255
0.173288089268
0.173409956455
0.173481165325
0.173506869861
0.173499224397
0.173463637311
0.173372778257
0.173201413182
0.173013205176
0.172829177307
0.172652730914
0.172468306082
0.1722505506
0.172013106441
0.171830407822
0.171727012762
0.171680086462
0.171662358256
0.171660515983
0.143479003657
0.143496651851
0.143529124669
0.143564620573
0.143615360166
0.14366678346
0.143727989654
0.143799904231
0.143879587034
0.143995432833
0.144125608536
0.144278882084
0.144448786175
0.144620643723
0.144794544517
0.144992362097
0.145215958497
0.145453318012
0.145708151163
0.145988464853
0.146300545555
0.146648032622
0.147031727988
0.147447090199
0.147908678168
0.148421153972
0.14895558444
0.149525141013
0.150129177045
0.150760003509
0.151424486336
0.152100470796
0.152782181055
0.153480274525
0.154204501114
0.154955230979
0.155731417772
0.156532599238
0.15735798839
0.158206255626
0.159075799719
0.159964506851
0.160869350187
0.161786227631
0.162710015277
0.16363489559
0.164554888392
0.165464216444
0.166357304009
0.167228557347
0.168072058264
0.168881243772
0.169648899804
0.170367889688
0.171032246366
0.171637070798
0.172175742078
0.172637534849
0.173012041092
0.173314160251
0.173577330065
0.173775350145
0.173898891099
0.173945254156
0.173924226143
0.173852447647
0.173753224851
0.17364849406
0.173466226139
0.173212010117
0.172969918634
0.172765162454
0.172552915386
0.17224214517
0.171851713518
0.171596056203
0.171498895489
0.171482423473
0.171483194987
0.171495956113
0.143314654927
0.143328804197
0.143355234571
0.143400154689
0.143462088968
0.143514750452
0.143577921033
0.14365705843
0.143735904316
0.143849112244
0.143991133237
0.144148789334
0.144319085407
0.144493971255
0.144675655221
0.144876864236
0.145099731152
0.145334628486
0.145587435638
0.14586498777
0.146173619653
0.146519538019
0.146913055318
0.147340517206
0.147797742868
0.148310843447
0.14885444604
0.14942317418
0.150036798533
0.150673674579
0.151332027688
0.152005724327
0.152691041928
0.153398092641
0.154130949304
0.154890810424
0.155677154563
0.156489366414
0.157326723561
0.158188151378
0.159072371157
0.15997734407
0.160899716572
0.161835007158
0.162777987559
0.16372297001
0.164664141436
0.165595762351
0.166512147458
0.167407594165
0.168276271182
0.169112106392
0.169909026303
0.170661694444
0.17136565262
0.172015001137
0.17259910967
0.173105291212
0.173510372263
0.173843775564
0.174198547791
0.174447673013
0.174574744277
0.174580212361
0.17448660995
0.174319682158
0.174111005906
0.173928405466
0.173723259942
0.173418387304
0.173122336745
0.172924827142
0.172744203627
0.172292296393
0.171540351113
0.171175258282
0.171149405465
0.171226924622
0.171266058244
0.171317307232
0.143127568753
0.143138782657
0.143156186502
0.143206322846
0.143269925393
0.143331316384
0.14339934478
0.143486646833
0.143574062581
0.143687092611
0.143834716273
0.14399576799
0.144166279419
0.144340492973
0.144532553673
0.144744669363
0.144967729366
0.145200872799
0.145453063325
0.145729585867
0.146034746522
0.146374608369
0.146769601581
0.147218363853
0.147683132478
0.148186273195
0.148741572868
0.149317449239
0.149924455413
0.150565992884
0.151227541342
0.151901082239
0.152590467058
0.153306397572
0.154049425891
0.154819716309
0.155617179101
0.156441428813
0.157292018107
0.158167994014
0.159068207746
0.159990897933
0.160932665999
0.161888648544
0.162853432758
0.16382153339
0.164787394345
0.165745260474
0.166689181448
0.167613255153
0.168511859546
0.169379888644
0.170213226667
0.171008859378
0.171762498541
0.172464435058
0.173107240779
0.173700182474
0.174149528544
0.174522843373
0.17517606862
0.175487662009
0.175575036509
0.175478376972
0.175241394583
0.17490982494
0.174518788368
0.174173918524
0.173893254466
0.1735494125
0.173178442887
0.173088473698
0.173194076397
0.172498157051
0.170959960722
0.170425411135
0.17064358454
0.170957013217
0.171017281419
0.171162634002
0.142918851057
0.142931769814
0.142954559401
0.14299380775
0.143052067049
0.143119417531
0.143193659325
0.143285809057
0.143386787808
0.143503640029
0.14365600713
0.14382034553
0.143992693084
0.144167153027
0.144363060504
0.144585568885
0.144813693889
0.145049296457
0.145302890907
0.145580174771
0.145884250098
0.146218955698
0.146609761342
0.147071345467
0.147553080139
0.14805497009
0.148614216604
0.149199738747
0.149804178542
0.150443673628
0.151102272302
0.151777949639
0.152478259204
0.153205125094
0.153959206733
0.154741047568
0.155550924971
0.156388416361
0.157253313468
0.15814522537
0.1590630963
0.160005181651
0.16096820679
0.161947160201
0.162936500724
0.16393104482
0.16492563453
0.165914428671
0.16689095625
0.167848953716
0.168783148452
0.169690068554
0.170568395166
0.171417140756
0.172227452525
0.17298679859
0.173737742957
0.17454214478
0.174897852363
0.174831115811
0.175023798252
0.175251290344
0.175333600279
0.175249458447
0.175040615339
0.174747981771
0.174409823883
0.174074097144
0.173767318595
0.173483162504
0.173336751975
0.173562710686
0.174285236022
0.174029225114
0.168907231223
0.16840995846
0.169774479379
0.170773347138
0.170724719795
0.171121839596
0.14268357431
0.142698275314
0.142731756687
0.142761198344
0.142813044885
0.142882421117
0.142961840687
0.143060355202
0.143177520216
0.143297936233
0.143454064481
0.143622204388
0.14379815234
0.143976423551
0.144175586299
0.144403682509
0.144637436081
0.144878210916
0.145135335646
0.145414684317
0.145719830774
0.146053381476
0.146436137528
0.146896788013
0.147404217596
0.147915907135
0.14846496574
0.149065941362
0.149680949326
0.150307581455
0.150961601025
0.151643440725
0.152353943883
0.153092664215
0.153859234794
0.154653985723
0.155477387569
0.156329558948
0.157210279923
0.15811941743
0.159056534242
0.160019965303
0.16100634164
0.16201057736
0.163027238325
0.164051751517
0.165079625194
0.166104887025
0.167120084879
0.168118168868
0.169094551938
0.170048431641
0.170981726089
0.171892695379
0.172757405149
0.173562681745
0.174234638837
0.17443605353
0.174657003783
0.174839418508
0.174961425837
0.175118823169
0.17518279915
0.175100095713
0.174893002609
0.174596322086
0.174244575473
0.17387588313
0.173522631131
0.173197483912
0.172935632466
0.17276341553
0.172463848696
0.170782696997
0.169234847756
0.169644623931
0.171182826908
0.172204417466
0.169839088201
0.171323709076
0.142417044036
0.142431427118
0.142464468475
0.142496522564
0.142546445574
0.142618052991
0.142700747655
0.142800927051
0.142933739191
0.143066791468
0.143226643159
0.143399637239
0.143581173674
0.143766341558
0.143970723142
0.144202413565
0.144440905948
0.144687771516
0.144949781017
0.145232324798
0.145539396943
0.145874286974
0.146251952446
0.146706098627
0.147231022695
0.147762804264
0.148306314581
0.148901981487
0.14952827812
0.150161738099
0.15081326936
0.151498448098
0.152218004396
0.152968880252
0.153748870234
0.154557605815
0.155395835716
0.156263943376
0.15716206559
0.158090128541
0.159048104352
0.160034836105
0.161046911067
0.162078907417
0.163125525113
0.1641834827
0.165249775708
0.166318106184
0.167378811613
0.168423736188
0.169449984967
0.170460592037
0.171460881005
0.172451316076
0.173333682324
0.173774351731
0.17403532605
0.174290242604
0.174506274712
0.174673462254
0.174771844723
0.174846207958
0.174840687016
0.174713436324
0.174471795844
0.17414188148
0.1737525894
0.173333294627
0.172908304996
0.172491783435
0.172069961132
0.171614741891
0.171032396816
0.170111720013
0.169451203254
0.169583581218
0.170358295709
0.170616469783
0.171649268447
0.173240550087
0.142121089515
0.142134867589
0.142169746129
0.142203139978
0.142254434715
0.142327464639
0.142413102804
0.142511741228
0.142649019338
0.142800197401
0.142969079491
0.143148877426
0.143338154231
0.143534570396
0.143745452801
0.143981020616
0.144224347807
0.144478040975
0.144745870127
0.145032695519
0.145342507925
0.145679153741
0.146054270355
0.146500065203
0.147027917162
0.147589366508
0.148145068006
0.148729439479
0.149352250058
0.149989889745
0.150646728569
0.151340049965
0.152069695006
0.152832869685
0.153627072009
0.154451185886
0.155305463735
0.156190879201
0.157107866873
0.158056639124
0.159037314619
0.160049240507
0.16108944483
0.162152069026
0.163231443285
0.164326050037
0.165435692051
0.16655398242
0.167667875131
0.168767543197
0.169852058785
0.170929917363
0.172018286292
0.173043811494
0.173307558215
0.173566021783
0.173844035204
0.174083094042
0.174266719349
0.174391741079
0.174449254365
0.174445456766
0.17435844338
0.174164465553
0.173864137729
0.173474560704
0.173017762513
0.172515953316
0.171987396824
0.171444396383
0.170856043422
0.170202427167
0.16948842023
0.168705101885
0.168071330261
0.167999479674
0.168627082731
0.169769048376
0.171850305981
0.174151166337
0.141798518913
0.141810731127
0.141841450659
0.141879627756
0.141937265336
0.142012222738
0.142102667882
0.142201866824
0.142340006408
0.14250303616
0.142680550838
0.142866988359
0.143062854043
0.143274281422
0.143495797968
0.143735894902
0.143985067095
0.144247349974
0.14452248236
0.144814851866
0.145128458655
0.145467313875
0.145841529163
0.146280583837
0.146804619584
0.147386379574
0.147966180711
0.148549463841
0.149163338494
0.149799591296
0.150463490034
0.151165951468
0.151906592069
0.152682451124
0.153491836718
0.154333034369
0.155205225527
0.156109348256
0.157046895477
0.158018082529
0.159023354969
0.16006278861
0.161133846917
0.162230105033
0.163344310812
0.164477506518
0.165636710936
0.166815137558
0.167989706311
0.169151375177
0.170300163445
0.17145798434
0.172549760393
0.172824961115
0.173088313327
0.173347434626
0.173590890327
0.173786091025
0.173917744544
0.173978674999
0.173961642653
0.173863643063
0.173674744397
0.173383060663
0.1729880697
0.172500550564
0.171936087662
0.171310366858
0.170635592832
0.169918380278
0.169138459507
0.168261153916
0.167301907879
0.166316797515
0.165472424034
0.165071507003
0.165332232885
0.166344444
0.168612367271
0.170623612493
0.141453183156
0.141464099917
0.141489064694
0.141532610878
0.141595834311
0.141672615461
0.141767238308
0.141871594738
0.142008235897
0.142178471155
0.142362507317
0.142554485067
0.142754230719
0.142976107565
0.143214402377
0.143462347005
0.143718679322
0.143990958325
0.144276453981
0.14457671657
0.144896041769
0.145237833937
0.145612685459
0.146047048007
0.146562185158
0.147146045908
0.147751477262
0.148351050933
0.148964792368
0.149600461756
0.150266340197
0.150976247325
0.151727936813
0.152515849474
0.153341722087
0.154201706962
0.155092864596
0.1560176222
0.1569777297
0.157973742475
0.159005868464
0.160074614096
0.161178490422
0.162312095637
0.163468927004
0.16465014642
0.16586150901
0.16709420617
0.168333471144
0.169575454897
0.170797874505
0.17197054563
0.172285195874
0.172564109493
0.172823843849
0.173056691376
0.173247671598
0.173377319247
0.173431493099
0.173402214924
0.173283714066
0.173071881657
0.172761126475
0.172345627993
0.171825043926
0.17120563227
0.170496937182
0.169708095909
0.168844716749
0.167905646425
0.16688284032
0.165711527533
0.164382643711
0.162966751907
0.161557059358
0.160283751723
0.159211402726
0.158172527772
0.156666109137
0.153631216857
0.141086778038
0.141097606291
0.141121200643
0.141169667724
0.141233770377
0.141310011409
0.141404043305
0.141515341545
0.141650428137
0.141825516494
0.142015312014
0.14221284456
0.14241757537
0.142644407887
0.142897584839
0.143157577459
0.143423569445
0.143705824934
0.144003027488
0.144314459173
0.144642960971
0.144989358973
0.145366235527
0.14579879295
0.146306011223
0.146885309014
0.147504493573
0.1481236814
0.148741422693
0.149378934373
0.150053096563
0.150769163151
0.151529921483
0.152331653536
0.153174955365
0.154054649181
0.15496670197
0.155913990647
0.156898561684
0.157921492302
0.158983177243
0.160084402702
0.161225890498
0.162405446858
0.163613760061
0.164841737035
0.166095011914
0.167379515118
0.168699026368
0.170062842692
0.171338246957
0.171680969646
0.171974946082
0.172254523613
0.172489554001
0.172670980875
0.172788757263
0.172829258687
0.17278128894
0.172637946873
0.17239458613
0.172047591729
0.17159330179
0.171028416137
0.170352169596
0.169566958847
0.168676513826
0.167683195949
0.166585419314
0.165375049958
0.164040656025
0.162495238449
0.160665143192
0.158570854638
0.156200904461
0.153475278081
0.150193328788
0.146017979953
0.14081587817
0.139448948786
0.14069597223
0.140707395399
0.140732282234
0.140785929011
0.140850312624
0.140925198065
0.141016009264
0.141132119283
0.141263920937
0.141442185765
0.141637918601
0.141841324963
0.142052353769
0.142285519122
0.142548910703
0.142821429335
0.14309924526
0.14339237748
0.143700610782
0.144024497925
0.144365781219
0.144719646187
0.14509973569
0.145532917964
0.14603468713
0.146607295958
0.147230705367
0.147864513522
0.148497732415
0.14914165199
0.149823238683
0.150547926031
0.151315862905
0.152126513307
0.152984883077
0.153887442521
0.154824244346
0.155796828754
0.156807754006
0.157859496168
0.158953818665
0.160092333878
0.161279861752
0.162513521384
0.163770411205
0.165037409494
0.166330061564
0.16767807923
0.169121943312
0.170694855638
0.171052655279
0.171337674776
0.171628616601
0.171878087386
0.172059989414
0.172166347882
0.172189111487
0.172118491343
0.17194646697
0.171667788143
0.171278870321
0.170776783422
0.170158629048
0.169421542965
0.168563315246
0.167582372197
0.166476404041
0.165240083515
0.163862323568
0.162322914495
0.160588196089
0.158600461677
0.156187244161
0.15321843247
0.149568446738
0.144870135011
0.138314944576
0.128093900307
0.109021772381
0.0628861081561
0.140272765152
0.14028473339
0.140313143647
0.140372688321
0.140438313422
0.14051257432
0.14060249249
0.140720531899
0.14084842799
0.141027305664
0.1412287116
0.14143807869
0.141655620625
0.141895436862
0.142167172753
0.142451749448
0.142743937804
0.143049381284
0.143368284552
0.143704359421
0.144060930496
0.144426163029
0.144810357541
0.145245681077
0.145745409217
0.146311110478
0.146931932895
0.147570087025
0.148222394525
0.148886694732
0.149575674623
0.150304610507
0.15108288336
0.15190799725
0.152776648605
0.153696992346
0.15466055144
0.155661738814
0.156703139201
0.157786644302
0.158916085035
0.160099412188
0.161345051467
0.162635857213
0.163936622178
0.165242881938
0.166587182273
0.168025183429
0.169472738537
0.17048560141
0.170757775706
0.170986574179
0.171228358349
0.171416661502
0.171518011774
0.171524655589
0.171430389029
0.171228322109
0.170913016065
0.17048079264
0.169928931598
0.169254848043
0.168455524834
0.167527226835
0.166465377256
0.16526404262
0.163914572605
0.162403410017
0.160709171205
0.158798843725
0.156622153682
0.154110704165
0.151055408812
0.147153984575
0.142139124512
0.135441989191
0.125849390046
0.110946974786
0.0858339329779
0.0440476080039
0.139805894399
0.139818342388
0.139850241923
0.139916170623
0.139983018243
0.140060460144
0.140151669659
0.140270091022
0.140397786795
0.140578468399
0.140785731336
0.141001058911
0.141225028995
0.141471094659
0.14174953584
0.142043913105
0.142352897435
0.142673145706
0.143003607267
0.143351658527
0.143724071005
0.144105942581
0.144496439674
0.144933324862
0.14543417996
0.145995523086
0.146612328269
0.147249904191
0.147910466282
0.148599125471
0.149310490968
0.150048205339
0.150825045404
0.151660004242
0.152548128457
0.15348644611
0.154474282952
0.155505399062
0.156579641836
0.157699333711
0.15887099203
0.160111419351
0.161422217192
0.162768567612
0.164122289456
0.165498220693
0.166951646455
0.168453032923
0.169675531092
0.170105456353
0.170353919669
0.170566029645
0.170744312066
0.170844105029
0.170841291003
0.170727429228
0.170497499582
0.170147186704
0.169673244502
0.169073327108
0.16834528976
0.167486454256
0.166493006715
0.165359501316
0.164078331652
0.162638862286
0.161025909654
0.159217411726
0.157181128592
0.154869958065
0.152214949694
0.149113972787
0.14541966763
0.140739695495
0.134561159003
0.126323404646
0.114929571622
0.0984938175617
0.0736856546351
0.0394507124713
0.139286365468
0.139301304349
0.139335009698
0.139401512119
0.139473484306
0.139560280283
0.139657618212
0.139780245227
0.139915535598
0.140094003303
0.140306611236
0.140528082588
0.140758663337
0.141010883648
0.141295012988
0.141595414812
0.141917752653
0.142256856944
0.142602274329
0.142964364304
0.143351635739
0.143754344731
0.144159933757
0.144596253674
0.145098157149
0.145658240812
0.146272050988
0.146909346969
0.147571506027
0.148275350519
0.149012009137
0.149771622608
0.150556330745
0.151392319328
0.152290247879
0.153249450422
0.154263775762
0.155326597964
0.156435306353
0.157595015378
0.158821718198
0.160131326611
0.161508109541
0.16291713779
0.164353533142
0.165855152349
0.167378022197
0.168628584196
0.16922651374
0.16956449281
0.169847540384
0.170041663159
0.170141400414
0.170136239457
0.170012041016
0.169761403937
0.169381342884
0.168870153993
0.168226560043
0.167449292798
0.166536466528
0.165484897502
0.164289469807
0.162942502247
0.161432985225
0.15974547529
0.157858406343
0.155741598364
0.153352695855
0.150632064418
0.147495299249
0.143821824372
0.139438771521
0.134070062477
0.127132113618
0.117887171893
0.10549394959
0.0886041479828
0.0647764731354
0.0346170228178
0.138719885615
0.138738927681
0.138773278309
0.138833756842
0.138914160983
0.139011112026
0.139117904627
0.139249511959
0.139399247937
0.139575167268
0.139790188986
0.140017203307
0.140254724586
0.140513604748
0.140804049435
0.141111214627
0.141441353469
0.141797561823
0.142161505543
0.142541539585
0.142944180884
0.143367504205
0.143799384279
0.144246838658
0.144743524069
0.145301296184
0.145912305106
0.146550232197
0.147212311921
0.147922301064
0.148675590536
0.149463390439
0.150269306001
0.151110343364
0.152012291868
0.152983749182