/*--------------------------------*- C++ -*----------------------------------*\
| =========                 |                                                 |
| \\      /  F ield         | OpenFOAM: The Open Source CFD Toolbox           |
|  \\    /   O peration     | Version:  v1806                                 |
|   \\  /    A nd           | Web:      www.OpenFOAM.com                      |
|    \\/     M anipulation  |                                                 |
\*---------------------------------------------------------------------------*/
FoamFile
{
    version     2.0;
    format      ascii;
    class       surfaceScalarField;
    location    "798";
    object      phia;
}
// * * * * * * * * * * * * * * * * * * * * * * * * * * * * * * * * * * * * * //

dimensions      [0 3 -1 0 0 0 0];
oriented        oriented;


internalField   nonuniform List<scalar> 
12640
(
3.72259167991e-08
-3.95855839731e-08
7.10907474975e-08
-3.58910075905e-08
1.00985475033e-07
-3.14431239106e-08
1.26725394051e-07
-2.70824544038e-08
1.47620052143e-07
-2.20733573483e-08
1.63494556011e-07
-1.68070962802e-08
1.7805749847e-07
-1.53618460662e-08
1.98657338599e-07
-2.13233488016e-08
2.25348787019e-07
-2.73867697878e-08
2.52580481724e-07
-2.78760149751e-08
2.79704803564e-07
-2.77319433013e-08
3.08844395445e-07
-2.96986364842e-08
3.3844848825e-07
-3.01339724313e-08
3.67857241149e-07
-2.98886969793e-08
3.98574908326e-07
-3.11532925187e-08
4.33147303401e-07
-3.49357574736e-08
4.69990337513e-07
-3.71889261511e-08
5.0645508795e-07
-3.67898047066e-08
5.42327973929e-07
-3.62381735442e-08
5.8013788741e-07
-3.81947600494e-08
6.23831404229e-07
-4.41022265165e-08
6.72855266723e-07
-4.94157574415e-08
7.23481866207e-07
-5.10136932335e-08
7.73940034239e-07
-5.08107346674e-08
8.23807616737e-07
-5.02120191993e-08
8.73475347115e-07
-4.99845225341e-08
9.23721708417e-07
-5.05644075759e-08
9.74245328264e-07
-5.08179371639e-08
1.02458880771e-06
-5.0642637126e-08
1.0749960404e-06
-5.06849370253e-08
1.12626060618e-06
-5.15515829564e-08
1.17799518904e-06
-5.20034733703e-08
1.22980229978e-06
-5.20840652764e-08
1.28326037702e-06
-5.37293134386e-08
1.33818186449e-06
-5.52171089887e-08
1.39386948404e-06
-5.59748880654e-08
1.45027493746e-06
-5.67135529139e-08
1.50595520899e-06
-5.59860432121e-08
1.55991603461e-06
-5.42862805087e-08
1.61239992366e-06
-5.27995071415e-08
1.66445637194e-06
-5.23828878163e-08
1.71378314492e-06
-4.96355400355e-08
1.7573257585e-06
-4.38623420283e-08
1.79676199703e-06
-3.97514245744e-08
1.83377010083e-06
-3.73448988929e-08
1.86801749492e-06
-3.45840926842e-08
1.89907846614e-06
-3.14232696675e-08
1.92617259634e-06
-2.74607293396e-08
1.94919545298e-06
-2.34188123762e-08
1.97027149644e-06
-2.14812056747e-08
1.99202020004e-06
-2.21936237376e-08
2.01118390086e-06
-1.96268180387e-08
2.02023942391e-06
-9.56548001026e-09
2.02164521743e-06
-1.95525934044e-09
2.01469603426e-06
6.34103858813e-09
1.99676846748e-06
1.72695357001e-08
1.97975207999e-06
1.62512742031e-08
1.96890485342e-06
9.95348701886e-09
1.95396732564e-06
1.38687772178e-08
1.93546974031e-06
1.72177886246e-08
1.92555243845e-06
8.34690473381e-09
1.90933976815e-06
1.42712315878e-08
1.84777898695e-06
5.92291948143e-08
1.71667771101e-06
1.28938457947e-07
1.57522542697e-06
1.39921103939e-07
1.46838863023e-06
1.05772957514e-07
1.36846360456e-06
9.89791951222e-08
1.26619412703e-06
1.01244058106e-07
1.1556232636e-06
1.09393931013e-07
1.03093762977e-06
1.23378009385e-07
8.9932814058e-07
1.30252784008e-07
7.70612926872e-07
1.27418783185e-07
6.48434886132e-07
1.20971567525e-07
5.19979723023e-07
1.27299685338e-07
4.10012448794e-07
1.08923905026e-07
3.14766486384e-07
9.42375223565e-08
2.47044964695e-07
6.66835743987e-08
1.71783249856e-07
7.41878625487e-08
1.03615313069e-07
6.68074478981e-08
1.02453841999e-07
1.99358547236e-08
-6.10827270431e-08
4.61465121151e-08
-6.37016421055e-08
7.24099275456e-08
-5.9070165772e-08
9.97184693462e-08
-5.55381853303e-08
1.3293853741e-07
-5.6288753821e-08
1.59139285817e-07
-4.39960371288e-08
1.78474041573e-07
-3.55583310829e-08
2.00508907944e-07
-4.41976122015e-08
2.25436533659e-07
-5.30569841467e-08
2.52550984915e-07
-5.57113506943e-08
2.80342670974e-07
-5.61395413932e-08
3.07182889301e-07
-5.71438077097e-08
3.34643460666e-07
-5.80971217589e-08
3.63778538402e-07
-5.94936530284e-08
3.9521077648e-07
-6.29538680221e-08
4.30616037284e-07
-7.07245087974e-08
4.66430445885e-07
-7.33210498883e-08
4.98323384242e-07
-6.90639357192e-08
5.31491457329e-07
-6.97682872442e-08
5.71260966267e-07
-7.83947076863e-08
6.18170951617e-07
-9.14180865919e-08
6.700155017e-07
-1.01698312167e-07
7.21915432086e-07
-1.03279665152e-07
7.71120845231e-07
-1.00404089193e-07
8.20161359901e-07
-9.95748039468e-08
8.7078629568e-07
-1.00961031543e-07
9.21288890414e-07
-1.01361472214e-07
9.71367824541e-07
-1.01225768807e-07
1.02176098259e-06
-1.01311647817e-07
1.07252890259e-06
-1.01764155948e-07
1.12344036516e-06
-1.02723132779e-07
1.17443538705e-06
-1.03291864245e-07
1.22555865091e-06
-1.03465801848e-07
1.27883874766e-06
-1.07312045565e-07
1.33520361474e-06
-1.11848837847e-07
1.3914472765e-06
-1.12542483836e-07
1.44757587099e-06
-1.13135097195e-07
1.50480927013e-06
-1.13553862541e-07
1.56228646288e-06
-1.12065536133e-07
1.61632268539e-06
-1.07180287145e-07
1.6597119168e-06
-9.60741770884e-08
1.69546806122e-06
-8.5723139213e-08
1.73393586457e-06
-8.2626742811e-08
1.77490012985e-06
-8.10540912853e-08
1.81482402424e-06
-7.75840231851e-08
1.85284063908e-06
-7.29602282103e-08
1.8878760105e-06
-6.68002224443e-08
1.91982962653e-06
-5.98020901405e-08
1.94812806792e-06
-5.20950023656e-08
1.96909649765e-06
-4.28768879809e-08
1.97963204573e-06
-3.31520472063e-08
1.98693358621e-06
-2.74041826555e-08
2.00440740586e-06
-2.75338746494e-08
2.01798717192e-06
-1.61023908644e-08
2.0164661829e-06
7.2615250014e-09
2.01420541644e-06
1.88369124853e-08
2.01067635012e-06
1.89997140332e-08
2.00001448052e-06
1.96829716876e-08
1.98860294208e-06
2.41840923523e-08
1.97400021654e-06
3.04853088205e-08
1.93751658832e-06
4.32685652183e-08
1.89434314087e-06
5.55337455171e-08
1.8234034151e-06
1.2794541315e-07
1.69441415408e-06
2.55874132895e-07
1.53000187005e-06
3.02927113606e-07
1.37206446531e-06
2.62696959503e-07
1.27705554806e-06
1.93075104977e-07
1.20887473494e-06
1.68415531456e-07
1.12045301156e-06
1.96665108733e-07
1.00233834664e-06
2.40204137796e-07
8.63984899224e-07
2.6729781098e-07
7.24914661651e-07
2.65259512249e-07
6.09477088055e-07
2.35230106805e-07
5.22863616317e-07
2.12710743915e-07
4.38454974265e-07
1.92150648166e-07
3.60049111975e-07
1.71469078901e-07
2.77711663887e-07
1.47811590924e-07
2.03792234591e-07
1.46797589529e-07
1.06421017649e-07
1.6249574372e-07
2.07812803679e-07
2.44210876817e-08
-8.65783357796e-08
3.66407674325e-08
-7.72532576435e-08
6.67793384285e-08
-9.05235234697e-08
1.01898866449e-07
-9.18003118981e-08
1.34839479149e-07
-9.02289072948e-08
1.52331590238e-07
-6.23124471228e-08
1.65498302712e-07
-4.96028253744e-08
1.89517998203e-07
-6.91711941492e-08
2.16838083559e-07
-8.12580091955e-08
2.44570666916e-07
-8.42056521293e-08
2.72404353974e-07
-8.46537425035e-08
2.9936050039e-07
-8.46534459877e-08
3.26481217736e-07
-8.56785699267e-08
3.55803824259e-07
-8.92098125338e-08
3.85206942205e-07
-9.27273247363e-08
4.05221413664e-07
-9.10845964441e-08
4.18911648791e-07
-8.73751781829e-08
4.44406591976e-07
-9.49244124962e-08
4.88864726115e-07
-1.14637503002e-07
5.49930390035e-07
-1.39884981664e-07
6.13026328674e-07
-1.5495085616e-07
6.65515404067e-07
-1.54589452075e-07
7.13570560957e-07
-1.51729145916e-07
7.63865032567e-07
-1.51054898548e-07
8.14673090178e-07
-1.50736131292e-07
8.64235862425e-07
-1.50846221589e-07
9.13804943775e-07
-1.51256946843e-07
9.64069856717e-07
-1.51790944751e-07
1.01466579121e-06
-1.52213322149e-07
1.06581614792e-06
-1.53194351455e-07
1.11644542177e-06
-1.53637907385e-07
1.16747448067e-06
-1.54593534334e-07
1.22001617435e-06
-1.56287210175e-07
1.27134872868e-06
-1.58921781069e-07
1.3260569469e-06
-1.6686530726e-07
1.3865884503e-06
-1.73375101203e-07
1.44430340369e-06
-1.7117085706e-07
1.5002283803e-06
-1.69792288124e-07
1.55874205577e-06
-1.70908460576e-07
1.61498846625e-06
-1.63741470704e-07
1.66686038385e-06
-1.48271327942e-07
1.71479605436e-06
-1.33970422371e-07
1.75810725296e-06
-1.26263688753e-07
1.798019176e-06
-1.21284431473e-07
1.83538091862e-06
-1.15283413875e-07
1.86984981863e-06
-1.07765706854e-07
1.90148952334e-06
-9.88001634521e-08
1.93006857888e-06
-8.87463284152e-08
1.95519999931e-06
-7.76194382962e-08
1.97719867166e-06
-6.52784883561e-08
1.99665720463e-06
-5.30471880834e-08
2.01182619206e-06
-4.30327537399e-08
2.01659981272e-06
-3.28131294192e-08
2.01500488443e-06
-1.50517846388e-08
2.01743125902e-06
4.22283232695e-09
2.0195210261e-06
1.60593663094e-08
2.01396217393e-06
2.37576504184e-08
2.00181053047e-06
3.09033137869e-08
1.98576384158e-06
3.91268621028e-08
1.964435139e-06
5.05191019585e-08
1.93636883832e-06
6.97874057247e-08
1.86919665163e-06
1.20875030038e-07
1.72152287378e-06
2.73662852758e-07
1.52285734901e-06
4.52857195546e-07
1.37351151255e-06
4.51002575698e-07
1.30806376987e-06
3.27158767851e-07
1.23007645809e-06
2.7015300617e-07
1.12879314723e-06
2.6875368698e-07
1.01742457366e-06
3.06979915087e-07
8.93830814583e-07
3.62634859936e-07
7.75439034934e-07
3.84484557192e-07
6.83615928506e-07
3.55862954704e-07
6.04168783007e-07
3.13436577935e-07
5.22714776673e-07
2.92956930001e-07
4.27647767704e-07
2.86052779718e-07
3.32232699025e-07
2.65703023626e-07
2.51362836857e-07
2.27498461421e-07
1.90091184973e-07
2.06873530508e-07
8.17734681345e-08
2.69360346707e-07
2.88991601566e-07
1.58296019582e-08
-1.03742664724e-07
2.12823152263e-08
-8.3632227061e-08
5.32174075288e-08
-1.2361806999e-07
8.11324628258e-08
-1.20753242819e-07
8.62096157398e-08
-9.61040537904e-08
7.92260372527e-08
-5.58043207372e-08
1.11869945761e-07
-8.29847600083e-08
1.62860378421e-07
-1.21203872708e-07
2.00453910058e-07
-1.19789585985e-07
2.30991504297e-07
-1.15547573041e-07
2.60278307269e-07
-1.14575557774e-07
2.88123956282e-07
-1.13001578784e-07
3.13516863994e-07
-1.11488705778e-07
3.30130292198e-07
-1.0618109869e-07
3.40149683315e-07
-1.03100238481e-07
3.5737841928e-07
-1.08705302564e-07
3.93154495071e-07
-1.23560398572e-07
4.47208537996e-07
-1.4941630593e-07
5.09395800219e-07
-1.77267775719e-07
5.62900137335e-07
-1.93826617485e-07
6.07696658717e-07
-2.00163132151e-07
6.55105138774e-07
-2.02407189889e-07
7.04854951315e-07
-2.01859704395e-07
7.54096105865e-07
-2.0066337507e-07
8.0317388165e-07
-2.00152814927e-07
8.52417749049e-07
-2.00422943838e-07
9.02543713292e-07
-2.01694005872e-07
9.531057502e-07
-2.02665643731e-07
1.00430625174e-06
-2.03706577549e-07
1.0551191591e-06
-2.04295980341e-07
1.10704469721e-06
-2.05838023702e-07
1.15735138705e-06
-2.05173137949e-07
1.20735760324e-06
-2.06574326775e-07
1.26545874712e-06
-2.17324233695e-07
1.32422340096e-06
-2.25931618317e-07
1.38251305868e-06
-2.31982653169e-07
1.44687250788e-06
-2.35847407816e-07
1.50918251393e-06
-2.32425744335e-07
1.56367744276e-06
-2.25717571913e-07
1.61455545995e-06
-2.14941756008e-07
1.66505840196e-06
-1.99091048797e-07
1.71393147997e-06
-1.8316593482e-07
1.75880126523e-06
-1.71448489232e-07
1.79961645387e-06
-1.62423057866e-07
1.8371966014e-06
-1.5318672551e-07
1.87177110232e-06
-1.42678304887e-07
1.90341750606e-06
-1.30791190397e-07
1.93198988332e-06
-1.17683837693e-07
1.95734962766e-06
-1.03356205387e-07
1.9795711786e-06
-8.79016962393e-08
1.99824179948e-06
-7.21372791373e-08
2.01143541271e-06
-5.66779598918e-08
2.01774963083e-06
-3.96131102438e-08
2.02095455374e-06
-1.87975301148e-08
2.02299859959e-06
1.57588003677e-09
2.02085504929e-06
1.7510492434e-08
2.01275114906e-06
3.10654815284e-08
1.997914953e-06
4.48095571178e-08
1.97475565849e-06
6.1204443324e-08
1.93817494954e-06
8.58426875693e-08
1.87374296137e-06
1.32781896649e-07
1.7585258085e-06
2.3449013807e-07
1.61850193625e-06
4.12044955315e-07
1.49371199527e-06
5.7612181749e-07
1.35382383006e-06
5.89635062275e-07
1.22200192498e-06
4.58019796113e-07
1.12035920164e-06
3.7095101311e-07
1.03199116649e-06
3.5624985312e-07
9.46045887016e-07
3.91948445e-07
8.53268991771e-07
4.54302059097e-07
7.5100904142e-07
4.85526047832e-07
6.47764695307e-07
4.57867997159e-07
5.43082972664e-07
4.16989128169e-07
4.40460666288e-07
3.94550137823e-07
3.46026635065e-07
3.79449874846e-07
2.49368409152e-07
3.6130547811e-07
1.65259830507e-07
3.10697789945e-07
1.10839120895e-07
2.60516120031e-07
5.67318094335e-08
3.2263529986e-07
3.45218467994e-07
1.37588128851e-09
-1.05610367591e-07
1.70779600181e-08
-1.00062010234e-07
4.10172190608e-08
-1.48469230939e-07
6.02659210366e-08
-1.40771630926e-07
5.67245946728e-08
-9.31683579528e-08
7.63880839045e-08
-7.60771327997e-08
1.18254718231e-07
-1.25747140375e-07
1.49280025913e-07
-1.53186281591e-07
1.79337315587e-07
-1.5075786154e-07
2.1070804059e-07
-1.47664527074e-07
2.42411859085e-07
-1.4684891439e-07
2.64934566411e-07
-1.35981574196e-07
2.74002206997e-07
-1.20919183359e-07
2.84418663451e-07
-1.16976907547e-07
3.11521218937e-07
-1.30643181126e-07
3.559268878e-07
-1.53583711204e-07
4.11324322442e-07
-1.79445097141e-07
4.64974590232e-07
-2.03541262235e-07
5.07919802146e-07
-2.20659778853e-07
5.47965441063e-07
-2.34295866e-07
5.93242781776e-07
-2.45854463252e-07
6.41412359054e-07
-2.50973807174e-07
6.90159891577e-07
-2.5098834738e-07
7.38787642265e-07
-2.4964662745e-07
7.87619872675e-07
-2.49326971745e-07
8.37376553915e-07
-2.50500351768e-07
8.87248121454e-07
-2.51886312646e-07
9.38528873898e-07
-2.54248928037e-07
9.89150987417e-07
-2.54618980783e-07
1.04059473183e-06
-2.56017651638e-07
1.08984679833e-06
-2.55365166045e-07
1.14331218724e-06
-2.58919751521e-07
1.20289892204e-06
-2.6645478317e-07
1.26055177773e-06
-2.75284749369e-07
1.32247352742e-06
-2.88174337673e-07
1.3883686137e-06
-2.98197420316e-07
1.44970327251e-06
-2.97501479412e-07
1.50731343627e-06
-2.90349334124e-07
1.56154427972e-06
-2.80265049011e-07
1.61339406641e-06
-2.67106170396e-07
1.66438023752e-06
-2.50395262606e-07
1.71378610341e-06
-2.32885945627e-07
1.75969098876e-06
-2.17669533623e-07
1.80149593352e-06
-2.04542059935e-07
1.83965288008e-06
-1.91664285986e-07
1.87455105033e-06
-1.77901944133e-07
1.90633753029e-06
-1.62916791146e-07
1.93496684825e-06
-1.4666341846e-07
1.96032676745e-06
-1.29084475302e-07
1.98226420719e-06
-1.10222549923e-07
2.00013103382e-06
-9.04099968683e-08
2.01269191081e-06
-6.96710289854e-08
2.01973554886e-06
-4.71299057771e-08
2.02322088384e-06
-2.28082376497e-08
2.02360613246e-06
5.92746410193e-10
2.01869827672e-06
2.17348917673e-08
2.00602559618e-06
4.2947101179e-08
1.98235112724e-06
6.75729998839e-08
1.94221209281e-06
1.00300495567e-07
1.87660311017e-06
1.50278467484e-07
1.77512279988e-06
2.32957699183e-07
1.64540157645e-06
3.62827280333e-07
1.53219464671e-06
5.23871744168e-07
1.43943006391e-06
6.67530006507e-07
1.3432394174e-06
6.84627159368e-07
1.21431876813e-06
5.85995053758e-07
1.07426496804e-06
5.10179425162e-07
9.54941837441e-07
4.74752887403e-07
8.59030532975e-07
4.86968682534e-07
7.68575753715e-07
5.43716670435e-07
6.6542503922e-07
5.8751974912e-07
5.60174332871e-07
5.62039095487e-07
4.61396208785e-07
5.14829906893e-07
3.64244459932e-07
4.90791151567e-07
2.68103495875e-07
4.74653311599e-07
1.81014482224e-07
4.47497586231e-07
1.29177495787e-07
3.61842441266e-07
7.99189328529e-08
3.09177570547e-07
3.12988512969e-08
3.70452042376e-07
3.76207571319e-07
-8.28864942243e-10
-1.05512030483e-07
1.95486455907e-08
-1.21087391947e-07
3.06754565117e-08
-1.60344440718e-07
3.88721771322e-08
-1.49689778642e-07
3.75971037827e-08
-9.23914271073e-08
7.71801330511e-08
-1.16377658536e-07
1.14428779084e-07
-1.63908008376e-07
1.33792169812e-07
-1.73462890377e-07
1.58182870253e-07
-1.75935184031e-07
1.84914739471e-07
-1.75052739026e-07
2.05825612346e-07
-1.68303170396e-07
2.07154920934e-07
-1.37677230343e-07
2.17502821804e-07
-1.31654380963e-07
2.47318451757e-07
-1.47246053201e-07
2.93342169603e-07
-1.77180457433e-07
3.51043454349e-07
-2.11830335135e-07
4.05363925233e-07
-2.34282717847e-07
4.46290818214e-07
-2.4492941818e-07
4.84462210703e-07
-2.59263499685e-07
5.29667268774e-07
-2.7992288447e-07
5.76532810552e-07
-2.93128650039e-07
6.23062003186e-07
-2.978958765e-07
6.7076418992e-07
-2.99062583852e-07
7.19733594992e-07
-2.98973512425e-07
7.68830690309e-07
-2.98759648904e-07
8.16362961902e-07
-2.98357195553e-07
8.67468987221e-07
-3.03299662689e-07
9.18015102097e-07
-3.05091518211e-07
9.69675576174e-07
-3.06569246344e-07
1.01695232041e-06
-3.03574626304e-07
1.06874399403e-06
-3.0743610806e-07
1.1247260389e-06
-3.15190715161e-07
1.1832581087e-06
-3.2529129646e-07
1.25349342722e-06
-3.45841113831e-07
1.3243498912e-06
-3.5935750142e-07
1.3879644323e-06
-3.62133373051e-07
1.447114078e-06
-3.56964930036e-07
1.50398520269e-06
-3.47531674145e-07
1.55888534689e-06
-3.35474844655e-07
1.61204135774e-06
-3.20574434768e-07
1.6639296293e-06
-3.02595926763e-07
1.71398424325e-06
-2.83252824116e-07
1.76080079792e-06
-2.64794971514e-07
1.80362098206e-06
-2.47671117288e-07
1.84256499349e-06
-2.30918644941e-07
1.87795361352e-06
-2.1360807737e-07
1.90997052205e-06
-1.95259225623e-07
1.93860363348e-06
-1.75634282194e-07
1.96372398943e-06
-1.54554682175e-07
1.98507177388e-06
-1.31935744011e-07
2.00207957564e-06
-1.07801776573e-07
2.01405139346e-06
-8.20552559853e-08
2.02100429639e-06
-5.45375734528e-08
2.02357398119e-06
-2.58895509191e-08
2.02096041099e-06
2.6194816445e-09
2.01036756415e-06
3.16560415013e-08
1.98787933448e-06
6.46688691222e-08
1.94807010404e-06
1.06506312694e-07
1.88382093333e-06
1.63568617939e-07
1.78918342746e-06
2.43836127353e-07
1.6664546183e-06
3.54538385229e-07
1.53585845471e-06
4.92250759148e-07
1.43745260619e-06
6.21070355436e-07
1.34014468066e-06
7.63614665737e-07
1.22460929881e-06
7.9911042328e-07
1.11937776266e-06
6.90376572864e-07
9.96176120752e-07
6.32606385235e-07
8.74730773936e-07
5.95423056485e-07
7.73816727753e-07
5.87035830175e-07
6.76420245161e-07
6.40138539493e-07
5.71795141904e-07
6.91137623213e-07
4.8149524185e-07
6.51455924894e-07
3.85929514846e-07
6.09577357525e-07
2.88830753467e-07
5.87057919826e-07
1.99687028244e-07
5.62957027879e-07
1.40903921086e-07
5.05540355386e-07
9.36112163955e-08
4.08534438439e-07
5.05844433753e-08
3.51610893528e-07
2.17090300241e-08
3.98783285423e-07
3.97540521075e-07
6.12882518059e-09
-1.11967108543e-07
2.7341266175e-08
-1.42890596569e-07
3.39444055933e-08
-1.67579321848e-07
2.43077338219e-08
-1.40663334312e-07
3.9561058527e-08
-1.08251881694e-07
8.05895274011e-08
-1.58237282605e-07
9.96027094739e-08
-1.83798543986e-07
1.15512854091e-07
-1.90139624978e-07
1.33286012887e-07
-1.94426656402e-07
1.59004640508e-07
-2.01346381655e-07
1.6121969757e-07
-1.70960554865e-07
1.67457333295e-07
-1.44315856492e-07
1.94670097265e-07
-1.59331058112e-07
2.31959309606e-07
-1.8507172464e-07
2.85690832884e-07
-2.31497275863e-07
3.39473262712e-07
-2.66168028786e-07
3.77931918223e-07
-2.73232920298e-07
4.13682086611e-07
-2.81133553631e-07
4.60107391022e-07
-3.06132003504e-07
5.08158310374e-07
-3.28400326374e-07
5.53925475486e-07
-3.39301332802e-07
6.00292021887e-07
-3.44646421063e-07
6.48277049198e-07
-3.47422084868e-07
6.95645652315e-07
-3.46691843202e-07
7.42473937157e-07
-3.45916793612e-07
7.90875616305e-07
-3.47078499966e-07
8.4006393921e-07
-3.5279668161e-07
8.91791061451e-07
-3.57116694547e-07
9.40594226391e-07
-3.55657466367e-07
9.89122266359e-07
-3.52384869483e-07
1.04744652976e-06
-3.66055762289e-07
1.10870333931e-06
-3.76747324254e-07
1.17810101616e-06
-3.95005463463e-07
1.24938094936e-06
-4.17448167571e-07
1.31934402278e-06
-4.29645663482e-07
1.38258715284e-06
-4.25693840947e-07
1.4418984771e-06
-4.16587747003e-07
1.499571301e-06
-4.05512072137e-07
1.55586492135e-06
-3.92075820203e-07
1.6105700179e-06
-3.75586684759e-07
1.66365285581e-06
-3.55985764537e-07
1.71460733832e-06
-3.34511470468e-07
1.76238419485e-06
-3.12873644287e-07
1.80623852632e-06
-2.91825180432e-07
1.84605857446e-06
-2.71040256733e-07
1.88201957797e-06
-2.49873795283e-07
1.91424813643e-06
-2.27799251623e-07
1.94272533155e-06
-2.04429790389e-07
1.96732377069e-06
-1.79481079401e-07
1.98781009019e-06
-1.52761722579e-07
2.00378066392e-06
-1.24130587606e-07
2.01478780251e-06
-9.34528682487e-08
2.02056622373e-06
-6.07484182158e-08
2.02049549425e-06
-2.63182959133e-08
2.01239143645e-06
1.01562183749e-08
1.99226893823e-06
5.11380012064e-08
1.95507154623e-06
1.01133373361e-07
1.89572000732e-06
1.65032715204e-07
1.81140068294e-06
2.46975981876e-07
1.7049989299e-06
3.49259857591e-07
1.59079110746e-06
4.67721077404e-07
1.49025635823e-06
5.91717737111e-07
1.38910545637e-06
7.21126468504e-07
1.28388474144e-06
8.67773806825e-07
1.13542617017e-06
9.46617579547e-07
1.01904228034e-06
8.05980588663e-07
9.25756753195e-07
7.25154551139e-07
8.1659838658e-07
7.038237767e-07
7.01590800916e-07
7.012366774e-07
5.90018660939e-07
7.50848155537e-07
5.0056775866e-07
7.79760138702e-07
4.13541178689e-07
7.37726233988e-07
3.11876686774e-07
7.10488214868e-07
2.17390755203e-07
6.80776317547e-07
1.42905210943e-07
6.36705624401e-07
1.04342883519e-07
5.43448275355e-07
5.55572155319e-08
4.56759452303e-07
1.65416391495e-08
3.90131338555e-07
8.39676301628e-09
4.06230808019e-07
4.05686832562e-07
1.16627200005e-08
-1.24385525888e-07
2.72703757257e-08
-1.59114786933e-07
2.88809855283e-08
-1.69842910421e-07
1.33289336144e-08
-1.25608286341e-07
3.96779602165e-08
-1.35238181675e-07
6.78463152081e-08
-1.87237234848e-07
8.15455169118e-08
-1.98237507194e-07
9.63866358885e-08
-2.05679510365e-07
1.02601003499e-07
-2.0120551114e-07
1.18788323453e-07
-2.18095662709e-07
1.15973340052e-07
-1.68554938773e-07
1.41934641347e-07
-1.70749710412e-07
1.72219726225e-07
-1.90148781016e-07
2.18098860439e-07
-2.31530310426e-07
2.69813627915e-07
-2.83818032036e-07
3.07993387448e-07
-3.04899434903e-07
3.39452734982e-07
-3.05168785218e-07
3.84245380666e-07
-3.26385552885e-07
4.33950111228e-07
-3.56287310848e-07
4.8010334885e-07
-3.74980337754e-07
5.25328949903e-07
-3.84929896361e-07
5.71462879594e-07
-3.9117373175e-07
6.20450719698e-07
-3.96773865903e-07
6.69301879866e-07
-3.95879415605e-07
7.13992843734e-07
-3.90942514599e-07
7.6551456232e-07
-3.98914205491e-07
8.13273944716e-07
-4.00861886846e-07
8.60875281208e-07
-4.05014839609e-07
9.0931278673e-07
-4.04384121389e-07
9.75194238504e-07
-4.18565708416e-07
1.03531698905e-06
-4.26482510658e-07
1.09642930188e-06
-4.38178605283e-07
1.1691990463e-06
-4.68099320214e-07
1.24465520558e-06
-4.93232427293e-07
1.31075957535e-06
-4.9607294258e-07
1.37348843217e-06
-4.88737831923e-07
1.43458187701e-06
-4.77989969833e-07
1.49422545807e-06
-4.6546035137e-07
1.55241283545e-06
-4.50565872681e-07
1.60893312566e-06
-4.32408667207e-07
1.66352466849e-06
-4.10877246382e-07
1.71568222176e-06
-3.86965956452e-07
1.7645935022e-06
-3.62077949495e-07
1.80956302068e-06
-3.37085383998e-07
1.85031430007e-06
-3.120809742e-07
1.88684243758e-06
-2.86692747374e-07
1.91916291001e-06
-2.60411999175e-07
1.94722386602e-06
-2.32786714267e-07
1.9709421984e-06
-2.03499894037e-07
1.99019044798e-06
-1.7232050702e-07
2.00471185532e-06
-1.3898459337e-07
2.0140523825e-06
-1.03156899565e-07
2.01732659336e-06
-6.44415343823e-08
2.01256001898e-06
-2.20336406827e-08
1.99605539004e-06
2.61336255182e-08
1.96298986931e-06
8.35978731432e-08
1.90947152607e-06
1.53970839034e-07
1.83508327514e-06
2.3868676587e-07
1.74303291343e-06
3.3821187897e-07
1.63899830621e-06
4.52414760834e-07
1.53627528119e-06
5.69508597915e-07
1.44450073118e-06
6.82522041582e-07
1.36057241986e-06
8.04067938761e-07
1.29465109941e-06
9.32702844257e-07
1.16809989905e-06
1.07222750685e-06
9.61013794742e-07
1.01227504046e-06
8.28531051921e-07
8.56941371072e-07
7.18729660262e-07
8.12919504397e-07
6.07442346335e-07
8.11788507808e-07
5.15760276182e-07
8.41794738263e-07
4.40431137094e-07
8.54385676295e-07
3.41387316814e-07
8.36081629232e-07
2.35595503776e-07
8.15577035292e-07
1.48497673405e-07
7.67170706336e-07
9.15852879896e-08
6.92954767525e-07
4.92921809383e-08
5.85138133354e-07
6.79290317799e-09
4.98682935591e-07
-2.68674362988e-08
4.23197686976e-07
-1.90218540676e-08
3.97927379363e-07
3.86290954593e-07
1.34217523431e-08
-1.38151279229e-07
2.0870047748e-08
-1.67159591414e-07
1.45818458543e-08
-1.64065160867e-07
1.46284484581e-08
-1.26169804973e-07
4.20234408795e-08
-1.63296037902e-07
5.10468147711e-08
-1.96962165405e-07
6.22333893033e-08
-2.100534317e-07
7.58421449832e-08
-2.1986115593e-07
7.76473120805e-08
-2.03563107359e-07
8.50773689297e-08
-2.26043265854e-07
9.66230666373e-08
-1.80576660028e-07
1.20684007698e-07
-1.95326663028e-07
1.51813830836e-07
-2.21860482456e-07
2.00549512395e-07
-2.80899949162e-07
2.43698880772e-07
-3.27556605286e-07
2.71034381272e-07
-3.32749961035e-07
3.0621351202e-07
-3.40830715558e-07
3.53309660832e-07
-3.7395678786e-07
4.01121860988e-07
-4.04554437896e-07
4.47056821547e-07
-4.21350529264e-07
4.92690747448e-07
-4.30987761525e-07
5.37621874893e-07
-4.36490233533e-07
5.83825227428e-07
-4.43324805375e-07
6.31480014747e-07
-4.43872554409e-07
6.75611274101e-07
-4.35386701817e-07
7.25506379027e-07
-4.49123739375e-07
7.77890618111e-07
-4.53554193748e-07
8.33443796828e-07
-4.60863787744e-07
8.92273489213e-07
-4.635071396e-07
9.5028225265e-07
-4.76881475651e-07
1.01344695628e-06
-4.89970743324e-07
1.09098540752e-06
-5.16050063201e-07
1.16570965559e-06
-5.43160344998e-07
1.23294300815e-06
-5.60795361212e-07
1.29811644542e-06
-5.61565314676e-07
1.36244037776e-06
-5.533733924e-07
1.42584157e-06
-5.41697507245e-07
1.48789898152e-06
-5.27820073345e-07
1.54837333804e-06
-5.11339208728e-07
1.6070381849e-06
-4.91369447065e-07
1.66352328081e-06
-4.67654566415e-07
1.71727013593e-06
-4.41000432174e-07
1.76757910876e-06
-4.12670303412e-07
1.81381147272e-06
-3.83596637049e-07
1.85555413352e-06
-3.54099346399e-07
1.89259108913e-06
-3.2400140591e-07
1.92478822662e-06
-2.92878779312e-07
1.95206297567e-06
-2.60327777527e-07
1.97441099038e-06
-2.26116837566e-07
1.99186445089e-06
-1.90054186787e-07
2.00430065948e-06
-1.51724139421e-07
2.01109421348e-06
-1.1029604177e-07
2.01053646547e-06
-6.42897708305e-08
1.99916947006e-06
-1.10980327397e-08
1.97182092394e-06
5.29840335865e-08
1.92412146599e-06
1.30766763992e-07
1.85656803941e-06
2.20979608802e-07
1.77604465218e-06
3.18559740131e-07
1.68663647328e-06
4.26906504713e-07
1.58280539243e-06
5.55442942522e-07
1.47649946057e-06
6.7494946586e-07
1.38898395782e-06
7.69135475475e-07
1.32427571019e-06
8.67848870458e-07
1.27667266201e-06
9.79369987041e-07
1.23206530172e-06
1.11591072009e-06
1.02661964207e-06
1.21686190348e-06
7.53294363117e-07
1.12950050562e-06
6.31066199618e-07
9.34464039967e-07
5.39900508561e-07
9.02290769369e-07
4.63333131925e-07
9.17715016706e-07
3.78439873925e-07
9.38643703027e-07
2.63867767194e-07
9.50006937467e-07
1.54911768368e-07
9.23866726187e-07
7.89952295346e-08
8.42441682981e-07
2.50673147345e-08
7.46254612402e-07
-2.81693953457e-08
6.3776581842e-07
-6.51154278381e-08
5.35062313276e-07
-8.02291180861e-08
4.37818704026e-07
-5.27808303581e-08
3.69799535547e-07
3.33312203611e-07
1.29106203998e-08
-1.51928949863e-07
1.7167601025e-08
-1.72098248567e-07
4.97968195717e-09
-1.52448332629e-07
1.23725655317e-08
-1.34069961383e-07
3.20670425862e-08
-1.83626036563e-07
3.35420663369e-08
-1.99006536459e-07
4.06639557468e-08
-2.17787705135e-07
4.75276527906e-08
-2.27228050257e-07
5.89125647141e-08
-2.15427558584e-07
5.17527272736e-08
-2.19402003752e-07
7.1183427679e-08
-2.00499331452e-07
9.75509579978e-08
-2.22251234172e-07
1.2842242884e-07
-2.53308869789e-07
1.70258175089e-07
-3.23357300748e-07
2.03184979444e-07
-3.6106547688e-07
2.25546988536e-07
-3.55614483046e-07
2.66456499912e-07
-3.82232198468e-07
3.14900906199e-07
-4.22887292865e-07
3.62041137922e-07
-4.52161176452e-07
4.09035972811e-07
-4.68789030082e-07
4.56172506943e-07
-4.78526656127e-07
5.02362421111e-07
-4.83056761465e-07
5.45315405982e-07
-4.86651134281e-07
5.91675288148e-07
-4.90563093131e-07
6.41785150726e-07
-4.85808822307e-07
6.87477703041e-07
-4.95138418304e-07
7.38397350287e-07
-5.04768435119e-07
7.86987471824e-07
-5.09745846285e-07
8.53756204219e-07
-5.30583937059e-07
9.2196785776e-07
-5.45407625875e-07
9.95114874329e-07
-5.6345194479e-07
1.06924761263e-06
-5.90528141284e-07
1.14768645115e-06
-6.21943144273e-07
1.21746474191e-06
-6.30901525603e-07
1.28365032016e-06
-6.28068162856e-07
1.34982538504e-06
-6.19859156597e-07
1.415763998e-06
-6.07941406001e-07
1.48056687528e-06
-5.92922441529e-07
1.5437091183e-06
-5.74775771633e-07
1.60488275053e-06
-5.52832136986e-07
1.66365988343e-06
-5.26715617746e-07
1.71942689258e-06
-4.97046116114e-07
1.7714939314e-06
-4.65009573918e-07
1.81921632578e-06
-4.31584572825e-07
1.86205058497e-06
-3.97191062143e-07
1.89953981e-06
-3.61741084167e-07
1.93133982362e-06
-3.2491951972e-07
1.95731761249e-06
-2.86542266026e-07
1.97760885972e-06
-2.46645822241e-07
1.99248932366e-06
-2.05186957254e-07
2.00203435544e-06
-1.61553643568e-07
2.00546237035e-06
-1.14061535715e-07
2.00021122049e-06
-5.94167153705e-08
1.98117756699e-06
7.53021405951e-09
1.94179467731e-06
9.19780341371e-08
1.87943335501e-06
1.92717231079e-07
1.80164317447e-06
2.98256317598e-07
1.72370561064e-06
3.96086993009e-07
1.64233414216e-06
5.07703098643e-07
1.52245944039e-06
6.74615153535e-07
1.39205203346e-06
8.04507229448e-07
1.30539943066e-06
8.54885759304e-07
1.25514133201e-06
9.17198331201e-07
1.23121850158e-06
1.00238329376e-06
1.23023626957e-06
1.11597776232e-06
1.17850322481e-06
1.26764091356e-06
8.85581496473e-07
1.42152333908e-06
5.59957253684e-07
1.25935771066e-06
4.73773286761e-07
9.8785221271e-07
4.1430905412e-07
9.76602850489e-07
3.11257768872e-07
1.04112636794e-06
1.77573606309e-07
1.08309724685e-06
6.41992901762e-08
1.03664632286e-06
7.82027518525e-09
8.98214484314e-07
-5.86465999092e-08
8.12121608931e-07
-1.23558169999e-07
7.02103643893e-07
-1.55326452107e-07
5.66218921196e-07
-1.39065709707e-07
4.20975628376e-07
-8.28636085351e-08
3.13257111984e-07
2.50132155105e-07
9.01240165514e-09
-1.61213135529e-07
1.07638488151e-08
-1.74273946601e-07
1.54353234435e-09
-1.43631657946e-07