/*--------------------------------*- C++ -*----------------------------------*\
| =========                 |                                                 |
| \\      /  F ield         | OpenFOAM: The Open Source CFD Toolbox           |
|  \\    /   O peration     | Version:  v1806                                 |
|   \\  /    A nd           | Web:      www.OpenFOAM.com                      |
|    \\/     M anipulation  |                                                 |
\*---------------------------------------------------------------------------*/
FoamFile
{
    version     2.0;
    format      ascii;
    class       volScalarField;
    location    "532";
    object      alpha;
}
// * * * * * * * * * * * * * * * * * * * * * * * * * * * * * * * * * * * * * //

dimensions      [0 0 -1 0 0 0 0];


internalField   nonuniform List<scalar> 
6400
(
0.875868484355
1.38170410062
2.17476776053
2.66685002598
3.13955257442
3.62186892695
4.26598270633
4.99365802639
5.35783825267
5.94997202988
7.15851205064
7.94471680384
8.58942622308
9.33247712685
10.2793708497
11.2686320437
12.1253633372
12.9302673275
13.6080081378
13.9748683231
14.0991313769
14.3305315841
14.886737273
15.7653630748
16.7403602107
17.6044401629
18.2906903948
18.9186836297
19.5973834579
20.3413809434
21.095712009
21.651845769
21.933698603
22.0742513098
22.1074972873
22.0082607904
22.0860955569
22.4316413368
22.4252669722
22.1720224257
22.3211213231
23.0150130435
23.7246365601
24.0885705164
24.1674020875
24.0512701426
23.8095620533
23.4926790514
23.1133780526
22.6917913404
22.1262795692
21.1609627955
19.9131053902
18.4308260766
17.209598033
16.3485285009
15.0380102551
12.8955921533
10.6119931143
8.96906770248
7.24283453821
5.45529416373
3.56425744594
4.54860415873
8.5508210479
13.4964544084
16.503749576
16.2337931964
14.2764845279
12.7034157684
11.8794818521
12.1186401117
12.6881957804
12.5888136604
14.6474018088
14.0940649351
15.969114685
9.8719344388
12.8693651828
4.81128250362
3.13627399928
2.49357825893
3.0938646813
4.33718281246
4.2091598688
4.06441923441
4.25358204107
4.67406110259
5.27975945753
6.05558230037
6.99998957128
7.94132673536
8.76621610484
9.55442937308
10.3547519853
11.2736685324
12.2378401586
13.1645585699
14.1771828299
14.3626699049
14.2774066037
14.4666036778
14.9771834304
15.8337931049
16.9621737017
17.7555327531
18.4052511091
19.0789164438
19.7771966444
20.4885100058
21.2069569184
21.8740272372
22.1522422993
22.2913072947
22.3673474093
22.1531015581
22.2939932103
22.6623455046
22.5875008166
22.1584948053
22.2697173236
23.6984814083
24.8088849831
25.0597681945
25.0659345686
24.8376258314
24.4503071103
24.0312447972
23.4319754604
22.7978173004
22.3260620952
22.0552275792
21.0921147904
18.6561960587
17.5946829051
16.4329166467
14.3451506198
12.264368344
10.296767064
8.36262248077
6.62053843568
5.84801738166
3.97328685629
4.94018500832
8.66593315016
14.5326597319
18.3025861767
17.0539325553
14.9180696466
13.0334416858
12.3759927575
12.8306998752
13.9572519092
13.3997925754
13.2638447385
12.7494247367
11.5579769629
9.72256293405
8.17377308746
4.2590127441
3.20410783643
2.80093275356
3.31213064959
3.56625076379
4.0618799515
4.47942743897
4.45737647788
4.58487082512
5.1875174221
6.03417663037
6.98377560679
7.94488331249
8.81793007286
9.61222953435
10.2676891725
11.095913585
13.7850557918
15.8014430937
16.182222711
15.5202292533
14.0871981795
14.0988111366
15.1158035502
16.0278259538
16.8669767754
17.742136945
18.5152509106
19.1919741328
19.8690004982
20.5812141362
21.2586040138
22.0337183686
22.3179461765
22.179637802
22.6537877321
22.453847225
22.1896095848
22.8063497407
22.764042025
22.3845639739
22.5078057828
23.1974582767
23.8977480005
24.2681592814
24.3718062606
24.2990644707
24.0907388782
23.767779641
23.3328395067
22.8101560081
22.202945059
21.3999328753
20.2743176232
19.1286454939
18.0301788131
16.2636025145
14.2515003881
12.2726960867
10.3503605001
8.5351182307
6.97728649599
5.52404730489
4.55033209552
6.23995750333
11.0224842068
15.5208561389
17.7363694865
17.8762917203
16.3244770825
14.6939560345
14.0478251885
13.9902730824
13.3593142101
12.7877498389
12.7743612079
12.4375534602
11.4586800202
9.83734096768
7.4054466037
7.58555667653
3.17891168148
5.47492988243
3.59996099081
3.69969502112
4.38259239873
11.8454334154
10.2210687573
5.18300031191
5.16757380471
6.03789737187
7.0087498106
7.98750444616
8.83619622077
9.66040117541
11.392439421
13.5170645848
15.1807227268
15.5556512432
14.4142486146
13.5292449769
13.8161448866
14.3537863398
15.0732553696
15.9919604556
16.9578690516
17.8729911654
18.6787744156
19.3294913597
20.035661026
20.6615497583
21.5027424201
22.0202740819
22.6550006459
22.535989611
22.1325025517
22.561794843
22.3967163364
22.248350504
22.4089332234
22.5620775967
22.8386838863
23.3680990576
23.9304516946
24.2959275242
24.4391846797
24.4033512516
24.223529837
23.9217687659
23.5078283686
22.9904477703
22.3565567055
21.5514602521
20.5402756754
19.3863409339
18.0244416119
16.3055464648
14.3526847675
12.3903458629
10.530509784
8.86107970854
7.48662092192
6.49355612033
6.28490059063
7.44596141755
10.4065152176
15.9184526177
19.4370226032
19.6327710646
17.993647578
15.6672421192
14.1001964544
13.3506212424
13.5461730467
14.9558096988
14.8942158039
13.5727744224
13.4263181387
16.7041637596
13.1123834931
11.1349637397
5.6088195755
7.52857910094
4.32130669698
4.63881525172
6.51944665488
11.7355675229
8.14749703943
5.60277555625
5.68729380474
6.2617652344
7.15616573246
8.15102074419
9.56862694875
11.9007834907
12.9207473734
13.2849532726
13.2578700709
12.9986708083
13.0416254002
13.5830766498
13.952568598
14.3933799486
15.1650965837
16.0997662311
17.086905084
18.0387650599
18.8067546652
19.6064221947
20.1556282248
21.0166497786
21.540895195
22.7483375031
22.57585229
22.1240782516
22.2922491674
21.9949231218
22.0576471485
22.2829207567
22.5388324049
22.7884126494
23.1042861154
23.5515030042
24.0244682256
24.3727347986
24.5407335814
24.5366989231
24.3849808458
24.107413882
23.7167868015
23.2155274133
22.5875288384
21.8003836531
20.8325615644
19.6725418948
18.2425208867
16.4939468098
14.5698741133
12.6798844266
10.9673112563
9.54322983611
8.5124346828
7.98723896788
8.18770457222
8.60871786546
10.5779436557
15.4113150191
19.5099171401
20.9355950035
19.7931215034
17.0536638971
14.6075449575
14.3116130495
16.5705256075
17.4397687736
16.4001267702
15.4794427138
18.1200548001
21.1236705936
16.4459224388
15.562722648
9.91099298077
9.06876810451
5.37928865374
5.96612356116
12.0147612367
11.4787227052
6.4681929524
6.18042400311
6.30328947622
6.61075513124
7.41408665641
10.0749947025
13.3235889702
13.748070704
13.3754222041
12.4112598572
11.9939813691
12.3020775132
13.2249425121
13.5643047838
13.8313651723
14.4627631659
15.3150751628
16.2887817425
17.2013801618
18.1670517843
19.2262038464
19.7118632698
20.7519726163
21.0596623377
22.538718146
22.5017037749
23.3224742422
22.4051107851
21.6392456181
21.6823405739
22.02949219
22.3956869529
22.7204802183
23.0204954478
23.3566693665
23.7626738004
24.179267067
24.5078559776
24.6884462802
24.7096001392
24.584586735
24.3341731264
23.9730648264
23.5013099347
22.9019241291
22.1467470908
21.2036694117
20.0281293538
18.5635050752
16.8325954192
14.9998506332
13.2653874181
11.7732283247
10.6347620544
9.92159817751
9.77375120257
10.4417063414
9.57457995763
12.3367714805
17.2840784337
20.7971761738
22.1982523582
21.3058528093
17.9642705197
15.8007114712
17.6093000866
19.813697605
19.2906146222
18.2902017672
18.3600434551
22.9038008566
24.4783806469
19.4851468551
19.2855416755
12.0206401194
8.88139827122
6.5424493
6.13740609832
11.944588886
8.29872828626
6.64967279662
6.75807087629
6.87391297989
7.55942536769
8.02706567921
13.0958227295
13.7570037186
13.7788400832
12.3877903371
11.3273511268
11.5647629515
12.886898574
13.2077306592
13.2546926452
13.8478778474
14.5803285514
15.4346018547
16.406328253
17.5287397925
18.6098234376
19.2503009007
20.6308204481
20.8164307335
22.4324104086
22.2391700082
23.296892762
22.712770872
22.1498253373
21.4297890591
21.6101442131
22.0998445833
22.5527639464
22.9208572264
23.2549455777
23.6095500891
23.9983959709
24.3829261999
24.6959548779
24.8834253338
24.9244848522
24.8259171962
24.6079422157
24.2859379142
23.857831175
23.3033616581
22.5890290904
21.6703485504
20.4973623551
19.0490293792
17.4009048954
15.7302849563
14.2154602501
12.9573964949
11.9982773844
11.4295284756
11.295306765
11.1260233678
11.1480872399
13.765965214
19.868550819
22.1854945002
22.5392296629
21.5037176318
19.2612096171
19.0174488124
21.5733137056
22.0112386727
21.1736933252
20.5833955223
22.5384688055
25.2639276422
26.7103049534
22.1340987972
20.9967425882
11.7144225496
8.48667726919
7.66778101528
12.0819734737
12.0251549015
7.25077922454
7.28468109956
7.41954554686
7.52738694614
8.08441967319
12.8648758982
13.793868333
13.8545284659
13.3428032425
11.1682300563
10.8831613971
12.457253183
13.0439903435
12.8226593805
13.1283925223
13.8956129994
14.7705496574
15.6505133856
16.6823146522
17.6301632193
18.9953575468
19.3579467092
20.6431537871
22.1832059284
22.5635122249
21.9098777975
22.7308048959
22.8166715983
21.5208888667
21.4027116155
21.7516521503
22.2433579091
22.7227401503
23.1304914596
23.4977715598
23.8717485789
24.2595736281
24.6296048761
24.9328824771
25.1249280163
25.1834862331
25.1134012772
24.9349991809
24.6631123392
24.2926186362
23.7981056098
23.1381226825
22.2614133625
21.129592081
19.7621250082
18.2708941912
16.8197222302
15.5163213066
14.3669416689
13.4048752656
12.8012494051
12.5859895238
12.5980926638
12.9552590253
13.0656910255
19.9275884227
23.9511798785
23.9786596988
23.410300386
22.4833306588
23.3194224796
24.6743691843
23.9908428132
23.3073308705
23.5129203128
25.8180472958
26.4699609571
27.0328323824
24.1538550089
22.0176744921
10.9598549804
8.36705856191
8.32763844274
13.0464639584
10.9503516962
7.8272906196
7.97207439944
8.2349809888
9.47736603042
8.17220080327
13.6387602948
14.3013371994
13.8851913543
12.0622416317
10.758152426
11.0226373937
12.547325525
12.7425877686
12.7033102978
13.1574426018
13.900717614
14.8634587187
15.8527438293
17.3119244792
18.5461928567
18.9503575806
20.9032197209
20.5152639191
22.4064419417
21.9176204751
23.1812605395
22.0055355367
21.57298161
21.4212126152
21.5710280257
21.9488864986
22.4213295663
22.9067955177
23.3497409075
23.7545656045
24.1518380917
24.5472134401
24.9150391769
25.2155753378
25.4124232742
25.4886567201
25.4515744735
25.3213536782
25.1109806045
24.8123555951
24.394964595
23.8108111132
23.0092921626
21.973724111
20.7604675285
19.4920427747
18.2698017568
17.0697776867
15.8232349442
14.7290085405
14.1853191897
14.2793127909
14.620991284
14.8362944211
14.6851268796
16.4932892262
24.0792518975
25.7787563492
25.7968539422
26.4454487667
27.4945387023
27.1329843982
26.1137762194
25.9094082996
26.886445608
28.0505765298
27.8688003249
27.2329677071
26.2035538322
24.8283856267
10.3814212183
8.76963894814
9.48493987246
13.1018573764
8.90781609811
8.84018078389
8.66544240081
8.92554558438
12.0932536908
10.790703103
14.4726108544
14.5594389885
13.9402193045
11.32980582
10.7749142965
12.3964672478
12.7888058565
12.4860618455
12.6707459971
13.3195841142
14.0356524655
14.9431566873
15.7922970067
17.480637231
19.6377536641
18.8889419629
20.8527060958
22.0933098689
22.6578470875
23.2003844975
22.3491617032
22.3049149404
21.2546991219
21.3268090521
21.7368584547
22.1664393449
22.6251891491
23.1075664269
23.5778812637
24.0239832977
24.4535044628
24.8647715665
25.2379178121
25.5416989239
25.7468357894
25.8429994179
25.8439223911
25.7712444807
25.634608394
25.422873308
25.1028999875
24.6243935443
23.9444705496
23.0725426356
22.0892162622
21.0841642458
20.0157152597
18.6901663322
17.1995281201
16.1598910933
16.0553732367
16.6617669235
17.2093542498
17.352894835
17.064106536
15.7915318131
15.9440978826
27.4771096747
30.3316731284
31.3159634602
31.1367261087
29.6778070965
28.7364828621
29.0046651411
30.1321478572
30.4284459569
30.1373844697
29.8065908311
30.1262143378
30.3010321146
10.3111266964
9.58023789159
12.9337220621
13.2323616043
8.96363971547
9.58551066453
9.35178490751
9.86125179327
11.5549817857
14.3200207873
15.2807918515
14.8089418281
14.1567165668
11.3052343264
10.9234620967
12.9267693957
12.8807481693
12.4540585033
12.699093137
13.461789512
14.4144394631
15.3050731861
15.9836826599
17.1080457797
19.8127685926
20.9877270349
20.4392442957
22.230208667
21.4352188716
23.2361461973
23.4922149665
22.2413856082
21.2139065843
21.4385213809
21.9346176015
22.3952882865
22.8532316751
23.3324777144
23.818186901
24.3036709803
24.7757762425
25.2132318776
25.5986559709
25.9107133531
26.1283887975
26.2496492115
26.2951230859
26.2880491941
26.2359124702
26.1262966208
25.9267616953
25.5906174324
25.090106558
24.4600066081
23.7753986436
23.0093099909
21.8673291863
20.2083133033
18.7725831313
18.2776315064
18.9591139094
20.1097366253
20.7855285909
20.8348201168
20.2033295027
18.6606247266
16.3443422079
17.4076888509
31.7138531765
36.9472665186
35.5537866257
33.0609591015
32.1828073036
32.6398566632
33.3933725128
33.6774160543
33.9162434197
34.3717067911
34.9530428909
35.6106195515
10.621544514
10.4287552354
14.5626725592
13.9034525775
11.955770236
10.7924749654
10.2587123274
11.3273661614
10.981899149
15.2780803443
15.9089468592
15.1296870325
14.2102934019
11.8932314707
11.6862002461
13.3977327292
12.8910847203
12.5305771592
12.8189664316
13.5090918067
14.570595538
15.7663870317
17.4834915847
17.2538796438
19.3053737865
21.3742862616
20.3105122175
22.5091253177
23.2742066166
22.3554412682
22.5153415144
21.5134267184
21.5133879156
21.7712182561
22.1897509821
22.6492401024
23.1117307306
23.5916206155
24.0790787277
24.5884873889
25.1110766619
25.5941875856
26.0003855459
26.3230556166
26.5580389963
26.7116294105
26.8088914518
26.8738310641
26.91372723
26.9184879578
26.8610091613
26.7086340208
26.4585552462
26.1540319317
25.793399249
25.0853261806
23.5760599327
21.8855952115
21.1632982294
21.6442974035
23.3093524905
24.8869638168
25.6429876655
25.730220589
24.9676524508
23.1143870176
20.0993731141
16.1345331895
26.752472256
37.6190423795
40.5101782458
37.6335174438
36.7960369669
37.170850631
37.7431415554
38.0489981814
38.8960529436
39.5980536551
39.5449952791
39.7503184784
11.1950688691
11.0631837364
14.2847602169
14.3646930569
14.3654337163
11.8998924861
11.2983316679
14.2167373794
11.3158870579
16.1341268954
16.3872883848
15.4614447608
14.267520703
12.4806338446
14.3650152359
14.4605142526
13.062449536
12.7429675431
13.0715423525
13.6578060445
14.535747978
15.7537302916
18.8047338076
19.746341748
18.77111538
21.4536765196
22.3557689064
22.0669989817
23.2464351525
23.5415845972
22.8911593384
21.5396475393
21.7199122738
22.1070295974
22.5001913364
22.935176697
23.3867264177
23.8823657965
24.3912542708
24.9036678185
25.4529046233
25.9909097527
26.4405290873
26.7829425754
27.0384410056
27.2314047019
27.3881333729
27.5289021654
27.6619079714
27.7842691353
27.8841470679
27.9603646143
28.0406645627
28.1282585126
28.004832707
27.0128275551
25.2579081894
24.6681734526
25.6751423991
27.4960076125
30.040821914
31.6935208657
31.9311231284
31.768712665
30.1877046826
27.6219596993
24.3191422426
18.0577856569
19.2909705583
33.0414420894
40.1924267732
41.3237383376
39.8799944064
40.942931129
41.9813997133
43.3320560432
44.5470334535
45.0674176535
45.0541342917
45.2437272152
11.8283981978
11.744926507
11.4026816731
14.6732060975
14.8767124467
12.6396154153
12.237098135
15.1800199151
11.9418757679
17.0124352771
16.8153482939
15.8068435484
14.4384188739
12.7748356146
15.5297908855
15.001036967
13.4715389915
13.1277510928
13.4193616465
13.9763061754
14.6264034548
15.6537107163
19.335838489
20.8172237176
19.1144865982
21.5116277749
22.8874923002
21.5084817711
22.8811997145
23.0668653493
21.7776122995
21.896030762
22.1736766207
22.4930016646
22.8422146913
23.2756555212
23.7193114214
24.1811513456
24.7151594632
25.270337342
25.8358526766
26.4056316311
26.9040561347
27.2846725661
27.572418279
27.8130195988
28.0347093251
28.2482951223
28.4661542351
28.6973112175
28.9529336667
29.3005195639
29.7924403695
30.2977077069
30.1127900473
28.5694845179
27.6701961833
26.5760145895
25.27086784
25.195650343
24.9115973501
21.6376491371
14.4255036553
9.11150736178
1.40352049764
0.395343407116
4.65348936563
15.7727749402
21.867168768
21.9878875108
44.3575696351
48.5992184997
47.9944944591
43.5650629037
40.7394031091
44.1985120106
49.2720985363
50.4587903405
51.8388753632
52.3610986097
12.6409455732
12.7281427788
15.303168393
15.2938443107
15.3002945532
13.2671988838
13.2643850685
15.9986659628
12.9352494368
17.767876624
17.2207239178
16.1735712155
14.6890863629
13.1530238351
15.7976043928
15.1652078268
13.8802260235
13.5682556418
13.7978811008
14.2902718366
14.8833367314
15.6899055752
18.7146961072
21.6339116352
21.7616774146
20.8565622274
23.1067966638
23.8496897067
21.6362436343
21.439372991
21.7129217125
22.1337396923
22.5265347699
22.8774419823
23.2442613702
23.639859403
24.0811807119
24.5575856376
25.0631348567
25.6489988873
26.2629740105
26.8624506505
27.3948221674
27.8175626521
28.1555958465
28.4563674145
28.7468509279
29.0330298125
29.3138720261
29.6062575424
29.9968281331
30.6470467572
31.6033543363
32.4029238549
31.703815982
28.8576428698
21.2884424964
0.0587846412643
6.46570094158e-05
1.21208778705e-06
2.05457186171e-08
5.94438616046e-11
1.6892647882e-13
2.92408537502e-18
2.2872282559e-18
5.55286424792e-18
3.74306952997e-17
1.75323287002e-16
6.47645097343e-16
4.11568338275e-15
3.22248821416e-15
2.79568372921e-13
1.59121117188e-10
1.59950676388e-08
1.21375543614e-06
0.000279498547714
4.70484007493
54.0993043782
58.0046718521
59.7282989978
13.4017443355
13.5913942248
16.9073847636
15.9325922353
15.3712679949
13.904834725
14.2641409174
16.6798474861
16.6536970057
18.7019528394
17.6827510632
16.6297413123
15.0194839376
13.6778374756
16.0817119873
15.2723646145
14.2781842162
14.0184600694
14.1790186192
14.5926470479
15.1580316111
15.9458379618
18.1745239686
21.8980690411
23.1466059057
20.5363481828
22.6465913442
23.8982846474
23.5428046745
21.9181267042
21.8167405661
22.3640771687
22.890773524
23.3160450005
23.6297363202
24.0326894521
24.4618370338
24.9533620349
25.4734424938
26.0607249751
26.7172720356
27.3655769128
27.9223505516
28.3678328283
28.7651433126
29.1785316444
29.5777399068
29.9062509711
30.1433143404
30.4341460895
30.9607733752
31.8745543777
33.2503130433
34.1565635513
28.1987455443
0.0870006500173
3.2507358286e-08
1.31639113507e-10
3.80679006766e-12
5.54198852326e-14
4.50274856179e-17
7.51326748071e-20
5.296136728e-21
0
0
0
0
0
0
0
0
7.36602301147e-25
2.48440706758e-22
3.71614342521e-20
2.15598740911e-17
3.01138529482e-14
1.63074210231e-09
2.47647874505e-05
29.2475555659
62.0778869004
14.0225299796
14.234397107
19.0751620405
16.4200811383
15.1840351003
14.4727224539
14.9783636157
16.6969014617
18.2417330279
19.7803161713
18.30062907
17.2179097736
15.5980768922
14.5003236353
16.5729891425
15.5357796372
14.7582916955
14.5204941073
14.6002550426
14.9314836174
15.4284516335
16.1599391058
17.9546384598
21.7747393355
24.1431027027
23.3179305851
22.1155723147
23.2644698868
23.2519312859
21.8483173922
22.2774685825
22.8596304986
23.4368331039
23.8093960015
24.138911952
24.4597959856
24.9022383347
25.3767925984
25.9201274397
26.5235912483
27.1944784447
27.892926281
28.5249735679
28.9946873037
29.4381131243
29.9688856133
30.488865086
30.8215853711
30.9691946489
31.2204259594
31.8129572934
32.7911456946
34.2297748217
28.6203468914
0.000215267331248
4.70632029509e-11
1.54346813966e-14
6.24114769762e-16
8.50961700648e-18
2.33356825001e-20
0
0
0
0
0
0
0
0
0
0
0
0
0
9.49111980891e-24
9.43149162564e-23
2.06758731537e-21
1.00254449856e-19
5.56735964747e-16
4.63406755963e-07
8.93291322069e-12
14.5069210356
14.7074351527
21.1489973708
16.7903952339
15.2658617452
15.004109696
15.7816000452
15.9990720202
19.1938848244
20.5512057772
18.9032543732
17.8225864029
16.3804892153
16.4181976326
17.2599931815
16.0430151649
15.4364756631
15.2225730625
15.1301355878
15.3580748116
15.7521451494
16.4085851227
17.930921208
21.6422711051
24.5590311013
24.9772282806
21.8076707188
22.1115549438
21.8921602607
21.9734949429
22.5830234568
23.3701070916
23.9444643874
24.3415680379
24.6854060714
25.0922162505
25.4067695999
25.8690801291
26.4074539528
27.0072592258
27.7438509368
28.5041045715
29.1753037926
29.6060358831
30.0507525199
31.2670147331
32.9476887391
33.4579856088
32.4427062472
32.3683002966
32.8503770213
33.7807090801
27.1473935129
2.49050052599e-05
3.75351053542e-10
1.68388384198e-21
1.70158548266e-18
2.7765185802e-20
0
0
0
0
0
0
0
0
0
0
0
0
0
0
0
0
0
0
1.4663482544e-22
9.92986818262e-22
1.83115002047e-19
93.9803173363
14.9371231287
15.1038488867
20.9634523528
16.1726500801
15.4456116448
15.464198303
16.6961489693
15.9619052501
19.9957548135
21.2739989558
19.4817538299
18.3879066578
16.9847369011
18.6793629946
18.2263380353
16.7559862075
16.2195491634
16.3009436573
15.8839231432
15.9547113146
16.175886129
16.6951024725
18.0514882907
21.4956924334
24.431385132
26.0901582271
24.6372616087
23.5551709058
22.9725871269
22.254119179
22.9002223138
24.0431077081
24.3883936932
24.8713698424
25.5058449511
25.6958730921
26.0098946804
26.4709926337
27.0194196311
27.6156470669
28.2867304264
29.0937359762
29.9031193873
30.7778955936
31.8735736002
33.4797041662
34.7385196385
34.5931046401
34.3937536076
34.8616058959
35.7461847761
31.5067164984
0.000113258246196
1.03382161881e-09
1.35877498401e-13
1.84547686726e-15
0
0
0
0
0
0
0
0
0
0
0
0
0
0
0
0
0
0
0
0
0
0
4.5119299401e-22
3.28402454915e-11
15.4428366209
15.5878758392
20.5780863804
15.8074769384
15.7313981087
15.8389948996
17.4798653926
16.4115002319
20.6857049659
21.9844236889
20.0616016106
18.9625596528
17.4965227899
19.4164165743
19.1225492203
17.5441104916
16.9907936394
17.1875406546
16.7896792929
16.7749981003
16.8047895931
17.0248738997
18.3336035959
21.4780184864
24.1583421536
26.4318685569
25.8558232142
24.0417897716
22.2885705038
22.7815486831
23.4550968366
24.5563841449
25.3100171142
25.9060535183
26.3558609628
26.402079352
26.695300254
27.1712018791
27.7277607215
28.3502863682
29.020209854
29.9016899787
31.067350371
32.6356850603
33.667372109
33.9464164385
34.543050137
34.9693827552
36.7147610711
38.8306563694
37.9003061818
0.00103200287192
1.3703027953e-09
2.36301691533e-13
4.84666938257e-16
1.17347188837e-17
3.938946807e-20
0
0
0
0
0
0
0
0
0
0
0
0
0
0
0
0
0
0
0
0
0
7.58245001352e-23
1.00322739331e-22
16.1980589305
16.3438894729
20.2184783022
16.0775216426
16.2933248084
16.3170066654
17.4557991908
17.1405905917
21.1744015632
22.6599700916
20.6798007131
19.5919063856
18.1357171032
20.0937136471
19.9365913014
18.432655865
17.8289437007
18.0557104072
17.6717882931
17.7436613231
17.7173162538
17.5181521389
18.8115648769
21.6467356041
24.0342974558
26.5345298885
26.4001509456
24.7252538244
22.7581368913
23.0141689447
24.1236324704
24.6853872135
25.295056881
26.1178765671
27.3093713479
27.453004651
27.6564407864
27.9749645887
28.488223123
29.1898518216
29.9727246048
30.9858502788
32.9556347062
34.7439128173
34.8531175879
34.9178550676
35.9747959227
39.1714907414
43.3409144346
42.2256419197
0.000294846434559
4.89791695851e-11
2.02687257345e-15
6.6454499744e-19
4.16966347284e-21
8.45156994881e-21
1.29784577227e-21
0
0
0
0
0
0
0
0
0
0
0
0
0
0
0
0
0
0
0
0
0
5.60441133597e-24
2.54479850846e-23
17.3403726089
17.4431259313
20.4804714255
17.0213282604
17.4706382398
17.1733371098
17.7393494113
18.4868777572
21.1887808415
23.1605229903
21.3661172585
20.2975872475
18.8872831472
20.8645538371
20.7804275032
19.4904825286
18.8608087252
19.0780465834
18.5616683481
18.8140216208
18.9551627035
18.2493854958
19.3534170032
22.0012902194
24.0989943025
26.3934017632
26.6471977959
25.3443958608
24.8630140391
23.9043043773
24.5631790287
25.5864807672
26.8194348899
26.7170003858
27.5130335986
28.522728583
28.7203337171
29.127771939
29.5240000436
30.1177011422
31.0466041963
32.9950188198
35.7695839205
36.6052626016
36.2507712544
37.3260332505
41.8627978342
48.752392974
48.3704537672
1.06056765828e-05
7.42060858099e-13
6.92814992862e-18
4.74046856889e-20
0
0
0
0
0
0
0
0
0
0
0
0
0
0
0
0
0
0
0
0
0
0
0
0
0
0
0
18.941285525
18.8011229025
21.2737999997
18.9429855493
19.4626588135
18.4472409935
18.6762260383
20.4433250869
21.3842595424
23.7725325089
22.1757070943
21.0905562676
19.7277645802
21.6734545959
21.6198532616
20.6595460191
20.3887140335
20.4209146391
19.5439530451
19.9866997426
20.5047563957
19.3108731872
19.7720797595
22.439682914
24.3587957073
26.2624537592
26.8347348207
25.488120761
26.0649044337
25.5293953051
25.6789424671
25.2642511348
26.47306843
28.0285970602
28.4935347386
29.2337637847
29.7878166598
30.2148720946
30.7801409968
31.3947179708
32.8800557611
36.1979422012
38.4982473939
38.750057547
39.3536433484
43.2248951877
51.155430379
51.0157738321
1.50439221097e-07
6.62227965701e-15
1.15771425811e-17
5.3010259755e-20
0
0
0
0
0
0
0
0
0
0
0
0
0
0
0
0
0
0
0
0
0
0
0
0
0
0
0
0
20.6425789601
20.081187377
22.1442234106
21.5025431477
21.1997516422
19.934810349
19.7184527512
21.5960228166
20.5735765796
24.2479739039
23.091154808
21.9633838261
20.6486125612
22.4977347788
22.401314561
21.6363972802
22.5294544369
22.0458797695
20.6552868162
21.2931138303
21.875835635
20.6857842276
19.9172920092
22.4394579965
24.5490628759
26.1710024109
26.9124560543
25.5829540772
26.4552165742
26.841903183
27.0398172227
26.058646384
26.7740388464
27.9305427664
29.4538153372
30.4887156742
31.09483191
31.4816344665
32.0184471318
33.1477937478
36.2207505357
39.7774105535
41.460591941
42.2819146328
44.8827448694
50.838093403
48.1438011927
7.75805880706
1.78310616269e-14
2.58142237188e-17
9.04063914611e-20
0
0
0
0
0
0
0
0
0
0
0
0
0
0
0
0
0
0
0
0
0
0
0
0
0
0
0
0
0
21.4945494531
20.9915989792
22.7095443067
22.573408324
22.2899030787
21.3533701609
20.9364717378
23.0018789953
21.6334907165
24.8590024576
24.0178477115
22.8843019073
21.6449629064
23.3561549829
23.1998774981
22.4610117433
23.5144525768
23.1693686611
21.7489276977
22.5929018942
22.6323592786
21.51462306
20.9883061231
21.206062791
24.0745456911
25.7023574568
26.7251414586
25.5824713656
26.5475432834
27.4051755327
28.1548602384
27.9495578141
27.097417573
28.0074923236
29.7198729576
31.3970275677
32.5204926267
33.1834755699
33.7367286015
36.2714187541
40.3324854777
43.3968430888
44.8054575985
46.4918843809
50.4725984768
44.3035839461
16.1196261375
9.41989054655e-14
8.48544016466e-17
2.41669728882e-19
0
0
0
0
0
0
0
0
0
0
0
0
0
0
0
0
0
0
0
0
0
0
0
0
0
0
0
0
0
0
21.616216401
21.5847172381
23.0747534221
22.8221519509
23.0018946252
22.4681545654
22.0087618009
24.3862033336
23.3559137387
25.6522096024
25.0066688306
23.8403230629
22.7118917753
24.2638486838
24.0726468931
23.4231459053
24.3389352013
24.1569541668
22.9049004276
23.6432239814
22.4173695068
22.2932232639
22.0596093652
22.3362345618
23.1850439661
24.1723143489
25.92493767
25.4319467649
26.1295009821
27.4693436819
28.6457962818
29.3450334259
28.6802978949
28.832680478
29.9301000393
31.5735350192
33.4350627187
34.9641061679
36.4287528539
40.2807926404
44.3083792541
46.7483498633
47.7093447356
49.1422920858
43.1146630633
20.6160900692
6.38898596597e-13
2.94746491615e-16
6.60259713501e-19
0
0
0
0
0
0
0
0
0
0
0
0
0
0
0
0
0
0
0
0
0
0
0
0
0
0
0
0
0
0
0
21.9118889365
22.023906456
23.407640317
21.9685814296
23.3314757822
23.1047515472
22.7487863565
25.0334901547
24.2453678427
26.4743619308
26.0406352682
24.8040284689
23.8570392916
25.208220507
24.9921774337
24.5222552905
25.250085415
25.2548630972
24.1827118707
25.0735386775
23.7921628936
23.9679313733
23.3401718733
23.6452322193
25.0338239289
25.6567649887
25.6027843958
25.2185231764
25.6925195302
27.4559476205
28.6954345378
29.6396503474
30.1024235836
29.9740969439
31.3620019605
32.3662346075
34.2030469468
36.650774522
39.8120221206
44.3975495968
47.9117708647
49.3832617306
48.2353717695
43.4685995911
36.0195923913
16.6569607477
2.47329507144e-15
5.63057725533e-18
0
0
0
0
0
0
0
0
0
0
0
0
0
0
0
0
0
0
0
0
0
0
0
0
0
0
0
0
0
0
0
0
22.6679041498
22.7447671344
23.7647987509
22.4293266921
23.6285059861
23.4797558919
23.288455187
25.2806590528
24.8849383335
27.0986119966
27.0597580805
25.7174558193
25.0677597714
26.1456577568
25.8796668208
25.5915452506
26.1306396069
26.439499707
25.5064284878
26.5116975644
25.5893763469
26.0650874211
25.8128860089
24.6386091945
25.7869144141
26.7754747932
26.8910886506
25.1138239534
25.1910991669
27.40466639
28.8903454106
29.3310751181
29.9461976955
30.3700540946
31.7443636373
33.0471175232
35.1062427981
38.3956880781
43.3752520355
48.5143421941
51.2071400266
50.8702777098
46.8450648135
38.7436612459
22.4617486937
2.81215443642e-14
3.92360758518e-17
1.59103159903e-19
0
0
0
0
0
0
0
0
0
0
0
0
0
0
0
0
0
0
0
0
0
0
0
0
0
0
0
0
0
0
0
0
23.6155434557
24.6416188324
24.2776077881
23.4493715856
24.2119372807
23.9169243236
23.8126956497
25.5022356939
25.4729372077
27.3817404925
28.0515413513
26.5425778673
26.1482998001
26.9237881216
26.7260093583
26.4124345023
26.4629451109
27.5230641476
26.8981848407
27.7725052249
27.5677878943
27.4210462216
27.2551404589
26.8610811162
26.1483708279
26.9318854743
27.8853197399
24.6823242779
24.7630082925
26.7751991931
28.9862562288
29.9573525399
30.7649132182
30.4766092334
31.685803129
33.3732271217
35.6814938836
40.0291253098
46.8820099053
52.3904548768
53.842659554
48.8137532968
45.310516082
40.1165061775
19.3427310875
2.65945681298e-16
6.78757345678e-19
0
0
0
0
0
0
0
0
0
0
0
0
0
0
0
0
0
0
0
0
0
0
0
0
0
0
0
0
0
0
0
0
0
24.348303068
25.408807954
25.0324192181
24.3783917986
24.9573026511
24.5328587025
24.4065731525
25.8068763388
26.0458545786
27.4064311103
28.9407183267
27.339524399
26.8224317108
27.5763965326
27.643732546
27.1643405318
26.7415246646
28.3055127753
28.3270865805
28.8774413839
28.9300378663
29.0660733449
27.856781669
27.8372418605
27.3780245317
28.5910272204
29.2685060748
26.566822497
24.4332583418
25.8574678885
28.3840888169
30.2139096067
31.0733787665
31.1358014352
31.4561989729
33.2973005149
35.7365130792
41.316546422
50.1910030396
56.2645459277
54.5740713251
47.7572802321
40.0985129164