/*--------------------------------*- C++ -*----------------------------------*\
| =========                 |                                                 |
| \\      /  F ield         | OpenFOAM: The Open Source CFD Toolbox           |
|  \\    /   O peration     | Version:  v1806                                 |
|   \\  /    A nd           | Web:      www.OpenFOAM.com                      |
|    \\/     M anipulation  |                                                 |
\*---------------------------------------------------------------------------*/
FoamFile
{
    version     2.0;
    format      ascii;
    class       volScalarField;
    location    "559";
    object      alpha;
}
// * * * * * * * * * * * * * * * * * * * * * * * * * * * * * * * * * * * * * //

dimensions      [0 0 -1 0 0 0 0];


internalField   nonuniform List<scalar> 
6400
(
0.879639548742
1.39288845229
2.1965376381
2.70520336569
3.19300732317
3.68816812026
4.34013802655
5.07487970063
5.45918313066
6.0739037784
7.29384023251
8.1041100948
8.77273783173
9.53725859796
10.5020134754
11.5111369782
12.3932604949
13.221936704
13.9193063801
14.3058103701
14.4556063924
14.7191522809
15.31098816
16.22423523
17.2336444127
18.1324005642
18.8547842132
19.5183281116
20.2301079259
21.0048873963
21.7876358242
22.3739739009
22.6874775706
22.8579363571
22.9213456127
22.8583223693
22.9709473011
23.3401915308
23.3673579657
23.1547082739
23.337613092
24.0549575611
24.784799255
25.166222058
25.2565552375
25.1472017153
24.9068898492
24.5845636558
24.1931347673
23.7528800586
23.1665813437
22.1879776662
20.91078469
19.3902583287
18.1108375037
17.1577027236
15.7541397701
13.5435361826
11.199284444
9.45465749947
7.64230182042
5.75984066613
3.81543024602
4.62121389615
8.54045676479
13.4558004158
16.4456187891
16.1628484092
14.1968868478
12.6237712778
11.8052121806
12.0564176267
12.6397604041
12.5493247128
14.6246580395
14.0766325764
15.9615316412
9.86384721881
12.8678239402
4.81018776051
3.14124020954
2.5030602548
3.10943251846
4.3578334145
4.24866948153
4.12558752811
4.33038086216
4.76449862652
5.38638130452
6.18086864826
7.14454042642
8.10532357399
8.94971643314
9.75705466023
10.5779047217
11.5187742423
12.5065043425
13.453737586
14.4721375674
14.6802726897
14.6262186967
14.8516518128
15.4029761681
16.296548005
17.4520652836
18.2836215258
18.971124599
19.6784138719
20.408661917
21.1513295304
21.8998561224
22.5916251932
22.9009877231
23.068814889
23.172384589
23.0014607417
23.1729724637
23.56552332
23.5295502324
23.1511142614
23.2982444351
24.6989988364
25.80362197
26.0765609515
26.0973772463
25.8843665
25.5102913626
25.0943506402
24.4980177025
23.8571329158
23.3581454003
23.0296731466
22.0158922306
19.6151554873
18.484801747
17.2519173969
15.1249976339
12.9769080623
10.929192488
8.91374884196
7.08998900571
6.13754913232
4.22335631289
5.03538118118
8.67001619197
14.5003840961
18.2533632222
16.98615835
14.8410636735
12.9530775937
12.3024612409
12.769781177
13.9122548979
13.3611046296
13.2345976217
12.7280668854
11.5437592465
9.71317840241
8.16908807571
4.25391699038
3.21878437687
2.82079226628
3.33422403008
3.60286967047
4.11793753668
4.54655419696
4.53137954994
4.67257049226
5.29257061026
6.15882288519
7.12867256896
8.10922521381
9.00111952769
9.8137779672
10.4896406754
11.3390486157
14.0001358791
16.0111883909
16.4123018814
15.7898745741
14.4347299979
14.495475531
15.5370044467
16.484978873
17.3629642869
18.2721502892
19.0783896841
19.7885452179
20.497706456
21.2399738395
21.9492693073
22.7444094482
23.0571571958
22.9599821439
23.4395930113
23.2833877344
23.0735204636
23.6983763247
23.6991483933
23.3742101673
23.534170311
24.2437293797
24.9610094667
25.3478120491
25.4630710701
25.3968371827
25.1901949075
24.8639467176
24.4208247454
23.8845282277
23.2576449563
22.4283019801
21.2690977231
20.0708349995
18.9049932757
17.0972010741
15.0302218745
12.976755214
10.9698302563
9.06447630642
7.40626632855
5.85152865546
4.81303237883
6.37086587765
11.0477767565
15.498116184
17.6852539116
17.8112556013
16.2530990466
14.6222853231
13.9823117039
13.9331875127
13.3076861814
12.74300566
12.7400939766
12.4136088683
11.4429949696
9.82569788975
7.3938053712
7.57692257353
3.21043521653
5.49033915788
3.63726653837
3.7478927641
4.43737119845
11.860624845
10.2432253269
5.25583686325
5.26952035999
6.16058286578
7.15332561522
8.15227276229
9.01974272704
9.85800493386
11.5766762841
13.689295731
15.3585814781
15.7623586483
14.68326049
13.8640258261
14.180510985
14.7478980185
15.5017845784
16.4539492422
17.4524420558
18.3996093257
19.2371226574
19.922671441
20.6582730295
21.3185525605
22.1814611009
22.7331710536
23.3776880046
23.2924015526
22.9422931598
23.383844546
23.2714874592
23.1783330799
23.3735473487
23.5567029255
23.8612709877
24.4139313347
24.9960779888
25.3780557713
25.532843983
25.5034728538
25.3252714717
25.0201949634
24.5978774049
24.0666384364
23.4125578532
22.5793066751
21.5304504105
20.3284926959
18.9129630241
17.1380312409
15.1199706567
13.078301063
11.126849029
9.35658404775
7.87691352529
6.79341045226
6.54133599726
7.63591411286
10.4711435701
15.9033892894
19.3924580381
19.5726033152
17.9257139139
15.5940508816
14.0275995601
13.2836546993
13.4891819946
14.9140146022
14.8619338836
13.5479875962
13.409686797
16.6952390275
13.1004261225
11.1205084769
5.64035241429
7.55042050722
4.37961462516
4.69734890438
6.55520262868
11.7520317789
8.19278761804
5.69522503953
5.79116991995
6.38391132894
7.29976340914
8.31397739464
9.73255517616
12.0422437102
13.0697145263
13.4564315203
13.47009392
13.2663191777
13.354582041
13.9164920452
14.3154156451
14.7913749066
15.5945307008
16.5605933898
17.5786151862
18.5606164928
19.362850606
20.1896206501
20.7766361014
21.6569445239
22.2214288878
23.4263445337
23.3026946198
22.899054926
23.0859985222
22.8493456731
22.9563736972
23.218689507
23.5063763296
23.7845111138
24.1274779312
24.5991524513
25.0931115872
25.4581854162
25.6379214659
25.6405529283
25.4905647317
25.209676362
24.8103849083
24.2945888621
23.645255277
22.8285086646
21.8216612064
20.6134543978
19.1284892941
17.3185024176
15.3219465213
13.3449852574
11.5326961809
10.0034498821
8.87686587774
8.28710098938
8.45866484653
8.83856006049
10.6822100215
15.4119668642
19.4687984542
20.877155971
19.726871631
16.9810026624
14.5301714081
14.2395142142
16.515472984
17.3949611249
16.3631526122
15.449997236
18.1014130583
21.1110871087
16.4284416941
15.5447563195
9.93867584046
9.10074538024
5.45372842119
6.02514040549
12.0331990826
11.5024868224
6.55278113198
6.28214307425
6.41263022809
6.73441474382
7.55343289011
10.1932485621
13.4198058286
13.8591101048
13.5108376313
12.5956943675
12.2353638582
12.58586267
13.5223648347
13.8948407513
14.2005398957
14.8619984742
15.7432672822
16.745907318
17.6914616866
18.6861181006
19.7654532356
20.2957091506
21.346776611
21.7036317832
23.1679308198
23.1919381944
24.0086807525
23.1609601272
22.464012024
22.5527628809
22.9360355994
23.3350918549
23.6903311593
24.0189813785
24.3822168106
24.8130966081
25.2513083931
25.5971284879
25.7899133425
25.8181325666
25.695120785
25.4414107281
25.0712289871
24.5840066981
23.9618915408
23.1755778492
22.1921732698
20.9672825693
19.4448428525
17.6463650665
15.7331480888
13.9049736225
12.3121170784
11.0777866027
10.2902014297
10.0959953482
10.710265551
9.85155043584
12.4737694094
17.3080738375
20.768226997
22.1435535632
21.2400760146
17.8868869068
15.7148498862
17.5351873378
19.7521737484
19.2366091462
18.2449768481
18.3233049963
22.8818466392
24.4621314851
19.4636672771
19.2647393877
12.0532216374
8.93536499623
6.63209075426
6.21954376474
11.970346792
8.35972878445
6.75538679927
6.86751332437
6.98932815366
7.67856259471
8.16074389682
13.1721091436
13.8515788112
13.8890335588
12.5405960469
11.5412992315
11.8197658923
13.1441805479
13.4995071832
13.5934198572
14.2168342118
14.9787103541
15.8621924442
16.8627280132
18.0089371726
19.1103186049
19.7912313986
21.1746447054
21.4184824524
23.012375533
22.8847593695
23.9422377094
23.4259991016
22.9141740146
22.2687629364
22.488661262
23.0103418149
23.4946391777
23.8935156822
24.2568246928
24.6386974988
25.0526754852
25.4592094731
25.7899336859
25.990150844
26.0388324282
25.9426412664
25.7213683067
25.3897749294
24.9451699483
24.3665634185
23.6195771565
22.6590620019
21.4347070359
19.9248256072
18.20346039
16.4471639635
14.8381796607
13.4878929232
12.4516947403
11.8271250426
11.6542866774
11.4595092199
11.4648649423
13.9538012755
19.9173900738
22.17084517
22.4867406099
21.4312674445
19.1736888687
18.9226514625
21.4884358321
21.9330278142
21.1053677018
20.5254214662
22.4966609856
25.2357678781
26.6903653535
22.1104019809
20.9729731168
11.7583479653
8.56585491231
7.7657625795
12.1214049353
12.0626293401
7.35188532295
7.39861990182
7.53880176498
7.6432317206
8.20614655533
12.9342904715
13.8701159761
13.9486273051
13.4596557018
11.3518439588
11.1133940805
12.6824874771
13.2942246223
13.1249499984
13.468972816
14.2627772928
15.1640732531
16.0748399051
17.1335300221
18.1106609495
19.483962921
19.8945633862
21.1899960086
22.7326235046
23.1472719705
22.5683184816
23.3957228203
23.5182034849
22.322175704
22.2478104697
22.631880227
23.1563245747
23.667448871
24.1065280284
24.5037796168
24.9055353022
25.3187564113
25.7111564384
26.0326963649
26.2381758786
26.3050353873
26.2377652598
26.0560563961
25.7740490515
25.3860745066
24.8661462141
24.1721240383
23.2520924927
22.0668960574
20.6349615731
19.0677390517
17.5315854216
16.1414767063
14.9140686107
13.8894849826
13.2362648619
12.9816902615
12.9647552798
13.3020155318
13.3715206863
20.0185632132
23.9602927629
23.9361540779
23.3370215131
22.3860803855
23.2087990699
24.5656077079
23.8877504651
23.21722475
23.4399250479
25.7686368699
26.435188844
27.0081994592
24.1295520661
21.9928606889
11.0201071291
8.46882731047
8.42911009409
13.092519125
11.0145331538
7.94929711799
8.09541948386
8.36472118961
9.58126805419
8.30478155655
13.7079764047
14.3845097449
13.9841159366
12.2061097218
10.9636990619
11.2532358958
12.76854864
13.002256746
13.0098717346
13.4967381815
14.26787114
15.2530776146
16.2701756414
17.7458341041
18.9926038164
19.4444118053
21.3805429196
21.0751160383
22.9450481814
22.5400818613
23.784977535
22.7021965922
22.3275766598
22.2291689402
22.4179917783
22.8304702856
23.3367875382
23.8549325312
24.3297699563
24.765218141
25.1910119507
25.6123593177
26.003060444
26.3225488306
26.5337229622
26.6190946411
26.5853342767
26.451859887
26.2309748912
25.9141223672
25.4703864802
24.8513050493
24.005733162
22.9161913022
21.6384901548
20.2965823174
18.9969383132
17.7223666071
16.4105077872
15.2613738822
14.6656191751
14.7100047514
15.0143446268
15.2031645968
15.0253280173
16.687147365
24.1124472607
25.7554342714
25.7178182493
26.3270817548
27.3548038231
26.9851230315
25.9723928817
25.7882031213
26.7955119872
27.9895456827
27.8279107592
27.2042125573
26.1802947254
24.8071464925
10.464655418
8.88986092687
9.58492646142
13.1550109218
9.01749426004
8.96440021771
8.79839308541
9.0611260916
12.1855999757
10.9009762201
14.542374914
14.6488207654
14.0475460567
11.4983702855
10.9898312388
12.5946141353
13.0065622822
12.7526578228
12.9781271426
13.6556952213
14.4018701487
15.3320102015
16.2093363662
17.9103784335
20.056468377
19.3878296047
21.3312894192
22.5908798053
23.1929835128
23.7682476778
22.9955640661
22.9816899426
22.023369844
22.1393860244
22.5846891207
23.0498130364
23.5435880386
24.0597580888
24.5626877447
25.039977991
25.4987559352
25.9368347882
26.3336907642
26.6573501092
26.8779038027
26.9843032363
26.9892967746
26.91361372
26.7663676686
26.5361513363
26.1896476197
25.6764707891
24.953616536
24.0301671405
22.9871655903
21.9172839563
20.7853079627
19.4007250946
17.8545738671
16.7600206429
16.5913197018
17.1339540716
17.6348271849
17.7435946379
17.4231321734
16.0856696212
16.0574609196
27.4562150402
30.2471516792
31.1680952539
30.9480889737
29.4696698141
28.5366696833
28.8382358462
30.0132201408
30.3511698985
30.0911414993
29.7789618945
30.10802981
30.2867552062
10.4197398085
9.71530993472
13.0132736063
13.3036491675
9.10081340245
9.71648526764
9.49583080833
9.99174014452
11.6720942735
14.4090790386
15.3608352124
14.908368676
14.2760922038
11.4939729173
11.1434587373
13.1184721439
13.1045838809
12.7258859611
13.0064887913
13.7954028935
14.7732037079
15.6933461401
16.3977217868
17.5411883901
20.2304491974
21.4178887313
20.9390236344
22.7227290387
22.0205414529
23.8006868976
24.0931475534
22.9259481621
21.9887637491
22.2514522107
22.7826372814
23.2802289468
23.7745450202
24.2889306383
24.8084847331
25.3258744561
25.8278954197
26.2931908194
26.7035009034
27.0366939548
27.2712026552
27.4041193069
27.4547863851
27.4454339642
27.3831934793
27.2556904638
27.0307171084
26.6621613482
26.1229048714
25.4481052766
24.7140715564
23.8974678077
22.7163617568
21.0243937272
19.5302957126
18.9678897112
19.5625104894
20.6316294185
21.251503439
21.2699196386
20.6313462783
19.0370392563
16.5476174059
17.3055895202
31.5747782973
36.7511476576
35.2960809503
32.761184683
31.8924260704
32.4023251936
33.2260289454
33.5777021085
33.8691835232
34.3514501588
34.9422504624
35.6027544644
10.752681522
10.5751533315
14.6489756284
13.994840245
12.0732941237
10.9314241584
10.4162264881
11.4538042131
11.1240395024
15.3702627148
16.0008108906
15.2408496448
14.3475409532
12.098536244
11.9061223376
13.5861235144
13.1227059929
12.8073237821
13.1261908727
13.8418057223
14.9253101148
16.1536751752
17.8646671605
17.683060746
19.7286685121
21.8001832605
20.8221808662
22.9940927838
23.7919407272
22.9557755011
23.1520243998
22.243139362
22.2847614913
22.5817329005
23.0378931464
23.5352132028
24.0354829831
24.5521057774
25.075408093
25.6182172976
26.1712470495
26.6828675052
27.1154813539
27.4611164094
27.7147950017
27.8819105519
27.986076576
28.0502378498
28.0815394423
28.0703613547
27.9905674984
27.8109744466
27.5302609189
27.1928910572
26.7978516603
26.0597988424
24.564058379
22.8832313941
22.0736989855
22.4616327941
24.0047530341
25.4824260813
26.1752794476
26.251305762
25.59836918
23.7857482142
20.5852827016
15.9173384176
26.3558819803
37.2843239453
40.1627495384
37.2253432475
36.4028503651
36.8442755353
37.5105102786
37.9224945449
38.857286507
39.5911762158
39.5420849724
39.7473036124
11.3413658186
11.2183673586
14.3839558318
14.4710113717
14.4777304048
12.0542898502
11.468963005
14.3259710655
11.4783686219
16.2284468767
16.4887406595
15.5839596358
14.4210720524
12.6991463577
14.5456010952
14.6454729938
13.3044723485
13.0248116149
13.3789445619
13.9886100953
14.8890923616
16.1430593295
19.1660385181
20.110149929
19.2079573579
21.8744925736
22.7971772428
22.5605479812
23.7623510815
24.097916699
23.5144665452
22.2738610528
22.4908753613
22.9158257745
23.3485262943
23.8226689603
24.3136228614
24.8467727455
25.3926170084
25.9411910775
26.5227944908
27.0899774018
27.5671046818
27.9346675251
28.2114428657
28.420501413
28.5866596275
28.7292475233
28.8566423231
28.9670929719
29.0506796949
29.1085813363
29.1709208045
29.2422963344
29.1024172614
28.1069060916
26.4934223236
26.0895847782
26.7973995599
28.4442571061
30.8036031326
32.265636338
32.2667260193
31.9531890791
30.342085169
27.717833902
24.3730783768
17.7953464454
17.6948303104
32.0764149423
39.293290412
40.3927131756
38.9844257557
40.2553119796
41.5209800524
43.1236027425
44.5435799103
45.0842294137
45.0597816488
45.2429158653
11.9894865452
11.9104790882
11.5657765144
14.7892385157
15.0011734141
12.8104542893
12.4183980868
15.3012659084
12.1209131371
17.1115079111
16.927073393
15.941044983
14.6065233563
13.0040707905
15.7074684063
15.2018323691
13.7272883188
13.4161434518
13.7290992508
14.3050812128
14.978098944
16.0404099563
19.688509061
21.1821107277
19.5537142301
21.9237848471
23.3247363796
22.0297712229
23.3956857058
23.6397189667
22.4667401893
22.6277194846
22.9419271814
23.3006269866
23.6911557662
24.1638871967
24.6482298192
25.1510174936
25.7228157773
26.3149109329
26.9155566255
27.51668205
28.0439968175
28.4518244883
28.7639255452
29.0241409978
29.2589919667
29.4785387851
29.6956439558
29.9215833445
30.1711008976
30.5137705273
31.0048599287
31.5141158718
31.3290715649
29.8115523479
29.2631998233
27.4623326093
25.5284440543
25.0152715004
24.0639402243
19.5780744231
8.31486401723
1.02845945614
0.0816143478159
0.0229891151497
0.270599182758
2.76485545165
16.8433527685
19.9783360089
44.4575224635
49.0394345683
48.4745913463
43.9182646574
40.7682658581
43.8135233754
48.9892785866
50.5142607401
51.865797376
52.3656817383
12.8172458283
12.9062598656
15.4242993875
15.421687936
15.4384288372
13.4536019487
13.453356677
16.1349095748
13.1256135996
17.8739855416
17.3441084072
16.3205920903
14.8727700749
13.390512012
15.9834652217
15.3834656435
14.1490286096
13.86448109
14.1123732603
14.6219871133
15.2349554754
16.0711869331
19.0832575201
21.9981488262
22.1368603242
21.2861706073
23.5424861709
24.3092956826
22.2049431953
22.0730563602
22.4050780442
22.8658542935
23.2965763072
23.6865197334
24.0930052162
24.5300420377
25.0130290734
25.5308306329
26.0779758845
26.7020974193
27.3525258212
27.986026594
28.5497743863
29.002196999
29.3678943682
29.69296352
30.0019906106
30.2993690042
30.5862717657
30.884750501
31.2849241293
31.9486292814
32.9265872821
33.7617469705
33.1298143906
29.8997323151
21.4023241817
0.00341831142934
3.75978809293e-06
7.04825860414e-08
1.19472813412e-09
3.45664491875e-12
9.82303031624e-15
1.70034795532e-19
1.33001721547e-19
3.2289759563e-19
2.17658508752e-18
1.01950030297e-17
3.76603920818e-17
2.39325906295e-16
1.87386842149e-16
1.62568273597e-14
9.2528511161e-12
9.30108976539e-10
7.05795593975e-08
1.62527670423e-05
0.273585212998
53.6531873694
58.0362160341
59.7807356404
13.5941294477
13.7843645097
17.0351225208
16.0767328794
15.5319352761
14.1052054919
14.4589073938
16.8339235119
16.8071292648
18.8189110335
17.8202329244
16.791246969
15.2211204502
13.9229223626
16.276578797
15.5064918906
14.55757525
14.3220955221
14.4997858425
14.9295531775
15.5129083484
16.3224868801
18.5563154043
22.2618443915
23.5157178554
20.9907034996
23.0780666967
24.3671592111
24.0600317049
22.537208298
22.5042414752
23.0944580899
23.6601108656
24.1239309999
24.4814192382
24.9253058893
25.3978437836
25.9315573801
26.4945043256
27.1228869821
27.8176045418
28.5021565128
29.0937790137
29.5725340817
30.001063665
30.4424624795
30.8655900047
31.2126823102
31.4684786672
31.7820115179
32.3374538564
33.2904892782
34.7149667747
35.7741935519
28.884662828
0.0050590649176
1.89029433499e-09
7.65477982977e-12
2.2136384126e-13
3.22265175101e-15
2.61833644659e-18
4.36894528037e-21
3.07968957866e-22
0
0
0
0
0
0
0
0
4.28332300876e-26
1.44467617588e-23
2.16092762841e-21
1.25370100822e-18
1.75111262908e-15
9.48272243693e-11
1.44006587718e-06
11.2273051739
61.9923536262
14.2291350745
14.4414632432
19.1950242906
16.580660818
15.3720460088
14.6848858583
15.179621281
16.870938686
18.3967736823
19.908517633
18.4529848061
17.3951839669
15.8187205902
14.7509325286
16.7765916784
15.7845208724
15.0468518687
14.8306349093
14.9272760999
15.2738861636
15.7880418899
16.5390119371
18.3430073515
22.1390316128
24.5111552167
23.7095417056
22.556589504
23.7357790366
23.7878948885
22.4964400105
22.9612423709
23.5834985189
24.1980395508
24.6156055109
24.9894390919
25.3560472771
25.8409778187
26.3607614904
26.9478814373
27.5945600884
28.3069820445
29.0440794903
29.7116150807
30.2179031073
30.6971955329
31.2618488485
31.8119967046
32.1715259571
32.3512987266
32.644757572
33.291721702
34.3375489392
35.8801918348
29.3239588599
1.25177386974e-05
2.73671287411e-12
8.97522663938e-16
3.62921097214e-17
4.94831990923e-19
1.35696380017e-21
0
0
0
0
0
0
0
0
0
0
0
0
0
5.51906120753e-25
5.48438757577e-24
1.20229658619e-22
5.82976989253e-21
3.23740499302e-17
2.69469809847e-08
5.19446554454e-13
14.7252095568
14.9265331115
21.2620523142
16.9659683325
15.47524071
15.2261554286
15.9850373683
16.2038885334
19.3490773301
20.6886143015
19.0692056556
18.0153664645
16.6183911768
16.6550502981
17.4755226711
16.3054928998
15.733191614
15.5376388769
15.4633996484
15.7058052865
16.1164736899
16.7914376644
18.3233459996
22.0049689677
24.9272927842
25.3639758847
22.2920912278
22.6188272591
22.478700363
22.6205044693
23.2688432885
24.0888722013
24.7028470009
25.1478738071
25.5373107746
25.9840293051
26.3490132402
26.8580306919
27.4426093991
28.0884401652
28.8664985742
29.6680272226
30.379142006
30.851915807
31.3337422532
32.5479027484
34.2009053884
34.7302993284
33.8221458477
33.8284621283
34.4077652304
35.435196168
27.7937758267
1.44821950592e-06
2.18265650473e-11
9.79174025551e-23
9.89467483048e-20
1.61453825223e-21
0
0
0
0
0
0
0
0
0
0
0
0
0
0
0
0
0
0
8.52677653484e-24
5.77419223294e-23
1.06480892104e-20
93.9858599837
15.1633962337
15.330777317
21.0874470488
16.3761918803
15.6703362053
15.695383923
16.9012738393
16.1873617694
20.1530115305
21.4184895322
19.6592518924
18.5941250523
17.2380217493
18.8995119789
18.4545905805
17.0315305606
16.5248479512
16.614145154
16.2228928513
16.3074906556
16.5448239965
17.0834685513
18.4470440796
21.8575661305
24.800643867
26.4735364259
25.0684377188
24.02759096
23.5155873943
22.8942969215
23.5816516825
24.7487087922
25.1513598357
25.6805162069
26.3469338085
26.590253414
26.9542771806
27.4631773504
28.0591298753
28.7034885771
29.4230732658
30.2733043231
31.1208936411
32.0138438162
33.1071171938
34.694624248
35.9571150597
35.869426829
35.7263967851
36.2513470362
37.2365932072
31.9508293644
6.58593722974e-06
6.01164552417e-11
7.90124079668e-15
1.07313994477e-16
0
0
0
0
0
0
0
0
0
0
0
0
0
0
0
0
0
0
0
0
0
0
2.62367539393e-23
1.90965163844e-12
15.6744507419
15.8195822736
20.714639463
16.0333082618
15.9652440761
16.0786048985
17.6881687544
16.6485340712
20.8485087118
22.1359683696
20.249546186
19.180280628
17.7619399081
19.6461581742
19.3630529562
17.8317051522
17.304992958
17.5063268644
17.1340012573
17.1319224292
17.176656318
17.4215247528
18.7319339337
21.8402021452
24.5283768816
26.8115432528
26.2821228118
24.533247682
22.8838174517
23.4164291671
24.1256812921
25.2521985314
26.0509683984
26.6963371358
27.194876862
27.3010420631
27.6426377879
28.1649982518
28.7704059539
29.4421852452
30.1629156621
31.0878341124
32.2785977387
33.8322488374
34.8708909895
35.2097765655
35.8481736213
36.2950280935
37.9718484196
40.1151066988
38.2969072937
6.00106955885e-05
7.9682747161e-11
1.3740881216e-14
2.81832549937e-17
6.82370816894e-19
2.29048720896e-21
0
0
0
0
0
0
0
0
0
0
0
0
0
0
0
0
0
0
0
0
0
4.40917474125e-24
5.83374090753e-24
16.433270082
16.5789150211
20.3735071135
16.3168457152
16.5321367306
16.563892185
17.6831467464
17.3814949244
21.3462521711
22.8190381471
20.87735884
19.8199207614
18.4107407371
20.3307303153
20.1866820369
18.7288431631
18.1497749887
18.3790141847
18.0223856703
18.104027353
18.0885660668
17.9219760893
19.2119018152
22.0114969316
24.404879071
26.9120292111
26.8310387384
25.238111103
23.3669414577
23.6519910299
24.7806036981
25.3976062297
26.0582155377
26.923164941
28.1423988828
28.3497303605
28.6019388683
28.972216755
29.5347556585
30.2832783367
31.1149798236
32.17060044
34.1225437149
35.8899313692
36.0607357735
36.2002610186
37.296173959
40.3351979202
44.3336660073
42.688422768
1.71452426259e-05
2.84812583e-12
1.17862107085e-16
3.86431168278e-20
2.42464834337e-22
4.91456569786e-22
7.54693903282e-23
0
0
0
0
0
0
0
0
0
0
0
0
0
0
0
0
0
0
0
0
0
3.25895045243e-25
1.47979363993e-24
17.5779252172
17.6818129544
20.6538944163
17.2670224101
17.7092797303
17.425988842
17.9845612262
18.721695675
21.3796640349
23.3297385498
21.5721897265
20.5346622925
19.1704668577
21.1094693344
21.0396126377
19.7929254735
19.1852239602
19.4032519352
18.9189574003
19.1766828978
19.3214569048
18.6567691485
19.7589920222
22.3716229209
24.4718671728
26.775304013
27.0817647902
25.8725640812
25.4382160022
24.5382523065
25.2146290124
26.2731592894
27.5417349803
27.5258527816
28.3676018358
29.411510599
29.6678271603
30.119676005
30.5684824834
31.2128250857
32.1869904262
34.128016752
36.8464361228
37.7111119527
37.4384180219
38.562811571
43.0548321847
49.6881828877
48.6918590304
6.16717304029e-07
4.31506437387e-14
4.02870096267e-19
2.75657000552e-21
0
0
0
0
0
0
0
0
0
0
0
0
0
0
0
0
0
0
0
0
0
0
0
0
0
0
0
19.1783576295
19.0442960363
21.464572709
19.1831773279
19.6936200456
18.7038298307
18.9308524129
20.6642186433
21.5918168668
23.9507229083
22.3883875914
21.335207261
20.0173405656
21.9263567375
21.8883078633
20.967486005
20.7097245394
20.7451062142
19.9083713467
20.3496548864
20.8621604908
19.7165083316
20.1868810808
22.8174617102
24.7360538007
26.6519023947
27.2699924189
26.0287003475
26.6393841563
26.155120668
26.3194263392
25.9781610137
27.2306422117
28.8163492635
29.347188184
30.1349408059
30.7367684885
31.2106889745
31.819722723
32.4835806719
33.9801278965
37.2204208797
39.4948728442
39.7930772975
40.4382524749
44.3081767663
52.4961830436
51.4483135324
8.74800114171e-09
3.85083820416e-16
6.73207796335e-19
3.08253266322e-21
0
0
0
0
0
0
0
0
0
0
0
0
0
0
0
0
0
0
0
0
0
0
0
0
0
0
0
0
20.876754581
20.3290525807
22.3499902089
21.7273607003
21.4303207834
20.1920884516
19.9813557881
21.8195507453
20.8173546799
24.436211253
23.3083907435
22.2140558865
20.9425747367
22.7580493274
22.6786339215
21.9505408739
22.8328051014
22.3661767973
21.0254979694
21.6521152297
22.230663237
21.0844888997
20.3498678667
22.825155721
24.9309581627
26.5684700401
27.3510063508
26.1289046058
27.0379383793
27.4653567707
27.68757989
26.7762101975
27.5221101011
28.7392538785
30.3038798516
31.385864354
32.0432438213
32.4788824488
33.060733955
34.2118093635
37.2107068931
40.6897829984
42.367980604
43.1967906782
45.7346459446
51.5778651109
48.8845327132
18.9480057688
1.03687154409e-15
1.50109032019e-18
5.25710788686e-21
0
0
0
0
0
0
0
0
0
0
0
0
0
0
0
0
0
0
0
0
0
0
0
0
0
0
0
0
0
21.7321363962
21.2422051253
22.9266361269
22.8026955435
22.5244265696
21.6086239595
21.2018218607
23.2250136548
21.8826491405
25.0570930896
24.23986259
23.1400749904
21.9413849111
23.6229083374
23.4844060419
22.7800236395
23.8222738312
23.4946913225
22.122245107
22.9444906749
22.993986526
21.9219237605
21.4134770928
21.6360261371
24.459301109
26.102875886
27.1661201064
26.1296726367
27.1343320622
28.0338679296
28.8121259611
28.6486104805
27.8707337913
28.8248725682
30.573839909
32.2940802056
33.4684315641
34.1749851185
34.7685442905
37.2480509748
41.2051191785
44.2208451
45.629167165
47.2993415923
51.1591499718
44.9304168716
19.2937984624
5.47764157879e-15
4.9342611393e-18
1.40530311761e-20
0
0
0
0
0
0
0
0
0
0
0
0
0
0
0
0
0
0
0
0
0
0
0
0
0
0
0
0
0
0
21.8603715049
21.8341619043
23.2971037182
23.0568074442
23.2374904361
22.720227368
22.2747807121
24.6090360393
23.6007617979
25.8597692662
25.232864753
24.1003059755
23.0089867701
24.536126528
24.3631543598
23.7444490328
24.6517429718
24.4860756824
23.2778324816
23.9975521873
22.8142509112
22.7059828268
22.4855787599
22.7592038103
23.6024443705
24.603025138
26.3683699409
25.9728376103
26.7292101187
28.1017732463
29.3063518275
30.0421771703
29.4468219215
29.6533445608
30.7980942812
32.4873433065
34.3906965465
35.9499762186
37.4149722468
41.1586170357
45.1018874697
47.5206691881
48.5180568876
50.0349767391
44.4584533171
23.1360892349
5.31308575113
1.713943097e-17
3.83939286938e-20
0
0
0
0
0
0
0
0
0
0
0
0
0
0
0
0
0
0
0
0
0
0
0
0
0
0
0
0
0
0
0
22.1569640951
22.270580681
23.6311952381
22.2241907143
23.5684243148
23.3553810066
23.0142294074
25.2609276627
24.4934326355
26.6881063563
26.2685295157
25.0666836432
24.1525600998
25.4850574782
25.2876916047
24.8447975406
25.5700858172
25.5875920685
24.5556854136
25.4296247026
24.1896673658
24.3715118161
23.7681826829
24.0726224168
25.4371300106
26.0636918135
26.0473568946
25.7525473817
26.3009665823
28.0862365302
29.3539347153
30.3389443483
30.8500066073
30.7948712838
32.207552397
33.2782310217
35.164084872
37.626680876
40.7348208248
45.2042367726
48.659547889
50.1345457078
49.0366964109
44.4003163216
36.7272468141
23.7306300757
1.43821457935e-16
3.27416586573e-19
0
0
0
0
0
0
0
0
0
0
0
0
0
0
0
0
0
0
0
0
0
0
0
0
0
0
0
0
0
0
0
0
22.9094822774
22.9875115463
23.9905267405
22.683336119
23.8666251428
23.7301902123
23.5518493135
25.5130352902
25.132963044
27.3167632743
27.2863935793
25.9807487847
25.3588183955
26.4254906275
26.178559939
25.914289933
26.4579942883
26.7747948939
25.879375904
26.8720249157
25.9853095962
26.4581724714
26.2208022202
25.0807972377
26.206535599
27.1865593308
27.3145952196
25.6431268417
25.8102964939
28.0319858899
29.5446013866
30.044041086
30.7085706503
31.190899338
32.6042383344
33.9672984212
36.0700074381
39.3568590505
44.2413614601
49.2734642166
51.9371225728
51.6787945695
47.9066152245
40.6024867591
24.9778254463
1.6352604089e-15
2.28156749181e-18
9.25180690471e-21
0
0
0
0
0
0
0
0
0
0
0
0
0
0
0
0
0
0
0
0
0
0
0
0
0
0
0
0
0
0
0
0
23.8523422219
24.8638160022
24.5051443177
23.6957915298
24.4480245027
24.1658699833
24.0727136308
25.7377461702
25.718914981
27.6055065434
28.2739581057
26.8039255388
26.4339995563
27.2066419803
27.0251830977
26.7360655476
26.8040576979
27.8592223731
27.2676437454
28.1369797773
27.95341324
27.8195257483
27.6664911261
27.2833141782
26.5905958331
27.3643456157
28.3041669945
25.2282789214
25.380221489
27.4095647875
29.6376723673
30.6544163006
31.4986096377
31.2918062658
32.5456090746
34.2896209148
36.649094303
40.9773333799
47.703567695
53.1185942133
54.5687414271
49.6934307854
46.2684391249
40.6444552779
26.2678918912
1.54646714246e-17
3.94695611401e-20
0
0
0
0
0
0
0
0
0
0
0
0
0
0
0
0
0
0
0
0
0
0
0
0
0
0
0
0
0
0
0
0
0
24.5798393061
25.6263860314
25.2555023785
24.6166782888
25.1878754266
24.7767929774
24.6613810288
26.0430914088
26.2878672103
27.6361604351
29.1569627893
27.5949548461
27.1052668433
27.8599069916
27.9380304873
27.4863981833
27.0924519383
28.6428072331
28.6877471055
29.2452187663
29.3156109286
29.4639329273
28.2925423298
28.2805426768
27.8305981707
29.011291128
29.6808008014
27.0617623221
25.0443075648
26.4940034923
29.0274102735
30.8952433737
31.8095553223
31.9362748551
32.31038628
34.1925363794
36.6976162244
42.252334406
50.9800914284
56.9787535421
55.4323934338
48.9509841192
41.8558626936
27.5777551229
2.44749899275
4.55982204635e-19
1.53235916388e-21
0
0