/*--------------------------------*- C++ -*----------------------------------*\
| =========                 |                                                 |
| \\      /  F ield         | OpenFOAM: The Open Source CFD Toolbox           |
|  \\    /   O peration     | Version:  v1806                                 |
|   \\  /    A nd           | Web:      www.OpenFOAM.com                      |
|    \\/     M anipulation  |                                                 |
\*---------------------------------------------------------------------------*/
FoamFile
{
    version     2.0;
    format      ascii;
    class       volScalarField;
    location    "773";
    object      alphak;
}
// * * * * * * * * * * * * * * * * * * * * * * * * * * * * * * * * * * * * * //

dimensions      [0 0 -1 0 0 0 0];


internalField   nonuniform List<scalar> 
6400
(
0.901543219079
1.45786524167
2.32272976271
2.92532684848
3.49980368445
4.07017125617
4.77235226447
5.55484194245
6.05712983888
6.80373261467
8.10021584342
9.05277218915
9.86563462321
10.7631773183
11.8447837683
12.9837189119
14.0268815112
15.010892956
15.8449911251
16.373313846
16.7012868677
17.1803530922
18.0062916807
19.1484997004
20.3860711535
21.5163430328
22.4795597687
23.3819574511
24.3206939344
25.3110931576
26.2979121322
27.0982207065
27.635168546
28.0216434323
28.3044054371
28.4929630506
28.8465143719
29.3995660949
29.6596260599
29.7140838824
30.1186073441
30.9922097641
31.8575861267
32.3625616311
32.5451615386
32.5001424281
32.2927071982
31.9641528587
31.52750954
31.0021627296
30.3117590703
29.2534731507
27.8223319603
26.1016695697
24.5070147838
23.0569904859
21.1427872184
18.544723753
15.830477076
13.4948373685
11.133860351
8.6647244468
6.3820528122
6.08979903297
9.07812844168
13.6238795739
16.4088801413
15.9698140535
13.8743940845
12.2233380252
11.3744191984
11.6584285931
12.3082995583
12.263380433
14.4534767064
13.9400855431
15.900562066
9.79693803977
12.8549067977
4.80092213409
3.17028464521
2.55857805518
3.20104901587
4.48096395009
4.48137489195
4.48057436307
4.77501011505
5.29041418768
6.00942041627
6.91593543717
7.99604316905
9.07580354788
10.0414676932
10.9699006293
11.9213566242
13.002862827
14.1422678237
15.2279393215
16.3124725551
16.6793940163
16.834934722
17.2964963653
18.1061332846
19.2390330782
20.5863152724
21.6663588565
22.6029288419
23.5393979892
24.4911431022
25.4530054066
26.4140427934
27.2928912529
27.8237289703
28.2029297088
28.5139801979
28.629300377
29.023220425
29.6010475832
29.8235874742
29.7613235643
30.1401390835
31.4620920628
32.5786915484
32.9997944946
33.1296057727
33.0203120766
32.7326413007
32.3486155215
31.7763951544
31.1078903117
30.4745556603
29.854711101
28.5889835319
26.3245562099
24.8263656094
23.1915771826
20.8130164239
18.2767941882
15.7611875595
13.261470102
10.9103706442
8.96043997172
6.76742833907
6.60868065825
9.35480044358
14.7062311758
18.2354492959
16.8029423324
14.5331549467
12.5577785879
11.8865303363
12.3878484576
13.6079791322
13.0819721286
13.0131037252
12.5596196805
11.4277582224
9.63448699485
8.1293026696
4.21019381755
3.30420706279
2.93526886209
3.46194305051
3.81215633135
4.43574992719
4.93029834738
4.95988764897
5.18249042292
5.90590012862
6.88876541353
7.97989464046
9.07909565819
10.0881860626
11.0174928312
11.8245364053
12.8115587326
15.3533639364
17.3580596608
17.9030184027
17.5381465751
16.6409497092
16.9997799197
18.2154925059
19.3962715065
20.524175007
21.6610764235
22.6926144143
23.6311598892
24.5631266911
25.5190063658
26.4502324094
27.4090699484
27.9323552606
28.1087798115
28.6895517372
28.8236624102
28.9513452559
29.6874370422
29.9630333668
29.9678853723
30.3614213124
31.2117030848
32.0507134278
32.5562891833
32.7638606546
32.7595915969
32.5857027648
32.2620692951
31.7918736793
31.1951349036
30.4694947537
29.5021140077
28.1685539417
26.6964867006
25.1694161357
23.1140004384
20.7330692469
18.2582308286
15.767097013
13.3329323335
11.0583149524
8.88095521741
7.36749614776
8.02800696677
11.7647059858
15.7661658018
17.6890332721
17.6449498322
15.9834511276
14.2922856957
13.6323939059
13.5874680565
12.9614324799
12.4202841051
12.4800193193
12.2239366109
11.3138487638
9.72692849139
7.2927905488
7.50155975834
3.39048455403
5.58140481802
3.84811919392
4.01758926453
4.74870807401
11.9537074856
10.3808677555
5.68885714473
5.86426438155
6.87780295655
7.9996750461
9.12054464986
10.1046608866
11.037320032
12.7100281641
14.7775563322
16.4990441305
17.0922556804
16.3906558795
15.9548261023
16.4675990837
17.2336062441
18.2111464317
19.3840579482
20.6011065426
21.7659950763
22.8220032948
23.742900191
24.6889638232
25.5836873093
26.6201733282
27.4047908866
28.1674296343
28.3255221466
28.3118661653
28.8904928036
29.1074849575
29.3494833718
29.7774740747
30.1697060541
30.6671484495
31.3805832798
32.1010402933
32.602237851
32.8478091734
32.8790757411
32.732218938
32.4286463621
31.9773521
31.3841893402
30.6305625088
29.6529219863
28.4081088858
26.9512304047
25.2447974736
23.1637650433
20.7888429636
18.309184153
15.843270412
13.4870794475
11.3568032051
9.65897651277
8.98312901031
9.62369151762
11.6152224355
16.2600764807
19.4338620823
19.4459948657
17.6973476733
15.2894724746
13.6677697016
12.8949301058
13.117304528
14.6200475228
14.6211892207
13.3541278063
13.2735432755
16.6192608189
12.9954397934
10.9917565633
5.82295177514
7.67861032414
4.70312181497
5.02447387606
6.76542893644
11.8528496932
8.46463877514
6.22674651369
6.39264374608
7.09417992244
8.13684556136
9.26884969648
10.7118102501
12.9159094709
14.0003530037
14.5348097867
14.8009438666
14.9261352666
15.2861191465
15.9957972091
16.5896464983
17.2908174926
18.3023744778
19.4784848804
20.7060439685
21.8961224474
22.9288741851
23.9538493735
24.7917987746
25.8344065857
26.6610445952
27.9186513056
28.1096836497
28.0228184004
28.3829508638
28.5146327416
28.9091353079
29.4188356991
29.9256241017
30.4043404903
30.9354904689
31.5757529722
32.215732891
32.7017162264
32.9724966781
33.0357294019
32.9164628261
32.6358804291
32.2051203936
31.6234677928
30.8693011163
29.9017592129
28.6923811806
27.2304635325
25.4540950751
23.3183137437
20.934548415
18.4838360113
16.1089165283
13.9473067944
12.1821768534
11.0900524705
10.9574307603
11.1063474114
12.209194043
16.0215037919
19.6257440624
20.8137314616
19.5502935528
16.7248919419
14.1928281519
13.8562039671
16.1774406687
17.0907859144
16.0938392861
15.2219059863
17.947590644
21.001782129
16.2715240164
15.3810394757
10.0999915304
9.28668932533
5.86521616855
6.36059844871
12.1439439316
11.6462573942
7.03673540267
6.86015790544
7.0407145295
7.44999132019
8.36548169886
10.9086614203
14.0185057714
14.5532118856
14.3621892777
13.7451722439
13.7181878233
14.3221068331
15.3700126857
15.9544788526
16.5008744749
17.3612666738
18.4374045796
19.6372229781
20.8021652771
21.9985041432
23.2394082193
24.0533469963
25.2251645913
25.8886487811
27.3458982563
27.7397043518
28.6104918959
28.1932003399
27.9167301442
28.3003391354
28.9282820158
29.5541751355
30.1221165122
30.651208133
31.2024965163
31.8050609359
32.3933638391
32.8623004342
33.1477364342
33.2374630637
33.1451483798
32.8903152684
32.4850513841
31.9259832376
31.1911889102
30.2459317653
29.0536653424
27.571440704
25.7474293693
23.5957484971
21.254541458
18.9088866911
16.7246136586
14.8757229252
13.5545884046
12.9930544687
13.2208318391
12.4927375439
14.243193078
18.1420482339
21.1050312762
22.1930525893
21.1402169048
17.6911636523
15.4135855906
17.1840318228
19.3968960769
18.8834553331
17.9212225406
18.0354758505
22.6960166238
24.3168922107
19.2647602537
19.0690925915
12.2425022793
9.24307061912
7.12472867276
6.67853274585
12.1252780862
8.71454458401
7.34738220866
7.48597346975
7.64836104441
8.37012260139
8.93924999363
13.6431166939
14.432441429
14.5747883276
13.4887763979
12.8447093555
13.3646349212
14.7376252527
15.3110103286
15.6873436016
16.5086308739
17.4651951179
18.5446839681
19.7411093471
21.0595149905
22.3203901344
23.2624823464
24.7230320133
25.3191838747
26.8661311896
27.1356547112
28.2611842063
28.1627029041
27.9929123577
27.7906522939
28.2773965296
29.0231678016
29.7271946234
30.3406466832
30.9073874582
31.4786143183
32.0661354479
32.6251551508
33.0812052998
33.3760895174
33.4877669067
33.4223606156
33.1977499024
32.8259840542
32.3017368105
31.6008603868
30.6851378945
29.5068055458
28.0147138553
26.1839856809
24.076754326
21.8546213364
19.7054179996
17.7872841072
16.2409232146
15.2337292511
14.8103001595
14.4951290266
14.4760244895
16.2001122771
20.989145761
22.7323554597
22.7159094581
21.4595925361
19.071147216
18.6644664546
21.126031289
21.5079361559
20.6729072181
20.1089132293
22.1595403593
24.9875369543
26.5051644217
21.8817628876
20.7397020314
12.0115651387
9.00785000554
8.30370038972
12.3525403993
12.2853334243
7.91864386622
8.03458544184
8.20845530486
8.30641316224
8.90998485925
13.3571430559
14.3342794892
14.5233486662
14.1819086955
12.4643700509
12.4928639542
14.0660972196
14.842059831
14.9815358358
15.5634785783
16.5359143304
17.6159333478
18.729671896
19.9739281747
21.1499192625
22.6203088619
23.3328522901
24.7400367486
26.3503428389
27.0071898764
26.878547855
27.8109869976
28.1976585233
27.5787644476
27.7999280165
28.427773707
29.1816893339
29.9153837358
30.5723289794
31.1771880608
31.7712632387
32.3597816432
32.9066736934
33.3560411625
33.6586724719
33.7902741293
33.7535757436
33.5653102248
33.2365759805
32.7595441748
32.1060559668
31.2313282914
30.0810037966
28.6124109206
26.8366655898
24.8556450001
22.8367914117
20.9274497312
19.2150562609
17.8106596748
16.8939621159
16.4730287605
16.3773967954
16.677893577
16.7125214202
21.6232993575
24.833632422
24.4305375987
23.5721646496
22.4071391704
22.9794841957
24.1516734686
23.3625880315
22.655250776
22.9021048688
25.3526161486
26.1120199287
26.7660383468
23.8814097379
21.7349432339
11.362931045
9.02685573485
8.9881378556
13.3611243543
11.3850884565
8.62269777349
8.78224293342
9.0894143011
10.1829054576
9.06187936619
14.1263463818
14.8827532598
14.5836956194
13.076302215
12.1835110462
12.6256618555
14.1219620395
14.589079143
14.877876938
15.5743717871
16.5299578372
17.6742343452
18.8788033246
20.4843934728
21.8463468242
22.592357437
24.4993342501
24.6729374884
26.4975282899
26.5824017371
27.8060455037
27.2723502074
27.2725017455
27.5167908315
27.9755957034
28.6312581351
29.3743875401
30.1211738059
30.8177521446
31.4648715566
32.087290268
32.6872099885
33.2349900836
33.6852551512
33.996810951
34.1489837942
34.1451224274
34.0009116236
33.7256035137
33.3089735214
32.7188845283
31.9053962555
30.8151919181
29.426046209
27.786888796
26.0208889982
24.2546441757
22.5208195295
20.83047143
19.4230921697
18.6495589307
18.5483811489
18.7650425718
18.9113922012
18.7610184528
19.6071677054
25.4038502908
26.6683720539
26.2552552681
26.4856457966
27.1567641627
26.502228007
25.2926192128
25.0239413283
26.0960997768
27.4442668977
27.4188909475
26.8955453196
25.9207385762
24.5686921261
10.929406251
9.53988298577
10.1381791931
13.4641705085
9.62782678205
9.6516743991
9.53574629218
9.81922146761
12.7243902519
11.5398888663
14.9611583069
15.1801354507
14.6937673494
12.4983131093
12.2500988964
13.7918751648
14.332241763
14.3661650685
14.8396155736
15.705408687
16.6468508306
17.7361582189
18.8015115725
20.6113546583
22.7472119604
22.5444998013
24.4406702731
25.851857605
26.7105861822
27.5219345582
27.2255099551
27.4525165723
27.0344340395
27.4491294085
28.1433930136
28.8571588776
29.5953500592
30.3474249662
31.0771869105
31.7701594812
32.4300975716
33.051450417
33.6096077473
34.06808791
34.3930081149
34.5690324182
34.6035008916
34.5123750272
34.302260812
33.9609225802
33.4548717878
32.7338652347
31.7542076411
30.5214834956
29.1142420466
27.6356963678
26.086162813
24.3275615333
22.5038985405
21.248601011
20.9672649853
21.3758011881
21.7656926968
21.7564632016
21.3193999628
19.9303694432
19.2786734951
28.7001035888
31.0815631885
31.5355333887
30.8430892497
28.9198125629
27.6140318089
27.7440679987
29.0353912461
29.598697779
29.5688957505
29.4339150674
29.8716327189
30.1102163298
11.0145612715
10.4389923908
13.4595325385
13.7091664501
9.84847426652
10.4404725544
10.2893775651
10.7280615835
12.3436997271
14.9295978112
15.8341814249
15.4949476965
14.988610798
12.5960292847
12.4227221497
14.2731621107
14.4524036562
14.3561344
14.8563174776
15.8192739578
16.9680547818
18.0794020764
18.9572374336
20.2428615515
22.8954933796
24.1987071846
24.1375991828
25.9424800272
25.7828897052
27.52573528
28.0803221653
27.4305797229
27.0250214825
27.5580993747
28.3377354456
29.0925026591
29.8400852644
30.5991737307
31.3535620139
32.0918158493
32.7994700365
33.4538740644
34.0315719611
34.5053557389
34.8497099987
35.0562340849
35.136880384
35.1081534968
34.9751718584
34.725996281
34.3300129978
33.7440869027
32.9435694469
31.9634029471
30.883302897
29.7018292404
28.1986838007
26.2329577232
24.4729507267
23.8214040482
24.4002786532
25.3657788749
25.8485653919
25.6602200021
24.7955404249
23.0466699203
20.5890888623
20.6027970245
32.7802866329
37.384128228
35.4378585546
32.1793739759
30.5710150878
30.6918824237
31.6902245939
32.4672785486
33.2044123204
34.0049706633
34.7496166008
35.4966647241
11.459207717
11.3550855754
15.1286324839
14.5026988436
12.7223539932
11.6958391648
11.2758197943
12.1699148654
11.9251804002
15.9058714521
16.5366153486
15.8913509523
15.1569944142
13.2827316616
13.1803399092
14.7166570029
14.503181964
14.452987844
14.9630303149
15.8471103093
17.0867205797
18.5196798865
20.2393562391
20.3416182282
22.4035461772
24.5371093039
24.0612460669
26.1530904442
27.1853562797
26.8528848867
27.319701507
26.9604857047
27.2953608774
27.8665009279
28.5872197842
29.3490441332
30.1120532129
30.883772205
31.6541350057
32.4273385407
33.1903686666
33.8956143651
34.503732652
34.998818364
35.3701596158
35.6169013139
35.7537709739
35.7970577865
35.7524169592
35.6123840681
35.3556467301
34.9578782274
34.4240090209
33.803190475
33.1026215916
32.0886660409
30.4715427643
28.5727872583
27.3033991046
27.7344323695
29.7786314288
31.4241132964
32.0198948018
31.7846306973
30.7681445235
28.6855058498
25.466033734
20.9948398525
28.4077746117
38.6250975416
40.8336509127
36.7966086769
34.5625015492
34.219871571
35.1127766541
36.2514647149
38.0111363239
39.258913647
39.3876430901
39.7136072889
12.1201210454
12.0408225213
14.9313511985
15.053921655
15.096419598
12.8917799503
12.3906938009
14.949012127
12.3796965737
16.7737532369
17.0743974255
16.2953912015
15.318028866
13.9482536518
15.6145899274
15.7525876319
14.7341061414
14.6881467845
15.204973812
15.9699546377
17.0285940641
18.5057456434
21.4193822349
22.4092824208
21.9308133444
24.563623447
25.647732956
25.7473939661
27.1312912007
27.7548430217
27.6053567119
27.0046913549
27.4908115201
28.1822029755
28.8911000154
29.6392676234
30.4039781752
31.199263803
32.0006697039
32.795808479
33.5992699386
34.3652560865
35.0245023824
35.5526815141
35.9589934363
36.2574688132
36.4629785641
36.5878338756
36.639679137
36.6216942707
36.5331444473
36.3855828318
36.218739487
36.0457730891
35.6598819672
34.5748958492
33.3451362018
32.807935241
31.8616487609
33.4819007715
34.7316958061
34.398385392
32.8326564443
31.0225903859
28.0171504305
24.3488567802
20.9086426468
13.3617437691
12.8752116268
30.3663518426
38.1216882138
36.9504939768
32.7498949675
31.365238104
34.5760923766
39.3848670235
43.1971187655
44.7465911348
44.9272894892
45.2209774997
12.8348047106
12.7781076513
12.4275506914
15.4215189611
15.6788737585
13.7231687295
13.3881830711
15.9818775432
13.0987257268
17.6799470354
17.5652239731
16.7130701827
15.5782654298
14.3036642892
16.7559342712
16.3870331499
15.2226249078
15.1054371995
15.5564006432
16.2628481928
17.09255876
18.3717061091
21.8801477189
23.4656174352
22.2622268202
24.5414223636
26.1290883978
25.3373971246
26.7394323329
27.3689980264
26.8707225575
27.3324778458
27.9126354968
28.5491611553
29.2275597059
29.9784286146
30.7462995016
31.5313858055
32.3666138655
33.2125501164
34.0516956917
34.8650298424
35.583439851
36.1634696453
36.6204994964
36.9857006828
37.2734110601
37.4863698956
37.637125039
37.7469645653
37.8477489222
38.0163080812
38.3177022869
38.621299404
38.2611036096
37.054790173
37.5733850588
32.0158480173
26.468139681
19.0509442302
0.00231305548529
4.69729466842e-07
1.62691822695e-09
1.65990867885e-10
1.31723582734e-11
3.7103875635e-12
4.36740533884e-11
4.46240980389e-10
5.04076309429e-09
1.31660078578e-08
2.18631822352e-05
0.00573897835051
5.23690842014
39.7218817071
43.3491439203
42.1950684106
45.4667268283
49.6032460399
51.6989122817
52.0887515502
13.7276008452
13.8255291215
16.0756079095
16.1104908117
16.1801514344
14.4341980465
14.4537514804
16.8832507148
14.1504117973
18.4776389189
18.0410305303
17.1567853887
15.9204273492
14.7243591936
17.0682066941
16.6526117918
15.7041956069
15.5857063427
15.9537488552
16.5817878382
17.3324525392
18.3561847258
21.340725594
24.2577840815
24.4880352989
23.9684157004
26.3123999813
27.2693459057
25.8086893883
26.092938276
26.8073926456
27.5563275869
28.2604111771
28.9290545755
29.6185564539
30.3472273184
31.1221985739
31.9288728554
32.761975652
33.6508991254
34.5504695071
35.4131300599
36.1837031799
36.8234828664
37.3525292284
37.8060114848
38.1919949506
38.5020510882
38.7431843208
38.960734019
39.2630806435
39.8099076054
40.651156569
41.3141079173
40.4969979245
37.2511166733
24.6197881149
5.51707194166e-13
6.06820701474e-16
1.1375718856e-17
1.92826230229e-19
5.57894126611e-22
1.58541332644e-24
2.74432046034e-29
2.14661560629e-29
5.21148906911e-29
3.51295566926e-28
1.6454488224e-27
6.07829616352e-27
3.86266222322e-26
3.02437829444e-26
2.62381260283e-24
1.49338778307e-21
1.50117338435e-19
1.13913701211e-17
2.62315727742e-15
4.41559914445e-11
48.370340713
56.6726417427
55.601906386
14.5704397622
14.7642419136
17.7111905576
16.8388317659
16.3768593994
15.143233635
15.4806657083
17.6622589939
17.6394507226
19.4733670299
18.5870822208
17.6975777938
16.3525450089
15.2849432682
17.3997699441
16.8478420917
16.1566062754
16.0706129696
16.3615856772
16.9024561322
17.610819813
18.565783618
20.8595413879
24.4978267778
25.8111889085
23.7691683643
25.7981681564
27.3513059645
27.3812444545
26.4674441363
26.8648002527
27.7570188105
28.603233169
29.3467972896
30.0098853918
30.7466765088
31.5232085698
32.354124952
33.2142019454
34.1263531975
35.0838736971
36.0134779026
36.83390459
37.5230105384
38.1376668215
38.7304962165
39.2599885281
39.6556843536
39.9181255934
40.2118327244
40.7462595884
41.6930188135
43.1072038154
43.953226061
34.2833460226
9.4191839987
3.05088932142e-19
1.23546294395e-21
3.57275883945e-23
5.20128195479e-25
4.22593167472e-28
7.05137197684e-31
4.97054446754e-32
0
0
0
0
0
0
0
0
6.91317970207e-36
2.33167239425e-33
3.48768490909e-31
2.02344309424e-28
2.82625341556e-25
1.53048845808e-20
2.3242314837e-16
1.81205989086e-09
61.8038476578
15.2586219293
15.4741505796
19.8236241501
17.4123123208
16.3364434673
15.7667350677
16.2238812537
17.7892561986
19.2241182512
20.6093227639
19.2883081014
18.3744832859
17.0342897501
16.1290902366
17.9364607634
17.190373987
16.680726392
16.599540921
16.8073635527
17.2599292452
17.8931795378
18.7759187123
20.6571214471
24.3570672772
26.7782527087
26.1391044757
25.2949576791
26.7069015743
27.1839420177
26.5463471825
27.2799480493
28.1895662587
29.0813379473
29.8134795013
30.49943466
31.185476848
31.9751735954
32.8111955863
33.7055352472
34.652162837
35.6499824357
36.6504088531
37.5574356928
38.2985713904
38.9960013512
39.7505838203
40.4508699963
40.9133604257
41.1628162452
41.5081706295
42.2539583059
43.5287103633
45.255819549
34.3440883348
2.25013906877
4.41698836466e-22
1.44857986423e-25
5.85745870107e-27
7.98646860999e-29
2.19010674203e-31
0
0
0
0
0
0
0
0
0
0
0
0
0
8.90763125648e-35
8.85166885375e-34
1.94047760082e-32
9.40910755655e-31
5.22509333043e-27
4.3491775333e-18
8.38374170994e-23
15.791078402
15.9979259631
21.8466356952
17.8533991028
16.5220945059
16.3376012809
17.0264387481
17.2562278805
20.1638484157
21.4230439487
19.9622770445
19.0633145689
17.9058424866
17.9550942008
18.6869971608
17.7720241409
17.3966244999
17.3184605798
17.3605059377
17.7028548606
18.2277633972
19.0280447747
20.6345344973
24.1892030727
27.1695014135
27.7465472807
25.2263297122
25.7429397228
26.0940954235
26.6364654438
27.5699252641
28.6449054916
29.5499331252
30.3268253745
31.0380644151
31.7814141253
32.493251496
33.3314930298
34.2410117726
35.2073649465
36.2785297346
37.3635123899
38.343351652
39.0899596762
39.817164918
41.0831466033
42.6465570154
43.28693821
42.8156354716
43.0005554114
43.8541005478
45.1873176967
33.669516015
2.33739124321e-16
3.52275478974e-21
1.58036318634e-32
1.59697657769e-29
2.6058256757e-31
0
0
0
0
0
0
0
0
0
0
0
0
0
0
0
0
0
0
1.37620110238e-33
9.31940655866e-33
1.71857583573e-30
97.7780982704
16.2429258431
16.4160517307
21.7124380635
17.370701423
16.7650583096
16.82783691
17.931792302
17.3172846829
20.9641493132
22.1735954029
20.5956527374
19.6968597676
18.5862407062
20.1029199135
19.715983158
18.5530682313
18.2188321735
18.3736803844
18.133549188
18.313561254
18.660735888
19.3272743465
20.7499037907
24.0103576214
27.0212710912
28.8160590033
27.7140021989
26.950430664
26.885407511
26.8429356639
27.8289624784
29.2106117196
29.9942837857
30.8518327318
31.7789763056
32.3862901631
33.1003150427
33.949221143
34.8832673745
35.8666793284
36.9216924024
38.0745293476
39.1924031673
40.2609727288
41.4374788236
43.030565471
44.41506578
44.724496089
44.8238698168
45.2849719181
46.2046883141
37.1292284869
1.06295433435e-15
9.70265042557e-21
1.27524114771e-24
1.73202190647e-26
0
0
0
0
0
0
0
0
0
0
0
0
0
0
0
0
0
0
0
0
0
0
4.23454860655e-33
3.08213154085e-22
16.7491568516
16.8980079031
21.3807050797
17.0986294862
17.075454713
17.2255032633
18.7110668588
17.8080818513
21.6707883865
22.9088410852
21.2187678374
20.3218014837
19.1503418773
20.8780520967
20.6653466219
19.3950165399
19.0262937787
19.2770746396
19.0542532394
19.1407007458
19.2879389698
19.6849681752
21.0248757645
23.9660178208
26.7198745676
29.1030910271
28.8786142834
27.5360981069
26.4827706488
27.3022288541
28.2819026278
29.632366611
30.7570804265
31.7513143955
32.5961835709
33.1037587725
33.7924111698
34.6543325215
35.6113821664
36.6362304057
37.7136884689
38.9511633679
40.3552439793
41.9292609606
43.104687664
43.8754766613
44.9348811741
45.8490038471
47.3189643407
48.7696299749
42.2879071281
9.68558107343e-15
1.28606026011e-20
2.21774498251e-24
4.54870916722e-27
1.10132998866e-28
3.69679093743e-31
0
0
0
0
0
0
0
0
0
0
0
0
0
0
0
0
0
0
0
0
0
7.11630135337e-34
9.41551667868e-34
17.488819613
17.6371400262
21.0984816646
17.4054048019
17.634079887
17.7154361594
18.7638549751
18.5332345456
22.193388616
23.6080926329
21.8697294858
20.9881394248
19.8207245325
21.5751635117
21.5122094327
20.3100483172
19.8806088793
20.1511636955
19.9530624798
20.1089483345
20.1759432059
20.1983035908
21.492596185
24.1232069376
26.5648299118
29.1564640495
29.4235625415
28.330945623
27.0073761374
27.5123523651
28.8271683907
29.8169210394
30.8377239755
32.0217375438
33.4897780994
34.1223853033
34.7305432055
35.4714586708
36.3964010723
37.4960367799
38.6846272635
40.0544319571
42.014300974
43.7575318039
44.3238854691
44.9776271738
46.5608059007
49.7683688232
53.9343147358
46.2043905218
2.76720067728e-15
4.59680617985e-22
1.90226589187e-26
6.23690555984e-30
3.91332376237e-32
7.93199012952e-32
1.21805770024e-32
0
0
0
0
0
0
0
0
0
0
0
0
0
0
0
0
0
0
0
0
0
5.25986718064e-35
2.38835113156e-34
18.6026120754
18.7142710711
21.4260453063
18.3411077482
18.7753060447
18.5684585914
19.1093343547
19.821085155
22.2928057661
24.1434601522
22.5771431782
21.7183618211
20.5907793689
22.3673708584
22.3831365311
21.3761283448
20.9053680363
21.1607786639
20.8589930614
21.1687556757
21.3608705451
20.9259715274
22.0428091554
24.4867774856
26.6108837102
29.0061172961
29.6608817344
29.0172431805
28.8951591861
28.3456986701
29.1885058756
30.5214684714
32.0825180572
32.6091398214
33.7945684425
35.1258518409
35.7908122805
36.5852462162
37.4204627727
38.4457649941
39.7696552553
41.7923245548
44.315704177
45.3890528344
45.559110788
46.9169417168
51.1764768643
58.3798346027
52.4292016962
19.9180492559
6.96440949739e-24
6.50222588022e-29
4.44903729431e-31
0
0
0
0
0
0
0
0
0
0
0
0
0
0
0
0
0
0
0
0
0
0
0
0
0
0
0
20.1552646254
20.0479115846
22.2689258482
20.1902574851
20.6875720905
19.8210199958
20.0572292421
21.674384485
22.5496141673
24.7772825041
23.3916034548
22.5221064718
21.4352823339
23.19550796
23.2492350909
22.5461526379
22.3838252947
22.472236966
21.8579592041
22.3164504092
22.8305987342
21.9492728886
22.4860739463
24.9437113202
26.8661468598
28.8835195819
29.8133428903
29.1978654149
30.0658186177
29.8958803643
30.1989125034
30.3043456509
31.8918453103
33.7559240342
34.737792323
35.8864156988
36.8507773174
37.6859719214
38.6471977045
39.6964816369
41.3929111505
44.3634832261
46.5951192095
47.1988175933
47.9661769644
51.3185740011
58.52625317
55.4111014009
31.2880398808
6.21515969133e-26
1.08654109517e-28
4.97513313723e-31
0
0
0
0
0
0
0
0
0
0
0
0
0
0
0
0
0
0
0
0
0
0
0
0
0
0
0
0
21.7920849597
21.2981136087
23.1689934245
22.6275273193
22.3724595284
21.2589982104
21.0913252789
22.798056517
21.8866734673
25.2765858552
24.2952005577
23.3908133802
22.3431893645
24.0308517229
24.052379414
23.5258670653
24.3914597248
24.0418490766
22.9710518088
23.5678853368
24.1506167721
23.2472792906
22.6889596366
24.9468368255
27.0418744398
28.7949055729
29.8639295529
29.2737679007
30.4622416456
31.1638782851
31.5733502182
31.0739888617
32.0783867847
33.7258556659
35.6363847165
37.0891459487
38.1352831302
38.9500147514
39.8981277813
41.3101994468
44.0847221974
47.2842722302
49.0885254554
50.1318767318
52.4688768293
57.3479135999
53.5651878654
30.8850075139
1.67348558528e-25
2.42272345823e-28
8.48484493482e-31
0
0
0
0
0
0
0
0
0
0
0
0
0
0
0
0
0
0
0
0
0
0
0
0
0
0
0
0
0
22.602187133
22.1613347409
23.7372803058
23.6650664649
23.4215114546
22.6050131453
22.2587279316
24.1458574001
22.9233852477
25.9061615903
25.2079146773
24.29622927
23.3089993645
24.8874617502
24.8547916639
24.3396622998
25.3608926785
25.148765275
24.0348863294
24.7801906759
24.8968778042
24.0680045054
23.6627824121
23.8967312691
26.5122101423
28.2676061259
29.6218195568
29.2102893642
30.5141739623
31.7053227921
32.7052985075
32.8223697091
32.4917303144
33.7870319983
35.867242252
37.9559752467
39.5327134825
40.6016442005
41.5429618596
43.8941077053
47.4350817747
50.3361064153
51.9799954795
53.9573859196
57.9489264537
54.6113187422
28.1236824422
11.4846791748
7.96377809547e-28
2.26812523083e-30
0
0
0
0
0
0
0
0
0
0
0
0
0
0
0
0
0
0
0
0
0
0
0
0
0
0
0
0
0
0
22.6837805982
22.6800587335
24.0664872392
23.874799895
24.0715374468
23.6364963235
23.265390095
25.4694883718
24.5651094993
26.6999352161
26.1706148268
25.2234489763
24.3278718704
25.7806223395
25.7160330171
25.2688812234
26.1651829428
26.104789351
25.1294958192
25.791312511
24.8190409904
24.8149804503
24.6729725509
24.926560651
25.7300136099
26.8089743503
28.7268430139
28.9202440791
30.0781375189
31.7080850465
33.143135924
34.1539364391
33.9874837803
34.5675260901
36.0877573349
38.1700349744
40.4527421006
42.3211047992
43.9325777416
47.2314641071
50.8228864614
53.2662877971
54.6326209162
56.5650434036
52.2834452111
34.4002380871
36.8932337748
2.76626269008e-27
6.19668719791e-30
0
0
0
0
0
0
0
0
0
0
0
0
0
0
0
0
0
0
0
0
0
0
0
0
0
0
0
0
0
0
0
22.899989082
23.0260996253
24.331296747
23.0304736425
24.3346862993
24.1911229627
23.9265705776
26.0723293656
25.3976574274
27.4902970164
27.1533305272
26.1396712201
25.4047944857
26.6974747126
26.611595191
26.3251440721
27.0665339617
27.170011331
26.3508632192
27.1792455419
26.1442303607
26.3887406388
25.9149471586
26.2192842857
27.4574983782
28.0902293715
28.2980447917
28.5477084829
29.5753805318
31.573778585
33.0716078497
34.3635233263
35.2231138513
35.6374378631
37.3165010112
38.8789281632
41.1930380427
43.9024591716
46.8707887893
50.8071491058
54.0494585499
55.7776353282
55.4739077524
52.5696351209
50.1582017334
31.2667736886
2.32124353378e-26
5.28442448956e-29
0
0
0
0
0
0
0
0
0
0
0
0
0
0
0
0
0
0
0
0
0
0
0
0
0
0
0
0
0
0
0
0
23.5433740726
23.634133583
24.6070428001
23.389445885
24.5542551051
24.4796163317
24.3703636423
26.263738225
25.95684429
28.0636283715
28.0955531156
26.9844044791
26.5242570024
27.5885688998
27.4568658717
27.3406371368
27.9326436853
28.3129310389
27.6186352743
28.5918023089
27.8891002403
28.3796028537
28.2308313749
27.2423964107
28.2509937871
29.1683939515
29.3717458299
28.2797029854
28.9975995668
31.3770954596
33.1155546479
33.996963459
35.0173131999
35.9098005648
37.6746852806
39.5146498432
42.0321645555
45.4888525088
49.9890310299
54.4840049812
57.0574921472
57.4080278765
55.2050719224
50.1075929838
31.8083923193
36.8790188358
3.68239472976e-28
1.49321924988e-30
0
0
0
0
0
0
0
0
0
0
0
0
0
0
0
0
0
0
0
0
0
0
0
0
0
0
0
0
0
0
0
0
24.3598640142
25.3508011459
25.0178766002
24.2704669399
25.028567539
24.8094643759
24.780273938
26.4082779436
26.4491498082
28.289427337
28.9863577479
27.7167284443
27.4992496358
28.3044032998
28.2289022003
28.0984257567
28.2713967291
29.3374822607
28.9297869954
29.8177178151
29.7569832108
29.7073370909
29.624618514
29.2893979284
28.6537926861
29.3429928499
30.2291333715
27.7645153278
28.3723887769
30.6125928146
33.0454682093
34.3825411512
35.5123363069
35.8049931064
37.4415956732
39.6704447672
42.5136155366
46.9510548737
53.1071134044
58.032425792
59.5883405712
56.0631305735
54.141127123
54.4992051688
36.583744821
2.4959605515e-27
6.37029167227e-30
0
0
0
0
0
0
0
0
0
0
0
0
0
0
0
0
0
0
0
0
0
0
0
0
0
0
0
0
0
0
0
0
0
24.944223862
25.9783137413
25.6306031676
25.0418919145
25.6315549533
25.285761667
25.2362047617
26.6092645236
26.9086206811
28.2431042968
29.7539605049
28.387838152
28.0676417136
28.866669401
29.0267041044
28.7548010962
28.5213655971
30.0557673324
30.2427917572
30.8740714865
31.0491367882
31.2815412487
30.2807886415
30.3119744477
29.8660919296
30.8488681265
31.4597941841
29.2150170074
27.7661736667
29.459942836
32.1666005887
34.350816576
35.6459096725
36.1773412738
36.9280982179
39.227235672
42.3343375182
48.0296751005
56.0725569255
61.6194182245
60.8757322113
56.1203747512