/*--------------------------------*- C++ -*----------------------------------*\
| =========                 |                                                 |
| \\      /  F ield         | OpenFOAM: The Open Source CFD Toolbox           |
|  \\    /   O peration     | Version:  v1806                                 |
|   \\  /    A nd           | Web:      www.OpenFOAM.com                      |
|    \\/     M anipulation  |                                                 |
\*---------------------------------------------------------------------------*/
FoamFile
{
    version     2.0;
    format      ascii;
    class       volScalarField;
    location    "171";
    object      alphak;
}
// * * * * * * * * * * * * * * * * * * * * * * * * * * * * * * * * * * * * * //

dimensions      [0 0 -1 0 0 0 0];


internalField   nonuniform List<scalar> 
6400
(
0.828029100346
1.2358077921
1.88814476145
2.14715113682
2.41187159015
2.72322805059
3.28654066773
3.95348593396
4.04163366375
4.31076360216
5.41507774275
5.85766175739
6.17284736046
6.63070007184
7.37093948655
8.12632702232
8.65438605442
9.17259042004
9.65366232502
9.851652665
9.73339294241
9.61668316054
9.75793848789
10.2365624045
10.8105970031
11.2797022212
11.5503990851
11.7763700629
12.1056659661
12.5478530146
13.0518766138
13.3247143752
13.3121984337
13.2078908357
13.014044722
12.5916632899
12.3552535862
12.6209577859
12.3387450947
11.6800827513
11.464665413
11.8872725667
12.3704084989
12.5965220225
12.6542222596
12.5831137884
12.46503172
12.3713581757
12.3021636605
12.255849971
12.0477772392
11.1834856484
10.401573681
9.54842078422
9.22489513327
9.72584387054
9.67297116575
8.42098689107
6.89570867487
6.40444317254
5.60189322904
4.69640576111
3.78744384266
5.52776595517
9.61172375166
14.560199728
17.5550517439
17.2607802266
15.2433256734
13.5345666024
12.5488195343
12.6033353339
13.0135522755
12.8127974735
14.7539248247
14.1583196836
15.9901879381
9.88772196086
12.8714692589
4.81256571812
3.0751944747
2.37541206147
2.89889069167
4.08451520923
3.71105877367
3.25664048532
3.2200693875
3.4583595403
3.85095918131
4.37923497641
5.06846822913
5.75602052982
6.33341242118
6.88423615675
7.42635545858
8.07032188847
8.74360680385
9.44832352229
10.5388591479
10.506422747
10.0884934172
9.84884009055
9.8255952169
10.2180451663
11.1025797199
11.4167267641
11.6136945719
11.926194115
12.299427989
12.7036892266
13.1362359638
13.6455588964
13.6436188015
13.57175036
13.4899700876
12.7907271886
12.7352287873
12.9991489964
12.5319047434
11.487372211
11.1833104022
13.6532322751
15.0747452452
15.1261625926
15.0505182533
14.6672673379
14.1130000249
13.6914004121
13.0420703247
12.5214284662
12.5297340957
13.2213979284
13.1115863582
9.77010778676
9.76705102103
9.53014615084
7.85216498004
6.72605296587
5.83855466494
4.96852877501
4.31115365692
5.02589386492
3.96929762848
5.69553399395
9.65518530837
15.4698741314
19.1931328976
18.0038619024
15.8214686636
13.8425715648
13.0176900297
13.2905586162
14.2483148359
13.6087686881
13.3921355588
12.8216977323
11.5916741196
9.73655448528
8.17853409105
4.26334109543
3.02283925363
2.5484499147
3.02836368496
3.07493381829
3.28313251224
3.55996308281
3.46975727947
3.41303431527
3.78382757546
4.36563217989
5.04152345017
5.74821554926
6.38155210456
6.94909854851
7.36023496836
7.93784210098
11.2586492801
13.4328207066
13.62652159
12.5242809495
9.97120749174
9.26107137379
10.0631832378
10.5204173689
10.8580874736
11.3435983654
11.7593323954
12.0797023398
12.431201903
12.8725970123
13.2253475889
13.9388361788
14.017977226
13.4034346006
14.21535205
13.5562519682
12.5608582797
13.4748442567
12.9093868349
11.7568857515
11.4053270004
11.9155815846
12.4834175431
12.7505552612
12.8296990816
12.7997551555
12.6927103832
12.5277438237
12.3041789678
12.0457393443
11.7531611646
11.3432166022
10.7568219738
10.4591289055
10.3478126282
9.02410238809
7.74142389982
6.77124234528
5.94225148034
5.21853425431
4.70230400885
4.18063060624
3.9001260334
6.40232769175
11.5992593073
16.3028820926
18.615232688
18.7272449319
17.1089709936
15.3740086232
14.5842165146
14.3869475744
13.6558524105
12.999407949
12.9069672712
12.5067808116
11.4864068972
9.84842732709
7.41075462097
7.58667178577
2.77434272675
5.29092345767
3.09873597834
3.02259523588
3.63724914777
11.6706775741
9.97279129625
4.28016896795
3.81140697206
4.40018043078
5.0648810068
5.77344820307
6.38607769507
7.06814017062
9.15471434389
11.5363184657
13.1848463322
13.2414247886
11.2874065456
9.39765977215
9.34188100781
9.54263492055
9.83345989196
10.3523225702
10.9501918425
11.5172828382
11.9966034964
12.2571230355
12.7076427005
12.9533429086
13.7150907533
13.8448590984
14.6680712361
14.2949969638
13.1900908308
13.8488049989
13.0000594698
12.0415029312
11.8451032351
11.7527113345
11.786199716
12.1063245639
12.5033263088
12.7609213202
12.8723096769
12.8710568846
12.7834923076
12.6295486741
12.418371883
12.1610147496
11.8549761132
11.4795101974
11.0337792622
10.5669210514
9.93440690715
8.9663278249
7.86819369447
6.91082544419
6.14219423033
5.54564968117
5.11516549866
4.80826693363
4.95472028743
6.91092057546
10.768576957
16.5619798191
20.1504043263
20.3466774883
18.6624757645
16.2836431093
14.615653576
13.7387171322
13.8187513606
15.1282045601
15.0049075484
13.6364292585
13.4510261725
16.708658802
13.1089180703
11.1243668025
5.21881382563
7.26510715027
3.50135777054
3.82498581886
6.07978779398
11.5480392903
7.60590848857
4.34684147378
4.28451644351
4.61911004742
5.21986503389
5.96871626704
7.4823743854
10.2304501592
11.1847739805
11.2971006873
10.7610096608
9.71842177867
9.08928216607
9.46604179285
9.49449193309
9.47892202466
9.88205322841
10.4586067302
11.1083187727
11.7505645624
12.1278831613
12.7199376145
12.8096827722
13.6495967211
13.6443362174
15.2601959122
14.4713798726
13.466574581
13.7548546047
12.5802833035
12.126126188
11.9527458102
11.9197934512
11.9419901222
12.0289470537
12.2607781852
12.5608453497
12.7978092477
12.9258398921
12.9456523448
12.8751731402
12.7348664876
12.5395652145
12.2974696319
12.0051838996
11.6543851007
11.2403722941
10.7375436232
10.0328866959
9.07276724331
8.03775405888
7.14723727286
6.4797861853
6.02049741301
5.744313922
5.69618830795
6.21717141699
7.39125006341
10.5448119353
15.9374994931
20.1533160033
21.5466850544
20.3428149127
17.551313347
15.0366633881
14.6442157398
16.8009592866
17.6051609194
16.5124535617
15.545276621
18.1387947163
21.1189940996
16.422603612
15.5268693801
9.57416237064
8.67693954459
4.33000988261
5.19204716703
11.7994717887
11.2036243117
5.3373630156
4.76251714676
4.80983977811
4.94307625191
5.56287992344
8.65257837752
12.2258984497
12.4794589266
11.831265231
10.2448295802
9.00451332289
8.68411601645
9.57583813544
9.49794144796
9.22613059366
9.50319142029
10.0304181448
10.6939161769
11.2182623535
11.8903333587
12.8740266291
12.7474626274
13.9428018528
13.5297833749
15.6713458346
14.7201044098
16.0216657668
14.194932836
12.4743169018
11.95961238
11.9358981466
11.9967927997
12.0628652266
12.1271657427
12.2357992937
12.4286760996
12.6696668805
12.8820410852
13.0120351192
13.0446962757
12.9878265622
12.8629058067
12.6897370545
12.4751898512
12.2127130214
11.8892906976
11.4815100775
10.9381813884
10.1910757734
9.26263384878
8.31993709203
7.52601218551
6.93325603958
6.5757181608
6.45102299781
6.80316180238
8.22009946237
7.53356770848
11.7577766035
17.5097627291
21.2759230978
22.6841204171
21.7213322901
18.3329419521
16.1398548628
17.8963829077
20.0408483428
19.4602410943
18.4055189131
18.4185100178
22.9028856738
24.4488613385
19.4184608164
19.2027892828
11.6237282673
8.19366107137
5.26967250543
5.01904943645
11.6481051024
7.53603677453
5.15492316245
5.22646765286
5.29094601519
5.99083724233
6.28206815989
12.2288602298
12.6550332691
12.5172270706
10.6096853172
8.67236763364
8.28320873543
9.76400000585
9.65027376326
9.00065890826
9.22454044988
9.60874627188
10.1335604314
10.7922324554
11.708699145
12.6917533484
12.8003488521
14.4638171407
13.7573872377
16.1345591593
14.9791138632
16.3943060945
14.8862220855
13.8330413731
11.9575001345
11.7289242858
11.9315070622
12.1123307342
12.2143834071
12.3006836134
12.4271091775
12.60472379
12.812914049
13.0041858544
13.1305785499
13.1692049496
13.1242934742
13.0195236761
12.8767488338
12.6993704519
12.4737086161
12.1753953137
11.7658454324
11.1952314703
10.4395920469
9.56458362531
8.71570629554
8.00410627605
7.45718639366
7.096510425
7.09996564363
7.57891651562
7.90762957124
8.50608591015
12.6785417875
19.7614178496
22.4338054167
22.8638229747
21.7787753295
19.5048004629
19.3028752518
21.8574782687
22.2495544041
21.3458460103
20.6903087496
22.558771019
25.2151337931
26.6326550987
21.9954697131
20.8250082242
11.1744323484
7.42927783639
6.28682830478
11.609528309
11.5869541745
5.86737283772
5.67460387944
5.74177474983
5.97588364017
6.48947861232
12.0635422937
12.9098641302
12.7564018813
11.9987117136
8.91820723035
7.8973015044
9.71569576958
10.0240983139
9.03671721293
8.80922667367
9.27844297096
9.86545657973
10.3714808106
11.1264274542
11.7444606003
13.2512681168
12.9466064591
14.339317398
16.0615355449
16.1178382502
14.3659262509
15.4371557838
15.263946487
12.376959639
11.8120714882
11.8245609087
12.0252147234
12.2312935631
12.3651403787
12.4726756114
12.6131297452
12.7914180018
12.9841659113
13.1587441136
13.2781905123
13.3195336925
13.2880540282
13.2097132099
13.1054977045
12.9726834384
12.7883323661
12.5156181575
12.1069883077
11.5263189014
10.7887478255
9.97942701391
9.204011676
8.5018170626
7.85918755102
7.41580801837
7.52233336577
8.10633330178
8.87097559152
9.9131793068
11.0340841197
19.5033537865
23.8731363515
24.0355404201
23.4869352807
22.629709798
23.5912599916
24.9692457635
24.23242174
23.4735474025
23.5790051485
25.7693684725
26.3296332758
26.8569280398
23.9003617986
21.6898879507
10.204581039
6.95155229751
6.92768188497
12.4931837294
10.1565445228
6.09574150819
6.2368822183
6.40705399267
8.1478934689
6.40202992166
12.8365966566
13.310029827
12.7224594206
10.3382977448
8.09644537167
8.00861262479
9.86014435183
9.5244557181
8.7974780067
8.83517538337
9.25271433191
10.011407542
10.6865336776
12.0492620088
13.3062337786
13.0161928386
15.5619869494
13.8330511758
16.452127586
14.6169958023
16.6356942752
14.0506910073
12.9531081746
12.13074871
11.9153696232
11.9814071005
12.1479074557
12.3489562334
12.5139613463
12.6528038263
12.8082594269
12.9899387969
13.1777532875
13.341988998
13.4525731791
13.4958094708
13.4824836541
13.4380636138
13.3791918294
13.29687868
13.1583974347
12.9147611691
12.5144787597
11.9399519
11.2364934009
10.4865873982
9.72914393612
8.90011864641
7.96443932201
7.34967554318
7.76073473172
9.00489381203
10.3192243505
11.396561909
12.3013676486
15.625815012
23.7932424762
25.4651659108
25.6721586221
26.5429663633
27.7607733083
27.4335798418
26.3581511814
26.0512723053
26.8786053529
27.8912018089
27.5904079709
26.8750587717
25.7511726901
24.2755975512
9.30276229005
7.05008720924
8.14502199257
12.469289785
7.43605644197
7.11531241574
6.79550104702
7.04674403462
10.9447882509
9.39579705451
13.6619900172
13.486254632
12.671785646
9.22461046529
7.9169288991
9.96381877895
10.1428081236
9.12576345577
8.71942309551
9.02580623418
9.36908894148
10.0688358193
10.5894361485
12.2370427989
14.8129785252
12.7906116533
15.4246320936
16.5275366877
16.6832284272
16.9354092115
14.9477843129
14.8208018038
12.3221085503
11.9561836277
12.0474411621
12.1453682306
12.2833463659
12.4674690548
12.6554065851
12.8344901547
13.0169340508
13.2068809152
13.3926767984
13.5506749238
13.6553564405
13.7006181354
13.7084192524
13.7057688053
13.7000984049
13.6736140752
13.585536799
13.376225826
12.9925641855
12.4366351298
11.7731670265
11.0535953501
10.1957584424
8.97469082029
7.48869967171
6.93664652205
8.29534732627
10.3895278338
12.0662701079
13.303412043
14.2444627254
14.3127058064
15.5050312324
27.1638629311
30.0322923502
31.3603160207
31.4003283945
29.994831026
28.9916741116
29.106902576
30.024050158
30.1140258557
29.6556631879
29.183332329
29.3837201714
29.4795920018
8.85130324334
7.62846894287
11.922684495
12.3520748458
7.03501235729
7.78694257237
7.31380645218
8.12538376114
10.0537689298
13.2267288872
14.3255525908
13.6023761227
12.7266664749
8.85687292398
7.96995681706
10.5913932011
10.1087870841
8.97295274477
8.71889645903
9.17744225431
9.86668466854
10.3805387796
10.7791177552
11.7582180898
14.9232579446
16.0926051105
14.5190169971
16.7071757998
14.4459210421
16.9896032274
16.9272387798
14.6113999984
12.1394611811
12.0479237474
12.2153610494
12.3208371576
12.440257937
12.6045648894
12.7943075595
13.0115916909
13.2361640577
13.4431851823
13.6301454232
13.7845352767
13.8858383011
13.9371658791
13.9706282452
14.0139921596
14.0663493323
14.1007699636
14.0681149165
13.8987923436
13.5410014676
13.0151760975
12.3858615555
11.618375761
10.3616767612
8.2614272396
6.48829916218
6.93286505561
9.7327582517
12.5334470542
14.3871153016
15.6212344637
16.2943620199
16.2645701682
15.7493301779
17.5701184375
31.6159336906
36.998064701
35.820069498
33.4408525639
32.4872631844
32.7160833253
33.1658976975
33.1463734982
33.1357493887
33.3908135335
33.8027721228
34.3890176368
8.80684755732
8.31728789121
13.4583188723
12.728395395
10.4012017789
8.89154975107
8.00954850682
9.69084745223
9.09814093713
14.1470066064
14.7893663925
13.7659581808
12.5289034267
9.14388522766
8.74858074426
11.1216858224
9.98047347537
8.94022597956
8.81859247632
9.20940305605
10.0783622753
10.8026438169
12.8572398146
11.8964412743
14.2654890345
16.4703634613
14.0753780736
17.0316995917
17.4750910913
15.3870409095
15.3228413628
12.8518808511
12.4906412573
12.3680194885
12.4280235326
12.5278155282
12.6337430794
12.7783570786
12.9405353081
13.1660274577
13.4488093085
13.7055191837
13.8984971307
14.0449041561
14.1454885375
14.2090511939
14.272841831
14.3638837746
14.4750600866
14.5719879566
14.5955236497
14.4719683882
14.1587045363
13.6746804858
13.0363539356
11.9554791846
9.63011134463
6.75126498241
5.73669579234
7.98545200915
12.2891158019
15.4855461336
17.3588154157
18.637862176
19.2261361663
19.002268689
18.3029281896
17.1538600225
27.6140526106
37.9675826088
40.8350680528
38.0598172892
37.1124791877
37.2184824723
37.3898838506
37.2136544768
37.686628904
38.142175279
37.8250181035
37.9098805013
9.14310932485
8.83995149643
13.0210130618
12.978974835
12.898049985
9.74421170389
8.84272972561
12.8556328367
9.10302435799
14.9837295103
15.1389901885
13.94758797
12.3576453519
9.5028776171
12.1325874065
12.2360606498
9.97800181263
9.04827784026
9.04969362678
9.37014017101
10.0439762814
10.7317712501
14.4669855828
15.5167732051
13.4224191661
16.5768971331
17.3317397296
16.3996379963
17.4523877246
17.3773061789
15.9612795329
12.7665244078
12.6840842625
12.687526291
12.6868082915
12.7462794336
12.8196254696
12.9829185319
13.162385677
13.3465911626
13.635086367
13.9567406541
14.1954601449
14.3427677145
14.4397120065
14.5196881964
14.6189517758
14.7572763028
14.9218980123
15.0726387757
15.1457089748
15.077989381
14.8399078311
14.3925750509
13.598540132
11.6478946913
7.83828844789
4.82100720816
5.46224625058
10.4356155393
15.905725283
19.3182171599
21.0790657786
22.6034475589
22.7548517205
21.6562795948
20.2926178105
19.0191295299
23.774483173
35.1336448805
42.1828602752
43.3394911514
41.4878005973
41.7657653142
41.8231784455
42.0335007125
42.6954834603
42.9558042948
42.6659742173
42.6958327501
9.53371707146
9.36224883328
9.10841739071
13.1692596932
13.238259377
10.2079766145
9.62101319702
13.6444699434
9.45628570639
15.8073109384
15.4302587294
14.1356162743
12.3180606885
9.62768846955
13.3477615358
12.5159141401
10.1436399989
9.31006655981
9.34488976072
9.7129937584
10.1334750691
10.6552990315
15.1143308538
16.4745127214
13.6162532759
16.7107935084
17.8463500763
15.2404037721
17.0661869935
16.590820766
13.3994705186
13.1291513516
13.0995305931
13.0284051297
12.9564283466
13.0307286074
13.0848518778
13.1502159481
13.3615963806
13.5981230022
13.8650902228
14.1997686623
14.4909178865
14.6704883502
14.7772070766
14.876933317
15.0120292968
15.1891957873
15.3983161201
15.5906431801
15.683287773
15.6875722182
15.5716680555
15.1597841275
13.9032391849
10.0681342978
4.63819937879
2.3765518262
7.58420477053
14.8969108727
20.8648958543
24.1772502388
23.8674930358
22.0740042033
19.1083832343
17.207811567
16.2455613024
14.7311763995
11.6941560742
14.0771121821
41.7325882107
45.3073713412
46.3458962885
45.6881216037
45.3762619788
47.0875334142
47.7195236692
47.9111461168
48.8643117893
49.2932921614
10.0875472317
10.1325968957
13.7354905463
13.6253298942
13.4586979109
10.5646051348
10.5373200466
14.2236206756
10.2588502284
16.4795341301
15.6796504004
14.3240544069
12.3285812859
9.87098499875
13.49931067
12.3959052332
10.3208602306
9.61244871597
9.63673801873
9.96088393199
10.3623005803
10.7756350662
14.1954009009
17.2291158973
17.342903215
15.684680459
18.0021632312
18.5918735932
14.7491916806
13.6965660251
13.2141257033
13.2869307594
13.3261988655
13.3049393446
13.3058328106
13.3014561009
13.3471175179
13.4426710892
13.5551220523
13.8228124065
14.1410379373
14.4804376046
14.7925577514
15.0110182618
15.1569603936
15.2833153572
15.4466988097
15.6790699171
15.9317159336
16.0979790723
16.1606811411
16.25715675
16.3029425178
15.8218192445
13.4026436169
7.09619406806
0
4.15472614044
12.6860565605
20.9675394558
24.8534594493
20.972957784
13.4850055335
0.0964815209295
0.0754681319251
0.183219270111
1.23504273945
5.73786807135
10.7864581456
14.1943577418
10.1417070701
31.2920787804
50.0369079895
50.6739346085
48.3511541173
50.7678929705
52.6277293056
54.8847721349
57.1883988254
57.3900829181
10.5692294818
10.7436851649
15.2350689102
14.0119580259
13.1680905425
10.9571617738
11.4672595569
14.613578895
14.6211668234
17.2587267553
15.9461517128
14.5692306854
12.3628056946
10.2690621241
13.6490358251
12.2364996657
10.5271112167
9.93279770485
9.90474233891
10.1629665447
10.557000552
11.1029281991
13.3677043802
17.4527199003
18.7383122963
14.7951108737
17.5797784343
18.4115057904
17.6086029069
14.4871485857
13.3876711454
13.4843603331
13.6282215397
13.7072814419
13.5545548115
13.5862091459
13.5887584988
13.7022096077
13.8262358108
14.058531004
14.4188020401
14.7992743599
15.1076347046
15.3350801381
15.5455516788
15.8005659762
16.0647183861
16.3317750203
16.4829490853
16.5668647704
16.6662575093
16.7869724071
17.0581329788
16.5399355006
10.949098098
0.0011197156587
2.54839037168
9.92277946486
17.9896658249
19.192536924
1.48570227571
0.00247903662417
0.000174748429349
0
0
0
0
0
0
0
0
2.43045264485e-08
8.1974136096e-06
0.00122615834927
0.711377807613
48.239052566
58.4878891206
59.9098919708
67.0857641045
65.8477812649
10.9405637453
11.1433525647
17.532266867
14.2393548704
12.511946052
11.3216400676
12.0986005547
14.3169304419
16.1713605165
18.1561391016
16.3405788196
14.9142029416
12.6020733888
11.0035512957
14.0115660938
12.2505758435
10.8394177686
10.320757195
10.2134823466
10.3985294868
10.7306238042
11.2511485678
12.9871642116
17.3017675656
19.6777540065
18.6574584779
16.8264290439
17.7131653013
16.9408767516
13.6763192541
13.8495899944
14.015291959
14.2825991765
14.1592836908
14.0248007016
13.8597565191
13.9253049187
13.9552779896
14.108036163
14.3370209105
14.6738406929
15.1018336012
15.5410048365
15.7995824308
16.0644608435
16.443627511
16.8499359115
17.1517362642
17.2776349544
17.3935312113
17.5334382217
17.6530864946
17.5246578816
16.5298284819
10.3284112248
0
4.92851188599
8.37023194278
0.280778666152
0.000769971410129
0
0
0
0
0
0
0
0
0
0
0
0
0
3.13163795528e-07
3.11196336622e-06
6.82209796422e-05
0.00330794096668
18.3697552383
71.2537699409
50.0209608806
11.2105042459
11.3993201763
19.7060539307
14.358270687
12.1995149823
11.679370897
12.8897991154
13.0879839539
17.12679562
18.7809934233
16.7323245556
15.2737319074
13.0655710274
13.202563354
14.5083562873
12.5251111308
11.3692516736
10.9396444295
10.6318468864
10.7272752817
10.9631718758
11.4169566377
12.8585588281
17.1650818299
20.0270312928
20.3157736333
15.6022403198
15.8337948347
14.4431450833
13.7673222571
14.0160188184
14.5585198974
14.768304285
14.5964577754
14.4468988173
14.5429681265
14.2789505601
14.2823419301
14.3873045259
14.5743365432
15.0331147207
15.515632619
15.9625691829
16.1775316898
16.5904337265
18.6429663708
21.450334225
22.3333742067
20.5041738982
20.322496112
20.576589571
20.9711135849
21.0533446976
19.8071625097
18.8326677001
5.55605098029e-05
0.0561445834519
0.000916124877185
0
0
0
0
0
0
0
0
0
0
0
0
0
0
0
0
0
0
4.83828245939e-06
3.27640496777e-05
0.00604196240419
59.259502468
11.4822246988
11.6435906762
19.3613630307
13.2315809836
12.0788361196
11.9701091452
13.7793487945
12.6674627326
17.902490971
19.3887389515
17.1247099619
15.62190724
13.394833111
15.7573771062
15.2458039887
13.011595018
11.9994937084
12.0768586842
11.2798339327
11.2322598775
11.3052082418
11.5934398027
12.9049613245
17.012865058
19.8569628461
21.4306564687
19.4175843602
17.9338352762
16.4328122228
14.1334594839
14.353154732
15.4426476928
15.000774447
14.9736835588
15.4666020303
14.9943181417
14.7549600277
14.7319866491
14.8275229027
14.9915620726
15.2461519205
15.8065434657
16.5026241838
17.7853298309
19.7177501402
22.3894554884
24.355823198
24.3173276687
24.6281465573
26.2166590232
28.4977804164
31.9184132541
33.4930771039
31.85309813
27.5558140791
23.7914232512
0
0
0
0
0
0
0
0
0
0
0
0
0
0
0
0
0
0
0
0
0
0
1.48873171306e-05
99.0887792743
11.8639946702
12.0158830593
18.7771903597
12.4126029897
12.1815566802
12.1842078813
14.4999039682
12.8885554003
18.506410724
19.9811314624
17.5259385586
15.9970250785
13.6857307517
16.3243244639
15.9088312915
13.5712444322
12.6088328899
12.8625281795
12.0813583364
11.9717148253
11.8880104197
11.7615131283
13.1359486875
16.976875677
19.5394269686
21.7919410426
20.6779028466
18.0731787622
14.5854228829
14.678730091
15.0615258349
16.1001441656
16.350178648
16.3716557382
16.2657472402
15.4912273144
15.2708856625
15.2950246392
15.3677499576
15.5466711855
15.7733789745
16.4157038695
17.7392470409
20.3266977739
22.002684904
22.2554830802
23.361458133
24.4437375685
28.4098920739
33.0681159741
39.820077013
44.2345523903
45.0565895869
43.9021946198
15.9918050775
0.387192362869
0.00129967333391
0
0
0
0
0
0
0
0
0
0
0
0
0
0
0
0
0
0
0
0
0
2.50186371412e-06
3.31019420882e-06
12.5161030276
12.673184196
18.1003227054
12.36888499
12.6341982859
12.5123761239
14.0970412018
13.5402375997
18.8461088513
20.5241973969
17.9669572453
16.4327647439
14.1328265809
16.8655160706
16.5330929269
14.2805200579
13.3158595396
13.6497785967
12.8399363455
12.8673638184
12.8192472406
12.1233909823
13.5966307577
17.0972880232
19.3817960967
21.8847710993
21.099777043
18.2996529305
14.7283678876
14.7911931804
15.9298240673
15.7260999925
15.7290271908
16.1356508973
17.23343007
16.4599332627
16.1660072517
15.8775755906
15.8935238212
16.1998949008
16.5711773266
17.2570263194
20.2502425995
23.0435066922
23.0297337641
23.1843106797
24.90551184
30.2283599277
37.0735037925
43.1578531309
47.7857830641
44.0200348125
27.3344725106
0.0219269630862
0.000137579934246
0.000278863377201
4.28230089007e-05
0
0
0
0
0
0
0
0
0
0
0
0
0
0
0
0
0
0
0
0
0
1.84920089621e-07
8.39667790322e-07
13.5683218279
13.6503412159
18.0075627988
13.1281362387
13.7896720257
13.2261637662
13.9894477715
15.004185768
18.5293839371
20.8433536212
18.4831493565
16.9545083768
14.711122332
17.4834135777
17.1914773496
15.1902588257
14.2634648941
14.6361454098
13.5957021219
13.885093831
14.1466344716
12.7992525984
14.0613131562
17.3604989704
19.397933392
21.6402787981
21.2599570867
18.5802760409
17.5718537064
15.7374675517
16.4415743527
17.1238810515
18.0829495099
16.5660970717
16.8561413577
17.6296744253
17.0261192757
17.0200479593
16.7978201337
16.8644813572
17.3370642949
19.9899464719
24.2422713313
25.1349145717
24.4920166969
26.1313552973
32.6230739624
41.3817967174
47.36509846
46.2613432911
36.6498182863
0.228597443854
0.00156413906842
0
0
0
0
0
0
0
0
0
0
0
0
0
0
0
0
0
0
0
0
0
0
0
0
0
0
0
15.1250015322
14.8546011837
18.4276491422
15.1094134625
15.8898896765
14.3709155302
14.6912090645
17.2100659055
18.4077701504
21.2794103266
19.1445794315
17.5791032677
15.4052393899
18.1339869292
17.8439097993
16.2194603455
15.8363332659
15.9895463966
14.4320320243
15.048120759
15.8415202451
13.9000249305
14.3139454407
17.6728958429
19.5822853141
21.3632052445
21.4115468139
18.4667375103
18.7542252275
17.4790831677
17.723163763
16.0913756507
16.8075204508
18.2372270248
17.7321539934
17.9313477512
17.9303088148
17.8336476014
17.965502165
17.9618006336
19.6378825488
24.7645218028
27.6351339613
27.5863815901
28.2438172692
33.3082060224
42.6223779713
48.3733889983
37.7127369272
19.6848765927
0.381993061413
0.00174909752284
0
0
0
0
0
0
0
0
0
0
0
0
0
0
0
0
0
0
0
0
0
0
0
0
0
0
0
0
16.82305402
15.9655319581
18.9496769886
17.9237753146
17.5578099926
15.7727124938
15.4909770295
18.2642070353
16.8697490289
21.5613783469
19.9397831304
18.3000627375
16.2090670118
18.8016640488
18.446850228
17.0551179037
18.2892776755
17.6474810102
15.4038675325
16.4209566545
17.2174851512
15.3718408405
14.0730387405
17.5357187008
19.6675506839
21.1080807588
21.3988557141
18.4198381868
18.9437033968
18.7989280598
18.8409736095
16.7197824704
17.3049067433
17.5331418761
18.6603028539
19.1660294553
19.1213113059
18.9061263024
18.8827337165
19.8954445177
24.7121391616
29.4942167972
31.1827654474
31.7807389076
34.5563729471
41.0978051073
43.8277896163
27.6475150285
22.5386753863
0.851751999884
0.00298299982088
0
0
0
0
0
0
0
0
0
0
0
0
0
0
0
0
0
0
0
0
0
0
0
0
0
0
0
0
0
17.527164133
16.7377989092
19.2242391977
18.8233746391
18.4772096735
17.1443676439
16.5641299758
19.5962809015
17.7565966492
21.9750878097
20.7388623964
19.0747708245
17.1135387211
19.5065862423
19.081651872
17.765258051
19.1498349385
18.6094414562
16.3796019919
17.8299137534
17.7898286143
15.9175055143
15.2331049157
15.4046847558
19.1234638144
20.5163087029
21.0982988458
18.3287269807
18.8920264607
19.1827052499
19.6673822526
18.9898170436
16.9220676006
17.3211550366
18.7447618694
19.9682144587
20.4280873438
20.5929668245
20.5705978402
24.5133461838
30.2734206314
33.8222031394
34.9750542089
36.2506079035
39.7583542052
38.1160445068
23.066700797
24.887573595
2.79980940309
0.0079740021288
0
0
0
0
0
0
0
0
0
0
0
0
0
0
0
0
0
0
0
0
0
0
0
0
0
0
0
0
0
0
17.4094804177
17.2642325773
19.4030445153
18.8820430584
19.0722380516
18.2286513612
17.5173111375
20.8961394617
19.472694874
22.5364584524
21.5923323919
19.8851160282
18.1088986329
20.2619291351
19.7953173648
18.6435513927
19.8303235511
19.4531050155
17.4636576612
18.7532413513
16.7789855563
16.5028429161
16.1786447096
16.6077518968
17.5708739055
18.3485524383
20.1583206962
18.2003116275
18.0841448663
19.0551961297
19.9899367352
20.305650494
18.5877508889
17.9900452964
18.5042631968
19.642718374
21.0546594695
22.3279062636
24.0186135913
29.8883226079
34.94362569
37.4430357348
37.7531456515
37.899187267
32.7058138503
24.7155193791
25.3450397613
9.72529394749
0.0217855682024
0
0
0
0
0
0
0
0
0
0
0
0
0
0
0
0
0
0
0
0
0
0
0
0
0
0
0
0
0
0
0
17.5566666328
17.6503510162
19.606452623
17.4352062686
19.2747223075
18.7870521425
18.1549772205
21.3569151472
20.1841438241
23.1540064805
22.5126556322
20.7121694944
19.2102172277
21.0554523235
20.5596627576
19.6684027344
20.5444344163
20.4106059769
18.6647194651
20.0596297992
18.0655828504
18.3158540008
17.382102341
17.8126054523
19.6610239107
20.2466390373
19.7370450957
18.0396616186
17.3216990363
18.9595517444
19.9545703169
20.4262141348
20.3358782591
19.017132744
20.4178704739
20.3959671306
21.6098221035
24.0779532425
28.3768201655
34.7188331661
38.7484615628
39.9097785919
37.4417947876
29.5459945896
26.9888418193
27.2726860588
24.3206158493
0.185783445978
0
0
0
0
0
0
0
0
0
0
0
0
0
0
0
0
0
0
0
0
0
0
0
0
0
0
0
0
0
0
0
0
18.2261469541
18.3018279193
19.7718114785
17.7804951856
19.4263053108
19.0373522337
18.6061568848
21.3883788125
20.7050374972
23.5894777011
23.4531865773
21.5088727243
20.4178260462
21.8493778708
21.3056560757
20.6759816751
21.2147009753
21.4695226568
19.9227576694
21.3450631148
19.8458454615
20.5584496358
20.1843671077
18.4734366585
20.1066554489
21.2220533805
21.3212524812
17.9199707272
16.4226776992
18.8423446006
20.0592577797
19.5861417564
19.6080505344
19.2320106519
20.2908693763
20.7413208077
22.3374378963
25.9729278494
32.6693016985
39.1948778616
41.9864068276
40.5704436725
30.6038009526
27.6851235908
28.5378574383
26.6388833865
1.29461208822
0.00524968080045
0
0
0
0
0
0
0
0
0
0
0
0
0
0
0
0
0
0
0
0
0
0
0
0
0
0
0
0
0
0
0
0
19.0856434943
20.5058373826
20.0541108781
18.7877887614
19.8897230771
19.3446033399
19.0453827353
21.4036220251
21.20507158
23.6384962711
24.4050568102
22.2495240122
21.4934380657
22.4484678167
22.0397076514
21.3972808786
21.1873358388
22.4529783773
21.311731238
22.4541535793
21.9712596154
21.7480023011
21.4538752558
20.9834690567
19.9255193257
20.8603173894
22.2456791205
16.8833616484
15.8787936795
17.8880395999
20.02665302
20.3521658578
20.8597493549
19.1782967028
19.9679286114
20.9631681128
22.6861993763
27.7192585257
36.6783212834
43.2696737215
44.6744203201
36.3785138929
29.5945214234
30.8919346076
30.2410201893
8.77499817054
0.0223959059515
0
0
0
0
0
0
0
0
0
0
0
0
0
0
0
0
0
0
0
0
0
0
0
0
0
0
0
0
0
0
0
0
0
19.7158347091
21.1661229722
20.6909390722
19.6853205133
20.5528126628
19.8725444192
19.5616782705
21.5190403301
21.7140949642
23.3931795559
25.2728158788
23.0172773298
22.0901082649
22.9377421538
22.9059833335
22.0543455134
21.1592755881
23.1357008511
22.8363330419
23.4105529127
23.2381464549
23.289538874
21.442968594
21.427249079
20.8508938139
22.6820409913
23.5591294421
19.6654760057
15.4190899522
16.6915715015
19.3758596568
20.677568966
20.7224923095
19.7930748159
19.4384456446
21.0359976515
22.6055013511
29.0914913502
40.3081541618
47.3128767216
44.1044118425
30.5079798897
31.4430721237
33.4203354419
29.3147900323
0.258734434222
0.000869494636548
0
0
0
0
0
0
0
0
0
0
0
0
0
0
0
0
0
0
0
0
0
0
0
0
0
0
0
0
0
0
0
0
0
20.1978058546
21.4988159278
21.2700885344
20.2915512233
21.2263086519
20.5828592713
20.1703744529
21.8253617752
22.2991863641
22.734706828
25.85239129
23.8943755815
22.5148952311