/*--------------------------------*- C++ -*----------------------------------*\
| =========                 |                                                 |
| \\      /  F ield         | OpenFOAM: The Open Source CFD Toolbox           |
|  \\    /   O peration     | Version:  v1806                                 |
|   \\  /    A nd           | Web:      www.OpenFOAM.com                      |
|    \\/     M anipulation  |                                                 |
\*---------------------------------------------------------------------------*/
FoamFile
{
    version     2.0;
    format      ascii;
    class       volScalarField;
    location    "590";
    object      alpha;
}
// * * * * * * * * * * * * * * * * * * * * * * * * * * * * * * * * * * * * * //

dimensions      [0 0 -1 0 0 0 0];


internalField   nonuniform List<scalar> 
6400
(
0.883788986129
1.40529169569
2.22067105443
2.74755597359
3.25199839552
3.7613822305
4.42227147699
5.16513895183
5.57159038881
6.21109528801
7.44406207649
8.28076459122
8.97577270105
9.76409824786
10.7489269188
11.7803341648
12.6906760478
13.5459553109
14.2656541861
14.6747212175
14.8535453119
15.1531818432
15.7847300812
16.7365652037
17.784282401
18.7216577941
19.4841899379
20.1872283445
20.9358729811
21.7450519181
22.559679421
23.1796876066
23.5283637721
23.7321470767
23.8291456077
23.8059059779
23.956509108
24.3522221833
24.4158030176
24.2465536944
24.4650856995
25.2066308352
25.9570996981
26.3564446825
26.4585016521
26.3558001766
26.1164160393
25.7878320382
25.3831080407
24.9225997395
24.3135067906
23.3189140157
22.0101952573
20.4492830899
19.1088216212
18.0603287005
16.5600356913
14.2776570827
11.8680816231
10.0161205528
8.10988337575
6.12428962369
4.12095530911
4.73077737704
8.54463684649
13.4217717122
16.3893453771
16.0897861423
14.1114998586
12.5356475319
11.7209213461
11.9843686279
12.5827875997
12.5021971985
14.5972120208
14.0553455527
15.9521902672
9.85379722902
12.8658981188
4.80881380596
3.14669479937
2.51352437162
3.1267137962
4.38088514963
4.29261178921
4.19329622249
4.41527683681
4.86447422072
5.5042581926
6.31939421062
7.30439737223
8.28675563307
9.15285528966
9.98154402915
10.8252902863
11.7906398837
12.8046551557
13.7750679321
14.8012853432
15.035241591
15.016316906
15.2821043704
15.8783738061
16.8128873553
17.9991895015
18.8729715959
19.6023332305
20.3471327061
21.113112707
21.8908211969
22.6729476478
23.3927725436
23.7368371519
23.9368815538
24.0714245922
23.9475166283
24.1528998309
24.5723612787
24.5781858603
24.2532709858
24.4381451194
25.8123552442
26.9116780222
27.2073621039
27.2432189198
27.0453286173
26.683819742
26.2699848508
25.6751482367
25.0258720686
24.4977517375
24.1094801598
23.0433933651
20.6738622707
19.4719455737
18.1640823106
15.993773463
13.7747252622
11.6425400428
9.54108428022
7.62860462217
6.48915387016
4.53183478782
5.17387923859
8.69506210645
14.4769031389
18.2072058757
16.9174015355
14.7594579216
12.8651073831
12.2198105417
12.6997500521
13.8595645727
13.3150126042
13.1992602392
12.7019356365
11.5261697236
9.70145958663
8.16320592018
4.24748885837
3.23488398718
2.84254115577
3.35850372193
3.64307861152
4.17940231658
4.62041944256
4.61320603724
4.76953571672
5.4086770178
6.29655978689
7.28879112692
8.29092361428
9.20381239302
10.0369953703
10.7357055046
11.6088607424
14.2415071551
16.2477946352
16.6722404908
16.0941815218
14.8237534636
14.9381228591
16.0076267265
16.9954337419
17.91630652
18.8634177639
19.7066874605
20.4541837392
21.1992941075
21.9753337856
22.7201415337
23.5385372092
23.8834411199
23.8312149735
24.3194034181
24.2107893904
24.0588774084
24.6946305345
24.7411793006
24.4734216616
24.6718718717
25.4022066407
26.1369459935
26.5405545568
26.6675853887
26.6076411517
26.4020994284
26.0716227596
25.6190576542
25.067541185
24.4189554715
23.5609772331
22.3660385173
21.1130506532
19.8771976288
18.0248009015
15.9000864653
13.7690480743
11.6743169759
9.67515107889
7.91092764029
6.24958969406
5.14150401035
6.55136068014
11.0975546109
15.4883536574
17.6404422043
17.747583873
16.1796254323
14.5458718393
13.9102115769
13.8684375187
13.2475398106
12.6897912399
12.6986956692
12.384274147
11.423521311
9.81109072555
7.37907440848
7.56595998544
3.24481956965
5.50733569432
3.67786623672
3.80028251929
4.49736879817
11.8777006659
10.2682396744
5.33680439686
5.38205424599
6.29605231822
7.31292718141
8.3342575937
9.22267777507
10.0769610295
11.7826397389
13.8832441988
15.5595001995
15.9957433101
14.9852202854
14.237261358
14.5868932453
15.1876605965
15.9797999368
16.9692499121
18.004173575
18.9872381965
19.8603722944
20.5847266561
21.353587232
22.0520746423
22.9401851456
23.5296330801
24.1871382303
24.1396391837
23.8469638574
24.3040792243
24.2480132862
24.2130964919
24.4454381736
24.6609299359
24.9953281072
25.5723954637
26.1750147642
26.573891074
26.7402808864
26.7170675201
26.5398149839
26.2304029209
25.7983695291
25.2516289014
24.5754205535
23.7118835946
22.6231845316
21.3709039815
19.8993338975
18.06623362
15.9811506929
13.8584297307
11.8135575517
9.93997157724
8.35073161732
7.17124996131
6.86900304947
7.89048319957
10.580235925
15.9082099673
19.3582380754
19.5175303652
17.859103615
15.518964646
13.9499031691
13.2089900677
13.4235034265
14.8647219754
14.8231409249
13.5177180164
13.3890481464
16.6840028595
13.0852108108
11.102019538
5.67492260099
7.57446740307
4.44266571084
4.76086977354
6.59474694482
11.7704998074
8.24322868875
5.7966303206
5.90542811494
6.51850474811
7.4580728603
8.49387056667
9.91462898665
12.2009728558
13.2372650118
13.6493672565
13.708208868
13.5649917227
13.7026998952
14.2881588234
14.7200651734
15.2349905412
16.0733104758
17.0745331237
18.1272238524
19.1431687902
19.9836144072
20.841329113
21.4701929349
22.3733803658
22.9819220852
24.1869996444
24.1165963354
23.7656108373
23.9750872491
23.802873281
23.9575222708
24.2597444273
24.581753323
24.8906932185
25.2625916868
25.7600230791
26.2757832673
26.6580662634
26.8495467576
26.858453823
26.7094270805
26.4240978044
26.0147083403
25.4826674312
24.8100616003
23.9616286851
22.9136220051
21.6551135416
20.1133156147
18.2405475104
16.1706471697
14.1060810766
12.1931431561
10.5565108828
9.32997644326
8.67156926731
8.81073984119
9.15105434065
10.8539332831
15.448491102
19.4475803115
20.8300547425
19.6668015705
16.9106528222
14.450804778
14.1613134965
16.4531652923
17.342672898
16.3190110894
15.4141053179
18.0781823755
21.0951169212
16.4059991818
15.5215661021
9.96911382476
9.13588128322
5.53416388966
6.08953136259
12.053700348
11.5290007061
6.64543302179
6.3932238568
6.5325184173
6.8703940544
7.70708916595
10.3253253508
13.5282541797
13.9843172854
13.6635065954
12.8026061295
12.5043755373
12.9012176573
13.8541149681
14.2633856024
14.6116164884
15.3067338659
16.220559181
17.2558101861
18.2381890702
19.2655957703
20.3687007759
20.9478953335
22.0133792896
22.4236927473
23.87570845
23.9653332013
24.7810750554
24.0085707479
23.3853776779
23.5232554329
23.945715415
24.3804706051
24.768722914
25.1282480722
25.5203926065
25.9775213175
26.4382305592
26.801689585
27.006622853
27.041429086
26.919538
26.6612840487
26.2804614301
25.7759401855
25.1290648632
24.3094718303
23.2836042232
22.0074033663
20.4256320956
18.5587309382
16.5647310217
14.6425942421
12.9481495363
11.6160500822
10.7522052092
10.511878122
11.0693761645
10.2365911985
12.6963084358
17.3831455224
20.7722388982
22.109990918
21.1878170739
17.8184155803
15.6316274878
17.4571453982
19.683655131
19.1741988747
18.191193487
18.2782951526
22.8541953864
24.4412479058
19.4357298083
19.2375395401
12.0890443757
8.99435587098
6.72888554269
6.30868895177
11.9989728845
8.42692701167
6.87032786432
6.98681951852
7.11561788991
7.80966304976
8.30825143051
13.2580358284
13.9578725321
14.0131438021
12.7121252656
11.7794827455
12.1027159926
13.4314523277
13.8251007136
13.9702786941
14.6274598351
15.4223165547
16.3386496324
17.3716755531
18.5451812886
19.6704394494
20.3960255867
21.7853525996
22.0922630629
23.6662248766
23.609495307
24.6696017057
24.2267416566
23.7712228211
23.2050551421
23.4680973928
24.0248018786
24.5433344784
24.9756022949
25.3704041955
25.7814213053
26.2219489006
26.6514036584
27.000226644
27.213089842
27.2688165569
27.1739842258
26.9479972099
26.6050541891
26.1419119251
25.5369292717
24.7549527752
23.750317424
22.4725708773
20.8996326283
19.1041401313
17.2616578328
15.5579373671
14.114790994
13.0021724183
12.325586569
12.121197818
11.9125504692
11.9163883306
14.2579180769
20.0344347761
22.2077504872
22.4728467921
21.3866950578
19.1054787254
18.8352650367
21.4009514119
21.8470136968
21.0269140427
20.4562634285
22.4448183498
25.1996561741
26.664274963
22.079007401
20.9413327698
11.8065763743
8.65188983785
7.87164480222
12.1649190151
12.1041535275
7.46189599839
7.52235681581
7.668565165
7.77010089298
8.3399849443
13.0120891332
13.9557185828
14.0542401129
13.5909691583
11.5563078563
11.3683609003
12.933770101
13.5737106492
13.4612336722
13.847463493
14.6712433877
15.602329085
16.5475710308
17.6367694815
18.6469478711
20.0313876681
20.494781634
21.8036462672
23.3513499492
23.8048546193
23.3066740398
24.1438852577
24.3075147366
23.2172885494
23.191004858
23.6137543241
24.174170682
24.7199970699
25.1930792572
25.622632689
26.0540881998
26.4941592499
26.9098643948
27.2500535652
27.4688024927
27.5432700857
27.4776280031
27.2909763864
26.9968201454
26.5890129824
26.0410778567
25.3102959604
24.3442457836
23.103201243
21.6047353879
19.9598627092
18.3372803453
16.8594489667
15.5548537433
14.4728935926
13.780937189
13.5030625248
13.4772284603
13.8128358622
13.8660096056
20.2158364676
24.0468935359
23.9572703424
23.3115737523
22.3204628636
23.1106092206
24.4552919333
23.7752965777
23.1137221486
23.3519436758
25.706186469
26.389404825
26.9750274058
24.0964512548
21.9589752871
11.0860630521
8.57886913938
8.53897718017
13.1432984042
11.0851119609
8.08143741135
8.22929246159
8.50571135365
9.69552845899
8.45007620466
13.7854249838
14.4774296856
14.0948734637
12.3666139077
11.1909821388
11.508244135
13.0152829243
13.2913092061
13.3502048711
13.8735354958
14.6760118888
15.6870027218
16.7354780057
18.2306142324
19.4931132259
19.9971776245
21.9183909246
21.7019008699
23.5525385786
23.2376974643
24.4664606227
23.4836132382
23.1722659033
23.1317112172
23.3637258942
23.8145595557
24.3581726593
24.9121048292
25.4216130752
25.8900970092
26.3463969589
26.7952118852
27.2097380398
27.5485398431
27.7737986737
27.8674772292
27.835646218
27.6970053283
27.4632285129
27.1253652491
26.6521742403
25.9948240013
25.1017511774
23.9548330737
22.609411391
21.1908445294
19.810901368
18.4604928717
17.0861640744
15.8915619068
15.2610741909
15.2800810748
15.5769644959
15.7680073167
15.5945143916
17.0914485364
24.260254476
25.8365968717
25.7194554846
26.2574830117
27.2346837143
26.8366564067
25.8180695103
25.6478006754
26.6841251284
27.9102786569
27.7718532657
27.1635389471
26.147049466
24.7770553648
10.5553357856
9.0194248146
9.69349189326
13.2136456207
9.13677815391
9.09913769896
8.94257256473
9.20854281001
12.2874495571
11.0224929012
14.6203146674
14.7484157147
14.1673995368
11.6851875864
11.2266232385
12.8150577232
13.2492589567
13.0486650489
13.3189022522
14.0287342582
14.8086454229
15.7648046371
16.6739499101
18.3904257808
20.527163441
19.9454078806
21.8702351649
23.1521702107
23.7965199626
24.4089901499
23.7216381825
23.7432296396
22.8831164772
23.0475922287
23.5321582423
24.0366986472
24.5691220663
25.1223755118
25.660842646
26.1718412542
26.6619431891
27.12838483
27.5499185574
27.893787665
28.1294275624
28.2450704692
28.2524990324
28.1715657353
28.0108980129
27.7588712543
27.3820435825
26.8300001207
26.0596864318
25.0799226167
23.9721764512
22.8321865552
21.6317611192
20.1862362987
18.5878858914
17.4485907393
17.2366859205
17.7498872621
18.2523331955
18.368311296
18.0412224296
16.6794689472
16.4939274918
27.5832423488
30.2817844873
31.0942499847
30.7909386461
29.2601908377
28.3157418246
28.6422925943
29.8644120654
30.2469178166
30.0231303153
29.7360215793
30.0794275914
30.2655064933
10.5374798833
9.86063963746
13.1001889093
13.3818742551
9.24911147302
9.85858362647
9.65182185302
10.1341030456
11.8006095126
14.5075649611
15.4498386518
15.0188275116
14.408954535
11.7020190106
11.3853917578
13.3317672599
13.3533299497
13.0269784162
13.3468348907
14.1653427376
15.1717766473
16.1250059036
16.8587665146
18.024651077
20.6995171947
21.9026534773
21.4998815562
23.2785071867
22.6766688394
24.4381012064
24.7719110048
23.6959204713
22.8553097788
23.1608064554
23.7312358156
24.2698251815
24.8043668013
25.3574093823
25.9139279179
26.4658896655
26.999995668
27.4947532002
27.9309505998
28.2855856541
28.5364990621
28.6798981004
28.7338485627
28.7195955051
28.6439473789
28.4945985143
28.239596452
27.8334116988
27.2495882638
26.5236587465
25.7329974069
24.8580684762
23.6299786142
21.900232239
20.3468517497
19.7204718547
20.2477610569
21.2822479351
21.9299293548
21.9809659897
21.3475021001
19.7268496287
17.1850010545
17.7056491466
31.6330354581
36.6661917391
35.0866136257
32.4515684701
31.5619552104
32.1161650849
33.0113200033
33.4356429077
33.7897010359
34.3121556773
34.9207112969
35.5905089356
10.8942759139
10.7325882014
14.7431257156
14.0945502596
12.2011135388
11.0820984249
10.5864863473
11.5920604594
11.2792454896
15.4721186956
16.1025688975
15.3640047856
14.4996586811
12.3239033497
12.1478690408
13.7957130874
13.3794186198
13.1132066431
13.4659233929
14.2103259738
15.3192359966
16.5837594658
18.2906512087
18.1618438512
20.2034816512
22.2797951892
21.3950922476
23.5414985233
24.3767275671
23.6308912514
23.8688192268
23.0598044551
23.1482303471
23.4892129451
23.987579478
24.5270974168
25.0692719219
25.6264180112
26.1889495606
26.7680447037
27.353827903
27.8956703728
28.3557508507
28.7246454798
28.9964901934
29.1757592821
29.2846223176
29.344982507
29.363870164
29.3321462032
29.2246197751
29.0115671825
28.6931610679
28.3149340829
27.8763386187
27.0984139922
25.602487023
23.921233137
23.0132732642
23.2932439836
24.7220718522
26.1591666614
26.9936186249
27.2037198157
26.6077187822
24.800555068
21.5914101965
16.8363004184
26.4356006501
37.1354866253
39.8728149372
36.7773400203
35.9378423918
36.4430648917
37.2060529222
37.7289567489
38.768466612
39.5596047348
39.5266124944
39.7430618772
11.498958478
11.3852198373
14.4920989786
14.5866924363
14.599966217
12.2212151563
11.6530752301
14.4458994137
11.6550760787
16.3326317243
16.6008451787
15.719390707
14.5907320549
12.9383761539
14.7456759952
14.8511844356
13.5720049613
13.3357396726
13.7184624761
14.3546694398
15.2811343512
16.5749528904
19.5703928915
20.5192301769
19.6966717271
22.3483097458
23.2954847886
23.1170995143
24.3451338619
24.7268080372
24.2175696939
23.09557748
23.3546328417
23.822295184
24.2994273114
24.8174323642
25.3522593413
25.9270338317
26.513526778
27.1014519815
27.7179756451
28.3161868987
28.821941458
29.2149489279
29.5123737545
29.7359437858
29.9090130598
30.0499978258
30.1674755654
30.2608143896
30.3219798943
30.3545045593
30.3908454463
30.4371895552
30.2709191242
29.2621122571
27.7655978782
27.506208518
27.8923418164
29.3122028393
31.430717138
32.6908034127
32.5477750018
32.1256179892
30.4036722543
27.707990486
24.3915835825
18.0540786984
17.8031956247
31.6201728324
38.5203281231
39.1782825072
37.79198991
39.3620538998
40.9084135492
42.778078811
44.4460030097
45.0646152428
45.0488243823
45.2400999601
12.1625403052
12.088204692
11.7412909752
14.9154035567
15.1363666145
12.9945937681
12.6137516788
15.4339789315
12.3150164766
17.220832487
17.0502455112
16.0890593916
14.7917509527
13.2546051408
15.9043290281
15.4242624728
14.00916391
13.7337464131
14.0707599473
14.6686212275
15.3679024149
16.469126572
20.0833624134
21.591487149
20.0441747003
22.3879678735
23.8179204082
22.6152261656
23.9772082867
24.2861304497
23.2379543143
23.4470956447
23.8032821028
24.2066514852
24.6437498141
25.1608401576
25.6907326822
26.2390191677
26.8526884348
27.4852443165
28.1239176263
28.7584963223
29.3159476358
29.7512976197
30.0870175743
30.3650278845
30.6101925421
30.831898091
31.0435314097
31.2586129482
31.4954207993
31.8255428693
32.3075422426
32.8122984869
32.6203656693
31.1298186944
30.8353980158
28.3444638379
25.7829189357
24.7781342454
22.5566440981
15.7574988464
0.384579824883
0.0392378288262
0.00311375406221
0.000877081697026
0.0103239115069
0.105484882553
1.19156313818
3.11225291626
42.6517038903
49.1289788442
49.1330127353
44.4458711626
40.9177020588
43.5318635172
48.6041838358
50.4770829914
51.8710905359
52.3431383571
13.0060608497
13.0969655757
15.5557638291
15.5603962255
15.5880682919
13.6539085038
13.6567289031
16.2833746541
13.3314757532
17.9909220845
17.479813391
16.4823399527
15.074527452
13.6496621327
16.189019123
15.6243587935
14.4445616561
14.1901994808
14.4588230936
14.9882892472
15.6242038846
16.4937621224
19.4946613769
22.4062609662
22.5587994473
21.7684117363
24.0333257454
24.8286311635
22.8433594054
22.7830503269
23.1797232291
23.686172592
24.1603432041
24.59487515
25.0465854829
25.530530544
26.0604707286
26.6246969291
27.2180546092
27.8844560949
28.5746639904
29.2446822864
29.8413147317
30.323801614
30.7162897703
31.0635261856
31.3878702894
31.6922998776
31.9802557319
32.2789564835
32.6818490258
33.3513288923
34.3425524305
35.2075225252
34.6294173675
30.9799158722
21.5821674912
0.000130415562751
1.43443594916e-07
2.68905461447e-09
4.55813184866e-11
1.31878063667e-13
3.7476866959e-16
6.48717473672e-21
5.07428732606e-21
1.23192027747e-20
8.30411666501e-20
3.88960188342e-19
1.4368208773e-18
9.13077213579e-18
7.14919075579e-18
6.20231167494e-16
3.53015168544e-13
3.54855571539e-11
2.69275434607e-09
6.2007625809e-07
0.0104378346594
53.0997486498
57.9468484436
59.500871149
13.799495477
13.9903663605
17.1733698388
16.2325142039
15.7051739457
14.3199234415
14.6683369001
17.0010422415
16.9739722393
18.9473693905
17.971025999
16.9684142908
15.44177523
14.1899466525
16.4916251111
15.7640478884
14.8641101291
14.6554769113
14.852647186
15.3010445394
15.9051893747
16.7397426418
18.9811550938
22.6690828665
23.930414279
21.4983293025
23.5641514139
24.895699178
24.6437687263
23.2320272714
23.2742356677
23.9133365046
24.5237636114
25.0320032146
25.43926668
25.9299650822
26.4516607703
27.0331217814
27.6441583892
28.3183261052
29.0551420995
29.7789624175
30.4073776333
30.920024692
31.3787748161
31.8456014776
32.2888694561
32.6500013729
32.9193394971
33.2496454354
33.8274006961
34.8117179646
36.2783468093
37.4571531334
29.6251806689
0.000193013659482
7.21185897073e-11
2.92045484993e-13
8.44548266815e-15
1.22950746399e-16
9.98948832526e-20
1.66684185788e-22
1.17496447531e-23
0
0
0
0
0
0
0
0
1.63417521247e-27
5.51173467855e-25
8.24438026056e-23
4.78312540821e-20
6.68085233555e-17
3.61785228933e-12
5.49414544738e-08
0.428344623569
61.9612729207
14.4489675998
14.6618215423
19.3247681469
16.7535121036
15.5736224109
14.9116502901
15.3957688143
17.0589734627
18.5649688497
20.0486782731
18.6194966129
17.5890025239
16.0591828659
15.0236200486
17.0008288339
16.0573636972
15.3628599152
15.1706954325
15.2865101839
15.6508924593
16.1849326032
16.958348761
18.7741878433
22.5464902821
24.9241618562
24.1500922359
23.0524376164
24.2668047474
24.3911102325
23.2208340173
23.7272142498
24.3957010856
25.0537937923
25.5227625861
25.9473420341
26.3661367409
26.8998986239
27.4711142337
28.107969577
28.8033558467
29.5620972929
30.3416671698
31.0473341219
31.5913158703
32.1053632815
32.7004773986
33.2762533465
33.6578236251
33.8643595123
34.1946276725
34.8902897424
35.9985294065
37.6139850432
30.1142163822
4.77577298132e-07
1.0441118574e-13
3.42423227723e-17
1.38461811061e-18
1.88788511222e-20
5.17709405041e-23
0
0
0
0
0
0
0
0
0
0
0
0
0
2.10563457461e-26
2.09240587591e-25
4.58700703912e-24
2.224176284e-22
1.23513612714e-18
1.02808236237e-09
1.98179469948e-14
14.9566731931
15.1589166835
21.3842945766
17.1541127929
15.6985531811
15.4627992649
16.2032410638
16.4238281883
19.5171478284
20.8382539913
19.249930666
18.2254490883
16.876697478
16.9132320521
17.7122681594
16.5927248391
16.0576247077
15.8827247754
15.8289884199
16.0881463414
16.5180050548
17.2143074507
18.7581910419
22.4101766886
25.3399899646
25.798647153
22.8331223125
23.1873402172
23.1342499983
23.3435756729
24.0368366647
24.8959131619
25.5560762532
26.0557996263
26.4977413131
26.9912844986
27.4137935902
27.9765149122
28.6141710925
29.3126074737
30.1380336984
30.9857830399
31.7405093732
32.2575869444
32.776471015
33.9852203634
35.6045172528
36.1467596733
35.3401303237
35.4236385221
36.0979356243
37.1996537696
28.5905466989
5.52525320636e-08
8.32728036172e-13
3.73574889865e-24
3.77502054138e-21
6.15979319324e-23
0
0
0
0
0
0
0
0
0
0
0
0
0
0
0
0
0
0
3.25313940299e-25
2.20297227172e-24
4.0624635154e-22
94.6888747464
15.4024200598
15.5706050454
21.2209404631
16.5927263216
15.9088663528
15.9409301486
17.1207679064
16.4282524511
20.3229424196
21.5752605976
19.8518612622
18.8181628028
17.512171429
19.1398244801
18.7044738355
17.3323987079
16.8581610092
16.9572171236
16.5942739532
16.6948925802
16.950879709
17.5116922713
18.8845959535
22.2612630624
25.2138693886
26.9040550288
25.5527305751
24.5588703595
24.1251406009
23.6096726328
24.3447753482
25.5419538772
26.0094002597
26.5919332701
27.2973362028
27.6016951831
28.0234555669
28.5880015435
29.2394062012
29.9398384443
30.71551272
31.6156602532
32.5069545014
33.422204175
34.5147716307
36.0797917692
37.3370283164
37.2966660226
37.2040378251
37.7904584456
38.8663734326
32.5736525266
2.51266956747e-07
2.29356555219e-12
3.01448474264e-16
4.0942480725e-18
0
0
0
0
0
0
0
0
0
0
0
0
0
0
0
0
0
0
0
0
0
0
1.00098574998e-24
7.28571103702e-14
15.9180398639
16.0634167956
20.8607999552
16.271849293
16.2124072376
16.3321673881
17.9103337102
16.9007341865
21.0238788632
22.2997344552
20.4526860064
19.415999218
18.048383368
19.8961638974
19.625376893
18.1448979918
17.6474120888
17.8550476144
17.5107749955
17.5234254042
17.5854985517
17.8580016099
19.1718755286
22.2435454611
24.9416814887
27.2374768082
26.7607379233
25.0844127839
23.5473014065
24.1255202979
24.8770073617
26.0350423266
26.8861903804
27.5885283067
28.1437165433
28.3184741825
28.716913147
29.2944496707
29.9577705932
30.6882101796
31.469404215
32.4469381468
33.6709882263
35.2160843383
36.2653982356
36.6622652828
37.3296376914
37.7778738507
39.379708398
41.5483080624
38.8574003123
2.28953060541e-06
3.04005955203e-12
5.24242683422e-16
1.07524874083e-18
2.60338403712e-20
8.73867652222e-23
0
0
0
0
0
0
0
0
0
0
0
0
0
0
0
0
0
0
0
0
0
1.68219021887e-25
2.22569130733e-25
16.6793537892
16.8249733707
20.5381139758
16.5679687618
16.7834453153
16.8240873838
17.9240969743
17.6369606751
21.5306188879
22.9901468274
21.0899387342
20.0658210426
18.70660278
20.5878433521
20.4585082893
19.0505144417
18.4987285079
18.7321609736
18.405436202
18.4988379589
18.4964702544
18.3655564573
19.6535155626
22.4169222978
24.8179315732
27.3348129267
27.3140357158
25.8115466646
24.0443228518
24.3636142024
25.5170119919
26.1967711294
26.9162053305
27.8311368643
29.0853819017
29.365650715
29.6759861978
30.1078170974
30.7300428205
31.5363929072
32.4287027526
33.5392832493
35.4842383561
37.2399053372
37.4822520181
37.6974310829
38.8152401815
41.6597103297
45.455879471
43.270440474
6.54126024438e-07
1.08661817563e-13
4.49668011247e-18
1.47431383353e-21
9.2505286517e-24
1.87500719117e-23
2.8793113833e-24
0
0
0
0
0
0
0
0
0
0
0
0
0
0
0
0
0
0
0
0
0
1.24335615996e-26
5.64571497644e-26
17.8249683205
17.9301452634
20.8363328926
17.523158968
17.9592368011
17.6909549702
18.2426912929
18.970150455
21.5832493724
23.510802122
21.7928488305
20.7892518847
19.4740857154
21.3742521573
21.3203262227
20.1204699544
19.5373471282
19.7579773712
19.308640948
19.5735243557
19.7237970501
19.1036563826
20.205662474
22.7823809916
24.8865509269
27.2019148761
27.5679712184
26.461658599
26.0803708238
25.245328937
25.9443829809
27.0448359035
28.3564836008
28.4372645578
29.3333974344
30.4199407294
30.7451234219
31.2517407161
31.7648201491
32.4726921842
33.5062928988
35.4542804991
38.1285282704
39.0405747965
38.8714408379
40.0537399802
44.4722590026
50.7868898041
49.0542757113
2.35290247616e-08
1.64628519156e-15
1.53703170137e-20
1.05168775861e-22
0
0
0
0
0
0
0
0
0
0
0
0
0
0
0
0
0
0
0
0
0
0
0
0
0
0
0
19.4232517449
19.2954559997
21.663275431
19.4321331754
19.9343394462
18.971340808
19.1972592542
20.8974537828
21.8117427983
24.1402617385
22.6149222749
21.5967333286
20.3267158547
22.1988096496
22.1780577379
21.3000083983
21.0576341398
21.0982842338
20.3051004816
20.7463760573
21.2546780053
20.1611077592
20.6426200981
23.2355001585
25.1546620799
27.0856566361
27.7559926329
26.6301249736
27.2803480964
26.8532415266
27.0369416039
26.7769553647
28.0808509024
29.7048345972
30.3116955251
31.1566024198
31.8164217563
32.3482744192
33.0131598606
33.7405527867
35.2638564036
38.4384519816
40.7042788148
41.0804464487
41.8094976278
45.7213925904
54.1635610607
51.9648810647
3.32385638634
1.46917342624e-17
2.56842524219e-20
1.17604917013e-22
0
0
0
0
0
0
0
0
0
0
0
0
0
0
0
0
0
0
0
0
0
0
0
0
0
0
0
0
21.1168757433
20.5829664632
22.5622083965
21.959092562
21.6687686773
20.4583747716
20.2543489256
22.054007811
21.073023233
24.635213968
23.5384576516
22.4806640559
21.2554166907
23.0373963875
22.9769233156
22.2887438737
23.1615067587
22.7145193128
21.427683853
22.0441260729
22.6197356616
21.5212335651
20.8231604909
23.2506105866
25.353464426
27.0096539512
27.839374037
26.7348136297
27.6867684546
28.1606878305
28.4121542886
27.5778167372
28.3612984479
29.6482765681
31.2636589815
32.4029033674
33.1223903471
33.618558094
34.2581093941
35.4448976107
38.3802756228
41.7913013701
43.4859646009
44.3604092974
46.8923867586
52.672269892
49.8208979627
24.8895377618
3.95587671629e-17
5.72696616136e-20
2.00569403251e-22
0
0
0
0
0
0
0
0
0
0
0
0
0
0
0
0
0
0
0
0
0
0
0
0
0
0
0
0
0
21.9734698838
21.4965847147
23.1483048957
23.0368367763
22.7645833134
21.8705521639
21.474977732
23.4570400773
22.1420132517
25.2651769641
24.4735642355
23.4105690282
22.2554387944
23.9078699881
23.7892212175
23.1223476449
24.1546119414
23.8471506141
22.526607517
23.3278137627
23.3891730272
22.3664812712
21.8780732085
22.106148137
24.8831333202
26.5454064232
27.655355168
26.735154702
27.7859209102
28.7335820944
29.5459291803
29.4302151823
28.7345302115
29.741093897
31.5362204062
33.3099051599
34.5463132143
35.3080958103
35.9548102638
38.3882516517
42.2449452816
45.219835031
46.6475686496
48.3485892418
52.1925223104
46.5533158446
21.3388895692
2.08983214027e-16
1.88252140435e-19
5.3615184195e-22
0
0
0
0
0
0
0
0
0
0
0
0
0
0
0
0
0
0
0
0
0
0
0
0
0
0
0
0
0
0
22.1055226022
22.0847330448
23.5217064368
23.2938950266
23.4761751796
22.9764004849
22.5460281572
24.8385517374
23.853574395
26.0758798085
25.4692258095
24.3734387908
23.3221129764
24.8254722988
24.672918563
24.0879584391
24.9880489985
24.8411584169
23.6803918546
24.382529042
23.2448936296
23.1550166074
22.9497282635
23.2208788029
24.0587174845
25.0747071905
26.8573110889
26.568921607
27.391787646
28.8032598774
30.0418442478
30.8203902616
30.3021288484
30.5707758084
31.7725046472
33.5185127264
35.4750950173
37.0758298506
38.5518841741
42.1892573058
46.0475051782
48.444795922
49.4675775689
51.0115470766
45.6765251624
26.2650111795
13.803391504
6.53904297896e-19
1.46480679726e-21
0
0
0
0
0
0
0
0
0
0
0
0
0
0
0
0
0
0
0
0
0
0
0
0
0
0
0
0
0
0
0
22.39971369
22.5152453853
23.8541161671
22.4787023969
23.8056675215
23.6072352639
23.2820131933
25.4925960849
24.7467950351
26.90824896
26.504510726
25.3404574527
24.4621200478
25.7774960013
25.6011414533
25.1882529301
25.9125909586
25.9451110601
24.9569794495
25.8152970708
24.6199516656
24.8101413175
24.2336596354
24.5383429302
25.8779503727
26.5087702209
26.5344103691
26.3379697917
26.9693030631
28.7824789359
30.0842950289
31.1168016845
31.6833048399
31.7098019422
33.155560975
34.3042244649
36.2513311515
38.7400287228
41.8021506579
46.1548961481
49.5539045371
51.0400554822
49.9968171513
45.4390113408
37.5121353973
26.2688234916
5.48708236802e-18
1.2491611509e-20
0
0
0
0
0
0
0
0
0
0
0
0
0
0
0
0
0
0
0
0
0
0
0
0
0
0
0
0
0
0
0
0
23.144858498
23.2244559618
24.2119503349
22.9325101506
24.1017854155
23.9785224988
23.8142649296
25.7466690609
25.3832812574
27.5387098108
27.5185293726
26.2526518003
25.6615190818
26.7190029357
26.4936620451
26.2564275506
26.8066893674
27.1335602209
26.2793665518
27.2610852577
26.4132076481
26.8849984346
26.6646652638
25.5611446111
26.6636540241
27.6348048439
27.7772163513
26.2199377436
26.4857343867
28.7214954928
30.2669746609
30.8322401225
31.5531403089
32.10173902
33.5628074046
34.997313376
37.1557893194
40.4510372195
45.2440062571
50.1686830003
52.8130063115
52.6618939154
49.1836418022
42.5622802071
26.2422509789
6.91792933118
8.70464597949e-20
3.52975329746e-22
0
0
0
0
0
0
0
0
0
0
0
0
0
0
0
0
0
0
0
0
0
0
0
0
0
0
0
0
0
0
0
0
24.0784850187
25.0768148039
24.7238682655
23.9331979202
24.6771587631
24.4087405224
24.3279035168
25.9709829005
25.9639098601
27.8299853079
28.4988368262
27.07087572
26.7285275438
27.5006352719
27.3381472508
27.0771225626
27.165135362
28.2171967563
27.6625254784
28.5290799363
28.36952657
28.2509626326
28.1127722985
27.7419082558
27.0699728928
27.8331068816
28.7595008393
25.817798087
26.04814151
28.1012068814
30.352684008
31.421676258
32.3085495003
32.1907360871
33.4974165308
35.308843874
37.7322184977
42.0515188711
48.651140812
53.9737860631
55.4448884229
50.8217795978
47.6686898702
42.6126919161
30.538397968
5.90008800631e-19
1.50584437201e-21
0
0
0
0
0
0
0
0
0
0
0
0
0
0
0
0
0
0
0
0
0
0
0
0
0
0
0
0
0
0
0
0
0
24.7956170273
25.829885387
25.464777905
24.8410691598
25.4067544483
25.0099838356
24.906849999
26.2728388413
26.5252288234
27.8629034444
29.3721381127
27.852368009
27.3936707327
28.1513481084
28.2428149441
27.8230995291
27.4613409399
29.0000740757
29.0717554216
29.6392185374
29.7301781203
29.8934840492
28.7630237725
28.7602932578
28.319869076
29.4658716664
30.1269913794
27.5950159911
25.6991256358
27.1804461133
29.7271086993
31.6401464395
32.616235703
32.8130755469
33.2468242714
35.178976696
37.7629055101
43.3022770327
51.8778980336
57.794217327
56.407904435
50.3032380673
43.7311625038
28.3803248497
14.2626592973