/*--------------------------------*- C++ -*----------------------------------*\
| =========                 |                                                 |
| \\      /  F ield         | OpenFOAM: The Open Source CFD Toolbox           |
|  \\    /   O peration     | Version:  v1806                                 |
|   \\  /    A nd           | Web:      www.OpenFOAM.com                      |
|    \\/     M anipulation  |                                                 |
\*---------------------------------------------------------------------------*/
FoamFile
{
    version     2.0;
    format      ascii;
    class       surfaceScalarField;
    location    "69";
    object      phia;
}
// * * * * * * * * * * * * * * * * * * * * * * * * * * * * * * * * * * * * * //

dimensions      [0 3 -1 0 0 0 0];
oriented        oriented;


internalField   nonuniform List<scalar> 
12640
(
6.54620882946e-07
-6.93590762542e-07
1.30722928207e-06
-6.85143371228e-07
1.93707710696e-06
-6.55754359394e-07
2.49954292665e-06
-5.85330978242e-07
2.88606288132e-06
-4.08941498822e-07
3.03948929176e-06
-1.76598814918e-07
3.06651412023e-06
-4.82066721549e-08
3.26940343008e-06
-2.22271960015e-07
3.6913388179e-06
-4.40866923652e-07
4.08297606184e-06
-4.08810346587e-07
4.44362502185e-06
-3.74310519595e-07
4.9229498773e-06
-4.92025100383e-07
5.36997160931e-06
-4.5881376977e-07
5.69661883753e-06
-3.37723584317e-07
5.95032142594e-06
-2.64126936546e-07
6.298637362e-06
-3.59645774337e-07
6.68436175264e-06
-3.9691574476e-07
6.96815325039e-06
-2.95251190451e-07
7.09334072071e-06
-1.34736630731e-07
7.09210322147e-06
-6.84102723521e-09
7.18644796693e-06
-1.01648268624e-07
7.47287814752e-06
-2.94064523858e-07
7.86466194572e-06
-3.98810933632e-07
8.33493483143e-06
-4.76949136806e-07
8.79023626121e-06
-4.61492516623e-07
9.18737421703e-06
-4.03656385832e-07
9.61518829203e-06
-4.34098817989e-07
1.00283760415e-05
-4.19916043361e-07
1.03619428599e-05
-3.39239230288e-07
1.06125774032e-05
-2.56256040709e-07
1.09093215096e-05
-3.00818092767e-07
1.12139633591e-05
-3.08491009788e-07
1.13736935209e-05
-1.65798250425e-07
1.15288168612e-05
-1.6185356237e-07
1.15834040236e-05
-5.81357292376e-08
1.15305316618e-05
4.30548660373e-08
1.14811944211e-05
3.93539773846e-08
1.13375379737e-05
1.43282482618e-07
1.11222431695e-05
2.21662128423e-07
1.11108502326e-05
2.16673381202e-08
1.22340675964e-05
-1.10939242853e-06
1.37456727377e-05
-1.50070571524e-06
1.44184250189e-05
-6.70638737689e-07
1.4639745446e-05
-2.20041750821e-07
1.45503077045e-05
8.28252475764e-08
1.41328911978e-05
4.07802184808e-07
1.33711817052e-05
7.46611950925e-07
1.23639900057e-05
9.99910789622e-07
1.13806926938e-05
9.72786375437e-07
1.08814153277e-05
4.93464362122e-07
1.14185114315e-05
-5.37823646486e-07
1.21276293683e-05
-7.28572500227e-07
1.14188921165e-05
6.58858637433e-07
9.91974470827e-06
1.4539448541e-06
7.93260359457e-06
1.9517643313e-06
5.27903983428e-06
2.6416100739e-06
3.09233205296e-06
2.18220050151e-06
2.35682890549e-06
7.32619775722e-07
2.01966942715e-06
3.29316370493e-07
1.78853192878e-06
2.1944615056e-07
1.96010647897e-06
-1.78632996284e-07
2.1720115398e-06
-2.24975409197e-07
1.93735786609e-06
2.17269629091e-07
1.76366330006e-06
1.60725366238e-07
1.60892520503e-06
1.48012344993e-07
1.48656798008e-06
1.17744074727e-07
1.36596844868e-06
1.17318124233e-07
1.24032347971e-06
1.22159516286e-07
1.10766679376e-06
1.28600691451e-07
9.65249828781e-07
1.3725207809e-07
8.21879571019e-07
1.37959109576e-07
6.87786274302e-07
1.2906685689e-07
5.64644698082e-07
1.17747970646e-07
4.42074033008e-07
1.16886907637e-07
3.4000606686e-07
9.62218645059e-08
2.55013021817e-07
8.03575752329e-08
1.9642776046e-07
5.43436077198e-08
1.35134371497e-07
5.78684232135e-08
7.69846379638e-08
4.41603811875e-08
7.24923069922e-08
3.1299742423e-07
-1.02440796579e-06
7.22820182402e-07
-1.1168843109e-06
1.14251540994e-06
-1.09284939054e-06
1.61107515552e-06
-1.06925879942e-06
2.32623006362e-06
-1.14263527558e-06
2.97371657664e-06
-8.44937023827e-07
3.37649877338e-06
-4.73685063149e-07
3.70930628911e-06
-5.76946198947e-07
4.0411836427e-06
-7.92970933493e-07
4.439193308e-06
-8.23979438852e-07
4.84727623711e-06
-7.97688996215e-07
5.14347720021e-06
-8.01073926617e-07
5.41395470022e-06
-7.4177155023e-07
5.71623064003e-06
-6.52032794743e-07
6.0310813712e-06
-5.9214693275e-07
6.40240625489e-06
-7.43201509052e-07
6.64439094769e-06
-6.50857557835e-07
6.5158154082e-06
-1.7529204852e-07
6.35702850397e-06
1.68049152752e-08
6.41298806719e-06
-6.89560094703e-08
6.66912247931e-06
-3.64734383486e-07
7.2692067364e-06
-9.00373292933e-07
7.9410236073e-06
-1.07813340603e-06
8.33908618641e-06
-8.81051004151e-07
8.72176736834e-06
-8.51090537139e-07
9.29163612238e-06
-9.79222423808e-07
9.7505737587e-06
-9.00649739049e-07
1.00695685951e-05
-7.44566280189e-07
1.03339971188e-05
-6.10793362345e-07
1.0558143654e-05
-4.85079595912e-07
1.06671788139e-05
-4.15407189692e-07
1.07125445132e-05
-3.60553141128e-07
1.06289944905e-05
-8.87696024319e-08
1.05472479757e-05
-8.50597240327e-08
1.07357584077e-05
-2.5754950231e-07
1.05945753211e-05
1.79214011022e-07
1.03608878731e-05
2.70733672932e-07
1.05635535479e-05
-5.71634736467e-08
1.09544824047e-05
-1.6324182559e-07
1.10651815835e-05
-8.07300441851e-08
9.19129908622e-06
7.66823050359e-07
6.74753252446e-06
9.41461415789e-07
6.04156445879e-06
3.38248657661e-08
5.95827747748e-06
-1.37539981098e-07
6.08036202252e-06
-3.97176944941e-08
6.36501859364e-06
1.22282901014e-07
6.73498365333e-06
3.76049667893e-07
7.18946795929e-06
5.44393182524e-07
7.55516133767e-06
6.06777080635e-07
7.29897240997e-06
7.43897963078e-07
6.11098444208e-06
6.3421427508e-07
5.18816342538e-06
1.7966332503e-07
7.17315187714e-06
-1.34410671545e-06
9.08837273636e-06
-4.86422337191e-07
9.20576029954e-06
1.82266643971e-06
1.0411987225e-05
1.43381326818e-06
1.12135900751e-05
1.37495694714e-06
1.04993995912e-05
1.42697975308e-06
9.27322455535e-06
1.52847450323e-06
7.69780652505e-06
1.76371662807e-06
4.99750528998e-06
2.48135589665e-06
2.91868013646e-06
1.82989640989e-06
2.14116565094e-06
9.6473022824e-07
1.85308116864e-06
4.31859464198e-07
1.61580363087e-06
3.7616707812e-07
1.41669936604e-06
3.12607402811e-07
1.2895810283e-06
2.40589244791e-07
1.19080257802e-06
2.17405550229e-07
1.07456986719e-06
2.40388318986e-07
9.35761360024e-07
2.71566421306e-07
7.8576056506e-07
2.83123708125e-07
6.42298587802e-07
2.67900888219e-07
5.24691735484e-07
2.30408338316e-07
4.36388609396e-07
1.99850281377e-07
3.55618046346e-07
1.71472007837e-07
2.84950965365e-07
1.45743670418e-07
2.13949481877e-07
1.19456728575e-07
1.54228343995e-07
1.09599646937e-07
8.12623370997e-08
1.12432330671e-07
1.40318218632e-07
4.41232272428e-07
-1.4873174726e-06
5.83412331562e-07
-1.27739333482e-06
1.21385774066e-06
-1.74210017174e-06
2.04651264091e-06
-1.92242811364e-06
2.75689513963e-06
-1.87342406419e-06
3.02132403173e-06
-1.12596703094e-06
3.13500655278e-06
-6.04127419137e-07
3.49117526123e-06
-9.52308201007e-07
3.93368160682e-06
-1.25422631576e-06
4.37708450846e-06
-1.28391838788e-06
4.78842159102e-06
-1.22351945237e-06
5.1102887052e-06
-1.13704160695e-06
5.38019874664e-06
-1.02587843813e-06
5.66196871072e-06
-9.47930418617e-07
5.76905528648e-06
-7.12433663155e-07
5.22231992442e-06
-2.07455160615e-07
4.44915344309e-06
1.16033773101e-07
4.24245531947e-06
2.62939316215e-08
4.48996671519e-06
-2.35587605265e-07
5.36481653706e-06
-9.49416364815e-07
6.56710193523e-06
-1.57384950337e-06
7.27616868026e-06
-1.61733246004e-06
7.67584010236e-06
-1.48464195777e-06
8.32885158804e-06
-1.54129956184e-06
8.97223535116e-06
-1.5010916853e-06
9.36070129252e-06
-1.3749960221e-06
9.64006384225e-06
-1.18639082538e-06
9.89931141495e-06
-1.01092254053e-06
1.00747776125e-05
-7.92192875281e-07
1.02459274452e-05
-6.62406542416e-07
1.02466900549e-05
-4.23886912783e-07
1.0139245724e-05
-2.58254604646e-07
1.0208456192e-05
-1.6728331246e-07
9.71576690222e-06
3.9795198639e-07
9.2296629599e-06
2.26542472254e-07
9.60318920534e-06
-1.95256729996e-07
9.43210260201e-06
4.44506691151e-07
9.23055453016e-06
1.51537136138e-07
1.0490914952e-05
-1.41441742283e-06
1.27615714994e-05
-2.34839758107e-06
1.52304892229e-05
-1.70492458645e-06
1.68644256232e-05
-6.95445375074e-07
1.74506009017e-05
-5.52197853656e-07
1.78208021626e-05
-5.07104721279e-07
1.81519161281e-05
-3.68228400955e-07
1.84399029343e-05
-1.62804772293e-07
1.87337446177e-05
8.63449970429e-08
1.89854636833e-05
2.95445734381e-07
1.91368134456e-05
4.52668431371e-07
1.92538828974e-05
6.1068271239e-07
1.91107676079e-05
7.56841869213e-07
1.8100905886e-05
1.16641825698e-06
1.43652949671e-05
2.36340878489e-06
1.06479043652e-05
3.21649564301e-06
1.03913331269e-05
2.07565137293e-06
1.11033838814e-05
7.104581477e-07
1.10303578416e-05
1.42200810279e-06
1.00527509235e-05
2.37287788815e-06
8.71015208687e-06
2.83788889896e-06
7.22498104179e-06
3.20929777035e-06
6.16470637492e-06
3.50550196825e-06
4.66371011564e-06
3.28652707231e-06
2.85541247811e-06
2.73008582357e-06
1.87116165124e-06
1.40253253721e-06
1.5091531851e-06
7.29564163886e-07
1.37675827773e-06
4.39294659551e-07
1.25559422873e-06
3.57742449537e-07
1.12175995362e-06
3.47555340539e-07
9.83978062832e-07
3.7463199979e-07
8.38846771745e-07
4.13053672347e-07
7.02722206332e-07
4.15668505303e-07
5.95034993283e-07
3.71457488592e-07
5.05252432341e-07
3.15424341774e-07
4.22250187841e-07
2.77297333362e-07
3.34524142485e-07
2.53193387982e-07
2.51557930055e-07
2.22465083654e-07
1.85418970575e-07
1.80602521626e-07
1.38977931081e-07
1.52003547837e-07
5.20004304436e-08
1.80261030924e-07
1.92741292052e-07
2.91505675769e-07
-1.79355938262e-06
3.09455392993e-07
-1.30774661702e-06
1.1574286177e-06
-2.61019233099e-06
1.76697206033e-06
-2.55298954534e-06
1.56754496849e-06
-1.68787179541e-06
1.1282878349e-06
-6.92222838287e-07
1.61612454559e-06
-1.10029416889e-06
2.74632620746e-06
-2.09769692096e-06
3.62888345646e-06
-2.15376018909e-06
4.20812986544e-06
-1.87890057159e-06
4.69784497389e-06
-1.72870013478e-06
5.06231933438e-06
-1.51698806735e-06
5.168271006e-06
-1.14654381806e-06
4.74537519082e-06
-5.37723822434e-07
4.05350520732e-06
-2.9611188536e-08
3.76092229277e-06
7.92052375068e-08
3.94134140937e-06
-6.93018887255e-08
4.55935868009e-06
-5.96831480962e-07
5.72074509079e-06
-1.40330572867e-06
6.6548307561e-06
-1.89140267904e-06
7.04869904373e-06
-1.97591560433e-06
7.50224349712e-06
-2.07872734377e-06
8.10008382536e-06
-2.09050105208e-06
8.55093288802e-06
-1.99963864273e-06
8.89476653274e-06
-1.85287861196e-06
9.15549667463e-06
-1.64253761442e-06
9.43347740193e-06
-1.47200590855e-06
9.62716490488e-06
-1.21076297111e-06
9.83510666985e-06
-1.00693499607e-06
9.86019717996e-06
-6.94965944122e-07
9.92990027829e-06
-5.00028570705e-07
9.79508021779e-06
-1.33742264101e-07
9.23510757848e-06
3.86104778148e-07
9.49799070563e-06
1.31520773945e-07
9.50793897712e-06
2.1555545557e-07
9.42055030222e-06
-1.02634841564e-07
1.1106386379e-05
-1.23064068811e-06
1.34205633794e-05
-2.15031056747e-06
1.4778150509e-05
-2.76663377089e-06
1.52696894393e-05
-2.838614135e-06
1.58167882275e-05
-2.25142880664e-06
1.66742337637e-05
-1.55027541834e-06
1.73193438664e-05
-1.19538728471e-06
1.77919376976e-05
-9.76396503904e-07
1.81740306148e-05
-7.47563440893e-07
1.85016097676e-05
-4.85821807477e-07
1.8804019793e-05
-2.11746856538e-07
1.90578407882e-05
4.560202015e-08
1.92144852943e-05
2.94600672609e-07
1.9209490531e-05
6.06770574755e-07
1.88645850761e-05
1.08363249754e-06
1.81376850244e-05
1.8714730916e-06
1.75591663235e-05
2.92533669292e-06
1.72290202552e-05
3.53172055184e-06
1.60042612812e-05
3.27696019054e-06
1.36028795796e-05
3.08089143014e-06
1.11223546541e-05
3.86667368245e-06
8.75397726639e-06
4.70248242107e-06
6.80630789078e-06
4.74712765532e-06
5.463775289e-06
4.52172178301e-06
4.57002904864e-06
4.36691453222e-06
3.70933919451e-06
4.11257671119e-06
2.82538079402e-06
3.59597558953e-06
1.93646063829e-06
2.27030039123e-06
1.53360646891e-06
1.12166316494e-06
1.30741963507e-06
6.59818856018e-07
1.15524196646e-06
5.05834467002e-07
1.02863628431e-06
4.71009654991e-07
9.09393851683e-07
4.91462364716e-07
7.8621896303e-07
5.34006655558e-07
6.59062990881e-07
5.39628348291e-07
5.41364667578e-07
4.85051301388e-07
4.3578349245e-07
4.16124910806e-07
3.40303029785e-07
3.6761461827e-07
2.55734247587e-07
3.32332952863e-07
1.74851052851e-07
2.97875996811e-07
1.10118544499e-07
2.39370271141e-07
7.02285817139e-08
1.83923703754e-07
3.64827534317e-08
2.15982636235e-07
2.20520631581e-07
-8.21164939339e-09
-1.79559416606e-06
3.05018604364e-07
-1.63137613213e-06
1.02170800657e-06
-3.34560701403e-06
1.26808956445e-06
-2.81560253412e-06
9.48078541733e-07
-1.37604617021e-06
1.18219250247e-06
-9.31792426536e-07
2.09838624717e-06
-2.02649206187e-06
2.91660896439e-06
-2.93108131273e-06
3.45344689908e-06
-2.70604298241e-06
3.97337959796e-06
-2.41457160211e-06
4.43397931482e-06
-2.20558309029e-06
4.4018457459e-06
-1.4984889473e-06
3.88183018087e-06
-6.37119096719e-07
3.53964186866e-06
-2.03184169399e-07
3.67134291182e-06
-1.67107034453e-07
4.12649231705e-06
-3.81452037958e-07
4.96304232614e-06
-9.12148267315e-07
5.98669273364e-06
-1.62787439949e-06
6.48061751827e-06
-1.90543943493e-06
6.60328372239e-06
-2.02216677824e-06
7.05039326238e-06
-2.4315143534e-06
7.61171452213e-06
-2.6486927983e-06
8.07450098768e-06
-2.56176645343e-06
8.41128977105e-06
-2.34516801929e-06
8.69299138674e-06
-2.14234271178e-06
9.0011121566e-06
-1.95916252066e-06
9.1284473086e-06
-1.60550024834e-06
9.33708793946e-06
-1.42669566527e-06
9.37250584935e-06
-1.05002566711e-06
9.47969839385e-06
-8.09931950841e-07
9.36302056353e-06
-3.91764773157e-07
9.3325038634e-06
-1.09570500186e-07
9.88998818839e-06
-1.75881053841e-07
9.66794550412e-06
3.54159308016e-07
1.0088812867e-05
-1.99039884946e-07
1.16283954682e-05
-1.63177187162e-06
1.31642983164e-05
-2.75597342238e-06
1.4406789976e-05
-3.3864068305e-06
1.50823057116e-05
-3.43917454168e-06
1.5436340202e-05
-3.19109193667e-06
1.59512449279e-05
-2.76379153826e-06
1.66495653752e-05
-2.24520113864e-06
1.72899484218e-05
-1.8311991042e-06
1.78146226677e-05
-1.49666959713e-06
1.82535379626e-05
-1.1814685653e-06
1.86375785128e-05
-8.64724876637e-07
1.89766898347e-05
-5.45176549039e-07
1.92574267362e-05
-2.31127376358e-07
1.94225261822e-05
1.29295488367e-07
1.9382339092e-05
6.3943692306e-07
1.90647589461e-05
1.38887763845e-06
1.85315775193e-05
2.39037050131e-06
1.79673759655e-05
3.47245993834e-06
1.72125380547e-05
4.26511944679e-06
1.57901710631e-05
4.67164309348e-06
1.36587256142e-05
5.176556017e-06
1.12731516731e-05
6.20828111691e-06
8.71170030751e-06
7.21887688944e-06
6.30041715183e-06
7.12374201218e-06
4.72007009902e-06
6.07374494193e-06
3.75261335512e-06
5.31284501686e-06
3.19280733075e-06
4.65700587694e-06
2.96062292547e-06
3.79965928235e-06
1.88210707877e-06
3.33296787589e-06
1.55660865124e-06
1.4387507268e-06
1.3208385298e-06
8.8810258746e-07
1.11377469347e-06
7.0887481387e-07
9.47446666625e-07
6.3534634889e-07
8.13677857969e-07
6.23777001328e-07
6.87649188644e-07
6.58051811371e-07
5.57310465129e-07
6.67151275403e-07
4.43386165522e-07
5.95115055793e-07
3.4774414524e-07
5.07661175486e-07
2.57567552695e-07
4.53375950108e-07
1.73740784964e-07
4.10900958486e-07
1.04802568388e-07
3.60988096474e-07
7.04727607861e-08
2.70132939783e-07
4.20279516822e-08
2.11997532587e-07
1.04354700485e-08
2.33231600515e-07
2.33215057299e-07
-1.47410146583e-08
-1.78598683839e-06
4.82123363261e-07
-2.13789839861e-06
7.85751297491e-07
-3.66474429338e-06
8.42730853617e-07
-2.88431903383e-06
7.11609330289e-07
-1.25017485334e-06
1.45744777455e-06
-1.68490013421e-06
2.51158305907e-06
-3.09343002162e-06
2.9324960778e-06
-3.36582344178e-06
3.29074685998e-06
-3.07930863598e-06
3.53366884715e-06
-2.67325821939e-06
3.42011960695e-06
-2.10584417525e-06
2.89267983812e-06
-9.79575904912e-07
2.77808280956e-06
-5.28621737371e-07
3.05406991903e-06
-4.84255382814e-07
3.58299553482e-06
-7.01198571585e-07
4.52423567876e-06
-1.32903847364e-06
5.61282256723e-06
-2.00873286876e-06
5.97134449476e-06
-1.99499361462e-06
5.9825903063e-06
-1.92468415283e-06
6.53662071473e-06
-2.58495160166e-06
7.15397281162e-06
-3.05815993574e-06
7.55568702694e-06
-3.05978384583e-06
7.89716472499e-06
-2.91244685666e-06
8.26169141915e-06
-2.71823488907e-06
8.57229945551e-06
-2.4620654929e-06
8.51590609432e-06
-1.90980376809e-06
8.71497235683e-06
-1.81227968541e-06
8.73527320165e-06
-1.45448083247e-06
8.82251483222e-06
-1.14419189153e-06
8.62346706779e-06
-6.17927905682e-07
8.49638337756e-06
-2.71671736961e-07
8.62955563344e-06
-2.46308037515e-07
8.60226163345e-06
-1.48030311513e-07
9.64960019053e-06
-6.8804111682e-07
1.13189781147e-05
-1.85874453973e-06
1.28832121534e-05
-3.18705780654e-06
1.40050986928e-05
-3.8720499049e-06
1.46393161151e-05
-4.01809658207e-06
1.50597763259e-05
-3.85909642614e-06
1.55068305265e-05
-3.63696544523e-06
1.60527381576e-05
-3.30645804238e-06
1.66921601288e-05
-2.87930239769e-06
1.73184058791e-05
-2.45149853533e-06
1.78773428194e-05
-2.04932453224e-06
1.83718823401e-05
-1.66976977557e-06
1.88167563095e-05
-1.30300985238e-06
1.92252314095e-05
-9.47264599318e-07
1.9565917505e-05
-5.67089728139e-07
1.97639729954e-05
-6.8040515263e-08
1.9739101215e-05
6.59018939358e-07
1.94584479996e-05
1.6591830661e-06
1.89599802242e-05
2.87554239736e-06
1.82812061823e-05
4.13551028941e-06
1.72907811138e-05
5.23312306807e-06
1.57500907943e-05
6.18062658592e-06
1.36299894233e-05
7.25733922183e-06
1.12765734305e-05
8.51921233961e-06
9.04241993197e-06
9.41202682049e-06
6.72253998532e-06
9.40577044663e-06
4.75468907068e-06
8.0153889714e-06
3.54214063196e-06
6.50928813134e-06
2.83068027804e-06
5.35071340554e-06
2.49179083105e-06
4.13032544191e-06
1.83234449098e-06
3.97909281679e-06
1.42062127465e-06
1.83486544653e-06
1.23562302566e-06
1.06583667153e-06
1.03762117355e-06
9.02278993335e-07
8.56492045453e-07
8.14061235504e-07
7.08374002844e-07
7.7074976135e-07
5.71183418004e-07
7.94153849332e-07
4.45391031984e-07
7.90537827657e-07
3.51605520706e-07
6.85802096904e-07
2.58330467584e-07
5.97404730354e-07
1.68736187448e-07
5.38820328933e-07
9.48693944495e-08
4.80188725315e-07
5.5500155997e-08
3.96628609933e-07
3.0247584598e-08
2.91478419443e-07
6.65093027092e-09
2.27968031983e-07
2.11876254112e-09
2.42864393121e-07
2.28003950356e-07
1.59472742219e-07
-1.95173041846e-06
8.51978643466e-07
-2.83991196859e-06
1.07617175354e-06
-3.90344454869e-06
7.38085602215e-07
-2.55641196172e-06
9.12191314929e-07
-1.42989250301e-06
1.97505687745e-06
-2.75761461294e-06
2.59027820863e-06
-3.72140265675e-06
2.8581470698e-06
-3.64773953497e-06
2.92836296511e-06
-3.16311860447e-06
3.12496288824e-06
-2.88358648381e-06
2.77958009992e-06
-1.77096984121e-06
2.53461471829e-06
-7.40546861297e-07
2.75515063568e-06
-7.54258847041e-07
3.12750021102e-06
-8.61068333102e-07
3.92781135713e-06
-1.50727145725e-06
5.03899484898e-06
-2.44892086948e-06
5.35134477822e-06
-2.33008277748e-06
5.26758396152e-06
-1.91889273211e-06
5.86642084488e-06
-2.53193207866e-06
6.60998444631e-06
-3.33830880974e-06
7.09177732839e-06
-3.54994216351e-06
7.44614188066e-06
-3.42390902328e-06
7.76739901037e-06
-3.24279031498e-06
7.91187000392e-06
-2.87221145099e-06
7.88125152328e-06
-2.43982557539e-06
7.95727898687e-06
-1.99318476152e-06
7.92221663292e-06
-1.78444798097e-06
8.0420914216e-06
-1.58019670012e-06
7.98076715241e-06
-1.08964120247e-06
7.76235320523e-06
-4.05260289944e-07
7.96484800847e-06
-4.78255347143e-07
8.31330803841e-06
-5.96343816042e-07
8.86133015102e-06
-6.92456159278e-07
1.02711042329e-05
-2.09038827842e-06
1.22813566746e-05
-3.86206599412e-06
1.35030522892e-05
-4.40462911753e-06
1.41366168781e-05
-4.50406525056e-06
1.456260167e-05
-4.44388630961e-06
1.50277328663e-05
-4.32377566597e-06
1.55504642712e-05
-4.15762911035e-06
1.613260548e-05
-3.88435394247e-06
1.67684890599e-05
-3.50925643702e-06
1.73972645124e-05
-3.07331465539e-06
1.79856456502e-05
-2.63030227643e-06
1.85335198123e-05
-2.20991313337e-06
1.90567907828e-05
-1.81812421175e-06
1.95512070804e-05
-1.43399716567e-06
1.9962723235e-05
-9.72761176517e-07
2.02036796686e-05
-3.07808055563e-07
2.02067545608e-05
6.52454158094e-07
1.99513574808e-05
1.90529443722e-06
1.94523467556e-05
3.36134831423e-06
1.86962454206e-05
4.87317302535e-06
1.75813110014e-05
6.3245056948e-06
1.59729699427e-05
7.75959060771e-06
1.38592534498e-05
9.33590721006e-06
1.143665096e-05
1.09019363403e-05
8.96435714456e-06
1.1843786851e-05
6.79021720872e-06
1.15479131545e-05
5.07422608362e-06
9.71110703446e-06
4.28946789809e-06
7.27874112362e-06
3.98140683954e-06
5.65499416649e-06
3.20997178427e-06
4.89123459873e-06
2.40159306508e-06
4.75993476096e-06
1.33285832929e-06
2.8906023414e-06
1.14215540368e-06
1.24729759027e-06
9.66372168877e-07
1.07137613897e-06
7.79989501081e-07
9.96857313518e-07
6.05477901581e-07
9.43762746727e-07
4.55524632256e-07
9.42759924202e-07
3.52697237029e-07
8.91521564414e-07
2.61848778915e-07
7.74245671258e-07
1.61497548733e-07
6.94679301708e-07
7.67770875948e-08
6.19945013999e-07
2.12733889201e-08
5.31969233723e-07
3.16999351001e-09
4.10661971014e-07
-1.76770769031e-08
3.09534346828e-07
-2.64967218704e-08
2.38388281069e-07
-1.86858974901e-08
2.21337865971e-07
2.12789156367e-07
3.31154947424e-07
-2.28847543473e-06
1.04467049787e-06
-3.56370286432e-06
1.01917575927e-06
-3.88748111463e-06
4.81103823933e-07
-2.02353939005e-06
1.12401797576e-06
-2.07949912972e-06
2.1255860057e-06
-3.7706627086e-06
2.43712949986e-06
-4.04566837905e-06
2.72031041436e-06
-3.94364362172e-06
2.45901996638e-06
-2.91456336407e-06
2.43128725115e-06
-2.86683333772e-06
2.07905841327e-06
-1.42474740855e-06
2.42450615632e-06
-1.09095049192e-06
2.73120556494e-06
-1.06522806517e-06
3.31378763485e-06
-1.44894994559e-06
4.30352621816e-06
-2.50521679577e-06
4.76674145949e-06
-2.92155089365e-06
4.65635638784e-06
-2.2275213017e-06
5.16713329493e-06
-2.43770494849e-06
5.96694369031e-06
-3.34132840492e-06
6.49551079805e-06
-3.87731910156e-06
6.86222754294e-06
-3.92698020083e-06
7.18537789932e-06
-3.75644376165e-06
7.56223045418e-06
-3.62968197907e-06
7.85298943036e-06
-3.17230390628e-06
7.70160831329e-06
-2.29606898431e-06
7.84849527466e-06
-2.14793915376e-06
7.78499478994e-06
-1.72748545111e-06
7.51331852108e-06
-1.31506576758e-06
7.41906487308e-06
-9.99719474273e-07
8.1787041384e-06
-1.16986996714e-06
8.54404877015e-06
-8.4681789548e-07
8.43584195221e-06
-4.86367438116e-07
9.72688963126e-06
-1.97899588805e-06
1.17297874315e-05
-4.08770703063e-06
1.2827925299e-05
-4.95719604223e-06
1.34936275149e-05
-5.06992531832e-06
1.39744302893e-05
-4.98551076497e-06
1.44479817323e-05
-4.91810418704e-06
1.49972915242e-05
-4.87261599067e-06
1.55949874399e-05
-4.75282987532e-06
1.62145801931e-05
-4.49902965214e-06
1.68532526378e-05
-4.14120151238e-06
1.74992366262e-05
-3.71140020976e-06
1.81282109284e-05
-3.25079444124e-06
1.87409372719e-05
-2.81352101361e-06
1.93525498025e-05
-2.42057827818e-06
1.99418375993e-05
-2.01464739416e-06
2.04299438202e-05
-1.45486280212e-06
2.07236781939e-05
-5.99021438079e-07
2.07679419134e-05
6.04779666864e-07
2.05471122211e-05
2.11850011578e-06
2.00555875261e-05
3.83978676186e-06
1.92654296747e-05
5.64662455625e-06
1.81029117052e-05
7.4635186e-06
1.65028743161e-05
9.3301398174e-06
1.44744848686e-05
1.13312517265e-05
1.20346082798e-05
1.33088877745e-05
9.21393287731e-06
1.46330938305e-05
6.41219150076e-06
1.43191525254e-05
4.64522194999e-06
1.14547872743e-05
4.19564564002e-06
7.72141800804e-06
4.25000196348e-06
5.59647753839e-06
4.12469328622e-06
5.00491016485e-06
3.69967863267e-06
5.17179619062e-06
2.0440155577e-06
4.52594028785e-06
1.19231624047e-06
2.08527825769e-06
8.78573185032e-07
1.37534422129e-06
6.59735949029e-07
1.20819527566e-06
4.79727164135e-07
1.12076166788e-06
3.53254909552e-07
1.06780052134e-06
2.64474577444e-07
9.79130841719e-07
1.58749425425e-07
8.78107883181e-07
5.51051902702e-08
7.9588395884e-07
-2.0437525437e-08
6.92626143066e-07
-5.57610369172e-08
5.64185475936e-07
-6.96121204805e-08
4.21996103087e-07
-7.72048810677e-08
3.14288047414e-07
-7.67535765639e-08
2.30125214433e-07
-4.02494001576e-08
1.92095168631e-07
1.65425424973e-07
4.78503444805e-07
-2.77439809032e-06
1.06507635571e-06
-4.16067119929e-06
7.55181008731e-07
-3.58669180191e-06
7.01213459651e-07
-1.97469273697e-06
1.59581773356e-06
-2.98229910599e-06
1.97338780591e-06
-4.15945572755e-06
2.24503451762e-06
-4.32972026396e-06
2.43857671928e-06
-4.14890670216e-06
2.31708009057e-06
-2.80234726297e-06
2.26050547245e-06
-2.82035949976e-06
2.20723429222e-06
-1.37628575689e-06
2.47771149291e-06
-1.36590295053e-06
2.84298421859e-06
-1.43501141357e-06
3.61943265384e-06
-2.23164813976e-06
4.5657168598e-06
-3.46136705321e-06
4.57691170378e-06
-2.94239070836e-06
4.65126223535e-06
-2.30966369009e-06
5.24529959573e-06
-3.04033426037e-06
5.90056343916e-06
-4.0067455529e-06
6.30970996463e-06
-4.29721244447e-06
6.59340444818e-06
-4.22062726554e-06
6.74757654858e-06
-3.92086493832e-06
6.85005398053e-06
-3.74244068857e-06
6.91427133423e-06
-3.2448203261e-06
6.95451532463e-06
-2.34433947824e-06
7.10042352492e-06
-2.30108782219e-06
7.40526411846e-06
-2.03812649491e-06
7.78616725309e-06
-1.70146928944e-06
8.15187350287e-06
-1.37086414963e-06
8.30574597899e-06
-1.3280418972e-06
8.73367602225e-06
-1.27471953734e-06
9.89086590846e-06
-1.63992902288e-06
1.12003453273e-05
-3.28333950801e-06
1.2258696774e-05
-5.14291988861e-06
1.2853781198e-05
-5.55276599368e-06
1.33133751242e-05
-5.53142736648e-06
1.38087970162e-05
-5.48292639321e-06
1.43457437095e-05
-5.45591456795e-06
1.49411274921e-05
-5.46693708433e-06
1.55876275635e-05
-5.39584156204e-06
1.62583299289e-05
-5.16420518388e-06
1.69322679462e-05
-4.80790502176e-06
1.76109329373e-05
-4.38184974018e-06
1.82976609644e-05
-3.92844079208e-06
1.89889798889e-05
-3.49515185744e-06
1.96839022325e-05
-3.10547602622e-06
2.03603282746e-05
-2.68156466958e-06
2.09364685182e-05
-2.02367618542e-06
2.13112193448e-05
-9.71111153043e-07
2.14309324517e-05
4.83412397111e-07
2.12812714279e-05
2.2596033369e-06
2.08365823843e-05
4.26952345249e-06
2.00473219036e-05
6.41226671947e-06
1.88692285903e-05
8.61483953514e-06
1.73089143308e-05
1.08643391541e-05
1.53794423185e-05
1.32348370317e-05
1.28777931697e-05
1.57794717138e-05
9.40756758078e-06
1.80646812771e-05
5.76048617382e-06
1.79339042973e-05
4.27474819005e-06
1.29244128391e-05
4.09293783516e-06
7.89348788454e-06
4.30713779261e-06
5.38015881423e-06
4.55096121707e-06
4.75876827808e-06
4.72599659847e-06
4.98520681797e-06
3.72141168749e-06
5.50746376658e-06
1.6882391614e-06
4.09922237669e-06
7.66932283132e-07
2.27978285516e-06
5.35346941574e-07
1.43135919984e-06
3.79397565393e-07
1.26915618489e-06
2.66161725164e-07
1.1780006013e-06
1.63022453459e-07
1.08067670496e-06
4.19658204112e-08
9.97824976709e-07
-6.180845984e-08
8.97732670171e-07
-1.27246747492e-07
7.55775337465e-07
-1.5417034287e-07
5.88604814575e-07
-1.66774830117e-07
4.31476123565e-07
-1.58676980213e-07
3.03539322272e-07
-1.27600049256e-07
2.01849095663e-07
-7.54299368327e-08
1.26444539752e-07
9.36001262502e-08
6.27062745113e-07
-3.40825149112e-06
1.12133618064e-06
-4.66413832205e-06
6.89122884807e-07
-3.16112171355e-06
9.17923517953e-07
-2.20970612264e-06
1.74777132554e-06
-3.82189760301e-06
1.71241457427e-06
-4.13520634983e-06
1.99253999418e-06
-4.62074682875e-06
1.87427925357e-06
-4.04068119078e-06
2.04954685343e-06
-2.98477245686e-06
1.82295583965e-06
-2.59976226863e-06
2.11278802415e-06
-1.67064019762e-06
2.47318362941e-06
-1.73018604667e-06
2.90095319212e-06
-1.86773794e-06
3.68462027138e-06
-3.0236327415e-06
4.11437777841e-06
-3.90085804893e-06
3.92371812162e-06
-2.75929618129e-06
4.40219471933e-06
-2.79593613441e-06
5.10196306983e-06
-3.74940390135e-06
5.67422336588e-06
-4.58957393864e-06
6.11473258019e-06
-4.7479991669e-06
6.39348094823e-06
-4.51061823359e-06
6.67713723521e-06
-4.21543040811e-06
6.68437817393e-06
-3.75978035316e-06
6.64092677803e-06
-3.21030556965e-06
6.99708357999e-06
-2.70741242692e-06
6.93889575908e-06
-2.24936931481e-06
6.71146738877e-06
-1.81727790961e-06
6.65889166294e-06
-1.65427934324e-06
7.1772682767e-06
-1.89385783111e-06
7.96019760473e-06
-2.11274775594e-06
8.65324195852e-06
-1.96665731553e-06
9.5527391007e-06
-2.53530416136e-06
1.13595172454e-05
-5.0852288449e-06
1.21905652277e-05
-5.97433612288e-06
1.26502011536e-05
-6.01489799677e-06
1.31423071189e-05
-6.02632786229e-06
1.36896289306e-05
-6.03221859331e-06
1.42668044705e-05
-6.03370228874e-06
1.48788766464e-05
-6.07757429645e-06
1.55469604211e-05
-6.06052065659e-06
1.62578655136e-05
-5.86958439471e-06
1.69851763683e-05
-5.5280865066e-06
1.77199449202e-05
-5.10823350092e-06
1.8469123403e-05
-4.66828519249e-06
1.92444429511e-05
-4.260411351e-06
2.00415159934e-05
-3.89197992268e-06
2.0804762137e-05
-3.43510870267e-06
2.14489512258e-05
-2.66080402959e-06
2.19116475131e-05
-1.43055204474e-06
2.21510464865e-05
2.42945181203e-07
2.2135420264e-05
2.26440955536e-06
2.1822217284e-05
4.56719671167e-06
2.11049961576e-05
7.1090883207e-06
1.99092659359e-05
9.78415635005e-06
1.83050401493e-05
1.24349673181e-05
1.63648481268e-05
1.51444892626e-05
1.37193834833e-05
1.83989479998e-05
9.28318022427e-06
2.24775187059e-05
4.67605239297e-06
2.25108555185e-05
3.48001459841e-06
1.40921799999e-05
4.16317776607e-06
7.20352456935e-06
4.66965732592e-06
4.87318423582e-06
4.84041843598e-06
4.5897885995e-06
4.90309571648e-06
4.92129709796e-06
5.08940618235e-06
5.30776920593e-06
3.66917024744e-06
5.4935711087e-06
1.44510236269e-06
4.48099064856e-06
4.30441580936e-07
2.42566600475e-06
2.8671443534e-07
1.40477200376e-06
1.73028029693e-07
1.2877239673e-06
4.55317387674e-08
1.20549901904e-06
-8.72434387766e-08
1.12954434649e-06
-1.9078198437e-07
1.00059520592e-06
-2.50205589865e-07
8.139905757e-07
-2.78715769831e-07
6.15126257758e-07
-2.8171315183e-07
4.32493421971e-07
-2.49893876877e-07
2.69422814529e-07
-1.8973025635e-07
1.33802448601e-07
-9.78266654096e-08
4.21472933458e-08
-1.06233631613e-08
6.35852341477e-07
-4.05258414315e-06
9.45591396491e-07
-4.98330050716e-06
7.23792446968e-07
-2.94483233583e-06
1.26730273833e-06
-2.75999974405e-06
1.41190562682e-06