/*--------------------------------*- C++ -*----------------------------------*\
| =========                 |                                                 |
| \\      /  F ield         | OpenFOAM: The Open Source CFD Toolbox           |
|  \\    /   O peration     | Version:  v1806                                 |
|   \\  /    A nd           | Web:      www.OpenFOAM.com                      |
|    \\/     M anipulation  |                                                 |
\*---------------------------------------------------------------------------*/
FoamFile
{
    version     2.0;
    format      ascii;
    class       volScalarField;
    location    "891";
    object      pa;
}
// * * * * * * * * * * * * * * * * * * * * * * * * * * * * * * * * * * * * * //

dimensions      [0 2 -2 0 0 0 0];


internalField   nonuniform List<scalar> 
6400
(
-0.121508115161
-0.121508715545
-0.121510433544
-0.12151384954
-0.121519034638
-0.121526067037
-0.121535037468
-0.121546322289
-0.121560396934
-0.121577893392
-0.121600405984
-0.121629023823
-0.121663630388
-0.121704679213
-0.121753213195
-0.12181059179
-0.121878093463
-0.121956504099
-0.122045994463
-0.122145763902
-0.122254995388
-0.122375064603
-0.122509338794
-0.122661476111
-0.122834282654
-0.123028868542
-0.123245129068
-0.123483194066
-0.12374404382
-0.124029126984
-0.124339840832
-0.124676477171
-0.125037343059
-0.125420482596
-0.1258253464
-0.126251401312
-0.126699649337
-0.127173627545
-0.127672944701
-0.128193039924
-0.128734565028
-0.129304725644
-0.129907337653
-0.130537502616
-0.131187726345
-0.131852122065
-0.132525876549
-0.133204829915
-0.133884919922
-0.134562308066
-0.135233417404
-0.135892706031
-0.13653122337
-0.137138195025
-0.137709476872
-0.138245593906
-0.138740189211
-0.139182009198
-0.139565415178
-0.139893382499
-0.140168910977
-0.14039204881
-0.140563525521
-0.140702727628
-0.140846461681
-0.141032846001
-0.141265623776
-0.141498931264
-0.141695134546
-0.141851050492
-0.141976833671
-0.142084199559
-0.14218069549
-0.142263914076
-0.14233608988
-0.142397262448
-0.142446692024
-0.142478407153
-0.142498330606
-0.142506721918
-0.121507279797
-0.121507918952
-0.121509465631
-0.121512766023
-0.121518180461
-0.121525425074
-0.121534369968
-0.121545166542
-0.121558686035
-0.121575958951
-0.121598171638
-0.121626302549
-0.121660636349
-0.121701501262
-0.121749607233
-0.121806153111
-0.121872980959
-0.121951046568
-0.122040290156
-0.122139616623
-0.122247726869
-0.122366672584
-0.122500268023
-0.122651842431
-0.122824132872
-0.123018271839
-0.123233928093
-0.123471472742
-0.123731912177
-0.124016518265
-0.124326515312
-0.12466262321
-0.125023211904
-0.125405748353
-0.125810118202
-0.126235896475
-0.126683791286
-0.127157824682
-0.127657667018
-0.128178311565
-0.128719698043
-0.129290195823
-0.129894513784
-0.130526125461
-0.131177248502
-0.131842732808
-0.132517730327
-0.133198208278
-0.133879829827
-0.134557949396
-0.135228862392
-0.135889171074
-0.136531147561
-0.137140312421
-0.137713399666
-0.138251922292
-0.138745873467
-0.139185969007
-0.139569654396
-0.139897578864
-0.140171415293
-0.1403947061
-0.140568644356
-0.140711834477
-0.140859053851
-0.141046909933
-0.141282683667
-0.14151590215
-0.141710827702
-0.141866282963
-0.141991829937
-0.142099482865
-0.14219690095
-0.142281290714
-0.142352131686
-0.14241063564
-0.142455854669
-0.14248608129
-0.142505206653
-0.142511509071
-0.121504861894
-0.121505892956
-0.121507246579
-0.121510200442
-0.12151531667
-0.121523180736
-0.121532521927
-0.121542662244
-0.121555239466
-0.121571769193
-0.121593319634
-0.121620728177
-0.121654393395
-0.121694585621
-0.12174175624
-0.121796393086
-0.121861295657
-0.121939150609
-0.122027938151
-0.122125840414
-0.122231897612
-0.122348308217
-0.122480406439
-0.12263137652
-0.122802543108
-0.122995121642
-0.123209606647
-0.123446170115
-0.123705557877
-0.123988999702
-0.124297703213
-0.124632663013
-0.124992655928
-0.12537367444
-0.125776245593
-0.12620185048
-0.126649255717
-0.127122441824
-0.127622653711
-0.128144977364
-0.12868962683
-0.129262643669
-0.129867224677
-0.130499086504
-0.131151456167
-0.131818753729
-0.132496191023
-0.133179399418
-0.13386399888
-0.134545600706
-0.135220120997
-0.135882532241
-0.136524608196
-0.13713729652
-0.137716717056
-0.138257807894
-0.13875136621
-0.139191192502
-0.139575010263
-0.139903039018
-0.140177402083
-0.140400444508
-0.140577661481
-0.140729768322
-0.140889997898
-0.141087124075
-0.141316626127
-0.141543398142
-0.141739704574
-0.141897994442
-0.142026257024
-0.142135262612
-0.142229536611
-0.142309182839
-0.142377167235
-0.142432508783
-0.142473294613
-0.142500700369
-0.1425176173
-0.142523592891
-0.121501399969
-0.121502412476
-0.121503499932
-0.121506113019
-0.121510422073
-0.121517898431
-0.12152900426
-0.121538870298
-0.121550158894
-0.121565511114
-0.121586030826
-0.121612483232
-0.121645211553
-0.121684122899
-0.1217296077
-0.121783300561
-0.121847172726
-0.121922543659
-0.122007683051
-0.122101188842
-0.122204634686
-0.122320420274
-0.122451391851
-0.122600539278
-0.122769871563
-0.12296059712
-0.12317329884
-0.123408207092
-0.123665951344
-0.123947615438
-0.124254624595
-0.124587879322
-0.124946236112
-0.125326412735
-0.125726223864
-0.126149194728
-0.126597242441
-0.127070208282
-0.127569469502
-0.128093798613
-0.128642762877
-0.129219466562
-0.129825900389
-0.13045915554
-0.131113619551
-0.131783787639
-0.132464722406
-0.133151869149
-0.133840766289
-0.134526964814
-0.135205895265
-0.13587198353
-0.136517839672
-0.137135907249
-0.137720330904
-0.138264102927
-0.138758971974
-0.139199497678
-0.139583685192
-0.139911941162
-0.14018665376
-0.140412448579
-0.14060044874
-0.140770043996
-0.14094208413
-0.141137688321
-0.141365187607
-0.141592381685
-0.141790972744
-0.141951845427
-0.142079438511
-0.142182884286
-0.1422704923
-0.142349255502
-0.142417263652
-0.142467927451
-0.14250206093
-0.142527277934
-0.142544507299
-0.142551492446
-0.121495963466
-0.121496112246
-0.121497372936
-0.121499873273
-0.121504345516
-0.121510618306
-0.121520256215
-0.121530702881
-0.121542106692
-0.121556767431
-0.121576077496
-0.121601365509
-0.121632829978
-0.121670847427
-0.121715646882
-0.121767190642
-0.121827382735
-0.121897613392
-0.12197800204
-0.122068521994
-0.122169901875
-0.122283699611
-0.122412620402
-0.122559504336
-0.12272632915
-0.122914486307
-0.12312462663
-0.123357178128
-0.123612702364
-0.123892100192
-0.124196619349
-0.124527927187
-0.124885017568
-0.125261682271
-0.125658707655
-0.126079369188
-0.126525461378
-0.126998725163
-0.127499308911
-0.128026262152
-0.128579352561
-0.1291601555
-0.129769620727
-0.130405509447
-0.131063141984
-0.13173726267
-0.132422842428
-0.133115158319
-0.13380964592
-0.134501720082
-0.13518648366
-0.135858149403
-0.136509799435
-0.137134200509
-0.137724198811
-0.138271723349
-0.138768988762
-0.13921111769
-0.139596475033
-0.139926086408
-0.140203833852
-0.140437702426
-0.140641887273
-0.140829954894
-0.141012135118
-0.14121047358
-0.141435707148
-0.141662113573
-0.141862568491
-0.142024067994
-0.142147110471
-0.142244200878
-0.142332293547
-0.142414263218
-0.142478340859
-0.142522038668
-0.142552433569
-0.142579060964
-0.142594510267
-0.142599267183
-0.121486323673
-0.121486157323
-0.121488118848
-0.121490459225
-0.121494889728
-0.121500744316
-0.121509457266
-0.121519411893
-0.121530925674
-0.121545061456
-0.121562856738
-0.121586601266
-0.12161737731
-0.121654536976
-0.121696735975
-0.121744842921
-0.121800751416
-0.121866391671
-0.121942495143
-0.122029266108
-0.122127165704
-0.122237956805
-0.122364114113
-0.122508139721
-0.122671867143
-0.122856524957
-0.123063335886
-0.123292794861
-0.123545479532
-0.123822115373
-0.124123795514
-0.124451872951
-0.124805139744
-0.125180231669
-0.125573375832
-0.125990269798
-0.126435235711
-0.126909194114
-0.127411599317
-0.127941586791
-0.12849891031
-0.129084270905
-0.129697860008
-0.130337694373
-0.130999723334
-0.131678982614
-0.13237041726
-0.133069175274
-0.133770575702
-0.134469899085
-0.135162045325
-0.135841133965
-0.136500361882
-0.137132255074
-0.13772872441
-0.138281203981
-0.138782301124
-0.139227661434
-0.139616244098
-0.139950217619
-0.140235448638
-0.1404823875
-0.140705606817
-0.140908812147
-0.141101528141
-0.141308763665
-0.141537911451
-0.141762453046
-0.141960217041
-0.142116705209
-0.142233585446
-0.14233176575
-0.1424267649
-0.142506714374
-0.142563242499
-0.142600365599
-0.142629884985
-0.14265320191
-0.142664168112
-0.142668238887
-0.12147193653
-0.121472728141
-0.121475778
-0.121479004736
-0.121481963871
-0.121487452285
-0.121495961653
-0.121505414885
-0.121516541693
-0.121529950706
-0.121547145458
-0.121568912251
-0.121598022892
-0.121632349107
-0.12167116415
-0.121715431646
-0.121767434019
-0.121829079515
-0.121900893946
-0.121982812453
-0.122076328691
-0.122183448173
-0.122305988309
-0.122446199227
-0.122606012149
-0.122786939899
-0.122988954155
-0.123214386672
-0.123463751215
-0.123737612171
-0.124035432804
-0.124358833705
-0.124707979252
-0.125077718809
-0.125467899788
-0.125882558354
-0.126326720248
-0.126801404885
-0.127305814069
-0.127839060011
-0.128400823811
-0.128991260316
-0.129610008303
-0.130255108315
-0.130922877323
-0.131608588904
-0.132307202351
-0.133013772179
-0.133723512335
-0.134431587557
-0.135132763382
-0.135821055366
-0.136489528119
-0.137130284575
-0.13773462812
-0.138293872108
-0.138801083307
-0.139252548703
-0.139648065719
-0.139990977233
-0.140288728259
-0.140552681806
-0.140792738557
-0.141012180431
-0.141222758406
-0.141442095208
-0.141674803688
-0.141893766069
-0.142082294445
-0.142231758751
-0.142350263089
-0.142458607551
-0.14255672291
-0.142629048559
-0.142676558747
-0.142707710395
-0.14273379545
-0.142748290678
-0.142751217557
-0.142752982354
-0.121455348043
-0.121456997907
-0.121460196754
-0.121464409428
-0.121466873644
-0.121472373116
-0.121479754029
-0.121488598614
-0.121499259822
-0.121510611692
-0.121527256227
-0.121547990146
-0.121574025555
-0.12160471088
-0.121639818667
-0.121679921882
-0.12172813996
-0.121785691677
-0.121852380878
-0.12192896757
-0.122017469354
-0.122119955527
-0.122237987329
-0.1223739217
-0.122529229091
-0.122704932306
-0.122902465699
-0.123121181435
-0.12336690021
-0.123637801045
-0.123931226835
-0.12424730102
-0.124590593283
-0.124955575582
-0.125342027227
-0.125755562025
-0.126199450879
-0.126674782316
-0.127181169597
-0.127717834927
-0.128284333315
-0.128880434948
-0.129505366937
-0.130157068564
-0.130832018544
-0.131525641709
-0.132232915738
-0.132948824628
-0.133668483321
-0.134386949713
-0.13509887712
-0.135798150883
-0.136477611381
-0.137128995111
-0.137743346834
-0.138312185841
-0.138829115445
-0.139290959584
-0.139697995749
-0.140054086327
-0.14036706323
-0.140647932012
-0.140906352018
-0.141149543954
-0.141380338862
-0.141612626674
-0.141843657226
-0.142055232399
-0.142235251652
-0.142383233957
-0.142511627051
-0.142630016388
-0.1427240485
-0.142786065872
-0.142822570869
-0.142845575199
-0.142858367666
-0.142858957548
-0.142849793914
-0.142844617181
-0.12143749507
-0.121439520765
-0.121442314914
-0.121444941322
-0.121447945803
-0.121454204179
-0.121460547436
-0.121468397289
-0.121478812367
-0.121489142392
-0.121502278297
-0.121521570785
-0.121545064416
-0.121571717501
-0.121603011329
-0.12163973472
-0.121683191085
-0.12173548336
-0.121796670321
-0.121867797556
-0.121950752776
-0.122047518485
-0.122159586083
-0.122289843955
-0.122441059836
-0.122610043121
-0.122801778678
-0.123016167629
-0.123254598493
-0.123519495162
-0.123808206486
-0.124120372005
-0.124453705904
-0.124812087547
-0.125196195511
-0.125608795209
-0.126052426147
-0.126528362583
-0.127036699463
-0.127576919927
-0.128148509041
-0.128750935925
-0.129383099218
-0.130042777201
-0.130726462101
-0.131429631295
-0.132147258526
-0.13287425355
-0.133605613366
-0.134336273442
-0.135060778787
-0.135772905321
-0.136465347245
-0.137129736267
-0.137757285094
-0.138339965462
-0.138871581234
-0.13934865502
-0.139771115672
-0.140143163373
-0.140472617849
-0.140771459092
-0.141051505451
-0.141319043515
-0.141574097972
-0.141821433809
-0.142056443626
-0.142256542429
-0.142429776026
-0.142581010396
-0.142723946835
-0.142848162464
-0.142934852731
-0.142984134724
-0.143005254439
-0.143011186708
-0.143000680642
-0.142979382995
-0.142954203138
-0.142938803282
-0.121418374933
-0.121420468983
-0.121423301743
-0.121424813795
-0.121427655855
-0.121432920378
-0.121438216845
-0.121444543107
-0.121452859774
-0.12146389162
-0.121474359717
-0.121490438995
-0.121510869266
-0.121533894006
-0.121560685097
-0.121593669768
-0.121632699824
-0.121678975315
-0.121733759122
-0.121798822929
-0.12187593629
-0.121966621567
-0.122071947243
-0.122194068512
-0.122339448342
-0.122503751564
-0.122685079354
-0.122893608879
-0.123124980837
-0.123384027747
-0.123666439428
-0.123971284518
-0.124298139142
-0.124649486423
-0.125029994623
-0.125441233165
-0.125884489625
-0.126360989274
-0.126871257781
-0.127415149344
-0.127992210278
-0.1286016906
-0.12924219174
-0.129911292507
-0.130605408073
-0.131319984051
-0.132049936952
-0.132790060158
-0.133535179076
-0.134280054736
-0.13501912799
-0.13574616597
-0.136453978627
-0.137134592259
-0.137779904074
-0.13838237261
-0.138934591573
-0.139430713895
-0.139870859998
-0.140262518588
-0.140611873816
-0.140930312344
-0.141232487015
-0.141523073592
-0.141802249183
-0.142066100172
-0.142302713922
-0.14250735547
-0.142675698189
-0.142829206434
-0.142990217688
-0.143120213537
-0.143199688167
-0.143232637131
-0.143228876372
-0.143206267845
-0.143162981171
-0.143109620781
-0.143062292796
-0.143033741195
-0.121397282981
-0.121399012753
-0.121401533478
-0.121402865937
-0.121406227115
-0.121409283975
-0.121413048357
-0.121417763735
-0.121422312683
-0.121431988186
-0.121441099351
-0.121454031376
-0.121471033161
-0.121490966883
-0.121513634133
-0.121541381441
-0.121575252634
-0.121615539831
-0.121663579687
-0.121721540807
-0.121791831929
-0.121876278613
-0.121975911855
-0.12208903208
-0.122223183654
-0.122382567673
-0.122556816093
-0.12275536322
-0.122978649786
-0.123225687665
-0.123502273828
-0.123800645536
-0.1241206692
-0.124466304269
-0.124842842282
-0.125251912679
-0.125694373408
-0.126171317206
-0.126683510636
-0.127231175905
-0.127814079438
-0.128431380887
-0.129081403853
-0.129761486846
-0.13046791268
-0.131196040812
-0.131940666011
-0.1326963694
-0.133457685645
-0.134219109331
-0.134974979889
-0.135719233831
-0.136445283002
-0.137146319476
-0.137815612242
-0.138445858765
-0.139024632372
-0.139540699522
-0.140000383482
-0.140423245597
-0.140801082154
-0.14113640286
-0.141456740037
-0.14176652058
-0.142064831282
-0.142342602586
-0.142588599543
-0.142800456646
-0.142971505349
-0.143121387035
-0.143319641523
-0.143465476379
-0.143538344556
-0.143546704465
-0.143496872293
-0.143438013603
-0.143351340258
-0.143250122153
-0.143167602994
-0.143118773134
-0.121373948947
-0.121374874085
-0.121375793878
-0.121377623616
-0.121381200093
-0.121382647381
-0.121384900577
-0.121388211964
-0.121389853292
-0.121395537254
-0.12140255226
-0.121412282531
-0.121425358955
-0.121441960734
-0.12146168317
-0.121483786872
-0.121511305782
-0.121545019233
-0.121586012156
-0.12163609592
-0.121697800586
-0.121773999585
-0.121868429119
-0.121975900686
-0.122096829421
-0.122245054649
-0.122412788572
-0.122598725156
-0.122814797532
-0.123053375547
-0.12331713127
-0.123605932795
-0.123919278268
-0.124260650054
-0.1246332634
-0.125039468349
-0.125480585502
-0.1259577574
-0.126471888345
-0.127023449953
-0.127612527953
-0.128238412117
-0.128899219888
-0.129591989257
-0.130312835306
-0.131057022573
-0.131819160098
-0.132593462367
-0.133373965494
-0.134154729236
-0.134929936405
-0.135693967928
-0.13644150347
-0.137168013852
-0.137869089308
-0.138538090297
-0.139149651926
-0.139681725659
-0.140162948927
-0.140650052946
-0.14107340354
-0.141406256687
-0.141733716151
-0.142057331219
-0.14237630909
-0.142672780356
-0.142930349815
-0.143127935647
-0.143361917578
-0.143415895317
-0.14371986464
-0.143906240942
-0.143974465651
-0.143944666708
-0.143807347676
-0.143719271386
-0.143576147246
-0.143392435723
-0.143251904655
-0.143166155459
-0.121348534341
-0.121348713919
-0.121347739303
-0.12134932785
-0.121351341921
-0.121352113663
-0.121353083627
-0.12135453927
-0.121354442581
-0.121356418043
-0.121359748632
-0.121365552258
-0.121374155896
-0.121385970656
-0.121401912829
-0.121419068927
-0.121440418882
-0.121467198422
-0.121500721937
-0.121542550072
-0.121594674373
-0.121660128112
-0.121745268704
-0.121848561025
-0.121960054103
-0.12209257072
-0.122251779659
-0.122426536264
-0.122627217235
-0.122856520361
-0.123110616358
-0.123390103375
-0.123695210943
-0.124030901092
-0.124399187662
-0.124802102619
-0.125241361305
-0.125718387611
-0.126234418304
-0.126790121995
-0.127385764553
-0.128020931975
-0.128693785191
-0.129401094447
-0.13013875598
-0.130901957226
-0.131685091507
-0.132481798479
-0.133285286408
-0.134088845395
-0.134886378787
-0.135672954928
-0.136445188446
-0.137202010072
-0.137942845466
-0.138669214056
-0.139327500942
-0.139860512018
-0.140354187808
-0.141020560089
-0.141583605214
-0.141809836066
-0.142135836345
-0.142481196742
-0.142837805733
-0.143155937193
-0.143437045437
-0.143444862501
-0.143384791287
-0.143610849678
-0.144426307671
-0.144700564806
-0.144719845918
-0.144616888192
-0.144138728366
-0.144048871478
-0.143842330409
-0.143511273048
-0.143287104828
-0.14313230717
-0.121321790032
-0.12132168796
-0.121320730619
-0.121319830944
-0.121319227258
-0.121318766111
-0.121318203693
-0.121316971273
-0.121315650092
-0.121313908179
-0.121312984007
-0.121314324278
-0.121318026418
-0.12132431308
-0.121333782219
-0.121345791548
-0.12136153211
-0.121381466009
-0.121407134011
-0.121440260029
-0.121482561892
-0.121536365535
-0.121608538074
-0.121703674736
-0.121809387934
-0.121926039691
-0.122071973343
-0.122238047353
-0.122422039447
-0.12263626233
-0.122878458014
-0.12314794685
-0.123446202217
-0.123775679837
-0.124138740893
-0.124537687989
-0.124974635406
-0.125451172814
-0.125968819567
-0.12652878914
-0.12713154692
-0.127776809053
-0.128462944289
-0.129186693938
-0.129943830809
-0.130729536754
-0.131537992897
-0.13236200451
-0.133193433192
-0.134024291214
-0.13484782529
-0.13565996483
-0.13645899696
-0.137247535162
-0.138028695454
-0.138859188216
-0.139620341801
-0.140090079271
-0.140453201507
-0.141459743326
-0.141427301404
-0.141356070264
-0.14140904169
-0.141479301198
-0.141575701433
-0.141680908777
-0.141860291917
-0.14224915695
-0.142702098689
-0.142610176572
-0.142867218915
-0.143180638668
-0.143365253969
-0.143446984731
-0.14389221891
-0.144633988543
-0.144442259054
-0.143578968766
-0.143231343632
-0.142930680206
-0.121293517616
-0.121293275299
-0.121292616627
-0.12128895533
-0.121285930316
-0.121283643515
-0.121281127104
-0.121277407538
-0.121274573749
-0.121268255695
-0.121262616274
-0.121259128099
-0.121257658309
-0.12125836871
-0.121260775348
-0.121266055731
-0.121275154264
-0.12128772557
-0.121304993375
-0.121328718955
-0.121360753027
-0.12140294775
-0.121460290166
-0.121542316255
-0.121641380724
-0.12174481856
-0.121871951397
-0.122028348939
-0.122201936388
-0.12239716033
-0.122623868198
-0.122881395506
-0.123170555572
-0.12349268539
-0.123849668005
-0.12424391532
-0.124677844448
-0.125153542313
-0.125672673812
-0.126236818296
-0.126847061175
-0.127503340753
-0.128204115902
-0.128946236184
-0.129725662054
-0.13053789991
-0.131377043507
-0.132234754776
-0.133100799993
-0.133965078216
-0.134819557702
-0.135661228094
-0.13648774852
-0.137298959067
-0.138089855649
-0.13914378257
-0.1402092339
-0.140137211984
-0.14012373118
-0.140399054604
-0.140735280483
-0.140737248757
-0.140602076417
-0.140379540651
-0.140112426404
-0.139809725536
-0.139563812474
-0.139527667551
-0.139658532667
-0.13969636113
-0.13993731709
-0.140321509341
-0.140748984888
-0.141209601239
-0.141795532952
-0.142355794802
-0.142605085446
-0.143066505121
-0.143202810054
-0.142494315813
-0.12126379685
-0.12126304194
-0.121261057583
-0.121256160872
-0.12125120541
-0.121246985703
-0.121241989229
-0.121235272122
-0.121229688982
-0.121219046776
-0.121208790835
-0.121200320549
-0.121193546324
-0.12118857532
-0.121183718869
-0.121181133029
-0.121182318786
-0.121186521837
-0.121194522286
-0.121207979743
-0.121228762372
-0.121258842709
-0.121301616158
-0.121366897494
-0.121454100349
-0.121549031685
-0.121654785807
-0.121790849188
-0.121953781949
-0.122136358549
-0.122346543647
-0.122589614512
-0.122867222362
-0.12318016072
-0.123529799471
-0.123918269243
-0.124348363241
-0.124822533417
-0.125342899195
-0.125911231839
-0.126529151324
-0.127197216888
-0.127914093351
-0.128676601096
-0.129481102594
-0.130324212429
-0.131200644564
-0.132100550637
-0.133010291335
-0.133916560396
-0.134808847068
-0.135687653722
-0.136540579049
-0.137330290433
-0.137855396149
-0.139437498252
-0.1395843012
-0.139696087689
-0.139747903347
-0.139810911046
-0.139978904375
-0.139878565011
-0.139555540095
-0.139052819557
-0.13843774997
-0.137753338226
-0.137085067613
-0.136522800063
-0.136092398453
-0.135807735688
-0.135765518747
-0.135923287908
-0.136244763192
-0.136730454773
-0.137526395126
-0.138709492592
-0.139932813216
-0.140769809122
-0.140986800084
-0.140902556618
-0.12123329484
-0.12123202283
-0.121228930205
-0.121222463668
-0.121215927256
-0.121209437018
-0.121201492262
-0.121191000315
-0.121180905117
-0.121166626212
-0.121151724677
-0.121138081987
-0.121125854942
-0.121115159382
-0.12110224402
-0.12109118008
-0.121083531286
-0.121078387423
-0.12107606616
-0.121078234231
-0.12108660959
-0.12110331678
-0.121131172867
-0.121178011204
-0.121248076757
-0.121333720924
-0.121422383238
-0.121534791216
-0.121676774649
-0.121845228679
-0.122040572162
-0.122269253859
-0.122533622606
-0.122835491224
-0.12317638317
-0.123558048104
-0.123983218134
-0.12445505709
-0.124976079939
-0.125548453552
-0.126174212492
-0.126854566344
-0.127588796251
-0.128373755646
-0.129206111394
-0.130084646188
-0.131006076686
-0.131958872567
-0.13292465036
-0.133885845468
-0.134825856708
-0.135765310713
-0.136696239241
-0.137524155876
-0.137982684963
-0.138312988472
-0.138717377359
-0.139111837751
-0.139244976467
-0.139164198009
-0.138940669115
-0.13845278471
-0.137763976222
-0.136898565502
-0.135918963872
-0.134881357102
-0.13385772582
-0.13290160599
-0.132052814677
-0.131387854667
-0.130994545235
-0.130855099266
-0.130936837105
-0.13126957703
-0.132039839361
-0.133445878153
-0.13523793587
-0.136726761787
-0.138189509346
-0.140963017528
-0.121203106383
-0.121201192752
-0.12119627722
-0.121188557454
-0.121180789999
-0.121171847494
-0.121160760399
-0.121146649039
-0.12113178871
-0.121112428833
-0.121092141926
-0.121072698178
-0.121054352522
-0.121037210965
-0.121015663697
-0.120995750391
-0.120978568998
-0.120963352463
-0.120949715857
-0.120939546052
-0.12093431254
-0.120936241487
-0.120948012918
-0.120975292799
-0.121024138648
-0.121094150519
-0.12117235198
-0.121263597696
-0.121381378984
-0.121528232326
-0.121705124544
-0.121917233332
-0.122166283399
-0.122455180495
-0.122785831927
-0.12315938625
-0.123578785366
-0.124047413021
-0.124568488584
-0.125144484111
-0.125777906553
-0.126470938336
-0.127223656728
-0.128033131925
-0.128895345232
-0.129811674137
-0.130785451478
-0.13180622052
-0.132846345094
-0.133881300434
-0.134866613549
-0.13589230217
-0.136979249527
-0.13721265141
-0.137434118159
-0.137707521687
-0.138183523803
-0.138475714893
-0.138372333644
-0.137964947057
-0.137283314193
-0.136319494237
-0.135162124386
-0.133848883585
-0.132437726159
-0.130984540788
-0.129552617224
-0.128189945241
-0.126942085324
-0.125881557852
-0.125093678195
-0.124610579684
-0.124394248302
-0.124502615598
-0.125172123907
-0.126665944352
-0.12871989284
-0.130452070704
-0.133422351999
-0.144580356296
-0.121174033673
-0.121171448062
-0.121164737076
-0.121155951578
-0.121146639228
-0.121134977847
-0.121120477045
-0.121102935063
-0.121082778119
-0.121057444461
-0.121030865417
-0.121004770129
-0.120979255717
-0.120953514376
-0.120923535186
-0.120894465324
-0.120867042571
-0.120840693738
-0.120815034862
-0.120791678021
-0.120771727175
-0.120757365525
-0.120751677207
-0.120758153994
-0.120782905085
-0.120830523296
-0.120894433819
-0.120967338643
-0.121061662906
-0.121185344407
-0.121339759953
-0.121531232853
-0.121762687988
-0.122035902962
-0.122354157658
-0.122718114116
-0.123130386108
-0.123594914243
-0.124115397726
-0.124694831598
-0.125335801991
-0.126041237616
-0.126812428348
-0.127647426164
-0.128542924962
-0.129502608098
-0.130534513399
-0.131631267129
-0.13276914122
-0.133923133873
-0.134898538796
-0.135974948261
-0.136329826586
-0.136679839115
-0.137083357544
-0.137434923861
-0.137687034257
-0.137552497845
-0.1369826015
-0.136079768139
-0.13487306159
-0.133396258454
-0.131730068655
-0.129920928723
-0.128022758614
-0.126084403829
-0.124156119198
-0.122276733294
-0.120480622775
-0.118814859247
-0.117351570535
-0.116158120965
-0.115200319248
-0.114528976279
-0.114367937665
-0.115076786002
-0.116543836719
-0.117377517458
-0.117291552972
-0.122278828756
-0.121147149794
-0.121143931585
-0.121135856899
-0.12112586238
-0.121114300001
-0.121099532201
-0.121081066665
-0.121059842335
-0.12103403484
-0.121002245783
-0.120968757201
-0.120935278092
-0.120901780402
-0.120866247117
-0.120827158633
-0.120788070231
-0.120749465357
-0.120710603253
-0.120671826371
-0.120634308831
-0.120598595611
-0.120566478362
-0.120541766375
-0.120526157411
-0.120525100412
-0.120545168767
-0.120585109006
-0.120639185085
-0.12071132516
-0.120810726679
-0.120941427431
-0.121107802835
-0.121317227161
-0.121572006775
-0.121876116805
-0.122229353824
-0.122633212963
-0.123092347822
-0.123611182991
-0.124193444579
-0.124841996957
-0.12555986347
-0.12634993614
-0.127211868936
-0.128143220314
-0.129146772032
-0.130235469309
-0.131418608828
-0.132688161051
-0.134076101839
-0.134846533443
-0.135271727166
-0.135703233144
-0.136402194839
-0.136816558692
-0.136946228399
-0.136761076332
-0.136071371824
-0.134928159443
-0.133431692192
-0.131630476607
-0.12957656481
-0.127332219891
-0.124936198234
-0.122427529484
-0.119838622883
-0.11720115368
-0.114540981395
-0.111881573917
-0.109253470042
-0.106712776782
-0.104326236494
-0.102033085198
-0.0997132629196
-0.097472432595
-0.0957536876112
-0.0945057661403
-0.0900059342892
-0.0743444205402
-0.0558301166411
-0.121122725139
-0.121118929651
-0.121109830063
-0.121098413135
-0.121084249134
-0.121066026866
-0.121043518307
-0.121018065092
-0.120986013559
-0.120947576741
-0.120906730622
-0.120865340718
-0.12082334868
-0.120777981292
-0.120728201636
-0.120677931925
-0.120627070664
-0.120574405975
-0.120520715777
-0.120467544336
-0.120414646986
-0.120363187471
-0.120317414784
-0.120278314946
-0.12025021567
-0.120240027064
-0.120251381338
-0.120282607099
-0.120334716035
-0.120405632467
-0.120507783531
-0.12064690986
-0.120830335672
-0.121060186751
-0.121344553026
-0.121685778936
-0.122080761711
-0.122533960438
-0.12305006588
-0.123633930261
-0.124289675046
-0.12502057157
-0.125830214767
-0.126718409158
-0.127680950048
-0.128722610998
-0.129865279107
-0.131149185199
-0.13263646679
-0.135068807984
-0.134435353354
-0.134708675576
-0.13543685417
-0.13620416301
-0.136293185099
-0.135978489287
-0.135197632855
-0.133869510758
-0.132081774182
-0.129927057553
-0.127465431344
-0.1247517802
-0.121832346961
-0.118735611129
-0.115488101517
-0.112112574214
-0.108632527073
-0.105068815218
-0.10143712884
-0.0977443299778
-0.093989446209
-0.0901513471522
-0.0861199594509
-0.0815339941006
-0.076257717342
-0.070657759814
-0.0641702221542
-0.0499911731121
-0.0122057561621
0.0431224162667
-0.121101343804
-0.121096906595
-0.121086835725
-0.121073754246
-0.121056718288
-0.121034867116
-0.12100850996
-0.12097792996
-0.120939394495
-0.120894408856
-0.120845724245
-0.120795783661
-0.120744666017
-0.120688925222
-0.120627525568
-0.12056497888
-0.120500874957
-0.120432855138
-0.120362516512
-0.120291870978
-0.120219700678
-0.120147004453
-0.120077647678
-0.120013390164
-0.119956859455
-0.119914274044
-0.119893054506
-0.119894171182
-0.119921684904
-0.119966528539
-0.120036703072
-0.120141664196
-0.120294979258
-0.120500132098
-0.12075872604
-0.12108054653
-0.121464450706
-0.121910973015
-0.122424714042
-0.123009918537
-0.123671861815
-0.124416044521
-0.125245425309
-0.12615692795
-0.127143151203
-0.128210908178
-0.129382199143
-0.130670792031
-0.131757668941
-0.132803170159
-0.133493442187
-0.133778958513
-0.135245506767
-0.135652660104
-0.1352950668
-0.13438813778
-0.132908415385
-0.130871442017
-0.128379778915
-0.125520915687
-0.122358942225
-0.118948405263
-0.115331859688
-0.111540438485
-0.107603023082
-0.103543931887
-0.0993814079327
-0.0951201350553
-0.0907431738093
-0.0861990099873
-0.08138464359
-0.076133743205
-0.0702136069381
-0.0631986013967
-0.0547865921566
-0.0450988925957
-0.0324077832748
-0.00717687706995
0.0476499037014
0.117633893904
-0.121083049136
-0.121078035423
-0.121067056825
-0.121052024538
-0.12103173895
-0.121006263631
-0.120975958217
-0.120939512521
-0.120894732519
-0.120843471983
-0.120786512707
-0.120727427059
-0.120666468817
-0.120599610751
-0.120525775329
-0.120449856537
-0.120371308487
-0.120286059665
-0.120197665358
-0.12010778755
-0.12001354375
-0.119917775774
-0.119822562621
-0.119730551739
-0.119644007537
-0.119567398599
-0.119509908418
-0.119474767987
-0.119467711956
-0.119484861107
-0.119524588935
-0.11959298167
-0.119706216771
-0.119878543944
-0.120112006992
-0.120410193678
-0.120777842235
-0.121214836011
-0.121724905714
-0.122312330931
-0.122981636002
-0.123738589403
-0.12458529801
-0.125515238864
-0.126523150801
-0.127628151018
-0.128878306778
-0.130306558009
-0.130659433127
-0.130327333725
-0.130876409764
-0.132954831837
-0.134613318668
-0.134548099587
-0.133671535754
-0.132072182613
-0.129842935643
-0.127060200963
-0.123841896428
-0.120278339601
-0.116440744438
-0.112388884899
-0.108170754319
-0.103823542433
-0.0993750506274
-0.0948375051067
-0.0902010549728
-0.0854260688762
-0.080438950865
-0.0751229203375
-0.0692884063932
-0.0626319314042
-0.0547671186816