/*--------------------------------*- C++ -*----------------------------------*\
| =========                 |                                                 |
| \\      /  F ield         | OpenFOAM: The Open Source CFD Toolbox           |
|  \\    /   O peration     | Version:  v1806                                 |
|   \\  /    A nd           | Web:      www.OpenFOAM.com                      |
|    \\/     M anipulation  |                                                 |
\*---------------------------------------------------------------------------*/
FoamFile
{
    version     2.0;
    format      ascii;
    class       volScalarField;
    location    "58";
    object      pa;
}
// * * * * * * * * * * * * * * * * * * * * * * * * * * * * * * * * * * * * * //

dimensions      [0 2 -2 0 0 0 0];


internalField   nonuniform List<scalar> 
6400
(
-0.114336683474
-0.114344163291
-0.114364923569
-0.114402896696
-0.114453570671
-0.114514960955
-0.114588532285
-0.11468064906
-0.11478807682
-0.11490367817
-0.11505215878
-0.115246678779
-0.115463267461
-0.115703624015
-0.115979970601
-0.116305026213
-0.116674050226
-0.117079223514
-0.117524320785
-0.117996986074
-0.118460781845
-0.118901945995
-0.119333431812
-0.119779286873
-0.120264790413
-0.120788538383
-0.121327573038
-0.121868674568
-0.122417295471
-0.122986286495
-0.123589129007
-0.124223023916
-0.124849321974
-0.125439848306
-0.126001540922
-0.126508767474
-0.126929706918
-0.127327951894
-0.127712428482
-0.128007291711
-0.128215312264
-0.128371131925
-0.128503262133
-0.128613005992
-0.128706458087
-0.128785406173
-0.128850742025
-0.128905465488
-0.128951964636
-0.128990838657
-0.129024569558
-0.129047317104
-0.129064449951
-0.129079019961
-0.129092809062
-0.12911084724
-0.129127733122
-0.129135217766
-0.129140942559
-0.129146610509
-0.129152741378
-0.129161088554
-0.129170454837
-0.129180156906
-0.129195942404
-0.1292195429
-0.129248394421
-0.129275817076
-0.129297081661
-0.129311667627
-0.129320576236
-0.12932483956
-0.129325093653
-0.129322493305
-0.129317394401
-0.129310865183
-0.129303570932
-0.129298186204
-0.129294307797
-0.129292616934
-0.114324642437
-0.114332207046
-0.114349511484
-0.114386595473
-0.114444566012
-0.114514466119
-0.114591611568
-0.114676637452
-0.114775382822
-0.114892781267
-0.115039658814
-0.115224912224
-0.115442519278
-0.115690469197
-0.115971429198
-0.116288410168
-0.11665233917
-0.117060133832
-0.117518167179
-0.118008083341
-0.118467063013
-0.118896655002
-0.119322960167
-0.119757933891
-0.120241594246
-0.120775338725
-0.121310515317
-0.121851809647
-0.122408626364
-0.122987223919
-0.123584321571
-0.124216826089
-0.124863333698
-0.125463362963
-0.126040322151
-0.126554137326
-0.126983384498
-0.127392061259
-0.127774252245
-0.128055963618
-0.128241262769
-0.128392534137
-0.128532331656
-0.1286405359
-0.128732648823
-0.128810252721
-0.128874235454
-0.128926290557
-0.128968127141
-0.129001194234
-0.129027592973
-0.129046883223
-0.129065636761
-0.129081721056
-0.12909757914
-0.129122015659
-0.129130828789
-0.129135438712
-0.1291403216
-0.129145543872
-0.129150864031
-0.129158350181
-0.129170918288
-0.129181194151
-0.12919834291
-0.129223276479
-0.129253489724
-0.129281433975
-0.129302756434
-0.129317254935
-0.129325932915
-0.129329774715
-0.129329260054
-0.129325371008
-0.12931924028
-0.129311792014
-0.12930422242
-0.129298071711
-0.129293715087
-0.129292370662
-0.114292223413
-0.114305394897
-0.114318670444
-0.114352459311
-0.114409744945
-0.114490514938
-0.114579306075
-0.114662582283
-0.114753739439
-0.114867196268
-0.115011063084
-0.11519140665
-0.11540800462
-0.115657964008
-0.115939911742
-0.116238845892
-0.116593771757
-0.117056249586
-0.117541129159
-0.118024285624
-0.118462411877
-0.118847956812
-0.119253607279
-0.119713437507
-0.120197202281
-0.120712179867
-0.121255643764
-0.121814102574
-0.122384029851
-0.122977991001
-0.123586241545
-0.124227772915
-0.124913132966
-0.125520219075
-0.126092734466
-0.12665758283
-0.127100640037
-0.127505403606
-0.127874604321
-0.128138040372
-0.128310551155
-0.128441274744
-0.128555920216
-0.128659733371
-0.128751200889
-0.128828755291
-0.128892308392
-0.128942707238
-0.128981895892
-0.129012395162
-0.129035388098
-0.129049319586
-0.129060439008
-0.129077966311
-0.129103777058
-0.129122008367
-0.129129722338
-0.129134797471
-0.129140244688
-0.129146139369
-0.129153068142
-0.129162232403
-0.129172379652
-0.129183921441
-0.129204828742
-0.129232816426
-0.129264167431
-0.129292666711
-0.129314492088
-0.129329060677
-0.129337244572
-0.129339792245
-0.129337455298
-0.129331568749
-0.129323533459
-0.129314355536
-0.129305343529
-0.129297856878
-0.129292862722
-0.129290982827
-0.114251242078
-0.114263488201
-0.114270458453
-0.114301996548
-0.11435239969
-0.114432423729
-0.114554179825
-0.114635562833
-0.114720202489
-0.114827028917
-0.114967522546
-0.115144935761
-0.115360483818
-0.115605035337
-0.115891583307
-0.116238327759
-0.11663923211
-0.117092632114
-0.117551170017
-0.117967320821
-0.118360148045
-0.118758937053
-0.119172198782
-0.119618363096
-0.120102946479
-0.120628261364
-0.121190440044
-0.121767858128
-0.122362877287
-0.122971478038
-0.123611259989
-0.124277894124
-0.124974109688
-0.125669258636
-0.126239681532
-0.126779592698
-0.12728169374
-0.127660927214
-0.127929244196
-0.128133771085
-0.128294916737
-0.128438086181
-0.128568045614
-0.128680862745
-0.128777608789
-0.128857615414
-0.128921374171
-0.128969126286
-0.129003521431
-0.12902829042
-0.129046815526
-0.129061670655
-0.129075811559
-0.129090691333
-0.129106333237
-0.12911958152
-0.129126840586
-0.129133187029
-0.129140314431
-0.129148300609
-0.129157494487
-0.129168106603
-0.12917999821
-0.129195735262
-0.12921831493
-0.129247758457
-0.129281254661
-0.129311423993
-0.129333980252
-0.129348377271
-0.129355405213
-0.129355747449
-0.129350664693
-0.12934169929
-0.129330180022
-0.129318229557
-0.129307173451
-0.129296670053
-0.129288986918
-0.129285942187
-0.114189075418
-0.114187165591
-0.114196485642
-0.114229189245
-0.114283704341
-0.114355417412
-0.114461116241
-0.114557235988
-0.114652224701
-0.114764199425
-0.114903358845
-0.115079333468
-0.115298708291
-0.11557831367
-0.115912662572
-0.116274889541
-0.116662868226
-0.117064262974
-0.117455642887
-0.117848466595
-0.118249553982
-0.118644877181
-0.119054031723
-0.119502056184
-0.119992026488
-0.120533373859
-0.12110967439
-0.121716382942
-0.12233493414
-0.122982616942
-0.123647915345
-0.12436299599
-0.125148327161
-0.125806129
-0.12640929648
-0.126945135872
-0.127355164393
-0.127678709525
-0.127909360007
-0.128103630554
-0.12828578743
-0.128446299784
-0.128587514982
-0.128710079645
-0.128813733064
-0.128896366823
-0.128956377708
-0.128996748299
-0.129022724857
-0.129040645608
-0.12905550359
-0.129069250906
-0.129082291472
-0.129094975295
-0.129109014845
-0.129123466175
-0.129131862042
-0.129136493984
-0.129142979317
-0.129152504503
-0.129164433546
-0.129177747875
-0.129193111194
-0.129215882296
-0.129238116454
-0.129269956653
-0.129306702493
-0.129339408954
-0.129362914261
-0.129376492817
-0.129381115539
-0.129378178411
-0.12936945723
-0.129356026144
-0.12933980854
-0.129323425512
-0.129307381828
-0.129291011113
-0.12927977196
-0.129275433024
-0.11406721126
-0.114063013684
-0.114087327209
-0.114117702652
-0.114175768694
-0.114256185137
-0.114348047183
-0.114451177358
-0.114557257189
-0.114677544168
-0.114812134328
-0.1149953478
-0.115261031155
-0.115578749314
-0.115918013044
-0.116262668514
-0.116609303592
-0.116961543338
-0.11733802561
-0.117733371627
-0.118113676373
-0.118496389892
-0.118906692471
-0.119364693327
-0.119868284061
-0.120412570044
-0.121025607229
-0.121655061995
-0.122315942238
-0.122995858335
-0.12371437085
-0.124486752937
-0.125262979943
-0.126009213097
-0.126583408893
-0.127001570785
-0.127352969263
-0.127624479641
-0.127858722725
-0.128078010687
-0.128274486668
-0.128450284678
-0.128603477672
-0.128734511088
-0.128845395524
-0.12892502379
-0.128978227871
-0.129008564857
-0.129026684895
-0.129040959927
-0.129054681997
-0.129068917732
-0.129083836693
-0.129099576402
-0.129116085203
-0.129131036922
-0.12914258365
-0.129149819665
-0.129150796766
-0.129158071682
-0.129172803229
-0.129190714662
-0.129216372478
-0.129244061348
-0.129265473589
-0.129301628739
-0.12934361409
-0.12937961696
-0.129403792476
-0.129415351038
-0.129416494379
-0.129409753135
-0.12939625227
-0.129376308312
-0.129352958534
-0.129329074685
-0.129304474344
-0.129279963488
-0.129263949885
-0.129256615967
-0.113878501742
-0.113890833318
-0.113942697195
-0.113989396872
-0.114033610407
-0.114113333079
-0.114216238205
-0.114320072198
-0.114435963354
-0.114564575101
-0.114717560749
-0.114911371772
-0.115214990628
-0.11554002471
-0.115867039587
-0.116174472707
-0.11648526071
-0.116834150976
-0.117221958503
-0.117583625203
-0.117942890287
-0.118326483438
-0.118739276899
-0.11919741433
-0.11971061174
-0.120305097722
-0.1209230598
-0.121595664992
-0.122299470368
-0.123043629624
-0.123841671213
-0.124623369587
-0.12543864471
-0.126151488539
-0.126634998585
-0.126981801502
-0.127270712416
-0.127545034726
-0.127807402554
-0.128043271787
-0.128249382302
-0.128438101535
-0.128602655239
-0.128744088473
-0.1288612008
-0.128941221953
-0.128987051723
-0.129011121833
-0.12902536851
-0.12903786549
-0.129051326096
-0.129066694853
-0.129083686231
-0.129100830232
-0.129117483668
-0.129133758031
-0.129149862077
-0.129161254722
-0.129164598238
-0.129166460421
-0.129180094848
-0.129206309898
-0.129240798814
-0.129272556603
-0.12930750123
-0.129346805775
-0.129395018358
-0.129433934612
-0.129457952248
-0.129467180563
-0.129465077316
-0.129454362825
-0.129433736785
-0.129404233612
-0.129370136844
-0.129333901763
-0.129296229517
-0.129261599745
-0.129238888002
-0.1292274384
-0.113659130685
-0.11368468943
-0.11375292847
-0.113831253613
-0.113881779551
-0.113956387247
-0.114059458715
-0.114165568011
-0.114295132422
-0.114413796669
-0.11459410743
-0.114842166071
-0.115140464802
-0.11546061359
-0.11575591742
-0.116023545045
-0.116334328988
-0.116706028862
-0.117064954493
-0.117399020557
-0.117741092789
-0.118129433274
-0.118552428906
-0.119028584601
-0.119563641426
-0.120173884378
-0.120839876457
-0.121508826668
-0.122295079183
-0.123165708764
-0.123948646952
-0.124733530642
-0.125583081803
-0.126164247045
-0.126568116083
-0.126882710044
-0.127166446141
-0.127456959761
-0.127740547988
-0.127988416175
-0.128201579887
-0.128397001831
-0.128576147335
-0.128733095111
-0.128861993595
-0.128945858462
-0.128988114891
-0.129010001058
-0.129024218017
-0.129036560443
-0.129049671251
-0.129064324157
-0.129080365141
-0.129096714941
-0.129112922144
-0.129129708703
-0.12914700186
-0.129164241275
-0.129177699774
-0.129177774168
-0.12918775873
-0.129219160848
-0.129260674783
-0.129308519679
-0.129365696437
-0.129404965297
-0.129462568949
-0.129505072695
-0.129529147295
-0.129537156415
-0.129532846841
-0.129516603738
-0.129485281174
-0.129441957054
-0.129391526397
-0.129336775157
-0.129281747034
-0.129233773018
-0.129202318674
-0.129186626339
-0.113422711156
-0.113457329268
-0.113530098668
-0.113590085892
-0.113667036298
-0.113775523098
-0.113870171098
-0.113979427449
-0.114129214166
-0.114267341753
-0.114429574749
-0.114717175443
-0.115028799799
-0.115331348912
-0.115594784576
-0.115863925582
-0.116169837734
-0.116535310429
-0.116868511665
-0.117188737141
-0.117519188149
-0.117896685294
-0.118321531577
-0.118808428957
-0.119422998236
-0.120042618735
-0.120754028216
-0.121496320461
-0.122305669024
-0.123163169476
-0.124017399801
-0.124884491891
-0.125578131669
-0.126064724533
-0.126427718689
-0.126754224727
-0.127054820337
-0.127348648796
-0.127635428792
-0.127893535136
-0.128121591796
-0.128327461629
-0.128519378598
-0.128695309525
-0.128844233767
-0.128937705379
-0.128983716637
-0.129007514079
-0.129023888158
-0.129038367714
-0.129052103954
-0.12906487697
-0.129076753889
-0.129089133319
-0.129102155307
-0.129118289549
-0.129137309257
-0.129158438211
-0.12917947928
-0.129193371197
-0.129198091868
-0.129227525301
-0.129283920106
-0.129352696771
-0.129414890189
-0.129481875579
-0.129556406976
-0.129598542584
-0.12962310737
-0.129632793946
-0.129626937967
-0.129602059506
-0.129555784176
-0.12949266609
-0.129418146057
-0.129337456745
-0.12925934993
-0.129193960177
-0.129150278403
-0.129128743246
-0.11316770425
-0.113212597749
-0.113295417753
-0.11335914226
-0.113436173333
-0.113554877471
-0.113647003004
-0.113757209006
-0.113891122226
-0.114090724396
-0.114273157282
-0.114558353157
-0.114874593182
-0.115154196784
-0.115389035319
-0.115669245995
-0.116003765993
-0.11633626259
-0.116641346861
-0.116950879155
-0.117286156717
-0.117656527666
-0.118082057308
-0.118561526133
-0.119228956481
-0.119909931749
-0.120572477647
-0.121412832803
-0.122261923492
-0.123171216406
-0.124041341527
-0.124899174043
-0.125484308014
-0.125892045326
-0.126265315046
-0.126618303704
-0.126928487939
-0.127220167963
-0.127499086028
-0.127759925108
-0.128002169277
-0.128222197967
-0.128424834863
-0.128613643029
-0.128783934375
-0.128911560919
-0.128977063707
-0.129004417351
-0.129022362745
-0.129041359445
-0.129058955596
-0.129071233939
-0.129077457238
-0.129082995901
-0.12909003851
-0.129100928284
-0.129118467925
-0.129144590266
-0.129174718146
-0.129202499356
-0.129209552479
-0.129239078743
-0.129303095807
-0.129387698221
-0.129477558778
-0.129567899726
-0.129653492525
-0.129721916247
-0.129746434131
-0.129762463698
-0.129755684403
-0.12971912068
-0.129652364575
-0.129561006392
-0.12945225831
-0.129335740587
-0.129225915761
-0.129134837112
-0.129071531438
-0.129039328712
-0.112883889573
-0.112932176263
-0.11301611948
-0.113106666554
-0.11321219953
-0.113299046988
-0.113387524955
-0.113503128465
-0.113605258054
-0.113825453647
-0.11406143954
-0.114350387143
-0.114669928948
-0.114937705614
-0.115169993505
-0.115439832997
-0.115786912352
-0.116097932323
-0.116383548828
-0.11667615267
-0.117020698555
-0.117400111792
-0.117851728282
-0.118334210282
-0.118950016949
-0.119760694157
-0.120491437045
-0.121334129973
-0.122178773511
-0.123011484888
-0.123983293612
-0.124862607475
-0.125286981642
-0.125673538825
-0.126073939747
-0.126438899958
-0.126756386392
-0.127051086049
-0.127325366682
-0.127585835651
-0.127842749755
-0.128079533593
-0.128291058377
-0.128488233296
-0.128670257821
-0.1288224242
-0.128922558826
-0.128975317574
-0.12900733407
-0.129039076362
-0.129068550189
-0.129084168475
-0.129086482804
-0.12908246978
-0.129081507657
-0.129082085874
-0.129091544995
-0.129123033052
-0.129167558091
-0.129203239029
-0.129218260207
-0.12925110389
-0.129326344401
-0.129431986639
-0.129547189401
-0.129661584761
-0.129771966977
-0.129870690164
-0.129901221469
-0.129941370959
-0.129933917692
-0.129881677046
-0.129786541541
-0.129654166512
-0.129497039233
-0.129329946612
-0.129173271909
-0.129042214111
-0.128948132389
-0.128898172192
-0.112565936971
-0.112606586284
-0.112662508301
-0.112778858081
-0.112933051449
-0.113005144351
-0.113091270204
-0.113218083854
-0.113314484001
-0.113515437512
-0.113792845673
-0.114092797762
-0.114410319113
-0.11467151596
-0.114931008867
-0.115205699302
-0.115537932219
-0.115826684818
-0.116099008611
-0.116377864975
-0.116708367932
-0.117077213698
-0.117581687879
-0.118150257494
-0.118730282477
-0.119550642695
-0.120332690684
-0.121120366964
-0.122096049371
-0.12298554703
-0.123913619231
-0.124507555164
-0.125011468465
-0.125431184298
-0.125837139823
-0.126210958434
-0.126544360975
-0.126846723186
-0.127119858955
-0.127362800168
-0.127615191913
-0.127877683456
-0.128114729132
-0.128322942605
-0.128512542315
-0.128674661046
-0.128797857561
-0.128885178813
-0.128950005173
-0.12900748969
-0.129064802573
-0.129102977829
-0.129105962325
-0.12908977726
-0.12907612759
-0.129059926267
-0.129055356084
-0.129097922547
-0.129168811712
-0.129212225115
-0.129231652243
-0.129267132938
-0.129359449676
-0.129491454051
-0.129635941221
-0.129775801932
-0.129906047151
-0.130023633964
-0.130070115634
-0.130184884008
-0.130187788312
-0.130112812528
-0.129977977803
-0.129784270639
-0.129557254223
-0.129314962414
-0.12908893012
-0.128897935777
-0.128761709375
-0.128689482391
-0.112212424143
-0.112241966585
-0.112257812142
-0.11239120577
-0.112539147678
-0.112637634105
-0.112739463331
-0.112880477703
-0.113001262402
-0.113190832736
-0.113485245765
-0.113789354483
-0.114097770609
-0.114339389825
-0.114626003818
-0.114942271256
-0.115251599592
-0.115521784379
-0.115784063866
-0.116059065142
-0.116372547238
-0.116716215027
-0.117190696204
-0.117909569575
-0.118530102283
-0.119248002912
-0.120143174011
-0.120983820256
-0.121877974272
-0.122810378258
-0.123710842631
-0.124193570485
-0.12466231996
-0.125145284666
-0.125560737264
-0.1259441865
-0.126281627589
-0.126585676322
-0.126890236847
-0.12714359709
-0.127373043413
-0.127627573678
-0.127889083834
-0.128125084073
-0.128331934804
-0.1285080027
-0.12865221041
-0.128769573644
-0.128865532156
-0.128949782463
-0.129034350073
-0.129108281266
-0.129119967126
-0.129101699334
-0.129069262397
-0.129029158858
-0.129012833752
-0.129085608036
-0.129204175503
-0.129254713474
-0.129260151255
-0.129291797679
-0.129410452271
-0.129574670936
-0.129751884844
-0.129923134239
-0.130083567326
-0.130212419728
-0.130387814861
-0.130555443786
-0.130543659855
-0.130445691313
-0.130254612062
-0.129966501041
-0.129640908299
-0.129283984193
-0.128955784374
-0.128680615559
-0.128488795601
-0.128388141908
-0.11182797636
-0.111862039232
-0.111905656301
-0.111983951793
-0.11210744196
-0.11222061899
-0.11234068851
-0.112488250481
-0.112652471245
-0.112837790422
-0.113140105963
-0.113444604502
-0.113745544089
-0.113976495925
-0.114246012534
-0.114603268105
-0.114913624546
-0.115178890055
-0.115434302044
-0.11570747633
-0.116015365209
-0.116343515018
-0.116788995857
-0.117564845156
-0.118271572236
-0.118968858211
-0.11991339326
-0.120801142385
-0.121661607748
-0.122638478217
-0.123280213258
-0.123816879577
-0.124294942731
-0.12481366372
-0.12523765068
-0.125625840368
-0.1259963444
-0.126304356157
-0.126585881862
-0.126878369568
-0.127124531507
-0.127373427949
-0.127642799586
-0.127909200125
-0.128149527941
-0.12835090625
-0.128520313611
-0.128664397241
-0.128785115298
-0.128888149573
-0.128983410465
-0.129074893376
-0.129125342286
-0.129106799198
-0.129048498622
-0.128981275739
-0.128973004906
-0.129107234469
-0.129289316049
-0.129336911938
-0.129308686878
-0.129345269443
-0.129499764407
-0.129698135864
-0.129904773731
-0.130108027195
-0.130295183653
-0.130462230112
-0.130664075983
-0.130860145366
-0.131021898547
-0.130892109266
-0.130648854629
-0.130208403829
-0.129761236327
-0.129223201845
-0.128751369047
-0.128359666994
-0.128087674687
-0.127946114984
-0.111401400803
-0.111437999876
-0.111524374635
-0.111556904356
-0.111648504245
-0.111764896612
-0.111898823105
-0.112061796502
-0.112281985001
-0.112457814997
-0.11275765524
-0.11306165884
-0.113358125528
-0.113593761636
-0.113858666543
-0.114225821431
-0.11453687018
-0.114802303549
-0.11505408186
-0.115321909065
-0.115624972635
-0.115952802097
-0.116365212216
-0.11709808248
-0.117955874994
-0.11870014156
-0.119561469803
-0.12060684761
-0.121541530613
-0.122349038609
-0.122882260667
-0.123401648958
-0.123913389122
-0.124416616425
-0.124864023441
-0.12526915111
-0.125630772203
-0.125986678157
-0.126277003627
-0.126560484526
-0.126843220958
-0.127120539811
-0.127411795631
-0.127700773722
-0.127970475876
-0.128206897301
-0.128405401982
-0.128575886806
-0.128720354043
-0.128842403416
-0.128942775421
-0.129029004716
-0.129116200477
-0.129094974507
-0.128998230801
-0.128902498896
-0.128940464007
-0.129169154004
-0.129413310731
-0.129445982967
-0.1294006719
-0.129463077729
-0.129631213678
-0.129812740841
-0.130013544297
-0.13023944208
-0.130446295423
-0.130636374436
-0.130851709135
-0.131095292698
-0.131329782211
-0.131560581622
-0.131428722017
-0.130503992641
-0.129927339998
-0.129091803803
-0.128439529599
-0.127883426545
-0.127488809262
-0.127295511124
-0.110924867501
-0.110954995651
-0.111022013012
-0.111064922137
-0.11114133805
-0.111265477749
-0.111402531296
-0.111556779549
-0.11183242932
-0.112039990561
-0.112331914509
-0.112638054648
-0.112934376599
-0.113187694354
-0.113456814242
-0.113820215854
-0.114128955533
-0.114397796988
-0.114648157636
-0.114911306782
-0.115204712259
-0.115531267711
-0.115931123691
-0.116614232101
-0.117553190747
-0.118372921971
-0.119163510416
-0.120146237148
-0.121140069548
-0.121854549123
-0.122452703551
-0.12295655307
-0.12348777596
-0.124006464514
-0.124456279605
-0.124863753642
-0.125256921452
-0.125598522178
-0.125938402179
-0.126231902675
-0.126540892315
-0.126859199891
-0.127172909626
-0.127489671773
-0.127793011892
-0.128061275737
-0.128292445683
-0.12849393285
-0.128670060706
-0.128815127855
-0.128929409151
-0.129008819527
-0.129076263531
-0.129102094234
-0.128886166889
-0.128773543543
-0.128872814944
-0.12922250318
-0.129555293154
-0.129589613852
-0.129538173267
-0.129577071202
-0.129699903008
-0.129877346726
-0.130069966698
-0.130264154097
-0.130439775351
-0.130613401058
-0.1308279968
-0.131085632647
-0.131272289969
-0.131154369675
-0.130818956468
-0.130935994231
-0.130805940198
-0.128950874716
-0.127962170118
-0.127160332936
-0.126579128145
-0.126340044758
-0.110411923162
-0.11043567157
-0.11049751584
-0.110535221418
-0.110605338512
-0.110731000549
-0.110866643668
-0.110998364094
-0.111266609378
-0.111539484162
-0.111849297411
-0.112164928575
-0.112465687603
-0.112755245769
-0.113028875269
-0.113383946697
-0.11369016395
-0.113966743724
-0.114217956179
-0.114477606999
-0.114762278616
-0.115077390523
-0.115464101853
-0.116093013217
-0.117008531764
-0.117988582921
-0.118809711523
-0.119715257867
-0.120732564752
-0.121290671028
-0.121841557933
-0.122405310722
-0.122983638627
-0.123508830263
-0.123995100698
-0.124427492173
-0.124825892077
-0.125181272459
-0.125539611659
-0.125877434168
-0.12620813601
-0.126545191035
-0.126911698588
-0.127248416737
-0.12756871198
-0.127866757348
-0.128144470151
-0.128398702094
-0.128624494658
-0.12881423682
-0.128968970813
-0.129073261924
-0.129115616729
-0.129044034206
-0.128845011198
-0.128676680085
-0.128698285649
-0.129174182359
-0.129707749841
-0.129753870924
-0.129647175116
-0.129588402196
-0.129553816186
-0.129511553503
-0.129388139042
-0.129188522586
-0.128904499129
-0.128567965013
-0.128258942796
-0.128050871171
-0.127944357619
-0.127817955338
-0.127543622571
-0.126861463034
-0.126208181606
-0.126292324067
-0.127410430913
-0.12655821672
-0.125236656086
-0.12501563989
-0.109871727377
-0.109888009235
-0.109926986643
-0.109961501423
-0.110047271408
-0.110168995011
-0.110308834843
-0.110428150048
-0.110682350206
-0.110990385577
-0.111313442242
-0.111634261698
-0.111928902885
-0.112262085418
-0.112560643194
-0.112904219868
-0.113210119544
-0.113503940347
-0.113758344365
-0.114016297473
-0.114294437755
-0.114594904325
-0.114964884545
-0.115549502112
-0.116439572051
-0.117513985758
-0.118422533499
-0.119297328815
-0.120169451425
-0.120727970232
-0.121221161348
-0.121796068188
-0.122388144685
-0.122922809501
-0.123432522703
-0.123908491534
-0.124318944294
-0.12471815611
-0.125097581462
-0.125454664852
-0.125806926274
-0.126161691876
-0.126527231926
-0.126903167768
-0.127261643462
-0.127613132444
-0.127971319513
-0.128314910406
-0.128617456071
-0.128878013366
-0.129101550163
-0.129268686309
-0.129358120911
-0.129314853042
-0.129124020629
-0.128778702731
-0.128755199004
-0.129180715262
-0.129845263549
-0.129739307082
-0.129290649274
-0.128690273025
-0.127904169404
-0.126924379647
-0.125717179042
-0.124294390341
-0.122679366175
-0.12097768697
-0.119383014865
-0.118102751086
-0.117211785503
-0.116595478996
-0.116108340251
-0.115832721593
-0.116182593429
-0.1172619894
-0.118258992854
-0.119497033737
-0.123017183585
-0.123434836833
-0.109312207758
-0.109322756698
-0.109337615756
-0.109369849241
-0.109472049674
-0.109583765252
-0.109723105521
-0.109853698717
-0.110079678372
-0.110401388881
-0.110728848255
-0.111048535992
-0.111329578501
-0.111665667808
-0.112019201131
-0.112364788278
-0.112670866044
-0.112981878396
-0.113255165397
-0.113517594641
-0.113794830858
-0.114074723894
-0.114425330426
-0.114964308354
-0.115789099376
-0.116801488471
-0.11782208694
-0.118691590198
-0.119487422252
-0.12006199484
-0.120555030749
-0.12113696914
-0.121755320518
-0.122249003206
-0.12278343003
-0.123253587373
-0.123718595123
-0.124164235238
-0.124573122725
-0.124966971388
-0.1252827629
-0.125649928693
-0.126053706917
-0.126485038031
-0.126914222218
-0.127334195839
-0.127782387813
-0.128238420989
-0.128660483353
-0.12906268614
-0.129433815849
-0.129757985993
-0.129979933632
-0.130084363041
-0.130180647137
-0.130238692854
-0.129814354368
-0.129899584452
-0.129685083795
-0.12855039136
-0.127223449986
-0.125365291158
-0.123189968084
-0.120739292097
-0.118086890228
-0.115291793061
-0.112422641221
-0.109586861029
-0.106937084317
-0.104634816724
-0.102713194128
-0.101038178333
-0.099421920386
-0.0980173703838
-0.097379579423
-0.0983626574413
-0.101413454875
-0.105372147239
-0.109383436418
-0.122716003761
-0.108732479686
-0.108739767858
-0.108745666344
-0.10878695483
-0.108887653226
-0.108980481486
-0.109098734328
-0.109254583734
-0.109450513877
-0.109770615456
-0.110097635813
-0.110415308481
-0.110690227638
-0.111009857607
-0.111404197402
-0.111765519022
-0.112078174724
-0.112392548602
-0.112687555007
-0.112965741952
-0.11325470287
-0.113516245825
-0.113840159895
-0.114336458664
-0.115089440854
-0.11603345131
-0.11705091987
-0.117992526879
-0.118594396586
-0.119219151571
-0.119739118163
-0.120289399763
-0.120867169399
-0.121428734364
-0.121994770257
-0.122517062571
-0.123020257925
-0.123470436503
-0.123892611194
-0.12427949001
-0.124666558391
-0.125071808707
-0.125524819443
-0.126007437078
-0.126519794306
-0.127034751599
-0.127577557106
-0.128149135317
-0.128745806938
-0.129394647589
-0.130092757446
-0.130778083804
-0.131229144056
-0.131522063637
-0.132003782263
-0.133017835219
-0.133033166466
-0.131170308541
-0.127975537774
-0.125413288288
-0.122416026697
-0.119035324683
-0.115421799018
-0.111692075645
-0.107961627028
-0.104292959545
-0.100718323413
-0.0972476607781
-0.0938777107347
-0.090606597256
-0.0874274283097
-0.0842900249002
-0.081024667996
-0.0775840328317
-0.0743231772936
-0.0721435159772
-0.0720851389654
-0.0731121564547
-0.0687562760973
-0.0533070583748
-0.108120647957
-0.108125195218
-0.108132773729
-0.108196532787
-0.108287686011
-0.108360218206
-0.108446794357
-0.10862091885
-0.108782577213
-0.109091791926
-0.109418266781
-0.109734496266
-0.110009368783
-0.110324317181
-0.110732121369
-0.111109075961
-0.111435285688
-0.111755745942
-0.112056162736
-0.112348772138
-0.112656852091
-0.112912062595
-0.113197885815
-0.113652015023
-0.11433425033
-0.11520500473
-0.116205257779
-0.117186002497
-0.117844788322
-0.118355277548
-0.118872523926
-0.119445191285
-0.119933512583
-0.120374141528
-0.120971511581
-0.121672302518
-0.122203323621
-0.122666677847
-0.123084181729
-0.123504267172
-0.123954800698
-0.124426838954
-0.124929831317
-0.125502564367
-0.126099421786
-0.126705639295
-0.127352750953
-0.128085188183
-0.128940256456
-0.129946004247
-0.131186165664
-0.132487972888
-0.132933302735
-0.13291018702
-0.13310854649
-0.136376986099
-0.135768063779
-0.129618210629
-0.123876579588
-0.11937662781
-0.114815556787
-0.110237289953
-0.105616550042
-0.101026308113
-0.0965116925445
-0.0920814191067
-0.0877151481678
-0.0833708034134
-0.078988591268
-0.0745123014163
-0.0699214395668
-0.0651717918444
-0.0601033649281
-0.0544210432577
-0.0481492517864
-0.0418524697445
-0.0353805873528
-0.0244214308555
-8.8585613177e-05
0.0295225789155
-0.1074540855
-0.107454277563
-0.107471922164
-0.107569106364
-0.107648178669
-0.107704899655
-0.107772637662
-0.107940911035
-0.108069915452
-0.108360439933
-0.10868678141
-0.109002011076
-0.109278179927
-0.109587972016
-0.109996513835
-0.110384966185
-0.110734988849
-0.111061506422
-0.111358539317
-0.111657915675
-0.11198171922
-0.112244083668
-0.112482157324
-0.112889988167
-0.113503874089
-0.114280054231
-0.115199619265
-0.115999883515
-0.116897878702
-0.117445743002
-0.117902246878
-0.118375355741
-0.118895232683
-0.119436187201
-0.119903068114
-0.120615798885
-0.121190528063
-0.121729102129
-0.122218891726
-0.122675263205
-0.123176845091
-0.12370963286
-0.12429735559
-0.124951262719
-0.125620409164
-0.126316833133
-0.127117258199
-0.128129793156
-0.12929476907
-0.13062520481
-0.132488984298
-0.132760575977
-0.132128420216
-0.130421022686
-0.128453975131
-0.127151741702
-0.125204788287
-0.120661981186
-0.115610949092
-0.110499692142
-0.105314557928
-0.100172262205
-0.095025062113
-0.0899045781684
-0.0848283262192
-0.0798152596755
-0.0748685000589
-0.0699612003359
-0.0650247375253
-0.0599418000861
-0.0545477954147
-0.0486365052622
-0.0419661039729
-0.034161400159
-0.0251307756077
-0.015092668358
-0.00238632932891
0.0203187854876
0.0624697906525
0.107491133134
-0.106701145203
-0.106698098119
-0.106723049507
-0.106852024143
-0.106916438985
-0.106976579737
-0.107034306232
-0.107176465725
-0.107285582432
-0.107569892686
-0.107898724544
-0.108212436249
-0.108490044494
-0.108791763089
-0.109189758932
-0.109576647272
-0.109958017521
-0.110293245514
-0.110586071992
-0.110884668004
-0.111207638085
-0.111490027144
-0.111685190374
-0.112040717841
-0.112592381286
-0.113274922556
-0.11408957013
-0.11475535857
-0.115515137391
-0.116267466797
-0.116832008218
-0.117270567921
-0.117660918902
-0.118163150373
-0.118817320563
-0.119428809929
-0.12008065381
-0.120628857511
-0.121188472155
-0.121751798224
-0.122320550839
-0.12290204169
-0.123570294823
-0.124292361641
-0.125043450996
-0.125869057284
-0.126890000538
-0.128313730599
-0.129728778398
-0.130741759902
-0.13089741886
-0.130212785764
-0.128373777952
-0.125235851347
-0.121563819324
-0.117821459256
-0.114109246575
-0.110292093886
-0.105888648997
-0.10098237014
-0.0957793481728
-0.0904657564124
-0.0850856360726
-0.0797097079661
-0.0743994597586
-0.0692131652156
-0.0641631885094
-0.0591874588767
-0.0541436736812