/*--------------------------------*- C++ -*----------------------------------*\
| =========                 |                                                 |
| \\      /  F ield         | OpenFOAM: The Open Source CFD Toolbox           |
|  \\    /   O peration     | Version:  v1806                                 |
|   \\  /    A nd           | Web:      www.OpenFOAM.com                      |
|    \\/     M anipulation  |                                                 |
\*---------------------------------------------------------------------------*/
FoamFile
{
    version     2.0;
    format      ascii;
    class       surfaceScalarField;
    location    "789";
    object      phia;
}
// * * * * * * * * * * * * * * * * * * * * * * * * * * * * * * * * * * * * * //

dimensions      [0 3 -1 0 0 0 0];
oriented        oriented;


internalField   nonuniform List<scalar> 
12640
(
5.56500012633e-08
-5.46302158926e-08
1.05070702862e-07
-4.86489514962e-08
1.47823712628e-07
-4.21861668637e-08
1.84284874118e-07
-3.60064970402e-08
2.12959521345e-07
-2.82568007333e-08
2.33769247726e-07
-2.04305431134e-08
2.51764885012e-07
-1.76577450812e-08
2.77071511395e-07
-2.50008303896e-08
3.09997707793e-07
-3.26473773964e-08
3.4302374562e-07
-3.27782839042e-08
3.75328155389e-07
-3.20862228948e-08
4.09624959703e-07
-3.40967986234e-08
4.43666619484e-07
-3.38539195619e-08
4.765168768e-07
-3.26745675892e-08
5.10186832151e-07
-3.35059798905e-08
5.48010781938e-07
-3.7669399311e-08
5.88140937407e-07
-3.99825853233e-08
6.27230758707e-07
-3.89474092504e-08
6.64981948745e-07
-3.76121564897e-08
7.04416593361e-07
-3.92957926428e-08
7.50376808869e-07
-4.58202000653e-08
8.02320537577e-07
-5.18038421007e-08
8.55872704397e-07
-5.34148361908e-08
9.08934714249e-07
-5.29282444895e-08
9.61004722483e-07
-5.19399178714e-08
1.01248651754e-06
-5.13533178579e-08
1.06428812309e-06
-5.16740799645e-08
1.11605524425e-06
-5.16396174848e-08
1.16729276347e-06
-5.11107167003e-08
1.21831103651e-06
-5.08914120481e-08
1.27006857967e-06
-5.16310369437e-08
1.3221253861e-06
-5.19287550154e-08
1.37401169315e-06
-5.17567329439e-08
1.42750824065e-06
-5.33640822369e-08
1.48246791068e-06
-5.48254424886e-08
1.53813898962e-06
-5.55333769141e-08
1.59456662298e-06
-5.62888844947e-08
1.65021606098e-06
-5.55088069865e-08
1.70397681126e-06
-5.36180850357e-08
1.75611405798e-06
-5.19900624573e-08
1.80789433632e-06
-5.16317021155e-08
1.85685188853e-06
-4.88079857022e-08
1.89960158351e-06
-4.25999218864e-08
1.93796044771e-06
-3.82051838506e-08
1.97378899705e-06
-3.56711983046e-08
2.00671874533e-06
-3.27659068138e-08
2.03630249932e-06
-2.9414527115e-08
2.06168980358e-06
-2.521029417e-08
2.08278263823e-06
-2.09092919204e-08
2.1018968382e-06
-1.89213247976e-08
2.12189827947e-06
-1.98002320927e-08
2.13921212866e-06
-1.70999136331e-08
2.14562882012e-06
-6.18778093921e-09
2.1438074678e-06
2.07227480476e-09
2.13306937435e-06
1.10084462128e-08
2.11053222427e-06
2.28323901759e-08
2.08900046041e-06
2.18614858367e-08
2.07410626769e-06
1.52764580141e-08
2.05472366737e-06
1.98283318042e-08
2.03141931358e-06
2.3831211535e-08
2.01730069265e-06
1.475008187e-08
1.99621625446e-06
2.18818059116e-08
1.92562796454e-06
7.1592865525e-08
1.78143768745e-06
1.45182085997e-07
1.62905130361e-06
1.53096104018e-07
1.51511568856e-06
1.14445642858e-07
1.40934859059e-06
1.0621541711e-07
1.3016542962e-06
1.0817553297e-07
1.18581885675e-06
1.16385386506e-07
1.0558851989e-06
1.30551156197e-07
9.1939708239e-07
1.37130054009e-07
7.86514521703e-07
1.33492401586e-07
6.60956357462e-07
1.26128585414e-07
5.29444125287e-07
1.32054895989e-07
4.17141315096e-07
1.12789879224e-07
3.20038894754e-07
9.75575304429e-08
2.51224988844e-07
6.92775632606e-08
1.74737022403e-07
7.69464133857e-08
1.06014146936e-07
6.93751340485e-08
1.06516366519e-07
2.97500191089e-08
-8.39172377884e-08
6.86034171108e-08
-8.69448140661e-08
1.06312455939e-07
-7.94529380805e-08
1.44866072156e-07
-7.41820575747e-08
1.91778955172e-07
-7.48008288441e-08
2.28292236505e-07
-5.65711202802e-08
2.53404784874e-07
-4.24138898603e-08
2.80477002621e-07
-5.17510550567e-08
3.10835314881e-07
-6.27189216035e-08
3.43808833214e-07
-6.54993567126e-08
3.77059732486e-07
-6.51135553395e-08
4.08369322976e-07
-6.52027778038e-08
4.39651855206e-07
-6.49471032061e-08
4.72221597358e-07
-6.50669824167e-08
5.06739693015e-07
-6.78558838687e-08
5.45534860106e-07
-7.63064807661e-08
5.84453525115e-07
-7.8754169994e-08
6.1791929798e-07
-7.22747269902e-08
6.52246905818e-07
-7.18035316265e-08
6.94064479856e-07
-8.09753777343e-08
7.43879075491e-07
-9.54915265941e-08
7.99317629833e-07
-1.07100134284e-07
8.54493932889e-07
-1.08450822055e-07
9.06120084133e-07
-1.0441932657e-07
9.57179945715e-07
-1.02866637343e-07
1.00980607936e-06
-1.0384943024e-07
1.0618929526e-06
-1.03630132611e-07
1.11315037732e-06
-1.02768239191e-07
1.16441164972e-06
-1.0224178307e-07
1.21583517956e-06
-1.02186558865e-07
1.26713375879e-06
-1.02799258332e-07
1.31833284964e-06
-1.02998506541e-07
1.36939578949e-06
-1.02686423487e-07
1.42264432189e-06
-1.06478892192e-07
1.47917735209e-06
-1.11220311997e-07
1.53545342729e-06
-1.11670941063e-07
1.5915131521e-06
-1.12206066748e-07
1.64888909593e-06
-1.12743171284e-07
1.70653404989e-06
-1.11115875291e-07
1.760400582e-06
-1.05707760671e-07
1.80253762699e-06
-9.36157607745e-08
1.83646255354e-06
-8.25829205615e-08
1.87358841771e-06
-7.95725172629e-08
1.91365495018e-06
-7.81174862281e-08
1.95270031778e-06
-7.45552409622e-08
1.98980757415e-06
-6.97083275848e-08
2.02376224319e-06
-6.31953931253e-08
2.05449600022e-06
-5.57652329735e-08
2.08134944317e-06
-4.75734392094e-08
2.10035120575e-06
-3.77272896143e-08
2.10810797302e-06
-2.73500608025e-08
2.11250269367e-06
-2.12791099074e-08
2.12808305624e-06
-2.15340410499e-08
2.13954231628e-06
-9.13375861514e-09
2.13472126525e-06
1.61049520575e-08
2.12916935023e-06
2.86855946537e-08
2.12220442056e-06
2.91698403321e-08
2.1074815975e-06
3.03925973612e-08
2.09189806385e-06
3.58735538917e-08
2.07274841451e-06
4.35250090971e-08
2.02960261048e-06
5.85499640216e-08
1.97917811146e-06
7.31105761166e-08
1.89905679354e-06
1.52687325593e-07
1.75824232352e-06
2.86918015912e-07
1.58239668016e-06
3.29618743492e-07
1.41519313504e-06
2.82133572115e-07
1.31440259852e-06
2.07444212441e-07
1.24193360028e-06
1.81118952043e-07
1.14902986441e-06
2.09830228813e-07
1.02600228382e-06
2.54179553665e-07
8.82768834621e-07
2.80976394411e-07
7.39431520713e-07
2.77405021791e-07
6.20767190967e-07
2.45342195128e-07
5.3195443353e-07
2.2142451624e-07
4.45663316499e-07
1.9962221298e-07
3.65729802097e-07
1.78019364473e-07
2.81979998707e-07
1.53562446882e-07
2.07155252484e-07
1.52368882942e-07
1.08565273722e-07
1.68678612055e-07
2.15608230811e-07
3.6446377289e-08
-1.19822539646e-07
5.60398671142e-08
-1.0608216134e-07
9.95525717301e-08
-1.22524327163e-07
1.4933884743e-07
-1.23558136791e-07
1.95928791055e-07
-1.21012058634e-07
2.21567691732e-07
-8.1907050747e-08
2.38535482077e-07
-5.908145438e-08
2.67861166499e-07
-8.07519357057e-08
3.0154696198e-07
-9.61104048783e-08
3.35516192561e-07
-9.92133892547e-08
3.69043999347e-07
-9.84140738631e-08
4.00715613052e-07
-9.66689444981e-08
4.31713001265e-07
-9.57533828171e-08
4.64603418319e-07
-9.7776971667e-08
4.96704011943e-07
-9.97880322798e-08
5.15955256401e-07
-9.54045900896e-08
5.26847477391e-07
-8.95111639721e-08
5.52374036603e-07
-9.76727407515e-08
6.00818296706e-07
-1.20115556972e-07
6.69008286346e-07
-1.49024622074e-07
7.39014775385e-07
-1.6535162039e-07
7.95442403103e-07
-1.63382193729e-07
8.46057234008e-07
-1.58924930411e-07
8.98996710763e-07
-1.57221336903e-07
9.52167301187e-07
-1.5590301968e-07
1.0034975289e-06
-1.55047055586e-07
1.05448407243e-06
-1.5448550141e-07
1.10590742426e-06
-1.54060170384e-07
1.15737629905e-06
-1.53579804173e-07
1.20915665984e-06
-1.53835438464e-07
1.26008444883e-06
-1.53595897771e-07
1.31122257125e-06
-1.54004225876e-07
1.36385684895e-06
-1.55186911524e-07
1.41477148284e-06
-1.5725652225e-07
1.4692804156e-06
-1.65591029279e-07
1.53031536455e-06
-1.7256443868e-07
1.58811312036e-06
-1.69860823284e-07
1.64390213236e-06
-1.68387001394e-07
1.70266099965e-06
-1.69727430545e-07
1.75897920037e-06
-1.61874292616e-07
1.81056106948e-06
-1.45044701773e-07
1.8578924899e-06
-1.29759774316e-07
1.90026074342e-06
-1.21785599921e-07
1.93904772461e-06
-1.16745336823e-07
1.97519473354e-06
-1.10539442313e-07
2.00831730554e-06
-1.02661769154e-07
2.03849653158e-06
-9.32000325999e-08
2.06547042184e-06
-8.25567454895e-08
2.08883014245e-06
-7.07438745503e-08
2.10891868375e-06
-5.76172640009e-08
2.12638122766e-06
-4.46052386853e-08
2.1392772424e-06
-3.39553734417e-08
2.14097010637e-06
-2.29930518476e-08
2.13591716077e-06
-3.82936492669e-09
2.13531729547e-06
1.69765156708e-08
2.13433063256e-06
2.99736089805e-08
2.12504003588e-06
3.88000252699e-08
2.1085652788e-06
4.72578794947e-08
2.08777263308e-06
5.7120808893e-08
2.06110796967e-06
7.07273449511e-08
2.02711933238e-06
9.31800287898e-08
1.9511149596e-06
1.4988885765e-07
1.79069607361e-06
3.13962566951e-07
1.57835320571e-06
5.00025416665e-07
1.41877961313e-06
4.89768317827e-07
1.34798610378e-06
3.53390544527e-07
1.2648224365e-06
2.91034632002e-07
1.15836566569e-06
2.88014364186e-07
1.04215196014e-06
3.26525336953e-07
9.13820384638e-07
3.83040289298e-07
7.91152192861e-07
4.04188189901e-07
6.96037497375e-07
3.73070831339e-07
6.14076560634e-07
3.27867237841e-07
5.30801639199e-07
3.05249163171e-07
4.33910542926e-07
2.97040004565e-07
3.36715382311e-07
2.75741186732e-07
2.54477738725e-07
2.36323262943e-07
1.92728507219e-07
2.14625641001e-07
8.32085963908e-08
2.78927425407e-07
2.99052374017e-07
2.4949145557e-08
-1.44427449222e-07
3.44452155609e-08
-1.1526420797e-07
8.15165024564e-08
-1.69186051524e-07
1.21735647301e-07
-1.63388117392e-07
1.28462581843e-07
-1.27452020259e-07
1.17685607032e-07
-7.09750196014e-08
1.63377992845e-07
-1.04554207664e-07
2.33443552975e-07
-1.50509740551e-07
2.82754204635e-07
-1.45129160869e-07
3.20938294778e-07
-1.37140468568e-07
3.56638729248e-07
-1.33887667885e-07
3.89867352929e-07
-1.29688801669e-07
4.19028982564e-07
-1.24722034688e-07
4.35699911363e-07
-1.14274090547e-07
4.42638601307e-07
-1.06571408415e-07
4.58450342269e-07
-1.11075391238e-07
4.97180530682e-07
-1.2810629134e-07
5.58122232691e-07
-1.58476323604e-07
6.28406069591e-07
-1.90253628078e-07
6.87217279994e-07
-2.07686714867e-07
7.34906014544e-07
-2.12891916092e-07
7.8530830328e-07
-2.13638496528e-07
8.38014091439e-07
-2.11488061544e-07
8.89688121893e-07
-2.08756665142e-07
9.40788037203e-07
-2.0686705848e-07
9.91725990878e-07
-2.05851417787e-07
1.04330717916e-06
-2.05933667986e-07
1.09504162722e-06
-2.056621504e-07
1.14712851237e-06
-2.05533678825e-07
1.19845465718e-06
-2.05028563754e-07
1.25074176253e-06
-2.05749355367e-07
1.30098455861e-06
-2.04113403247e-07
1.35055370254e-06
-2.04620423715e-07
1.40898001825e-06
-2.15544088074e-07
1.46789949149e-06
-2.24368862136e-07
1.52619588735e-06
-2.30717813552e-07
1.591357296e-06
-2.34876389107e-07
1.65419675974e-06
-2.31078688605e-07
1.70836448052e-06
-2.2374481835e-07
1.75864371594e-06
-2.12001492246e-07
1.80862067726e-06
-1.94867588285e-07
1.85690271276e-06
-1.77886899765e-07
1.90090214369e-06
-1.65627758422e-07
1.94061090861e-06
-1.56294105591e-07
1.97693071613e-06
-1.46694472314e-07
2.01012093483e-06
-1.35682274578e-07
2.04025849761e-06
-1.23161378301e-07
2.06719077787e-06
-1.0930644979e-07
2.09076102363e-06
-9.41238321801e-08
2.11105205047e-06
-7.7710436568e-08
2.12759615157e-06
-6.09420400074e-08
2.13830363987e-06
-4.44449349401e-08
2.14167196116e-06
-2.61301621641e-08
2.14178154248e-06
-3.69211163957e-09
2.14063516116e-06
1.83902367816e-08
2.13492879799e-06
3.59750657026e-08
2.12272185018e-06
5.13389874977e-08
2.10313449892e-06
6.72251608503e-08
2.0744020822e-06
8.62946831134e-08
2.03107600326e-06
1.14569958652e-07
1.95798974099e-06
1.66869056276e-07
1.83173707915e-06
2.76820199782e-07
1.68195771967e-06
4.64428853995e-07
1.54856226673e-06
6.3406095404e-07
1.3982063295e-06
6.40684075527e-07
1.25798056503e-06
4.94055242215e-07
1.15040654221e-06
3.9899441963e-07
1.05725012588e-06
3.8156102043e-07
9.67192584182e-07
4.17007955017e-07
8.70409030894e-07
4.80294721513e-07
7.64036733913e-07
5.11082907581e-07
6.5740321478e-07
4.80236936685e-07
5.50524183613e-07
4.35234299477e-07
4.46214569918e-07
4.10003329989e-07
3.50153627539e-07
3.93547474603e-07
2.51825285562e-07
3.74523178965e-07
1.66680694095e-07
3.21862238474e-07
1.1207248529e-07
2.69606861694e-07
5.76763067723e-08
3.33638371602e-07
3.56995325642e-07
4.35685421271e-09
-1.48499766318e-07
2.86051349206e-08
-1.39255009585e-07
6.48621918233e-08
-2.0509032862e-07
9.3787615355e-08
-1.91984740673e-07
9.04436075022e-08
-1.2390099579e-07
1.17149465395e-07
-9.75140484297e-08
1.74151459922e-07
-1.61312243062e-07
2.17453665325e-07
-1.93525807103e-07
2.57840218727e-07
-1.85241279838e-07
2.97993146046e-07
-1.77039385823e-07
3.37413006337e-07
-1.73076528113e-07
3.64454074933e-07
-1.56528061029e-07
3.72593129933e-07
-1.32689114849e-07
3.81254031774e-07
-1.22781891511e-07
4.10616416926e-07
-1.35786018249e-07
4.60794528485e-07
-1.61104189986e-07
5.23809262555e-07
-1.90969173164e-07
5.83836021214e-07
-2.18349770599e-07
6.30165812011e-07
-2.36431722198e-07
6.72495774661e-07
-2.49866214465e-07
7.20765308499e-07
-2.61011775541e-07
7.72091412897e-07
-2.6481718009e-07
8.23643037564e-07
-2.62895847319e-07
8.74617161756e-07
-2.5959038474e-07
9.2540299174e-07
-2.57515602585e-07
9.76881595519e-07
-2.57194487673e-07
1.02811901112e-06
-2.57037045927e-07
1.08057856287e-06
-2.5798720015e-07
1.13196580676e-06
-2.56786263284e-07
1.1838721937e-06
-2.56799487277e-07
1.23301494877e-06
-2.54757409096e-07
1.28659899467e-06
-2.57562173168e-07
1.3469474292e-06
-2.64831370238e-07
1.40458314973e-06
-2.73038383269e-07
1.46680901746e-06
-2.8645036577e-07
1.5334474893e-06
-2.97209205011e-07
1.59503774489e-06
-2.96318148914e-07
1.65252340335e-06
-2.88414335214e-07
1.70630803909e-06
-2.77378152682e-07
1.75754813393e-06
-2.6308846833e-07
1.80794153526e-06
-2.4510646256e-07
1.85669410424e-06
-2.26483168459e-07
1.9017267183e-06
-2.10502134082e-07
1.94241949501e-06
-1.96825293638e-07
1.97928802671e-06
-1.83397234757e-07
2.0127585003e-06
-1.68981599722e-07
2.04299183845e-06
-1.53217752177e-07
2.06993289501e-06
-1.36064122351e-07
2.09345737941e-06
-1.17458578645e-07
2.1133875627e-06
-9.7443675476e-08
2.1290111065e-06
-7.63609427676e-08
2.13898768369e-06
-5.42074747367e-08
2.1430948741e-06
-3.00117839904e-08
2.14341403618e-06
-3.77133240303e-09
2.1403665675e-06
2.16976401303e-08
2.13153338638e-06
4.5093190568e-08
2.11421606209e-06
6.89760872238e-08
2.0848922116e-06
9.69132486242e-08
2.0377276708e-06
1.33878761013e-07
1.96334180798e-06
1.89435845974e-07
1.85139992261e-06
2.79346057207e-07
1.71128407048e-06
4.17492125429e-07
1.59080551503e-06
5.85464724719e-07
1.49078250248e-06
7.34648023699e-07
1.38678485643e-06
7.45183536522e-07
1.24939596844e-06
6.31850970924e-07
1.10157132736e-06
5.47175063588e-07
9.76145191909e-07
5.0732519372e-07
8.75599200988e-07
5.17906367756e-07
7.80989964474e-07
5.75315740611e-07
6.73923060176e-07
6.18591826942e-07
5.6639671969e-07
5.8817671367e-07
4.66326999768e-07
5.35661281766e-07
3.67656349694e-07
5.09022602199e-07
2.70039380555e-07
4.91528864036e-07
1.81961089647e-07
4.62960821266e-07
1.30074009296e-07
3.74035440764e-07
8.04315174911e-08
3.19473063789e-07
3.16271413798e-08
3.82866204594e-07
3.88720723342e-07
1.14678481387e-09
-1.49504273343e-07
3.26296328619e-08
-1.70514112865e-07
5.13118986823e-08
-2.23470489524e-07
6.47233511202e-08
-2.05139762132e-07
6.42491014995e-08
-1.2327165069e-07
1.20389527339e-07
-1.53459426328e-07
1.72982252333e-07
-2.13643951337e-07
2.00455610297e-07
-2.20736145585e-07
2.33765667485e-07
-2.18286716142e-07
2.68604650861e-07
-2.11634874248e-07
2.93876276253e-07
-1.98125305454e-07
2.93126195293e-07
-1.55609828622e-07
3.03150289355e-07
-1.42567032159e-07
3.37837252148e-07
-1.57324144005e-07
3.91598976191e-07
-1.89396005287e-07
4.58839509276e-07
-2.28184052226e-07
5.20969736611e-07
-2.52936634703e-07
5.65724727483e-07
-2.62947502e-07
6.06153293349e-07
-2.76706788385e-07
6.54610761519e-07
-2.98170417863e-07
7.04798138155e-07
-3.11047379951e-07
7.54177551821e-07
-3.14047729455e-07
8.04486958634e-07
-3.13060041066e-07
8.55886442791e-07
-3.10848257483e-07
9.07013605892e-07
-3.08503513515e-07
9.55822196283e-07
-3.05866354243e-07
1.0083012667e-06
-3.09379836716e-07
1.05991358588e-06
-3.09463804657e-07
1.11234484567e-06
-3.09080953146e-07
1.15951668771e-06
-3.03835136989e-07
1.21122031281e-06
-3.06324432681e-07
1.26746744747e-06
-3.13672329968e-07
1.32621275999e-06
-3.23437526501e-07
1.39794323923e-06
-3.4462436557e-07
1.46998944852e-06
-3.58347667816e-07
1.53390630791e-06
-3.60975582809e-07
1.59289917155e-06
-3.55159975442e-07
1.64939681264e-06
-3.44760321254e-07
1.70375917392e-06
-3.31587789088e-07
1.75628237719e-06
-3.1545770856e-07
1.80751392002e-06
-2.96182639191e-07
1.85683909564e-06
-2.75651394463e-07
1.90274122084e-06
-2.56244996501e-07
1.94442789617e-06
-2.38349420046e-07
1.98205254227e-06
-2.20855072805e-07
2.01597313808e-06
-2.02730209823e-07
2.04638613076e-06
-1.83453359888e-07
2.07327305636e-06
-1.62768128343e-07
2.09648323631e-06
-1.40480411158e-07
2.11572227779e-06
-1.16488989359e-07
2.13036305572e-06
-9.08012195504e-08
2.13964834842e-06
-6.32847540323e-08
2.14358732959e-06
-3.37330549317e-08
2.14282490105e-06
-2.77771224538e-09
2.13643440879e-06
2.83357886475e-08
2.12135406478e-06
6.0446874653e-08
2.09334456361e-06
9.72909750658e-08
2.04661691356e-06
1.43984651155e-07
1.9737542311e-06
2.07130106299e-07
1.86895271903e-06
2.94668414577e-07
1.73552676547e-06
4.13231204205e-07
1.59545900821e-06
5.58026144121e-07
1.49021675694e-06
6.91172960788e-07
1.38599127196e-06
8.39332350278e-07
1.26242257099e-06
8.69174045079e-07
1.15031379721e-06
7.44309330405e-07
1.01965970973e-06
6.7814039999e-07
8.91394287116e-07
6.3589698532e-07
7.85037450142e-07
6.24589124549e-07
6.83168410141e-07
6.77526257595e-07
5.75830075451e-07
7.26289261978e-07
4.84774435674e-07
6.79539584545e-07
3.88107784615e-07
6.32609741645e-07
2.89719536648e-07
6.07699882136e-07
1.99705904173e-07
5.81842020275e-07
1.41035906102e-07
5.21902675398e-07
9.37444550497e-08
4.21559375792e-07
5.05124187284e-08
3.62985757237e-07
2.17836972675e-08
4.11751110764e-07
4.10702188092e-07
1.12592675785e-08
-1.60576333048e-07
4.48607447885e-08
-2.03890052088e-07
5.85923592178e-08
-2.36920658437e-07
4.86341878059e-08
-1.94955955592e-07
7.10460207116e-08
-1.45515909499e-07
1.29193117984e-07
-2.11379229799e-07
1.57253462446e-07
-2.41458439667e-07
1.80407175544e-07
-2.4363515407e-07
2.04898768073e-07
-2.42539907637e-07
2.39000502635e-07
-2.45496548135e-07
2.42067784652e-07
-2.01002249227e-07
2.47284305477e-07
-1.6067539594e-07
2.79504871863e-07
-1.746431169e-07
3.23736621051e-07
-2.01408197713e-07
3.87086931119e-07
-2.52581289587e-07
4.49797114203e-07
-2.90721319719e-07
4.92853944343e-07
-2.95828838513e-07
5.31316974148e-07
-3.01253407464e-07
5.81805157816e-07
-3.27037674904e-07
6.3375555354e-07
-3.49963935188e-07
6.82643066989e-07
-3.59781005921e-07
7.31874276522e-07
-3.6312873891e-07
7.8254113664e-07
-3.63580355931e-07
8.32048967222e-07
-3.60212283095e-07
8.80466846584e-07
-3.56780924017e-07
9.30305114303e-07
-3.55565924581e-07
9.80322413066e-07
-3.59258962078e-07
1.03311615496e-06
-3.62120240809e-07
1.08236224892e-06
-3.58189995292e-07
1.13083851267e-06
-3.52173892465e-07
1.18960569236e-06
-3.64951743814e-07
1.25161021168e-06
-3.75536908592e-07
1.32233091025e-06
-3.94014860147e-07
1.39476032953e-06
-4.16904912472e-07
1.46572125446e-06
-4.29155951619e-07
1.52909613348e-06
-4.24197101237e-07
1.58805489651e-06
-4.13965613786e-07
1.64521491196e-06
-4.01767203799e-07
1.70090429393e-06
-3.87123487048e-07
1.75492949437e-06
-3.69328297926e-07
1.80728094553e-06
-3.48378199663e-07
1.85741765296e-06
-3.25630554509e-07
1.90421546061e-06
-3.0288280621e-07
1.94689306067e-06
-2.80863771516e-07
1.98535478915e-06
-2.59149163349e-07
2.01980055442e-06
-2.37003826503e-07
2.05036723529e-06
-2.13843018932e-07
2.07702362624e-06
-1.89243452437e-07
2.09961647708e-06
-1.62888783999e-07
2.11787360245e-06
-1.34557276651e-07
2.13134054478e-06
-1.04075876656e-07
2.13952395018e-06
-7.12696483017e-08
2.14212002816e-06
-3.61229009572e-08
2.13843437112e-06
1.12534835564e-09
2.12607116895e-06
4.09365523617e-08
2.10071430664e-06
8.60637059578e-08
2.05695040044e-06
1.41342792507e-07
1.98946138008e-06
2.11796319575e-07
1.89558102711e-06
3.01367264448e-07
1.77895047664e-06
4.11686201842e-07
1.65526211801e-06
5.37322232759e-07
1.5472213652e-06
6.66471583627e-07
1.43883853054e-06
7.99953382132e-07
1.3277334615e-06
9.50843529358e-07
1.16928161025e-06
1.02799394983e-06
1.04480323262e-06
8.69102573051e-07
9.44655662752e-07
7.78602481856e-07
8.28323908197e-07
7.52549551838e-07
7.07002464755e-07
7.46210544231e-07
5.91373581984e-07
7.93489585206e-07
5.00939292143e-07
8.17013441055e-07
4.13495455598e-07
7.6724582323e-07
3.1095012954e-07
7.35409806569e-07
2.15821367456e-07
7.0308633627e-07
1.41376073881e-07
6.56538630437e-07
1.03639695193e-07
5.59876390726e-07
5.483303114e-08
4.70577800396e-07
1.56432725142e-08
4.02326418422e-07
8.30165542942e-09
4.19455641522e-07
4.19057378924e-07
2.01348062057e-08
-1.80575787331e-07
4.62144449556e-08
-2.29748596758e-07
5.19852061579e-08
-2.42483246517e-07
3.29386635044e-08
-1.75752150923e-07
7.36284891724e-08
-1.86026966573e-07
1.16061127066e-07
-2.53581743589e-07
1.37268851402e-07
-2.62428982731e-07
1.59914915454e-07
-2.66052371243e-07
1.69701241855e-07
-2.52088198524e-07
1.89160989834e-07
-2.64748400883e-07
1.86516495354e-07
-1.98201160052e-07
2.19957632185e-07
-1.93971361762e-07
2.57046509749e-07
-2.11584983343e-07
3.1220718049e-07
-2.56409006921e-07
3.73753101482e-07
-3.13950299802e-07
4.17306235558e-07
-3.34098201641e-07
4.5191090501e-07
-3.30270089456e-07
5.01590721902e-07
-3.50772429966e-07
5.56254344881e-07
-3.81539432767e-07
6.0605115902e-07
-3.99600900422e-07
6.5423112123e-07
-4.07805423799e-07
7.03127177663e-07
-4.11873470204e-07
7.54951242314e-07
-4.1525566616e-07
8.06420592225e-07
-4.11537177393e-07
8.52496478483e-07
-4.02714619531e-07
9.05529038884e-07
-4.08457314053e-07
9.54307656389e-07
-4.07897302126e-07
1.00160128995e-06
-4.09274237513e-07
1.05037949078e-06
-4.06830341562e-07
1.11825501937e-06
-4.19907868384e-07
1.17946910686e-06
-4.26022118407e-07
1.24043278559e-06
-4.36355555141e-07
1.31438747811e-06
-4.67820752613e-07
1.39134727139e-06
-4.93710696233e-07
1.45781395643e-06
-4.95466803134e-07
1.52040765257e-06
-4.86634997158e-07
1.58108986806e-06
-4.7449276515e-07
1.64015588016e-06
-4.60678537863e-07
1.69766821311e-06
-4.44481115837e-07
1.75343908086e-06
-4.24943815073e-07
1.8072109169e-06
-4.01993750918e-07
1.85845299743e-06
-3.76714670322e-07
1.90630364519e-06
-3.50573184669e-07
1.95003642901e-06
-3.24432850639e-07
1.98937648315e-06
-2.9832191666e-07
2.0243328832e-06
-2.71788943685e-07
2.05492135584e-06
-2.44257459702e-07
2.08107308469e-06
-2.15219186732e-07
2.1026736726e-06
-1.8431145897e-07
2.11955456049e-06
-1.51259064322e-07
2.13141270101e-06
-1.15749892381e-07
2.13773546275e-06
-7.74060882578e-08
2.1375712276e-06
-3.57632911961e-08
2.12879954692e-06
1.01044476131e-08
2.10745198204e-06
6.25020410778e-08
2.06837022916e-06
1.25392736887e-07
2.0073869412e-06
2.02595036561e-07
1.92413377876e-06
2.95347162695e-07
1.82231198443e-06
4.03507748068e-07
1.70844504556e-06
5.25899278874e-07
1.59693961751e-06
6.49184836303e-07
1.49802095489e-06
7.65737704768e-07
1.40847394076e-06
8.89842695962e-07
1.33904577675e-06
1.02060335198e-06
1.2044878832e-06
1.16289034052e-06
9.83151800296e-07
1.09074870366e-06
8.41522915756e-07
9.20530799683e-07
7.24216352254e-07
8.70148422947e-07
6.06813755265e-07
8.63945550072e-07
5.12248579671e-07
8.88309114692e-07
4.36579670557e-07
8.92936702826e-07
3.37072412452e-07
8.66985595892e-07
2.31459913516e-07
8.41267372811e-07
1.44628904996e-07
7.90159098391e-07
8.86487158811e-08
7.12746180073e-07
4.71965497666e-08
6.0154368766e-07
4.97553862711e-09
5.13013049932e-07
-2.85678354147e-08
4.36147036346e-07
-1.98062493479e-08
4.10785538553e-07
3.99457386951e-07
2.38910885907e-08
-2.04258892152e-07
3.9702078156e-08
-2.45336955664e-07
3.4875458405e-08
-2.37444912135e-07
3.77840092998e-08
-1.78507417938e-07
8.01571050148e-08
-2.28208460191e-07
9.67872566752e-08
-2.69990981562e-07
1.15150223941e-07
-2.80570742633e-07
1.36344891127e-07
-2.87029549964e-07
1.4266348135e-07
-2.58208269671e-07
1.54308014085e-07
-2.76187906189e-07
1.68355361588e-07
-2.12101041872e-07
1.99048098661e-07
-2.24518254418e-07
2.38296722708e-07
-2.50684757858e-07
2.97138032669e-07
-3.15079055506e-07
3.48699230665e-07
-3.65325770073e-07
3.80355989742e-07
-3.65579525248e-07
4.19095911486e-07
-3.68844158863e-07
4.71072462628e-07
-4.02583460869e-07
5.2352728082e-07
-4.33829126313e-07
5.73320006516e-07
-4.49232022101e-07
6.22129072774e-07
-4.56456998495e-07
6.69519028795e-07
-4.59108658003e-07
7.17727189306e-07
-4.63313490474e-07
7.67551881378e-07
-4.61216356517e-07
8.13563946997e-07
-4.48584203121e-07
8.64278828348e-07
-4.59028751702e-07
9.18200533285e-07
-4.61677675581e-07
9.75391636512e-07
-4.66323417299e-07
1.0352671455e-06
-4.66563805826e-07
1.09389090427e-06
-4.78387193539e-07
1.15803430077e-06
-4.90019088084e-07
1.23775937025e-06
-5.15929378562e-07
1.31322131581e-06
-5.43127012928e-07
1.38057318614e-06
-5.60904616773e-07
1.44573748673e-06
-5.60472534824e-07
1.5098271273e-06
-5.50566779136e-07
1.57276416693e-06
-5.37272962392e-07
1.63417576111e-06
-5.21934335208e-07
1.69388766917e-06
-5.04037569462e-07
1.7517110127e-06
-4.82611630771e-07
1.80727694708e-06
-4.57403259894e-07
1.86000271436e-06
-4.29282587119e-07
1.90915591393e-06
-3.99566115557e-07
1.95407441027e-06
-3.69188364399e-07
1.99433978867e-06
-3.38421269423e-07
2.02973548319e-06
-3.07016844513e-07
2.06012035588e-06
-2.74473531835e-07
2.08538700477e-06
-2.40316809376e-07
2.10549503222e-06
-2.0425136171e-07
2.12043193237e-06
-1.66022530402e-07
2.13001117818e-06
-1.25160401712e-07
2.13354118112e-06
-8.07564597194e-08
2.12920703237e-06
-3.12500269249e-08
2.11336459449e-06
2.61299634484e-08
2.08064019921e-06
9.54410914601e-08
2.02629979169e-06
1.79953861592e-07
1.9507211413e-06
2.784150337e-07
1.861073447e-06
3.85251943387e-07
1.7619248796e-06
5.02951552063e-07
1.64826041552e-06
6.39864906924e-07
1.53291656093e-06
7.64823636929e-07
1.43848471741e-06
8.60451078207e-07
1.36901913185e-06
9.59569710994e-07
1.31819502719e-06
1.07169848499e-06
1.27123538886e-06
1.21012965135e-06
1.05224728108e-06
1.31004904033e-06
7.60863958741e-07
1.21223834455e-06
6.30242972716e-07
1.00112152929e-06
5.3339960459e-07
9.61060886877e-07
4.54321251637e-07
9.67680014292e-07
3.68705693022e-07
9.78794458337e-07
2.54282504829e-07
9.81678182832e-07
1.47882909091e-07
9.47932456051e-07
7.31271307421e-08
8.65168931277e-07
2.04567706684e-08
7.65672136318e-07
-3.19714860329e-08
6.5423120663e-07
-6.82445940463e-08
5.49524885268e-07
-8.28828168868e-08
4.50943485164e-07
-5.40455917114e-08
3.82338537014e-07
3.4545372753e-07
2.46148610366e-08
-2.28733144893e-07
3.69635303393e-08
-2.57490337471e-07
2.43123169662e-08
-2.24622238267e-07
3.92659300469e-08
-1.93293429644e-07
7.17079497941e-08
-2.60438857429e-07
7.73324228221e-08
-2.75403754279e-07
9.06644795464e-08
-2.93695173671e-07
1.01875826031e-07
-2.98039203168e-07
1.19375869182e-07
-2.75536205633e-07
1.15090081155e-07
-2.71735468467e-07
1.41405136736e-07
-2.38271295298e-07
1.75899630161e-07
-2.58872295531e-07
2.15687819456e-07
-2.90316384041e-07
2.66965206123e-07
-3.66175627811e-07
3.05730177446e-07
-4.03908334869e-07
3.31767349164e-07
-3.91445968231e-07
3.78450279977e-07
-4.15358682317e-07
4.32487567813e-07
-4.56450904673e-07
4.84130273753e-07
-4.85304193342e-07
5.35230934345e-07
-5.0016928401e-07
5.86185925637e-07
-5.07251493527e-07
6.35512521721e-07
-5.08279314096e-07
6.8009875621e-07
-5.07745531557e-07
7.27465436344e-07
-5.08434859648e-07
7.80239571757e-07
-5.01215591967e-07
8.27461669066e-07
-5.06104934333e-07
8.78030601304e-07
-5.12102547862e-07
9.27112759331e-07
-5.1526243037e-07
9.95351954861e-07
-5.34657500017e-07
1.06598029282e-06
-5.48868998956e-07
1.14114929654e-06
-5.65037414288e-07
1.21651224466e-06
-5.91136832233e-07
1.29618520904e-06
-6.22638973037e-07
1.36610877959e-06
-6.30665883667e-07
1.43202217227e-06
-6.26224433764e-07
1.49780554432e-06
-6.16189916151e-07
1.56319321484e-06
-6.02502075283e-07
1.62726403994e-06
-5.85847874953e-07
1.68953484052e-06
-5.66152106976e-07
1.74974767841e-06
-5.42668351561e-07
1.8074867469e-06
-5.1498587866e-07
1.86211679046e-06
-4.83754791858e-07
1.91291987591e-06
-4.50209593056e-07
1.95923485133e-06
-4.15341705452e-07
2.00050999798e-06
-3.79533704025e-07
2.03628006239e-06
-3.42624942115e-07
2.06618149857e-06
-3.0421408374e-07
2.09005128023e-06
-2.64030937853e-07
2.1079862308e-06
-2.22024040849e-07
2.12019247024e-06
-1.78078413117e-07
2.12667684063e-06
-1.31470088746e-07
2.12653749136e-06
-8.04611742193e-08
2.11709648613e-06
-2.1631761214e-08
2.09314423387e-06
5.02768684272e-08
2.04800844662e-06
1.40767937745e-07
1.9787064904e-06
2.4945748419e-07
1.89273073978e-06
3.64627959294e-07
1.80549635117e-06
4.7272411133e-07
1.71437339832e-06
5.94293358549e-07
1.58422614611e-06
7.70282876304e-07
1.44359007755e-06
9.05703094744e-07
1.34964379439e-06
9.54598157207e-07
1.29442878115e-06
1.01496625927e-06
1.26743212757e-06
1.09886730951e-06
1.26551625578e-06
1.21225426538e-06
1.20963176462e-06
1.36621728883e-06
8.99226414369e-07
1.52300370618e-06
5.53955829375e-07
1.34669249344e-06
4.60955160477e-07
1.05436977294e-06
3.97987469477e-07
1.03086073119e-06
2.93462169256e-07
1.08353898896e-06
1.61285833391e-07
1.11405421693e-06
5.55997411008e-08
1.05383912309e-06
5.20765286128e-10
9.20491718292e-07
-6.50409213727e-08
8.31499749997e-07
-1.29037899855e-07
7.18478054348e-07
-1.59696265414e-07
5.80486631323e-07
-1.42173655672e-07
4.33741322792e-07
-8.44936980132e-08
3.24718478786e-07
2.61162925145e-07
1.97406496591e-08
-2.48255007478e-07
2.88527189057e-08
-2.66404056205e-07
2.07733389368e-08
-2.16385071735e-07