/*--------------------------------*- C++ -*----------------------------------*\
| =========                 |                                                 |
| \\      /  F ield         | OpenFOAM: The Open Source CFD Toolbox           |
|  \\    /   O peration     | Version:  v1806                                 |
|   \\  /    A nd           | Web:      www.OpenFOAM.com                      |
|    \\/     M anipulation  |                                                 |
\*---------------------------------------------------------------------------*/
FoamFile
{
    version     2.0;
    format      ascii;
    class       surfaceScalarField;
    location    "232";
    object      phia;
}
// * * * * * * * * * * * * * * * * * * * * * * * * * * * * * * * * * * * * * //

dimensions      [0 3 -1 0 0 0 0];
oriented        oriented;


internalField   nonuniform List<scalar> 
12640
(
1.08692601176e-07
-1.09020904514e-07
2.11310707412e-07
-1.02880579682e-07
3.04879699627e-07
-9.3772381178e-08
3.8524648068e-07
-8.0541389173e-08
4.4227405205e-07
-5.71964932829e-08
4.7273996032e-07
-3.0623366109e-08
4.89649934105e-07
-1.70490717634e-08
5.25663198804e-07
-3.61402516352e-08
5.83755962095e-07
-5.82126351062e-08
6.38230836924e-07
-5.45826250322e-08
6.88369269557e-07
-5.02316768315e-08
7.45724374773e-07
-5.7441238995e-08
7.98156668926e-07
-5.25136665311e-08
8.39814989621e-07
-4.17336912359e-08
8.764000839e-07
-3.66531638337e-08
9.21191623834e-07
-4.48568319503e-08
9.68508443995e-07
-4.7378157855e-08
1.00636746096e-06
-3.79183152819e-08
1.03166044035e-06
-2.53473985615e-08
1.05057221098e-06
-1.89637725631e-08
1.08222816217e-06
-3.17076591593e-08
1.1313825382e-06
-4.9207722154e-08
1.18731765911e-06
-5.59870201276e-08
1.24418133972e-06
-5.69144339423e-08
1.29747389688e-06
-5.33402942284e-08
1.34602134433e-06
-4.85951239347e-08
1.3937398378e-06
-4.77640540447e-08
1.43859714399e-06
-4.49036015097e-08
1.47809776956e-06
-3.95431433332e-08
1.51332481445e-06
-3.52696927742e-08
1.54956545438e-06
-3.6278774976e-08
1.58491972844e-06
-3.5392760277e-08
1.61483347808e-06
-2.99534303949e-08
1.6467114957e-06
-3.19172138443e-08
1.67875102511e-06
-3.2073059473e-08
1.70997997906e-06
-3.1266693462e-08
1.74613169802e-06
-3.61850193675e-08
1.78149884213e-06
-3.53952628828e-08
1.81320926852e-06
-3.17355623885e-08
1.84981818044e-06
-3.66376534872e-08
1.9108367904e-06
-6.10477917581e-08
1.9761203479e-06
-6.53153218822e-08
2.01290794402e-06
-3.68199603031e-08
2.03221076383e-06
-1.93356015419e-08
2.04419974259e-06
-1.20213436433e-08
2.04774678171e-06
-3.58026160343e-09
2.04318175071e-06
4.53256525645e-09
2.02824319633e-06
1.490644457e-08
2.00508625797e-06
2.31265568638e-08
1.98887122735e-06
1.6184708664e-08
1.99564564241e-06
-6.8011600704e-09
2.00082199335e-06
-5.20317819025e-09
1.94708083809e-06
5.37133646964e-08
1.85910229113e-06
8.79496668444e-08
1.74882214909e-06
1.10253307708e-07
1.59543021921e-06
1.53364423804e-07
1.45400125986e-06
1.41406241621e-07
1.34833646601e-06
1.05642033799e-07
1.2284889717e-06
1.19827388687e-07
1.09363640628e-06
1.3483741682e-07
9.78160094725e-07
1.15478104605e-07
8.46371168887e-07
1.31782799571e-07
6.33300041686e-07
2.13066372992e-07
4.5910060949e-07
1.7419938154e-07
3.43903255088e-07
1.15211356796e-07
2.64226983647e-07
7.97001903783e-08
1.96489380784e-07
6.777711608e-08
1.31087854886e-07
6.54609927358e-08
6.61088156048e-08
6.506098303e-08
2.52614859375e-09
6.36849028733e-08
-5.4319552263e-08
5.696194387e-08
-9.85568749502e-08
4.43598404663e-08
-1.27114187457e-07
2.86819367987e-08
-1.39293038422e-07
1.23037032297e-08
-1.38523756032e-07
-6.45571054457e-10
-1.27829887547e-07
-1.05734218047e-08
-1.14865281536e-07
-1.28198811268e-08
-8.81511790953e-08
-2.65732264898e-08
-5.60028325448e-08
-3.19724333928e-08
-5.58392445269e-08
5.4715560357e-08
-1.63885255071e-07
1.26090576221e-07
-1.74441035534e-07
1.96541571114e-07
-1.64371560074e-07
2.72494122742e-07
-1.56625845232e-07
3.77161930553e-07
-1.62004201559e-07
4.63108689552e-07
-1.16722125706e-07
5.13594144865e-07
-6.76872825358e-08
5.58558513817e-07
-8.12450013752e-08
6.06226040043e-07
-1.06007005449e-07
6.60677671488e-07
-1.09145726124e-07
7.1452592879e-07
-1.04178476102e-07
7.57779022689e-07
-1.0078262442e-07
7.97626250567e-07
-9.24433672492e-08
8.38100057676e-07
-8.22826364259e-08
8.78664545412e-07
-7.72911276342e-08
9.26191159021e-07
-9.24493044982e-08
9.66284045924e-07
-8.75320971634e-08
9.77193523688e-07
-4.88788705345e-08
9.84052339398e-07
-3.22553495963e-08
1.00882424021e-06
-4.37826285024e-08
1.05428114692e-06
-7.72177600051e-08
1.12271063447e-06
-1.17688342751e-07
1.19216284531e-06
-1.2549419354e-07
1.24408191869e-06
-1.08882055079e-07
1.29278788666e-06
-1.02097180536e-07
1.34805127846e-06
-1.03903592777e-07
1.39692200871e-06
-9.66842480433e-08
1.43820887408e-06
-8.6233015173e-08
1.47627407745e-06
-7.76548636103e-08
1.5118358091e-06
-7.08702853799e-08
1.54304593209e-06
-6.75317397662e-08
1.57130259891e-06
-6.36888398885e-08
1.59413132054e-06
-5.28230490993e-08
1.62071771561e-06
-5.85395545661e-08
1.65947462326e-06
-7.08715655048e-08
1.69058548952e-06
-6.24079719467e-08
1.72254781444e-06
-6.81789746679e-08
1.76929543942e-06
-8.21685773703e-08
1.82344988022e-06
-8.59187650269e-08
1.86605457401e-06
-7.92695956925e-08
1.8435751493e-06
-3.86033059985e-08
1.78953698995e-06
-1.13084146556e-08
1.78225965254e-06
-2.95757130703e-08
1.80553347697e-06
-4.26394056326e-08
1.83700249557e-06
-4.35229455706e-08
1.87362362715e-06
-4.02320620219e-08
1.90679099985e-06
-2.86683005577e-08
1.93535633509e-06
-1.36902083342e-08
1.95382107629e-06
4.62849048151e-09
1.93777553844e-06
3.21999076079e-08
1.86964989492e-06
6.1293301785e-08
1.79554902533e-06
6.88712796809e-08
1.81530384931e-06
3.39316755053e-08
1.83141011917e-06
7.18177307527e-08
1.77478867589e-06
1.66849339596e-07
1.73060854402e-06
1.97524242896e-07
1.67648747136e-06
1.95502706478e-07
1.57726860452e-06
2.04839866792e-07
1.46534378056e-06
2.31733009046e-07
1.32659942541e-06
2.73574941063e-07
1.09583829788e-06
3.46231250294e-07
8.64425980319e-07
3.63202799642e-07
6.4819195019e-07
4.29307811379e-07
4.71248993789e-07
3.51154744404e-07
3.45303508811e-07
2.41173923946e-07
2.51343097889e-07
1.73691578768e-07
1.81025137062e-07
1.38138943952e-07
1.18534539415e-07
1.28017227867e-07
5.52523285563e-08
1.28431589215e-07
-7.85245906254e-09
1.26900948664e-07
-6.37324240289e-08
1.12966725281e-07
-1.05986387616e-07
8.67417159042e-08
-1.35829277964e-07
5.8655310244e-08
-1.56124131602e-07
3.27420065807e-08
-1.63632427345e-07
7.0102759685e-09
-1.60385984363e-07
-1.36539731924e-08
-1.42868686585e-07
-3.01751850442e-08
-1.14501447921e-07
-5.4738386134e-08
-6.39160212278e-08
-8.23049283508e-08
-1.19586661469e-07
7.3721766222e-08
-2.3779006336e-07
1.04736711204e-07
-2.05610138544e-07
1.98771687247e-07
-2.5856229432e-07
3.14232041423e-07
-2.72241042089e-07
4.16754298477e-07
-2.6467573621e-07
4.63501080834e-07
-1.63590690144e-07
4.85492328719e-07
-8.98012869132e-08
5.34761663061e-07
-1.30654460083e-07
5.93636776872e-07
-1.65013921834e-07
6.52459829891e-07
-1.68082724737e-07
7.07627342577e-07
-1.59447361019e-07
7.53596349062e-07
-1.46842502233e-07
7.93596541319e-07
-1.32527904976e-07
8.34362232689e-07
-1.23127996045e-07
8.61369476762e-07
-1.04369801106e-07
8.29915906922e-07
-6.10570389796e-08
7.70346466842e-07
-2.80089256065e-08
7.6069987911e-07
-3.92741842399e-08
8.08227705667e-07
-7.9825954185e-08
9.19729830623e-07
-1.55334024159e-07
1.04726803724e-06
-2.04810932095e-07
1.12524005432e-06
-1.95717864233e-07
1.17754868617e-06
-1.7785593078e-07
1.24029784206e-06
-1.71683840327e-07
1.30056240923e-06
-1.6241082268e-07
1.34779449534e-06
-1.51184498265e-07
1.38959676012e-06
-1.38531574084e-07
1.42965501268e-06
-1.26337009933e-07
1.46585864186e-06
-1.13900432144e-07
1.50059279045e-06
-1.05647476562e-07
1.52736118347e-06
-9.43414618622e-08
1.55059402466e-06
-8.69600021934e-08
1.57869270764e-06
-8.09628870377e-08
1.58549313439e-06
-6.53795435464e-08
1.60272545185e-06
-8.81329300489e-08
1.65777592406e-06
-1.17488097457e-07
1.69401558458e-06
-1.04444904809e-07
1.72902691033e-06
-1.17203590589e-07
1.8011003213e-06
-1.58016089178e-07
1.87420468172e-06
-1.52404830758e-07
1.93724378304e-06
-1.01674874925e-07
1.98781814132e-06
-6.19164663492e-08
2.01590325108e-06
-5.7693012542e-08
2.03373552089e-06
-6.0505452833e-08
2.04699509908e-06
-5.68158702579e-08
2.05400801496e-06
-4.72797472013e-08
2.05674627165e-06
-3.14406005042e-08
2.05432717937e-06
-1.13055755461e-08
2.04581700636e-06
1.31054976834e-08
2.03522634144e-06
4.27573325507e-08
2.02441886018e-06
7.20697362925e-08
2.00032795021e-06
9.29333721087e-08
1.9220468553e-06
1.12187020421e-07
1.82976667136e-06
1.64075577036e-07
1.78488404846e-06
2.11716175601e-07
1.74287515171e-06
2.39516736421e-07
1.66345851827e-06
2.74908573239e-07
1.55312666407e-06
3.15161519085e-07
1.42319903973e-06
3.6166132819e-07
1.27470291783e-06
4.2208029846e-07
1.12629368064e-06
4.94669665132e-07
9.200428303e-07
5.69486145984e-07
6.77896985839e-07
6.71493067762e-07
4.58243983178e-07
5.70850464863e-07
3.20043373462e-07
3.79416833958e-07
2.38560072868e-07
2.5522093953e-07
1.66527993988e-07
2.10230815806e-07
9.88539225322e-08
1.95770362991e-07
3.49422216879e-08
1.92444263462e-07
-2.6453210672e-08
1.88421430208e-07
-8.27567796305e-08
1.69406299491e-07
-1.31808864837e-07
1.35940159901e-07
-1.69525293034e-07
9.65322926476e-08
-1.87855340265e-07
5.12384069254e-08
-1.89012738583e-07
8.34505487203e-09
-1.78366028158e-07
-2.41220757258e-08
-1.58208129769e-07
-5.01183054245e-08
-1.28475483766e-07
-8.42698833633e-08
-6.02976200029e-08
-1.50227321944e-07
-1.79764072898e-07
5.04719286612e-08
-2.88385805498e-07
6.147243062e-08
-2.1671701737e-07
1.76836889843e-07
-3.74081644652e-07
2.6585486291e-07
-3.61409250236e-07
2.54692528031e-07
-2.53618753491e-07
2.04911985495e-07
-1.13859077333e-07
2.90076099262e-07
-1.7504450353e-07
4.47161930323e-07
-2.87870051963e-07
5.5819005629e-07
-2.76172548489e-07
6.32499639042e-07
-2.42508238816e-07
6.96498977225e-07
-2.2354870405e-07
7.48826574071e-07
-1.99265046006e-07
7.79138234651e-07
-1.62926055193e-07
7.56836860146e-07
-1.00899733712e-07
6.98295554427e-07
-4.58873346216e-08
6.72619421275e-07
-3.54289860725e-08
7.06437156159e-07
-6.18715537019e-08
7.97323139372e-07
-1.30207643764e-07
9.28768062876e-07
-2.11325674584e-07
1.02590919586e-06
-2.52534633434e-07
1.07533108952e-06
-2.54292775747e-07
1.12978343388e-06
-2.50228042769e-07
1.19118687916e-06
-2.39315580066e-07
1.244225435e-06
-2.24775022749e-07
1.2916365799e-06
-2.09873081879e-07
1.33469249989e-06
-1.94287431045e-07
1.37719951023e-06
-1.81085438501e-07
1.41585442299e-06
-1.6503442517e-07
1.45312124126e-06
-1.51210441381e-07
1.48205167489e-06
-1.34619771498e-07
1.5121449036e-06
-1.24475008165e-07
1.52860733407e-06
-1.03463976192e-07
1.5301346224e-06
-8.25249785613e-08
1.57247176006e-06
-1.07747068653e-07
1.6085559113e-06
-1.24245706959e-07
1.64269625811e-06
-1.51650808156e-07
1.73225970666e-06
-1.94029528382e-07
1.819888699e-06
-2.04855365888e-07
1.86382816031e-06
-2.01982266445e-07
1.89386793522e-06
-1.82471444601e-07
1.9349796166e-06
-1.4281468925e-07
1.97987358813e-06
-1.06838887501e-07
2.01251843563e-06
-9.03685449606e-08
2.03420222765e-06
-8.22207968107e-08
2.0490845605e-06
-7.17315895877e-08
2.05813759111e-06
-5.63666861571e-08
2.06235721782e-06
-3.56949701187e-08
2.06137859556e-06
-1.03611786458e-08
2.05479950701e-06
1.96509921336e-08
2.04321814976e-06
5.43069424817e-08
2.02418994839e-06
9.10681170626e-08
1.98920962198e-06
1.27886950176e-07
1.93185730332e-06
1.6951743771e-07
1.87297383195e-06
2.22944466927e-07
1.81173176254e-06
2.72948373249e-07
1.7326154017e-06
3.18634629021e-07
1.63330027473e-06
3.7422498057e-07
1.51017131537e-06
4.38306830527e-07
1.36306421976e-06
5.08793139444e-07
1.19827702836e-06
5.8691404785e-07
1.02324115521e-06
6.69764593024e-07
8.36840831532e-07
7.55967434814e-07
6.79419772295e-07
8.2900658609e-07
4.88107029249e-07
7.622448168e-07
3.27613559432e-07
5.39983565903e-07
2.21404547635e-07
3.61498206106e-07
1.41512422649e-07
2.90199256157e-07
7.15159780456e-08
2.6586022161e-07
6.51684005988e-09
2.57564615026e-07
-5.86271155805e-08
2.53705818931e-07
-1.23810383539e-07
2.34756157451e-07
-1.75034753914e-07
1.87342422517e-07
-1.97566244539e-07
1.19236519525e-07
-2.01432702183e-07
5.52816966995e-08
-1.98147664428e-07
5.24578263567e-09
-1.80342609636e-07
-4.17054500461e-08
-1.42078075771e-07
-8.82020227626e-08
-1.02064496881e-07
-1.24098161036e-07
-5.46209268972e-08
-1.97476751823e-07
-2.34260317214e-07
4.45250568488e-09
-2.92931112733e-07
5.63514517796e-08
-2.68705259227e-07
1.50633014759e-07
-4.68502383263e-07
2.0211102767e-07
-4.13009612936e-07
1.72034825445e-07
-2.23611589702e-07
2.14732148754e-07
-1.56612298627e-07
3.42279072965e-07
-3.02686311294e-07
4.45515016164e-07
-3.91230839274e-07
5.24352553532e-07
-3.55131465701e-07
5.99764548517e-07
-3.18035126532e-07
6.70370204671e-07
-2.94260077054e-07
6.93369569486e-07
-2.22352966133e-07
6.5455775538e-07
-1.2418375847e-07
6.21899790903e-07
-6.82981675752e-08
6.44796937561e-07
-6.88358716327e-08
7.13348891477e-07
-1.04033944412e-07
8.21061508525e-07
-1.69641372798e-07
9.29475138815e-07
-2.3868271139e-07
9.86869190104e-07
-2.68781595316e-07
1.01791214348e-06
-2.83639022047e-07
1.06975244301e-06
-3.06194600021e-07
1.12931478591e-06
-3.09850298746e-07
1.18431129805e-06
-2.94369152812e-07
1.23285905313e-06
-2.73377508852e-07
1.27745431001e-06
-2.54518865181e-07
1.32204971814e-06
-2.38932188555e-07
1.35904356328e-06
-2.18122024951e-07
1.39809413458e-06
-2.0412868911e-07
1.42791756992e-06
-1.81077020275e-07
1.4583984978e-06
-1.65143016287e-07
1.47194177336e-06
-1.38057630627e-07
1.49677717157e-06
-1.28332573274e-07
1.55027067563e-06
-1.36047924874e-07
1.57310543299e-06
-1.30605654333e-07
1.62399462101e-06
-1.75153980131e-07
1.71012497341e-06
-2.3780031403e-07
1.7757649195e-06
-2.5969010739e-07
1.82666005104e-06
-2.55773390089e-07
1.8651323302e-06
-2.40477667178e-07
1.89874855651e-06
-2.1611150535e-07
1.93778367767e-06
-1.81873772316e-07
1.97891063635e-06
-1.47991319072e-07
2.01259155212e-06
-1.24076445065e-07
2.03698216573e-06
-1.06640938636e-07
2.0541567366e-06
-8.89377415882e-08
2.06545139917e-06
-6.76948358249e-08
2.07148765622e-06
-4.17655304337e-08
2.07197496986e-06
-1.08823339998e-08
2.06618619122e-06
2.54077403923e-08
2.05310468337e-06
6.73588444587e-08
2.02992171223e-06
1.14225030242e-07
1.99221830766e-06
1.65569344909e-07
1.93920436971e-06
2.2251734026e-07
1.87771577533e-06
2.84428341042e-07
1.80488564392e-06
3.45789847641e-07
1.7124781192e-06
4.11053953087e-07
1.59717751616e-06
4.89562761282e-07
1.45572415471e-06
5.7979986345e-07
1.29007314451e-06
6.74515012104e-07
1.11115539508e-06
7.65920121772e-07
9.32689541863e-07
8.48348646203e-07
7.75635736482e-07
9.13146418201e-07
6.711422996e-07
9.33621560652e-07
4.8687821733e-07
9.46643300079e-07
3.39835828834e-07
6.87136568172e-07
2.23803067511e-07
4.77629402959e-07
1.24671285957e-07
3.89431736822e-07
4.11825265523e-08
3.49467321044e-07
-3.17896111195e-08
3.30666800041e-07
-1.0490272447e-07
3.2698810041e-07
-1.72542257658e-07
3.02580680827e-07
-2.07657710151e-07
2.22643246871e-07
-2.18918736063e-07
1.30684187943e-07
-2.25539120731e-07
6.20976857223e-08
-2.20006490811e-07
-5.64103271521e-11
-1.92500077834e-07
-6.8990372496e-08
-1.5571754589e-07
-1.24769647426e-07
-1.11688995629e-07
-1.67950383343e-07
-5.40302907668e-08
-2.54912692961e-07
-2.88197062225e-07
8.49689900494e-10
-2.93830634239e-07
7.63902837418e-08
-3.44327982061e-07
1.2213603785e-07
-5.14367045868e-07
1.41846058574e-07
-4.32817251671e-07
1.29549031457e-07
-2.11365522478e-07
2.47313458988e-07
-2.74448528928e-07
3.8010601139e-07
-4.35589889507e-07
4.36622810987e-07
-4.47862005663e-07
4.96716598014e-07
-4.1534460644e-07
5.502156586e-07
-3.7164248306e-07
5.64486576501e-07
-3.08629681583e-07
5.15114826342e-07
-1.73044904957e-07
5.03553738485e-07
-1.12675056757e-07
5.47665724193e-07
-1.12460757073e-07
6.28588400496e-07
-1.49812863424e-07
7.51469373618e-07
-2.26977127671e-07
8.70500960267e-07
-2.88741408787e-07
9.22366740968e-07
-2.90614669063e-07
9.48312632086e-07
-2.94790731033e-07
1.00711197259e-06
-3.42502913654e-07
1.06920432635e-06
-3.68350969221e-07
1.12022308282e-06
-3.6093093368e-07
1.16915035007e-06
-3.43354786508e-07
1.21923927876e-06
-3.23520425629e-07
1.26514230105e-06
-3.00474304882e-07
1.29235802453e-06
-2.66193817252e-07
1.33204580963e-06
-2.57855199826e-07
1.36192657938e-06
-2.34052204291e-07
1.39348821322e-06
-2.12678896884e-07
1.39984132635e-06
-1.71534070082e-07
1.41617621235e-06
-1.54426820085e-07
1.44735849889e-06
-1.59542174117e-07
1.4766110341e-06
-1.65320017187e-07
1.56729120079e-06
-2.21301666398e-07
1.66676240519e-06
-2.74640165773e-07
1.73584945401e-06
-3.06904834358e-07
1.78581985613e-06
-3.09679941301e-07
1.8275407321e-06
-2.97514551973e-07
1.86515774595e-06
-2.78115189068e-07
1.90176718119e-06
-2.52740526608e-07
1.94066639141e-06
-2.20792509691e-07
1.97998090784e-06
-1.87326364135e-07
2.01418271963e-06
-1.58301342004e-07
2.04087349941e-06
-1.33357662688e-07
2.06065756905e-06
-1.08750703898e-07
2.07446026458e-06
-8.15289841227e-08
2.08264544297e-06
-4.99833879957e-08
2.08467234913e-06
-1.29418136359e-08
2.07937347041e-06
3.0676387114e-08
2.06512693135e-06
8.15798676414e-08
2.03956134675e-06
1.39770040733e-07
2.00027732456e-06
2.04840222422e-07
1.94685506328e-06
2.75936347391e-07
1.8800622276e-06
3.51235843617e-07
1.79566457352e-06
4.30205820215e-07
1.68788020464e-06
5.18897528961e-07
1.55474046429e-06
6.22745299859e-07
1.39751004423e-06
7.3712550155e-07
1.2214462262e-06
8.50673062543e-07
1.03951809262e-06
9.4798434048e-07
8.69794787895e-07
1.01820558758e-06
7.26863210237e-07
1.05622469625e-06
6.21873561845e-07
1.03875881248e-06
4.77469101153e-07
1.09118654877e-06
3.21024648426e-07
8.43698050729e-07
2.10822435401e-07
5.87929339092e-07
1.03591668908e-07
4.96766951657e-07
4.83494419935e-09
4.48330197695e-07
-8.34904515403e-08
4.19132739263e-07
-1.64279251257e-07
4.0791804929e-07
-2.16478915519e-07
3.54951566167e-07
-2.35956229843e-07
2.4229780807e-07
-2.53220774917e-07
1.48130290735e-07
-2.6376104256e-07
7.28583996008e-08
-2.54969064659e-07
-8.61383115489e-09
-2.23921020659e-07
-9.97940148892e-08
-1.80899723761e-07
-1.67588473665e-07
-1.30381135697e-07
-2.18267691707e-07
-6.81056534249e-08
-3.16999620168e-07
-3.56195264008e-07
2.68052826177e-08
-3.20696355423e-07
1.21382981968e-07
-4.38988616372e-07
1.58889058901e-07
-5.51988104628e-07
1.23242490039e-07
-3.97257451854e-07
1.59936554382e-07
-2.48118863511e-07
3.03658994851e-07
-4.18263314331e-07
3.76946943306e-07
-5.08985286438e-07
4.21080044021e-07
-4.92110149957e-07
4.53311102553e-07
-4.47678566647e-07
5.04514158269e-07
-4.22953032307e-07
4.77241323004e-07
-2.81434905702e-07
4.5216156849e-07
-1.48020755589e-07
4.9156044467e-07
-1.5212621838e-07
5.53356210387e-07
-1.74308706173e-07
6.64894400769e-07
-2.61415884526e-07
7.89831637769e-07
-3.51991249392e-07
8.40383981175e-07
-3.39365733566e-07
8.61207636079e-07
-3.1150313379e-07
9.28973152575e-07
-3.62622927292e-07
1.00149549929e-06
-4.15093784574e-07
1.05669162686e-06
-4.23613714648e-07
1.10688228183e-06
-4.11184299527e-07
1.15618913688e-06
-3.92719385151e-07
1.19547076939e-06
-3.62858319098e-07
1.22421633045e-06
-3.29270569955e-07
1.25622215043e-06
-2.98245712032e-07
1.27903701339e-06
-2.80712925348e-07
1.31252025964e-06
-2.67573664479e-07
1.32857815716e-06
-2.28774135516e-07
1.33546501397e-06
-1.78453492193e-07
1.37416684826e-06
-1.93155626959e-07
1.4224286039e-06
-2.07824842663e-07
1.4963525979e-06
-2.3925771398e-07
1.58637203401e-06
-3.11332456176e-07
1.68199346065e-06
-3.70275863527e-07
1.74206964417e-06
-3.6699697374e-07
1.7858123898e-06
-3.53439095972e-07
1.82588161789e-06
-3.37600049707e-07
1.8652344609e-06
-3.17483362519e-07
1.90421127555e-06
-2.91731930878e-07
1.94371208991e-06
-2.60307785038e-07
1.98257758895e-06
-2.26207767093e-07
2.01745122493e-06
-1.93193359324e-07
2.04621408634e-06
-1.62142458692e-07
2.06869910254e-06
-1.31261599881e-07
2.08529457998e-06
-9.81535427814e-08
2.0959211362e-06
-6.06410141688e-08
2.0996917647e-06
-1.67422855977e-08
2.09514838857e-06
3.51950229044e-08
2.08050568303e-06
9.62020434144e-08
2.05371565593e-06
1.6654878922e-07
2.01285099155e-06
2.45700586507e-07
1.9564324125e-06
3.32368064132e-07
1.88218522819e-06
4.25500580347e-07
1.78551707223e-06
5.26944613863e-07
1.66267430408e-06
6.41769167905e-07
1.51445389853e-06
7.71081685395e-07
1.34586919565e-06
9.05782144952e-07
1.16698083344e-06
1.02970176795e-06
9.93759584104e-07
1.12131824399e-06
8.53421190462e-07
1.15869300906e-06
7.55195759818e-07
1.15457058873e-06
6.3275673515e-07
1.16130112102e-06
5.28471648718e-07
1.19556408767e-06
3.18823275468e-07
1.05341135447e-06
1.86484392257e-07
7.20326500249e-07
7.13457605976e-08
6.11963744597e-07
-4.35542247436e-08
5.6332252642e-07
-1.45903303246e-07
5.21541401463e-07
-2.18810941547e-07
4.80933225828e-07
-2.52200300192e-07
3.88457905515e-07
-2.77241936132e-07
2.67469799658e-07
-3.04400753695e-07
1.75476284505e-07
-3.16155516545e-07
8.4815322552e-08
-3.03668190751e-07
-2.08712558119e-08
-2.74049544552e-07
-1.29190319558e-07
-2.23783031426e-07
-2.17653109662e-07
-1.59085785039e-07
-2.82766006538e-07
-8.9197627065e-08
-3.86701482604e-07
-4.45348957348e-07
5.21704787715e-08
-3.72920505995e-07
1.39536972373e-07
-5.26443557493e-07
1.48458072373e-07
-5.60993795746e-07
8.68236012396e-08
-3.3567840982e-07
1.85781763302e-07
-3.47145482966e-07
3.09196886883e-07
-5.4177935909e-07
3.55670932385e-07
-5.55565898926e-07
4.03397943067e-07
-5.39937306385e-07
3.96886969529e-07
-4.41273245597e-07
4.07557438676e-07
-4.33712409149e-07
3.74287750929e-07
-2.48224585249e-07
4.30092479124e-07
-2.03879196113e-07
4.82640901001e-07
-2.04728355729e-07
5.73371738303e-07
-2.65102599133e-07
6.94704950186e-07
-3.82827797219e-07
7.56171408255e-07
-4.13539793072e-07
7.73051323453e-07
-3.56315757332e-07
8.40140811621e-07
-3.78661602292e-07
9.23184501476e-07
-4.45738536645e-07
9.83162514103e-07
-4.75143674396e-07
1.03276506824e-06
-4.73283766224e-07
1.08100762809e-06
-4.59488501677e-07
1.13442921381e-06
-4.46202153925e-07
1.18372280385e-06
-4.12207284055e-07
1.20277654738e-06
-3.48373235687e-07
1.24056582111e-06
-3.36081464243e-07
1.26157787278e-06
-3.01765941658e-07
1.26345006828e-06
-2.69483338714e-07
1.27638888985e-06
-2.41742858999e-07
1.3548078099e-06
-2.56899997482e-07
1.40200693013e-06
-2.40378240681e-07
1.42584315554e-06
-2.31674039681e-07
1.51641311181e-06
-3.29837370151e-07
1.62627663439e-06
-4.21206052469e-07
1.68768263901e-06
-4.31693317126e-07
1.73697745719e-06
-4.16303974908e-07
1.78131246287e-06
-3.97785960114e-07
1.82343834254e-06
-3.79736927746e-07
1.86503124279e-06
-3.59086076064e-07
1.90619670203e-06
-3.32906063709e-07
1.94681994693e-06
-3.00939567856e-07
1.98609216271e-06
-2.65489543389e-07
2.02207615414e-06
-2.29189834359e-07
2.05305127769e-06
-1.93133817194e-07
2.07841791904e-06
-1.56648722419e-07
2.09807269834e-06
-1.17832829731e-07
2.11148407584e-06
-7.40784476407e-08
2.11743096637e-06
-2.27130641405e-08
2.11427853483e-06
3.83263425272e-08
2.10019107243e-06
1.1028046795e-07
2.07310316657e-06
1.93626917852e-07
2.03072634593e-06
2.88087852113e-07
1.97021955869e-06
3.92880787251e-07
1.88770008169e-06
5.08084526231e-07
1.77894519829e-06
6.35704685263e-07
1.64302855672e-06
7.77815977025e-07
1.48390528815e-06
9.30218974264e-07
1.30889364737e-06
1.08092873762e-06
1.12688852533e-06
1.21177852203e-06
9.59080033325e-07
1.28926811804e-06
8.37001447771e-07
1.28087104708e-06
7.48556501062e-07
1.24311196573e-06
6.70220884894e-07
1.23971062884e-06
6.12128678473e-07
1.25371239089e-06
4.22169622734e-07
1.24341677167e-06
1.79755794709e-07
9.62773228748e-07
2.89123527976e-08
7.62871231905e-07
-9.87223129108e-08
6.909874811e-07
-2.01864211529e-07
6.24776644193e-07
-2.62748955781e-07
5.41884608001e-07
-2.97241478014e-07
4.23041263634e-07
-3.36308538253e-07
3.06703815453e-07
-3.69346481725e-07
2.08671962066e-07
-3.82595168046e-07
9.82893780945e-08
-3.7248456892e-07
-3.07566096936e-08
-3.44393369279e-07
-1.57056509225e-07
-2.89779257551e-07
-2.72017153489e-07
-2.0341660526e-07
-3.68973332749e-07
-1.11439196192e-07
-4.78529844904e-07
-5.5653973886e-07
7.09551140046e-08
-4.43947769054e-07
1.37043716635e-07
-5.92624246972e-07
1.13923374276e-07
-5.37958598852e-07
1.14909156932e-07
-3.36720516567e-07
2.35372988023e-07
-4.676885019e-07
2.85519644673e-07
-5.92024371681e-07
3.27994705936e-07
-5.98139933065e-07
3.69746045666e-07
-5.81785375248e-07
3.72146091036e-07
-4.43756715292e-07
3.7900278874e-07
-4.4065981912e-07
3.82821778125e-07
-2.52099525313e-07
4.2978848122e-07
-2.50902965155e-07
4.91535504263e-07
-2.66532572362e-07
5.99779288506e-07
-3.73418875019e-07
7.04964149322e-07
-4.88105077985e-07
7.29514533741e-07
-4.38173051238e-07
7.59937126113e-07
-3.86810889303e-07
8.32226089934e-07
-4.51023928291e-07
9.04081954252e-07
-5.17670237009e-07
9.60396495156e-07
-5.31530979565e-07
1.00837163975e-06
-5.21326028236e-07
1.04714625217e-06
-4.98330197255e-07
1.08183013515e-06
-4.8094842012e-07
1.11669924467e-06
-4.47130656064e-07
1.14392121215e-06
-3.75644577383e-07
1.17135222093e-06
-3.63556547441e-07
1.21337968932e-06
-3.43830763229e-07
1.26148650128e-06
-3.17623781097e-07
1.30799154891e-06
-2.88277967233e-07
1.341357193e-06
-2.90289019043e-07
1.39126962422e-06
-2.90302999893e-07
1.49599690374e-06
-3.36408517033e-07
1.57728163323e-06
-4.11127279443e-07
1.63361316415e-06
-4.77543863887e-07
1.68301036735e-06
-4.81098724032e-07
1.73023080348e-06
-4.63532101085e-07
1.77614708331e-06
-4.43708464485e-07
1.8204764022e-06
-4.24070659181e-07
1.86402691588e-06
-4.02639318851e-07
1.90720009615e-06
-3.760808516e-07
1.94955421426e-06
-3.4329472785e-07
1.99014419136e-06
-3.06082063177e-07
2.02776192114e-06
-2.66812520744e-07
2.0612585656e-06
-2.26639794788e-07
2.08982555246e-06
-1.85230496742e-07
2.1128524937e-06
-1.40878713148e-07
2.129470773e-06
-9.07178318386e-08
2.13828424832e-06
-3.15458733835e-08
2.13753340032e-06
3.90702255993e-08
2.12524026055e-06
1.22557033325e-07
2.09909508331e-06
2.19783901109e-07
2.05600303788e-06
3.31166931731e-07
1.99179916753e-06
4.57134524682e-07
1.9014575453e-06
5.98396448614e-07
1.78179989166e-06
7.55487914544e-07
1.63434758908e-06
9.25188942034e-07
1.46573675683e-06
1.09895514106e-06
1.2826910533e-06
1.2639531051e-06
1.09345694386e-06
1.4011335962e-06
9.31127202305e-07
1.45165394687e-06
8.30401131288e-07
1.38171155419e-06
7.59554247949e-07
1.31404242937e-06
6.93405694777e-07
1.3059357943e-06
6.28078259761e-07
1.31908668043e-06
5.41094759673e-07
1.33043156284e-06
2.68077295232e-07
1.23585409603e-06
-1.78073658998e-08
1.04879529183e-06
-1.59204094891e-07
8.32498545421e-07
-2.56695306743e-07
7.22331467511e-07
-3.14385827552e-07
5.99682357865e-07
-3.61731397432e-07
4.70554595204e-07
-4.09869649826e-07
3.54962418536e-07
-4.44913716454e-07
2.43965108926e-07
-4.60788744462e-07
1.14379298411e-07
-4.58540680396e-07
-3.27444659895e-08
-4.33601428767e-07
-1.81715100478e-07
-3.74591081077e-07
-3.30852184705e-07
-2.68070808089e-07
-4.7519420889e-07
-1.39316684019e-07
-6.06849026498e-07
-6.95777524537e-07
8.55785956612e-08
-5.29592602707e-07
1.43082698145e-07
-6.50215539656e-07
1.01953414855e-07
-4.96898406483e-07
1.425106195e-07
-3.77343298146e-07
2.47995196092e-07
-5.73265935391e-07
2.57004369623e-07
-6.01128556232e-07
2.94307655592e-07
-6.35536964151e-07
3.01215456547e-07
-5.88783304379e-07
3.34134867023e-07
-4.7674593443e-07
3.17251733631e-07
-4.23845952776e-07
3.63701623479e-07
-2.98607529338e-07
4.22930921148e-07
-3.10185700799e-07
4.92701941546e-07
-3.36368522094e-07
5.9385593341e-07
-4.74659812008e-07
6.51232116739e-07
-5.45571137668e-07
6.58711855181e-07
-4.45730923449e-07
7.24923025082e-07
-4.53097781069e-07
8.06074887537e-07
-5.32254793494e-07
8.72794716583e-07
-5.84468430387e-07
9.32282166117e-07
-5.91092242214e-07
9.85352424431e-07
-5.74470869005e-07
1.03302599699e-06
-5.46070873937e-07
1.05760680965e-06
-5.05593420096e-07
1.07760333368e-06
-4.67183706199e-07
1.1277599347e-06
-4.25846318904e-07
1.14767945063e-06
-3.83518519234e-07
1.15279315519e-06
-3.48982714224e-07
1.1683104314e-06
-3.33173206797e-07
1.23251937382e-06
-3.52510680497e-07
1.31342406177e-06
-3.71209225442e-07
1.39315685054e-06
-3.70042808674e-07
1.46936343628e-06
-4.12615158492e-07
1.57028535382e-06
-5.12048314265e-07
1.62948486279e-06
-5.36746658388e-07
1.67616675176e-06
-5.27783718324e-07
1.72348032612e-06
-5.10846804919e-07
1.7710047899e-06
-4.91231674923e-07
1.8172809827e-06
-4.7034358673e-07
1.86248388684e-06
-4.47837199752e-07
1.90734312552e-06
-4.20933577961e-07
1.95158459212e-06
-3.87529608859e-07
1.99415961785e-06
-3.48650941741e-07
2.03404014651e-06
-3.0668964946e-07
2.07043111758e-06
-2.6303136987e-07
2.10259385399e-06
-2.17398106467e-07
2.12957574958e-06
-1.67870965279e-07
2.15009374825e-06
-1.1124501798e-07
2.16266532858e-06
-4.41224284678e-08
2.16561371155e-06
3.61064243905e-08
2.15689043038e-06
1.31299156895e-07
2.13366658923e-06
2.42969017902e-07
2.09194709882e-06
3.72930215026e-07
2.0258479716e-06
5.23168605866e-07
1.92925606703e-06
6.95092725538e-07
1.79915277435e-06
8.8546727205e-07
1.63977057081e-06
1.08471908591e-06
1.45826048717e-06
1.28035009826e-06
1.25891952279e-06
1.46341474168e-06
1.06061851559e-06
1.59942635646e-06
9.21905682174e-07
1.59051330952e-06
8.53932552474e-07
1.44974755251e-06
7.88842187613e-07
1.37920229767e-06
7.08419784018e-07
1.38641925147e-06
6.26217452332e-07
1.40138466378e-06
5.55361105346e-07
1.40138534487e-06
3.88943088499e-07
1.40232996785e-06
7.02502028059e-08
1.36764166983e-06
-2.07034540673e-07
1.10987498838e-06
-3.1096177265e-07
8.26423959108e-07
-3.79477138241e-07
6.68343527016e-07
-4.43610994481e-07
5.34804321438e-07
-4.90890643771e-07
4.02491058509e-07
-5.25780445891e-07
2.78987002564e-07
-5.49633619517e-07
1.38460136839e-07
-5.5944022542e-07
-2.27000182273e-08
-5.40154114763e-07
-2.00803261157e-07
-4.74300531934e-07
-3.96325745109e-07
-3.52454782694e-07
-5.96797804606e-07
-1.84476759902e-07
-7.74671337628e-07
-8.79879541739e-07
8.10125620197e-08
-6.10687826979e-07