/*--------------------------------*- C++ -*----------------------------------*\
| =========                 |                                                 |
| \\      /  F ield         | OpenFOAM: The Open Source CFD Toolbox           |
|  \\    /   O peration     | Version:  v1806                                 |
|   \\  /    A nd           | Web:      www.OpenFOAM.com                      |
|    \\/     M anipulation  |                                                 |
\*---------------------------------------------------------------------------*/
FoamFile
{
    version     2.0;
    format      ascii;
    class       surfaceScalarField;
    location    "87";
    object      phia;
}
// * * * * * * * * * * * * * * * * * * * * * * * * * * * * * * * * * * * * * //

dimensions      [0 3 -1 0 0 0 0];
oriented        oriented;


internalField   nonuniform List<scalar> 
12640
(
4.5014329035e-07
-4.4915992601e-07
8.83751461495e-07
-4.36415212183e-07
1.2909295693e-06
-4.10102561458e-07
1.64534728329e-06
-3.57993182438e-07
1.89171833314e-06
-2.4858096668e-07
2.0040242775e-06
-1.1323573149e-07
2.04264373627e-06
-3.97335377668e-08
2.17856342587e-06
-1.37005584349e-07
2.43075342857e-06
-2.53954864483e-07
2.66232979356e-06
-2.33566399424e-07
2.87334735873e-06
-2.13262778424e-07
3.13388248415e-06
-2.62928784552e-07
3.36962640685e-06
-2.38340702728e-07
3.54237685648e-06
-1.75265645936e-07
3.67993606718e-06
-1.39855015013e-07
3.8613195164e-06
-1.82850874222e-07
4.05597251232e-06
-1.96204595369e-07
4.19544232194e-06
-1.40830126275e-07
4.25921855583e-06
-6.5902393045e-08
4.27154918416e-06
-1.52502859065e-08
4.33906096533e-06
-7.10499855924e-08
4.50007871661e-06
-1.64610890671e-07
4.7055956834e-06
-2.09372324357e-07
4.93034127566e-06
-2.28371498394e-07
5.14249269537e-06
-2.15632943533e-07
5.32922035218e-06
-1.89959651086e-07
5.51773988783e-06
-1.91803355218e-07
5.69315958617e-06
-1.78494479891e-07
5.83671331125e-06
-1.4676652789e-07
5.9528657901e-06
-1.19161357116e-07
6.07988495807e-06
-1.302476204e-07
6.20584474907e-06
-1.28987540451e-07
6.29112071736e-06
-8.80824198166e-08
6.38472519699e-06
-9.64736527e-08
6.46681686645e-06
-8.57113438396e-08
6.53167780191e-06
-6.82312672505e-08
6.62567887409e-06
-9.7873442968e-08
6.70987310163e-06
-8.90259318291e-08
6.77399407183e-06
-6.97505606565e-08
6.90320711484e-06
-1.35475268409e-07
7.30263030762e-06
-4.05994730461e-07
7.77504650107e-06
-4.78156662103e-07
8.01553741465e-06
-2.45637415768e-07
8.13265805278e-06
-1.22435678162e-07
8.19450557828e-06
-6.70774861487e-08
8.19434556342e-06
-5.18783919188e-09
8.13662129464e-06
5.22292597137e-08
8.01206918879e-06
1.18809584716e-07
7.85617264167e-06
1.50057607834e-07
7.80601168268e-06
4.4443218175e-08
8.00379739533e-06
-2.04424650948e-07
8.22795650454e-06
-2.30269207817e-07
7.95138316424e-06
2.70714559027e-07
7.42359242726e-06
5.20672026122e-07
6.76772485229e-06
6.49270593113e-07
5.82900654011e-06
9.32491701693e-07
5.05664698051e-06
7.64538030258e-07
4.6587610628e-06
3.88358724358e-07
4.30501070282e-06
3.43011647474e-07
3.96418487154e-06
3.28682398179e-07
3.86467949596e-06
8.5988064388e-08
3.76952390355e-06
8.19272651729e-08
3.40045322008e-06
3.55662363428e-07
3.09023791018e-06
3.01642005977e-07
2.86206955783e-06
2.22888472042e-07
2.69526677915e-06
1.6319368307e-07
2.52891992745e-06
1.631380177e-07
2.35209066417e-06
1.7347184063e-07
2.15910404553e-06
1.89219312889e-07
1.94303191006e-06
2.11958863574e-07
1.71573361728e-06
2.22980845384e-07
1.49159164548e-06
2.19920079813e-07
1.27405144977e-06
2.13549007584e-07
1.04002415655e-06
2.30153538807e-07
8.33451755082e-07
2.03007706008e-07
6.48930526394e-07
1.80975900652e-07
5.14764075113e-07
1.30512136588e-07
3.61333131582e-07
1.49847053381e-07
2.17988801181e-07
1.37918166253e-07
2.14133271848e-07
2.20466319237e-07
-6.74681857657e-07
5.06640178671e-07
-7.25251611555e-07
7.92042688433e-07
-6.99142858708e-07
1.10749378069e-06
-6.76021676063e-07
1.56815337626e-06
-7.10954821686e-07
1.96581861766e-06
-5.12326975855e-07
2.19984215327e-06
-2.74429214201e-07
2.39318195853e-06
-3.32259042896e-07
2.59046791285e-06
-4.53367837812e-07
2.82274359465e-06
-4.68544922531e-07
3.05482692234e-06
-4.47919992972e-07
3.22827666423e-06
-4.39149119773e-07
3.38524234866e-06
-3.97411264533e-07
3.54971532342e-06
-3.41697718582e-07
3.71422359074e-06
-3.0554595541e-07
3.90666832503e-06
-3.76970663141e-07
4.04711251653e-06
-3.37720048656e-07
4.01438532793e-06
-1.10338376397e-07
3.96079668317e-06
-1.47748274412e-08
4.00392327586e-06
-6.17426446645e-08
4.14905256065e-06
-2.19955079787e-07
4.43447779602e-06
-4.54555924424e-07
4.73908264639e-06
-5.17776988492e-07
4.93551484545e-06
-4.28865540504e-07
5.11986091421e-06
-4.03360461024e-07
5.3578059419e-06
-4.31609601026e-07
5.55509300063e-06
-3.9218308721e-07
5.70309844036e-06
-3.30018257017e-07
5.83220497157e-06
-2.78851369017e-07
5.94634294392e-06
-2.36736014203e-07
6.02942392002e-06
-2.16222877813e-07
6.09512456981e-06
-1.97434077338e-07
6.12309789209e-06
-1.18799591231e-07
6.16481432475e-06
-1.41435286205e-07
6.29213338675e-06
-2.15667920735e-07
6.34604234591e-06
-1.26435254805e-07
6.3983018106e-06
-1.54818180605e-07
6.57068641886e-06
-2.66556515086e-07
6.80389206046e-06
-3.08543094799e-07
6.96582008423e-06
-3.03976607683e-07
6.58479229138e-06
-3.05920933589e-08
5.98841775624e-06
1.13497666279e-07
5.83881297238e-06
-1.00333537615e-07
5.92362890957e-06
-2.12095288892e-07
6.0959749505e-06
-2.44224605579e-07
6.34166437106e-06
-2.56220668414e-07
6.60376430515e-06
-2.15194562508e-07
6.87528516172e-06
-1.58562097122e-07
7.10342544208e-06
-8.39642857251e-08
7.07764343529e-06
6.41014345934e-08
6.66237018658e-06
2.0544808391e-07
6.23475929813e-06
1.91863468659e-07
6.68632744283e-06
-1.87093825697e-07
7.15123443645e-06
4.80741252663e-08
7.0405565644e-06
7.52458038714e-07
7.09902342604e-06
8.64980563072e-07
7.11463229776e-06
7.37826225664e-07
6.80428570098e-06
6.85993108523e-07
6.43015461147e-06
7.02827998838e-07
5.95587727154e-06
7.86861365679e-07
4.96797752637e-06
1.05874879617e-06
4.0849309416e-06
9.51428020273e-07
3.54021305382e-06
8.8676903797e-07
3.15542287139e-06
6.7797822442e-07
2.84088706414e-06
5.32530626483e-07
2.5650520107e-06
4.3550218137e-07
2.39709540768e-06
3.28014401581e-07
2.27114682422e-06
2.96067566361e-07
2.10897090728e-06
3.47694076139e-07
1.89905051841e-06
4.17723812836e-07
1.65749991198e-06
4.60251959994e-07
1.41356235011e-06
4.59753726675e-07
1.20801730515e-06
4.15110847785e-07
1.05042811182e-06
3.83619467393e-07
8.93355188556e-07
3.55956728222e-07
7.44240133992e-07
3.26024477395e-07
5.82044151697e-07
2.88446794216e-07
4.30819252975e-07
2.96259395703e-07
2.26247295709e-07
3.37089177626e-07
4.36092395545e-07
3.04930655662e-07
-9.76432604829e-07
4.18238474496e-07
-8.41834535493e-07
8.2548233405e-07
-1.10949812394e-06
1.34560690011e-06
-1.19822764127e-06
1.79736296923e-06
-1.16379606922e-06
1.98492291741e-06
-7.01040204479e-07
2.06660522702e-06
-3.58536308573e-07
2.277444501e-06
-5.45820947901e-07
2.53329711084e-06
-7.12246324036e-07
2.78962209224e-06
-7.28051248771e-07
3.02737769852e-06
-6.88372407735e-07
3.21670029697e-06
-6.30206540574e-07
3.37547092977e-06
-5.57204013823e-07
3.53605802937e-06
-5.03003473856e-07
3.61116775752e-06
-3.81559496701e-07
3.35771129117e-06
-1.24661860122e-07
2.97308197953e-06
4.50469799822e-08
2.86729712858e-06
-6.64810628548e-09
3.02171199325e-06
-1.71964095398e-07
3.50094793765e-06
-5.44570689321e-07
4.09969312483e-06
-8.22882449335e-07
4.4433146763e-06
-8.02127453435e-07
4.64375814304e-06
-7.22125738846e-07
4.92440775725e-06
-7.13095730794e-07
5.19204682644e-06
-6.74591692851e-07
5.37229616085e-06
-6.15095908047e-07
5.51684607336e-06
-5.4004328454e-07
5.65194635313e-06
-4.68161110855e-07
5.76097209366e-06
-3.91048640473e-07
5.86431146835e-06
-3.42940477864e-07
5.91401064877e-06
-2.68452388587e-07
5.93478147994e-06
-2.20965032351e-07
5.99978796082e-06
-1.85986350243e-07
5.89841601598e-06
-4.26260840434e-08
5.84017538349e-06
-1.61367633431e-07
6.05607989964e-06
-3.46658043506e-07
6.12561077638e-06
-2.29427162995e-07
6.2031873568e-06
-3.49639302174e-07
6.62328287333e-06
-7.34615190082e-07
7.11313666047e-06
-7.99626163525e-07
7.56647581676e-06
-4.89703431238e-07
7.91144193599e-06
-2.37149325629e-07
8.06319551775e-06
-2.58098234444e-07
8.15578490805e-06
-3.10673297038e-07
8.22900046608e-06
-3.23721511866e-07
8.27280808345e-06
-3.06303914911e-07
8.30431878313e-06
-2.5324614184e-07
8.31947487155e-06
-1.80205899165e-07
8.31491016405e-06
-8.59373411617e-08
8.33064317202e-06
4.20975653292e-08
8.36600907474e-06
1.63531011975e-07
8.31430567254e-06
2.3658822637e-07
7.82724218576e-06
2.92641853828e-07
7.27249299937e-06
5.95406293917e-07
7.23230909424e-06
7.84371987923e-07
7.28649025933e-06
8.01028297071e-07
7.08533782563e-06
9.27678664653e-07
6.708484596e-06
1.05028979987e-06
6.26462376626e-06
1.13289187762e-06
5.7857969422e-06
1.25119447664e-06
5.39892758189e-06
1.43066445574e-06
4.77959108753e-06
1.55570980315e-06
3.82413390465e-06
1.82934043029e-06
3.00340710041e-06
1.4912150142e-06
2.62116587397e-06
9.10216884872e-07
2.49045256577e-06
5.62870243912e-07
2.34295280331e-06
4.72461882441e-07
2.15610885805e-06
4.79805444276e-07
1.95201296578e-06
5.4831255344e-07
1.72687423658e-06
6.38988825752e-07
1.51216357439e-06
6.70943396235e-07
1.34632132528e-06
6.2153181504e-07
1.20382265415e-06
5.53426221397e-07
1.05487389002e-06
5.28430626571e-07
8.78075062986e-07
5.28700934063e-07
6.96699159106e-07
5.03247426492e-07
5.37027329468e-07
4.44039415685e-07
4.08974230426e-07
4.20435825366e-07
1.77837346836e-07
5.62283449616e-07
6.12287329112e-07
2.03223812624e-07
-1.18536330038e-06
2.36497752495e-07
-8.76534975098e-07
7.60241383673e-07
-1.63560776438e-06
1.15031344444e-06
-1.58970053423e-06
1.05563863448e-06
-1.07025090153e-06
8.021857115e-07
-4.48627616317e-07
1.14494936401e-06
-7.03250387596e-07
1.84439861014e-06
-1.24899817823e-06
2.361081581e-06
-1.23256687227e-06
2.69794556127e-06
-1.06782758468e-06
2.98317998921e-06
-9.7541047187e-07
3.20400336121e-06
-8.5151707181e-07
3.29552944879e-06
-6.48609409086e-07
3.10435390296e-06
-3.11749179422e-07
2.74369077062e-06
-2.17254134654e-08
2.57641435942e-06
4.05806121097e-08
2.68155610692e-06
-6.25890069011e-08
3.0443523229e-06
-3.72557423601e-07
3.64908381512e-06
-7.80435649215e-07
4.10260268261e-06
-1.0019550154e-06
4.29422920314e-06
-1.01826263687e-06
4.51026400428e-06
-1.02201214423e-06
4.77308809422e-06
-9.88606633161e-07
4.98229959948e-06
-9.25799096296e-07
5.15593883288e-06
-8.51303161309e-07
5.30147425429e-06
-7.63760176983e-07
5.44763049164e-06
-6.88970033847e-07
5.56721751335e-06
-5.90817181745e-07
5.68341233864e-06
-5.09927094335e-07
5.7417093141e-06
-4.03689028959e-07
5.810701533e-06
-3.39803168403e-07
5.79752766819e-06
-2.09526563086e-07
5.66364585184e-06
-5.46657313598e-08
5.80495471192e-06
-1.8741661547e-07
5.88201308602e-06
-2.42490278256e-07
5.94489144146e-06
-4.14634342695e-07
6.46434742245e-06
-7.54894670858e-07
7.0194667182e-06
-9.11054610371e-07
7.25025399769e-06
-9.7114193289e-07
7.35550238426e-06
-9.10568575433e-07
7.55946350928e-06
-6.99506528642e-07
7.82168273787e-06
-5.05454008317e-07
8.00340997083e-06
-4.45793285721e-07
8.12329772947e-06
-4.36624245224e-07
8.21044326406e-06
-4.16880284495e-07
8.27248165768e-06
-3.74521302659e-07
8.31967432672e-06
-3.0665887169e-07
8.35093212951e-06
-2.17858422827e-07
8.36515265515e-06
-1.06497595639e-07
8.36925471849e-06
3.15868957461e-08
8.34221222112e-06
1.8411759317e-07
8.22737338818e-06
3.44729370698e-07
7.98048630175e-06
5.32418335136e-07
7.7854495419e-06
7.8261739908e-07
7.60205664e-06
9.59168162436e-07
7.311147048e-06
1.08226259438e-06
6.94893636159e-06
1.27905871433e-06
6.50091886416e-06
1.48638806478e-06
5.97600941009e-06
1.64494612218e-06
5.43558849126e-06
1.77809058478e-06
4.9289276299e-06
1.92415205489e-06
4.3582359599e-06
2.1135025239e-06
3.76863200867e-06
2.40808744977e-06
3.10484576222e-06
2.14770247976e-06
2.67126063762e-06
1.33911706785e-06
2.38481683716e-06
8.4607185046e-07
2.18075867276e-06
6.73741554401e-07
2.00557672031e-06
6.52062269553e-07
1.83564875161e-06
7.14941958189e-07
1.65624735216e-06
8.14680442761e-07
1.46866388676e-06
8.54494525077e-07
1.2851497812e-06
8.00945254024e-07
1.0951789725e-06
7.39599115736e-07
9.04858724466e-07
7.1516400688e-07
7.27569389873e-07
7.02360994492e-07
5.41287842e-07
6.85876058565e-07
3.69056851854e-07
6.13064028938e-07
2.50301604112e-07
5.36150314501e-07
1.28860335108e-07
6.81513466282e-07
7.3884484468e-07
9.53737049324e-09
-1.19250765381e-06
2.24247463582e-07
-1.09290295115e-06
6.61644046289e-07
-2.07310128128e-06
8.52889909029e-07
-1.77998567025e-06
6.83856967098e-07
-9.02109631988e-07
8.46141246284e-07
-6.12713077874e-07
1.41232215452e-06
-1.27282329983e-06
1.89619300618e-06
-1.73611876676e-06
2.23559546358e-06
-1.57517147577e-06
2.56047447714e-06
-1.39431507884e-06
2.85658872039e-06
-1.27155213947e-06
2.89552371981e-06
-8.9007192433e-07
2.63789679603e-06
-3.9060109784e-07
2.44476974264e-06
-1.19386947919e-07
2.51799273957e-06
-9.71586615686e-08
2.78602233209e-06
-2.30292263816e-07
3.25129192252e-06
-5.31349534447e-07
3.76096798097e-06
-8.86219700853e-07
4.0024070913e-06
-1.02565409111e-06
4.0806657871e-06
-1.08378730902e-06
4.28648545976e-06
-1.22766234797e-06
4.53748260428e-06
-1.27659168074e-06
4.75547657339e-06
-1.20989678821e-06
4.93124886263e-06
-1.10442729169e-06
5.08441984463e-06
-1.00733793697e-06
5.24207659583e-06
-9.23829221572e-07
5.34353445644e-06
-7.93353735459e-07
5.46455241689e-06
-7.14225794325e-07
5.52512984702e-06
-5.72687649823e-07
5.59935860434e-06
-4.79882014594e-07
5.57595726141e-06
-3.18175890687e-07
5.60509158157e-06
-2.40946741008e-07
5.82844444387e-06
-2.81043981171e-07
5.81390670588e-06
-1.77202004938e-07
6.00342710476e-06
-4.37324566285e-07
6.47592885811e-06
-8.93210611822e-07
6.83496712913e-06
-1.12000115423e-06
7.09177966474e-06
-1.17353997239e-06
7.25227757278e-06
-1.13716164017e-06
7.37977591535e-06
-1.04362014414e-06
7.56262196594e-06
-8.88139085401e-07
7.78177419012e-06
-7.3050043345e-07
7.96488011595e-06
-6.3488277505e-07
8.10154094017e-06
-5.79209206231e-07
8.20573344478e-06
-5.27026888044e-07
8.28713532491e-06
-4.61887311066e-07
8.35173256628e-06
-3.77347563239e-07
8.39904210613e-06
-2.71323786513e-07
8.42457934584e-06
-1.38288579028e-07
8.42192687424e-06
2.79986799063e-08
8.37282730138e-06
2.2687008806e-07
8.25416584255e-06
4.56790267362e-07
8.06626293856e-06
7.1329792252e-07
7.86230216964e-06
9.7896433476e-07
7.6094882989e-06
1.20360845941e-06
7.25690880625e-06
1.42565194412e-06
6.81099416288e-06
1.71484763819e-06
6.26123565856e-06
2.02485505792e-06
5.63617297282e-06
2.25776346008e-06
5.02948971206e-06
2.37252708182e-06
4.49697753083e-06
2.44452809096e-06
4.05085283489e-06
2.54878098683e-06
3.75735888362e-06
2.69281028514e-06
3.12267619494e-06
2.77511877034e-06
2.75698509737e-06
1.70009128777e-06
2.4344002924e-06
1.16541332255e-06
2.13082524209e-06
9.7446627541e-07
1.88404782402e-06
8.96031327917e-07
1.68883810101e-06
9.07097843303e-07
1.51006384293e-06
9.89969273943e-07
1.31854738022e-06
1.04224839043e-06
1.12576187084e-06
9.90185850692e-07
9.42962179389e-07
9.1917439608e-07
7.6502036592e-07
8.89898201091e-07
5.86341768833e-07
8.77707722038e-07
4.15938818628e-07
8.53085055771e-07
3.05462380134e-07
7.2108956367e-07
1.9660744039e-07
6.4318477305e-07
8.14623430857e-08
7.92885367313e-07
8.19615626392e-07
-1.48628919409e-09
-1.19471027986e-06
3.24569123996e-07
-1.41910915065e-06
5.27261401845e-07
-2.2753483617e-06
5.88251665059e-07
-1.84113406897e-06
5.20319209218e-07
-8.3498355819e-07
1.01297689516e-06
-1.10771770332e-06
1.633194541e-06
-1.89617733192e-06
1.88814704306e-06
-1.99445591748e-06
2.1322014646e-06
-1.82000808371e-06
2.3264961863e-06
-1.58899819325e-06
2.31605986865e-06
-1.26058488255e-06
2.03588110329e-06
-6.09386043435e-07
1.96558691644e-06
-3.20896272378e-07
2.13644365157e-06
-2.9206553706e-07
2.45978600945e-06
-4.23306120077e-07
2.99538882712e-06
-7.69683274578e-07
3.55547665504e-06
-1.09536455404e-06
3.75323849967e-06
-1.08736115554e-06
3.79343790799e-06
-1.06912586252e-06
4.04368528504e-06
-1.33747880216e-06
4.31542498148e-06
-1.50284302572e-06
4.50993762064e-06
-1.47418745605e-06
4.68679044815e-06
-1.38957627246e-06
4.87226167426e-06
-1.29260491991e-06
5.0351320005e-06
-1.17238020157e-06
5.06969866479e-06
-9.60825696732e-07
5.18911711258e-06
-9.14778178903e-07
5.2443531116e-06
-7.71488863237e-07
5.31670345671e-06
-6.47070151496e-07
5.25301419816e-06
-4.17911491396e-07
5.23368568439e-06
-3.00603592861e-07
5.30882852158e-06
-3.18880670025e-07
5.34578938854e-06
-3.21799887515e-07
5.77269622972e-06
-6.09119527278e-07
6.30471571189e-06
-9.75530163574e-07
6.67564556046e-06
-1.27016772188e-06
6.91202839198e-06
-1.36195218404e-06
7.08217489571e-06
-1.34892809041e-06
7.22811569481e-06
-1.288230645e-06
7.37775666978e-06
-1.19857698032e-06
7.55607926162e-06
-1.07207278987e-06
7.75387393222e-06
-9.34130612123e-07
7.93445949039e-06
-8.21333165481e-07
8.08318468183e-06
-7.33775289086e-07
8.20424264728e-06
-6.53889191995e-07
8.30415121907e-06
-5.6763430787e-07
8.38673325238e-06
-4.65825083674e-07
8.4492036184e-06
-3.39785309649e-07
8.48400712193e-06
-1.79144541655e-07
8.48138848159e-06
2.44802253336e-08
8.42881850745e-06
2.73187274824e-07
8.31665762633e-06
5.62448602059e-07
8.1459113441e-06
8.77076004917e-07
7.92316361832e-06
1.19423147068e-06
7.61660942711e-06
1.5021461543e-06
7.19227285424e-06
1.84146363916e-06
6.65386749101e-06
2.24393727427e-06
6.0241267211e-06
2.64421014901e-06
5.34292055127e-06
2.92731322669e-06
4.71261694528e-06
2.9905619916e-06
4.19606672719e-06
2.94983364573e-06
3.73439436115e-06
3.0011948935e-06
3.50944348897e-06
2.90987020257e-06
3.10182575122e-06
3.17539696812e-06
2.59925787081e-06
2.19837894919e-06
2.31254151229e-06
1.44914083362e-06
2.016709956e-06
1.26765228147e-06
1.74837035788e-06
1.16157525764e-06
1.53579164235e-06
1.1167815267e-06
1.34129410483e-06
1.18128828042e-06
1.14308721983e-06
1.23718027096e-06
9.74178036009e-07
1.15612526584e-06
8.03006502123e-07
1.08744705157e-06
6.30385034221e-07
1.05950266047e-06
4.67403258431e-07
1.03765049369e-06
3.50437148941e-07
9.67382948738e-07
2.48772105352e-07
8.20528338381e-07
1.50038821138e-07
7.39290549556e-07
7.07812435135e-08
8.70973330947e-07
8.88419058361e-07
1.12569100617e-07
-1.30648843954e-06
5.45034944738e-07
-1.85219019971e-06
7.08583698325e-07
-2.4366725534e-06
5.25952989162e-07
-1.65820950064e-06
6.58136016847e-07
-9.68712949663e-07
1.30782993663e-06
-1.76038673896e-06
1.66100201535e-06
-2.25285306176e-06
1.84371887555e-06
-2.1776084509e-06
1.93797492359e-06
-1.91554823161e-06
2.11300039247e-06
-1.76224278339e-06
1.94561665258e-06
-1.09245142778e-06
1.80219881704e-06
-4.66021014762e-07
1.94634450061e-06
-4.66429625499e-07
2.18334077238e-06
-5.31903498809e-07
2.65448852228e-06
-8.98040338508e-07
3.23886145161e-06
-1.35742246307e-06
3.42682052078e-06
-1.28627154324e-06
3.43375857898e-06
-1.09722462578e-06
3.72436600964e-06
-1.36303189086e-06
4.05422565539e-06
-1.67068530847e-06
4.27786049609e-06
-1.72941612157e-06
4.46279682677e-06
-1.66193001472e-06
4.63720952741e-06
-1.56670180092e-06
4.74814920938e-06
-1.40547087393e-06
4.79029555961e-06
-1.21653127894e-06
4.86467416674e-06
-1.03702556676e-06
4.87912171286e-06
-9.31215000734e-07
4.96275593888e-06
-8.57055818054e-07
4.95452353635e-06
-6.40444148348e-07
4.89058147008e-06
-3.55527371665e-07
4.9975149232e-06
-4.10016244463e-07
5.1616907715e-06
-4.86116687338e-07
5.44534458426e-06
-6.09935783518e-07
5.898722279e-06
-1.06812486045e-06
6.43353137619e-06
-1.51614684746e-06
6.71959622906e-06
-1.56161879895e-06
6.89274708454e-06
-1.54012117448e-06
7.04342931821e-06
-1.50448098817e-06
7.19902019836e-06
-1.44877526396e-06
7.36255320757e-06
-1.36728946867e-06
7.54109266095e-06
-1.25604396567e-06
7.73011875396e-06
-1.12875760471e-06
7.90972300686e-06
-1.00660715965e-06
8.06793884761e-06
-8.97661467516e-07
8.20462354043e-06
-7.96246582793e-07
8.3232083738e-06
-6.919208988e-07
8.42415496538e-06
-5.72532994509e-07
8.5021244796e-06
-4.23573640491e-07
8.54810434743e-06
-2.31028081643e-07
8.55245331672e-06
1.41397871944e-08
8.50588479602e-06
3.13611069402e-07
8.40124735412e-06
6.60634434003e-07
8.23256270911e-06
1.03898569486e-06
7.98659879449e-06
1.43303883843e-06
7.63263297907e-06
1.8488214682e-06
7.14661794087e-06
2.31992935948e-06
6.53399019276e-06
2.84805031633e-06
5.82548448044e-06
3.34179868772e-06
5.1055212484e-06
3.63461407825e-06
4.54428000564e-06
3.53931460215e-06
4.25570963486e-06
3.22735511754e-06
4.15847986567e-06
3.08908653254e-06
3.83775758602e-06
3.22242780281e-06
3.37385683406e-06
3.63302702998e-06
2.50736428354e-06
3.06082169553e-06
2.16681459278e-06
1.78696550026e-06
1.91226128008e-06
1.51939805384e-06
1.64798225434e-06
1.42315455684e-06
1.39614838193e-06
1.36580973394e-06
1.16833659195e-06
1.40627059153e-06
9.96276410282e-07
1.4065310593e-06
8.41644705482e-07
1.30810034273e-06
6.69061493009e-07
1.25724672509e-06
5.07080078964e-07
1.218600958e-06
3.74747914702e-07
1.16721568418e-06
2.99621431336e-07
1.03999913861e-06
1.9612453922e-07
9.21847000522e-07
1.01212874799e-07
8.32739869637e-07
5.59039263285e-08
9.1254860732e-07
9.439049108e-07
2.22881317132e-07
-1.53283054508e-06
6.50317084427e-07
-2.2795191401e-06
6.66113753013e-07
-2.45346333017e-06
3.62384643789e-07
-1.3549563053e-06
7.87042036512e-07
-1.3950619065e-06
1.37628134381e-06
-2.35263628244e-06
1.57860744428e-06
-2.45620341324e-06
1.7751265395e-06
-2.37542219818e-06
1.68564851243e-06
-1.8236802877e-06
1.68625959216e-06
-1.76272694315e-06
1.50713664006e-06
-9.12762857155e-07
1.73273105236e-06
-6.92625791812e-07
1.9332082363e-06
-6.69096725232e-07
2.29794365922e-06
-8.99357478072e-07
2.84563458965e-06
-1.44920861428e-06
3.09981969272e-06
-1.61452446578e-06
3.09529364297e-06
-1.28395900462e-06
3.37038988742e-06
-1.37500783999e-06
3.74685692958e-06
-1.74275238046e-06
3.99378107721e-06
-1.92061823174e-06
4.1762867364e-06
-1.91471552184e-06
4.34902769938e-06
-1.83738890978e-06
4.54728731863e-06
-1.76673296019e-06
4.72047340026e-06
-1.58050357767e-06
4.7097903611e-06
-1.2074100158e-06
4.80577623334e-06
-1.13448542514e-06
4.81967656334e-06
-9.46755605153e-07
4.71521191132e-06
-7.54244724465e-07
4.69494801878e-06
-6.21907752784e-07
5.02895627948e-06
-6.91459599798e-07
5.19508838962e-06
-5.78674784648e-07
5.18439432602e-06
-4.79334570894e-07
5.62509552993e-06
-1.05552413497e-06
6.20895948068e-06
-1.65755621578e-06
6.47911343607e-06
-1.79147017348e-06
6.67184558192e-06
-1.75912077694e-06
6.83610279688e-06
-1.70898361622e-06
6.9954736306e-06
-1.66843959333e-06
7.16273909435e-06
-1.62077113255e-06
7.33737888538e-06
-1.54689626663e-06
7.51884876933e-06
-1.44273530123e-06
7.70489101139e-06
-1.32018590032e-06
7.88633647967e-06
-1.1935173464e-06
8.05424269947e-06
-1.07104676431e-06
8.20630290228e-06
-9.53804430038e-07
8.34341018198e-06
-8.34549439058e-07
8.46307509178e-06
-6.97767131867e-07
8.55784825039e-06
-5.23981315601e-07
8.61845837005e-06
-2.97345005145e-07
8.6361983756e-06
-9.43947943555e-09
8.60261151864e-06
3.41155400251e-07
8.50844641916e-06
7.48482246299e-07
8.34002986183e-06
1.20082274622e-06
8.07477638707e-06
1.69161061973e-06
7.68481259473e-06
2.23234854357e-06
7.15560323094e-06
2.84248114178e-06
6.49419966316e-06
3.50095585559e-06
5.72261255786e-06
4.10197923527e-06
4.91375326185e-06
4.42937146972e-06
4.41224489039e-06
4.02661470449e-06
4.33335811039e-06
3.29517285217e-06
4.31657570686e-06
3.09756719973e-06
4.17249869667e-06
3.3598452715e-06
4.0228812702e-06
3.77711180839e-06
3.13630306647e-06
3.942586036e-06
2.17502251287e-06
2.74513149141e-06
1.75981421168e-06
1.93204955164e-06
1.45951004482e-06
1.72071044411e-06
1.19730923125e-06
1.62551222451e-06
1.00355908961e-06
1.59754746483e-06
8.65165451771e-07
1.54242807523e-06
7.03381623435e-07
1.46727151007e-06
5.34719443961e-07
1.42317290096e-06
3.91988292945e-07
1.35857726914e-06
2.98095954248e-07
1.25849890947e-06
2.24374990547e-07
1.11138869204e-06
1.36125672515e-07
1.0078901977e-06
4.28620100978e-08
9.23166144824e-07
1.79029474883e-08
9.36827555411e-07
9.5971982088e-07
3.1477219724e-07
-1.84726642736e-06
6.54400693897e-07
-2.61927404733e-06
5.11855077266e-07
-2.30957312681e-06
4.98725894611e-07
-1.34254052834e-06
1.05200771668e-06
-1.94995627035e-06
1.28781503153e-06
-2.59004580382e-06
1.46927965653e-06
-2.63776361969e-06
1.6256624906e-06
-2.5307314554e-06
1.60254581813e-06
-1.80040140993e-06
1.60138302393e-06
-1.76017646975e-06
1.58413034017e-06
-8.96101348675e-07
1.76590614603e-06
-8.75532579589e-07
2.006510872e-06
-9.1233365813e-07
2.46633870314e-06
-1.3627596657e-06
2.96375207988e-06
-1.94869795924e-06
3.01792804113e-06
-1.67045339263e-06
3.08791089778e-06
-1.35611418974e-06
3.39058967766e-06
-1.68064825629e-06
3.6995848753e-06
-2.0547740325e-06
3.91207578968e-06
-2.13599902463e-06
4.07231673986e-06
-2.07789807939e-06
4.18036882332e-06
-1.94704372731e-06
4.26303195816e-06
-1.85084395724e-06
4.33921569902e-06
-1.65760282363e-06
4.40079376555e-06
-1.26985670598e-06
4.45691366738e-06
-1.1920094251e-06
4.60525924727e-06
-1.09640365452e-06
4.77977091136e-06
-9.30510014033e-07
4.93804444267e-06
-7.81548313107e-07
5.01538094938e-06
-7.70758460471e-07
5.18933843e-06
-7.558299757e-07
5.66464447135e-06
-9.59392335855e-07
6.03160181823e-06
-1.42797111476e-06
6.26911230387e-06
-1.90024199406e-06
6.44330081187e-06
-1.97015441399e-06
6.60729387783e-06
-1.92734560113e-06
6.7740553996e-06
-1.87996081914e-06
6.94158959148e-06
-1.84033268135e-06
7.11543725137e-06
-1.79918585117e-06
7.29777644641e-06
-1.73403582013e-06
7.48572277293e-06
-1.63565879625e-06
7.67501357349e-06
-1.51458438902e-06
7.86127837101e-06
-1.38494805424e-06
8.04008237309e-06
-1.25506627169e-06
8.20816245018e-06
-1.12713121597e-06
8.36331838811e-06
-9.95008765828e-07
8.50156035455e-06
-8.41366112854e-07
8.61521202514e-06
-6.4304713577e-07
8.69520841111e-06
-3.82872607759e-07
8.73340906097e-06
-5.32944737202e-08
8.72114175316e-06
3.47515144399e-07
8.64572625281e-06
8.17848837985e-07
8.48621055116e-06
1.35414810745e-06
8.21409336284e-06
1.95815355112e-06
7.80362318983e-06
2.63777762335e-06
7.24572105904e-06
3.39480297696e-06
6.54209317887e-06
4.19507446039e-06
5.68336224424e-06
4.94594797088e-06
4.72703501288e-06
5.36906166973e-06
4.37642983293e-06
4.36225666427e-06
4.52266444093e-06
3.13886799082e-06
4.53357224872e-06
3.07981141722e-06
4.42770191235e-06
3.46034999759e-06
4.28659240243e-06
3.91303626843e-06
3.89684570004e-06
4.32793310892e-06
2.65635418092e-06
3.98187641652e-06
1.59891736986e-06
2.98622752976e-06
1.26698012263e-06
2.05030297214e-06
1.03555139872e-06
1.85448026091e-06
8.6803421335e-07
1.76270759588e-06
7.2601611845e-07
1.68203558732e-06
5.57894617738e-07
1.63280727751e-06
3.98651608569e-07
1.57970068395e-06
2.76205707808e-07
1.47841252962e-06
1.97704878176e-07
1.33457343748e-06
1.17116259179e-07
1.18963566388e-06
4.59401740642e-08
1.07688359074e-06
-2.06177081662e-08
9.88476066646e-07
-2.96686973813e-08
9.42064886554e-07
9.29933766714e-07
3.97673953154e-07
-2.24885721077e-06
6.91574672497e-07
-2.91490710386e-06
4.69718838839e-07
-2.08839821983e-06
6.37322069586e-07
-1.51038295937e-06
1.13856861111e-06
-2.45178603007e-06
1.15475134968e-06
-2.60529298836e-06
1.32721269995e-06
-2.81085852911e-06
1.30707789939e-06
-2.5090815541e-06
1.43332396241e-06
-1.92647836482e-06
1.33901972701e-06
-1.66599658245e-06
1.52699669467e-06
-1.08453309817e-06
1.76351901083e-06
-1.11444516514e-06
2.04389789398e-06
-1.1948764334e-06
2.49128449974e-06
-1.81227573488e-06
2.72771383362e-06
-2.18747853304e-06
2.68860294349e-06
-1.632611922e-06
2.95865241781e-06
-1.6282065706e-06
3.30988151947e-06
-2.03460823165e-06
3.58559510036e-06
-2.33332599378e-06
3.81386581365e-06
-2.36708217529e-06
3.993076796e-06
-2.2584684377e-06
4.15344246465e-06
-2.10916983235e-06
4.18891868109e-06
-1.88708648283e-06
4.18846320627e-06
-1.65772969794e-06
4.37585301349e-06
-1.45831482473e-06
4.38703347227e-06
-1.20409254549e-06
4.29028750926e-06
-1.00075708547e-06
4.29154054187e-06
-9.32816512163e-07
4.52034246971e-06
-1.01210552122e-06
4.86811027524e-06
-1.12095353114e-06
5.17691324527e-06
-1.06822598713e-06
5.49699993447e-06
-1.28433640131e-06
5.99533032354e-06
-1.93191292205e-06
6.2232932905e-06
-2.13268693195e-06
6.37698165189e-06
-2.12774634342e-06
6.53978337529e-06
-2.09396619568e-06
6.71103043134e-06
-2.05517748571e-06
6.88355794763e-06
-2.01700037231e-06
7.05987379867e-06
-1.97984428001e-06
7.24579367976e-06
-1.92447245513e-06
7.43975336905e-06
-1.83429600854e-06
7.63608529194e-06
-1.71568365386e-06
7.83075728745e-06
-1.58445896891e-06
8.02158375235e-06
-1.45077138907e-06
8.2063521996e-06
-1.31685333314e-06
8.38100598502e-06
-1.1746622422e-06
8.53886415356e-06
-1.00427429644e-06
8.67280304236e-06
-7.82105934186e-07
8.77661357326e-06
-4.91872898526e-07
8.84362904485e-06
-1.25705450697e-07
8.86473523831e-06
3.20861634763e-07
8.8236672771e-06
8.53209634461e-07
8.69138713397e-06
1.48094330222e-06
8.42987159934e-06
2.21497086474e-06
8.01131469497e-06
3.0523760488e-06
7.42854416785e-06
3.97138592333e-06
6.67806085095e-06
4.93400225405e-06
5.71047012983e-06
5.89702521168e-06
4.41999711238e-06
6.63572470579e-06
4.67874304515e-06
4.08733116514e-06
4.93706590465e-06
2.87309543626e-06
4.86034721127e-06
3.15170491957e-06
4.66468574149e-06
3.65187472899e-06
4.45660267089e-06
4.11705842327e-06
4.34247171302e-06
4.43745393122e-06
3.70865081348e-06
4.6108041713e-06
2.23696379835e-06
4.45423990327e-06
1.08496189917e-06
3.19927213502e-06
8.60130069995e-07
2.07718700274e-06
7.18355402332e-07
1.9024569231e-06
5.67661709682e-07
1.82995623209e-06
4.05130792366e-07
1.79276312988e-06
2.59800934572e-07
1.72256978802e-06
1.51275653698e-07
1.58460266665e-06
6.50701957081e-08
1.41853854648e-06
-1.38633369304e-08
1.26640359787e-06
-6.3421669958e-08
1.12439326012e-06
-8.2126234858e-08
1.00438626559e-06
-5.82646406324e-08
9.18124766758e-07
8.69729843981e-07
3.92990596484e-07
-2.64054299093e-06
5.953597781e-07
-3.11536237139e-06
4.87294293105e-07
-1.97962362328e-06
8.38389448817e-07
-1.8612607169e-06
9.50263689662e-07
-2.56353600447e-06