/*--------------------------------*- C++ -*----------------------------------*\
| =========                 |                                                 |
| \\      /  F ield         | OpenFOAM: The Open Source CFD Toolbox           |
|  \\    /   O peration     | Version:  v1806                                 |
|   \\  /    A nd           | Web:      www.OpenFOAM.com                      |
|    \\/     M anipulation  |                                                 |
\*---------------------------------------------------------------------------*/
FoamFile
{
    version     2.0;
    format      ascii;
    class       volScalarField;
    location    "446";
    object      pa;
}
// * * * * * * * * * * * * * * * * * * * * * * * * * * * * * * * * * * * * * //

dimensions      [0 2 -2 0 0 0 0];


internalField   nonuniform List<scalar> 
6400
(
-0.122516078143
-0.122517738393
-0.122522386557
-0.122531365133
-0.122544473547
-0.122561620172
-0.122582866545
-0.122609013534
-0.122640486127
-0.122677855612
-0.122724961499
-0.122783951507
-0.122852988532
-0.122932296226
-0.123023463695
-0.123128429294
-0.123248355459
-0.123383289065
-0.123532323401
-0.12369217391
-0.123858723082
-0.124032667851
-0.124219111563
-0.124423850067
-0.124651016982
-0.124900991475
-0.125171462509
-0.125460867429
-0.125769531391
-0.126098671603
-0.126449432361
-0.126820992525
-0.12720866992
-0.127607658682
-0.128016341123
-0.128431964275
-0.128854497139
-0.12929114983
-0.129741207723
-0.130194777116
-0.130653396888
-0.131132539958
-0.131640961219
-0.132170831959
-0.13271194832
-0.1332578922
-0.133803786031
-0.134346430383
-0.134882997407
-0.135411254803
-0.135929930025
-0.136433794783
-0.136913608604
-0.137355774218
-0.137759576585
-0.138135372556
-0.138478651322
-0.138773555636
-0.139013231405
-0.13920843989
-0.139366157105
-0.139489864209
-0.139574670766
-0.13964717396
-0.139747882733
-0.13990579517
-0.140110148359
-0.140316498794
-0.140491195138
-0.140631052764
-0.14074436624
-0.140840714065
-0.140926269663
-0.140999391835
-0.141062254769
-0.14111498545
-0.141157386561
-0.141184534091
-0.141201574955
-0.14120868573
-0.122513696611
-0.122515458326
-0.122519619273
-0.122528394821
-0.122542462439
-0.122560547958
-0.122582067843
-0.122607101885
-0.122637299248
-0.122674571293
-0.122721378693
-0.122779487633
-0.122848555976
-0.122928359692
-0.123019503789
-0.123123306549
-0.123242546719
-0.123377773826
-0.123527659251
-0.123687988743
-0.123852934511
-0.124024994122
-0.124210665381
-0.124414953053
-0.124642112784
-0.124892466586
-0.125162832908
-0.12545236372
-0.125761508055
-0.126090950407
-0.126441283544
-0.12681276498
-0.127201053845
-0.127599686422
-0.128008257669
-0.128423865976
-0.128845745844
-0.129282560737
-0.12973348416
-0.130187097543
-0.130643019065
-0.131121168915
-0.131633555217
-0.132166346277
-0.132708586744
-0.133255835285
-0.133802979473
-0.134347261027
-0.134885177111
-0.13541238302
-0.135927517898
-0.136431654885
-0.136919849313
-0.137365225812
-0.137770949695
-0.138151892727
-0.138492170574
-0.138781197826
-0.13902106478
-0.139215868302
-0.139368358365
-0.139492803907
-0.139582620631
-0.139659142432
-0.139762518746
-0.139920772712
-0.140127704078
-0.140333537808
-0.140506550844
-0.140645534578
-0.140758207349
-0.140854390333
-0.14094038717
-0.141014256396
-0.141075908327
-0.141126432002
-0.141165266342
-0.141191126861
-0.141207403602
-0.141212807559
-0.122507009634
-0.122509914137
-0.122513555284
-0.122521553817
-0.122535109848
-0.122555317157
-0.122578688607
-0.122602801012
-0.122631216422
-0.122667384036
-0.122713456855
-0.122770838091
-0.122839632452
-0.122919466345
-0.123010200103
-0.123111030245
-0.123227908351
-0.123366442606
-0.123518255368
-0.123677372269
-0.123838953926
-0.124006175557
-0.124190099329
-0.124395675881
-0.124622783536
-0.124872059322
-0.125142651108
-0.125432939656
-0.125742579504
-0.126072279868
-0.126422408643
-0.126793815985
-0.127183404669
-0.127580636476
-0.127986807248
-0.128403949275
-0.128825025752
-0.129259491979
-0.12971078721
-0.13016684027
-0.130629050026
-0.131111298841
-0.131621201468
-0.132151856359
-0.132694160225
-0.133242287394
-0.133791604613
-0.134338491867
-0.134879411826
-0.135410970877
-0.135930875833
-0.136436063524
-0.136918411127
-0.137367649833
-0.137785412163
-0.13816851358
-0.138505023428
-0.138791966246
-0.139031176227
-0.139226031315
-0.139382126566
-0.139506131703
-0.139599035769
-0.13968528307
-0.139800081022
-0.139964703494
-0.140164055626
-0.140362924542
-0.140535921573
-0.140676077112
-0.140789850797
-0.140886170837
-0.140968981887
-0.141038645843
-0.141097658114
-0.141145332395
-0.141180297261
-0.141203697127
-0.141218107658
-0.141223205048
-0.122497718607
-0.122500617211
-0.122503505317
-0.122510796169
-0.122522588527
-0.122542417928
-0.122572178201
-0.12259616207
-0.122622230632
-0.122656532147
-0.122701445858
-0.12275813768
-0.122826669299
-0.122905636995
-0.122995459921
-0.12309890961
-0.123218278649
-0.12335420188
-0.12349979724
-0.123649781053
-0.123807067502
-0.123976152057
-0.124161017022
-0.124365886159
-0.124592766015
-0.12484210649
-0.125113101819
-0.1254040338
-0.125714349195
-0.126044252408
-0.126394927534
-0.126766402813
-0.127155827443
-0.127555464075
-0.127957671178
-0.128369808528
-0.128794011734
-0.129227348423
-0.129673949844
-0.130132409584
-0.130602271993
-0.131090244793
-0.131601224725
-0.132131709376
-0.13267488133
-0.133224927586
-0.133777094341
-0.134327436789
-0.134872329277
-0.135408357198
-0.135932327351
-0.13644004183
-0.136924935484
-0.137380314107
-0.137802931769
-0.138186455582
-0.138522552956
-0.138808891902
-0.139047738391
-0.139243375431
-0.139401828154
-0.139529829899
-0.139635239743
-0.139739457567
-0.139861881112
-0.140020003178
-0.140215996253
-0.140413358515
-0.140586293345
-0.140726770893
-0.140838447188
-0.140929039026
-0.141005587201
-0.141073820884
-0.14113224808
-0.141175713349
-0.141205021827
-0.141226531972
-0.141241138063
-0.141247101037
-0.122483244464
-0.122483620383
-0.122487166401
-0.122494500889
-0.122507385496
-0.122525507837
-0.122552135802
-0.122578731029
-0.122606364571
-0.122640725861
-0.12268458112
-0.122740628002
-0.122808960604
-0.122890566176
-0.122984559136
-0.123087721889
-0.123202020653
-0.123328204819
-0.123464850954
-0.123611500771
-0.123768548117
-0.123937342848
-0.124121985032
-0.124326647075
-0.124553220812
-0.124802530455
-0.125073591136
-0.12536519299
-0.125676258073
-0.126007029397
-0.126357729287
-0.126730793307
-0.127123035881
-0.127517997682
-0.127917584388
-0.12832645609
-0.128745633959
-0.129179051479
-0.129627387766
-0.130089517511
-0.130565535296
-0.131058964369
-0.131572643782
-0.132104594489
-0.132649726051
-0.133202651788
-0.1337585605
-0.134313302383
-0.134863148816
-0.135404547198
-0.13593378472
-0.136446273914
-0.136936211266
-0.137397629032
-0.137824809296
-0.138210188099
-0.138547080432
-0.138834126062
-0.139074285841
-0.139272844447
-0.13943669741
-0.139573920223
-0.139695806618
-0.139816366102
-0.139942633028
-0.140098584249
-0.140289950941
-0.140484256692
-0.140656190007
-0.140794724854
-0.140900565607
-0.140984363208
-0.141060065772
-0.141129902992
-0.141184529759
-0.141221939216
-0.141248014485
-0.141270622304
-0.14128380804
-0.141287971507
-0.122456511776
-0.122456234032
-0.122462378815
-0.122469736147
-0.122483558013
-0.122502525381
-0.122527078562
-0.122553872206
-0.122583670513
-0.122618865449
-0.122661189517
-0.122716783622
-0.122789625203
-0.122875386535
-0.122967899946
-0.123066382902
-0.123173335662
-0.123292187439
-0.123424108162
-0.123567809817
-0.123721892497
-0.123889080576
-0.12407329769
-0.124277853633
-0.124504253812
-0.124752780092
-0.125024122016
-0.125316127113
-0.12562837436
-0.125960050247
-0.126312411144
-0.126685359542
-0.127074731933
-0.127472286004
-0.127865902318
-0.128267272728
-0.128684625169
-0.129119381857
-0.129570542366
-0.130036936259
-0.130518638492
-0.13101757253
-0.131535238172
-0.132070226613
-0.132618580927
-0.133175440326
-0.133736065068
-0.134296211657
-0.134852083843
-0.135400020253
-0.135936048267
-0.13645541676
-0.136952440468
-0.137420739183
-0.137853156356
-0.138241944233
-0.138581754598
-0.138872208711
-0.139116889321
-0.13932176578
-0.139494365424
-0.13964391369
-0.139784402885
-0.139915005115
-0.140045352468
-0.14020471132
-0.140395499521
-0.140584450235
-0.14075045933
-0.140881459456
-0.140979501825
-0.141062147753
-0.141141881747
-0.141209117234
-0.141256990089
-0.14128870677
-0.141313894439
-0.141333787311
-0.141343308767
-0.14134697501
-0.122415809003
-0.122418674854
-0.122429067189
-0.122439976851
-0.122451090961
-0.122469935406
-0.122495561546
-0.122522835416
-0.12255401977
-0.122590086212
-0.122634257319
-0.122690347988
-0.122766373398
-0.122850621032
-0.12293916016
-0.123031504018
-0.123133052007
-0.123248766828
-0.12337780302
-0.123516203625
-0.123666408051
-0.123832146389
-0.124015423214
-0.124218963214
-0.124444814488
-0.124694352696
-0.124963843184
-0.125256390303
-0.12557001133
-0.125905224055
-0.126258254502
-0.126628829809
-0.127016526178
-0.127406422736
-0.127796744697
-0.12819518706
-0.128612234436
-0.129048882026
-0.129503313615
-0.129974158554
-0.130461393404
-0.130966054486
-0.131488751229
-0.132028197875
-0.132581103549
-0.133143070229
-0.133709517895
-0.134276228024
-0.134839411223
-0.135395364303
-0.135939969118
-0.136468284274
-0.13697432252
-0.137451025635
-0.137890514188
-0.138285434436
-0.138631611131
-0.138929444315
-0.139182702199
-0.139397204373
-0.139581073312
-0.139745115947
-0.13989815335
-0.140037720985
-0.140183762024
-0.140346976112
-0.14053510331
-0.140713850698
-0.14086728769
-0.140988335685
-0.141084365619
-0.141172796899
-0.141253399526
-0.141313493202
-0.141353500631
-0.141379974278
-0.14140206299
-0.141414729822
-0.141417812582
-0.141419601293
-0.122368192925
-0.122374030754
-0.122385921541
-0.122401744507
-0.122413517573
-0.122432925565
-0.122457296797
-0.122485341695
-0.122518363277
-0.122552137326
-0.122599968826
-0.122661788065
-0.122735313241
-0.12281611345
-0.122899165918
-0.122985513351
-0.123084750745
-0.123199055886
-0.123322888305
-0.123455883931
-0.123602352634
-0.123765964135
-0.123947897868
-0.124151123993
-0.124376895001
-0.124625480315
-0.124896067208
-0.125184313595
-0.125501760459
-0.125842167578
-0.126194008866
-0.12655744755
-0.126940613463
-0.127325062995
-0.127710536049
-0.128110088757
-0.128528725948
-0.128967483557
-0.129425221901
-0.129900639596
-0.130393488912
-0.130904240238
-0.131432911584
-0.131978127268
-0.132536933854
-0.133105291041
-0.133678837484
-0.134253485048
-0.134825528032
-0.135391266869
-0.13594647577
-0.136485954208
-0.13700326247
-0.137490766336
-0.137940440525
-0.138345626987
-0.138703036881
-0.139013001042
-0.139278102155
-0.139503105447
-0.139696963554
-0.139871504829
-0.140035454435
-0.14019428962
-0.140354084749
-0.140525228615
-0.140705196588
-0.140871134455
-0.141011602973
-0.141126730998
-0.141226812357
-0.141320417494
-0.141395994429
-0.141446966795
-0.141477723268
-0.141496854813
-0.141507652243
-0.14150896062
-0.141502290359
-0.141498620204
-0.122316322697
-0.122323955629
-0.122335806208
-0.122348378131
-0.122363743729
-0.122387822826
-0.1224114382
-0.122439556156
-0.122475943882
-0.122511723942
-0.122555970858
-0.122621449354
-0.122694996366
-0.122770821996
-0.122848938366
-0.122933487385
-0.123029743709
-0.123139856858
-0.123258544507
-0.123387390894
-0.123530257527
-0.123690496189
-0.123869327799
-0.124070730142
-0.124299964893
-0.12454585379
-0.124816864979
-0.125109073749
-0.12542327487
-0.125761147808
-0.126114337579
-0.126480616289
-0.12684834369
-0.127224612517
-0.127610760008
-0.128012542191
-0.128433410739
-0.128874578004
-0.129335684259
-0.129815793325
-0.130314497713
-0.130831822874
-0.131367362426
-0.131919587626
-0.132485670857
-0.133061822026
-0.133643943377
-0.134228168156
-0.134810923006
-0.135388540404
-0.135956684217
-0.136509894052
-0.137041312309
-0.137543063701
-0.138007434345
-0.138428551822
-0.13880312421
-0.139129729339
-0.139407772677
-0.139641013781
-0.139841761057
-0.140025971745
-0.140204219746
-0.140380376786
-0.140554067226
-0.14073780296
-0.140916676738
-0.141063547516
-0.141191549489
-0.141305040596
-0.141411668207
-0.141506167216
-0.141574283292
-0.141614854382
-0.141633383008
-0.141637175466
-0.141627964234
-0.141611511277
-0.141592172838
-0.141580447795
-0.122259567088
-0.122268395147
-0.122281939666
-0.122293490543
-0.122309826292
-0.122333607807
-0.122357332952
-0.122384593691
-0.122419154708
-0.122463327362
-0.122508340247
-0.122571944178
-0.122644184456
-0.122715926836
-0.122788694015
-0.122872720182
-0.122968486265
-0.123072662168
-0.12318517579
-0.123309858638
-0.123449865575
-0.123607194492
-0.123782786542
-0.123979044055
-0.124209534706
-0.124459313859
-0.124721393389
-0.125016644438
-0.12533034248
-0.125669144721
-0.126020627524
-0.126380906109
-0.126743872054
-0.127112513311
-0.127497999923
-0.127902085462
-0.12832557028
-0.128769482677
-0.129234081935
-0.12971898037
-0.130223828054
-0.130748308102
-0.13129162584
-0.131852065874
-0.132426837804
-0.133012337665
-0.133604747574
-0.134200487247
-0.134796169061
-0.135388138699
-0.135971978533
-0.136541980579
-0.137091107044
-0.137611653187
-0.138096720514
-0.138540911781
-0.138939218043
-0.139285557976
-0.139574605703
-0.139812645109
-0.140020076743
-0.140217238008
-0.140411831894
-0.14060244622
-0.140789046953
-0.140974705019
-0.141147510368
-0.141296891557
-0.141414156983
-0.141528017768
-0.141640607805
-0.141734587943
-0.141796280205
-0.141825358342
-0.141825906277
-0.141802637365
-0.141764100207
-0.141722297907
-0.14168557921
-0.141664155753
-0.122195633004
-0.122203986707
-0.122218216956
-0.122232118439
-0.122252788596
-0.122272352732
-0.122295238541
-0.122322557868
-0.122350942986
-0.122398080975
-0.122448911708
-0.122511013225
-0.122581403778
-0.122651482346
-0.122721529167
-0.122802636948
-0.122896417078
-0.122995773983
-0.12310273061
-0.123222198373
-0.123358640192
-0.123514068893
-0.123690089001
-0.123881636005
-0.124102515576
-0.12435928233
-0.124623265859
-0.124912880787
-0.125224053927
-0.125551060362
-0.125905531914
-0.126263515496
-0.126620993542
-0.126986779904
-0.127372352161
-0.127778346033
-0.128204482178
-0.128651448834
-0.129119760698
-0.1296095411
-0.130120781583
-0.130653016326
-0.131205050621
-0.131774921373
-0.132359840728
-0.13295639749
-0.133561086464
-0.134170655315
-0.134781887901
-0.135391194934
-0.135994009694
-0.136584520931
-0.137155703594
-0.137700689951
-0.138213857443
-0.138689698954
-0.139117673855
-0.139484397877
-0.139782681519
-0.140025815646
-0.14024454022
-0.140460117257
-0.140672128146
-0.14087271913
-0.141060478384
-0.141236400315
-0.141401164064
-0.141557966025
-0.141675305178
-0.141796926699
-0.141917982529
-0.142016659465
-0.14207587223
-0.142091588696
-0.142064584562
-0.141999818241
-0.141918565971
-0.141841433583
-0.141777626544
-0.141742171206
-0.122122827708
-0.122129173889
-0.122139341389
-0.122157503036
-0.122183393892
-0.12220172878
-0.122224058269
-0.122253158333
-0.122278994101
-0.122321744147
-0.122376360122
-0.122438065257
-0.122505861663
-0.122574932774
-0.122646840587
-0.122725620495
-0.122814920062
-0.122909110421
-0.123011149413
-0.123125058665
-0.12325529972
-0.12340548544
-0.123584826246
-0.123781301902
-0.123991523059
-0.124242391741
-0.124509671516
-0.124789934384
-0.125105601419
-0.125432276891
-0.125773494283
-0.126122473513
-0.126476863442
-0.126845461113
-0.127232621139
-0.127640421365
-0.128069210247
-0.128519532704
-0.128991943695
-0.12948679164
-0.130004571275
-0.130545080382
-0.131106791517
-0.131687333468
-0.132283902071
-0.132893372282
-0.133512634155
-0.134138743206
-0.13476871608
-0.135398923745
-0.13602477577
-0.136640199504
-0.137238563664
-0.137814404467
-0.138364115974
-0.138880581391
-0.139341182559
-0.139731413397
-0.140046568959
-0.140300153677
-0.14053824039
-0.140779085213
-0.141010207303
-0.141215513548
-0.141393260607
-0.141549774479
-0.14169688554
-0.141837750565
-0.141975938234
-0.142106258408
-0.14225588502
-0.142374225254
-0.142440536931
-0.142440264942
-0.142371454434
-0.142238798523
-0.142090090364
-0.141962891385
-0.141853076335
-0.141794622782
-0.122041135744
-0.122045589952
-0.122050137826
-0.122070358496
-0.122095367471
-0.122116854173
-0.12214025793
-0.12217109049
-0.122199341384
-0.12223906402
-0.122293427445
-0.122353656048
-0.122418204361
-0.122483422729
-0.122557503056
-0.122638015471
-0.122723169919
-0.122812298501
-0.122909775405
-0.123018761132
-0.123142135368
-0.123283357409
-0.123457657451
-0.123665246659
-0.123875002682
-0.124110046309
-0.124381286672
-0.124659484342
-0.124960948678
-0.125286719693
-0.125623926534
-0.125967212713
-0.126317759035
-0.126687579898
-0.127076977477
-0.127487061901
-0.127918628186
-0.128372411259
-0.128849381434
-0.12934989866
-0.129874515117
-0.130423590674
-0.130995751091
-0.131588204479
-0.132197977093
-0.132822340639
-0.133458711238
-0.134104564419
-0.134756999829
-0.135412592695
-0.136066465225
-0.136712373608
-0.137343611894
-0.137956609567
-0.138550228582
-0.139115065505
-0.139607455927
-0.140038910494
-0.140395363454
-0.140665289787
-0.140929306277
-0.141202432542
-0.141457849637
-0.141663400964
-0.141810498222
-0.141916148827
-0.142020914063
-0.142133512242
-0.142263360467
-0.142402223986
-0.142618880608
-0.142797743813
-0.142890908502
-0.142879610182
-0.1427554804
-0.142515597702
-0.142263291665
-0.142079251593
-0.141887308497
-0.141792452196
-0.121951404688
-0.121956360781
-0.121963536026
-0.121976659697
-0.121997153338
-0.122020210309
-0.122045032082
-0.122075566236
-0.122108896291
-0.122147073063
-0.122200178524
-0.122258414098
-0.122320035911
-0.122381445718
-0.122452105255
-0.122534153052
-0.122617982901
-0.122703969306
-0.122797443911
-0.122901918878
-0.123019476796
-0.123152006607
-0.123316464042
-0.123526365938
-0.123743823147
-0.123968552169
-0.124235364432
-0.12451562669
-0.124804619936
-0.125121055103
-0.12544879247
-0.125786752895
-0.126140325309
-0.12651242417
-0.126904076653
-0.127316679674
-0.127751535418
-0.128209139749
-0.128690650634
-0.129197287082
-0.12972953248
-0.130287703469
-0.130870842067
-0.131476170243
-0.132100614134
-0.132741877868
-0.133398146352
-0.134067217749
-0.134746558917
-0.135432885296
-0.136121561731
-0.136805448669
-0.137475952624
-0.138129958058
-0.138768388148
-0.139390833438
-0.139910054815
-0.140448826764
-0.140989560091
-0.141260251624
-0.141550166655
-0.141876562858
-0.142162124106
-0.142349752172
-0.142411145175
-0.14247211034
-0.142620051555
-0.14276368054
-0.142898128393
-0.143007856861
-0.143488872115
-0.14380933979
-0.143926851857
-0.143854995555
-0.143598395822
-0.143019965307
-0.142412902076
-0.142182839612
-0.141830370939
-0.141687593495
-0.121851676784
-0.121857182195
-0.121869284942
-0.121875650747
-0.121891337813
-0.121913937137
-0.121939461022
-0.121970677184
-0.122010063238
-0.12204570578
-0.122096581754
-0.122152730063
-0.122211966276
-0.122271263876
-0.122338320791
-0.122418353836
-0.122500267595
-0.122583808069
-0.122673706438
-0.122773566715
-0.122885855591
-0.123011859152
-0.123163824539
-0.12336513696
-0.123594038913
-0.123816789099
-0.124066947105
-0.124353636659
-0.124644143361
-0.12493993717
-0.125256006458
-0.125590162021
-0.125944173441
-0.126318170498
-0.126712325235
-0.127127825127
-0.127566007237
-0.128028042089
-0.12851476794
-0.129027617448
-0.129567971391
-0.130136081808
-0.130730894879
-0.131349775307
-0.131989943103
-0.132649948098
-0.133328768997
-0.134024825147
-0.134735651433
-0.135459201885
-0.136192011662
-0.136926304948
-0.137643959447
-0.13833582067
-0.138996889497
-0.139710660335
-0.140227464703
-0.140968982582
-0.140935996363
-0.140747666013
-0.140569803388
-0.140375958034
-0.140158534248
-0.139931544449
-0.139727776062
-0.139499355348
-0.139207821971
-0.138989451039
-0.138955545885
-0.139079479762
-0.139209351166
-0.139623624432
-0.14019446616
-0.140699401597
-0.140957692422
-0.141213936775
-0.14209864175
-0.142633890273
-0.141619226599
-0.14141876017
-0.121740093283
-0.121744933288
-0.121755225018
-0.121761840539
-0.12177508239
-0.121797292647
-0.12182224059
-0.121851586478
-0.121895668129
-0.121933153554
-0.121981835889
-0.122036251366
-0.122093897769
-0.122152410007
-0.122216684156
-0.122292881376
-0.122371625335
-0.122452467292
-0.122538731562
-0.122633811444
-0.122740354592
-0.122860462368
-0.123002274681
-0.123190441619
-0.123421488544
-0.123651526999
-0.123885266972
-0.124157114464
-0.124450427002
-0.124743691292
-0.125048944436
-0.125376890426
-0.125729327613
-0.126104337645
-0.126500734735
-0.126918937497
-0.12736069828
-0.127827221111
-0.128319802663
-0.128839576766
-0.129388361391
-0.129967056955
-0.130574470472
-0.131207514293
-0.131863728486
-0.132543362018
-0.133247336793
-0.133973811078
-0.134719935941
-0.135486614503
-0.13627747907
-0.137086707989
-0.13786605386
-0.138573421842
-0.139170585358
-0.140234463115
-0.140041429367
-0.139922668457
-0.139960503204
-0.139640407186
-0.1390869191
-0.138319420849
-0.137390251617
-0.136355704046
-0.135305155803
-0.13428984023
-0.13334471241
-0.132579900869
-0.132130723307
-0.132059010897
-0.132294254038
-0.132919358582
-0.133903995629
-0.135086375863
-0.136323316402
-0.137591318007
-0.138560882493
-0.139273121793
-0.140470528792
-0.140757657297
-0.121618250617
-0.121622330738
-0.121632171463
-0.121637904934
-0.121650353081
-0.121671364197
-0.121695139804
-0.121720571335
-0.121762552257
-0.12180531244
-0.121854228616
-0.121907624004
-0.121964518004
-0.122024200866
-0.122085426449
-0.122157399666
-0.122232403465
-0.122310310595
-0.12239263607
-0.122482711206
-0.122583066991
-0.122696300544
-0.122828965852
-0.12300246761
-0.123224429579
-0.12346609612
-0.123695626347
-0.123947850171
-0.12422695663
-0.124515789029
-0.124816134281
-0.125141964079
-0.125493141238
-0.125868566768
-0.126267183471
-0.126688586342
-0.127133890781
-0.127605221126
-0.128103913422
-0.128631336388
-0.129189218086
-0.129778833529
-0.130399540223
-0.131047634182
-0.13171993849
-0.132419388291
-0.133149716048
-0.13390796508
-0.134688843092
-0.135501620847
-0.136368567389
-0.137306796075
-0.138171278127
-0.138952236115
-0.139165979033
-0.139169551476
-0.139074512748
-0.138842787377
-0.138548491372
-0.137976822464
-0.137112362859
-0.135965271366
-0.134599850161
-0.133087907144
-0.131517305576
-0.129960938792
-0.128486647085
-0.127185439881
-0.126169181161
-0.125547197738
-0.125380362884
-0.125680973551
-0.126444138888
-0.127621016317
-0.129175055013
-0.131128756961
-0.133288162808
-0.135341454195
-0.137594964632
-0.140320216602
-0.121487862148
-0.121490773831
-0.121497211986
-0.121503572639
-0.121517751933
-0.121537419087
-0.121560614575
-0.121583298973
-0.121621710997
-0.121665667538
-0.121714012996
-0.12176578201
-0.121820820608
-0.121882588831
-0.121942186334
-0.122009924584
-0.122081139714
-0.122156534293
-0.122234865685
-0.122319777899
-0.122413616451
-0.122519117576
-0.122642421799
-0.122801629073
-0.123009594254
-0.123252670524
-0.123490536316
-0.123729976433
-0.12399055628
-0.124266487907
-0.124560637467
-0.124883095511
-0.125232119515
-0.125607372307
-0.126008253629
-0.126433326641
-0.126883268857
-0.12735979768
-0.127865332732
-0.128400927101
-0.128968438558
-0.12957000162
-0.130205103754
-0.130869262203
-0.131555755896
-0.132269502923
-0.133024551215
-0.133817208963
-0.134627293079
-0.135473964954
-0.136426702171
-0.137609473705
-0.138755329226
-0.138486097374
-0.138205088092
-0.137997637214
-0.137809068435
-0.137369829721
-0.136652620803
-0.13564068504
-0.134367280039
-0.132859164755
-0.131172994967
-0.129371274532
-0.127521911276
-0.125684548974
-0.123918780626
-0.122289915598
-0.120874702721
-0.119777848918
-0.119121793706
-0.118940415757
-0.119246308035
-0.120049211606
-0.121425473996
-0.123532472151
-0.126218274018
-0.128781307828
-0.132484184543
-0.143450188261
-0.121350997952
-0.121352842183
-0.121355339635
-0.121362783764
-0.121378082905
-0.121396049752
-0.121418076425
-0.121440371747
-0.121473620019
-0.121515950767
-0.121562152923
-0.121611162531
-0.121662395833
-0.121722003689
-0.121783244381
-0.121848068425
-0.121915490889
-0.121988111213
-0.122063484691
-0.122143738236
-0.122231203537
-0.122328105545
-0.122441671441
-0.12258663196
-0.122776436111
-0.123007079433
-0.123251296046
-0.123488112689
-0.123735523109
-0.12399962718
-0.124283122373
-0.124598984194
-0.124945373856
-0.125318185328
-0.125721000165
-0.126150149844
-0.126604627267
-0.127087443535
-0.127600981734
-0.128146541248
-0.128724954913
-0.129338544217
-0.129987806884
-0.130669326755
-0.131376598799
-0.132111939781
-0.132884837488
-0.133682197696
-0.134489557084
-0.135330768221
-0.136324096325
-0.138217287576
-0.137839855307
-0.137434642047
-0.137036703332
-0.136722073103
-0.136171836022
-0.13530028548
-0.134109523268
-0.132627647951
-0.130909414624
-0.128990833877
-0.126912544084
-0.124715363242
-0.122444447469
-0.120146106138
-0.117874217185
-0.115689963718
-0.113664792201
-0.111898862426
-0.110521187063
-0.109602797506
-0.109119503573
-0.109070920185
-0.109579389292
-0.110964457513
-0.113238455098
-0.115132050914
-0.116041804871
-0.12087842301
-0.12120868441
-0.121209979688
-0.12121076537
-0.121219409291
-0.121233195268
-0.121248162156
-0.121266474537
-0.121289090178
-0.121316827983
-0.121356010637
-0.12139923637
-0.121444951585
-0.121492346079
-0.121546479083
-0.121608047917
-0.12167118482
-0.121735197021
-0.121803752622
-0.121875983703
-0.121952435328
-0.122034459931
-0.122122458451
-0.122225615685
-0.122356615696
-0.122527576035
-0.122739779829
-0.12297623002
-0.123212461121
-0.123448939645
-0.123701860519
-0.123979099582
-0.124284442073
-0.124624700756
-0.124996020144
-0.12540122557
-0.125834957634
-0.126294672962
-0.126784443796
-0.1273068925
-0.127863705545
-0.128455403511
-0.129083466068
-0.129751125605
-0.130458070564
-0.131195445392
-0.131951313413
-0.132729159586
-0.133518116002
-0.134285769063
-0.134936411929
-0.13538813833
-0.136609187976
-0.13628718893
-0.135690907225
-0.135530220684
-0.134924918414
-0.133930649889
-0.132557903228
-0.13086730267
-0.128901639977
-0.12670379972
-0.124300561213
-0.12171634766
-0.118977185747
-0.116116252498
-0.113174292934
-0.110201713479
-0.107254847264
-0.104393872086
-0.101693492265
-0.0992522803987
-0.0971391810711
-0.0952467129068
-0.0934414217712
-0.0917634968521
-0.0906490285589
-0.0901476732826
-0.0866424289526
-0.0721173317396
-0.0543317944151
-0.121059828785
-0.121060831341
-0.121061227159
-0.121071229631
-0.121082892066
-0.121094311626
-0.121107775884
-0.12112930441
-0.121150311685
-0.121185422576
-0.121225376166
-0.121267501993
-0.121311280723
-0.121360813307
-0.121419165301
-0.121479954455
-0.121540778733
-0.121604744111
-0.121671968923
-0.121744093618
-0.12182130521
-0.121900689212
-0.121992266069
-0.122109349781
-0.122261811213
-0.12245326523
-0.122675800471
-0.122907003948
-0.123142562513
-0.123381525628
-0.123648260771
-0.123944950018
-0.124275264245
-0.124636791847
-0.125039402339
-0.125480650019
-0.125948518675
-0.12644736732
-0.126979575585
-0.12754842723
-0.128155999118
-0.128803538692
-0.129497382309
-0.130237063312
-0.131000529097
-0.13177436864
-0.132571899814
-0.133399721651
-0.134213608552
-0.134841441934
-0.134510189011
-0.133800309222
-0.133562773478
-0.133709880496
-0.133429623153
-0.132446374501
-0.130990337557
-0.129107601891
-0.126897479634
-0.124409389157
-0.121678315272
-0.11872381517
-0.115563623347
-0.112220209555
-0.108723964758
-0.105112367432
-0.101427766255
-0.0977114563579
-0.0939972499085
-0.09031285195
-0.0866893778145
-0.0831297716802
-0.079436857559
-0.0752481389972
-0.0704311382918
-0.0653363360563
-0.0594730818352
-0.0461706434533
-0.00965536716116
0.0443573093041
-0.120901470023
-0.120902135114
-0.12090319339
-0.120914645537
-0.120924307388
-0.120932388161
-0.120942302703
-0.120960416126
-0.120974253765
-0.121004311527
-0.121040447121
-0.121078484511
-0.121118197169
-0.12116279424
-0.121216262249
-0.12127363835
-0.121331763085
-0.121390542013
-0.121451242127
-0.121517563151
-0.121589434789
-0.121660795388
-0.121739263164
-0.121842027421
-0.121976635983
-0.122145932589
-0.122349187859
-0.122565431597
-0.122798508483
-0.123034461086
-0.12328731111
-0.123567967208
-0.123889643194
-0.124248831366
-0.124641261043
-0.125081042309
-0.125558039068
-0.126068025365
-0.12661421564
-0.127197759311
-0.12782276069
-0.128497006358
-0.129227895704
-0.130001234864
-0.130783706885
-0.131575341647
-0.132431407108
-0.133398773959
-0.134652815226
-0.133644843442
-0.132465573232
-0.131604463151
-0.131604517373
-0.131600821217
-0.130836600472
-0.129375191285
-0.127396447989
-0.124978094934
-0.122226584981
-0.119193642221
-0.115916572024
-0.112419286365
-0.108724924374
-0.104860439411
-0.100856239216
-0.096742439279
-0.0925432043094
-0.0882695177661
-0.083911265697
-0.0794290663489
-0.0747455444628
-0.0697283955581
-0.0641423774064
-0.0574895593383
-0.0494932439538
-0.0402814641118
-0.0282054579952
-0.00393949000322
0.0493304197725
0.117770965998
-0.120729431245
-0.120729752726
-0.120731433054
-0.120744031287
-0.120751251447
-0.120757648514
-0.120764805218
-0.120777798214
-0.12078626297
-0.120812074743
-0.120844047905
-0.120877420913
-0.120912416013
-0.120951240738
-0.120998301834
-0.121050289029
-0.121105882359
-0.121158986588
-0.121212539997
-0.121271619378
-0.121335942809
-0.121400591148
-0.12146556052
-0.121552144921
-0.121669453159
-0.121816812275
-0.121997646673
-0.122193328784
-0.122410103452
-0.122645679287
-0.122894899681
-0.123161125502
-0.123459802138
-0.123808884502
-0.124202217743
-0.124638408372
-0.125119802178
-0.12564014031
-0.126201034421
-0.126804233663
-0.127454538327
-0.128165609292
-0.12893897473
-0.12974099447
-0.130542786719
-0.131356518148
-0.132278816756
-0.133484259992
-0.132821945649
-0.131869728556
-0.130920085978
-0.130257637386
-0.129990180286
-0.129305624829
-0.127871720435
-0.125805961815
-0.123236719005
-0.120258202316
-0.116967912869
-0.113420097174
-0.10965848234
-0.105715263024
-0.1016191445
-0.0973954506426
-0.0930627005107
-0.0886271497363
-0.0840765613658
-0.079375123604
-0.0744595824435
-0.0692291892313