/*--------------------------------*- C++ -*----------------------------------*\
| =========                 |                                                 |
| \\      /  F ield         | OpenFOAM: The Open Source CFD Toolbox           |
|  \\    /   O peration     | Version:  v1806                                 |
|   \\  /    A nd           | Web:      www.OpenFOAM.com                      |
|    \\/     M anipulation  |                                                 |
\*---------------------------------------------------------------------------*/
FoamFile
{
    version     2.0;
    format      ascii;
    class       volScalarField;
    location    "285";
    object      alpha;
}
// * * * * * * * * * * * * * * * * * * * * * * * * * * * * * * * * * * * * * //

dimensions      [0 0 -1 0 0 0 0];


internalField   nonuniform List<scalar> 
6400
(
0.841133193486
1.27659132815
1.96883545405
2.29676264597
2.62238061986
2.98279189732
3.56421359759
4.24181141894
4.41155124908
4.78009686361
5.90468592279
6.45383863161
6.86938450573
7.41307745752
8.20959027305
9.03008295719
9.6569724177
10.2577389766
10.7875900172
11.0203552683
10.9580085574
10.9331273859
11.1918391803
11.7841915836
12.4745484423
13.0568901416
13.4488787216
13.7924986699
14.2201790093
14.7436117847
15.3095294314
15.6585015537
15.7249942224
15.6796229041
15.5351157897
15.196704947
15.0463698451
15.3019202246
15.088602284
14.5490409263
14.4572581763
14.9882716211
15.5632929844
15.8377919413
15.8967902468
15.8045630876
15.6374223323
15.4594945889
15.2780285962
15.1045501649
14.7865454429
13.9411956104
13.0163067417
11.9573771704
11.3376994452
11.3817906915
10.93762223
9.43088998657
7.7077292503
6.91201198758
5.88968387336
4.79429633028
3.68984413804
5.34765895417
9.44631512602
14.4173302855
17.4344199716
17.1657881998
15.1823870646
13.5167150026
12.5753525925
12.6654475846
13.0944598372
12.9073068764
14.826891474
14.2283623214
16.0268679257
9.93248347318
12.8808831782
4.81945915969
3.0915512587
2.40735144485
2.95178812863
4.15188480031
3.84674869135
3.4849893767
3.51751459211
3.80913434779
4.26351491175
4.8640178583
5.62800055297
6.38951989376
7.03787893909
7.65635187681
8.27369547348
8.99816773766
9.75574799084
10.5184156818
11.5549154957
11.5739518078
11.2415592032
11.1237654964
11.2659984402
11.8000358599
12.738038608
13.20063292
13.5341401224
13.9478755909
14.4094820913
14.8956147117
15.4044993127
15.9373894294
16.0078558571
15.9794215879
15.9162381916
15.3691446141
15.3452239866
15.6123237901
15.2620453265
14.4228118078
14.2648397086
16.2505700729
17.5458553669
17.6606045281
17.6089816296
17.2893422304
16.813504313
16.4108393676
15.8093323223
15.2749117623
15.1239834947
15.4808024684
15.0768033413
12.1805621973
11.8225890294
11.3163693881
9.57298301147
8.15877212296
6.95332455739
5.78565050906
4.83476217265
5.18623798713
3.97178831192
5.57898477439
9.51289473362
15.3492861025
19.0960264696
17.9240226972
15.7740084992
13.8349768485
13.051594887
13.3562454482
14.3280460123
13.7058816507
13.4893298329
12.9110608717
11.6641647471
9.79199802534
8.20849457155
4.29687837608
3.07141904213
2.61755675953
3.10679540534
3.21525734649
3.51176332039
3.82732005158
3.75167472628
3.7491070797
4.18780601917
4.8478637911
5.6049566464
6.38571611576
7.08788809546
7.71987043032
8.19887124425
8.84592960755
11.9283816747
14.043726523
14.278562599
13.2904331574
11.0879949722
10.6167994678
11.4631562994
12.0597202201
12.5544456185
13.15269832
13.6673627608
14.0866125078
14.5259049914
15.0327849948
15.4772915254
16.1763685439
16.2938789021
15.8308835588
16.4572492725
15.9314803957
15.191287227
15.9331440074
15.5458543933
14.6785153163
14.506794533
15.0833355995
15.6996277553
15.9993686807
16.0818507615
16.0333868745
15.8898329015
15.6719955266
15.3808893647
15.0425506948
14.6615492257
14.1410201721
13.3843167486
12.7981829428
12.366833148
10.9625689006
9.48344273047
8.22206604343
7.08711001123
6.07610750278
5.30806447615
4.5844894186
4.15536363441
6.43573887612
11.5378544925
16.2186005514
18.5366739216
18.6733577805
17.0855037191
15.3846435978
14.6288811064
14.4620050412
13.761756382
13.124144679
13.0277627535
12.6128614705
11.5727358888
9.92204539101
7.49039842577
7.64905872473
2.88563746801
5.33899774201
3.24190757719
3.22286818605
3.85242875932
11.7151848104
10.0347286207
4.52366960312
4.20032382611
4.87185893137
5.62928567916
6.41749979655
7.09673885867
7.81150173484
9.75845657798
12.0499651116
13.6944448075
13.8331189606
12.1142880536
10.5555918568
10.5967043212
10.8906367996
11.3104165075
11.9468463933
12.6485189052
13.3114108121
13.8767661866
14.250252752
14.7577906232
15.116248429
15.8654035499
16.1169053493
16.8219829596
16.4987318041
15.6323237273
16.144303404
15.527662662
14.872880167
14.7927346977
14.7664203717
14.8715786447
15.2619764383
15.7164744427
16.0095375211
16.1292156074
16.1146009089
15.9961388383
15.7952895133
15.5219773792
15.1874603509
14.7863346225
14.2842454205
13.6656576308
12.9905603961
12.1463026503
10.9679461062
9.63625082319
8.40757365639
7.35440906047
6.49707990721
5.85618200191
5.40644728322
5.46021331567
7.16049525469
10.7965918107
16.5262135848
20.1131455875
20.3288240097
18.6716420707
16.3241604052
14.6936220179
13.8554070219
13.9551986854
15.2514783807
15.1211522103
13.7467600957
13.5438358924
16.7683149778
13.1989359625
11.2398406885
5.32311479572
7.3343755984
3.74360668939
4.06346303401
6.19716748561
11.595381016
7.74791694038
4.71197950066
4.69173206564
5.09460737004
5.78230306219
6.59971512195
8.0611360723
10.6681613731
11.6372377743
11.8153435842
11.4222696324
10.6215836569
10.2131500019
10.6188655304
10.7430931303
10.8684496192
11.3773085254
12.0547203767
12.7967180183
13.5195892839
14.0103175657
14.6385527684
14.8716005791
15.6728388675
15.8461638559
17.2628093377
16.6734670509
15.8391587056
16.0192675796
15.1613935384
14.878314998
14.8347879172
14.8866942354
14.9695462113
15.1235907681
15.4248453894
15.7825813155
16.0562894346
16.1969388094
16.2091666522
16.1138797935
15.932609969
15.6799412887
15.3626042031
14.9733251567
14.495297036
13.9181891793
13.2241999786
12.3147350922
11.1407189611
9.87488598834
8.73473754873
7.81721355419
7.14040001536
6.70269627895
6.5518283061
6.97399347973
7.91045411966
10.7329280035
15.9709216096
20.1626514367
21.5736309166
20.3970470807
17.6398339602
15.1687809235
14.798287034
16.9343991563
17.7335901084
16.6427306084
15.6752900479
18.2473337453
21.2117868254
16.5702400165
15.6913895047
9.66313614124
8.78100446601
4.64009415047
5.40870327236
11.8548238204
11.2738700883
5.65993661506
5.18269579496
5.24633452439
5.42606945489
6.09222574101
9.02755539093
12.5043612197
12.80289205
12.2261678657
10.8144706672
9.83038614162
9.71481469176
10.5845520415
10.6301293048
10.5317376186
10.910378655
11.5272910295
12.2730078091
12.9104585633
13.6578747061
14.6267405193
14.7029681241
15.7885221547
15.6266310837
17.4701720974
16.8394143696
17.9123860389
16.3765236356
14.9837354916
14.6592990758
14.7516055904
14.9022482212
15.0401599913
15.1701637523
15.3457942404
15.6056585618
15.9040010082
16.1548448028
16.3024041658
16.333478488
16.2584376729
16.0988761609
15.8730877654
15.5860907191
15.2285276194
14.7829717356
14.2241730983
13.5052640124
12.5645847208
11.4295075583
10.271369277
9.26461926931
8.48149239731
7.95847208534
7.70340910249
7.91578787827
9.05997071577
8.42193920456
12.1434503019
17.6465419431
21.3539778575
22.7716042161
21.8399365962
18.5009423947
16.33905427
18.058752823
20.1822506769
19.6114173961
18.5622627603
18.5884867709
23.0461780568
24.5877966139
19.6341190222
19.4319491164
11.7285278729
8.38140077732
5.64708825166
5.34052161896
11.7233204322
7.74188494165
5.60012454415
5.68079130251
5.7538889034
6.43510969648
6.77161484029
12.4469200844
12.9387443239
12.838961698
11.0707171523
9.40257967092
9.21979940405
10.6134840391
10.6256212533
10.2054231339
10.5380674865
11.0218694719
11.637175595
12.3794132547
13.3386185228
14.3175142774
14.5958227212
16.108278862
15.7113180251
17.7625466275
16.9324449463
18.1756259208
16.9704019567
16.0402691847
14.5913548244
14.4871367235
14.7713066778
15.0277552467
15.2051965562
15.3627697332
15.5565371447
15.7997993736
16.0649551121
16.2967769088
16.4453103012
16.4887521964
16.4326652945
16.2996952769
16.1096547525
15.8647333264
15.5500795677
15.1394452399
14.5937774291
13.8653559045
12.9346354137
11.8758461229
10.8480629101
9.9783480641
9.30090714488
8.82318481234
8.679303613
8.97443062825
9.19448084249
9.66764448155
13.2831674528
20.0229398882
22.6251983745
23.0609662266
22.0119252489
19.7744082446
19.539308506
22.0330999463
22.4252983457
21.5331191393
20.8957277471
22.7754115855
25.4326049687
26.8371488642
22.2926961325
21.159838356
11.3176922667
7.72785045836
6.69333225234
11.7326989696
11.6991288746
6.26703230201
6.15340120238
6.24019365048
6.4198141645
6.93795575606
12.2674100334
13.1351971101
13.0388711852
12.3419425197
9.52573264018
8.74925783523
10.4589326291
10.8391834078
10.0978858762
10.0407213061
10.5909709984
11.2543138793
11.8697544277
12.6939061872
13.4030434105
14.8159286358
14.7279393795
16.0410560436
17.6725739045
17.807139271
16.4257219129
17.3601823326
17.2310030789
14.9223365166
14.4879232023
14.5971471502
14.8780551464
15.1595273012
15.3721006999
15.5559872544
15.765973056
16.0088511866
16.2586099391
16.476480092
16.6229172415
16.675600001
16.6399590951
16.5400617485
16.3950141436
16.2021761328
15.9390686991
15.5687635534
15.0442993809
14.3312112777
13.4495703864
12.4973592912
11.5991892981
10.8076383961
10.0990712592
9.55238655598
9.44328569894
9.79194320839
10.3766976177
11.2785833992
12.1829262515
19.9561355017
24.2289637813
24.3893541663
23.8514572874
22.9781691884
23.8605809503
25.1908344339
24.4630366341
23.7165913513
23.8527168772
26.0612301615
26.6536398802
27.1758681461
24.30706067
22.1803612968
10.4073720182
7.36318447559
7.33259647471
12.6374683417
10.3681304985
6.609749131
6.75037314594
6.94919634039
8.51392663918
6.9056826458
13.0407133172
13.5679778096
13.0227650695
10.7921871098
8.84919662674
8.87162733774
10.5843922364
10.4113284275
9.90708419109
10.0690384835
10.5774716887
11.3788830631
12.1400064342
13.5088603923
14.7195874605
14.6590458237
16.9540948711
15.6913537971
18.0015522577
16.6387783786
18.3270358703
16.224644383
15.3274446665
14.7313757548
14.6142251461
14.7639596868
15.0153685225
15.2953790479
15.5402375923
15.7576983153
15.9859747491
16.2337520477
16.4794379088
16.6899305264
16.8331341629
16.8943915058
16.8834917482
16.8242740955
16.7325434778
16.6006417163
16.3980517945
16.0777920201
15.5907130688
14.9217724187
14.122205007
13.2889612734
12.4791107078
11.6349352587
10.6985425038
9.98382579453
10.0634150555
10.9470996703
12.0462750424
12.9900437645
13.7191201997
16.5468989476
24.3152922009
26.0519443517
26.2116462825
26.9808000221
28.0986519995
27.7413696178
26.6677614915
26.3712215898
27.2327853888
28.2908474758
28.0442447602
27.3747210155
26.3325929456
24.9521507176
9.59888121763
7.5598591784
8.52294684138
12.6323932349
7.85232344797
7.61771916101
7.34790415179
7.59581033853
11.2537061172
9.77532554373
13.8681971091
13.7666879825
13.0002937813
9.79704733212
8.74211428102
10.6218995042
10.8538231036
10.0630388873
9.84826654471
10.2512436498
10.7024412395
11.4450360392
12.0568735367
13.6928369393
16.0902515151
14.4981139851
16.850779997
17.9797470002
18.2473836169
18.5673678503
16.9562913336
16.7939282453
14.8173276737
14.5759435384
14.7521415705
14.9419378057
15.1696295161
15.4373572204
15.7060378455
15.9635148731
16.2205811324
16.4795067408
16.7259156026
16.9337774633
17.0766543676
17.1471963951
17.1644098186
17.153664129
17.1240356301
17.0612751084
16.9286894189
16.67166429
16.2426442129
15.6474737358
14.9557807419
14.2294705333
13.3967180668
12.2398216542
10.87325105
10.1982288508
10.9625476956
12.6020807499
14.0815282934
15.1817591497
15.9380395958
15.8158215489
16.7860432102
27.8443436251
30.7238084639
31.9174406358
31.8631754886
30.430345186
29.4080943374
29.5220167869
30.474887933
30.6391481781
30.2698779059
29.8992391308
30.1917313647
30.3515363308
9.2621903703
8.21008526045
12.195848846
12.5848638159
7.59942656704
8.30546616172
7.91742678544
8.61588246498
10.4659445341
13.5172761822
14.5735633707
13.9201709383
13.100657192
9.54333169508
8.82648262878
11.2165864395
10.864075847
9.9553927867
9.86021649648
10.4025676979
11.1557978215
11.7817520123
12.2500078384
13.2494071644
16.2307914275
17.3722916135
16.129667517
18.1455311144
16.3837590095
18.6137354343
18.6247652503
16.6315152106
14.6881650617
14.6662811827
14.9240010156
15.1300723292
15.3450343519
15.5983581784
15.8732899474
16.168494058
16.4673456141
16.7468676972
16.9986088179
17.2071972368
17.3526543199
17.4364610301
17.4863889279
17.5288874357
17.5671509598
17.5807905493
17.5280169506
17.3492358587
17.002975237
16.5142804428
15.9469999838
15.2596806084
14.1138607842
12.2777778247
10.7601499262
10.7749518692
12.683731266
15.0490528343
16.7742535985
17.9395702185
18.4831017482
18.2420113006
17.500070592
19.1118238947
32.4287736946
37.6872755981
36.4637462897
34.0523133356
33.0395798097
33.2306787909
33.7186801718
33.8018030473
33.935124144
34.3573840416
34.9149439366
35.5673661458
9.32777741209
8.94392498187
13.757361922
13.047910163
10.8335199725
9.43643688246
8.67825042489
10.1420810192
9.62782192792
14.4466468715
15.08422824
14.1278193994
12.9760584187
9.93478286157
9.59403429352
11.724175105
10.7811497365
9.96267007133
9.96788343686
10.4416003349
11.3464855126
12.2245480001
14.1197618629
13.3951187671
15.6234600597
17.7617096844
15.8076992241
18.4612733289
18.9857610179
17.2725932644
17.231090504
15.2873120834
15.01116627
14.9896714741
15.1463759779
15.3458586158
15.5529844028
15.7933015459
16.0515120698
16.3601727727
16.7128676895
17.0397105691
17.3032081467
17.5107770019
17.661894389
17.7648579908
17.8521236524
17.9498439966
18.0572357486
18.1500544407
18.182338542
18.0974641928
17.868853918
17.5228925481
17.0587863588
16.1600652659
14.1839232514
11.8380390757
10.8999436169
12.2460405908
15.5727370098
18.394525682
20.2287673208
21.6069631896
22.156681412
21.7234924038
20.665260291
19.2234727739
28.722605742
38.8741396821
41.6950224299
38.9345873065
37.845312927
37.7986544806
37.9735096813
37.9589624341
38.6739821206
39.4055125719
39.3522926007
39.578371336
9.73642373481
9.49437159876
13.3605260313
13.3582043166
13.3013302042
10.3698241152
9.57436748146
13.2186393981
9.73659454309
15.2860186969
15.4692745213
14.3507618541
12.8710208315
10.3702708836
12.7338924365
12.8216884689
10.8351945085
10.1078207723
10.206447826
10.5975412868
11.3115632361
12.1723699819
15.6362721186
16.623526376
14.8897835785
17.8613339469
18.6374443478
17.8894621374
18.9578304429
18.9673598852
17.764056478
15.2398690786
15.1986483547
15.3094639868
15.4179812482
15.5811402574
15.7623116811
16.0171559887
16.2920557054
16.577006992
16.9429630841
17.3294446327
17.6368453295
17.8522594625
18.0083316204
18.1349772093
18.2642503341
18.4161600355
18.586462543
18.749733906
18.8632468935
18.8899745019
18.824055139
18.6441151517
18.1559990955
16.5393651022
13.4646207038
11.2242469002
11.7086789309
15.2842452954
19.8493247811
22.7275441789
24.5547627784
26.4762635438
26.5636518746
25.3066729537
23.6160769751
21.6277466986
25.2847341163
36.3156894495
43.4750640663
44.6670243953
42.548238994
42.3605676846
42.2941845993
42.7366132341
43.8269012509
44.5556538541
44.6448666317
44.9319553035
10.2026505904
10.0632164089
9.77109195635
13.577478072
13.6892163722
10.9213855275
10.3987742754
14.0571350966
10.1752659668
16.1219655666
15.7976028365
14.5820883783
12.8930115274
10.5469673885
13.9305236149
13.1847200105
11.0831992315
10.4112421015
10.5183860437
10.9292868301
11.4022393507
12.0845231209
16.2433178929
17.6327418068
15.1472528832
17.9715771023
19.1668617763
16.948714709
18.5736267165
18.2826570281
15.7709288314
15.5955281443
15.6298805389
15.6630676744
15.7089122738
15.875976742
16.039482148
16.2216282974
16.5222882639
16.8529476436
17.2120865954
17.6182390286
17.9755156144
18.2245601427
18.3981482821
18.5531936303
18.7252969631
18.9221828534
19.1414480113
19.3563811167
19.5234421191
19.6782431918
19.8295485652
19.827897607
18.985241053
15.7729544199
11.970259211
11.4392867976
15.1646157715
21.3038239539
26.1887675675
27.1390492592
25.2090458186
22.9088670805
19.5704325353
17.5338561855
17.215494555
16.917509772
15.5803284248
16.9588191352
42.33804036
46.4795485267
47.161182753
44.2994104349
43.9513730862
46.9485378467
48.9236679216
49.9088041097
51.1800180748
52.0004817619
10.8381829784
10.8998555331
14.1581223116
14.0789111431
13.968508065
11.3657341284
11.3443149407
14.7088576181
11.036918375
16.8139541018
16.0891834485
14.8202638083
12.9760574837
10.8309247395
14.113197355
13.1536396161
11.3373431081
10.7577387893
10.8364338547
11.1980811333
11.6412032237
12.1703023584
15.422296243
18.4152232292
18.5034683379
17.0722624394
19.352779991
19.9591976144
16.6412685958
15.8635617868
15.6274458824
15.7771628539
15.903061922
15.9759367628
16.0675244047
16.1712329581
16.3259828486
16.527210105
16.757042769
17.1154271906
17.5223663842
17.9423292863
18.3248424944
18.6132058276
18.8292000128
19.0220811538
19.2331283309
19.479850309
19.7302898621
19.9263256958
20.0937238959
20.3828328325
20.7855775159
20.868653583
18.8719156196
13.6456651246
11.9829608273
15.0079699388
20.2225409484
24.6749828014
23.7127624209
10.1579022573
0.0338686509314
5.86259937175e-07
4.58574262251e-07
1.11331285773e-06
7.50460888122e-06
3.51511690121e-05
0.000129848593794
0.000825167521446
0.00064608774905
0.056051624944
26.461253791
49.8356008642
48.7561173702
48.4772093843
52.6609184945
56.326267169
59.0145653974
59.73125592
11.408485736
11.5894558364
15.6879652553
14.5400571857
13.7885825892
11.8370510889
12.2879451615
15.1886276814
15.1824263782
17.6365318846
16.4099924651
15.1259780118
13.1033255149
11.2664469539
14.3004930296
13.0785799794
11.6065146469
11.1178837341
11.138995865
11.4312586596
11.8621643344
12.4681102033
14.6962480228
18.6527870568
19.9063789514
16.3927193539
18.9101948313
19.8613150992
19.1548128083
16.5193925172
15.7626287424
15.9799874617
16.2212516724
16.3794649529
16.3595453636
16.4831448543
16.6058977035
16.8202939235
17.0590728268
17.3946344218
17.8408844898
18.3036756642
18.6936440627
18.995762445
19.2730137973
19.5845215176
19.8923646627
20.1601880783
20.3046347414
20.4058313625
20.5821665316
20.9128624411
21.5752054787
21.5126900669
16.3213312158
11.6020872853
11.5090377192
10.234258433
0.763236437954
0.0111113234628
9.02771550892e-06
1.50636084666e-08
1.06184067399e-09
0
0
0
0
0
0
0
0
1.47683929643e-13
4.981073206e-11
7.45062380738e-09
4.32261333342e-06
0.0060376299845
48.7614770519
62.6122112504
55.9819171164
64.1386599917
11.8580365505
12.0643861272
17.9421518446
14.8443841669
13.2816763992
12.2645349816
12.9370105856
14.9860104561
16.7436983791
18.5879323277
16.869296257
15.5430919639
13.4541182586
12.0241168223
14.6986683619
13.1721693366
11.9732982531
11.5393302134
11.4812589438
11.6978924306
12.065630712
12.6376090178
14.3728753063
18.5061086995
20.8709712078
19.8803544969
18.2269157084
19.1741921076
18.6144609163
16.0117672596
16.2218887706
16.4948292366
16.8200085141
16.8365967917
16.8291054347
16.8025082455
16.9600707235
17.1181128038
17.3786589933
17.7158443385
18.1517587528
18.6603885295
19.1540736373
19.4836601686
19.8129181174
20.2465724833
20.6788800869
20.9474577278
20.9995427565
21.0309176711
21.142584736
21.3272482001
21.4309634938
20.3360992682
12.7259303995
4.99041255993
0.00309455237634
0.000125130917461
1.70612239103e-06
4.67865127104e-09
0
0
0
0
0
0
0
0
0
0
0
0
0
1.90290726476e-12
1.89095220514e-11
4.14537694407e-10
2.01003595779e-08
0.000111621909026
77.4949391729
1.51529436831
12.1953515344
12.3879688307
20.0844541787
15.0388941123
13.098242158
12.6744254317
13.722051119
13.9266344873
17.6932082902
19.2547285737
17.3225142846
15.9759565029
14.0235735137
14.1155495147
15.2526298577
13.5208368426
12.5506099158
12.1803388448
11.9323432363
12.0550516167
12.3246134567
12.8289569697
14.2800584103
18.3684393183
21.2449142899
21.5492717634
17.3379412531
17.5481391982
16.5483264943
16.1056105221
16.4378035256
17.0147204767
17.3035951298
17.3019617921
17.2884342872
17.4388122481
17.3524967426
17.4841109456
17.7112841502
18.0180451634
18.5449788504
19.1091029459
19.6241333546
19.9073609768
20.3104224663
21.9865158557
24.3402382201
25.0362228501
23.3883248678
23.0369406786
23.0437974473
23.0935651998
22.3421236336
19.7980625448
15.1057084849
3.37607664894e-10
3.41156727735e-07
5.56673762777e-09
0
0
0
0
0
0
0
0
0
0
0
0
0
0
0
0
0
0
2.93993206507e-11
1.99087343572e-10
3.67133567689e-08
62.5652379436
12.5163867285
12.6789243904
19.7822331222
14.075936351
13.076601425
13.0162702744
14.6130645579
13.6315473057
18.4719228481
19.8948998985
17.7693199069
16.3889673671
14.4412128201
16.5678127329
16.0634796594
14.0797165754
13.2285608942
13.2860894029
12.6116878248
12.5859179018
12.6881449151
13.0395901157
14.3487132076
18.2139125437
21.0845148208
22.6668943769
20.8010000601
19.4057730524
18.178482888
16.4311055001
16.7577981513
17.8051160397
17.615489564
17.7276357275
18.2004311426
17.9321990232
17.8542120443
17.9659027083
18.1866464469
18.470754161
18.8488646374
19.4693848281
20.1829679036
21.2641112718
22.8414181473
25.116483993
26.833716647
26.7133733048
26.7502273971
27.8059262607
29.389141544
32.0570750119
31.2553983291
24.756895059
0.027242547142
0.000370006006494
0
0
0
0
0
0
0
0
0
0
0
0
0
0
0
0
0
0
0
0
0
0
9.04612357017e-11
6.58425380569
12.9370075753
13.0857040395
19.2538428167
13.4105353944
13.2367737629
13.2786836412
15.3495125027
13.9264071958
19.0977521668
20.5207053923
18.2235364872
16.8246664784
14.8017595126
17.1858167834
16.801805404
14.7138164545
13.8875315207
14.1001862535
13.4442128126
13.3478125073
13.2786332112
13.2601250126
14.5907911278
18.1788409095
20.7776267767
23.0187099207
22.0466450014
19.6568150644
16.7726519108
16.9679163519
17.3942700039
18.3914990409
18.7774443165
18.9601676077
19.0065322203
18.4951536527
18.4118869185
18.5504165729
18.7564478111
19.0538792874
19.4060272028
20.100631898
21.3289061548
23.4931774666
24.933872168
25.212432101
26.1536120205
27.0270670252
30.2906671099
34.0796613737
39.5220368029
43.7351706202
36.2107234788
0.0473769391331
9.71725419513e-05
2.35273416239e-06
7.89732997311e-09
0
0
0
0
0
0
0
0
0
0
0
0
0
0
0
0
0
0
0
0
0
1.52023149069e-11
2.01140511696e-11
13.6215183548
13.7741999691
18.6714932831
13.4762426003
13.720940979
13.6525272515
15.072071982
14.598134563
19.4796121259
21.1022387161
18.7183235736
17.3205428232
15.3103839443
17.7670849175
17.486552326
15.4813468241
14.633531464
14.9073563197
14.239927277
14.2630478836
14.1944639652
13.6613708476
15.0476642064
18.3096647321
20.6267328028
23.1132148939
22.5071084986
20.0474034169
17.0325038033
17.1108947575
18.1756197734
18.2132128324
18.3855553846
18.8865368483
19.9554755181
19.4809544791
19.3035149366
19.1905504058
19.3352322943
19.7326133724
20.2102049072
20.9873623817
23.5319133725
25.9583224434
26.0093179169
26.1733816296
27.7551995324
32.5375114921
38.7547322457
43.6441836969
47.4019307289
9.82000222331
0.00040637465572
1.33236912909e-07
8.35990175428e-10
1.69448433673e-09
2.60209564131e-10
0
0
0
0
0
0
0
0
0
0
0
0
0
0
0
0
0
0
0
0
0
1.12364771077e-12
5.1021540836e-12
14.7022449114
14.7922501973
18.6906832132
14.3001558555
14.8787369065
14.4120425841
15.0996113927
16.0141255222
19.2643223076
21.4754688459
19.2872389845
17.9004455598
15.9441816663
18.431571063
18.2043269073
16.439784757
15.6041150916
15.8982493466
15.0365782762
15.2924474195
15.4832906682
14.3471500968
15.5302861859
18.59727603
20.653253557
22.8986009708
22.6903414722
20.4472987731
19.5759225897
18.0180856295
18.6423464715
19.4005510432
20.4004278011
19.3648441819
19.783450743
20.577895052
20.2202123034
20.2965386757
20.2468392125
20.4495526095
21.0457520121
23.3495330782
27.0433231883
27.9311544191
27.41498664
28.9542441136
35.0076151565
43.4213967476
49.1281022722
45.7775702197
0.148778334506
1.38904861554e-06
9.50432852993e-09
0
0
0
0
0
0
0
0
0
0
0
0
0
0
0
0
0
0
0
0
0
0
0
0
0
0
0
16.2721659649
16.0498307785
19.2341668312
16.2580470613
16.9390439099
15.6000926995
15.8825693168
18.1307501571
19.2426393344
21.9654111111
19.9953625822
18.5790437171
16.6846277754
19.1307984294
18.9161725317
17.5153760451
17.1549198717
17.2416785958
15.9183704899
16.4505178832
17.123239824
15.4239470119
15.8328180844
18.9461591666
20.855902512
22.6634538892
22.8475140323
20.413328894
20.7578799442
19.7082142019
19.8499063445
18.6313493997
19.4805479006
20.8823778016
20.6812105859
21.014004887
21.1517914716
21.1791341479
21.3985649954
21.5638385199
23.0733810088
27.4845642294
30.1692115168
30.2170715405
30.8933194783
35.7260035674
44.7691743143
50.6399894076
36.0224498467
0.00132772363244
2.32114114732e-06
1.06282093605e-08
0
0
0
0
0
0
0
0
0
0
0
0
0
0
0
0
0
0
0
0
0
0
0
0
0
0
0
0
17.9697700032
17.219950031
19.8735209794
18.9822739106
18.6327489639
17.0310405601
16.768530607
19.2165244028
17.9464673831
22.3057038124
20.8286886577
19.3493977175
17.524869975
19.8471789678
19.5749542564
18.3951804349
19.4938638525
18.8862835443
16.934600092
17.7915985479
18.4953292249
16.8557786354
15.7259443735
18.8438539497
20.9714900481
22.4560381344
22.8584228335
20.405593507
21.0067081201
21.0124630815
21.0561087968
19.3083927319
19.8596680765
20.3960572042
21.599156067
22.2251263991
22.3492791045
22.2785340959
22.3895082518
23.3511334347
27.436912032
31.8031917488
33.4763891164
34.1244915271
36.878646107
43.3100002323
46.1056817885
25.9816733724
0.00357501089347
5.17558252741e-06
1.81258884679e-08
0
0
0
0
0
0
0
0
0
0
0
0
0
0
0
0
0
0
0
0
0
0
0
0
0
0
0
0
0
18.7250511493
18.0401699627
20.2466346909
19.9426483522
19.6131160756
18.419045962
17.8938624546
20.5750879206
18.8926118892
22.7794378251
21.6682340529
20.17236401
18.4575868445
20.6008867215
20.261578687
19.1383956319
20.3936188686
19.9038206033
17.947722174
19.1549883346
19.1269353257
17.5047686407
16.8459765539
17.0167952414
20.4372431968
21.89966397
22.5907944155
20.3358682913
20.9940789413
21.4507701893
21.9820891213
21.4122114269
19.7400765329
20.2642962192
21.713975232
23.0305454555
23.6622602366
23.9205009274
24.0231632646
27.3370469827
32.5012773669
35.8870228713
37.0762061496
38.430862499
42.0045797876
40.6936589898
24.0595192448
0.0188862626488
1.70127509283e-05
4.84531954101e-08
0
0
0
0
0
0
0
0
0
0
0
0
0
0
0
0
0
0
0
0
0
0
0
0
0
0
0
0
0
0
18.6924157199
18.5889598778
20.4892411481
20.0657527947
20.2496640628
19.514329879
18.890839598
21.9063159229
20.6134941259
23.4165478056
22.5663198161
21.0319532607
19.4750283534
21.4059100687
21.0269231638
20.0407721622
21.1199708711
20.7960285662
19.0537244878
20.1202596264
18.3985279267
18.1547155306
17.8355880492
18.1884330263
19.1010409211
19.9390403129
21.6895481717
20.1888511951
20.3219482315
21.383720679
22.3518558604
22.7515500473
21.3530779188
20.9645113151
21.6167927292
22.8546089581
24.3471005358
25.6194286663
27.1155958456
32.2305919644
36.9547895942
39.3984829635
39.8255299232
40.175751261
35.9216092732
27.0449070643
0.128094977767
5.90947381813e-05
1.32377741588e-07
0
0
0
0
0
0
0
0
0
0
0
0
0
0
0
0
0
0
0
0
0
0
0
0
0
0
0
0
0
0
0
18.8947952846
18.9936788225
20.7386364803
18.8347197194
20.4965518788
20.1012303788
19.5664960507
22.4323056988
21.3897248198
24.1039806408
23.5260706735
21.9066796985
20.5900701247
22.2500990406
21.8427953153
21.0876158719
21.9002844593
21.8013620306
20.279214206
21.4716249364
19.7142320778
19.9112417618
19.0581808532
19.4223303041
21.104470481
21.689198911
21.2922060261
19.9962674758
19.6732330299
21.3058875698
22.3298230866
22.9152692481
22.9534322318
22.0109776038
23.3015289948
23.5747742659
24.9236173727
27.2803664266
31.0888473625
36.8378608174
40.6933494634
41.8856927024
39.7249372126
33.0688792963
30.4917203321
4.84738048311
0.000495879438262
1.12889380596e-06
0
0
0
0
0
0
0
0
0
0
0
0
0
0
0
0
0
0
0
0
0
0
0
0
0
0
0
0
0
0
0
0
19.6006639559
19.674181566
20.9755755557
19.2248785341
20.7007873294
20.3978803331
20.051655689
22.5403722314
21.9544960975
24.6054015048
24.4961300085
22.7456444436
21.7987442805
23.0941875775
22.6369078657
22.1133333509
22.6422204965
22.9036666893
21.5570670432
22.8101751678
21.4969298011
22.1008314289
21.7440175414
20.1942906078
21.6433182483
22.710949304
22.7753690953
19.8694375005
18.9194578622
21.1978884538
22.4578129218
22.2619246673
22.4246702899
22.262156397
23.3394608785
24.0102434252
25.6611473245
29.0597566884
35.1202852751
41.2087595622
43.928001878
42.687142984
34.093626589
31.8874206616
27.0096333761
0.00563818518195
7.86657583952e-06
3.18991399245e-08
0
0
0
0
0
0
0
0
0
0
0
0
0
0
0
0
0
0
0
0
0
0
0
0
0
0
0
0
0
0
0
0
20.4996824107
21.7718455226
21.3476325429
20.2431119144
21.2120491363
20.7560360214
20.5254241566
22.6314447143
22.488599467
24.7372074492
25.4661986598
23.5187211579
22.8778561449
23.7586788997
23.4114475098
22.8678360273
22.7403186734
23.9216934849
22.944220348
23.9706885822
23.5665932055
23.3440286814
23.0744828826
22.6044365171
21.6474096832
22.5223960451
23.7285124045
19.0567312077
18.4023952892
20.3499885031
22.4638795086
22.9610472717
23.4871591113
22.2425171132
23.0812428094
24.2234018607
26.0335114544
30.709491369
38.9596601885
45.2289116249
46.5830330866
39.1637962227
33.8153205187
32.8377110637
0.425279388272
5.33203646316e-05
1.36086395505e-07
0
0
0
0
0
0
0
0
0
0
0
0
0
0
0
0
0
0
0
0
0
0
0
0
0
0
0
0
0
0
0
0
0
21.1755855317
22.4788314242
22.0358202242
21.1601472901
21.9124472561
21.3224531548
21.0760456971
22.8196661368
23.0243228699
24.5892081842
26.3474160386
24.3016616135
23.5048554656
24.3104752704
24.3008549316
23.5605083351
22.821382313
24.6369666612
24.4331749692
24.9782960246
24.8669485791
24.9250263909
23.2803179069
23.2362479972
22.677970682
24.2828729191
25.0763838575
21.5095008571
17.9808659588
19.2417683938
21.8125575107
23.2541310965
23.5219146338
22.8646910513
22.6394333765
24.1963338919
25.9510979912
31.9997468241
42.4830723458
49.2142654605
46.2803039712
34.4995248091
35.1660491461
30.3603186963
0.0018281383994
1.57217290617e-06
5.28339381557e-09
0
0
0
0
0
0
0
0
0
0
0
0
0
0
0
0
0
0
0
0
0
0
0
0
0
0
0
0
0
0
0
0
0
21.6922761985