/*--------------------------------*- C++ -*----------------------------------*\
| =========                 |                                                 |
| \\      /  F ield         | OpenFOAM: The Open Source CFD Toolbox           |
|  \\    /   O peration     | Version:  v1806                                 |
|   \\  /    A nd           | Web:      www.OpenFOAM.com                      |
|    \\/     M anipulation  |                                                 |
\*---------------------------------------------------------------------------*/
FoamFile
{
    version     2.0;
    format      ascii;
    class       volScalarField;
    location    "449";
    object      alphak;
}
// * * * * * * * * * * * * * * * * * * * * * * * * * * * * * * * * * * * * * //

dimensions      [0 0 -1 0 0 0 0];


internalField   nonuniform List<scalar> 
6400
(
0.862745030025
1.34241656644
2.09810666007
2.53077273112
2.94982357728
3.38707999513
4.00550262548
4.71117817122
5.00469939282
5.51704998239
6.68978257186
7.39153731915
7.95352919222
8.62370193977
9.51261170374
10.4373380135
11.2095071619
11.9372301683
12.5548252523
12.8637769291
12.9106390025
13.0412629699
13.4839774852
14.2531920473
15.1198980358
15.8759499937
16.4499401507
16.9688756524
17.5488422869
18.2036597383
18.8786902009
19.3499025861
19.5433719081
19.603922637
19.558430015
19.360339481
19.3447028588
19.6385783386
19.5453303413
19.1810228685
19.2406246745
19.8776408876
20.5410021736
20.870586649
20.9371346486
20.8247632897
20.6049845159
20.332821447
20.0199271269
19.6850343099
19.2108821383
18.3069182987
17.1780510433
15.8460611495
14.8367278824
14.2895083208
13.2886662141
11.3802369607
9.30754371857
7.98385602003
6.52787796738
5.01653610626
3.39503492941
4.73871089329
8.82423718754
13.7999298132
16.8225401715
16.5614383271
14.6015456286
12.999656022
12.1361940213
12.3223943144
12.8409807221
12.7099626003
14.7161565511
14.1461677433
15.9917114832
9.89593950029
12.8739498563
4.81453762723
3.11916096065
2.46075286892
3.03987065634
4.2660736668
4.07184812776
3.84917571855
3.98241683004
4.35553660488
4.90535927936
5.61666201174
6.49471112136
7.36960466067
8.12862529377
8.8530622261
9.58512604675
10.431522504
11.3182747027
12.1802291763
13.1860005337
13.302648532
13.1194198151
13.1921228979
13.5686575409
14.3059860926
15.3541817029
16.0254723326
16.5564735618
17.1283934551
17.7321591146
18.3523804992
18.9851957279
19.5885420606
19.7803498782
19.8442051279
19.8520357094
19.5117091028
19.5759197114
19.8901874449
19.708310039
19.1312351805
19.1448872935
20.7146709136
21.8738579673
22.073976903
22.0558961455
21.7985067008
21.3876761659
20.9801213941
20.3913230078
19.8010455603
19.4428088974
19.3852808587
18.6127113028
16.0720296422
15.2555219787
14.3365154407
12.3936561895
10.5528276153
8.86040789582
7.20456896849
5.74518583017
5.43859505197
3.78595899356
5.07122312159
8.92005610097
14.8010674384
18.5752578615
17.3627830974
15.2284945542
13.329273977
12.628377894
13.0288654155
14.0981029837
13.5173983261
13.3512965781
12.8127480812
11.6000221807
9.75032487824
8.18767060542
4.2741324618
3.15341529007
2.73171585228
3.23495514365
3.43670276529
3.86178395914
4.24084553256
4.19639921305
4.27621514994
4.81868636689
5.59718409374
6.47652440905
7.37102645605
8.18034721267
8.9135310252
9.50181860655
10.2608597433
13.0672040263
15.1111916568
15.4303143302
14.6406728746
12.9366680772
12.780250886
13.7244837849
14.5202049605
15.2335156147
16.0026731024
16.6746272031
17.2502272205
17.8321364935
18.4585209423
19.0432321833
19.7721873858
19.9807914767
19.7204068147
20.2113152553
19.884903062
19.4533335485
20.0789673285
19.9119458672
19.366280098
19.3867737533
20.0328925657
20.7001991579
21.041160448
21.1322794241
21.064030134
20.8759160255
20.5891574283
20.2059662379
19.7517891636
19.2312489874
18.5363110773
17.5452010137
16.595052444
15.7338481628
14.118029539
12.3068711717
10.5906886145
8.95862074834
7.44530995073
6.19754671816
5.04110537146
4.27246729436
6.22187272826
11.1670947397
15.7526924299
18.0186165453
18.1661510574
16.6070768171
14.9547622631
14.2701581112
14.1728082456
13.5168883197
12.9206017178
12.8748937015
12.507547538
11.5046262925
9.8716040663
7.43983063441
7.61120250761
3.06863034218
5.4222521301
3.46793196555
3.52711023982
4.18808463356
11.7941575232
10.1469273158
4.93181839282
4.81007337933
5.60777667763
6.5017379671
7.41069415829
8.19583835456
8.97535457944
10.7677712139
12.9437104033
14.5945421123
14.8765684303
13.5229548214
12.40651295
12.5991965629
13.0426289479
13.6507072742
14.4628780761
15.3269291153
16.1434175242
16.8532850141
17.3971671046
18.0189444593
18.5415528037
19.330061363
19.7463302086
20.3764710071
20.1665354052
19.5978124181
20.0209250899
19.6948647107
19.3748509913
19.4424169244
19.5204114549
19.7277184952
20.2028732255
20.7231521576
21.0587441295
21.1893783065
21.1577783817
20.9979267087
20.7319515988
20.3698218915
19.9213754794
19.3762407851
18.6856179719
17.8198048571
16.8427520463
15.6745792913
14.1592258657
12.4399818162
10.7537556762
9.2019640129
7.85336574118
6.78367989597
6.02548687173
5.9198977108
7.2688325787
10.5078475219
16.1291290595
19.6851177695
19.8963566519
18.256380619
15.9271296655
14.3392767807
13.5569286506
13.714254246
15.0767644152
14.9868710977
13.6439311775
13.4744448678
16.7303297174
13.1477672058
11.1779662626
5.49966095057
7.45361503949
4.11226600353
4.42965254529
6.3960486841
11.6801536224
7.99287871252
5.27634066954
5.32162128699
5.83244148067
6.65165699649
7.58003325078
9.00210962544
11.4229535451
12.4208748308
12.7121359345
12.5479963963
12.0963727434
11.9824448934
12.4638548984
12.7393150132
13.0646623146
13.7362426262
14.5719577383
15.4632928131
16.3235714945
16.9852836289
17.7084093314
18.1397346065
18.9567603226
19.3547975856
20.6018309395
20.2772387273
19.6806511118
19.8189668307
19.3293600771
19.2632799844
19.3856504925
19.5586954951
19.7375863269
19.9871046406
20.376413037
20.8036673484
21.1210678425
21.2755274281
21.2747014788
21.142152686
20.8998615251
20.5613639965
20.1306309101
19.5945174879
18.9254920376
18.1054998315
17.1215590182
15.8891785924
14.3599818481
12.6892459177
11.0919837622
9.69787539814
8.58513609859
7.81162107649
7.44921715694
7.73158805263
8.32243958311
10.6147531878
15.6191711739
19.7645268854
21.1926948458
20.0431821715
17.3029578928
14.8524795783
14.5255979828
16.7280957186
17.5654768199
16.5032232511
15.5619442046
18.1731617258
21.1603341278
16.4977202813
15.6165246773
9.81559682456
8.95835905305
5.1119665252
5.75840977474
11.9521819118
11.3983023065
6.16974482749
5.81862707474
5.91683893841
6.17541039642
6.9254220337
9.67132485131
13.0007493543
13.3761196597
12.923506377
11.7923048464
11.1750397673
11.3355325507
12.2238866998
12.4542868333
12.5913062116
13.1265075366
13.8875407808
14.7713180612
15.5794702116
16.4572827187
17.4649919025
17.8049875566
18.8321859925
18.9776430308
20.5426995854
20.3030552199
21.1735322422
20.0334340224
19.0475916109
18.9556834568
19.2028719397
19.4814898589
19.728126882
19.9566598531
20.2265509901
20.5735499632
20.942529118
21.2388061199
21.4041046057
21.426809477
21.3195960914
21.103738956
20.7952734948
20.3960170771
19.8916134518
19.2574514579
18.4637128308
17.4653040484
16.2043414956
14.7067921321
13.1425818836
11.7056115599
10.5137595116
9.6428538524
9.12967701889
9.12383278268
9.95538487002
9.17746077388
12.2804006298
17.4396482288
21.0346461056
22.4503066571
21.5496853761
18.2196424011
16.0619674815
17.8219508901
19.9833520736
19.4364281958
18.4117940198
18.4598065297
22.9651476415
24.5254811226
19.5492522813
19.3487231417
11.9082032579
8.69256890852
6.21939425908
5.84493377232
11.8574953671
8.08700449514
6.27094274304
6.36789027656
6.46496549997
7.14205369759
7.55909210765
12.8392177552
13.4369746649
13.4091261481
11.8743002627
10.5983714591
10.6908548038
12.0196569978
12.2257042388
12.1103584985
12.6057339295
13.2436632875
14.0054022026
14.8870196706
15.9394105292
16.9664933474
17.4756915564
18.8722079162
18.8595708255
20.5863905365
20.1731599131
21.2635671862
20.4589764373
19.7466182772
18.7815471141
18.8498098844
19.2542586677
19.6249080009
19.9134204044
20.1737365245
20.4613845853
20.7905381416
21.1262528753
21.4053317081
21.5754464723
21.6158449236
21.5332897514
21.3490704467
21.0802337343
20.7263262599
20.2690635649
19.677447898
18.9088621382
17.9143054046
16.6740856993
15.2654880181
13.8623254296
12.6252877405
11.62590016
10.882362784
10.49000432
10.5154943238
10.493383501
10.6771882413
13.6369739482
19.9710037256
22.4062523093
22.8026540989
21.7717738693
19.5414533914
19.2954404387
21.8070213531
22.2174874969
21.3501449049
20.7322429166
22.6476226742
25.3407806617
26.7679302262
22.2060237992
21.0709806684
11.5621926278
8.20550258206
7.31484810235
11.9466080683
11.8975893406
6.8905332761
6.87621201332
6.99312006389
7.11880175179
7.65767665649
12.6300627117
13.5352271688
13.535514652
12.9498128645
10.5417603776
10.0893536088
11.6945796442
12.2003454469
11.7973511032
11.9736680891
12.6565211546
13.4483751897
14.2288161712
15.1772762972
16.0326126175
17.3902839723
17.5928228119
18.864116609
20.4160558851
20.6946700827
19.7892592665
20.6185616925
20.6057124828
18.9721381797
18.7278678693
18.9792215256
19.3828243622
19.7786966148
20.1048952539
20.3956801854
20.7009666873
21.0283505937
21.348377647
21.615678149
21.7878250492
21.8430554739
21.7868762882
21.641223494
21.4226705658
21.1272549598
20.7308007203
20.1934751825
19.4655086575
18.5100165001
17.3474021386
16.0863539143
14.8781583254
13.809135419
12.8682317163
12.0935646425
11.6834218274
11.6751276917
11.8980934852
12.4544977806
12.8607526132
20.0201166329
24.1436774482
24.2366310335
23.6888158238
22.7877770098
23.6304876771
24.9599573278
24.2503346731
23.5285222572
23.6899392712
25.9403229456
26.5618561861
27.1041973173
24.2301765416
22.0995993506
10.7494236695
8.00110797588
7.96377822278
12.8880373231
10.7276032779
7.38789196745
7.5299292652
7.77008705569
9.1148798348
7.70398257786
13.4038610853
14.0165253596
13.5487772176
11.5721119701
10.0466068473
10.2244671971
11.7968232273
11.8598570819
11.6579748336
12.003921338
12.6572780876
13.5518498891
14.4527284703
15.8669412165
17.0733579182
17.3152780575
19.3551139115
18.6750282821
20.6735096697
19.8923375401
21.2593110277
19.7668592941
19.1573441792
18.8424329978
18.8819657506
19.1642714424
19.5444533835
19.9431012424
20.3026296918
20.6287722004
20.9548280413
21.2878609099
21.6039922502
21.8661116425
22.0397899832
22.1094401562
22.0838100497
21.9848842528
21.8271176925
21.6030460393
21.2824973094
20.817948421
20.1592230779
19.2899343963
18.2643863806
17.1956590673
16.1684452681
15.1453961951
14.059913077
13.1411019871
12.8315041987
13.2090786666
13.8331071515
14.3252994386
14.5086866846
16.6901651914
24.2949981288
26.0299090236
26.1112371192
26.8025091784
27.8678866025
27.5030902964
26.4538219148
26.1911129469
27.0922855442
28.1902109004
27.9711656469
27.3175113165
26.2820650238
24.9066456202
10.0872476836
8.33334400044
9.12850835327
12.9191142957
8.51729596521
8.39469382999
8.18828796264
8.44122961186
11.7733861683
10.4063777842
14.2352525157
14.2524244513
13.5744455586
10.7485213117
10.0251611707
11.7200011817
12.0484830915
11.5745136424
11.6188539578
12.1741994489
12.7910150724
13.6289877134
14.387030759
16.0436358921
18.2605760507
17.226276744
19.2909198498
20.4798630723
20.9280512663
21.3760543088
20.2594346107
20.1410729899
18.7793402895
18.724667151
19.0364758353
19.3666218134
19.7289496947
20.1205531432
20.5050949277
20.8708114605
21.2267415422
21.5728511124
21.8914674202
22.1536105269
22.3316512832
22.4170240784
22.4259912075
22.3822852496
22.296239401
22.1564077409
21.9289475675
21.5622675272
21.0116084935
20.283984904
19.4535656116
18.5958404191
17.6540019316
16.4288643092
15.0355899055
14.1706644655
14.3755720512
15.3578076809
16.2650099279
16.7763258497
16.8845524929
16.0824465817
16.6019637909
27.7958774881
30.669784667
31.739287308
31.6147544562
30.1771568724
29.1981642933
29.371926467
30.3805459663
30.5848081399
30.2418582168
29.892305926
30.1978537103
30.365334835
9.92245593375
9.08774438076
12.6538564442
12.9838692531
8.46825887217
9.11660746317
8.83319523228
9.39962605535
11.1450369765
14.0120691643
15.006031084
14.4662884047
13.7481585237
10.647552933
10.1524381506
12.27206492
12.1147803133
11.5197205589
11.6435625457
12.3215077929
13.194311236
13.9868983014
14.5820463148
15.6496191294
18.4297210788
19.5759931983
18.7853565073
20.6280842231
19.5060860535
21.4160924968
21.5673970363
20.0438007516
18.7095077881
18.8268065785
19.2237266597
19.579681091
19.9363485476
20.3200161037
20.7156961301
21.1186451484
21.5152406912
21.8841365654
22.2110432068
22.4771635907
22.6627462338
22.7678970288
22.8166304476
22.8344428014
22.8286714034
22.7853543026
22.6696586782
22.4309172704
22.0363135082
21.5147922809
20.9316021704
20.2421884116
19.1241224398
17.4231304443
16.0031901737
15.7297413707
16.8454305838
18.4712296372
19.5717352018
20.0490160153
19.8543345802
18.8171277195
17.2261215096
18.5626076106
32.231453406
37.4647537354
36.1729804335
33.7559835946
32.8356560262
33.1443045702
33.7138139308
33.8405793209
33.9990194552
34.4464585612
35.0116370466
35.6602442276
10.1475257255
9.89414352887
14.2577937779
13.5802285412
11.5372603055
10.2945460774
9.68893127571
10.8825478835
10.4788919015
14.9587266044
15.5911236142
14.7451236356
13.7373094863
11.1717503132
10.9148174258
12.754169403
12.0941047818
11.5749588487
11.7606214198
12.3677978048
13.362094773
14.446139147
16.2014035637
15.7997532066
17.891464818
19.9690610286
18.6005902788
20.9240382026
21.5906699992
20.3908710285
20.4524026703
19.1329445683
19.0139983946
19.1569751664
19.4669109099
19.8184583246
20.174536351
20.5531365302
20.9433448033
21.3651379682
21.8110380456
22.2238238318
22.5663869182
22.8368886186
23.0333485256
23.1640143705
23.2577156687
23.3407562121
23.4194918388
23.4806995583
23.4922970037
23.4145695745
23.2366779252
22.9933169103
22.6736393573
21.9502490225
20.275871577
18.3029209551
17.4813607601
18.3214862855
20.6152982302
22.758354847
23.9788608573
24.5567572424
24.2429064202
22.8681981569
20.7331889537
18.1059614232
27.9382760707
38.4075915579
41.2931015213
38.5605300384
37.6811618399
37.860452119
38.1540758348
38.1795028445
38.9047094689
39.6545106427
39.5840868752
39.779459732
10.6630665393
10.4961908779
13.9338347446
13.9861788296
13.9661031755
11.3421414432
10.678118604
13.8356422395
10.7352828398
15.8071814208
16.0346247285
15.036237384
13.7356843974
11.7085300827
13.7434067735
13.8287462698
12.2259007806
11.7660676119
12.0093679596
12.5196601613
13.3280247568
14.4211745254
17.5905567781
18.5328715946
17.2956907892
20.0581154868
20.9010441377
20.4398497348
21.562675593
21.7374347184
20.8742310463
19.1346524522
19.2120815988
19.4870161792
19.7637623804
20.0857333279
20.4247625007
20.8166434695
21.2246692461
21.6394607795
22.1055147019
22.5717475235
22.9546920603
23.2377328287
23.4459166881
23.6068470914
23.7504172339
23.8988478691
24.0584773977
24.2211816155
24.367064784
24.4853798352
24.5947789972
24.6907581181
24.5540015097
23.4240624549
21.1435992129
19.5853616834
20.2468933101
23.0472622265
26.5365337551
28.9850789873
29.9640785116
30.5097366481
29.44699561
27.2911635874
24.4895656689
20.4131161731
22.9658903945
34.9775673656
42.1198073049
43.445691741
41.9671617529
42.4814303495
42.8113448755
43.2967809293
44.3743422406
45.0846978441
45.0580497985
45.2353802386
11.2384992701
11.1374406843
10.8078341097
14.2598174478
14.431931544
12.0174325868
11.5756109897
14.7535326233
11.2966309793
16.6683759016
16.4252352547
15.3391788455
13.8529875271
11.9615645803
14.9180611015
14.3088966594
12.5819522697
12.1242244658
12.3455607517
12.8423966379
13.4199661349
14.3252496918
18.1478598972
19.5909786231
17.6181983133
20.1366683063
21.4379445696
19.7636595131
21.1913902466
21.1934422608
19.4967651433
19.4906142784
19.661622572
19.8632330801
20.0889985756
20.4090155192
20.7353329763
21.0802120707
21.5109172612
21.9665445962
22.4392183459
22.9302305741
23.3583017611
23.6734181087
23.9037952926
24.1001705038
24.2950544408
24.5006626525
24.7271616398
24.9747935628
25.240566266
25.5853897338
26.0552672548
26.5227858783
26.3065753487
24.4004975752
22.6207543873
22.3530568178
23.5133068291
25.613952461
27.2159904276
25.9428512929
21.4424006141
16.9040874314
12.1678459933
11.2819621674
14.7835939465
18.0364516093
19.606538558
19.1948705503
43.1413700384
47.0023022778
46.5886364472
43.0092192984
41.9398745938
46.3680449257
49.2615917287
50.7645227147
51.7930046913
52.2946453087
11.990395939
12.0701116403
14.8701341412
14.8363606792
14.803493078
12.582956293
12.5724971741
15.5136470745
12.2444201037
17.3986284013
16.7879347785
15.6585466523
14.0445976265
12.3066537591
15.1542799106
14.4059128184
12.9392410433
12.53297762
12.7034706679
13.1416415585
13.6722181681
14.3767842933
17.4610178501
20.4013663293
20.4993575325
19.4042154211
21.6519731185
22.3279981643
19.7296948584
19.3215700163
19.4082628585
19.7119532442
19.9919937811
20.2262970947
20.4760385266
20.749438714
21.0696454953
21.4277936683
21.8154831884
22.2977530163
22.8152368794
23.327300551
23.7818816079
24.132246199
24.4030495973
24.6439199514
24.8881186676
25.1472601517
25.4135277361
25.6840690993
26.0301608201
26.6145208173
27.483758683
28.215113884
27.3838863953
25.1900885861
21.2895800858
15.046109975
0.405963819431
0.00761037035213
0.000129000992748
3.73231878752e-07
1.06064352751e-09
1.83595387091e-14
1.43608856498e-14
3.48649280138e-14
2.35017180119e-13
1.1008073505e-12
4.06638784764e-12
2.58412592962e-11
2.02331291736e-11
1.7553339613e-09
9.99078322202e-07
0.000100428689934
0.00762084106831
1.75489554776
46.8954962645
55.2050515213
59.1912280145
59.5613126533
12.6862714647
12.8735753658
16.4477573151
15.4120213534
14.7869741465
13.164106895
13.5496077188
16.1249525383
16.103675728
18.2917630886
17.1978130931
16.0602425062
14.3052014679
12.7999868379
15.403161394
14.4508577116
13.2941715844
12.9522849171
13.0577688743
13.4207495409
13.9298112682
14.6456455927
16.8627000562
20.6587566683
21.8972257582
18.9752764276
21.1966524493
22.3322205636
21.8285647024
19.8502638227
19.5192821722
19.9341766839
20.3426449074
20.6530175547
20.8322779087
21.1147841639
21.4155916603
21.7859745471
22.183784126
22.6572958641
23.2125202576
23.7671985324
24.2356041889
24.5985301391
24.9193707631
25.2624463045
25.5968637131
25.8725999607
26.052791149
26.2677921765
26.6820339332
27.425814581
28.6340679231
29.2149574389
26.2835054678
16.4410492805
0.000204104882806
8.2652627749e-07
2.39018019795e-08
3.47966422894e-10
2.82715365372e-13
4.71737680174e-16
3.32530055714e-17
0
0
0
0
0
0
0
0
4.62492599453e-21
1.55989179099e-18
2.33326563057e-16
1.35368599809e-13
1.89076712194e-10
1.02389872087e-05
0.155491381239
47.5846349744
62.8156742802
13.2485067499
13.4587088819
18.6442347152
15.8347183347
14.4910455371
13.6835110618
14.238077488
16.0645583715
17.6824484352
19.3253575405
17.7587150186
16.5877563751
14.8077905635
13.5986904157
15.8603754967
14.6565249047
13.7362506388
13.4262872439
13.4517617209
13.7348985795
14.1778298129
14.8455174128
16.6108565564
20.5270012563
22.888013723
21.9879355073
20.6162866684
21.6787655903
21.4575401328
19.6545877597
19.981354716
20.4382835448
20.9038681951
21.135040504
21.3274647285
21.5073710604
21.8249261707
22.1656484789
22.5835007281
23.0658795378
23.6243198676
24.2229245602
24.7684252813
25.1479934649
25.5043555874
25.9496173423
26.3838575838
26.6332883094
26.6849091799
26.8082948938
27.2014543933
27.8747822858
28.7046119742
27.5493481674
1.35160516674
2.95497082176e-07
9.69101767633e-11
3.91864730499e-12
5.34295763609e-14
1.46518418999e-16
0
0
0
0
0
0
0
0
0
0
0
0
0
5.95921661568e-20
5.92177769723e-19
1.2981819777e-17
6.29470489687e-16
3.49559406947e-12
0.00290960528953
5.60873384415e-08
13.6829409407
13.8807165337
20.7418202869
16.1437473328
14.4845197586
14.1726531637
15.0312491768
15.2441262879
18.6317197544
20.0589095345
18.3080103901
17.1319519514
15.5197893422
15.5688576693
16.500628775
15.1097134646
14.3803447193
14.1064409502
13.9542679187
14.1373529916
14.479157397
15.0750097217
16.5653562113
20.393098558
23.2930914672
23.6568884079
20.1293106219
20.3752713034
19.8840956932
19.7698228428
20.2620594896
20.9520619241
21.4045943665
21.6477163335
21.8476829124
22.1364376568
22.2924702584
22.6144984005
23.0172081747
23.4852922885
24.1123455331
24.7664395346
25.339784125
25.6674201618
26.029615758
27.3098176533
29.1329536116
29.6060880271
28.2380155841
27.9383981822
28.1529067043
28.4801222657
27.50004196
0.15637177082
2.35672742523e-06
1.05726497737e-17
1.06837935727e-14
1.74330068422e-16
0
0
0
0
0
0
0
0
0
0
0
0
0
0
0
0
0
0
9.20680284091e-19
6.23469481544e-18
1.14972941523e-15
94.3852780912
14.0762893021
14.2412420374
20.5129349857
15.410368399
14.5978468039
14.5920577439
15.9356392934
15.1211592255
19.4235625935
20.7519690894
18.839833758
17.6437871987
16.061151194
17.8917415237
17.4147065137
15.770415608
15.1275234575
15.1899362434
14.6824107904
14.7108957361
14.881253332
15.3358339831
16.668388063
20.243082046
23.1541174444
24.7746645279
23.1611508957
21.947948856
21.1283447086
20.0638774513
20.580313326
21.6602614987
21.8112259332
22.1463560405
22.6909853423
22.7059057555
22.8619978866
23.1763484811
23.5826323666
24.0387880788
24.573577294
25.2719945999
25.9968606796
26.8691956472
28.0412302946
29.7812422827
31.0837461998
30.7714563297
30.434743032
30.8976271302
31.6872894317
33.2992690555
0.711117798725
6.4910854488e-06
8.53137946284e-10
1.15872485362e-11
0
0
0
0
0
0
0
0
0
0
0
0
0
0
0
0
0
0
0
0
0
0
2.83291839205e-18
2.06194991251e-07
14.5538601836
14.6995714497
20.0759920223
14.9481532896
14.8414816942
14.9283229494
16.7022131382
15.5193396481
20.0896247283
21.4321562727
19.3757787091
18.1704355806
16.5216636562
18.587614127
18.2584636501
16.5073912183
15.8603892107
16.0510690897
15.5631671948
15.51082223
15.4950392975
15.629080516
16.9353337166
20.2181586464
22.8694204065
25.1204205116
24.3901329754
22.3564453231
20.2260654209
20.5970240941
21.1601672418
22.1943351462
22.8025344516
23.237443811
23.5279076772
23.3690694112
23.5074210014
23.8389379406
24.245785135
24.722868418
25.2473492012
26.0203166346
27.1531490608
28.8494173288
29.9400795286
30.0999560734
30.6347037869
30.9607029529
32.9744494229
35.1250654387
40.2104126363
6.47966603055
8.60375946215e-06
1.48367420794e-09
3.04309220585e-12
7.3679116016e-14
2.47315782891e-16
0
0
0
0
0
0
0
0
0
0
0
0
0
0
0
0
0
0
0
0
0
4.76081463704e-19
6.29899260771e-19
15.2862261177
15.433852321
19.6388264485
15.1540125865
15.3768501427
15.3711474425
16.5952071027
16.2278989039
20.5401510433
22.0746669061
19.951664403
18.7545884753
17.1174357511
19.2316640863
19.0294974933
17.3562361039
16.6671181268
16.8970835043
16.4159503476
16.4609472404
16.4058297245
16.0904092041
17.4026578227
20.3722319582
22.7355017883
25.221324385
24.9078604626
22.9494396397
20.6313580913
20.8009126408
21.8638316153
22.2357158366
22.6764464879
23.3648503979
24.4814173697
24.4023696069
24.4463118921
24.5935440629
24.9506951038
25.5127336283
26.1550302568
27.0545045432
29.1563253904
31.1063732625
31.1202561503
31.0885255461
32.1369749325
35.6597388239
39.9345673911
43.9854272875
1.85126076508
3.07526916834e-07
1.27261829591e-11
4.17249773508e-15
2.61801856361e-17
5.30651146351e-17
8.14882147357e-18
0
0
0
0
0
0
0
0
0
0
0
0
0
0
0
0
0
0
0
0
0
3.51885781939e-20
1.59780993819e-19
16.4091696172
16.5079323403
19.8195381006
16.0610749897
16.5470757575
16.1961035152
16.7975078621
17.5943561231
20.4755935907
22.531056247
20.5984736063
19.4184024294
17.8301730171
19.9663713395
19.8316804292
18.3821762361
17.6780387771
17.9069902071
17.2744132337
17.5166590968
17.6580393784
16.8037694158
17.9216709748
20.7020669706
22.7854916922
25.0550327699
25.1328967703
23.5003310294
22.865236822
21.6935043136
22.3085341395
23.2204532787
24.346677236
23.9273024344
24.5719459246
25.4772561234
25.4685676848
25.7309151512
25.9495168867
26.3793344632
27.167584109
29.1857054196
32.2283131596
33.0534693899
32.5907035862
33.7572484023
38.7433353395
45.8947356763
49.1701140058
0.0665901657393
4.65919879262e-09
4.34999736615e-14
2.97641159637e-16
0
0
0
0
0
0
0
0
0
0
0
0
0
0
0
0
0
0
0
0
0
0
0
0
0
0
0
18.0010639196
17.8355083018
20.5320843726
17.9950097457
18.5614856797
17.4435169525
17.6862823198
19.60179874
20.5981751085
23.101668727
21.3746145008
20.1739512748
18.6378513981
20.7382907158
20.6287896972
19.5216893051
19.212328534
19.2485122308
18.2232685295
18.6825543639
19.2360883977
17.8671500519
18.2999152615
21.1085278671
23.0237031062
24.8875735392
25.3090594072
23.585146113
24.0605242805
23.3396837044
23.4519665193
22.7646141326
23.8321223079
25.3018822802
25.5294318346
26.1070650599
26.4951461877
26.7589522704
27.1750089739
27.6140259697
29.0690301164
32.7055548242
35.130876614
35.3025992479
35.9532192289
40.2287880631
48.5932480321
50.8853873685
0.000944567052211
4.15794972145e-11
7.26897371649e-14
3.32837038299e-16
0
0
0
0
0
0
0
0
0
0
0
0
0
0
0
0
0
0
0
0
0
0
0
0
0
0
0
0
19.702472861
19.0826349058
21.3291258091
20.6082502548
20.2874019221
18.9149097381
18.6812286094
20.7336505371
19.6295610202
23.5309477487
22.2635228724
21.013947117
19.532567716
21.5266842304
21.3693260027
20.4666997146
21.4160792197
20.8806367131
19.3040255029
19.9980300601
20.6083293093
19.2601347955
18.3648948004
21.0706728633
23.1881733197
24.7560365635
25.3635944362
23.6455602662
24.4046834942
24.6489652432
24.7694880838
23.5241650437
24.1476837466
25.0888679499
26.4774020479
27.3487594602
27.7693649099
27.9758552186
28.3433463728
29.3839881229
32.7376795851
36.5618453785
38.2424493707
39.0164475917
41.7847580411
48.0902718482
47.1864470065
4.37929341296e-05
1.11956398045e-10
1.62080506835e-13
5.67637202991e-16
0
0
0
0
0
0
0
0
0
0
0
0
0
0
0
0
0
0
0
0
0
0
0
0
0
0
0
0
0
20.5257557804
19.966589837
21.8342739562
21.6465170665
21.3455893226
20.3263153301
19.8729334677
22.1270556677
20.6548492274
24.095582099
23.1621592087
21.9041436556
20.5088329175
22.3511175938
22.131298027
21.2639678391
22.3738407954
21.9722262991
20.3729814813
21.3171431226
21.3254242406
20.0369491844
19.4514486393
19.6456481799
22.6894476218
24.2582385008
25.1503721226
23.6221499006
24.4628086251
25.1737678608
25.8293092708
25.4769079215
24.3418525081
25.100125126
26.6944709296
28.224859599
29.1620778928
29.6597633042
30.0407257106
32.7747903363
37.1890261056
40.3672464729
41.6911961842
43.2598483535
47.1960327854
42.791258137
0.000155451198064
5.91449369443e-10
5.32777765307e-13
1.51737865801e-15
0
0
0
0
0
0
0
0
0
0
0
0
0
0
0
0
0
0
0
0
0
0
0
0
0
0
0
0
0
0
20.6017252072
20.547987329
22.1624759928
21.8570793753
22.0365077482
21.4377991757
20.9249617315
23.4977632985
22.3803614729
24.8389120483
24.1228732018
22.8308362736
21.5609679147
23.2264331995
22.9700204091
22.2068476968
23.1672650914
22.9312331782
21.5149761288
22.3423172089
20.9516229145
20.7769229012
20.5009048269
20.7897742308
21.6535429091
22.5865404849
24.3163116395
23.4721549191
23.9676339211
25.1986411147
26.2832497814
26.8594342429
25.9336838245
25.8857486367
26.8124182116
28.2942847702
30.0067537301
31.4193359663
32.8580524751
37.0918867318
41.3631813229
43.7947566968
44.5312897571
45.4292009854
40.1695479303
0.207849933369
4.01147094255e-09
1.85063325046e-12
4.14559159991e-15
0
0
0
0
0
0
0
0
0
0
0
0
0
0
0
0
0
0
0
0
0
0
0
0
0
0
0
0
0
0
0
20.8724102684
20.9794955516
22.4721519182
20.8904763133
22.3427283365
22.0620912065
21.6484917549
24.1093386602
23.2379714563
25.6202601611
25.1355749571
23.7687478999
22.6984510217
24.1402587569
23.8575876065
23.2898876034
24.0378901842
24.0017004931
22.7782833422
23.7513462568
22.3102050255
22.4775019559
21.7626965207
22.0740624774
23.5524022094
24.1555752812
23.9676755294
23.2624723012
23.4670376124
25.1658401257
26.3103315005
27.1138752433
27.4083697821
26.9993949744
28.3125428171
29.0613581429
30.7147374067
33.1017971166
36.4409553945
41.410716459
45.0523245149
46.4018273267
44.8893866895
39.3271074523
31.8880403942
1.51802407046e-07
1.5529148701e-11
3.53528669023e-14
0
0
0
0
0
0
0
0
0
0
0
0
0
0
0
0
0
0
0
0
0
0
0
0
0
0
0
0
0
0
0
0
21.6188349836
21.6932978921
22.7967816227
21.3343821155
22.6144184492
22.4167710713
22.1755480704
24.3161430628
23.8580506145
26.208565947
26.1428825591
24.6621171494
23.9114578318
25.0506975455
24.7173919786
24.3463174255
24.8760620614
25.1626014988
24.089064267
25.1604885012
24.104180119
24.6060846581
24.3059333315
22.9975673859
24.2332418496
25.2448881078
25.3215722128
23.1491715346
22.8907054029
25.0964786054
26.4880373433
26.7060520296
27.1452834038
27.3523623904
28.5950575497
29.6711351337
31.5691256938
34.8649944669
40.182870827
45.659763974
48.3702591788
47.6705480679
42.2984938068
35.4058147836
0.000364898649416
1.76567547147e-10
2.46352674771e-13
9.98965573282e-16
0
0
0
0
0
0
0
0
0
0
0
0
0
0
0
0
0
0
0
0
0
0
0
0
0
0
0
0
0
0
0
0
22.5589361681
23.6578462863
23.2731764252
22.3606893874
23.1813976091
22.8351353384
22.6896996809
24.5016368552
24.4338130975
26.4476363589
27.132828341
25.475340191
24.9956246101
25.7973051666
25.5446676058
25.1483727808
25.1367040604
26.2280741469
25.4813012261
26.391647465
26.112883497
25.9276094951
25.7172170245
25.2845284195
24.4840271263
25.2929654193
26.3094489016
22.6073103866
22.4328835786
24.3996153014
26.5594802998
27.3576998943
28.0380331914
27.4258007344
28.4799889476
29.9638044133
32.085177572
36.5133710469
43.8298701937
49.6216677727
50.989249656
45.0580510764
39.7706135328
35.9542708146
1.33182107391e-08
1.66980077669e-12
4.26173321359e-15
0
0
0
0
0
0
0
0
0
0
0
0
0
0
0
0
0
0
0
0
0
0
0
0
0
0
0
0
0
0
0
0
0
23.2825809556
24.4145240252
24.0158643268
23.2941940032
23.9207099707
23.443201573
23.2773802302
24.7764817072
25.0005980346
26.4229224239
28.0256842063
26.2738256531
25.6599700843
26.4241884567
26.4595763193
25.8862546136
25.3566865259
26.9912009484
26.9315696295
27.4685875038
27.4592211907
27.5579355081
26.1992992082
26.1574149724
25.654924519
26.9862212825
27.6917047277
24.6718236301
22.0773783662
23.4224031169
25.9409040198
27.6307606649
28.2793383525
28.0856101363
28.195947438
29.9046451497
32.1057162766
37.8152020083
47.2533746983
53.598881235
51.4587419782
43.4310861633
36.3694159028