/*--------------------------------*- C++ -*----------------------------------*\
| =========                 |                                                 |
| \\      /  F ield         | OpenFOAM: The Open Source CFD Toolbox           |
|  \\    /   O peration     | Version:  v1806                                 |
|   \\  /    A nd           | Web:      www.OpenFOAM.com                      |
|    \\/     M anipulation  |                                                 |
\*---------------------------------------------------------------------------*/
FoamFile
{
    version     2.0;
    format      ascii;
    class       volVectorField;
    location    "421";
    object      Ua;
}
// * * * * * * * * * * * * * * * * * * * * * * * * * * * * * * * * * * * * * //

dimensions      [0 1 -1 0 0 0 0];


internalField   nonuniform List<vector> 
6400
(
(5.56726632644e-05 7.73841259049e-05 0)
(0.000153580460487 6.02592531276e-05 0)
(0.000225492703108 4.99432200262e-05 0)
(0.00030663308914 4.56253851507e-05 0)
(0.000366084137787 3.03397918272e-05 0)
(0.000408920861257 1.78032972565e-05 0)
(0.000430134168984 1.30287981421e-05 0)
(0.000446561440701 2.00053303838e-05 0)
(0.000502283184402 2.92894754124e-05 0)
(0.000560968206328 2.88062153021e-05 0)
(0.000583640214371 2.60394208287e-05 0)
(0.000638550024872 2.88705263952e-05 0)
(0.000688973084945 2.76057562313e-05 0)
(0.000731467440403 2.39962355636e-05 0)
(0.000763788994773 2.22956085282e-05 0)
(0.000798721487723 2.50159161999e-05 0)
(0.0008433910643 2.62364677092e-05 0)
(0.000882841435426 2.41560762067e-05 0)
(0.000912785204435 2.05119368122e-05 0)
(0.000940646073687 1.87803043668e-05 0)
(0.000976867318385 2.3860766212e-05 0)
(0.0010232720502 2.98920086368e-05 0)
(0.00107461934088 3.19668752736e-05 0)
(0.00112302650358 3.2180216262e-05 0)
(0.00117003788587 3.08968218948e-05 0)
(0.00121585018289 2.90527551188e-05 0)
(0.00126266630885 2.88316225451e-05 0)
(0.00130779561307 2.81696406919e-05 0)
(0.00134859570205 2.65869031029e-05 0)
(0.00138567207181 2.5328155565e-05 0)
(0.0014190001845 2.55910403129e-05 0)
(0.00145476826004 2.54199230863e-05 0)
(0.0014920011455 2.42639117995e-05 0)
(0.00152648049431 2.51878523318e-05 0)
(0.00156074793974 2.57167053764e-05 0)
(0.00160290788848 2.6458301709e-05 0)
(0.00164444244011 2.82541492667e-05 0)
(0.00167068483873 2.77262270654e-05 0)
(0.00171053176965 2.65531797146e-05 0)
(0.00176039091148 2.77464338733e-05 0)
(0.00180555704448 3.40236906005e-05 0)
(0.00184180940272 3.51757957757e-05 0)
(0.00187517491901 2.64468983252e-05 0)
(0.00190456607979 2.06115705292e-05 0)
(0.00192735838174 1.84654287536e-05 0)
(0.00194645418298 1.61240456807e-05 0)
(0.00196123039105 1.38833058816e-05 0)
(0.00197003068734 1.07662905323e-05 0)
(0.00197342334027 8.1035604898e-06 0)
(0.00197236029738 1.01428229394e-05 0)
(0.00197320363121 1.73615928747e-05 0)
(0.00199300837911 1.72263739006e-05 0)
(0.00198934563211 -1.99234893387e-06 0)
(0.00197639349861 -1.07875900284e-05 0)
(0.00194064587641 -1.79795165664e-05 0)
(0.00184998566247 -3.46725962993e-05 0)
(0.00175634107802 -3.02624893034e-05 0)
(0.00170964615937 -1.71057637612e-05 0)
(0.0016925940596 -2.33478516495e-05 0)
(0.0015886655674 -2.84692122281e-05 0)
(0.00153543324789 -9.59734817801e-06 0)
(0.00146332216663 -2.44196468646e-05 0)
(0.00157536414219 -9.01702245786e-05 0)
(0.0012418650039 -9.50649692158e-05 0)
(0.00100735706003 -6.35260002192e-05 0)
(0.000900651415747 -4.24969003193e-05 0)
(0.000833955140658 -4.02089616957e-05 0)
(0.000780762717919 -3.96337595104e-05 0)
(0.000724240754244 -4.05282777704e-05 0)
(0.000647853187722 -4.24917765258e-05 0)
(0.000567586714764 -4.28280752425e-05 0)
(0.000479031647996 -4.07244844466e-05 0)
(0.000396152023552 -3.91007042441e-05 0)
(0.000337917802971 -4.00310383395e-05 0)
(0.000245873264968 -3.11008877156e-05 0)
(0.000207183942389 -2.65202448827e-05 0)
(0.000133230621539 -1.60773627685e-05 0)
(0.00013359044013 -2.07695538302e-05 0)
(5.65874551082e-05 -1.39185158225e-05 0)
(4.17145122418e-05 -2.5487934244e-05 0)
(2.09553098925e-05 0.000106612349246 0)
(9.03969329804e-05 0.00012049158283 0)
(0.000158109112449 0.000110489413306 0)
(0.000201639648148 8.85471257171e-05 0)
(0.000295141047797 8.78023297832e-05 0)
(0.000384135406626 6.33751386452e-05 0)
(0.00043764226718 4.08205571973e-05 0)
(0.00047532891037 5.42735697469e-05 0)
(0.000516006040832 7.15820831184e-05 0)
(0.000561914340809 7.08207184717e-05 0)
(0.000606415306901 6.73660899168e-05 0)
(0.000648080712553 6.74830676241e-05 0)
(0.000687854686297 6.21554481542e-05 0)
(0.000725143408753 5.45863135086e-05 0)
(0.000763615223619 5.19109410589e-05 0)
(0.00080260853502 6.2515316479e-05 0)
(0.000843107217626 6.70912971419e-05 0)
(0.000877111593151 5.04315455248e-05 0)
(0.000879846278269 3.80914183602e-05 0)
(0.000913402480151 3.97122150051e-05 0)
(0.000959484295816 5.51701629351e-05 0)
(0.00101318558327 7.48035418401e-05 0)
(0.0010745142039 8.00967969412e-05 0)
(0.00112812862467 7.37417032691e-05 0)
(0.00116264500028 6.8699516966e-05 0)
(0.00121489578714 6.73809685634e-05 0)
(0.00126462743507 6.47964075042e-05 0)
(0.00130683507314 6.04445084462e-05 0)
(0.00134599797523 5.60431894414e-05 0)
(0.00138376371791 5.27552743726e-05 0)
(0.00141970793433 5.21561376726e-05 0)
(0.00144700904347 5.06872254975e-05 0)
(0.00148348274088 4.62855814426e-05 0)
(0.00151601082913 4.95729038362e-05 0)
(0.00154596422807 5.43642968198e-05 0)
(0.00159898652398 5.23566296939e-05 0)
(0.00163362410263 5.53635940572e-05 0)
(0.00166099604417 5.89631576996e-05 0)
(0.00170863309913 5.74661055212e-05 0)
(0.00177219859807 5.47707309856e-05 0)
(0.00182059490687 4.79109018328e-05 0)
(0.00177749024634 3.85224398974e-05 0)
(0.00177306525149 3.39812176819e-05 0)
(0.0018078500233 3.25173325139e-05 0)
(0.00183438969782 3.06809526853e-05 0)
(0.00186597239866 2.73504739534e-05 0)
(0.00189876487499 2.17706003853e-05 0)
(0.00192066406429 1.4355805259e-05 0)
(0.00194684961973 6.45320291283e-06 0)
(0.00196316322887 1.50715974986e-07 0)
(0.00195403065867 -2.25757562475e-06 0)
(0.00190376768501 -5.07414874717e-06 0)
(0.00186070993629 -1.08951934894e-05 0)
(0.00197464123874 -3.05484387991e-05 0)
(0.00191952062431 -6.87852636958e-05 0)
(0.00186876613635 -9.32961772785e-05 0)
(0.00188719047034 -8.66367908196e-05 0)
(0.00185980290876 -7.23450805308e-05 0)
(0.00181529904812 -8.43455104406e-05 0)
(0.00177616535798 -0.000102400161862 0)
(0.00176279992714 -0.000118340636278 0)
(0.00142910611195 -0.00012871964099 0)
(0.00155652315981 -0.000251435806211 0)
(0.00124084532876 -0.000278148175796 0)
(0.00102146227942 -0.0002139493078 0)
(0.000856097637143 -0.000146397011769 0)
(0.000766645392319 -0.000108092754291 0)
(0.000746188974815 -0.000100368434576 0)
(0.00069450872047 -0.00010938471764 0)
(0.000632973196067 -0.000123960611056 0)
(0.000547837340396 -0.000130146330725 0)
(0.000457050642581 -0.000123977057463 0)
(0.000366045616987 -0.00010616202741 0)
(0.000318448353735 -9.95326784588e-05 0)
(0.000262844768739 -8.9032766891e-05 0)
(0.000215044158621 -7.78499535752e-05 0)
(0.000169491883139 -6.38060163529e-05 0)
(0.00012983142902 -6.15657073449e-05 0)
(7.90105390406e-05 -6.23386713231e-05 0)
(3.5814955937e-05 -9.83676619417e-05 0)
(3.09961647373e-05 0.000184954047182 0)
(8.73271072139e-05 0.000201717852146 0)
(0.000134233842506 0.000190100303014 7.83026658809e-29)
(0.000232242824861 0.000195107576887 -7.4170464512e-29)
(0.000325428072435 0.000194882257402 -6.67463750659e-29)
(0.000381174296503 0.000158551893208 6.12777762648e-29)
(0.000420509880517 8.93068882945e-05 -6.20393312214e-29)
(0.0004595383988 9.75916408408e-05 6.10681868589e-29)
(0.000502685466778 0.000118640603345 0)
(0.000551486878535 0.000122152903929 0)
(0.000599934290389 0.000116588559702 0)
(0.00064310616768 0.000109539833494 0)
(0.000682581147931 0.000100940179305 0)
(0.000718716854478 9.57434881882e-05 0)
(0.000756356333267 9.4044335391e-05 0)
(0.000795156109036 8.72436679232e-05 0)
(0.000729360004113 6.71583177284e-05 0)
(0.00071452489688 5.57046235303e-05 0)
(0.000748275849925 6.50516505558e-05 0)
(0.000813637882811 9.58863360872e-05 0)
(0.00094734606082 0.000132077221916 0)
(0.00102729077157 0.000143349355373 0)
(0.00106096746971 0.000135705484291 0)
(0.00111418226253 0.000126507176468 0)
(0.0011697552496 0.000121104722182 0)
(0.00121518262277 0.000117415726295 0)
(0.0012578943921 0.00011085816448 0)
(0.00130020990687 0.000103673754546 0)
(0.00133987660251 9.73804109796e-05 0)
(0.00137556568302 9.27894476629e-05 1.24048776882e-28)
(0.00141457985674 8.88887557076e-05 -1.20355822776e-28)
(0.00143522589603 8.53634038265e-05 0)
(0.00146707518127 8.19408933034e-05 0)
(0.00151824811259 8.09067653166e-05 0)
(0.00151444860075 9.12181309317e-05 0)
(0.00156709119863 9.96590191161e-05 0)
(0.00163752608179 9.77707713232e-05 0)
(0.00163953673603 0.000101987756029 0)
(0.00169477008942 0.000112263875674 0)
(0.00176694558638 0.000106533389468 0)
(0.00181772363383 7.85022995461e-05 0)
(0.00184832423937 5.71248657893e-05 0)
(0.00187631089894 5.86593155798e-05 0)
(0.00190385684502 6.26290630614e-05 0)
(0.00192689880839 6.11945435359e-05 0)
(0.00194594713821 5.6620596344e-05 0)
(0.0019616256184 4.79519710867e-05 0)
(0.00197401455547 3.71932657911e-05 0)
(0.00198337052947 2.42932522997e-05 0)
(0.00198937601494 7.07591007167e-06 0)
(0.00199202753682 -1.10535019349e-05 0)
(0.00199072360918 -1.92036039958e-05 0)
(0.00198298148715 -1.27486799706e-05 0)
(0.00194848227494 -3.80116880134e-05 0)
(0.00189365498661 -8.28121645048e-05 0)
(0.0018962951165 -0.000100078462971 0)
(0.00188366127687 -0.000102454646214 0)
(0.00184333272759 -0.000110074620959 0)
(0.00179161695165 -0.000126953414201 0)
(0.00173455888135 -0.000158577458836 0)
(0.00165334296191 -0.00022696276182 0)
(0.00155653227067 -0.000303209449937 0)
(0.00149803133954 -0.000475206404092 0)
(0.0011441949487 -0.000479974835623 0)
(0.000880113555317 -0.000329080752305 0)
(0.000803614012693 -0.000233714700698 0)
(0.000761536352986 -0.000183772352732 0)
(0.000699733957012 -0.000165738010383 0)
(0.000638514429871 -0.00017919562371 0)
(0.000568505271894 -0.000199646192499 0)
(0.000486281151362 -0.000203889474377 0)
(0.000410782433716 -0.000188684227754 0)
(0.000359676210817 -0.000170489037834 0)
(0.000311750525297 -0.000159237643777 0)
(0.000255307715829 -0.000147150118107 0)
(0.000200209064673 -0.000129633742674 0)
(0.000150951971094 -0.000111271389039 0)
(0.000112182056619 -0.000111478810607 0)
(7.57882949568e-05 -0.000136317424437 0)
(1.89769935579e-05 -0.000132451950767 0)
(2.99146299995e-05 0.000276575749045 0)
(4.02115320497e-05 0.0001849421994 0)
(0.000109156571213 0.000287582390223 0)
(0.000202126125464 0.000290793589552 0)
(0.000279489191437 0.000247763031769 0)
(0.000158264788654 9.60739389339e-05 0)
(0.000198200169994 9.90996359172e-05 0)
(0.000376218549961 0.000184160919817 0)
(0.000469228843146 0.000196257882049 0)
(0.000529815411277 0.000180744809343 0)
(0.000586830099236 0.000168449583945 0)
(0.000634930676636 0.00015423755709 0)
(0.000675891595289 0.00014059033445 0)
(0.000705137956193 0.000119356000222 0)
(0.000670979701401 8.67539312384e-05 0)
(0.00064129305056 6.42132842402e-05 0)
(0.000649934985676 6.31562412584e-05 0)
(0.000702756978828 9.34855876668e-05 0)
(0.000813210767848 0.000146135371129 0)
(0.000925138431199 0.000198757072792 0)
(0.000969130325605 0.000209948205305 0)
(0.00101535879738 0.000198314687695 0)
(0.00106835069109 0.000187316705369 0)
(0.00111716384294 0.000178867103916 0)
(0.0011625901522 0.000169635421547 0)
(0.00120566222275 0.000160434366186 0)
(0.0012466644827 0.000152085037453 0)
(0.00129193686038 0.000143901522239 0)
(0.00132735970546 0.000135417563113 0)
(0.00137091087647 0.000128855280527 0)
(0.00139361899425 0.000121947067308 0)
(0.00143705786597 0.000115571934846 0)
(0.00144121351206 0.000106511973725 0)
(0.00147858929471 0.000111866854333 0)
(0.00154684371335 0.000128574650771 0)
(0.00155214224607 0.000142376439539 0)
(0.00161952764036 0.00014939217728 0)
(0.00169245282914 0.000155335787292 0)
(0.00173571985173 0.000161888035699 0)
(0.00177347881475 0.000149841848096 0)
(0.00181105423639 0.000121299854354 0)
(0.00184487688525 9.71444988804e-05 0)
(0.00187563192151 8.8147558334e-05 0)
(0.00190333262192 8.50142592789e-05 0)
(0.00192655388513 7.99442659616e-05 0)
(0.00194579079438 7.17864324047e-05 -1.15196931234e-28)
(0.00196162597968 6.04860183907e-05 1.16062192125e-28)
(0.00197416495047 4.66802322434e-05 0)
(0.0019834177298 3.038829683e-05 0)
(0.00198909965991 1.15325583991e-05 0)
(0.00199051623883 -7.42189562197e-06 0)
(0.00198554673923 -2.35583240139e-05 0)
(0.00197108707372 -4.1931405659e-05 0)
(0.00194521502557 -7.330679515e-05 0)
(0.00191672422257 -0.000102866073815 0)
(0.00189202206683 -0.000121018385721 0)
(0.00185972669208 -0.000140255264077 0)
(0.0018104056098 -0.000164195938329 -2.30793389744e-28)
(0.00174323929087 -0.00019750455609 2.67584699313e-28)
(0.00165537283808 -0.000250473348124 0)
(0.00153998849683 -0.000332494790034 0)
(0.00140368751081 -0.00045122321966 0)
(0.00127927792376 -0.000630486717051 0)
(0.00111185434684 -0.000675349399786 0)
(0.000937596589555 -0.00050330214791 0)
(0.000765048538263 -0.000311647363603 0)
(0.000689600301538 -0.000241905251899 0)
(0.000635587237671 -0.000230495706891 0)
(0.00057960372219 -0.000246589478248 0)
(0.000526935615707 -0.00027492567422 0)
(0.000461152278604 -0.000281794792861 0)
(0.000394333221662 -0.000261670230063 0)
(0.000330355069522 -0.000235349854713 0)
(0.000258361347146 -0.000208713496831 0)
(0.000204901877039 -0.000194550656455 0)
(0.000156571998269 -0.000183784031099 0)
(0.000107458127444 -0.000159793333617 0)
(6.06064725002e-05 -0.000123296295035 0)
(4.34672998857e-05 -0.000149609751089 0)
(1.42483001504e-05 -0.000169145723965 0)
(1.30467472825e-06 0.000273875438943 0)
(1.96524794372e-05 0.0002253078384 0)
(9.84011206691e-05 0.00037727240814 0)
(0.000170916976567 0.000349773475625 0)
(0.000180373080833 0.000228860699453 0)
(0.000142692169935 0.000129061229507 0)
(0.000247016446162 0.000212894971057 0)
(0.000382917997519 0.000302631458378 0)
(0.000437125075333 0.000275707760584 0)
(0.000503048889238 0.000245688114332 0)
(0.000563917759456 0.000229329994118 0)
(0.000615304389711 0.000204834720473 0)
(0.000623188464943 0.000152497406061 0)
(0.000573768587177 9.65319799055e-05 0)
(0.000590838080212 7.95790777367e-05 0)
(0.000636359365274 9.22206136712e-05 0)
(0.000713603357818 0.000131121875859 0)
(0.000811196016909 0.000190310770119 0)
(0.000885027547495 0.000236091459101 0)
(0.000912186900388 0.000246341174732 0)
(0.000957221234465 0.000250846868653 0)
(0.00101277379537 0.000250256369385 0)
(0.00106107753547 0.000239553078026 0)
(0.00110775774709 0.0002261040897 0)
(0.00115163507887 0.000213628718093 0)
(0.00119232461475 0.000203570281235 0)
(0.00123869365999 0.000194121756805 0)
(0.00127154225084 0.000183221533535 0)
(0.00132190305409 0.000174094558731 0)
(0.00134111817533 0.000162312739839 0)
(0.00139524017203 0.000154818256868 1.18578123883e-28)
(0.00138222735792 0.000141859437814 -1.11186766336e-28)
(0.00144469130253 0.000143920340243 0)
(0.00150344185596 0.000152762608944 0)
(0.00151650621251 0.000168818178279 0)
(0.00159507737544 0.000196334343295 0)
(0.00164938573 0.000212273261119 0)
(0.00169575744024 0.000209083227819 0)
(0.00173564727066 0.000199002607827 0)
(0.00177219574665 0.000182331566854 0)
(0.00180870596674 0.000157674761992 0)
(0.00184354085419 0.000134356635821 0)
(0.00187530838188 0.000119815666394 0)
(0.0019032901997 0.000110517752186 0)
(0.00192688989295 0.000101035020361 0)
(0.0019465513189 8.92787514713e-05 0)
(0.00196269191474 7.47847123131e-05 0)
(0.00197534840103 5.76535292701e-05 0)
(0.00198428189072 3.77733266366e-05 0)
(0.00198894587259 1.5173402515e-05 0)
(0.00198834277071 -9.07004515605e-06 0)
(0.00198057931904 -3.43089583974e-05 0)
(0.0019636662981 -6.29860369653e-05 0)
(0.00193765411062 -9.70395855288e-05 0)
(0.00190694102405 -0.000129576413463 0)
(0.00187283340661 -0.000158813692864 0)
(0.00182719693321 -0.000192659859912 0)
(0.00176089689631 -0.000236494151103 0)
(0.00166872015536 -0.000294870694082 0)
(0.00154870159361 -0.000373831885443 0)
(0.00140617061645 -0.000476561263818 0)
(0.00126284919259 -0.000603359738397 0)
(0.00113553200474 -0.00074447962078 0)
(0.00106301334578 -0.000798992984087 0)
(0.00093618202172 -0.000646690244457 0)
(0.000775196231984 -0.000443712642771 0)
(0.000673073258319 -0.000342948994542 0)
(0.000588760174554 -0.000305734073459 0)
(0.000520149944458 -0.000308471187726 0)
(0.000465714496439 -0.000333179388326 0)
(0.000410756944837 -0.000349790564986 0)
(0.000343725710066 -0.000331605595441 0)
(0.000266464910668 -0.000287476961408 0)
(0.000211530128047 -0.000264324138724 0)
(0.000160690198058 -0.00025261685694 0)
(0.000112182109929 -0.000235685184494 0)
(7.07563409977e-05 -0.000188130171462 0)
(4.35221724464e-05 -0.000153870675077 0)
(2.59239641977e-05 -0.000182820254133 0)
(5.89496315686e-06 -0.000184960074584 0)
(-1.75285234105e-06 0.000254701659692 0)
(2.45402235578e-05 0.000273732873081 0)
(9.90917103097e-05 0.00042885684035 0)
(0.00013833499532 0.000357861364562 0)
(0.000102792568907 0.000177863799628 0)
(0.000142393256415 0.00018413583912 0)
(0.000308786560936 0.000345359832031 0)
(0.000365480643905 0.000364350653015 0)
(0.000412783864839 0.000336048915021 0)
(0.000470934802596 0.000310728774834 0)
(0.000530308441731 0.0002742460457 0)
(0.000495945133499 0.000193417543291 0)
(0.000454598562098 0.000120490125499 0)
(0.000495219600974 0.000108556737793 0)
(0.000549275689941 0.000127956972283 0)
(0.000648550458352 0.000175516156094 0)
(0.000754985778619 0.000229477453126 0)
(0.000828687404417 0.000261452732006 0)
(0.000843983999741 0.000265706853098 0)
(0.00089475114183 0.000286277406395 0)
(0.000955593538754 0.000304343259675 0)
(0.00100280710338 0.000300770081564 0)
(0.00104840147761 0.000287561005775 0)
(0.00109216695459 0.000272547576172 0)
(0.00114095215823 0.000259409019479 0)
(0.0011816939134 0.000244016449827 0)
(0.00120488675152 0.000232368099711 0)
(0.00126816457783 0.000225151404812 0)
(0.00127511243679 0.000206690530033 0)
(0.00134509593796 0.00019524294928 0)
(0.00131262103202 0.00017470301248 0)
(0.00139757970439 0.000181221759904 0)
(0.00137928943111 0.00018151636672 0)
(0.00146740918455 0.000202350579288 0)
(0.00155423504914 0.000233684946007 0)
(0.00160999870897 0.000257731517275 0)
(0.00165432038561 0.000259836209582 0)
(0.00169526211439 0.000250543877943 0)
(0.00173367830979 0.000236235968124 0)
(0.00177080714061 0.000217468240614 0)
(0.00180731296041 0.000193955630397 0)
(0.00184239499465 0.000170412695904 0)
(0.00187468955837 0.000151663548287 0)
(0.00190309927214 0.000136861271096 0)
(0.00192730345426 0.000122706463569 0)
(0.00194753852827 0.000107087987713 0)
(0.00196411317853 8.91025648024e-05 0)
(0.00197686425289 6.8331980804e-05 0)
(0.00198523915296 4.43603068334e-05 0)
(0.00198847807212 1.69627153317e-05 0)
(0.00198551500849 -1.36263736388e-05 0)
(0.00197483206622 -4.73667128981e-05 0)
(0.00195519160031 -8.48095984537e-05 0)
(0.00192681342092 -0.000125156332078 0)
(0.00189098339194 -0.000165781252001 0)
(0.0018455073691 -0.000209209337923 0)
(0.0017824597829 -0.000262915679599 0)
(0.0016940915849 -0.00033199816486 0)
(0.0015784930906 -0.000417834093521 0)
(0.0014387574978 -0.000517308123442 0)
(0.00129119415867 -0.000626241397864 0)
(0.00115785085417 -0.000732842145629 0)
(0.000988094339876 -0.000785259714781 0)
(0.00102228634518 -0.00091953140616 0)
(0.000836318014822 -0.00074159406744 0)
(0.000702672359851 -0.000537248510959 0)
(0.000623335948954 -0.000440518089827 0)
(0.000536988300358 -0.000388009766429 0)
(0.000458806267546 -0.000371521062666 0)
(0.000407613373841 -0.000399717740627 0)
(0.000353128390745 -0.000423256603009 0)
(0.000278039774182 -0.000382183357733 0)
(0.000217707501929 -0.000340431303041 0)
(0.000167261395492 -0.000323531282276 0)
(0.000113934616587 -0.000305315826648 0)
(7.49082232333e-05 -0.000274884505821 0)
(4.46746510876e-05 -0.00020771528496 0)
(2.48557371585e-05 -0.000175559060348 0)
(1.19798324487e-05 -0.000198805637987 0)
(2.76131400856e-06 -0.000193287948673 0)
(8.07168750589e-06 0.000275870918899 0)
(5.70407166329e-05 0.000356725325942 0)
(0.000128753790009 0.000465077305558 0)
(0.000141365709473 0.000434386627627 0)
(9.47631997105e-05 0.000222755780284 0)
(0.000204453644505 0.000324302741575 0)
(0.000315951350613 0.000420858425076 0)
(0.000346084640161 0.000408530560569 0)
(0.00039110113513 0.000382680716469 0)
(0.000422143651612 0.000352821567759 0)
(0.000495127544992 0.000302258952123 -2.83714829365e-28)
(0.000384281882797 0.000159184586938 1.68030850392e-28)
(0.000443448660622 0.00014847176882 0)
(0.000479103684333 0.000162067600007 0)
(0.000566850094399 0.000213795444612 0)
(0.000683413803815 0.000284290963648 0)
(0.000761493872795 0.000309460366268 0)
(0.000761923225297 0.000288621957028 0)
(0.00081800143893 0.000308907591661 0)
(0.000892620231953 0.000346310864887 0)
(0.000939267795298 0.000355862625525 0)
(0.000987502953801 0.000348624987246 0)
(0.00103470027716 0.000335228710611 0)
(0.00108013965488 0.000317893603345 0)
(0.0011160451334 0.000297206817614 0)
(0.00114283824808 0.000277562137037 0)
(0.00120189430499 0.000270495693531 0)
(0.00119690547942 0.000256436285155 0)
(0.00128371300155 0.000245421037136 0)
(0.00124223402716 0.00020660013465 0)
(0.00133473531542 0.000211989026385 0)
(0.00132345334378 0.00021722953589 -1.07693512498e-28)
(0.00141223664955 0.000238098780735 1.12351734157e-28)
(0.0014687554635 0.000273867922898 0)
(0.00156537153436 0.000307074826772 0)
(0.00161320805146 0.000310942204761 0)
(0.00165289507026 0.000302554037221 0)
(0.00169222070957 0.000289682260229 0)
(0.00173141741387 0.000273588782536 0)
(0.00176955229255 0.000253786971089 0)
(0.0018063288745 0.000230270559907 0)
(0.00184160640447 0.000205822153003 0)
(0.00187424802839 0.000183642833744 0)
(0.00190315664678 0.000164054007266 0)
(0.00192801936387 0.000145291125797 0)
(0.00194896411398 0.000125583918296 0)
(0.00196604687778 0.000103714276957 0)
(0.00197880172478 7.87581438554e-05 0)
(0.00198641122532 4.99337596185e-05 0)
(0.00198799109029 1.67397113814e-05 0)
(0.00198250848395 -2.09714309762e-05 0)
(0.00196871104969 -6.3145067025e-05 0)
(0.00194561709146 -0.000109469583265 0)
(0.00191276248052 -0.00015918885372 0)
(0.00186900093106 -0.000212835405933 0)
(0.00180997297122 -0.000275253771129 0)
(0.00172846007752 -0.000352877079861 0)
(0.0016201955407 -0.000447277485893 0)
(0.0014894551145 -0.000553050996069 0)
(0.00135065761043 -0.000660421126207 0)
(0.00121857143126 -0.000759263822197 0)
(0.00110284115453 -0.000843252736038 0)
(0.0010140955643 -0.000924462239324 0)
(0.000967784848227 -0.00100106771452 0)
(0.000809091780418 -0.000858462633179 0)
(0.000618320766297 -0.000609764902174 0)
(0.000564975507295 -0.000526145956309 0)
(0.000491563617529 -0.000479920945606 0)
(0.00041352785109 -0.00045802692132 0)
(0.000351762359693 -0.000474767144117 0)
(0.000291993078517 -0.000474997930122 0)
(0.000228504766679 -0.000428174321136 0)
(0.000176499297805 -0.000402726798037 0)
(0.000118649921923 -0.000381236483048 0)
(6.94740395738e-05 -0.000351908219775 0)
(3.90522539693e-05 -0.000291685575446 0)
(1.97478037085e-05 -0.000232658069116 0)
(1.5877647395e-06 -0.000191578136232 0)
(-4.86473138939e-06 -0.000202538585987 0)
(-1.67884751511e-06 -0.000198687899931 0)
(1.75187948084e-05 0.000320323677331 0)
(8.11880555851e-05 0.000435962550004 0)
(0.000143189285054 0.000481201424206 0)
(8.73601347199e-05 0.000288937028525 0)
(9.80685341906e-05 0.000276053002975 0)
(0.000237127144476 0.000449332927842 0)
(0.000287528731786 0.000463920022845 0)
(0.000329573251365 0.000451616893072 0)
(0.000352927617901 0.000413807707585 0)
(0.000400097278045 0.000385109324813 0)
(0.000324985792468 0.000231503633784 0)
(0.000372174969244 0.000188117591798 0)
(0.000424473564523 0.000194212823276 0)
(0.000471133547891 0.000227649243468 0)
(0.000599557225283 0.000318623546002 0)
(0.00068979839427 0.000363570512106 0)
(0.000683682292357 0.000329348390983 0)
(0.000729545944594 0.00033246064286 0)
(0.000815030787267 0.00037810807453 0)
(0.00087513460584 0.000403570508112 0)
(0.000918542303288 0.000403608842504 0)
(0.000962858525782 0.000394631959991 0)
(0.00101429452953 0.000384097078226 0)
(0.00105856559984 0.000364271599878 0)
(0.00110765628987 0.000335228908642 0)
(0.00111519230399 0.000315454890894 0)
(0.00118688267783 0.000307279003629 0)
(0.00119772605413 0.000286105474717 0)
(0.00119886216181 0.00026107866099 0)
(0.00124336363773 0.000252268708673 0)
(0.00134650097 0.000263357920836 0)
(0.00134621789329 0.000260356012441 0)
(0.00138318752784 0.000298211696448 0)
(0.00151247881978 0.000354884106184 0)
(0.00156325812413 0.000369709625209 0)
(0.00160735420567 0.000358729441433 0)
(0.0016486613504 0.00034420059803 0)
(0.00168872247245 0.000329217498314 0)
(0.00172884612493 0.000312042465136 0)
(0.00176810672212 0.000291259602369 0)
(0.00180556058657 0.000266936061351 0)
(0.00184109272575 0.000241019601932 0)
(0.00187411075862 0.000215779448449 0)
(0.00190365997914 0.000191961722052 0)
(0.00192932034553 0.000168769050128 -1.11334973265e-28)
(0.00195108811351 0.000144808333925 1.11038348296e-28)
(0.00196871951872 0.000118610032722 0)
(0.00198142491769 8.88050965081e-05 0)
(0.00198816504503 5.43097293496e-05 0)
(0.00198799309955 1.44324502833e-05 0)
(0.00197988192456 -3.1121608981e-05 0)
(0.00196267366957 -8.23223872048e-05 0)
(0.00193530346545 -0.000138920846448 0)
(0.00189637023128 -0.000201292225259 0)
(0.00184289836577 -0.000272154553752 0)
(0.00176970788659 -0.000356835896238 0)
(0.00167190277053 -0.000458649536796 0)
(0.00155067291944 -0.000573516569489 0)
(0.00141679981264 -0.000689988874082 0)
(0.0012850526814 -0.000794154337933 0)
(0.00116431310621 -0.000874810367888 0)
(0.00106486003743 -0.000936781993038 0)
(0.000991241990695 -0.000994883117479 0)
(0.000931516805454 -0.00105662011984 0)
(0.000923261783165 -0.00109245974427 0)
(0.000619997047674 -0.000744678198901 0)
(0.000494081346881 -0.00060685178801 0)
(0.000422573488938 -0.000555742500611 0)
(0.000347246994032 -0.000526559939573 0)
(0.000291182956143 -0.000528209829022 0)
(0.000242307215988 -0.00051515295275 0)
(0.000188970446868 -0.000484763802182 0)
(0.00012967298322 -0.000467520881457 0)
(6.79613729967e-05 -0.000437881525083 0)
(2.35135950317e-05 -0.000387456679442 0)
(-1.18965830384e-06 -0.000310074627958 0)
(-1.74727583753e-05 -0.000253394932396 0)
(-2.90198530284e-05 -0.000206298513535 0)
(-2.78377002851e-05 -0.000195981977287 0)
(-1.05449642764e-05 -0.000191793452238 0)
(2.45755462937e-05 0.000376598979198 0)
(9.20277310247e-05 0.000499547412106 0)
(0.000116937060596 0.000492534869739 0)
(8.18702771406e-05 0.000315807444104 0)
(0.000137900703098 0.000364283909238 0)
(0.000242509355699 0.000507754164373 0)
(0.000259916026766 0.000503410500613 0)
(0.00031340699595 0.000490894306787 0)
(0.000298064079664 0.00040978385448 0)
(0.0003894608378 0.000431629442917 0)
(0.000306400144395 0.000254900818436 0)
(0.000370097298449 0.000237299211106 0)
(0.000411295115432 0.000248649107242 0)
(0.000496347219722 0.000321706455897 0)
(0.000606890047682 0.000411536891756 0)
(0.000664075599544 0.000412653418254 0)
(0.000655074638844 0.00036721996974 0)
(0.00072212965281 0.000397699237575 0)
(0.000796165013585 0.000442565036572 0)
(0.000849226159389 0.000456417523926 0)
(0.000898347835473 0.000451792329157 0)
(0.000937822390305 0.00043852541615 0)
(0.000985731878593 0.000426768257847 0)
(0.00101571314276 0.000403654067289 0)
(0.00103911103605 0.000362212915785 0)
(0.001116118426 0.000354062751261 0)
(0.00108354182628 0.000330854897499 0)
(0.00121256303917 0.000328279351134 0)
(0.00117322006069 0.000301450416806 0)
(0.00129575433023 0.000316672995098 0)
(0.00125744854487 0.000295485611079 0)
(0.00138300732006 0.00032506197663 0)
(0.00144785389017 0.000378182013319 -1.20571431159e-28)
(0.00150961542189 0.000418667108571 1.22926592651e-28)
(0.00155635043582 0.000418772265339 0)
(0.00160022395841 0.000404016064368 0)
(0.00164345851104 0.000387154245583 0)
(0.00168502960013 0.000370235057348 0)
(0.00172602344612 0.000351736932826 0)
(0.001766189558 0.000329827706725 0)
(0.00180461235771 0.000304232667054 0)
(0.00184083195495 0.000276440589925 0)
(0.00187440865849 0.000248285023542 0)
(0.0019047349115 0.000220643731706 0)
(0.00193143449135 0.000193210816088 0)
(0.00195419964849 0.000164825888383 0)
(0.00197244257513 0.0001338248655 0)
(0.00198513954895 9.84850746006e-05 0)
(0.00199110820277 5.74834159944e-05 0)
(0.00198925944009 1.00494667184e-05 0)
(0.00197851409447 -4.42403620414e-05 0)
(0.001957715818 -0.000105564601664 0)
(0.00192555418728 -0.000174365762522 0)
(0.00187972369663 -0.000252397518662 0)
(0.00181611825221 -0.000343485949826 0)
(0.00172994662099 -0.00045123763379 0)
(0.00161999118187 -0.000573919586608 0)
(0.00149320628669 -0.000702431393321 0)
(0.00136275016879 -0.000824792238784 0)
(0.00123582978575 -0.000925469329486 0)
(0.00111619900395 -0.000986851691564 0)
(0.00101478922249 -0.00101934878637 0)
(0.000942577576289 -0.00105348699063 0)
(0.000893681170012 -0.00109783123921 0)
(0.000892539497758 -0.00114559366708 0)
(0.000771351634917 -0.00102417278212 0)
(0.000464173576445 -0.000703652331811 0)
(0.000347982955985 -0.00063598195228 0)
(0.000290345053151 -0.000597534182261 0)
(0.000245679375411 -0.00057280704262 0)
(0.000204094240598 -0.000556517798733 0)
(0.000150182531008 -0.000550929211754 0)
(8.01252072669e-05 -0.000537408589821 0)
(1.40862777522e-05 -0.000493402904781 0)
(-3.07713204284e-05 -0.000417623262038 0)
(-5.5959996176e-05 -0.000332528399088 0)
(-6.99671006727e-05 -0.000265811470813 0)
(-7.1008848801e-05 -0.000211971000274 0)
(-5.43869340463e-05 -0.000177927726362 0)
(-2.06737074739e-05 -0.000161319870803 0)
(3.00232805902e-05 0.000446431688136 0)
(0.000101957345888 0.000545548218717 0)
(0.000105079804751 0.000484808354102 0)
(8.17649018082e-05 0.0003386220771 0)
(0.000176934122259 0.000491261084976 0)
(0.000213892652954 0.000520653703631 0)