/*--------------------------------*- C++ -*----------------------------------*\
| =========                 |                                                 |
| \\      /  F ield         | OpenFOAM: The Open Source CFD Toolbox           |
|  \\    /   O peration     | Version:  v1806                                 |
|   \\  /    A nd           | Web:      www.OpenFOAM.com                      |
|    \\/     M anipulation  |                                                 |
\*---------------------------------------------------------------------------*/
FoamFile
{
    version     2.0;
    format      ascii;
    class       volVectorField;
    location    "681";
    object      U;
}
// * * * * * * * * * * * * * * * * * * * * * * * * * * * * * * * * * * * * * //

dimensions      [0 1 -1 0 0 0 0];


internalField   nonuniform List<vector> 
6400
(
(-0.000114161283145 -0.00014953180873 0)
(-0.000302567401521 -0.000109133366145 0)
(-0.000438594030565 -8.50348955158e-05 0)
(-0.000582711847496 -7.30537690938e-05 0)
(-0.000688337786059 -4.63726494186e-05 0)
(-0.000765149257018 -2.63676876847e-05 0)
(-0.000808829809956 -1.8703276579e-05 0)
(-0.000845239201352 -2.83159544092e-05 0)
(-0.000932678724055 -3.91486049893e-05 0)
(-0.00101810480479 -3.66378374231e-05 0)
(-0.00105939752814 -3.26969281456e-05 0)
(-0.00113581077921 -3.38292412026e-05 0)
(-0.00120444642396 -3.00095526761e-05 0)
(-0.00125951439967 -2.40960962468e-05 0)
(-0.00130076392037 -2.14267056341e-05 0)
(-0.00134324356253 -2.38941676641e-05 0)
(-0.00139455892583 -2.44282771284e-05 0)
(-0.00143878398412 -2.10160201401e-05 0)
(-0.0014719099891 -1.65002837624e-05 0)
(-0.00150343557779 -1.46478596674e-05 0)
(-0.00154338992842 -1.92741898651e-05 0)
(-0.00159085570096 -2.4019845868e-05 0)
(-0.00163965850976 -2.44726050954e-05 0)
(-0.00168322598429 -2.30730985373e-05 0)
(-0.0017234083264 -2.07595274781e-05 0)
(-0.00176146831151 -1.82333885616e-05 0)
(-0.0017986238429 -1.68587718654e-05 0)
(-0.00183212737993 -1.51461530558e-05 0)
(-0.00186014968827 -1.29288813932e-05 0)
(-0.00188335270966 -1.11869099356e-05 0)
(-0.00190222251189 -1.05991410892e-05 0)
(-0.0019213676585 -9.60080562926e-06 0)
(-0.00194048929794 -7.9133597101e-06 0)
(-0.00195621999635 -7.65956345982e-06 0)
(-0.00197089952731 -7.43708628446e-06 0)
(-0.00198947379101 -7.0068685043e-06 0)
(-0.00200444793806 -7.08287956432e-06 0)
(-0.00200957663456 -6.19548576697e-06 0)
(-0.00202190687369 -4.39281347729e-06 0)
(-0.00203804340239 -3.09927326974e-06 0)
(-0.00204588084456 -3.90382212771e-06 0)
(-0.00204388386135 -2.95756287575e-06 0)
(-0.00203932849322 1.71072160197e-06 0)
(-0.00203327210869 5.13203965357e-06 0)
(-0.00202284821657 6.91856857776e-06 0)
(-0.00200845989298 8.93888998557e-06 0)
(-0.00198965394143 1.11580233038e-05 0)
(-0.00196548072572 1.39152519399e-05 0)
(-0.00193590801563 1.66636281702e-05 0)
(-0.00190069233106 1.76622476299e-05 0)
(-0.00186232519038 1.68749560246e-05 0)
(-0.00182576843961 1.928823757e-05 0)
(-0.00177937082293 2.79746032004e-05 0)
(-0.00172550108758 3.3837399525e-05 0)
(-0.00165495922507 3.92135095552e-05 0)
(-0.00155969010385 4.69963636646e-05 0)
(-0.00145905223479 4.82717006457e-05 0)
(-0.00136905911793 4.83458534402e-05 0)
(-0.00127453394437 5.56846667678e-05 0)
(-0.00114486201684 6.23965155727e-05 0)
(-0.00101103639805 6.51593179506e-05 0)
(-0.000863373807123 8.11595531282e-05 0)
(-0.000726008090045 0.00011703980821 0)
(-0.000457651929749 0.000122363977459 0)
(-0.000208070546824 8.28643410681e-05 0)
(-7.91132779183e-05 5.67685549027e-05 0)
(8.72205050395e-06 4.5305856171e-05 0)
(8.58094009345e-05 3.88793187883e-05 0)
(0.000160571854931 3.44556844796e-05 0)
(0.000225816931097 2.8436238152e-05 0)
(0.000278254873199 2.01543794504e-05 0)
(0.000304464339206 9.58227097021e-06 0)
(0.000305180309042 -1.97515429173e-06 0)
(0.000304790365878 -1.45755983242e-05 0)
(0.000249264424802 -1.77981457378e-05 0)
(0.000232563050333 -1.99811492592e-05 0)
(0.000160561431004 -1.39313691258e-05 0)
(0.000171715498962 -2.26660205723e-05 0)
(7.52867874749e-05 -1.75174927682e-05 0)
(5.6572093051e-05 -3.36664487347e-05 0)
(-4.36617078385e-05 -0.000212699833387 0)
(-0.000184615744508 -0.000234669601748 0)
(-0.000320134017696 -0.00020797368442 0)
(-0.000408903579082 -0.00016641146373 0)
(-0.000582279488138 -0.000160566662764 0)
(-0.000732578225031 -0.00011314309383 0)
(-0.000820099372038 -7.36925336572e-05 0)
(-0.000881375595204 -9.1068467439e-05 0)
(-0.000946366617076 -0.000113596592836 0)
(-0.00101795760641 -0.000110141987234 0)
(-0.00108521757808 -0.000101619685917 0)
(-0.00114661977915 -9.67845193048e-05 0)
(-0.00120341379237 -8.53184691938e-05 0)
(-0.00125386761091 -7.176937101e-05 0)
(-0.00130234605874 -6.55640015956e-05 0)
(-0.00134832103167 -7.51679057221e-05 0)
(-0.00139492929377 -7.81892866467e-05 0)
(-0.00143384852735 -5.82265529856e-05 0)
(-0.00144174609879 -4.34195990661e-05 0)
(-0.00148075397784 -4.48949841317e-05 0)
(-0.00153149885297 -6.00096230217e-05 0)
(-0.00158486412555 -7.64082833633e-05 0)
(-0.00164106186116 -7.70706498964e-05 0)
(-0.001688041801 -6.7707877076e-05 0)
(-0.00171900594024 -6.04667647223e-05 0)
(-0.00176161738904 -5.62654690618e-05 0)
(-0.00180087952857 -5.11352992682e-05 0)
(-0.00183236268665 -4.48099976777e-05 0)
(-0.00185941477596 -3.87121048608e-05 0)
(-0.00188353998782 -3.38529262716e-05 0)
(-0.00190403487271 -3.11139509105e-05 0)
(-0.00191796936969 -2.77523461015e-05 0)
(-0.00193697793107 -2.25755690901e-05 0)
(-0.00195182580781 -2.25741618422e-05 0)
(-0.0019643790487 -2.39937240358e-05 0)
(-0.0019888744034 -2.11019272917e-05 0)
(-0.00200085262631 -2.05277941549e-05 0)
(-0.00200611990591 -2.03296698456e-05 0)
(-0.00202240428011 -1.65509882681e-05 0)
(-0.00204583669994 -1.04914765016e-05 0)
(-0.00205506123959 -2.22730316601e-06 0)
(-0.00202113725281 5.23828227912e-06 0)
(-0.00200035593543 9.86521621726e-06 0)
(-0.00199839718649 1.33200666076e-05 0)
(-0.001990782142 1.72533270948e-05 0)
(-0.00198192620092 2.24259415026e-05 0)
(-0.00197016209805 2.90627018576e-05 0)
(-0.001950904441 3.6800449178e-05 0)
(-0.00192995298314 4.52140437487e-05 0)
(-0.00190180816245 5.32347106096e-05 0)
(-0.00185970973715 5.96954194116e-05 0)
(-0.00179749595985 6.57883326197e-05 0)
(-0.00173943084035 7.43771277989e-05 0)
(-0.00172505763412 9.15611760249e-05 0)
(-0.00164755816603 0.000113732563327 0)
(-0.00156300444041 0.000131064887926 0)
(-0.0014930692055 0.000139862042458 0)
(-0.00140184535096 0.000148917708196 0)
(-0.0012942518531 0.000168289652022 0)
(-0.00117723924876 0.000192749321831 0)
(-0.00104371480805 0.000219988806749 0)
(-0.000840241714334 0.000250796261847 0)
(-0.000701594633069 0.000344476286137 0)
(-0.000446955597756 0.000367749322144 0)
(-0.000217117616833 0.000271526681543 0)
(-7.49696981111e-05 0.000172267397452 0)
(1.58587267108e-05 0.000127805148464 0)
(9.77242674377e-05 0.000116940914863 0)
(0.00017333029905 0.000105565057627 0)
(0.000241781102403 8.83180818183e-05 0)
(0.000289446562902 5.90762708359e-05 0)
(0.000310750819735 2.33757935469e-05 0)
(0.000301462828445 -5.826086643e-06 0)
(0.000307163059294 -3.11624679164e-05 0)
(0.000285832444009 -4.82831635867e-05 0)
(0.000257033100031 -5.76889517457e-05 0)
(0.000218527447818 -5.75780643513e-05 0)
(0.000177729459084 -6.9074997821e-05 0)
(0.000111534164926 -7.97237315553e-05 0)
(5.22521752369e-05 -0.000134668469431 0)
(-6.3542198804e-05 -0.000366807970551 0)
(-0.00017667756785 -0.000392214145159 0)
(-0.000274084954934 -0.000358577751495 -8.7029367797e-29)
(-0.000453193323751 -0.00035351650105 7.98832935321e-29)
(-0.000616005390531 -0.000340924038257 6.96582562681e-29)
(-0.000722338699 -0.000272096681843 -6.32548934023e-29)
(-0.000799667228636 -0.000149396723942 6.31668388101e-29)
(-0.000863755795206 -0.000154658619928 -6.08100081077e-29)
(-0.000931109036187 -0.000185309881674 0)
(-0.00100692634877 -0.000185846064901 0)
(-0.00108030268912 -0.000172163376894 0)
(-0.001144735355 -0.000155463821516 0)
(-0.00120166341085 -0.00013639622333 0)
(-0.00125092161074 -0.000121933137307 0)
(-0.00130076534077 -0.000113762546732 0)
(-0.00134744381989 -0.000102323204985 0)
(-0.00127827776709 -8.02995080643e-05 0)
(-0.00125970179401 -6.65802363417e-05 0)
(-0.00130425708518 -7.7071303996e-05 0)
(-0.00138617254228 -0.000108820213214 0)
(-0.00152638669382 -0.000136766335872 0)
(-0.00160001082254 -0.000138778039047 0)
(-0.00163281221499 -0.000126291856662 0)
(-0.00167972968106 -0.000112363024741 0)
(-0.0017267842771 -0.000102146637359 0)
(-0.0017642667418 -9.42118902299e-05 0)
(-0.00179838183364 -8.4274017242e-05 0)
(-0.00183029090733 -7.38241162448e-05 0)
(-0.00185803640479 -6.4419199909e-05 0)
(-0.0018812639715 -5.68390708652e-05 -1.11756184105e-28)
(-0.00190385526824 -5.02607539867e-05 1.08009477428e-28)
(-0.00191321712686 -4.4379240649e-05 0)
(-0.00193051900675 -3.79966999367e-05 0)
(-0.001956716505 -3.37564373856e-05 0)
(-0.00194999478702 -3.83571078658e-05 0)
(-0.0019753428816 -3.99359214247e-05 0)
(-0.00200628026619 -3.43357506566e-05 0)
(-0.00199980700165 -3.32809492719e-05 0)
(-0.00201820437666 -3.2937816924e-05 0)
(-0.00204379061856 -2.19999289511e-05 0)
(-0.00205420606031 -9.16712937668e-07 0)
(-0.0020505303293 1.50948277732e-05 0)
(-0.00204380835096 1.93262888664e-05 0)
(-0.00203675025224 2.20638179689e-05 0)
(-0.00202614223258 2.8089311421e-05 0)
(-0.00201135336905 3.64099298754e-05 0)
(-0.00199250358963 4.70845573232e-05 0)
(-0.00196940394904 5.91759789538e-05 0)
(-0.00194203950958 7.2659551462e-05 0)
(-0.00190981453783 8.82881486015e-05 0)
(-0.00187190841354 0.000104504064207 0)
(-0.00182809837631 0.000117240910262 0)
(-0.00177857947821 0.00012732433597 0)
(-0.00171485605544 0.000150430104953 0)
(-0.00163755116056 0.000181543879008 0)
(-0.00157066662682 0.000205423710531 0)
(-0.00149198665317 0.000225993514273 0)
(-0.00139480329871 0.000251246931829 0)
(-0.00128278840666 0.000283570858059 0)
(-0.00115616599412 0.00032476483789 0)
(-0.00100618384838 0.000380269380888 0)
(-0.000839873457295 0.000460914308742 0)
(-0.000657268450662 0.000582077817089 0)
(-0.000413168160829 0.000570113141194 0)
(-0.00019385160321 0.00040161790015 0)
(-6.18779353198e-05 0.000288730411575 0)
(3.84091086612e-05 0.000232540898267 0)
(0.000122226389433 0.000197962243021 0)
(0.000193518718068 0.000170859546508 0)
(0.000253538404183 0.000136496902379 0)
(0.000296309562116 8.98228510424e-05 0)
(0.000323077849651 4.0799691695e-05 0)
(0.000346529763723 -5.49846427119e-07 0)
(0.000347658430981 -4.4361405119e-05 0)
(0.000314716453602 -8.20602211619e-05 0)
(0.000269248980662 -9.93378967959e-05 0)
(0.000220376249268 -0.000105078471009 0)
(0.000173737464337 -0.000130694162954 0)
(0.000121715959313 -0.000185665538299 0)
(3.1946076996e-05 -0.000190046016039 0)
(-6.30813612205e-05 -0.000538495660361 0)
(-8.91680326435e-05 -0.000375841925577 0)
(-0.000224119532323 -0.00053544788168 0)
(-0.000389902437183 -0.000523425965806 0)
(-0.000540277337612 -0.000443602967851 0)
(-0.000336747734322 -0.000184976396944 0)
(-0.000427393190861 -0.000184554971135 0)
(-0.000751786608834 -0.00030481056387 0)
(-0.000886189287045 -0.000305302421056 0)
(-0.00098223325805 -0.000274919225026 0)
(-0.00106821720603 -0.000249315190489 0)
(-0.00114043094905 -0.000220664431853 0)
(-0.00120149711177 -0.000191427500243 0)
(-0.00124487890545 -0.000154481619137 0)
(-0.0012124983057 -0.000109838032991 0)
(-0.00117612922239 -8.06524028612e-05 0)
(-0.00118530751056 -7.94502786555e-05 0)
(-0.0012530551217 -0.000115251022632 0)
(-0.00138568462177 -0.000169933305016 0)
(-0.00149901502072 -0.000212894540523 0)
(-0.00154442204824 -0.000214219270822 0)
(-0.00159148969866 -0.000193138897623 0)
(-0.00164118910495 -0.000173752210181 0)
(-0.00168507319926 -0.000158344734473 0)
(-0.00172476935021 -0.000143568325005 0)
(-0.00176093337461 -0.000129561121086 0)
(-0.00179417528375 -0.000116419583092 0)
(-0.00182833170788 -0.000103184018486 0)
(-0.00185400577586 -9.03685187635e-05 0)
(-0.00188198224471 -7.92563101671e-05 0)
(-0.00189512144397 -6.95484186235e-05 0)
(-0.00191825861522 -5.97177906013e-05 0)
(-0.00191809129788 -4.96560368957e-05 0)
(-0.00193920866169 -4.820345506e-05 0)
(-0.00197286987753 -5.36140763286e-05 0)
(-0.00197072172289 -5.84731357394e-05 0)
(-0.00200027091932 -5.57764123981e-05 0)
(-0.00202847011968 -5.08358617097e-05 0)
(-0.00203954386171 -4.60374909626e-05 0)
(-0.00204737639238 -3.06034081065e-05 0)
(-0.00205258872647 -6.79692991101e-06 0)
(-0.00205218788253 1.30516840216e-05 0)
(-0.00204790673531 2.40248688097e-05 0)
(-0.00204082698791 3.19620608243e-05 0)
(-0.00202989834835 4.16692047192e-05 0)
(-0.00201486855717 5.3875276691e-05 9.57454790038e-29)
(-0.00199578515949 6.83543495702e-05 -9.62692365523e-29)
(-0.00197249858504 8.46641656018e-05 0)
(-0.00194483425872 0.000102786726106 0)
(-0.00191233397779 0.000122679571311 0)
(-0.00187422118244 0.000143157163685 0)
(-0.00182941999601 0.000163355880919 0)
(-0.00177674801721 0.000186767119623 0)
(-0.00171445635568 0.000218019839924 0)
(-0.0016446833778 0.000251141576525 0)
(-0.00156958370472 0.000282924407395 0)
(-0.00148359188549 0.000318451892697 0)
(-0.00138128745129 0.000360097233217 1.83211326845e-28)
(-0.00126114799022 0.000410409964172 -2.125525691e-28)
(-0.00112067669099 0.000473911035619 0)
(-0.000955680362853 0.000555883998461 0)
(-0.00077068905497 0.000661666602251 0)
(-0.000582045221699 0.000758790018695 0)
(-0.000402302023207 0.000755728777364 0)
(-0.000208387796994 0.000612710654317 0)
(-3.96136135143e-05 0.000411313378107 0)
(6.63031309891e-05 0.000317378564709 0)
(0.000154076279582 0.000273733359821 0)
(0.000228877588632 0.000236002652439 0)
(0.000297513271097 0.000193381299493 0)
(0.000354702483413 0.000136332845369 0)
(0.000393736520017 7.02481205447e-05 0)
(0.00039538084673 -4.82293456708e-06 0)
(0.000344859629553 -7.44459707953e-05 0)
(0.000299893240267 -0.000122646658219 0)
(0.000253535075225 -0.000154494152594 0)
(0.000192573310293 -0.000166621618498 0)
(0.00011451106785 -0.000155970530335 0)
(8.35378056541e-05 -0.000214388637648 0)
(2.82429502756e-05 -0.000254628233533 0)
(-1.03805199194e-05 -0.0005501298862 0)
(-4.96687246677e-05 -0.000456789360698 0)
(-0.000199971070334 -0.000692827507229 0)
(-0.000335110990738 -0.000639363081324 0)
(-0.000382051992801 -0.000437999467946 0)
(-0.000314254214601 -0.000249984486953 0)
(-0.000520632196441 -0.000388199774523 0)
(-0.000740434581084 -0.000497824887253 0)
(-0.000837147603659 -0.000435817376187 0)
(-0.000947860883747 -0.000377181589483 0)
(-0.00104309215863 -0.000341027773336 0)
(-0.00112414687259 -0.000295992295733 0)
(-0.00115022275334 -0.000216117916842 0)
(-0.00109168259716 -0.00013353371318 0)
(-0.00111637046503 -0.000103414107608 0)
(-0.00117821435723 -0.000115467384827 0)
(-0.00127491692876 -0.000161185197981 0)
(-0.001384020732 -0.000222928433117 0)
(-0.00145903917203 -0.000262204850555 0)
(-0.00149115680616 -0.000264769341178 0)
(-0.00153903169123 -0.000257555752305 0)
(-0.00159351542149 -0.000243770807982 0)
(-0.00163981367671 -0.000222829100118 0)
(-0.00168286723934 -0.000201169991068 0)
(-0.00172168359667 -0.00018170471839 0)
(-0.00175632556924 -0.000165102969857 0)
(-0.00179331542892 -0.000148947331879 0)
(-0.00181973296435 -0.00013253997923 0)
(-0.00185518415006 -0.000116357284792 0)
(-0.0018687565924 -0.000100524378992 0)
(-0.00190033966243 -8.71107317025e-05 -1.07379787931e-28)
(-0.00188802544844 -7.44726430868e-05 1.02429047524e-28)
(-0.00192541930281 -6.8407510968e-05 0)
(-0.00195874613634 -6.6692119463e-05 0)
(-0.00196289663197 -7.23395027316e-05 0)
(-0.0019981483598 -8.03627142961e-05 0)
(-0.00201889940094 -8.02694646728e-05 0)
(-0.00203362776923 -6.91531885197e-05 0)
(-0.00204360892568 -5.38031730033e-05 0)
(-0.00205045536426 -3.4101898778e-05 0)
(-0.00205504659349 -1.01484012082e-05 0)
(-0.00205593365864 1.18018632701e-05 0)
(-0.00205284319619 2.79275609666e-05 0)
(-0.00204595923363 4.11193031846e-05 0)
(-0.00203496640333 5.51146885626e-05 0)
(-0.00201984388736 7.12710664954e-05 0)
(-0.00200061323531 8.97053127213e-05 0)
(-0.00197711906349 0.000110241344665 0)
(-0.00194908007035 0.000132897042428 0)
(-0.00191600683432 0.000157652089873 0)
(-0.00187710351894 0.000184107590948 0)
(-0.00183121367116 0.000212498609976 0)
(-0.00177712831601 0.000244905005706 0)
(-0.00171411960347 0.00028262791943 0)
(-0.00164310711036 0.000323330157502 0)
(-0.00156365557219 0.000367310989945 0)
(-0.00147087581942 0.000418291679491 0)
(-0.00135945057329 0.000479026996916 0)
(-0.00122593677028 0.000552452046234 0)
(-0.00106781429076 0.000642030826459 0)
(-0.00088652258538 0.000746950177462 0)
(-0.000697011182136 0.000852362779075 0)
(-0.000522291086517 0.00091559626767 0)
(-0.000369377594424 0.000926572310967 0)
(-0.000188777592032 0.000807775841318 0)
(-2.15272307531e-05 0.000575603990315 0)
(9.93169324601e-05 0.0004370018926 0)
(0.000197504199354 0.000361994255394 0)
(0.000278531531113 0.000306872418059 0)
(0.000354893245048 0.000255181073154 0)
(0.00042859284989 0.000187161716256 0)
(0.000454888683032 7.8025626454e-05 0)
(0.000402243946204 -3.97118082252e-05 0)
(0.000355155377474 -0.000123003914662 0)
(0.000305070466823 -0.000182237003792 0)
(0.000243705353374 -0.000223037034967 0)
(0.000167879424849 -0.000219805816906 0)
(0.000108043284171 -0.000211403682622 0)
(7.08676151253e-05 -0.000278025506291 0)
(1.91538204725e-05 -0.000294168922594 0)
(-1.54688795042e-06 -0.000520162600861 0)
(-5.75277680546e-05 -0.00055325058157 0)
(-0.000199274308736 -0.000793720622167 0)
(-0.00028652927208 -0.000678193288327 0)
(-0.000231236349753 -0.000355809979727 0)
(-0.000317827582575 -0.00036022770075 0)
(-0.000616571195278 -0.000606875711033 0)
(-0.000707888768726 -0.000608457170009 0)
(-0.000801053332004 -0.000544215029276 0)
(-0.000906901025199 -0.00048558852594 0)
(-0.00100706498688 -0.00041727924306 0)
(-0.000978572318155 -0.000299219386442 0)
(-0.000918275901438 -0.000183173395932 0)
(-0.000984516864236 -0.00015372629609 0)
(-0.00106659511935 -0.00017134400954 0)
(-0.00120192709385 -0.000223162165012 0)
(-0.00132623281797 -0.000274936699308 0)
(-0.00140601062009 -0.000298824172286 0)
(-0.00142925798014 -0.000298201519268 0)
(-0.0014838298565 -0.000307418018166 0)
(-0.00154403649026 -0.000310166260737 0)
(-0.00159134634981 -0.000293428852278 0)
(-0.00163570483451 -0.000268865601333 0)
(-0.00167700903162 -0.000244062946403 0)
(-0.00172032149259 -0.000221103103963 0)
(-0.00175512373338 -0.000198316193004 0)
(-0.00177593612381 -0.000180171466571 0)
(-0.00182319026881 -0.000162932418267 0)
(-0.00183106248328 -0.000140417230104 0)
(-0.00187722934093 -0.000119272039962 0)
(-0.00185406609499 -9.93232703387e-05 0)
(-0.00190448138344 -9.45788591084e-05 0)
(-0.00189000366165 -9.08252649202e-05 0)
(-0.00194488390139 -9.39839373089e-05 0)
(-0.00199090279491 -0.000101581978308 0)
(-0.002012368102 -0.000105865549314 0)
(-0.00202676781335 -9.70580923757e-05 0)
(-0.00203866822883 -8.0884781751e-05 0)
(-0.00204795653313 -6.13854268689e-05 0)
(-0.00205490463236 -3.87952048447e-05 0)
(-0.00205949520304 -1.35927753267e-05 0)
(-0.00206092142139 1.06852621684e-05 0)
(-0.00205850918252 3.13771327261e-05 0)
(-0.00205193719154 4.97336851827e-05 0)
(-0.00204108707185 6.83471905284e-05 0)
(-0.00202599456191 8.87033777778e-05 0)
(-0.00200668430109 0.00011126725695 0)
(-0.00198294841499 0.00013614873924 0)
(-0.00195439996267 0.000163510259407 0)
(-0.0019205050915 0.000193529431293 0)
(-0.00188048021956 0.000226362920463 0)
(-0.00183324702571 0.000262619999328 0)
(-0.00177773121545 0.000303489261448 0)
(-0.0017132559354 0.000349469649192 0)
(-0.00163937583305 0.000400459875443 0)
(-0.00155381729056 0.000458773703194 0)
(-0.00145148407881 0.000528370733009 0)
(-0.0013272428687 0.000612138496487 0)
(-0.00117836219246 0.000711399100587 0)
(-0.00100568578068 0.000823036287005 0)
(-0.000819490425024 0.000934993522291 0)
(-0.000638621670259 0.00101865683299 0)
(-0.000460215637361 0.00103540047348 0)
(-0.000329047432751 0.0011089518576 0)
(-0.000144081954484 0.000953147521897 0)
(8.23198065593e-06 0.000704264392824 0)
(0.000133251163037 0.000552195103561 0)
(0.000248855988552 0.000457740494332 0)
(0.000345552010263 0.000387083654604 0)
(0.000445887238269 0.000332633387055 0)
(0.000521134291189 0.000226454507288 0)
(0.000489410146127 5.34270598401e-05 0)
(0.000433489256418 -8.52654280445e-05 0)
(0.000388179294601 -0.000183354623941 0)
(0.000316606883049 -0.000255270200855 0)
(0.000243055489812 -0.000298651185432 0)
(0.000157958845629 -0.000272212246742 0)
(0.000102082156622 -0.000262838082954 0)
(6.34361590402e-05 -0.000325555589275 0)
(1.83070784282e-05 -0.000329776204984 0)
(-2.04187386379e-05 -0.000566806528522 0)
(-0.000117929382527 -0.000710349159564 0)
(-0.000250485330997 -0.000868690906788 0)
(-0.000296057072585 -0.000815959710866 0)
(-0.000222627707844 -0.000450841426076 0)
(-0.000438170097055 -0.000615776388235 0)
(-0.000619804520097 -0.000734899027039 0)
(-0.000682433402766 -0.000693158123144 0)
(-0.00077196645535 -0.000633345818932 0)
(-0.000840588613792 -0.000571255217674 0)
(-0.000973185830604 -0.000473444337132 2.88067126802e-28)
(-0.000811896700559 -0.000257438137999 -1.88003925725e-28)
(-0.000909673588093 -0.000224883363028 0)
(-0.000968592125768 -0.000234311189312 0)
(-0.00110150223444 -0.000289776130229 0)
(-0.00124708312928 -0.000356075476517 0)
(-0.00133606528506 -0.000366810511866 0)
(-0.00134791486002 -0.000338547739478 0)
(-0.00141408559248 -0.000346347631376 0)
(-0.00148986911167 -0.000366673367845 0)
(-0.0015372284415 -0.000362020256758 0)
(-0.00158599529071 -0.000340999138581 0)
(-0.0016326376682 -0.000314708812872 0)
(-0.0016759215453 -0.000286039732375 0)
(-0.00170908722043 -0.000256168788198 0)
(-0.001735619244 -0.000228259009805 0)
(-0.00178207299288 -0.000209335552583 0)
(-0.00178028886596 -0.00019010233534 0)
(-0.00184311760172 -0.000165653770647 0)
(-0.00181525557335 -0.00012930053499 0)
(-0.00187707927283 -0.000119191242705 0)
(-0.00186389553706 -0.000117990558624 1.01245948786e-28)
(-0.00191938054309 -0.000121006601503 -1.0222385468e-28)
(-0.00195328260111 -0.00013248141736 0)
(-0.00200220279333 -0.000136981234443 0)
(-0.00202098937582 -0.000126969312851 0)
(-0.00203290452286 -0.000110712221228 0)
(-0.0020438163702 -9.1209914031e-05 0)
(-0.00205340975004 -6.90277390794e-05 0)
(-0.00206078748927 -4.41340430066e-05 0)
(-0.00206553065362 -1.7138376988e-05 0)
(-0.00206725599367 9.73541056486e-06 0)
(-0.00206525766397 3.46208944695e-05 0)
(-0.00205901063055 5.79114157986e-05 0)
(-0.00204837643307 8.12772565845e-05 0)
(-0.00203339168026 0.000106075273817 0)
(-0.00201401114803 0.000133015520492 0)
(-0.00198993482437 0.000162489819866 0)
(-0.00196070246671 0.000194859567033 0)
(-0.00192577439704 0.000230531677983 0)
(-0.00188441515693 0.000270014784249 0)
(-0.00183562303212 0.000314073848619 0)
(-0.00177830076545 0.000363653001587 0)
(-0.00171129630343 0.00041965222584 0)
(-0.00163282341759 0.000483783187608 0)
(-0.00153929155413 0.000559688162245 0)
(-0.00142553735323 0.000651204707786 0)
(-0.00128759089622 0.000759465434239 0)
(-0.0011261591939 0.000880500727478 0)
(-0.000949233782507 0.00100388169897 0)
(-0.000769878376808 0.00111021267815 0)
(-0.000600123886431 0.00118029118316 0)
(-0.000441293914349 0.00122963426335 0)
(-0.000302166626529 0.00124608567091 0)
(-0.000131030829601 0.00110526095017 0)
(4.67410637874e-05 0.00082548054438 0)
(0.000191526199659 0.000691179698225 0)
(0.000330808317635 0.000593071204079 0)
(0.00045206993052 0.000506147305033 0)
(0.000557041941167 0.000408905487427 0)
(0.000593431143749 0.000229677480148 0)
(0.000544320705217 2.0289411463e-05 0)
(0.000506308759166 -0.000140877241924 0)
(0.000434501060964 -0.000263228440191 0)
(0.000339527344737 -0.0003490669177 0)
(0.000238730208854 -0.000367322338778 0)
(0.000159314752302 -0.000344674369355 0)
(8.96147787307e-05 -0.000316355868941 0)
(5.06624763979e-05 -0.000362715227311 0)
(1.66887597962e-05 -0.000370745384776 0)
(-3.98417431057e-05 -0.000660230564448 0)
(-0.000160567426005 -0.00085416657963 0)
(-0.000275863666444 -0.000913027961602 0)
(-0.00020076602487 -0.000592305526846 0)
(-0.000235533814776 -0.000560378964331 0)
(-0.00049003952071 -0.000823157608129 0)
(-0.000577759603754 -0.000819756032484 0)
(-0.000661120108216 -0.00077731355256 0)
(-0.00072487175734 -0.000703241449169 0)
(-0.000816705175322 -0.000634713986059 0)
(-0.000710308342815 -0.000398153295269 0)
(-0.000802345532758 -0.000308196015011 0)
(-0.00089064637032 -0.000300716236094 0)
(-0.00096862221898 -0.000334934148825 0)
(-0.00115322086823 -0.000427028354846 0)
(-0.00125847119221 -0.000453524383614 0)
(-0.0012617730861 -0.000406464419769 0)
(-0.00132410620736 -0.00039332780966 0)
(-0.00141986412091 -0.000418573446536 0)
(-0.00148270365276 -0.000425780598558 0)
(-0.00152833702096 -0.000410969012533 0)
(-0.00157398401118 -0.000387672710207 0)
(-0.00162396015055 -0.000362194813737 0)
(-0.00166718669622 -0.000329853357826 0)
(-0.00171340855535 -0.000289682599753 0)
(-0.00172287404924 -0.000261020895724 0)
(-0.00178301792073 -0.000237739525963 0)
(-0.00179110945531 -0.000209911858855 0)
(-0.00178784688144 -0.000181795699103 0)
(-0.00182304723945 -0.000160419140302 0)
(-0.00189610633508 -0.000149987305402 0)
(-0.00189075605002 -0.000140652910023 0)
(-0.00190979181654 -0.000157818968588 0)
(-0.00198412395184 -0.000173220241546 0)
(-0.00200800134257 -0.000166568204094 0)
(-0.00202507129079 -0.000145991147102 0)
(-0.00203868010696 -0.00012396510151 0)
(-0.0020500357715 -0.000101576459934 0)
(-0.00205998129817 -7.71838880154e-05 0)
(-0.00206786852983 -5.00918479382e-05 0)
(-0.00207296043791 -2.08891601269e-05 0)
(-0.00207491985572 8.83297810053e-06 0)
(-0.0020732376166 3.77180586746e-05 0)
(-0.00206734120862 6.57425194811e-05 0)
(-0.00205698510665 9.39162564088e-05 9.29876570187e-29)
(-0.00204213753515 0.000123382732617 -9.26811856977e-29)
(-0.00202264268035 0.000155006528086 0)
(-0.00199809905279 0.000189414199267 0)
(-0.00196800679526 0.000227148741827 0)
(-0.00193185594604 0.000268813438471 0)
(-0.00188896057744 0.000315188860901 0)
(-0.00183833485024 0.00036730534082 0)
(-0.00177868912767 0.000426479757682 0)
(-0.00170817036423 0.000494597134584 0)
(-0.00162379389878 0.000574783288675 0)
(-0.00152119643997 0.000671112279576 0)
(-0.00139599645991 0.000785887880004 0)
(-0.00124688445357 0.000916527999567 0)
(-0.00107917379526 0.00105305104519 0)
(-0.000903413988932 0.00118096674323 0)
(-0.00073002508306 0.00128132109415 0)
(-0.000565712569652 0.00134630417008 0)
(-0.000413799007085 0.00137611319923 0)
(-0.00028069772159 0.00136601266484 0)
(-0.000148859833943 0.00134487218241 0)
(7.06938438406e-05 0.00100381938828 0)
(0.000257920631576 0.000838168681675 0)
(0.00042109862799 0.0007315255041 0)
(0.000550080332589 0.000610650649239 0)
(0.000646388889087 0.000458369506566 0)
(0.000672090544544 0.000230328072474 0)
(0.000652144801095 -6.73914846312e-06 0)
(0.000610719717715 -0.000214735328889 0)
(0.000499347185832 -0.00037648808451 0)
(0.000364415930582 -0.00046605561645 0)
(0.000234461732831 -0.00045859730558 0)
(0.000145025456985 -0.000428545483021 0)
(6.76138091878e-05 -0.000383088165678 0)
(2.50505418762e-05 -0.000393140161594 0)
(6.93887776241e-06 -0.000403428919869 0)
(-5.41084797452e-05 -0.000774993379445 0)
(-0.000178342234451 -0.000968942693975 0)
(-0.000239607392218 -0.000952538185478 0)
(-0.000194971667597 -0.000650199698844 0)
(-0.000311126821123 -0.000728755149827 0)
(-0.000496170005003 -0.000929188144884 0)
(-0.000541494144329 -0.000899663873082 0)
(-0.00064200550867 -0.000857398702961 0)
(-0.000645002973847 -0.000726671117616 0)
(-0.000820505120718 -0.000714595776108 0)
(-0.000690585426382 -0.000442616383365 0)
(-0.000805559723162 -0.000393952895596 0)
(-0.000881262250824 -0.000392350012344 0)
(-0.00101998102558 -0.000469485050472 0)
(-0.00116368917254 -0.000547566987509 0)
(-0.00124162991996 -0.000521651470824 0)
(-0.00124500727332 -0.000457513501277 0)
(-0.00132719842538 -0.000467557147483 0)
(-0.00140960827036 -0.000489404606162 0)
(-0.00146891161298 -0.000483271099884 0)
(-0.00152215607602 -0.000461056121591 0)
(-0.00156497062916 -0.000432279465748 0)
(-0.00161228947643 -0.000404643630528 0)
(-0.0016395972888 -0.000370999862731 0)
(-0.00166950186154 -0.000320577253909 0)
(-0.00173629300818 -0.000291060248078 0)
(-0.00170823441278 -0.000264235303237 0)
(-0.00181327245394 -0.00023806851573 0)
(-0.00178108471644 -0.000209423199663 0)
(-0.00186869629838 -0.00020037572833 0)
(-0.00184060938606 -0.000177522916431 0)
(-0.00192689173216 -0.00017702344173 0)
(-0.0019622010887 -0.000195946807736 1.06359215646e-28)
(-0.00199035087905 -0.000205947354843 -1.05902498325e-28)
(-0.00201199978236 -0.000189248530239 0)
(-0.00202984143719 -0.000163894996112 0)
(-0.00204501539684 -0.000138171765946 0)
(-0.00205733372871 -0.000112759685485 0)
(-0.00206767940571 -8.59724877416e-05 0)
(-0.00207597494218 -5.66381226228e-05 0)
(-0.00208155570436 -2.49765000339e-05 0)
(-0.00208391604207 7.81378461272e-06 0)
(-0.00208257752249 4.06303294477e-05 0)
(-0.00207705496975 7.32516298124e-05 0)
(-0.00206705395228 0.000106282261367 0)
(-0.00205236821329 0.00014066462056 0)
(-0.00203268583135 0.000177329646283 0)
(-0.00200754089777 0.000217067276147 0)
(-0.00197643602986 0.000260554055061 0)
(-0.00193889280051 0.000308547962865 0)
(-0.00189427432261 0.000362121593555 0)
(-0.00184158526266 0.000422809272468 0)
(-0.00177926392026 0.000492780730433 0)
(-0.0017047092255 0.00057513591998 0)
(-0.00161399140829 0.000673832986704 0)
(-0.00150258264313 0.000792041765584 0)
(-0.00136780371524 0.000928911801392 0)
(-0.00121102026473 0.0010789281479 0)
(-0.00103983861976 0.00122810483466 0)
(-0.000864116809616 0.00135957476302 0)
(-0.000694983263595 0.00145137484143 0)
(-0.000534231079892 0.0015051650698 0)
(-0.000379841473055 0.00152105238801 0)
(-0.000234336390327 0.00150286893306 0)
(-0.0001156727975 0.00145623061089 0)
(6.61798876133e-05 0.00130247440481 0)
(0.000305443223801 0.000973234434578 0)
(0.000518798203941 0.000887525437701 0)
(0.0006587959162 0.000732456013461 0)