/*--------------------------------*- C++ -*----------------------------------*\
| =========                 |                                                 |
| \\      /  F ield         | OpenFOAM: The Open Source CFD Toolbox           |
|  \\    /   O peration     | Version:  v1806                                 |
|   \\  /    A nd           | Web:      www.OpenFOAM.com                      |
|    \\/     M anipulation  |                                                 |
\*---------------------------------------------------------------------------*/
FoamFile
{
    version     2.0;
    format      ascii;
    class       surfaceScalarField;
    location    "337";
    object      phi;
}
// * * * * * * * * * * * * * * * * * * * * * * * * * * * * * * * * * * * * * //

dimensions      [0 3 -1 0 0 0 0];
oriented        oriented;


internalField   nonuniform List<scalar> 
12640
(
-1.88201834052e-07
1.88244562136e-07
-3.62513675575e-07
1.74315078266e-07
-5.17477925264e-07
1.549586849e-07
-6.4782052325e-07
1.30323349437e-07
-7.39775508431e-07
9.19435584396e-08
-7.90574103947e-07
5.08114142527e-08
-8.20896166585e-07
3.0337430663e-08
-8.7882430498e-07
5.79408089261e-08
-9.66618435798e-07
8.77979389476e-08
-1.0474264304e-06
8.08058690789e-08
-1.12109062336e-06
7.36517994704e-08
-1.20169305763e-06
8.05871377071e-08
-1.27271345864e-06
7.10007547602e-08
-1.3271410969e-06
5.44085665904e-08
-1.37376241522e-06
4.66042619405e-08
-1.42982849121e-06
5.60617727162e-08
-1.48791134555e-06
5.80776309334e-08
-1.53199041865e-06
4.40760560617e-08
-1.55896337174e-06
2.69540450478e-08
-1.57799327622e-06
1.89994120389e-08
-1.61260910612e-06
3.45756318282e-08
-1.66736752913e-06
5.47184778755e-08
-1.72821107352e-06
6.0800010671e-08
-1.78752386283e-06
5.92733307778e-08
-1.84081529047e-06
5.32505422056e-08
-1.88701123832e-06
4.61587317023e-08
-1.92994284839e-06
4.28903789196e-08
-1.96743235579e-06
3.74516433981e-08
-1.9971776418e-06
2.97014064313e-08
-2.02071063842e-06
2.34920070619e-08
-2.04327384504e-06
2.25146895567e-08
-2.06286634486e-06
1.95461415891e-08
-2.07509415151e-06
1.21792178322e-08
-2.08698769566e-06
1.18424331115e-08
-2.09791657729e-06
1.08623293744e-08
-2.10634040245e-06
8.35980678782e-09
-2.11731913085e-06
1.09023929829e-08
-2.1271451488e-06
9.74116773074e-09
-2.1319278176e-06
4.68519176475e-09
-2.13665169292e-06
4.62742599777e-09
-2.15489861878e-06
1.81462389754e-08
-2.17421274377e-06
1.92240038421e-08
-2.17142095304e-06
-2.88203915469e-09
-2.15393200544e-06
-1.7579556157e-08
-2.1296370645e-06
-2.43931358066e-08
-2.09740068845e-06
-3.23355127467e-08
-2.05698839892e-06
-4.05209169751e-08
-2.00641069468e-06
-5.06896130605e-08
-1.94631680073e-06
-6.0216267807e-08
-1.8860738275e-06
-6.03694897369e-08
-1.83526093776e-06
-5.0958328712e-08
-1.77754584751e-06
-5.78687461179e-08
-1.67821303117e-06
-9.9503357455e-08
-1.54829626656e-06
-1.30118104203e-07
-1.39853582612e-06
-1.49985348961e-07
-1.21824376067e-06
-1.80539553255e-07
-1.03449935607e-06
-1.84053644374e-07
-8.55366811736e-07
-1.79534451732e-07
-6.52733898315e-07
-2.03138029287e-07
-4.2727028826e-07
-2.26104513616e-07
-1.82836448887e-07
-2.45219035989e-07
7.65518009191e-08
-2.60336475222e-07
3.93328299181e-07
-3.17837860824e-07
6.09348043301e-07
-2.16748756737e-07
7.31645860525e-07
-1.22786828656e-07
8.09668854874e-07
-7.83813328167e-08
8.61257005616e-07
-5.19282994298e-08
8.99821494974e-07
-3.89287901746e-08
9.25849578773e-07
-2.64337666165e-08
9.34061547035e-07
-8.63256603248e-09
9.21403025856e-07
1.22420735104e-08
8.85917214161e-07
3.51004135139e-08
8.25671586477e-07
5.99230102403e-08
7.29589969063e-07
9.58062726475e-08
6.25364142739e-07
1.04014982462e-07
5.16151650509e-07
1.08987288117e-07
4.28449183777e-07
8.7454655712e-08
3.11112064366e-07
1.17076860348e-07
1.9231347503e-07
1.18764075929e-07
1.92031183768e-07
-9.47246299448e-08
2.82932627471e-07
-2.19818221216e-07
2.99396760922e-07
-3.41291005951e-07
2.76407911435e-07
-4.70568866063e-07
2.59582215931e-07
-6.42316519415e-07
2.63691441322e-07
-7.78308316029e-07
1.86803192946e-07
-8.54708387407e-07
1.06751209434e-07
-9.22123268441e-07
1.25357243834e-07
-9.94580524724e-07
1.60255604559e-07
-1.07608209565e-06
1.62293120253e-07
-1.15434589582e-06
1.51903596733e-07
-1.21658346108e-06
1.42801984095e-07
-1.27213067389e-06
1.26535147847e-07
-1.32581211157e-06
1.08077681687e-07
-1.37733682994e-06
9.81328620471e-08
-1.43637084304e-06
1.15090819839e-07
-1.48612626867e-06
1.07837142292e-07
-1.49823379029e-06
5.61638089883e-08
-1.50407162601e-06
3.27695044619e-08
-1.53153118933e-06
4.6418140275e-08
-1.58319952346e-06
8.62038034755e-08
-1.65960675098e-06
1.3107357009e-07
-1.73471616245e-06
1.35871834184e-07
-1.78850373953e-06
1.13013337066e-07
-1.83690525901e-06
1.01617609664e-07
-1.88992148948e-06
9.91286583059e-08
-1.93408239593e-06
8.70176469453e-08
-1.96825504614e-06
7.15764020584e-08
-1.99700869674e-06
5.84191362937e-08
-2.02116242567e-06
4.75944763408e-08
-2.0392279707e-06
4.05413448617e-08
-2.05270479095e-06
3.29743779505e-08
-2.05906701713e-06
1.84977115929e-08
-2.06654793456e-06
1.92621787667e-08
-2.08368606007e-06
2.7950714753e-08
-2.0928849572e-06
1.74784118437e-08
-2.10052165087e-06
1.84624603013e-08
-2.11958252615e-06
2.87084013498e-08
-2.14261339699e-06
2.76279407044e-08
-2.15266307011e-06
1.45706763991e-08
-2.11171541025e-06
-2.28884524882e-08
-2.04677369807e-06
-4.58092875089e-08
-2.0148508924e-06
-3.48847996885e-08
-2.00430899058e-06
-2.82176005566e-08
-1.99696398152e-06
-3.18286695204e-08
-1.98970251268e-06
-3.9703220664e-08
-1.97598949677e-06
-5.4335781989e-08
-1.95486937979e-06
-7.19272298901e-08
-1.92244262019e-06
-9.27594781093e-08
-1.86265272934e-06
-1.2029201304e-07
-1.76473334638e-06
-1.49008457641e-07
-1.65943671779e-06
-1.63313286608e-07
-1.60333577023e-06
-1.55770306278e-07
-1.53349543575e-06
-2.00162972487e-07
-1.41237248249e-06
-2.71333292803e-07
-1.28437462597e-06
-3.0881620395e-07
-1.13319181622e-06
-3.35580222198e-07
-9.42106792228e-07
-3.71063549923e-07
-7.28193607285e-07
-4.17608903899e-07
-4.82340850498e-07
-4.72679711562e-07
-1.95230849314e-07
-5.33123796618e-07
9.44740047256e-08
-5.50933261137e-07
3.92941404497e-07
-6.17290095042e-07
6.02289784377e-07
-4.26851539723e-07
7.13174100121e-07
-2.34129100561e-07
7.68826891614e-07
-1.3439508757e-07
8.2652864402e-07
-1.09954367742e-07
8.85577274068e-07
-9.83445082826e-08
9.23683780192e-07
-6.49326124223e-08
9.33631269888e-07
-1.90118928588e-08
9.11563687363e-07
3.38929439332e-08
8.62155714302e-07
8.41417545124e-08
8.08486628617e-07
1.1327686168e-07
7.60952429672e-07
1.43050913364e-07
6.92557023839e-07
1.72140446762e-07
6.11031424251e-07
1.90248955749e-07
5.01988339247e-07
1.96254000401e-07
3.83516036354e-07
2.35310429295e-07
2.06732912781e-07
2.95085024866e-07
3.98835143576e-07
-1.27360037588e-07
4.10339542803e-07
-1.84968318309e-07
3.5698910725e-07
-3.42461684551e-07
4.33882997401e-07
-5.31254549349e-07
4.4837121412e-07
-6.99734298437e-07
4.32175126979e-07
-7.7959139906e-07
2.66659993896e-07
-8.156613979e-07
1.42808192758e-07
-8.90206889574e-07
1.99886091967e-07
-9.79115771641e-07
2.49143611778e-07
-1.06705096783e-06
2.50206470406e-07
-1.14819911967e-06
2.33029097591e-07
-1.21478026108e-06
2.09373735444e-07
-1.2708967379e-06
1.82653739319e-07
-1.32549519642e-06
1.62685071762e-07
-1.36011531497e-06
1.32760480924e-07
-1.31685160161e-06
7.18295665098e-08
-1.23564541359e-06
2.66155000232e-08
-1.22028746428e-06
4.07838249981e-08
-1.28281470372e-06
9.5262438979e-08
-1.4246275552e-06
1.88189857345e-07
-1.57837999885e-06
2.39910586604e-07
-1.66619569033e-06
2.188490213e-07
-1.7221827095e-06
1.91815627974e-07
-1.78749007249e-06
1.78282809763e-07
-1.84778710924e-06
1.61872959577e-07
-1.89264436421e-06
1.43949005632e-07
-1.93010181322e-06
1.24432594594e-07
-1.96356048267e-06
1.0499659093e-07
-1.99109382999e-06
8.59078717194e-08
-2.01476435555e-06
7.12253560039e-08
-2.02899017414e-06
5.47249210172e-08
-2.03822072598e-06
4.21600049289e-08
-2.04991467517e-06
3.01478320079e-08
-2.04009851054e-06
9.39723143647e-09
-2.03868819695e-06
2.64691545991e-08
-2.06995789978e-06
4.86745144685e-08
-2.08274885894e-06
3.11672839999e-08
-2.09151162208e-06
3.7381096246e-08
-2.12670340526e-06
6.27211320707e-08
-2.15893749407e-06
4.67127006052e-08
-2.17962297989e-06
-2.29796946432e-09
-2.18771621099e-06
-3.78068465407e-08
-2.17794957195e-06
-4.47489773225e-08
-2.15926591391e-06
-4.69968449848e-08
-2.13553429099e-06
-5.56633206539e-08
-2.10526614151e-06
-7.0073972448e-08
-2.06950295983e-06
-9.02096050725e-08
-2.02704960659e-06
-1.14492362852e-07
-1.97688568605e-06
-1.43043523014e-07
-1.92089180198e-06
-1.76408376819e-07
-1.8594355232e-06
-2.10599388276e-07
-1.78220348935e-06
-2.40692957986e-07
-1.66388225909e-06
-2.7425896929e-07
-1.53249272747e-06
-3.31740389746e-07
-1.41620472879e-06
-3.87843618817e-07
-1.28464510287e-06
-4.40646835162e-07
-1.11613679377e-06
-5.04427809449e-07
-9.1339442389e-07
-5.74225856806e-07
-6.82478326209e-07
-6.49051007061e-07
-4.28002469632e-07
-7.27783729047e-07
-1.65736323981e-07
-7.96129898939e-07
1.28161271311e-07
-8.45693477221e-07
3.52500694364e-07
-8.42504963066e-07
5.19631505596e-07
-5.94602427417e-07
6.47332694964e-07
-3.62263260514e-07
7.58467411115e-07
-2.45872532296e-07
8.32121409765e-07
-1.83939803986e-07
8.70809818942e-07
-1.37372317771e-07
8.88523284349e-07
-8.30190537726e-08
8.86693426865e-07
-1.75785817883e-08
8.76809133865e-07
4.34027429518e-08
8.74619852237e-07
8.59863954365e-08
8.62162984034e-07
1.25424035339e-07
8.13789534121e-07
1.9114793069e-07
7.2388769137e-07
2.61802967778e-07
6.13192806947e-07
3.00705333658e-07
4.99694253992e-07
3.09451958399e-07
3.90148568014e-07
3.44548210623e-07
1.76029883019e-07
5.09295511585e-07
5.74595426874e-07
-8.97077660699e-08
4.99997825695e-07
-1.12323903472e-07
3.79596362052e-07
-3.01587624329e-07
6.23138892083e-07
-4.49213146895e-07
5.96002560312e-07
-4.3915804165e-07
4.22120144631e-07
-3.64983364153e-07
1.92477756413e-07
-5.11533370084e-07
2.89336143784e-07
-7.62655017311e-07
4.5096836858e-07
-9.31681194198e-07
4.18136535974e-07
-1.04291651241e-06
3.6141449567e-07
-1.13739041853e-06
3.27492499402e-07
-1.21422681811e-06
2.86216540818e-07
-1.25903537661e-06
2.27477476202e-07
-1.22982210855e-06
1.33489218976e-07
-1.14758659493e-06
5.05289736712e-08
-1.10851627845e-06
3.2742116552e-08
-1.15238177216e-06
7.04534977451e-08
-1.27441639353e-06
1.62781644804e-07
-1.44127293278e-06
2.62078501124e-07
-1.55654427132e-06
3.03421687746e-07
-1.61219775376e-06
2.95526469334e-07
-1.67339058999e-06
2.80001081769e-07
-1.7397223709e-06
2.58109220262e-07
-1.79508854679e-06
2.33609564972e-07
-1.84275989055e-06
2.0950880789e-07
-1.88413164731e-06
1.85281605254e-07
-1.92276751988e-06
1.63032574636e-07
-1.95566471257e-06
1.37851598483e-07
-1.98439733622e-06
1.14602036028e-07
-2.0031531439e-06
8.99419714438e-08
-2.02057222742e-06
7.21048603437e-08
-2.02360394581e-06
4.51556189768e-08
-2.01160473011e-06
1.81002843781e-08
-2.03430147567e-06
3.20311765921e-08
-2.0493196983e-06
4.14186555664e-08
-2.06063100038e-06
5.99025833343e-08
-2.11636957417e-06
8.68150652037e-08
-2.16438078207e-06
8.52973040716e-08
-2.17484313137e-06
7.30928063355e-08
-2.17433712157e-06
4.61112714662e-08
-2.18062727428e-06
3.89626691792e-09
-2.18656925472e-06
-3.19642581535e-08
-2.18080059049e-06
-5.06140825946e-08
-2.16487633058e-06
-6.30206133611e-08
-2.14211971617e-06
-7.85187510771e-08
-2.11311045934e-06
-9.91869351744e-08
-2.07823659156e-06
-1.25188300974e-07
-2.03683418979e-06
-1.56005695764e-07
-1.98817983738e-06
-1.91811259372e-07
-1.9320023068e-06
-2.32706615872e-07
-1.86559598882e-06
-2.77132405144e-07
-1.78190449395e-06
-3.24522762768e-07
-1.67649560179e-06
-3.79822813329e-07
-1.56092028437e-06
-4.47494472811e-07
-1.43041382368e-06
-5.18561178926e-07
-1.2744870782e-06
-5.96830037467e-07
-1.08921058782e-06
-6.90017149938e-07
-8.7163572428e-07
-7.92186639373e-07
-6.24909818657e-07
-8.9624292342e-07
-3.60894456629e-07
-9.92345149364e-07
-9.56548042027e-08
-1.06197353869e-06
1.42186815186e-07
-1.08420607424e-06
3.00942401047e-07
-1.00192211286e-06
4.99500521002e-07
-7.93743521446e-07
6.61564510699e-07
-5.24772756885e-07
7.48112182387e-07
-3.32754218198e-07
8.09386407642e-07
-2.45511057999e-07
8.57443451106e-07
-1.85748830287e-07
8.92095719228e-07
-1.18025523152e-07
9.16522463764e-07
-4.23736067281e-08
9.31669242792e-07
2.7891524029e-08
9.2126005297e-07
9.60977869457e-08
8.58699179684e-07
1.87731539276e-07
7.6472817203e-07
2.84917765844e-07
6.64567656151e-07
3.61744251803e-07
5.3789543339e-07
4.27135824602e-07
3.90632376571e-07
4.56546967432e-07
2.71234318092e-07
4.63867180494e-07
1.41639310421e-07
6.3845313071e-07
7.16321692006e-07
-1.19446180496e-08
5.11973099175e-07
-1.02063513916e-07
4.69706533509e-07
-2.57231270726e-07
7.78315333853e-07
-3.50888236248e-07
6.89680665687e-07
-3.10875185729e-07
3.82103311401e-07
-3.85296631834e-07
2.66877715549e-07
-5.90566156146e-07
4.94566957799e-07
-7.53817731902e-07
6.14186181783e-07
-8.8098151347e-07
5.45266656715e-07
-9.98815614962e-07
4.79234001826e-07
-1.10644522273e-06
4.35130770346e-07
-1.14741141025e-06
3.2719716244e-07
-1.09593540901e-06
1.76018658198e-07
-1.04816014088e-06
8.57138865177e-08
-1.07834282676e-06
8.06903392766e-08
-1.17261750188e-06
1.26984664319e-07
-1.31546898405e-06
2.13266102949e-07
-1.44993262528e-06
2.97204360675e-07
-1.51676863945e-06
3.28877938193e-07
-1.55234644807e-06
3.38965034277e-07
-1.61114379466e-06
3.54288063106e-07
-1.67771760597e-06
3.46538811083e-07
-1.73783857664e-06
3.18193930578e-07
-1.78931067129e-06
2.85048310137e-07
-1.83443053746e-06
2.54593441482e-07
-1.87755004118e-06
2.28369193385e-07
-1.91157463353e-06
1.97017311071e-07
-1.94505048962e-06
1.71291672633e-07
-1.96781501554e-06
1.37332692818e-07
-1.98732875606e-06
1.09422532663e-07
-1.98880244975e-06
7.35440400556e-08
-1.99987298724e-06
5.61818477611e-08
-2.03718314102e-06
5.53560581999e-08
-2.04234903943e-06
3.71274032366e-08
-2.06888472178e-06
6.78714099599e-08
-2.12141872957e-06
1.12348055984e-07
-2.15459064055e-06
1.19896943214e-07
-2.17421467215e-06
1.04832659951e-07
-2.18164717995e-06
8.04332292261e-08
-2.18371042932e-06
4.80800082332e-08
-2.18831898602e-06
8.40590852383e-09
-2.19194332693e-06
-2.84392588422e-08
-2.18725479428e-06
-5.54035368359e-08
-2.17332971601e-06
-7.7045160877e-08
-2.15207413176e-06
-9.98752918433e-08
-2.12450989951e-06
-1.26851846095e-07
-2.09090157335e-06
-1.58900345867e-07
-2.05073320253e-06
-1.9627922359e-07
-2.00310299559e-06
-2.3955126191e-07
-1.94663445243e-06
-2.89287966308e-07
-1.87827195313e-06
-3.45614417551e-07
-1.79355838618e-06
-4.09366388532e-07
-1.69067922899e-06
-4.82844989972e-07
-1.5716764436e-06
-5.6666297737e-07
-1.43107051002e-06
-6.59361015146e-07
-1.26139180691e-06
-7.6674082856e-07
-1.05936386687e-06
-8.92327207062e-07
-8.24498678945e-07
-1.02739035243e-06
-5.64161001723e-07
-1.15697527158e-06
-2.96232790037e-07
-1.26071520019e-06
-4.40053992376e-08
-1.31469075479e-06
1.601784178e-07
-1.28889827169e-06
2.97085619077e-07
-1.13935698919e-06
5.18514270979e-07
-1.01569354908e-06
6.90557763055e-07
-6.97237987404e-07
7.8303960791e-07
-4.25571622268e-07
8.33313741005e-07
-2.96101891869e-07
8.69407615055e-07
-2.22154989753e-07
9.02474316095e-07
-1.51407930291e-07
9.36722214896e-07
-7.69467417792e-08
9.49843625389e-07
1.45173670107e-08
9.04830887338e-07
1.40876432704e-07
8.24405825131e-07
2.68000133035e-07
7.36705485993e-07
3.7241903011e-07
6.28047512433e-07
4.70202066592e-07
4.91296887723e-07
5.63682789404e-07
3.75477084004e-07
5.72137386894e-07
2.53660298806e-07
5.85405951732e-07
1.14759466411e-07
7.77471904293e-07
8.30836780607e-07
-4.2771838566e-09
5.1620940575e-07
-1.33418397648e-07
5.9884571562e-07
-2.13516474392e-07
8.58425215678e-07
-2.53774365479e-07
7.29938339638e-07
-2.38362925731e-07
3.666828111e-07
-4.37188086116e-07
4.65675436616e-07
-6.48135734033e-07
7.05481009756e-07
-7.40932294407e-07
7.06946171758e-07
-8.41677617865e-07
6.4599954308e-07
-9.31624973788e-07
5.69184428881e-07
-9.61588420472e-07
4.65105704406e-07
-8.9357061256e-07
2.59194790687e-07
-8.75831636987e-07
1.58276394666e-07
-9.41536228216e-07
1.51397345469e-07
-1.05918891188e-06
1.98308614659e-07
-1.22852590249e-06
2.96278409997e-07
-1.38268953676e-06
3.67388352732e-07
-1.44809423932e-06
3.62576907834e-07
-1.47963026192e-06
3.60383384854e-07
-1.54690529825e-06
4.0620804467e-07
-1.61721244398e-06
4.24562733031e-07
-1.67466884519e-06
4.03962753487e-07
-1.7287249971e-06
3.72218549999e-07
-1.78253032041e-06
3.38820632408e-07
-1.82969793886e-06
3.01731383304e-07
-1.85580185047e-06
2.54439304787e-07
-1.89203030385e-06
2.33215080274e-07
-1.91847898076e-06
1.97709388548e-07
-1.9424860714e-06
1.61306537224e-07
-1.93967082274e-06
1.06574985657e-07
-1.94316190136e-06
7.69986715701e-08
-1.96083330027e-06
7.38048458224e-08
-1.9751415821e-06
6.96006360778e-08
-2.04531638217e-06
1.07223717217e-07
-2.11271794996e-06
1.35184396466e-07
-2.15004323792e-06
1.49585481567e-07
-2.17023573482e-06
1.40003339013e-07
-2.18246639151e-06
1.16976444839e-07
-2.1893796747e-06
8.72569384962e-08
-2.19362188861e-06
5.22269529502e-08
-2.19791810202e-06
1.26022102272e-08
-2.20021934023e-06
-2.62408519953e-08
-2.19600795455e-06
-5.97171022953e-08
-2.18374813921e-06
-8.94067362027e-08
-2.1642594875e-06
-1.19464436704e-07
-2.13839756131e-06
-1.52815010854e-07
-2.10639178551e-06
-1.91007709105e-07
-2.06769455086e-06
-2.35080790569e-07
-2.02116838947e-06
-2.86183558919e-07
-1.96502241457e-06
-3.45544687253e-07
-1.89643373455e-06
-4.14319677573e-07
-1.81207020447e-06
-4.93853240702e-07
-1.70948849827e-06
-5.85566876551e-07
-1.58592850879e-06
-6.90375995081e-07
-1.43484626314e-06
-8.10622632636e-07
-1.25025971318e-06
-9.51537155765e-07
-1.03104328488e-06
-1.11178831772e-06
-7.8157655931e-07
-1.27713608885e-06
-5.13363309308e-07
-1.4255149358e-06
-2.46162126419e-07
-1.52827183131e-06
-8.86331886127e-09
-1.55236697268e-06
1.73031167269e-07
-1.47118930414e-06
3.41122460071e-07
-1.30786424074e-06
5.28323538507e-07
-1.20333929048e-06
6.74917878289e-07
-8.44214037959e-07
7.72034187863e-07
-5.22994397222e-07
8.41447870746e-07
-3.65801403085e-07
8.92179983105e-07
-2.73185568796e-07
9.38714390571e-07
-1.98238377014e-07
9.71936254879e-07
-1.1040357623e-07
9.49489460036e-07
3.67017691968e-08
8.86191108937e-07
2.04050972323e-07
8.16950243195e-07
3.37009314426e-07
7.3326704409e-07
4.55917476769e-07
6.21599686171e-07
5.81624818223e-07
5.01599376367e-07
6.834428685e-07
3.77213517942e-07
6.96337861844e-07
2.50035488577e-07
7.12503618665e-07
1.23954409718e-07
9.03058053299e-07
9.5479696401e-07
-4.88232720418e-08
5.65047765845e-07
-2.07189744935e-07
7.57210877828e-07
-2.75827306846e-07
9.27084323779e-07
-2.2662308865e-07
6.80736938064e-07
-2.94045216695e-07
4.34084655976e-07
-5.27478441927e-07
6.9907565892e-07
-6.44896857646e-07
8.22863482095e-07
-7.20586936573e-07
7.82625551298e-07
-7.81702827397e-07
7.07104999627e-07
-8.70367633839e-07
6.5786615747e-07
-8.38810165126e-07
4.33563524237e-07
-8.01571677084e-07
2.21955900079e-07
-8.6291467598e-07
2.19601091779e-07
-9.56861783279e-07
2.45307784351e-07
-1.11570093138e-06
3.57102936328e-07
-1.28251351658e-06
4.63052873659e-07
-1.35175124537e-06
4.36596536425e-07
-1.38190372206e-06
3.92700603464e-07
-1.46356051545e-06
4.42009129423e-07
-1.54749151496e-06
4.90108963987e-07
-1.61090899207e-06
4.8795123432e-07
-1.66856096842e-06
4.61586502246e-07
-1.723870716e-06
4.27496734008e-07
-1.7669075636e-06
3.818302857e-07
-1.7971054633e-06
3.31902378164e-07
-1.82907852541e-06
2.86383264989e-07
-1.84724942602e-06
2.51355663779e-07
-1.87677428027e-06
2.27202208559e-07
-1.88697837382e-06
1.71481541032e-07
-1.88635507698e-06
1.05918902642e-07
-1.91111085722e-06
1.01708700965e-07
-1.94706062341e-06
1.09700862758e-07
-2.00520162435e-06
1.27671129275e-07
-2.06819008477e-06
1.70128899453e-07
-2.13340206315e-06
2.0031127927e-07
-2.16492908112e-06
1.8102858706e-07
-2.18035667532e-06
1.55346914854e-07
-2.19102880549e-06
1.2756227391e-07
-2.19913503137e-06
9.52720522944e-08
-2.20500982439e-06
5.80051115778e-08
-2.20943929469e-06
1.69302665001e-08
-2.21115601568e-06
-2.46277730594e-08
-2.20730106369e-06
-6.36763682463e-08
-2.19640754475e-06
-1.00403659617e-07
-2.17868984555e-06
-1.37285224799e-07
-2.15470591652e-06
-1.76901738101e-07
-2.1245495743e-06
-2.21268390242e-07
-2.08761974542e-06
-2.72115415758e-07
-2.04271618432e-06
-3.3119602162e-07
-1.98799889232e-06
-4.00374204656e-07
-1.92081792358e-06
-4.81617696425e-07
-1.8378297317e-06
-5.76972047226e-07
-1.73501922949e-06
-6.88507685661e-07
-1.60676723171e-06
-8.1877987985e-07
-1.44584051041e-06
-9.71711137734e-07
-1.24764461671e-06
-1.14991375699e-06
-1.01369485519e-06
-1.34593195122e-06
-7.51420775082e-07
-1.53964645703e-06
-4.734280718e-07
-1.70375922596e-06
-1.99243802202e-07
-1.80274599745e-06
3.75669144501e-08
-1.78948532375e-06
2.29472516687e-07
-1.663417893e-06
4.18040005541e-07
-1.49677282482e-06
5.14969706354e-07
-1.30062307101e-06
6.71566388698e-07
-1.00110235598e-06
7.85714124771e-07
-6.3740949536e-07
8.87887052674e-07
-4.68295386735e-07
9.64125452284e-07
-3.49747180414e-07
1.00639059997e-06
-2.40769438589e-07
9.98817457751e-07
-1.03146303581e-07
9.4939443386e-07
8.6012523287e-08
8.97587702066e-07
2.55516198633e-07
8.40193949521e-07
3.9424128111e-07
7.58794629965e-07
5.37011611915e-07
6.4888408855e-07
6.91307151016e-07
5.43437332063e-07
7.88643137438e-07
4.00027379253e-07
8.39483953785e-07
2.52274474193e-07
8.5988464436e-07
1.3747277501e-07
1.01785458338e-06
1.09200388154e-06
-9.2479620475e-08
6.57483786595e-07
-2.36030787071e-07
9.0076247955e-07
-2.59904935147e-07
9.50946723116e-07
-1.67900969741e-07
5.88724143503e-07
-3.37730040199e-07
6.03892294941e-07
-5.36645375685e-07
8.97958593685e-07
-6.16851748274e-07
9.03055398912e-07
-6.99670962306e-07
8.65432853716e-07
-7.03276593857e-07
7.10730049315e-07
-7.23691530408e-07
6.7828425529e-07
-6.83475052243e-07
3.93350789303e-07
-7.73795003877e-07
3.12259713458e-07
-8.5710857317e-07
3.02883211836e-07
-9.93411223219e-07
3.81572242611e-07
-1.16246339238e-06
5.26113947284e-07
-1.24632424612e-06
5.46880546668e-07
-1.27566831625e-06
4.65915979206e-07
-1.36287882777e-06
4.79883663635e-07
-1.46394525449e-06
5.43045999286e-07
-1.53527990568e-06
5.61415887175e-07
-1.59297547633e-06
5.45620664885e-07
-1.64876351932e-06
5.17344798771e-07
-1.70939519609e-06
4.881043509e-07
-1.76554378765e-06
4.37956876986e-07
-1.78716161499e-06
3.53492380422e-07
-1.82323274616e-06
3.22430032821e-07
-1.84452746563e-06
2.72622227356e-07
-1.83481628611e-06
2.174622326e-07
-1.84477978281e-06
1.81412400228e-07
-1.91565892682e-06
1.76757353058e-07
-1.95663194124e-06
1.42634444948e-07
-1.96264926096e-06
1.15653472154e-07
-2.02981060834e-06
1.94758220925e-07
-2.1113235283e-06
2.51560305615e-07
-2.14865310853e-06
2.37558972762e-07
-2.17250404506e-06
2.04797927839e-07
-2.18894947143e-06
1.71708916821e-07
-2.20108736314e-06
1.396133415e-07
-2.21067982139e-06
1.04772425133e-07
-2.21794980859e-06
6.51773802115e-08
-2.22281025791e-06
2.16880065441e-08
-2.22439584925e-06
-2.31474317117e-08
-2.22098902035e-06
-6.71891045598e-08
-2.21135794198e-06
-1.10140322937e-07
-2.19536725018e-06
-1.53381787375e-07
-2.17332097293e-06
-1.9905602456e-07
-2.14520750612e-06
-2.49491795451e-07
-2.1104525018e-06
-3.06985839962e-07
-2.0679632508e-06
-3.73802935663e-07
-2.01603575649e-06
-4.52424960062e-07
-1.95203875033e-06
-5.45749160471e-07
-1.87204022258e-06
-6.57097276718e-07
-1.7703481503e-06
-7.90351876341e-07
-1.63924819344e-06
-9.50018262126e-07
-1.47099346438e-06
-1.14012146191e-06
-1.2620803573e-06
-1.35897996664e-06
-1.01537811136e-06
-1.59282220184e-06
-7.36676945189e-07
-1.81851173055e-06
-4.34658235821e-07
-2.00600534221e-06
-1.35140442692e-07
-2.10250057398e-06
1.17614601211e-07
-2.04249551296e-06
3.17641069104e-07
-1.86371038721e-06
4.71019959988e-07
-1.65041861932e-06
5.79850850925e-07
-1.40971456187e-06
7.17219711817e-07
-1.13879457099e-06
8.43049358708e-07
-7.6354611291e-07
9.40854166541e-07
-5.66392201132e-07
1.01389698602e-06
-4.23072070665e-07
1.03673094111e-06
-2.63943729486e-07
1.0099519822e-06
-7.64793961465e-08
9.69179940333e-07
1.26290552791e-07
9.33371259458e-07
2.91272207926e-07
8.87409628332e-07
4.39730638924e-07
8.14626879698e-07
6.09569603886e-07
7.15432022206e-07
7.90163826147e-07
5.9492362698e-07
9.08883910501e-07
4.39493767747e-07
9.9463083311e-07
2.60121150205e-07
1.03907703583e-06
1.32552391019e-07
1.14485763331e-06
1.22436957241e-06
-1.23805203153e-07
7.81303884555e-07
-2.33381547748e-07
1.01033672188e-06
-2.08575470363e-07
9.26150273233e-07
-2.1707017007e-07
5.97206183553e-07
-4.16836628704e-07
8.03638132812e-07
-5.03754207224e-07
9.84858504496e-07
-5.78298760911e-07
9.77598162471e-07
-6.54490008431e-07
9.4163088346e-07
-6.72030679305e-07
7.28270670715e-07
-6.93496491225e-07
6.99760049681e-07
-7.03191258697e-07
4.03032264028e-07
-7.8042878743e-07
3.89474501817e-07
-8.79996813933e-07
4.02413267196e-07
-1.03826008463e-06
5.39790435924e-07
-1.18311982533e-06
6.70943368968e-07
-1.22635383323e-06
5.90093335615e-07
-1.26978277994e-06
5.09320219325e-07
-1.36100737726e-06
5.71079233705e-07
-1.44971056497e-06
6.31721120047e-07
-1.51969695952e-06
6.31375021156e-07
-1.57764984588e-06
6.0354296181e-07
-1.6230320367e-06
5.62704859993e-07
-1.6616123061e-06
5.266681854e-07
-1.70214424684e-06
4.78468297045e-07
-1.73666932452e-06
3.8800060143e-07
-1.7579106997e-06
3.43647027257e-07
-1.8011830283e-06
3.15866841373e-07
-1.84932423954e-06
2.65574652491e-07
-1.88830551873e-06
2.20362743321e-07
-1.91378296711e-06
2.02192795235e-07
-1.95494207499e-06
1.83734366856e-07
-2.04680986712e-06
2.07449631344e-07
-2.09841000344e-06
2.46278388663e-07
-2.13068321808e-06
2.83753279782e-07
-2.15812868748e-06
2.649264505e-07
-2.18096596677e-06
2.27555467368e-07
-2.19909846349e-06
1.89757915486e-07
-2.21290651941e-06
1.53332594452e-07
-2.22370775053e-06
1.15479527395e-07
-2.23212635512e-06
7.34960089564e-08
-2.23779160758e-06
2.72494576255e-08
-2.23976248411e-06
-2.12833605812e-08
-2.23693852903e-06
-7.0121182711e-08
-2.22851051633e-06
-1.18678889328e-07
-2.21419559269e-06
-1.67811348246e-07
-2.19405562751e-06
-2.19315605432e-07
-2.16810328834e-06
-2.75571659995e-07
-2.1359827083e-06
-3.39236180744e-07
-2.09688486678e-06
-4.13039178574e-07
-2.04937007205e-06
-5.00085104186e-07
-1.99083045442e-06
-6.04424321457e-07
-1.91670279085e-06
-7.31392994159e-07
-1.81964956056e-06
-8.8753458105e-07
-1.6901056068e-06
-1.07971925296e-06
-1.51909171389e-06
-1.31126784944e-06
-1.30230087068e-06
-1.575933819e-06
-1.03980601734e-06
-1.85541227502e-06
-7.29341233723e-07
-2.12916834995e-06
-3.80580911782e-07
-2.35493319583e-06
-4.84532498003e-08
-2.43485216189e-06
1.97451833033e-07
-2.2886421739e-06
3.77999608729e-07
-2.04448035457e-06
5.37792984622e-07
-1.81042843347e-06
6.86790461432e-07
-1.55897734293e-06
8.0441679503e-07
-1.25669432978e-06
9.378774754e-07
-8.97326887503e-07
1.03243201662e-06
-6.61260003291e-07
1.08755907206e-06
-4.78529700252e-07
1.0868646905e-06
-2.63402931016e-07
1.04388423001e-06
-3.41185668538e-08
1.0086633233e-06
1.61605472492e-07
9.84079028464e-07
3.15091577325e-07
9.56444328261e-07
4.6725049749e-07
9.00077825561e-07
6.65450575486e-07
7.99766960864e-07
8.90240487787e-07
6.46044314772e-07
1.06226650001e-06
4.68528587407e-07
1.17180455396e-06
2.7168131157e-07
1.2354220422e-06
1.20457427667e-07
1.29575519892e-06
1.34455143911e-06
-1.47109061907e-07
9.2835824303e-07
-2.46010786939e-07
1.10921681073e-06
-1.91350592187e-07
8.71476646109e-07
-2.66881881694e-07
6.72730432772e-07
-4.4161995421e-07
9.78365599492e-07
-4.66189595488e-07
1.0094330574e-06
-5.31465088951e-07
1.04286543427e-06
-5.5443474467e-07
9.64611463401e-07
-6.13294373548e-07
7.87130620892e-07
-6.03174701795e-07
6.89630309272e-07
-6.80329197227e-07
4.80170971668e-07
-7.77665470747e-07
4.86775959144e-07
-8.90400923808e-07
5.15115088385e-07
-1.03741785979e-06
6.86774210812e-07
-1.11953436318e-06
7.53030715954e-07
-1.14292883705e-06
6.13467532034e-07
-1.2348339708e-06
6.012006748e-07
-1.3385833838e-06
6.74800469006e-07
-1.42195016365e-06
7.15059998272e-07
-1.49684407234e-06
7.06240569608e-07
-1.56472471443e-06
6.71404811985e-07
-1.62287298858e-06
6.20835826037e-07
-1.65090848359e-06
5.54683685664e-07
-1.66898669422e-06
4.96532706362e-07
-1.72836864967e-06
4.47364053939e-07
-1.75380319206e-06
3.69056150816e-07
-1.74550385376e-06
3.07548221964e-07
-1.76141860074e-06
2.8146509273e-07
-1.8166836294e-06
2.75590615626e-07
-1.89930872156e-06
2.84771042971e-07
-1.97238709933e-06
2.56750048537e-07
-2.0332935778e-06
2.68280122267e-07
-2.10834450646e-06
3.21246899811e-07
-2.14461996842e-06
3.19952423433e-07
-2.16915817639e-06
2.89388418205e-07
-2.19190209922e-06
2.50219317692e-07
-2.21155431643e-06
2.09324476622e-07
-2.22691840851e-06
1.68606017449e-07
-2.23864494974e-06
1.27109541956e-07
-2.24779792961e-06
8.25480673619e-08
-2.25425906514e-06
3.36048914989e-08
-2.25696756339e-06
-1.86833151226e-08
-2.25493165837e-06
-7.22697458208e-08
-2.247621582e-06
-1.26106868376e-07
-2.23486094855e-06
-1.80697799225e-07
-2.2166224981e-06
-2.37692256008e-07
-2.19292792389e-06
-2.99411019987e-07
-2.16380892406e-06
-3.68516708805e-07
-2.12906611699e-06
-4.47944258126e-07
-2.08783675943e-06
-5.41476085451e-07
-2.03784006226e-06
-6.54612348793e-07
-1.97409905857e-06
-7.95265321141e-07
-1.88794889855e-06
-9.73862322766e-07
-1.7672784135e-06
-1.20051073195e-06
-1.59989776011e-06
-1.47879872205e-06
-1.37625433226e-06
-1.79965808536e-06
-1.08692672591e-06
-2.14493093499e-06
-7.13761392976e-07
-2.50243452678e-06
-2.9799939906e-07
-2.77090712469e-06
3.98070960084e-08
-2.77285629064e-06
2.31092629009e-07
-2.48013008251e-06
3.94171112662e-07
-2.20778593512e-06
5.96690203298e-07
-2.0131681422e-06
8.12830190085e-07
-1.77532761432e-06
1.01673316569e-06
-1.46086481992e-06
1.20996425658e-06
-1.09089131313e-06
1.2403544714e-06
-6.91996333971e-07
1.16118024424e-06
-3.99602142434e-07
1.12737477028e-06
-2.30081105105e-07
1.08105475777e-06
1.23865568198e-08
1.04506805663e-06
1.96687807319e-07
1.03102519e-06
3.29394576505e-07
1.04413085689e-06
4.53516314259e-07
1.02667748788e-06