/*--------------------------------*- C++ -*----------------------------------*\
| =========                 |                                                 |
| \\      /  F ield         | OpenFOAM: The Open Source CFD Toolbox           |
|  \\    /   O peration     | Version:  v1806                                 |
|   \\  /    A nd           | Web:      www.OpenFOAM.com                      |
|    \\/     M anipulation  |                                                 |
\*---------------------------------------------------------------------------*/
FoamFile
{
    version     2.0;
    format      ascii;
    class       surfaceScalarField;
    location    "366";
    object      phi;
}
// * * * * * * * * * * * * * * * * * * * * * * * * * * * * * * * * * * * * * //

dimensions      [0 3 -1 0 0 0 0];
oriented        oriented;


internalField   nonuniform List<scalar> 
12640
(
-1.8932144448e-07
1.89371571136e-07
-3.6396001815e-07
1.74659866389e-07
-5.18572101272e-07
1.54621786183e-07
-6.48341416201e-07
1.29765106153e-07
-7.40241824877e-07
9.18984650762e-08
-7.91819487413e-07
5.15971281128e-08
-8.2333544092e-07
3.15379803072e-08
-8.81556985385e-07
5.82397502e-08
-9.68587574856e-07
8.70407800676e-08
-1.04880746145e-06
8.02237289227e-08
-1.12189691615e-06
7.30826452474e-08
-1.20116660976e-06
7.92597074935e-08
-1.27098281836e-06
6.9801794103e-08
-1.32478660663e-06
5.37895325442e-08
-1.37112098698e-06
4.63219257059e-08
-1.42643910897e-06
5.53160335789e-08
-1.48365217629e-06
5.7210170474e-08
-1.52744480932e-06
4.37912188484e-08
-1.55497962048e-06
2.75197576358e-08
-1.57526235269e-06
2.02580541448e-08
-1.61056306056e-06
3.52678194434e-08
-1.66486946947e-06
5.42733944816e-08
-1.7245688696e-06
5.96637031752e-08
-1.78233661675e-06
5.77356981623e-08
-1.83411236172e-06
5.17432712634e-08
-1.87900533914e-06
4.48642884103e-08
-1.92053579463e-06
4.15001458395e-08
-1.9567124114e-06
3.61506159712e-08
-1.98544468006e-06
2.8704107385e-08
-2.00819879535e-06
2.27305109259e-08
-2.02979068634e-06
2.15655393588e-08
-2.04837912219e-06
1.85660995117e-08
-2.05999468903e-06
1.15950346288e-08
-2.07113139545e-06
1.11175983029e-08
-2.08134957757e-06
1.01940193469e-08
-2.08917568932e-06
7.80655773911e-09
-2.09911366409e-06
9.91481578363e-09
-2.10783459807e-06
8.69637738189e-09
-2.1116589605e-06
3.7965027006e-09
-2.11475797146e-06
3.07374625987e-09
-2.1289671491e-06
1.41831047831e-08
-2.14362309379e-06
1.4634355691e-08
-2.13849181631e-06
-5.15332190711e-09
-2.12004246493e-06
-1.84713697379e-08
-2.09537274835e-06
-2.46948851954e-08
-2.06342734702e-06
-3.19704236501e-08
-2.02388614735e-06
-3.9569062884e-08
-1.97485397779e-06
-4.90597533396e-08
-1.91675607972e-06
-5.81278407656e-08
-1.85782490568e-06
-5.89614515203e-08
-1.80656697443e-06
-5.12932252763e-08
-1.74845978904e-06
-5.8146694674e-08
-1.65254360974e-06
-9.59645363782e-08
-1.52820311684e-06
-1.2440366734e-07
-1.38446416354e-06
-1.43817582619e-07
-1.21169246465e-06
-1.72867960042e-07
-1.0343999524e-06
-1.77418086473e-07
-8.59803846007e-07
-1.74766991028e-07
-6.6203091416e-07
-1.97997456058e-07
-4.41941953205e-07
-2.20382596568e-07
-2.04004667462e-07
-2.38307090221e-07
4.87521393837e-08
-2.532304964e-07
3.59137882764e-07
-3.1094454772e-07
5.69027757941e-07
-2.10289233246e-07
6.84905865253e-07
-1.1615031972e-07
7.5688699994e-07
-7.21883425246e-08
8.02549805806e-07
-4.58654948004e-08
8.34605909619e-07
-3.22835539078e-08
8.53674073413e-07
-1.93357699384e-08
8.55302081229e-07
-1.92783006832e-09
8.37705574645e-07
1.72761897541e-08
8.0028673493e-07
3.71020848307e-08
7.42023569368e-07
5.79610324222e-08
6.52989152052e-07
8.87412439706e-08
5.58195116077e-07
9.452410323e-08
4.60023134404e-07
9.79074524911e-08
3.81656391813e-07
7.80844736262e-08
2.77116902272e-07
1.04292181632e-07
1.71208338562e-07
1.05489120152e-07
1.7094082104e-07
-9.57126852074e-08
2.85071043903e-07
-2.22082014804e-07
3.01031999533e-07
-3.44592614311e-07
2.77124774166e-07
-4.74412224021e-07
2.59576716027e-07
-6.45325122048e-07
2.62820790343e-07
-7.79709125937e-07
1.8598821688e-07
-8.55170912639e-07
1.07018222743e-07
-9.22248544342e-07
1.25326515185e-07
-9.94561835355e-07
1.59361428453e-07
-1.07547333204e-06
1.61128414552e-07
-1.15300685256e-06
1.50610530662e-07
-1.21497648264e-06
1.41212949514e-07
-1.27023078464e-06
1.25047437425e-07
-1.32336521919e-06
1.06915818827e-07
-1.37428484075e-06
9.72469290433e-08
-1.43241786577e-06
1.13447420582e-07
-1.48196644306e-06
1.06763897544e-07
-1.4958738745e-06
5.76838212388e-08
-1.50372153289e-06
3.53496955669e-08
-1.53218537425e-06
4.86889674733e-08
-1.5836696654e-06
8.67189776146e-08
-1.65804458299e-06
1.28606236361e-07
-1.73076022122e-06
1.32348116777e-07
-1.78334329184e-06
1.10281049355e-07
-1.83056294718e-06
9.89351613066e-08
-1.88167294553e-06
9.59395885347e-08
-1.92434880878e-06
8.4151102107e-08
-1.95752142662e-06
6.92909269101e-08
-1.98541038183e-06
5.6570370019e-08
-2.00879727069e-06
4.60876081394e-08
-2.02637625817e-06
3.91244923467e-08
-2.03948795375e-06
3.16551064483e-08
-2.04585985345e-06
1.79490488654e-08
-2.05308055845e-06
1.83152073023e-08
-2.06896337966e-06
2.60619908919e-08
-2.07762476251e-06
1.64413141163e-08
-2.08457892601e-06
1.68467390279e-08
-2.10151060738e-06
2.56008246421e-08
-2.12173351444e-06
2.39961539157e-08
-2.12983124711e-06
1.11430025738e-08
-2.09220372161e-06
-2.34644009809e-08
-2.03262433722e-06
-4.49667444144e-08
-2.00174222845e-06
-3.60535362205e-08
-1.98973140238e-06
-3.05060632635e-08
-1.9801961239e-06
-3.42527269095e-08
-1.97024689327e-06
-4.19470890173e-08
-1.95408439911e-06
-5.57577612259e-08
-1.93085837974e-06
-7.23156204092e-08
-1.89712373504e-06
-9.18918553293e-08
-1.83853834249e-06
-1.17579726022e-07
-1.74529184394e-06
-1.44573366661e-07
-1.6446513756e-06
-1.58826999227e-07
-1.58661524053e-06
-1.54050065935e-07
-1.51512335747e-06
-1.95961923333e-07
-1.39647627668e-06
-2.62546043539e-07
-1.27040757269e-06
-2.99045208368e-07
-1.12237988155e-06
-3.25589882026e-07
-9.36970974089e-07
-3.60370714053e-07
-7.29563891929e-07
-4.05657413477e-07
-4.91341981933e-07
-4.58942079635e-07
-2.12035443149e-07
-5.18003685711e-07
7.09354214534e-08
-5.36658053445e-07
3.61352789679e-07
-6.01887651026e-07
5.63899261931e-07
-4.13251244543e-07
6.69022460966e-07
-2.21535842998e-07
7.19541587889e-07
-1.22915700651e-07
7.70637723243e-07
-9.71578308786e-08
8.21598289524e-07
-8.34732139449e-08
8.51547058969e-07
-4.95470899177e-08
8.54304925936e-07
-4.98928406681e-09
8.27616341191e-07
4.36476723967e-08
7.77241810673e-07
8.71713928154e-08
7.24796004381e-07
1.10110067113e-07
6.79704276364e-07
1.3352578529e-07
6.1731544873e-07
1.56608337206e-07
5.44161320823e-07
1.70770422525e-07
4.46920771515e-07
1.75031445692e-07
3.41515542831e-07
2.09345998571e-07
1.84270897669e-07
2.62385556835e-07
3.54913272642e-07
-1.28179288985e-07
4.13291007049e-07
-1.8698197646e-07
3.5983313082e-07
-3.44471055751e-07
4.34609209397e-07
-5.32169040078e-07
4.47281454613e-07
-6.9996303964e-07
4.30625511151e-07
-7.80325037675e-07
2.66355966386e-07
-8.16967411067e-07
1.43656234148e-07
-8.91183249355e-07
1.99533782655e-07
-9.79474929595e-07
2.47640475697e-07
-1.06663616446e-06
2.48275917156e-07
-1.14705287086e-06
2.31010850313e-07
-1.21322162677e-06
2.07376051269e-07
-1.2690369777e-06
1.80866668292e-07
-1.32316974038e-06
1.61058161811e-07
-1.35836909418e-06
1.32454968773e-07
-1.31940494214e-06
7.4487280655e-08
-1.24366325419e-06
3.10105214469e-08
-1.23068935736e-06
4.46920586942e-08
-1.29332252079e-06
9.79544667981e-08
-1.43143172197e-06
1.86763866695e-07
-1.57959860152e-06
2.34847904884e-07
-1.66462541541e-06
2.13599001509e-07
-1.71940998992e-06
1.87096681971e-07
-1.78244604644e-06
1.7328546648e-07
-1.84058960971e-06
1.57045216304e-07
-1.88424974662e-06
1.3957067811e-07
-1.92082619287e-06
1.20695961106e-07
-1.95343155394e-06
1.01869191829e-07
-1.98032227719e-06
8.34319360492e-08
-2.00334602742e-06
6.90878188568e-08
-2.01747932878e-06
5.32347104663e-08
-2.02684456164e-06
4.09981180304e-08
-2.03814559802e-06
2.92320880361e-08
-2.02983641551e-06
9.98794950738e-09
-2.02915904183e-06
2.53579798558e-08
-2.05788056353e-06
4.51384291555e-08
-2.06971241194e-06
2.86512036622e-08
-2.0773382523e-06
3.31994919765e-08
-2.10786512492e-06
5.44948283172e-08
-2.13509140623e-06
3.83458092752e-08
-2.15130938149e-06
-7.2699425486e-09
-2.15593891898e-06
-4.03590430063e-08
-2.14455089553e-06
-4.74659992024e-08
-2.12499083121e-06
-5.00906521446e-08
-2.10071705185e-06
-5.85542330274e-08
-2.07037393232e-06
-7.23186080805e-08
-2.03482655224e-06
-9.13362937958e-08
-1.99295106531e-06
-1.14222856489e-07
-1.94373497818e-06
-1.41141852885e-07
-1.88871339559e-06
-1.72636404611e-07
-1.82818151555e-06
-2.05144638744e-07
-1.75282178244e-06
-2.34232097241e-07
-1.63988471579e-06
-2.67043340105e-07
-1.51376497096e-06
-3.22150996047e-07
-1.39959530764e-06
-3.7680573395e-07
-1.27029290612e-06
-4.28466484246e-07
-1.10590616367e-06
-4.90133215707e-07
-9.08527393657e-07
-5.57949067262e-07
-6.83338402777e-07
-6.31102746418e-07
-4.34184941395e-07
-7.08411236647e-07
-1.76599588182e-07
-7.75969341888e-07
1.10749099181e-07
-8.24464543944e-07
3.2766104648e-07
-8.19281678076e-07
4.88331857686e-07
-5.74270785186e-07
6.09566002195e-07
-3.43015249073e-07
7.12746920734e-07
-2.26296477956e-07
7.7820589219e-07
-1.62813839608e-07
8.08998399322e-07
-1.14476707187e-07
8.18893827346e-07
-5.96872492793e-08
8.0979137611e-07
3.83501188493e-09
7.93373495418e-07
5.97783616069e-08
7.85192068634e-07
9.50632786656e-08
7.69695844969e-07
1.2530892125e-07
7.24322370377e-07
1.78609860707e-07
6.43414030297e-07
2.37245961282e-07
5.44948859911e-07
2.68964040447e-07
4.44508548916e-07
2.75214818149e-07
3.47574606626e-07
3.06068610325e-07
1.56680529084e-07
4.52886615858e-07
5.11540094982e-07
-9.04725172569e-08
5.03736716843e-07
-1.14197292633e-07
3.83556746974e-07
-3.02293776315e-07
6.22708723555e-07
-4.49708589993e-07
5.94710941004e-07
-4.4202486788e-07
4.22948633296e-07
-3.70215136737e-07
1.94543047198e-07
-5.17667004039e-07
2.9109186998e-07
-7.66771239894e-07
4.4860842241e-07
-9.33311064217e-07
4.14156043463e-07
-1.04316692818e-06
3.58111538806e-07
-1.13652179699e-06
3.24359387515e-07
-1.21272623651e-06
2.83587365434e-07
-1.25818792651e-06
2.26342188782e-07
-1.2325272112e-06
1.3541350586e-07
-1.15524759005e-06
5.518011557e-08
-1.11880059681e-06
3.80270136452e-08
-1.16300955908e-06
7.51968477183e-08
-1.28310354478e-06
1.64755200711e-07
-1.44475988786e-06
2.59576497078e-07
-1.55610809363e-06
2.98078222513e-07
-1.61093326556e-06
2.89640218018e-07
-1.67090330609e-06
2.73533629659e-07
-1.73535150165e-06
2.5151154888e-07
-1.78938277819e-06
2.27283024364e-07
-1.83602225959e-06
2.03654491572e-07
-1.87658362588e-06
1.80100353556e-07
-1.91432744651e-06
1.58411549957e-07
-1.94655335568e-06
1.34064219431e-07
-1.97458973765e-06
1.11441704181e-07
-1.99322659955e-06
8.76996780019e-08
-2.01033077604e-06
7.0316125186e-08
-2.01403237545e-06
4.46815994681e-08
-2.0040072718e-06
1.91843567939e-08
-2.02529540037e-06
3.12490701158e-08
-2.03957463231e-06
3.96105059964e-08
-2.05018635559e-06
5.57192895999e-08
-2.10013360151e-06
7.85672694603e-08
-2.14240875528e-06
7.54447776675e-08
-2.15059522309e-06
6.26554184773e-08
-2.14867868839e-06
3.64031240813e-08
-2.15242415967e-06
-3.54969502711e-09
-2.15540259684e-06
-3.74065667409e-08
-2.14757847467e-06
-5.53155429781e-08
-2.13036628262e-06
-6.73302091354e-08
-2.10681334866e-06
-8.21357485721e-08
-2.07745715773e-06
-1.01706205321e-07
-2.04261865489e-06
-1.26207928213e-07
-2.00165726059e-06
-1.5522012856e-07
-1.9538568971e-06
-1.88980188323e-07
-1.89887085751e-06
-2.27664022226e-07
-1.83412618679e-06
-2.69934921081e-07
-1.7530117711e-06
-3.15399847138e-07
-1.65129051198e-06
-3.6882734588e-07
-1.53911834414e-06
-4.34402663243e-07
-1.41215158564e-06
-5.03872946611e-07
-1.26036578597e-06
-5.80382518836e-07
-1.07958664731e-06
-6.71078837087e-07
-8.66728934111e-07
-7.71017245324e-07
-6.24244908682e-07
-8.73842771794e-07
-3.63167207545e-07
-9.69788931116e-07
-1.00067067488e-07
-1.0394089665e-06
1.34572667494e-07
-1.05948576058e-06
2.87875193186e-07
-9.72957299279e-07
4.77063347828e-07
-7.63791640995e-07
6.3022514802e-07
-4.96436264714e-07
7.0845339341e-07
-3.04719581102e-07
7.60623697587e-07
-2.15161704149e-07
7.98556128537e-07
-1.52605013147e-07
8.22461479512e-07
-8.38196356338e-08
8.35445043074e-07
-9.4027226711e-09
8.39283966157e-07
5.5665264127e-08
8.21926884769e-07
1.12149547443e-07
7.61677270009e-07
1.85314309668e-07
6.76507098352e-07
2.63560847883e-07
5.87786788513e-07
3.25753709084e-07
4.76533781875e-07
3.80035429332e-07
3.46979170281e-07
4.04615160659e-07
2.41497354825e-07
4.11395479267e-07
1.2651274549e-07
5.67835569593e-07
6.37927317654e-07
-1.27807376708e-08
5.16541522502e-07
-1.03502174808e-07
4.74275968052e-07
-2.57493023716e-07
7.76712509798e-07
-3.52734750314e-07
6.89974606308e-07
-3.15162371532e-07
3.85377455481e-07
-3.9066544544e-07
2.70030381559e-07
-5.94598785666e-07
4.94995819952e-07
-7.55976249123e-07
6.09960093504e-07
-8.82726364943e-07
5.4088043839e-07
-9.99791459979e-07
4.75165470455e-07
-1.10663901756e-06
4.31215114653e-07
-1.14938978719e-06
3.26350619144e-07
-1.1020178124e-06
1.78985293111e-07
-1.05699725111e-06
9.03934243445e-08
-1.08756559232e-06
8.57309707712e-08
-1.18091361864e-06
1.3134788176e-07
-1.32055386806e-06
2.14804046128e-07
-1.45063457358e-06
2.948008601e-07
-1.51601253471e-06
3.2492260697e-07
-1.55214153854e-06
3.34176330664e-07
-1.60988778518e-06
3.47354052948e-07
-1.67483667363e-06
3.3844957894e-07
-1.73364617252e-06
3.10287942112e-07
-1.78419019097e-06
2.77796235598e-07
-1.82853340178e-06
2.47966518818e-07
-1.87072335823e-06
2.22262170408e-07
-1.90439876039e-06
1.92054783825e-07
-1.93723979072e-06
1.66876901777e-07
-1.95999063269e-06
1.34167522869e-07
-1.97924782717e-06
1.06933779243e-07
-1.98162820361e-06
7.26749577858e-08
-1.99281302966e-06
5.58415283058e-08
-2.02787421177e-06
5.42184089784e-08
-2.0336123726e-06
3.69549723603e-08
-2.05816445226e-06
6.41264665367e-08
-2.10556688717e-06
1.03086639498e-07
-2.13506576883e-06
1.08033924082e-07
-2.15192057242e-06
9.22709523821e-08
-2.15736875538e-06
6.80761088945e-08
-2.15761333932e-06
3.66211171231e-08
-2.15978856862e-06
-1.40158898704e-09
-2.1607008705e-06
-3.6521515067e-08
-2.15377734696e-06
-6.22674875117e-08
-2.13823372439e-06
-8.29034388979e-08
-2.11587174434e-06
-1.04529807244e-07
-2.08767053214e-06
-1.2994195821e-07
-2.0538821389e-06
-1.60034172032e-07
-2.01402661282e-06
-1.95116593377e-07
-1.96724022386e-06
-2.3581146092e-07
-1.91217697082e-06
-2.82776361057e-07
-1.84588242129e-06
-3.36284236241e-07
-1.7640307172e-06
-3.97311843453e-07
-1.66469299551e-06
-4.68239028311e-07
-1.54941963463e-06
-5.49764835666e-07
-1.41287969582e-06
-6.40527095775e-07
-1.24764690194e-06
-7.45762341366e-07
-1.05000979704e-06
-8.68899896782e-07
-8.18978956103e-07
-1.00226668467e-06
-5.61167835874e-07
-1.13190290586e-06
-2.93995145174e-07
-1.23724220775e-06
-4.16299397297e-08
-1.29208090698e-06
1.62187115313e-07
-1.26361354043e-06
2.97770252067e-07
-1.10885843509e-06
5.08177941654e-07
-9.74509836689e-07
6.69174643333e-07
-6.57679047759e-07
7.50948381637e-07
-3.86688305702e-07
7.89588963641e-07
-2.53983770632e-07
8.12980055868e-07
-1.76179965374e-07
8.32135858253e-07
-1.03174289746e-07
8.50526408206e-07
-2.80171978489e-08
8.49441128415e-07
5.65253804754e-08
8.00526238287e-07
1.6085977108e-07
7.24918655025e-07
2.60748110541e-07
6.46245322896e-07
3.4207677674e-07
5.51889425038e-07
4.19979293145e-07
4.33905371086e-07
4.97886747499e-07
3.337172386e-07
5.04751081428e-07
2.26738079796e-07
5.18361641048e-07
1.02935367761e-07
6.91456989967e-07
7.40896575591e-07
-4.85333660334e-09
5.21368286641e-07
-1.34202533744e-07
6.03626449112e-07
-2.14472722796e-07
8.56996105216e-07
-2.56078970476e-07
7.31583731916e-07
-2.41888328047e-07
3.71181028245e-07
-4.41174903184e-07
4.69296795845e-07
-6.4969453742e-07
7.03490110809e-07
-7.42298399686e-07
7.02535887351e-07
-8.43420527657e-07
6.41991185358e-07
-9.34376950124e-07
5.66125973452e-07
-9.66961135501e-07
4.63808252765e-07
-9.02668461963e-07
2.62071060078e-07
-8.86174782063e-07
1.62488365495e-07
-9.51842358531e-07
1.56042505543e-07
-1.06859486249e-06
2.02453590783e-07
-1.23450050567e-06
2.97216135666e-07
-1.38410062474e-06
3.64367857181e-07
-1.44883671894e-06
3.59508129182e-07
-1.48141838769e-06
3.57476163579e-07
-1.54710270858e-06
3.99830649199e-07
-1.61556717802e-06
4.15787450373e-07
-1.67207871109e-06
3.94929478388e-07
-1.72531534394e-06
3.63493539562e-07
-1.77809052304e-06
3.30539663004e-07
-1.82440118354e-06
2.94248038356e-07
-1.85108877062e-06
2.48919101367e-07
-1.88680227262e-06
2.27740426919e-07
-1.91346560809e-06
1.93513850772e-07
-1.93740529524e-06
1.580803737e-07
-1.93616292277e-06
1.05667157681e-07
-1.94054348421e-06
7.70305956991e-08
-1.95788834697e-06
7.31578573404e-08
-1.97224009124e-06
6.85357316561e-08
-2.03744883045e-06
1.02123917512e-07
-2.09909961255e-06
1.25735817315e-07
-2.13263949564e-06
1.36589322974e-07
-2.15027686217e-06
1.25638738072e-07
-2.16038651196e-06
1.0235112676e-07
-2.16527343935e-06
7.29352103117e-08
-2.16734422388e-06
3.86637988827e-08
-2.16910631741e-06
3.31700889396e-10
-2.16869970527e-06
-3.69577201273e-08
-2.16204727445e-06
-6.89503204759e-08
-2.14781680992e-06
-9.71660046098e-08
-2.12684886611e-06
-1.25532417079e-07
-2.10000756135e-06
-1.56821581304e-07
-2.06755817145e-06
-1.92525740954e-07
-2.02902696775e-06
-2.33695032176e-07
-1.98335619627e-06
-2.81534561912e-07
-1.92881326357e-06
-3.37378273864e-07
-1.86261552065e-06
-4.02545595161e-07
-1.78141588446e-06
-4.78587742178e-07
-1.68261263453e-06
-5.6712484747e-07
-1.56325128754e-06
-6.69230109393e-07
-1.41675430963e-06
-7.87153383605e-07
-1.23686401769e-06
-9.25807725526e-07
-1.02180421454e-06
-1.08414743434e-06
-7.75279094667e-07
-1.24900484575e-06
-5.08215782615e-07
-1.39921368157e-06
-2.39923665149e-07
-1.50578903757e-06
9.76888806179e-10
-1.53324283691e-06
1.87382137025e-07
-1.45028266655e-06
3.56339936607e-07
-1.2780761903e-06
5.34943805208e-07
-1.15337562711e-06
6.68619084956e-07
-7.91576581257e-07
7.52498994042e-07
-4.70743128157e-07
8.05930020491e-07
-3.07579358371e-07
8.386117959e-07
-2.09036713684e-07
8.65227508566e-07
-1.29969928443e-07
8.77718952483e-07
-4.06893089193e-08
8.41991383848e-07
9.20742035152e-08
7.75916391699e-07
2.26788959934e-07
7.09247221348e-07
3.27292189584e-07
6.35498426542e-07
4.1572050227e-07
5.42152093067e-07
5.13233184531e-07
4.42478844401e-07
5.97566182612e-07
3.36538173294e-07
6.10649777869e-07
2.25233684713e-07
6.29630104415e-07
1.12598279656e-07
8.04181948945e-07
8.53389527664e-07
-4.94066659272e-08
5.70787570504e-07
-2.06854621293e-07
7.61076469062e-07
-2.75874928212e-07
9.26033925731e-07
-2.28695637714e-07
6.84408121251e-07
-2.9763120517e-07
4.40101523429e-07
-5.29344087031e-07
7.00985218006e-07
-6.45362506807e-07
8.19481852676e-07
-7.21583979037e-07
7.78747190435e-07
-7.84405324537e-07
7.04805683241e-07
-8.74471277646e-07
6.56202614803e-07
-8.45922391367e-07
4.3527162732e-07
-8.10799226242e-07
2.26945758135e-07
-8.72626184072e-07
2.24298506417e-07
-9.66597518949e-07
2.49981758209e-07
-1.12307971375e-06
3.58895966904e-07
-1.28542007065e-06
4.59521372199e-07
-1.35442323759e-06
4.33343225343e-07
-1.38630321793e-06
3.91360785817e-07
-1.46603170226e-06
4.37174851239e-07
-1.54749196348e-06
4.81260890206e-07
-1.60966552757e-06
4.77931020436e-07
-1.66646091395e-06
4.51695231238e-07
-1.721005021e-06
4.18005183193e-07
-1.76397866861e-06
3.73483588114e-07
-1.79480872637e-06
3.25049960417e-07
-1.8269624751e-06
2.81043051038e-07
-1.84603122394e-06
2.46779992165e-07
-1.87545362272e-06
2.22906904555e-07
-1.88672474277e-06
1.69325631935e-07
-1.88772999045e-06
1.06644831411e-07
-1.91188098728e-06
1.01148415319e-07
-1.9463265009e-06
1.07568780105e-07
-2.0013256742e-06
1.23493836539e-07
-2.05960246186e-06
1.60355439619e-07
-2.11910104847e-06
1.85191555257e-07
-2.14755804718e-06
1.65008195105e-07
-2.16088016383e-06
1.38926900448e-07
-2.16947426269e-06
1.10914362227e-07
-2.17530944688e-06
7.87408592163e-08
-2.17870213364e-06
4.20271567174e-08
-2.18039219144e-06
1.99198941531e-09
-2.1792323421e-06
-3.81481366232e-08
-2.17264716983e-06
-7.55674440138e-08
-2.15937601616e-06
-1.10471563475e-07
-2.1397295655e-06
-1.45217079691e-07
-2.11434046457e-06
-1.82253114465e-07
-2.08340306711e-06
-2.23511906691e-07
-2.0464445657e-06
-2.70707810277e-07
-2.0023808828e-06
-3.25660644019e-07
-1.94943913325e-06
-3.90387334088e-07
-1.88497571004e-06
-4.67088147845e-07
-1.80555996121e-06
-5.5808019637e-07
-1.70704608575e-06
-6.65733943043e-07
-1.5836270947e-06
-7.92758584681e-07
-1.42783521888e-06
-9.43067528236e-07
-1.23455609887e-06
-1.11924307882e-06
-1.00464791247e-06
-1.31422726536e-06
-7.45211223443e-07
-1.50865255403e-06
-4.68105603314e-07
-1.67652298993e-06
-1.9094767649e-07
-1.78317140505e-06
5.54090972386e-08
-1.77982328381e-06
2.5939040575e-07
-1.65447915158e-06
4.53344789392e-07
-1.472240063e-06
5.47769307242e-07
-1.24800973199e-06
6.85532940255e-07
-9.29509806871e-07
7.80681889388e-07
-5.66043977341e-07
8.61002075712e-07
-3.88073342479e-07
9.11855438412e-07
-2.60062753085e-07
9.27756887685e-07
-1.46037498224e-07
8.97662225386e-07
-1.07562168448e-08
8.34378041913e-07
1.55227025266e-07
7.74071023531e-07
2.86977692312e-07
7.15383264123e-07
3.85876096662e-07
6.46802593588e-07
4.84238589848e-07
5.61813729816e-07
5.98254353922e-07
4.80242876235e-07
6.79076857152e-07
3.60406208203e-07
7.30593189457e-07
2.31449173258e-07
7.58634339237e-07
1.27140052086e-07
9.0831803202e-07
9.80556481152e-07
-9.29765661491e-08
6.63735412003e-07
-2.347207474e-07
9.02823461024e-07
-2.59994489025e-07
9.51300796162e-07
-1.70586139933e-07
5.94992914234e-07
-3.40587852438e-07
6.10087237347e-07
-5.36881406647e-07
8.97255123759e-07
-6.17427637656e-07
9.00016469279e-07
-7.00695006112e-07
8.62006306946e-07
-7.0747586111e-07
7.11598267326e-07
-7.29773499473e-07
6.78501939803e-07
-6.92393494598e-07
3.97891669852e-07
-7.82809063311e-07
3.17345661687e-07
-8.66522059623e-07
3.07982689299e-07
-1.00195587646e-06
3.85380498324e-07
-1.16752774589e-06
5.24429675428e-07
-1.25046218812e-06
5.42423370278e-07
-1.28183855083e-06
4.64694385285e-07
-1.36760018376e-06
4.77094752236e-07
-1.46589160453e-06
5.35436047361e-07
-1.53589179859e-06
5.51231368416e-07
-1.59286929369e-06
5.34879490047e-07
-1.64794692154e-06
5.06740361058e-07
-1.70751110945e-06
4.77540066831e-07
-1.76284491539e-06
4.28791072484e-07
-1.7858345809e-06
3.48007831008e-07
-1.8218909762e-06
3.17071381477e-07
-1.84410315424e-06
2.68961952639e-07
-1.83682779952e-06
2.15601952357e-07
-1.84791350299e-06
1.80380247111e-07
-1.91550843676e-06
1.74204038944e-07
-1.95523401507e-06
1.40836546903e-07
-1.96220585991e-06
1.14495933537e-07
-2.02468842821e-06
1.85929312415e-07
-2.09994766576e-06
2.35566032831e-07
-2.13450380465e-06
2.197025569e-07
-2.15610108962e-06
1.86565030026e-07
-2.17039875133e-06
1.53188349133e-07
-2.18025947766e-06
1.2074186128e-07
-2.18731170417e-06
8.57614875619e-08
-2.19178399924e-06
4.64683227573e-08
-2.19361702558e-06
3.79358337616e-09
-2.19203035079e-06
-3.97668385539e-08
-2.18549116179e-06
-8.21401973609e-08
-2.17296853931e-06
-1.23030518476e-07
-2.15448322474e-06
-1.63742539302e-07
-2.13048501838e-06
-2.06298176656e-07
-2.10113873281e-06
-2.52910340319e-07
-2.06606720719e-06
-3.05840574266e-07
-2.02434151666e-06
-3.67453041298e-07
-1.9743452949e-06
-4.40462711662e-07
-1.91342802067e-06
-5.28081877507e-07
-1.83757952901e-06
-6.34025931861e-07
-1.74091557143e-06
-7.62497270963e-07
-1.61548128002e-06
-9.18296068752e-07
-1.4530506305e-06
-1.10564189016e-06
-1.24940499476e-06
-1.32302488977e-06
-1.00707079587e-06
-1.55675265245e-06
-7.32532303704e-07
-1.78335157652e-06
-4.33199756229e-07
-1.97606773472e-06
-1.29159280816e-07
-2.08740417244e-06
1.42633143867e-07
-2.0517988763e-06
3.66695896254e-07
-1.87871123636e-06
5.36407600121e-07
-1.64210896213e-06
6.4885847538e-07
-1.36060620131e-06
7.65989079269e-07
-1.04681270743e-06
8.5776540908e-07
-6.57981965707e-07
9.24940433795e-07
-4.55401983713e-07
9.6605447633e-07
-3.01338901993e-07
9.57478075559e-07
-1.37611828705e-07
9.04216329115e-07
4.23882859891e-08
8.41447442431e-07
2.17871027357e-07
7.85923882605e-07
3.42409378835e-07
7.33724352111e-07
4.38017185185e-07
6.78787619772e-07
5.3917304617e-07
6.15687522968e-07
6.61286965192e-07
5.3040721139e-07
7.64535735901e-07
4.04030966515e-07
8.5690080575e-07
2.46502698579e-07
9.16117424918e-07
1.27751108252e-07
1.02712785145e-06
1.10816149133e-06
-1.23804559988e-07
7.8755316211e-07
-2.31647266846e-07
1.01066640504e-06
-2.09442019671e-07
9.29102453039e-07
-2.19362131649e-07
6.04903399972e-07
-4.1762287162e-07
8.08332655788e-07
-5.04122538501e-07
9.83741988317e-07
-5.7912374404e-07
9.75016690129e-07
-6.56298184026e-07
9.39184391419e-07
-6.76095469618e-07
7.31393910799e-07
-6.99462281516e-07
7.0187225865e-07
-7.10858928736e-07
4.09274265535e-07
-7.8863911277e-07
3.95102806222e-07
-8.88533400486e-07
4.07842478459e-07
-1.04477193792e-06
5.41577556744e-07
-1.18617212895e-06
6.65797730477e-07
-1.23093069244e-06
5.87158028694e-07
-1.27552711226e-06
5.09264379817e-07
-1.36501640372e-06
5.66553607777e-07
-1.45186800751e-06
6.22257109675e-07
-1.52105472625e-06
6.20387126697e-07
-1.5786822711e-06
5.92472456859e-07
-1.62424570331e-06
5.52274112038e-07
-1.66319968278e-06
5.16469848544e-07
-1.70418009073e-06
4.69742830956e-07
-1.73928632709e-06
3.83089188328e-07
-1.76108310085e-06
3.38837587796e-07
-1.80358850653e-06
3.11434424192e-07
-1.85059192195e-06
2.6257379917e-07
-1.88867486247e-06
2.18429952904e-07
-1.91424966224e-06
1.99738702472e-07
-1.95415927408e-06
1.80697545009e-07
-2.04079447573e-06
2.01078310877e-07
-2.08915085986e-06
2.34230192719e-07
-2.11933924552e-06
2.65701753013e-07
-2.14493550974e-06
2.45251467794e-07
-2.16577148549e-06
2.07358130354e-07
-2.18167418734e-06
1.69051728192e-07
-2.19302675253e-06
1.32058175661e-07
-2.20106286642e-06
9.37635423556e-08
-2.20637384954e-06
5.17465146653e-08
-2.20863678979e-06
6.02450662754e-09
-2.20700548361e-06
-4.1430504838e-08
-2.20051590917e-06
-8.86635956504e-08
-2.18853637328e-06
-1.35047060568e-07
-2.17099202807e-06
-1.81330352112e-07
-2.1481764309e-06
-2.29161581201e-07
-2.12036829643e-06
-2.80777041729e-07
-2.08749257001e-06
-3.38779451749e-07
-2.04898066334e-06
-4.06042201722e-07
-2.00351649514e-06
-4.86004026547e-07
-1.94851123405e-06
-5.83188364042e-07
-1.87925249621e-06
-7.03378058248e-07
-1.78823061357e-06
-8.53611418316e-07
-1.6654786464e-06
-1.04118768988e-06
-1.50124949505e-06
-1.26997264748e-06
-1.29036372285e-06
-1.53409916914e-06
-1.03300144724e-06
-1.8142287496e-06
-7.30609428592e-07
-2.08595853635e-06
-3.90597580991e-07
-2.31622673205e-06
-5.38863839184e-08
-2.42428289854e-06
2.28418778023e-07
-2.33425136426e-06
4.52919582261e-07
-2.10333356508e-06
6.41275560388e-07
-1.83057192616e-06
7.9849673987e-07
-1.51795162994e-06
9.0429382859e-07
-1.15274468456e-06
9.93079208087e-07
-7.46926249237e-07
1.03067299242e-06
-4.93158733135e-07
1.04599644545e-06
-3.16800510612e-07
1.00895230865e-06
-1.00686697795e-07
9.32059221322e-07
1.19147832193e-07
8.59902602379e-07
2.8995240177e-07
7.99160788685e-07
4.0307237772e-07
7.55378766387e-07
4.81737878678e-07
7.2597283141e-07
5.68516383636e-07
6.86850256667e-07
7.00584018963e-07
5.88977473455e-07
8.62224473367e-07
4.47675160592e-07
9.98290449717e-07
2.71726854817e-07
1.09203186206e-06
1.24472464576e-07
1.17408746535e-06
1.23258250887e-06
-1.46257984758e-07
9.33773859817e-07
-2.43993948624e-07
1.10838814772e-06
-1.92187322375e-07
8.77286121689e-07
-2.68607060712e-07
6.81317476446e-07
-4.41366290417e-07
9.8108380769e-07
-4.67506248567e-07
1.00988512056e-06
-5.32847308191e-07
1.04035156304e-06
-5.58161327737e-07
9.64504241567e-07
-6.18007271819e-07
7.91238201443e-07
-6.10262977819e-07
6.9411549681e-07
-6.87753402033e-07
4.86746918935e-07
-7.85430200798e-07
4.92747974928e-07
-8.9819833226e-07
5.20577884664e-07
-1.04302349189e-06
6.86368525573e-07
-1.12460348026e-06
7.47346574326e-07
-1.15063647539e-06
6.13166517257e-07
-1.24147542063e-06
6.00075329573e-07
-1.34305795037e-06
6.68104772964e-07
-1.42501606242e-06
7.04182891418e-07
-1.49897680681e-06
6.94314243712e-07
-1.56644540772e-06
6.59912946554e-07
-1.62432298341e-06
6.10125285702e-07
-1.65335384362e-06
5.45469228266e-07
-1.67275165607e-06
4.8911530223e-07
-1.73119656608e-06
4.4150650117e-07
-1.75790418787e-06
3.65509881981e-07
-1.75217071237e-06
3.05673063984e-07
-1.76914230298e-06
2.79513295756e-07
-1.82270394591e-06
2.71950913023e-07
-1.90189573618e-06
2.7888513633e-07
-1.97218288982e-06
2.50930325721e-07
-2.03022698326e-06
2.59061795596e-07
-2.10030516544e-06
3.04245797294e-07
-2.13443211031e-06
2.99772834871e-07
-2.15732777998e-06
2.68096186762e-07
-2.17810233481e-06
2.28085332849e-07
-2.19545748667e-06
1.86363272206e-07
-2.20823793067e-06
1.44798446931e-07
-2.21702664856e-06
1.02514908565e-07
-2.22279677259e-06
5.74814915337e-08
-2.22544337367e-06
8.6371851653e-09
-2.22400470955e-06
-4.29026800793e-08
-2.21761504419e-06
-9.50878439335e-08
-2.20591259326e-06
-1.46788089983e-07
-2.18895870483e-06
-1.98325340305e-07
-2.16705491604e-06
-2.51117908045e-07
-2.14061425269e-06
-3.07270697784e-07
-2.11007571224e-06
-3.69386160322e-07
-2.07558240521e-06
-4.40603895372e-07
-2.03649182715e-06
-5.25187629388e-07
-1.99051669264e-06
-6.29249965379e-07
-1.93260095144e-06
-7.61390424261e-07
-1.85379991302e-06
-9.32550701398e-07
-1.74152128007e-06
-1.15354583567e-06
-1.58251390387e-06
-1.42916987207e-06
-1.36562222731e-06
-1.75109111689e-06
-1.08153356064e-06
-2.09855965489e-06
-7.25218331797e-07
-2.44238124781e-06
-3.33371273744e-07
-2.70825711403e-06
3.98286201811e-09
-2.7617691158e-06
2.63556391001e-07
-2.59395844729e-06
5.03181252388e-07
-2.34306990447e-06
7.49680439065e-07
-2.07716824129e-06
9.76284126315e-07
-1.74464564333e-06
1.17030092869e-06
-1.34687858873e-06
1.3299247172e-06
-9.06700626785e-07
1.28769445728e-06
-4.5107127266e-07
1.13269045255e-06
-1.61939516117e-07
1.05554753761e-06
-2.36489406061e-08
9.62953582228e-07
2.11687473922e-07
8.69505863884e-07
3.83315369424e-07
7.91651566461e-07
4.80870304761e-07
7.64664682289e-07