/*--------------------------------*- C++ -*----------------------------------*\
| =========                 |                                                 |
| \\      /  F ield         | OpenFOAM: The Open Source CFD Toolbox           |
|  \\    /   O peration     | Version:  v1806                                 |
|   \\  /    A nd           | Web:      www.OpenFOAM.com                      |
|    \\/     M anipulation  |                                                 |
\*---------------------------------------------------------------------------*/
FoamFile
{
    version     2.0;
    format      ascii;
    class       volScalarField;
    location    "473";
    object      pa;
}
// * * * * * * * * * * * * * * * * * * * * * * * * * * * * * * * * * * * * * //

dimensions      [0 2 -2 0 0 0 0];


internalField   nonuniform List<scalar> 
6400
(
-0.122062569073
-0.12206418803
-0.122068729499
-0.122077526547
-0.122090417352
-0.122107331764
-0.122128330258
-0.12215419016
-0.122185382423
-0.122222544486
-0.12226941114
-0.122328092816
-0.122396898544
-0.122476070268
-0.122567178637
-0.122672161631
-0.12279224994
-0.12292757504
-0.123077278626
-0.123238191665
-0.123406410847
-0.123582746307
-0.123772305748
-0.123980848009
-0.124212469825
-0.124467600745
-0.12474404761
-0.125040322894
-0.125356769676
-0.125694604652
-0.126054967971
-0.126437057678
-0.126836296559
-0.127247957346
-0.127670393559
-0.128100966397
-0.128539736362
-0.128993631808
-0.129461888768
-0.12993490711
-0.130414133539
-0.130914493378
-0.131444389872
-0.131996075493
-0.13255928706
-0.133127449788
-0.133695563123
-0.134260243275
-0.134818477786
-0.135367848308
-0.135906853053
-0.136430253416
-0.136928721717
-0.137388773798
-0.137809429916
-0.13820031096
-0.138556802218
-0.138863384732
-0.139113296233
-0.13931691013
-0.139481113844
-0.13960947043
-0.139696594725
-0.13977049405
-0.139872723966
-0.140034578357
-0.140245167229
-0.140458485239
-0.140639535095
-0.140784948798
-0.1409033055
-0.141004553238
-0.141095088079
-0.141172942319
-0.141240298398
-0.141297123164
-0.141343072298
-0.141372601495
-0.141391207191
-0.141398982999
-0.122060233068
-0.122061950825
-0.122066020033
-0.122074612294
-0.122088414091
-0.122106217161
-0.122127462393
-0.1221522366
-0.122182187292
-0.122219229446
-0.122265789236
-0.122323615269
-0.122392424242
-0.12247203356
-0.122563071
-0.122666892827
-0.122786278375
-0.122921843128
-0.123072303809
-0.123233598975
-0.12340022033
-0.123574712126
-0.123763511984
-0.123971614931
-0.124203205131
-0.124458660305
-0.124734979028
-0.125031347616
-0.125348223659
-0.125686317282
-0.126046251169
-0.126428252842
-0.126828056855
-0.127239362575
-0.127661669299
-0.128092230401
-0.128530405977
-0.128984489984
-0.129453639438
-0.129926827284
-0.130403691836
-0.13090326894
-0.131436962014
-0.131991471639
-0.132555809446
-0.133125269734
-0.133694647195
-0.134260964211
-0.134820573553
-0.135369053193
-0.13590480481
-0.136428495688
-0.13693477829
-0.137397886485
-0.137820413613
-0.138216132022
-0.138569761161
-0.138870750196
-0.139120836715
-0.139324009144
-0.139483048384
-0.139612032558
-0.139704169063
-0.139782247658
-0.139887338938
-0.140049450688
-0.140262690435
-0.140475499627
-0.140654870504
-0.140799464238
-0.14091725363
-0.141018452426
-0.141109606846
-0.141188448783
-0.141254667242
-0.141309263416
-0.141351460872
-0.14137970228
-0.141397540301
-0.141403464228
-0.122053657584
-0.122056492104
-0.122060056978
-0.122067883328
-0.122081173025
-0.122101029752
-0.122124037501
-0.12214786784
-0.122176051024
-0.122211983806
-0.122257794011
-0.122314878509
-0.122383371954
-0.122462945524
-0.122553505607
-0.122654380996
-0.122771369972
-0.122909919174
-0.123062106934
-0.123222143968
-0.123385467958
-0.123555276433
-0.123742362819
-0.123951625166
-0.124183101819
-0.124437462432
-0.124713916861
-0.125010933726
-0.125328215995
-0.125666486538
-0.126026163273
-0.126408052298
-0.126809049079
-0.127218984467
-0.127638972564
-0.128070957248
-0.128508431202
-0.128960378816
-0.129429987908
-0.129905688274
-0.130388728576
-0.130892420108
-0.131424019506
-0.131976694841
-0.132541284664
-0.133111787354
-0.13368342018
-0.134252393424
-0.134815013939
-0.135367747599
-0.135908118684
-0.136432867373
-0.136933760259
-0.137400573624
-0.137834503727
-0.138232293367
-0.138582265007
-0.138881122253
-0.139130440391
-0.139333497939
-0.139495877742
-0.139624187265
-0.139719761071
-0.139807939409
-0.139924992127
-0.14009365783
-0.140298902074
-0.140504476742
-0.14068398862
-0.140830026229
-0.140949230567
-0.141050889355
-0.141139003725
-0.141213706293
-0.141277411726
-0.141329216166
-0.14136747374
-0.141393242978
-0.141409163213
-0.141414803034
-0.122044488651
-0.122047318091
-0.12205015695
-0.122057286392
-0.122068836055
-0.122088298275
-0.122117450373
-0.122141142719
-0.12216698479
-0.12220105263
-0.122245678532
-0.122302033005
-0.122370199067
-0.122448853217
-0.12253837845
-0.122641510927
-0.122760643511
-0.122896522068
-0.123042577625
-0.123193765285
-0.123352926958
-0.123524452533
-0.123712351971
-0.123920847683
-0.124151991061
-0.12440628605
-0.124682997665
-0.124980515683
-0.125298334276
-0.125636702685
-0.125996795498
-0.126378671091
-0.126779464086
-0.127191577007
-0.127607743717
-0.128034998188
-0.128475484689
-0.128926528696
-0.129391957929
-0.129870250662
-0.130360900617
-0.130870359543
-0.131403276034
-0.131956050418
-0.132521740884
-0.133094362424
-0.133668996594
-0.134241530502
-0.134808179173
-0.135365377687
-0.135909776163
-0.136437015758
-0.136940391567
-0.137413108261
-0.137851730069
-0.138249905213
-0.138599307361
-0.138897364405
-0.139146095383
-0.139349662954
-0.139514118775
-0.139646402068
-0.139754937464
-0.139861639161
-0.139986698058
-0.140148536849
-0.140350250106
-0.140554371625
-0.140734098304
-0.140880841619
-0.140998252566
-0.141094334484
-0.141176321897
-0.141250033311
-0.141313644326
-0.141361352576
-0.141393839592
-0.14141791172
-0.141434308379
-0.141440999537
-0.122030190325
-0.122030563077
-0.122034048166
-0.122041212402
-0.122053809979
-0.122071517595
-0.122097598583
-0.122123810652
-0.122151144268
-0.122185193
-0.122228708726
-0.122284354716
-0.12235221382
-0.122433186069
-0.122526453832
-0.122629066262
-0.122743098777
-0.122869440862
-0.123006782
-0.123154630159
-0.123313400832
-0.123484527224
-0.123672092554
-0.123880246895
-0.124110934574
-0.124365021813
-0.124641625993
-0.124939618522
-0.125258015502
-0.125597062807
-0.125957048187
-0.126340300455
-0.126743654788
-0.127151279413
-0.127564860636
-0.127989033076
-0.128424941543
-0.128876300204
-0.129343672065
-0.129825829369
-0.130322774217
-0.130837867935
-0.131373756978
-0.131928301453
-0.132496239976
-0.133071999431
-0.13365058788
-0.134227679225
-0.134799375956
-0.135361967301
-0.135911588742
-0.136443504504
-0.136951770586
-0.137430300489
-0.137873275901
-0.13827310915
-0.138623043774
-0.138921493529
-0.139171202945
-0.139377392577
-0.139547113572
-0.139688810346
-0.139814319703
-0.139937788216
-0.140066919209
-0.140226449872
-0.140423223027
-0.140624274892
-0.140803357724
-0.14094864741
-0.141060582215
-0.141150193566
-0.141232026912
-0.141308243131
-0.141368527915
-0.141410375879
-0.141439990003
-0.141465855303
-0.141481097881
-0.141485964318
-0.122003882263
-0.122003605822
-0.122009606501
-0.122016790152
-0.122030268767
-0.122048701048
-0.122072788389
-0.122099138734
-0.12212852743
-0.122163309787
-0.122205253921
-0.122260311091
-0.122332235179
-0.122416951145
-0.122508563212
-0.122606486573
-0.12271330255
-0.122832422212
-0.122964956513
-0.123109706618
-0.123265445839
-0.123434865499
-0.123621845465
-0.123829703974
-0.124060014899
-0.124313134672
-0.124589758633
-0.124887935215
-0.125207262826
-0.125547019097
-0.125908377577
-0.126291332732
-0.12669183492
-0.127101802221
-0.127509707096
-0.127926852193
-0.128361222398
-0.128814151395
-0.129284577419
-0.129771244848
-0.130274127749
-0.130795011467
-0.131335224191
-0.13189317024
-0.13246469018
-0.133044714809
-0.133628302821
-0.134211016682
-0.1347888746
-0.13535804333
-0.135914394042
-0.136453033131
-0.136968148985
-0.137453265662
-0.137901167463
-0.138304074312
-0.138656529091
-0.138957966518
-0.139211836932
-0.139424155837
-0.13960269703
-0.139757023539
-0.139901426663
-0.140035209586
-0.140168536078
-0.14033148311
-0.14052750593
-0.14072310652
-0.140896544051
-0.141034785551
-0.141139454736
-0.141228821427
-0.141316005917
-0.141390587926
-0.141444734538
-0.141481476736
-0.141511111003
-0.141534891879
-0.141546635431
-0.141551233427
-0.121963875772
-0.121966663557
-0.121976755371
-0.121987380411
-0.121998164411
-0.122016482136
-0.122041557539
-0.122068334401
-0.122098992544
-0.122134525172
-0.122178129404
-0.122233433587
-0.122308095209
-0.122391090298
-0.122478672385
-0.122570556797
-0.122672017201
-0.122787828184
-0.122917242626
-0.123056643508
-0.123208417916
-0.123376201093
-0.123562041174
-0.123768687095
-0.123998215194
-0.12425198971
-0.124526558492
-0.124824951878
-0.125145377353
-0.125488272856
-0.125850016733
-0.126230496047
-0.126629211831
-0.127031828546
-0.127436658522
-0.127851182164
-0.128285493956
-0.128740556599
-0.129214528323
-0.129705966139
-0.130214736315
-0.130741736899
-0.131287408786
-0.131850264102
-0.132426785177
-0.133012340361
-0.13360212075
-0.13419168632
-0.134777036388
-0.135354275258
-0.135919120307
-0.13646649243
-0.136990298458
-0.137483413453
-0.137937933442
-0.138346474568
-0.138704784973
-0.139013148381
-0.139275321999
-0.13949726696
-0.139687319224
-0.13985641992
-0.140013514638
-0.140156467811
-0.140305237997
-0.140471874146
-0.140665114714
-0.1408504452
-0.14101150331
-0.141140383068
-0.14124414317
-0.141340929837
-0.141430560245
-0.141499153147
-0.141546483646
-0.141579185283
-0.14160691674
-0.141623879132
-0.141629262085
-0.141632135839
-0.121917081212
-0.121922764219
-0.121934263018
-0.121949586063
-0.121960933951
-0.121979853315
-0.122003644368
-0.122031105211
-0.12206344334
-0.122096637734
-0.122143601971
-0.122204073062
-0.122276102113
-0.122355508049
-0.122437670706
-0.122523624413
-0.122622574551
-0.122736644037
-0.122860763207
-0.122994674855
-0.123142550213
-0.123307973508
-0.123492211363
-0.123698248536
-0.123927374014
-0.124179879282
-0.124455137424
-0.124749057647
-0.125072795349
-0.125420344694
-0.125780800323
-0.126154178038
-0.126548323373
-0.126945751181
-0.127346074939
-0.127761831601
-0.128197940224
-0.128655391338
-0.12913300507
-0.12962941153
-0.130144248651
-0.13067783963
-0.131230025446
-0.131799214499
-0.132382203995
-0.132974690025
-0.133572046798
-0.134169926285
-0.134764374965
-0.135351475189
-0.135926822262
-0.136485084617
-0.137019734372
-0.137523107228
-0.137987183807
-0.138405352183
-0.138774309874
-0.139094397907
-0.139368285713
-0.139600920032
-0.139801315074
-0.139981161355
-0.140149199252
-0.14031119629
-0.140473254834
-0.140647128813
-0.140831775511
-0.141004360061
-0.141152885362
-0.14127688024
-0.14138641517
-0.141490452428
-0.141576885274
-0.141638066341
-0.141677923018
-0.141705123276
-0.141722488922
-0.141728328018
-0.14172377461
-0.141721027895
-0.121866094669
-0.121873502894
-0.121884913222
-0.121897037469
-0.121911822475
-0.121935195184
-0.121958211306
-0.121985657947
-0.122021135874
-0.122056098259
-0.122099366917
-0.122163075912
-0.122234871921
-0.122309263058
-0.122386507503
-0.122470486779
-0.12256619771
-0.122675864789
-0.122794709471
-0.122924280468
-0.123068331124
-0.123230147883
-0.12341101675
-0.123614921522
-0.123846938038
-0.124096430621
-0.124371641937
-0.124668946077
-0.124989146785
-0.125334007471
-0.125695457172
-0.126071272419
-0.12645052627
-0.126840068581
-0.12724113729
-0.127659250308
-0.128097809488
-0.128557987095
-0.12903936854
-0.12954094344
-0.130062188222
-0.130602973096
-0.131162699987
-0.131739605809
-0.132330588733
-0.132931559657
-0.133538109384
-0.134146058775
-0.134751540746
-0.135350631567
-0.135938805958
-0.13651046943
-0.137058703198
-0.137575618775
-0.138053591535
-0.138486908916
-0.138872444065
-0.139208857493
-0.139495711521
-0.139736927604
-0.139944620575
-0.14013416292
-0.140316054032
-0.1404946467
-0.140670025135
-0.140855483692
-0.141038015806
-0.141191613212
-0.141328433028
-0.141452298213
-0.141570658678
-0.141678073319
-0.141759456208
-0.141812913877
-0.141843380406
-0.141857535829
-0.14185540831
-0.141843270052
-0.141825675386
-0.141814444873
-0.121810315068
-0.121818835122
-0.12183183706
-0.121842866811
-0.121858591563
-0.121881578335
-0.121904619857
-0.121931117825
-0.121964723729
-0.122007591054
-0.122051269196
-0.122112922037
-0.122183207503
-0.122253501007
-0.122325365629
-0.122408502102
-0.122503300067
-0.122606906446
-0.122719430687
-0.122844585319
-0.122985466243
-0.123144080791
-0.12332138579
-0.123519833827
-0.123752558407
-0.124005343281
-0.124271454975
-0.124571122704
-0.124890366749
-0.125235728991
-0.125595254648
-0.125965096114
-0.126339637563
-0.126721823161
-0.127122322665
-0.127542878268
-0.12798429915
-0.128447579419
-0.128932920333
-0.129439851687
-0.129967902546
-0.130516595389
-0.131084929984
-0.131670933901
-0.132271511211
-0.132882715055
-0.13350035672
-0.134120475471
-0.134739320515
-0.135352947281
-0.13595671659
-0.13654481528
-0.13711013764
-0.137645003865
-0.13814263486
-0.138598145948
-0.13900688153
-0.139362929695
-0.139661046652
-0.139907536903
-0.140122274097
-0.140324340811
-0.140521415585
-0.140712885691
-0.140899849901
-0.14108650492
-0.141261941836
-0.141417125615
-0.141544447702
-0.141670831028
-0.14179785435
-0.14190767731
-0.141986108339
-0.142032291757
-0.142049143841
-0.142039368067
-0.142007740803
-0.141969507113
-0.141933784142
-0.141912409852
-0.121747480302
-0.121755504679
-0.121769128383
-0.121782317894
-0.121802164322
-0.121821023401
-0.121843144636
-0.121869540297
-0.121897006827
-0.121942536381
-0.121991487877
-0.122051441755
-0.122119681573
-0.122188194085
-0.122257155183
-0.122337078411
-0.122429529028
-0.122528118674
-0.122634860077
-0.122754518866
-0.122891467962
-0.123047800923
-0.123225065651
-0.12341837111
-0.123641245981
-0.123900117232
-0.124167462835
-0.124461138307
-0.124777496744
-0.125111061697
-0.125473001855
-0.125840439233
-0.126209616595
-0.126589010359
-0.126989646114
-0.127412252299
-0.127856587555
-0.12832331592
-0.128812900997
-0.129325379609
-0.129860611179
-0.13041796345
-0.130996027154
-0.131592559015
-0.132204427443
-0.132827824042
-0.133458798096
-0.134093618486
-0.134728631673
-0.135359869164
-0.135982573268
-0.136590815745
-0.137177572574
-0.13773587444
-0.138260250322
-0.138746347244
-0.139184548677
-0.139561580816
-0.139869534569
-0.140121311554
-0.140347483702
-0.140566944734
-0.140779304818
-0.140977730655
-0.141163039855
-0.141338841401
-0.141506741507
-0.141669252484
-0.14179580636
-0.141932428804
-0.142071132773
-0.142189253336
-0.142270167978
-0.142309654793
-0.142305938657
-0.142260316
-0.142183779432
-0.142108663678
-0.142044080628
-0.142007795835
-0.121675951546
-0.121682005545
-0.121691680772
-0.121708927056
-0.121733649748
-0.121751239288
-0.121772718108
-0.121800655486
-0.12182544983
-0.121866493909
-0.121918761196
-0.121978049911
-0.12204351239
-0.122110826639
-0.122181276053
-0.122258486937
-0.122346180724
-0.122439377464
-0.122540906588
-0.122654674988
-0.12278507326
-0.122935824742
-0.12311578325
-0.123313220907
-0.123525040404
-0.123777500041
-0.12404748058
-0.124331505684
-0.124651480227
-0.124984154651
-0.125332881779
-0.125691484906
-0.126057597512
-0.126439603592
-0.126841825898
-0.127266370531
-0.127713626289
-0.128184131399
-0.128678403088
-0.129196714505
-0.129739416226
-0.130306122853
-0.13089508791
-0.131503646047
-0.132128607948
-0.132766384459
-0.133413318421
-0.13406587793
-0.1347204713
-0.135373062626
-0.136018793025
-0.13665169041
-0.137265102124
-0.137853223511
-0.138411993558
-0.13893737957
-0.139409224004
-0.139812240735
-0.140137766635
-0.140398260082
-0.140643925082
-0.140887410076
-0.141115784391
-0.14131346334
-0.141483084405
-0.141636765774
-0.14178885433
-0.1419381859
-0.142086773848
-0.1422314511
-0.142401022947
-0.142542748351
-0.14263770543
-0.142671929162
-0.142638388968
-0.142538985558
-0.142384487046
-0.142256042048
-0.142140727424
-0.142079447119
-0.121595717748
-0.121599930866
-0.121604186401
-0.121623333791
-0.121647095108
-0.121667572398
-0.121689936953
-0.121719327931
-0.121746215162
-0.121784080117
-0.121835736556
-0.121893283118
-0.121955318888
-0.122018630588
-0.122090770522
-0.122169110398
-0.122252424564
-0.122340294909
-0.122436905581
-0.122545338049
-0.122668470741
-0.122809913057
-0.12298444194
-0.123191882427
-0.123402500853
-0.123638968807
-0.123911923972
-0.124193141595
-0.124498732115
-0.124829929434
-0.12517436422
-0.125527196804
-0.125889411862
-0.126272485
-0.12667690739
-0.127103847264
-0.127554151068
-0.12802856831
-0.128528033386
-0.129052859203
-0.129603474439
-0.130180034036
-0.130780925589
-0.131403057545
-0.132043041534
-0.132697608567
-0.133363520873
-0.134037448272
-0.13471574563
-0.135394290962
-0.136068118664
-0.136731301884
-0.13737759844
-0.138002119318
-0.138600632117
-0.139172200262
-0.139680208651
-0.140131800553
-0.140500154388
-0.140768079953
-0.141040827521
-0.141316275293
-0.141565327353
-0.141752463277
-0.14187974861
-0.141976534919
-0.14209013276
-0.142218116778
-0.142361760016
-0.142512410657
-0.14274860336
-0.142952414759
-0.143083044582
-0.143123990824
-0.143056131905
-0.142882827783
-0.142590355023
-0.142404551743
-0.142197040302
-0.14209588436
-0.121507657407
-0.121512310642
-0.121518996031
-0.12153130621
-0.121550585648
-0.121572413634
-0.121595962088
-0.121624817837
-0.121656340259
-0.121692420242
-0.121742485214
-0.12179775967
-0.121856626874
-0.121915881175
-0.121984245676
-0.122063533946
-0.122145154329
-0.122229504492
-0.122321687292
-0.122425132906
-0.122541957501
-0.122674234435
-0.122838436279
-0.123047392307
-0.123264819519
-0.12349031183
-0.123758011439
-0.124040590678
-0.124333234551
-0.124654536073
-0.124989512179
-0.125336905648
-0.125701710367
-0.126086821003
-0.126493409862
-0.126922944332
-0.127376781015
-0.127855480884
-0.12836018875
-0.128892064484
-0.129451508297
-0.130038658387
-0.130652300049
-0.131289341741
-0.131946276428
-0.132620220775
-0.133308534151
-0.134008040113
-0.134714938831
-0.135425054268
-0.136133450259
-0.13683439899
-0.13752137286
-0.13818808425
-0.13882156211
-0.139445641768
-0.13999401023
-0.140578958322
-0.141134713928
-0.141348587202
-0.141667179409
-0.142003076759
-0.142274415372
-0.142423018022
-0.142436765921
-0.142482078884
-0.142663563377
-0.14284318138
-0.143007983957
-0.143129760059
-0.143611531507
-0.143946209473
-0.144109663563
-0.144118081928
-0.143948169486
-0.143636588448
-0.142785631596
-0.142552998534
-0.142158980703
-0.142005382174
-0.121409891495
-0.121415056759
-0.121426353767
-0.12143209386
-0.121446658293
-0.121467873653
-0.121491885208
-0.121521142243
-0.121558162656
-0.121591451294
-0.121638991311
-0.121691874229
-0.121748058431
-0.121804823269
-0.121869156162
-0.121945948942
-0.122025219145
-0.122106657234
-0.122194765476
-0.122293072972
-0.122404071518
-0.122529204015
-0.122680409423
-0.122880305453
-0.123107872272
-0.123330410167
-0.123581048549
-0.12386881713
-0.12416215233
-0.124462875503
-0.124785914237
-0.125129056683
-0.125493886238
-0.125880616151
-0.126289560249
-0.126722012925
-0.127179408344
-0.127662983911
-0.128173625391
-0.128712741939
-0.129281631333
-0.129880413515
-0.13050780796
-0.131160863334
-0.131836373894
-0.132532251628
-0.133246622516
-0.133976458784
-0.134717564681
-0.135465808974
-0.136217169939
-0.136967064335
-0.137706548595
-0.138421637699
-0.139050041469
-0.139746287997
-0.140315863727
-0.141081196606
-0.140940789522
-0.140691803038
-0.14052215656
-0.140309715789
-0.140080382936
-0.139850008651
-0.139672548445
-0.139457453978
-0.13913439403
-0.138892004544
-0.138852922629
-0.138998272511
-0.139164688651
-0.139610690452
-0.140243235797
-0.140886368759
-0.141274081613
-0.141455281897
-0.142189550262
-0.143046975514
-0.141946046277
-0.141740053587
-0.121300675921
-0.121305182449
-0.121314689478
-0.121320525007
-0.121332627255
-0.121353272192
-0.121376500852
-0.121403746506
-0.121444849382
-0.121479414623
-0.12152450118
-0.121575312148
-0.121629546668
-0.121685048515
-0.121746091088
-0.121818583129
-0.121894197757
-0.121972384078
-0.122056283585
-0.122149220695
-0.122253864384
-0.122372406557
-0.122512814447
-0.122698983175
-0.122927557577
-0.123156340413
-0.123389843601
-0.123662070484
-0.12395729261
-0.124254832145
-0.12456661639
-0.124903036629
-0.12526580327
-0.125653170023
-0.126064139992
-0.126499271578
-0.126960424184
-0.127448926582
-0.127966144547
-0.128513258843
-0.129092044055
-0.129703303556
-0.130345670746
-0.13101580332
-0.13171085407
-0.132430541733
-0.133174816365
-0.133940318958
-0.134721094167
-0.135513951707
-0.136319100614
-0.137135681036
-0.137949474243
-0.138717601047
-0.139231982842
-0.140172681368
-0.139993162777
-0.13988150154
-0.139914086981
-0.139538241488
-0.138948901692
-0.13814647276
-0.137196752015
-0.1361626058
-0.135152713372
-0.134197836548
-0.133300526373
-0.132570337459
-0.132148972787
-0.132103741557
-0.132360953831
-0.13299884494
-0.134018035787
-0.135295721177
-0.136616597576
-0.137831269252
-0.138796794779
-0.139551375626
-0.140772338028
-0.141053788967
-0.121181535183
-0.121185288615
-0.121194281727
-0.121199149499
-0.121210375274
-0.121229670204
-0.121251508506
-0.121274749318
-0.121313461414
-0.121352550677
-0.1213974186
-0.121446799798
-0.121499855482
-0.121555905967
-0.121613336505
-0.121681113511
-0.121752444289
-0.121827052889
-0.121906355268
-0.121993616193
-0.122091382182
-0.122202320059
-0.122332853633
-0.122503687604
-0.122722345459
-0.122961251311
-0.123189417387
-0.123441351554
-0.123721642693
-0.124014158354
-0.124320411634
-0.124653898545
-0.125014715329
-0.125401983762
-0.125814835719
-0.126253026369
-0.126717833134
-0.127211520611
-0.127735561761
-0.128291414274
-0.128880846679
-0.129505102607
-0.130163414514
-0.130851900937
-0.131567195697
-0.132311826186
-0.133089086508
-0.133894450628
-0.134718557314
-0.135561496907
-0.136432866104
-0.137347448148
-0.138287941865
-0.139393037783
-0.139061120841
-0.138877747958
-0.138887132879
-0.138695345194
-0.138478700924
-0.137912796199
-0.137062399677
-0.135928646653
-0.134593997632
-0.133128571601
-0.131623987909
-0.13013911294
-0.128725806161
-0.127467647939
-0.126476009113
-0.125862844617
-0.125693793357
-0.125987918525
-0.126761069659
-0.127987454519
-0.129602529102
-0.131521912113
-0.1335500499
-0.135512515113
-0.137815717237
-0.140610018689
-0.121054199966
-0.121056799292
-0.12106243167
-0.121067799197
-0.121080520463
-0.121098327278
-0.121119300963
-0.121139631538
-0.121174544024
-0.12121420574
-0.12125802341
-0.121305343954
-0.121356131563
-0.121413508583
-0.121468579987
-0.121531611741
-0.12159854372
-0.121669885982
-0.121744443116
-0.121825781525
-0.121916245931
-0.122018651302
-0.122139011826
-0.122294727711
-0.12249840103
-0.122737299188
-0.122972571199
-0.123210866057
-0.123471928423
-0.123750751174
-0.124049893472
-0.124379108451
-0.124736959525
-0.125123407733
-0.125538048166
-0.125979607869
-0.126449002962
-0.126948178163
-0.127479697684
-0.128044799936
-0.128645451083
-0.12928381722
-0.129959362962
-0.130667520746
-0.131401660082
-0.132166966329
-0.132977878269
-0.133830841313
-0.134700915953
-0.13559126158
-0.136529909674
-0.137546272165
-0.138707429921
-0.138402154492
-0.138084138656
-0.137828473778
-0.137637491762
-0.137237190612
-0.136601305501
-0.135636579359
-0.134419169575
-0.132956275474
-0.131319386951
-0.129567935933
-0.12776977027
-0.125976725018
-0.124244908698
-0.122640278931
-0.12124228443
-0.120156983775
-0.119507104396
-0.119330442451
-0.119650031193
-0.120488798219
-0.121909956106
-0.12400769939
-0.126583075082
-0.128988751372
-0.132652636611
-0.143788526749
-0.120920693918
-0.120922223371
-0.120923989344
-0.120930299511
-0.120943904487
-0.120959864621
-0.120979401387
-0.120999010079
-0.121028587011
-0.121066099433
-0.121107289622
-0.121151396195
-0.121197969749
-0.121252514935
-0.121308286699
-0.121367775157
-0.121430236916
-0.121497961431
-0.121568660929
-0.121644470425
-0.121727660337
-0.121820588116
-0.12193030185
-0.122070831615
-0.122255358573
-0.122480765536
-0.122720864209
-0.122955291013
-0.123202171388
-0.123468116842
-0.123755618997
-0.124077159462
-0.124431372357
-0.124814655264
-0.125230539664
-0.125675689151
-0.126149449675
-0.126655020486
-0.127195032971
-0.127771051851
-0.128384161567
-0.12903679685
-0.129729461625
-0.130458596091
-0.131217895502
-0.132010959985
-0.132850553057
-0.133728847201
-0.134632500456
-0.13557215938
-0.136563421347
-0.137804759722
-0.137307926235
-0.136940634507
-0.13689073436
-0.136618826374
-0.136111549818
-0.135296661183
-0.134184468323
-0.132765484176
-0.131115600075
-0.129253468282
-0.127229384592
-0.125082739282
-0.12285979537
-0.120602746233
-0.118364017791
-0.116205185906
-0.114198694415
-0.112443159271
-0.111066136514
-0.110147607607
-0.10966995255
-0.109639819288
-0.110170154055
-0.111534656138
-0.113692598675
-0.115391047441
-0.116181959546
-0.121192315448
-0.120782126163
-0.120783079077
-0.120783098835
-0.120790395504
-0.120802348857
-0.12081520207
-0.120830873841
-0.120850361968
-0.120874235005
-0.120908133788
-0.120945844217
-0.120986142115
-0.121028357465
-0.121076849308
-0.12113203416
-0.121189023002
-0.12124727188
-0.121310047498
-0.121376611561
-0.121447596828
-0.121524277929
-0.121607306122
-0.121705611505
-0.121831108253
-0.121995687871
-0.122201409158
-0.122432212644
-0.122664641928
-0.122899722808
-0.123153358578
-0.123433124591
-0.123742918922
-0.124089788152
-0.124470432436
-0.124887792509
-0.125336880298
-0.125815491542
-0.126327897657
-0.126877095806
-0.127465157741
-0.128092967468
-0.12876225018
-0.129476118698
-0.13023385347
-0.131026478639
-0.131843785441
-0.132694665514
-0.133586303768
-0.134518197191
-0.135474073433
-0.136538980188
-0.135985254237
-0.135528253773
-0.135558017519
-0.135477161054
-0.134942541979
-0.134038323614
-0.132750591077
-0.131143352238
-0.129244406427
-0.127111189276
-0.124761526958
-0.122226987809
-0.119532528028
-0.116711799085
-0.113802270307
-0.110852676651
-0.107919077992
-0.105062887144
-0.102359814141
-0.0999100047039
-0.0977883549052
-0.0958978914647
-0.0941081954941
-0.0924510273523
-0.0913260163737
-0.090731279241
-0.0870415752518
-0.0723240821121
-0.0544999755289
-0.120637493351
-0.120638118042
-0.120637669685
-0.120646034112
-0.120655727297
-0.120664906381
-0.120675645914
-0.120693626606
-0.120710574369
-0.120739977947
-0.120773866812
-0.120810010383
-0.120847998464
-0.120891221746
-0.120942351922
-0.120996090397
-0.121050212563
-0.121107411089
-0.121167930769
-0.121233460765
-0.121304083523
-0.121377324501
-0.121462942631
-0.121573327328
-0.121718173935
-0.121901761209
-0.122117051724
-0.122343011574
-0.122575766467
-0.122814131864
-0.123081751568
-0.123381297195
-0.12371693853
-0.124086624672
-0.124500231882
-0.124955751616
-0.125441778094
-0.125962826032
-0.126521781058
-0.12712239897
-0.127767309285
-0.128458127917
-0.129200968891
-0.129994264155
-0.130814732083
-0.131647298797
-0.132505907215
-0.133425776247
-0.134412925604
-0.135541792006
-0.134640547697
-0.133897241353
-0.133962775383
-0.134083645665
-0.133683117136
-0.132730935574
-0.131340651805
-0.129537733009
-0.127402030559
-0.124974036104
-0.122295991787
-0.119383120601
-0.116257907909
-0.112941501186
-0.109464030117
-0.105860806957
-0.102173842193
-0.0984456201367
-0.0947130103886
-0.0910073593386
-0.0873621933025
-0.0837830669781
-0.0800858224795
-0.0759080728758
-0.0711068212441
-0.0660088113129
-0.0600904411184
-0.0466624413452
-0.00992655948404
0.0443692482537
-0.120484098681
-0.120484347864
-0.120484406154
-0.12049387371
-0.120501383419
-0.120507047896
-0.120514060065
-0.120528277568
-0.120537844363
-0.120561838625
-0.120591321578
-0.120622749131
-0.120656002346
-0.120693572449
-0.120738987653
-0.120788351644
-0.120838682055
-0.12088957894
-0.120942463037
-0.121000981313
-0.121064855371
-0.121128670416
-0.121199941071
-0.121294698834
-0.12142030074
-0.121580247043
-0.121774637665
-0.121984185378
-0.122212672321
-0.122446170577
-0.122698268243
-0.122980055652
-0.123305177436
-0.123670764424
-0.124072987102
-0.124525789293
-0.125019754659
-0.125551104878
-0.12612351678
-0.126738952372
-0.12740221278
-0.128121732501
-0.128904653379
-0.129736069074
-0.130578497776
-0.131422358038
-0.132293006601
-0.13326113128
-0.13442667631
-0.133473917357
-0.132562168108
-0.1324380394
-0.132580970671
-0.132340789414
-0.131444618348
-0.1299685008
-0.128018213895
-0.125653688033
-0.12295452384
-0.119964729418
-0.116721896603
-0.113246650268
-0.109564475466
-0.105701384103
-0.101688207649
-0.0975550103492
-0.0933276239223
-0.0890198314961
-0.0846253110311
-0.0801086095985
-0.075395161631
-0.0703533790897
-0.0647500452843
-0.0580932225682
-0.0500954387532
-0.0408689826166
-0.0287460947164
-0.00436918347112
0.0491487134192
0.117921862639
-0.120318011515
-0.120317883702
-0.120318422138
-0.120328682855
-0.120333553445
-0.120337218421
-0.120341211719
-0.120350015478
-0.120353878112
-0.120373211203
-0.120397888408
-0.120423975019
-0.120451777416
-0.120482812264
-0.120520994274
-0.120564010767
-0.12061055594
-0.120654494703
-0.120699016693
-0.120748999488
-0.120803797132
-0.120859234006
-0.120915580333
-0.120992739948
-0.121099483243
-0.121235862554
-0.121406066041
-0.121593301617
-0.121803733256
-0.122034669877
-0.122280926522
-0.12254624212
-0.12284664443
-0.123200113181
-0.12360112246
-0.12404870312
-0.124545496054
-0.125085802904
-0.125671833557
-0.126306228266
-0.12699501728
-0.127752559766
-0.128582292838
-0.129451848979
-0.130328080627
-0.131210070276
-0.13207761371
-0.133155445438
-0.132365248974
-0.131448286576
-0.131195448243
-0.131226792359
-0.131028781681
-0.130220602444
-0.128722686774
-0.126644632309
-0.124092891723
-0.121147812061
-0.117887440626
-0.114361049244
-0.110610212934
-0.10666492252
-0.102555242073
-0.0983066946902
-0.0939395021125
-0.0894617021034
-0.0848639002622
-0.080113432383
-0.0751502127092
-0.0698764699476
-0.0641294211329
-0.057648506755