/*--------------------------------*- C++ -*----------------------------------*\
| =========                 |                                                 |
| \\      /  F ield         | OpenFOAM: The Open Source CFD Toolbox           |
|  \\    /   O peration     | Version:  v1806                                 |
|   \\  /    A nd           | Web:      www.OpenFOAM.com                      |
|    \\/     M anipulation  |                                                 |
\*---------------------------------------------------------------------------*/
FoamFile
{
    version     2.0;
    format      ascii;
    class       volScalarField;
    location    "146";
    object      alpha;
}
// * * * * * * * * * * * * * * * * * * * * * * * * * * * * * * * * * * * * * //

dimensions      [0 0 -1 0 0 0 0];


internalField   nonuniform List<scalar> 
6400
(
0.825864277746
1.22898499568
1.8746001703
2.12171472809
2.3759501859
2.67893271832
3.23965030312
3.905393127
3.97935346956
4.23066285385
5.33246717139
5.7557729863
6.05287924804
6.49520744839
7.22577687238
7.9697785225
8.4797486921
8.9830430315
9.45585833754
9.64861641534
9.52139450885
9.38878176014
9.50879746376
9.96664096879
10.5189554743
10.9669353763
11.2145564314
11.4177565265
11.7280372841
12.1545182927
12.6467692835
12.9043140813
12.8757976403
12.7596875028
12.5563369029
12.1169846128
11.861982267
12.1318020071
11.8354134451
11.1511991639
10.9052814438
11.2974582298
11.7543684049
11.9658413668
12.0201669098
11.950589757
11.8405630271
11.7631880964
11.7164200488
11.6945029998
11.5055844614
10.6230755777
9.86747578143
9.0557764809
8.79495260665
9.39753155397
9.42671450114
8.22404634051
6.73314574277
6.30036467589
5.53660261283
4.66461835413
3.78737407483
5.54735961456
9.63226450268
14.5785138259
17.5705282626
17.2726145968
15.2500674736
13.5347722534
12.5421644914
12.5912262058
12.998691879
12.7958347659
14.7409975924
14.1459535296
15.9837373317
9.87982466905
12.8698152888
4.81135635141
3.07253058122
2.37017307645
2.89018875547
4.07352734957
3.68870286657
3.21820880944
3.16935894941
3.39834656688
3.78023405029
4.29593296536
4.97208902628
5.64668259841
6.21171284541
6.75070704898
7.27939270377
7.90885427545
8.56703678538
9.26190806182
10.3649218489
10.3240434912
9.89165318757
9.63009174824
9.5754336989
9.94088254904
10.8172671168
11.1024897509
11.2730015148
11.566340329
11.9228157514
12.3114770913
12.7290166031
13.2351135346
13.2188711019
13.1389605571
13.0550867919
12.3230355816
12.2626679969
12.5269772533
12.0345255718
10.9442564526
10.6040816636
13.1944935854
14.6411487176
14.6777862236
14.5946992871
14.1935565556
13.6162138705
13.184380891
12.5162149657
11.990805002
12.0304909012
12.7940423222
12.7471301625
9.27813752115
9.35211567371
9.16670761112
7.48646796666
6.418111445
5.5949480456
4.78391504987
4.18426234768
4.98103562835
3.94976474198
5.70368261987
9.67124415225
15.4847386959
19.2052482158
18.0134029915
15.8261173692
13.841059066
13.0098142606
13.2778842805
14.2337491253
13.5913914792
13.3749026838
12.8059063771
11.5788748788
9.7267616404
8.1732619502
4.25744624442
3.0149321556
2.53707333059
3.01536735061
3.0512498302
3.2438813513
3.51425227308
3.42197430324
3.35577886611
3.71474928179
4.28285364401
4.94445509287
5.63821211804
6.25955684167
6.81584851357
7.2152488427
7.78081553637
11.1483096254
13.3333065453
13.520714495
12.3996137788
9.78258539676
9.02594411554
9.82182082369
10.2525342076
10.5596876002
11.0239499191
11.4213994844
11.7232419248
12.0582579843
12.4879657295
12.8223845677
13.540954435
13.6139572036
12.9670472511
13.8228582224
13.1369785665
12.0849897332
13.041173418
12.4354101565
11.2159074064
10.8184417604
11.309370648
11.8619755428
12.1183736756
12.1934520963
12.1640874619
12.0614003807
11.9040550236
11.6909456747
11.4449438967
11.1653763921
10.7725814177
10.2185373973
9.98386998844
9.94098060622
8.62007381182
7.37070118547
6.45787567851
5.68987430086
5.02316631952
4.55757625724
4.07766394671
3.82883127996
6.38386386018
11.6027315608
16.3118152462
18.6240157637
18.7326795952
17.1098899169
15.3697347859
14.5747666608
14.3728102075
13.6366873611
12.9771564563
12.8855577891
12.4880270058
11.4711462142
9.83541811366
7.39667521873
7.57569303112
2.75600957555
5.28319572019
3.07463394634
2.9881347734
3.60069479205
11.6635790483
9.96300427782
4.24018939139
3.74504744307
4.3194477493
4.96768575562
5.66229385556
6.26350988304
6.94069915496
9.05486161318
11.4529082468
13.1025192724
13.1455597
11.1507746061
9.19833891606
9.12496552551
9.30909552531
9.57567091027
10.0725271225
10.6513700674
11.2010110995
11.6649777859
11.9038710769
12.3451061605
12.5682578295
13.3355768467
13.4396475546
14.2909527004
13.909895091
12.7534270767
13.4478257294
12.548708463
11.5184469477
11.2935324669
11.1858556194
11.20231517
11.5037477643
11.8841147558
12.1301203903
12.2360007605
12.2338778322
12.1490746976
12.0010927394
11.7988570495
11.5532411581
11.2622551916
10.9085040048
10.4952288617
10.0684443473
9.4754544293
8.54570163312
7.49055727246
6.58520689915
5.87288825233
5.32899357929
4.94241623052
4.66705772965
4.83492617972
6.84953028662
10.754053426
16.5624718308
20.1525812197
20.346333885
18.6581272014
16.2743823803
14.600476009
13.7173374251
13.7943078221
15.1063518714
14.9843836515
13.6169546128
13.4346565943
16.6981858384
13.093066137
11.1039661938
5.20188813229
7.25395635252
3.45980820539
3.78425821607
6.06069386154
11.5405247246
7.58296703468
4.28424125404
4.21456554372
4.53753673357
5.1231310068
5.86049693343
7.38568464169
10.1594480052
11.1113509516
11.2127507606
10.6522345762
9.56599605175
8.89464650032
9.26792132303
9.27916486845
9.23678797776
9.62054099815
10.1787839487
10.811927102
11.4400195403
11.7958708486
12.3835705275
12.4446117993
13.2961913308
13.2531623923
14.9137873735
14.0840648322
13.0441064974
13.3599750389
12.1144350722
11.6210289837
11.4170175566
11.3642268608
11.3723433814
11.4430337325
11.6568524642
11.9407299523
12.1658487193
12.2872207359
12.3046095685
12.2352482653
12.099322136
11.9117036212
11.6808919997
11.4042926451
11.0755376133
10.6913293132
10.2240279517
9.5570955507
8.6358842155
7.64301574594
6.79957806826
6.18173159061
5.7678423483
5.52736699128
5.50281071791
6.04562834754
7.27351526753
10.499138036
15.9245509863
20.1469383961
21.5387015102
20.3310133471
17.5341447032
15.0123891596
14.6165847026
16.777321718
17.5825236989
16.4894989919
15.5223539711
18.119704819
21.1026873867
16.3965216824
15.4977280978
9.55981411141
8.66011847685
4.27686591058
5.15603484289
11.7906300374
11.1924368014
5.28295989846
4.68972052222
4.73470742946
4.86031634614
5.4729706109
8.59186649008
12.181573428
12.4277310748
11.7678287814
10.1517976625
8.86527053033
8.50609362134
9.40480858255
9.30442684733
8.99916684897
9.25767300399
9.76888974317
10.4180837174
10.9213987933
11.5804107404
12.5705550421
12.4031020403
13.6254644946
13.1602304915
15.3669383731
14.3492154493
15.7007774391
13.8164091212
12.0255792436
11.4667429131
11.4160872463
11.4563450941
11.5059404782
11.5547287971
11.6469549342
11.8225743104
12.0476738294
12.2478710864
12.3699629324
12.3986706647
12.3412138389
12.2190732259
12.0524387287
11.8485885266
11.6015087034
11.2990755748
10.9182029324
10.4065676272
9.6943870366
8.80306221844
7.8992135818
7.14461209384
6.58878505177
6.26712323253
6.17260945781
6.55674447673
8.03930828709
7.33294154507
11.673866343
17.4778001811
21.2570238396
22.6655649956
21.6987137976
18.3024966256
16.1045344943
17.8679290295
20.0161664075
19.4337954834
18.3779799357
18.3885952608
22.8776890439
24.4243727124
19.3801686964
19.1619996893
11.6068378582
8.16291700188
5.2049203115
4.96483524926
11.6361853205
7.50244081843
5.07788090142
5.14783649592
5.21140955705
5.91598202682
6.20014977581
12.1943916621
12.6095870482
12.4657973391
10.5352221033
8.55001841448
8.12183795916
9.62202071269
9.48606424379
8.79235195262
8.99607185878
9.36226280858
9.87111608485
10.5152883418
11.4256073657
12.4127540909
12.4881403317
14.1856908264
13.4168600217
15.8632527692
14.6430014115
16.0947280075
14.52624301
13.450913317
11.4796077951
11.2231661957
11.4072576664
11.5710109083
11.6556448781
11.7249609875
11.8347950926
11.9954734749
12.1879483086
12.3665897081
12.4839706667
12.5170512125
12.4698161099
12.3662805119
12.2288568472
12.0612112665
11.8498024705
11.5705151558
11.1846847981
10.6418578874
9.91705933145
9.07420546914
8.25637763619
7.57239133598
7.04976732367
6.71407524136
6.7517410537
7.2708575113
7.6185364265
8.240688707
12.547566403
19.7058585691
22.3939788265
22.8256533967
21.7364426626
19.4576339737
19.2624439844
21.8277431204
22.2196099043
21.3134904402
20.6543832969
22.5207008441
25.1767012136
26.59637027
21.9422954919
20.7648655267
11.151308233
7.37952552063
6.21744007907
11.5897997962
11.5691394713
5.79971796276
5.59191292485
5.65560334005
5.90079986598
6.41440146906
12.0311589146
12.8740620411
12.7112230861
11.9438871627
8.81801178694
7.75116309852
9.59212187554
9.88876377296
8.85550683946
8.59543722513
9.05042146833
9.62433045332
10.1103080312
10.8539599446
11.4559739111
12.9849981171
12.6383223882
14.0499316435
15.7910615759
15.834229101
14.0086092665
15.1099041553
14.9301592199
11.9183056191
11.3249395995
11.3164737311
11.4996221597
11.6887545792
11.8042813943
11.8935097023
12.0167427438
12.1783080278
12.3553257303
12.5166094347
12.62586316
12.660058413
12.6245655236
12.5459562791
12.4457923777
12.3213219653
12.1493724717
11.8929460001
11.504116927
10.9462189436
10.2332964597
9.44781246485
8.69155208567
8.00147709731
7.36729840509
6.94557638955
7.10283865267
7.73289584481
8.52765845499
9.59428690111
10.7662273171
19.407171925
23.8018464616
23.9691855487
23.4224201222
22.5709124095
23.547570287
24.9337146719
24.1946661519
23.4323994044
23.5314090445
25.7178905279
26.2716941394
26.7995598146
23.8266964926
21.6004524847
10.1716969925
6.88183324904
6.8592825416
12.4700837965
10.1223189189
6.0073367031
6.1485451817
6.31360379012
8.08747459665
6.31725220966
12.8042237021
13.2686631643
12.6743776101
10.2647758002
7.96871937479
7.86054865651
9.74048453494
9.37544330797
8.60633792212
8.62115835185
9.02267185117
9.77542612304
10.4355054164
11.7992381181
13.0686938224
12.7342769944
15.3317089193
13.5111481159
16.1946481484
14.2647263231
16.3536113696
13.6719403183
12.5333632486
11.6598435315
11.4242145024
11.4728022953
11.6208971542
11.8042230578
11.950589649
12.0705017683
12.2078358
12.372333911
12.5441494631
12.6943258819
12.7933054878
12.8277566867
12.8088872363
12.7627745698
12.7064491792
12.6306617263
12.5020877044
12.2711043204
11.8854542744
11.3268082336
10.6391665584
9.90177445835
9.14906979375
8.31469903504
7.36958594876
6.77391447314
7.26022019464
8.56959542079
9.91403629732
11.0117056092
11.95777593
15.4185807615
23.6889945941
25.3556503367
25.5787415214
26.4727375363
27.7100117206
27.3882148246
26.310748769
25.9987934005
26.8172806056
27.8197758215
27.5075684225
26.7829881823
25.6435090622
24.1494635852
9.25427166708
6.96281105913
8.08216310314
12.4433659868
7.36665486246
7.03000980817
6.70065029657
6.95304784077
10.8944747167
9.33362019375
13.6293336023
13.4412355151
12.6191781676
9.13031249076
7.77513893101
9.85516782411
10.0257865808
8.96724945919
8.52439272188
8.8136430153
9.13769106323
9.83178339883
10.3364603472
11.9883740955
14.6010569066
12.4964202435
15.1883793808
16.2872253394
16.4228977104
16.6632941405
14.6020455817
14.4866756088
11.8763496584
11.4834427077
11.5571282543
11.6357549799
11.7543158171
11.9196739452
12.0887467834
12.2488600439
12.4126235766
12.5845687488
12.7535851688
12.8965435146
12.9881806271
13.0228430034
13.0234871755
13.0178416081
13.0131953132
12.991060564
12.9097484595
12.7083874108
12.3324286963
11.7830796041
11.1240498635
10.4039731705
9.53656420466
8.29415432895
6.76436505594
6.22461313646
7.71544162471
9.87501461086
11.5695264326
12.8292372525
13.8224414814
13.9550772528
15.23347996
27.0397436571
29.915721185
31.2771749966
31.3381880666
29.9389755988
28.9349600403
29.0421296184
29.9457000776
30.0173581091
29.5394898599
29.0465878456
29.2289642463
29.3122396846
8.78320032798
7.52868074997
11.8783294045
12.3146667426
6.93906113578
7.69948805621
7.21007313913
8.04340388999
9.986002387
13.1797213158
14.2858997403
13.5511789944
12.6665448921
8.74177993809
7.82270013671
10.4890705744
9.98359623766
8.80564702031
8.52146009386
8.96537797273
9.64474853664
10.1382913427
10.5261354474
11.5042654397
14.7056471176
15.882487581
14.2473368434
16.4700694426
14.1121007345
16.7201383071
16.6451373307
14.2685459055
11.681351475
11.5777641366
11.7265922858
11.8109017272
11.9096990375
12.0541083477
12.2239622322
12.4222867874
12.6280583109
12.8160150518
12.9850196184
13.1231494374
13.2097864823
13.2486572752
13.2733218193
13.312316611
13.3641226858
13.4005696531
13.3710666728
13.2038163303
12.8447482693
12.3135894449
11.6752835801
10.896198891
9.62216491579
7.45891022616
5.58444348473
6.11442123548
9.08093356351
11.9100004686
13.7614183822
15.0032268469
15.7259659447
15.7793914128
15.3672154554
17.2873704581
31.4895685639
36.9052889841
35.7470313408
33.3795898982
32.4270820968
32.6418873197
33.0669932498
33.0176935504
32.9747731975
33.1957806235
33.579005102
34.1530805707
8.71963175255
8.21015967399
13.4097744276
12.6763886097
10.3300137668
8.80008969808
7.89456811782
9.61658871206
9.00997519678
14.0986752664
14.7419525874
13.7074885973
12.4564632042
9.00924779829
8.60433953137
11.0239844367
9.84720730046
8.76522711438
8.61985110927
8.99621696395
9.8610793966
10.5560632893
12.6458000346
11.641794558
14.0398435422
16.2577878729
13.7799739034
16.7965230181
17.2259542578
15.0671545126
15.0015926122
12.4185338898
12.0405422253
11.8987856175
11.9396272603
12.0188396883
12.1030247504
12.2263105825
12.3661141088
12.5713810795
12.8362346936
13.0741779108
13.2474958346
13.3756577236
13.4597327248
13.508924691
13.5622017426
13.6473946787
13.7564343648
13.8531433029
13.8758677487
13.7474524217
13.4222219366
12.9182767068
12.2573538483
11.1613650008
8.78800188177
5.77936584746
4.71505912897
7.12329281393
11.5255845154
14.6978803201
16.5500289879
17.7923598875
18.4206250321
18.2870697068
17.7527137456
16.7775255467
27.4714373458
37.8698891116
40.7607103515
38.0055623538
37.0638062328
37.1449869141
37.2720383635
37.043189903
37.4636248248
37.8644092717
37.4938828009
37.5534383524
9.04346433679
8.72875766797
12.9662300979
12.9171523381
12.8321180577
9.63858977619
8.71700944828
12.7970622437
8.99664216907
14.9352621226
15.085843857
13.882403545
12.2740827856
9.35422031902
12.0342158067
12.141481316
9.83456253752
8.866251245
8.84988575204
9.1584507895
9.82726514004
10.482348651
14.2730749154
15.3369701147
13.1770008553
16.3662675809
17.1193185335
16.1551527079
17.2052063492
17.1164777321
15.6620728931
12.3256531029
12.2382648438
12.2206793567
12.1983480829
12.236669266
12.2870724742
12.4303429148
12.5877345549
12.7474642412
13.0160929222
13.3199383507
13.5390124421
13.6658853632
13.7437002638
13.8070914889
13.8940350646
14.0250064553
14.1860315049
14.3344954877
14.4028559197
14.3230180046
14.061504494
13.5767545835
12.7496589235
10.7935895072
6.9076955617
3.77727953788
4.39189312843
9.44177927305
14.9208420882
18.2852038009
20.0449249979
21.4125200643
21.6745724312
20.6758276962
19.5643180321
18.6447553716
23.6373883152
35.0170100521
42.1138538125
43.3143629452
41.4729100166
41.7044951176
41.6783029796
41.8000724361
42.3801516129
42.5543306957
42.1828694054
42.1684591956
9.42098034448
9.24337813456
8.99729661176
13.1031203352
13.1646118298
10.0869425776
9.48779408444
13.5777925673
9.33511317855
15.7571352027
15.3711968592
14.0634427631
12.2241733553
9.47016870078
13.2530630438
12.4067208558
9.98506635026
9.12049324984
9.14248455825
9.50426244232
9.91692801582
10.4092184146
14.9287874818
16.2843437285
13.3585017508
16.5057017029
17.6309829621
14.9548300995
16.8209359046
16.3121219127
12.9801643441
12.6913900717
12.6522560081
12.561410958
12.4662069645
12.5225162071
12.5537801252
12.5933788131
12.7844419129
12.998180825
13.2416318402
13.556600344
13.8281335531
13.9861467482
14.0709413357
14.1511054984
14.2715379328
14.439562668
14.6444877726
14.8340855528
14.9179441531
14.9046441401
14.7553457018
14.2882813744
13.0051336749
9.19111583101
3.78117100828
1.10495498878
6.26002237091
13.5608899823
19.5052224762
22.8696868247
22.8879318628
21.4050048809
18.3915602777
16.117055224
14.6840033698
13.3921363651
10.9881393472
13.9568618655
41.7233942778
45.4133192134
46.5831199927
45.7795902993
45.208496145
46.7340420967
47.2496765635
47.3104262557
48.1506442898
48.5239849954
9.96061695682
10.0023589263
13.6674125334
13.5519076202
13.3753224129
10.4280230548
10.3997876986
14.1446715498
10.1276068189
16.426473867
15.6138701286
14.2438319813
12.2223886599
9.70675544217
13.3999111336
12.2713526999
10.1484245721
9.41532274954
9.43028406418
9.74892210763
10.1443511721
10.5375157485
13.992730112
17.0339175007
17.1552286785
15.4573309559
17.781097051
18.3699874198
14.4304857253
13.3223099753
12.7881510284
12.8478274527
12.8716623073
12.8332928866
12.8177306963
12.7919926895
12.8151553527
12.8882019141
12.9738635954
13.2197775361
13.5152595004
13.832492354
14.1233476055
14.3189977034
14.4406541002
14.5430247261
14.6877647703
14.9116552554
15.1630048552
15.3255386068
15.3762116737
15.4552833482
15.4631643282
14.9016444253
12.4889365628
6.46319795129
0
2.12497753596
10.5588650819
19.1866067648
23.7917400079
20.8138895579
13.865633055
1.34394471894
1.05123754655
2.55216302668
6.63239819764
9.25139980696
10.7621493601
11.3656261934
7.32545864958
30.9417231687
49.7950706606
50.9989975109
48.6843135439
50.1803076411
52.2651672528
53.9801680641
56.1345792355
56.3219207996
10.4268800924
10.5999834193
15.1620581742
13.9261164393
13.0658364846
10.8067390245
11.3284015994
14.5192749169
14.5294639674
17.1986351303
15.8715931063
14.4790744587
12.2405047166
10.0988766335
13.5437377961
12.0973342114
10.3435626106
9.72923686536
9.6928127734
9.94608788173
10.334884462
10.8716588691
13.1464682979
17.2559274068
18.5488769097
14.5283153403
17.3645675884
18.1744017042
17.3570075979
14.1430842941
12.9722198928
13.0471258496
13.1738563295
13.2399891146
13.0612685498
13.0758703716
13.0536023016
13.1460438466
13.2444014157
13.4522932542
13.7905186702
14.1479444309
14.4315298955
14.6337696105
14.8186416713
15.049931994
15.2944664341
15.5546623646
15.7027679948
15.78446692
15.8832413352
15.9961822847
16.2514748524
15.68382978
10.4430745638
0.0155971416259
0.676135063533
7.44077406154
16.4389213188
19.796841433
10.816329648
0.0345318787164
0.00243416797854
0
0
0
0
0
0
0
0
3.38551254707e-07
0.000114186329397
0.0170798410121
9.90917678848
54.8013146295
57.4861730749
59.956653392
65.8174652885
64.8171862702
10.7847866049
10.9868582629
17.4669944
14.1407563329
12.383684388
11.1604795914
11.9577124978
14.2068108052
16.077963594
18.0870607261
16.2553250476
14.8120208124
12.4599690906
10.8301970305
13.9006940399
12.0975707901
10.6464020997
10.1121396489
9.99642847146
10.1769089469
10.5039396857
11.01662093
12.755626201
17.1054984444
19.4840711791
18.4615135639
16.6006501319
17.4766061066
16.6664873884
13.2672018649
13.4363247316
13.5840061192
13.8444498618
13.694927561
13.5366644137
13.3445743642
13.3931198738
13.3959610754
13.5254068067
13.7292115622
14.0410002836
14.4463839199
14.8673344199
15.1005213721
15.3367991661
15.6880156889
16.0777175973
16.3807922994
16.5156194982
16.6486266792
16.8146085525
16.9836407855
16.9224250427
16.1032486845
10.450093914
0
2.2606730421
9.93733970873
3.911122067
0.0107253596379
0
0
0
0
0
0
0
0
0
0
0
0
0
4.3622325302e-06
4.3348267018e-05
0.000950287935219
0.0460781479178
49.2441915761
69.8077849061
58.7657347393
11.0432291296
11.2313473267
19.6463249567
14.2471157181
12.0485009657
11.509653389
12.7512778287
12.9482934368
17.0350562365
18.7051483338
16.6369839636
15.1592963995
12.9046004714
13.0506190329
14.3879261279
12.3591752667
11.168132092
10.7281978572
10.4098854213
10.501508534
10.7327037975
11.178534247
12.6209569737
16.9700205213
19.8297089514
20.1174453474
15.3129159982
15.5509142691
14.0834739922
13.3611317932
13.595645032
14.1362638062
14.3346674736
14.129685937
13.9551853639
14.0450670198
13.7446526764
13.7220693733
13.8013645398
13.9616729507
14.4039534264
14.86365543
15.2882715851
15.4790643034
15.8856336652
18.0208792639
20.9203100288
21.8311072704
19.9408420945
19.7814521728
20.0989395556
20.6526597732
20.9487229457
20.4127074586
19.3501239543
0.000773933215519
0.782069101941
0.0127612124966
0
0
0
0
0
0
0
0
0
0
0
0
0
0
0
0
0
0
6.73951249668e-05
0.000456388654647
0.084161851792
60.8928636183
11.306717236
11.4679038607
19.2950643236
13.0920041359
11.9103846874
11.7920643818
13.6415367257
12.5056893655
17.8108701651
19.3077833362
17.0205000655
15.4967193268
13.2184874783
15.6246865599
15.1127128868
12.833074094
11.7904382719
11.8731536727
11.0531805122
11.0028788444
11.0720667052
11.3495349137
12.6641104316
16.8192857681
19.6591132862
21.2321071625
19.1951395163
17.698106621
16.1472326337
13.7376589863
13.9395672169
15.0433653035
14.552752436
14.5006180129
15.0049582733
14.4930661752
14.2218000305
14.1727321217
14.2433920875
14.3828147163
14.6093505525
15.1538166548
15.8420964021
17.1709370894
19.1819417749
21.926736741
23.9234587686
23.8732450259
24.2095109907
25.8762332205
28.2865625371
31.9806370336
33.7662334556
33.701181936
29.3534332203
28.6865085022
0
0
0
0
0
0
0
0
0
0
0
0
0
0
0
0
0
0
0
0
0
0
0.00020737371306
99.9989628159
11.6821139177
11.834632181
18.7020373012
12.2456036299
12.0034729979
11.998343676
14.3600396863
12.714082964
18.4116491367
19.8949220596
17.4130924949
15.8617998045
13.4975483023
16.1833691218
15.7628435256
13.3798456383
12.3917705005
12.6547957292
11.8501369936
11.739442016
11.6549730049
11.5085997029
12.8942311792
16.7842190925
19.3409290056
21.5964582913
20.4589896823
17.8181908531
14.2123522623
14.2865274024
14.6670965771
15.7196533339
15.9458907344
15.9384744556
15.8060811165
14.9807672809
14.7359725294
14.7404622563
14.7878388637
14.9441352589
15.1458977105
15.7782387211
17.1267463854
19.8098494869
21.530398294
21.7619264896
22.8708882765
23.9573382837
28.0271444493
32.7884283137
39.7097055972
44.5334443672
45.0681004825
45.1297349527
38.6290997964
5.3934175817
0.0181038720848
0
0
0
0
0
0
0
0
0
0
0
0
0
0
0
0
0
0
0
0
0
3.48498499372e-05
4.61095345797e-05
12.3290368385
12.4869372155
18.0096448405
12.1821341961
12.4513721812
12.3191090836
13.9351403905
13.363091484
18.7446801513
20.4318515614
17.8452961097
16.2875310652
13.9342455158
16.7182817459
16.3769542178
14.0793074718
13.092943571
13.4398540744
12.6030990939
12.6328424514
12.5907234686
11.8642507962
13.3570103676
16.9037217509
19.1832234632
21.6900531568
20.8750976912
18.0140825855
14.334175701
14.3976278128
15.5568902239
15.3079563444
15.2808666459
15.6736223588
16.7816640904
15.9507128265
15.6396002613
15.3194418913
15.3139992242
15.6061613222
15.9593677846
16.6335963909
19.73451407
22.6024104003
22.5689465574
22.7037996819
24.4294104065
29.8319725486
36.7468967881
42.881438352
47.6595397717
44.0984539222
33.5274373264
0.305432853444
0.00191642735604
0.0038844429429
0.000596505487337
0
0
0
0
0
0
0
0
0
0
0
0
0
0
0
0
0
0
0
0
0
2.57585468676e-06
1.16961992472e-05
13.3768117568
13.4572252289
17.897951115
12.9299251305
13.6074112857
13.0253148053
13.803217551
14.8368292173
18.4109516392
20.7421957051
18.3527943949
16.7995639261
14.5032823728
17.3286486078
17.0253739745
14.9809667987
14.0377527476
14.4268212334
13.3525422805
13.6499238518
13.9267336851
12.5398357908
13.8194764338
17.1633829341
19.1985522094
21.4413869473
21.0324219602
18.2730148065
17.2409401217
15.3560069921
16.0813492834
16.7524276124
17.7075151601
16.0989631709
16.3683045541
17.1433402188
16.495142253
16.4794359492
16.2286214559
16.2744334317
16.730456396
19.475166192
23.8439930491
24.7392107941
24.0691938685
25.7216276848
32.285978752
41.0884852962
47.0713454324
45.8368677096
36.7781167329
3.18426082498
0.0217877622619
0
0
0
0
0
0
0
0
0
0
0
0
0
0
0
0
0
0
0
0
0
0
0
0
0
0
0
14.931825511
14.6522646152
18.2966676667
14.9163210475
15.7156067673
14.1628364765
14.4905766758
17.0595061386
18.2724417241
21.1693974197
19.0065398349
17.415148921
15.1898706781
17.9713147679
17.6678868641
16.0024999408
15.6161820402
15.7832713011
14.1816570247
14.8155236898
15.6329212141
13.6469611947
14.0640367903
17.4699731909
19.380710604
21.1582005122
21.1844187697
18.1470996768
18.4254258152
17.1107103467
17.380816253
15.6708073334
16.3631493644
17.8050002532
17.245712709
17.4248427205
17.4031601453
17.289445411
17.4117277302
17.3840785389
19.1160724053
24.3930737108
27.3031628452
27.2421466412
27.9029358839
33.0154864494
42.3706960415
48.1034000953
37.2371402261
20.0724044504
5.32099362252
0.0243641513534
0
0
0
0
0
0
0
0
0
0
0
0
0
0
0
0
0
0
0
0
0
0
0
0
0
0
0
0
16.6306862189
15.7529178286
18.7982377484
17.7477687724
17.379180364
15.560058447
15.2749332535
18.1086074185
16.6920322772
21.4418820149
19.7955547477
18.1279011646
15.9880468206
18.6310641998
18.2616306089
16.8311555119
18.0913246047
17.4445495889
15.1466200758
16.1958950696
17.0106709863
15.1281451841
13.7991093159
17.3282919216
19.4617156354
20.8961331545
21.1691860172
18.0956803318
18.6071090329
18.4372571626
18.4838075187
16.2944970437
16.8930816393
17.0626100884
18.1815363685
18.6720793975
18.6022424744
18.3682629724
18.3277982725
19.3697664197
24.3437812926
29.2074562865
30.906219626
31.5044469758
34.2991807168
40.8655344649
43.5739950009
26.9599659662
22.6326635665
11.8645269173
0.0415518621311
0
0
0
0
0
0
0
0
0
0
0
0
0
0
0
0
0
0
0
0
0
0
0
0
0
0
0
0
0
17.3260838259
16.5170877657
19.0556850942
18.6367194018
18.2879532742
16.9294871313
16.3391156658
19.4364044103
17.5687503616
21.8458079548
20.5880649252
18.8945973928
16.8883915025
19.3280333071
18.8879957181
17.5365744669
18.9458494102
18.3973544143
16.117153436
17.6149943345
17.5739303788
15.6562787393
14.9694731524
15.1440906784
18.9183091131
20.3002421342
20.8648533
18.0038345906
18.5516783228
18.8143348027
19.2947559668
18.6021052051
16.4622528919
16.8423463581
18.2695525258
19.4824456423
19.9172010199
20.0749513843
20.0445920486
24.1255098888
30.0003349111
33.5857266955
34.742827022
36.0191770804
39.527133333
37.8348017612
22.2538737138
24.7268753231
19.9960589848
0.111074306733
0
0
0
0
0
0
0
0
0
0
0
0
0
0
0
0
0
0
0
0
0
0
0
0
0
0
0
0
0
0
17.1934110458
17.0402562553
19.2236022753
18.6844879615
18.8760187748
18.012481984
17.2848385043
20.7309928438
19.284384118
22.3944264366
21.4341750533
19.6967365083
17.8807511033
20.0752346377
19.5932429565
18.411768186
19.619238367
19.2333738585
17.19907352
18.5322176923
16.5125634933
16.2319893506
15.9090976127
16.3551210761
17.3297013529
18.0985594933
19.920908233
17.8825045196
17.721353845
18.6792802341
19.6131506566
19.916940121
18.1440169092
17.5120956432
18.0087871895
19.1381318218
20.544538328
21.8305773657
23.5783092911
29.5937888463
34.7145794795
37.2340915156
37.5395392289
37.6598999772
32.3432345794
23.9950239112
24.7935387378
22.5034576406
0.303463285535
0
0
0
0
0
0
0
0
0
0
0
0
0
0
0
0
0
0
0
0
0
0
0
0
0
0
0
0
0
0
0
17.3309762428
17.4237878325
19.4192765674
17.1981809225
19.0711298356
18.5663334282
17.9161460956
21.1805895967
19.9845668718
23.0001068622
22.3479829879
20.5158277383
18.9805363997
20.860386939
20.3491706108
19.4338136564
20.322374747
20.1832747656
18.3972982866
19.8315201835
17.7955135874
18.0575581091
17.1112106639
17.5562872243
19.4363245614
20.024321044
19.4980665766
17.7309681098
16.9405991322
18.5846710934
19.5807759847
20.0359501319
19.9267557325
18.5422630038
19.9746757152
19.9079246716
21.1086769794
23.6141134478
28.0178713251
34.4696413952
38.5392496685
39.7083945117
37.2039029216
29.1295225201
26.4170933908
26.6536458139
26.7612486428
2.58788085721
0
0
0
0
0
0
0
0
0
0
0
0
0
0
0
0
0
0
0
0
0
0
0
0
0
0
0
0
0
0
0
0
17.9941089128
18.0703970713
19.5720302982
17.5357340354
19.2137359235
18.8087435113
18.3616917227
21.1988055204
20.4980462493
23.4243570299
23.2836592896
21.3055015456
20.188816093
21.6459530032
21.08733385
20.4392550603
20.980647642
21.2353413533
19.6532478812
21.1083617656
19.5767380606
20.3111276786
19.9359841489
18.198661218
19.8673690027
20.9931803851
21.1016556949
17.6164938388
16.0168158398
18.4706659097
19.6863030847
19.1676697491
19.1692284413
18.7603253327
19.8252894172
20.2461873778
21.8480527053
25.5462995272
32.3645819186
38.9703170108
41.786099525
40.3535066795
30.2084903206
27.1782350673
28.0387304061
27.6143063789
17.3877403681
0.0731257210698
0
0
0
0
0
0
0
0
0
0
0
0
0
0
0
0
0
0
0
0
0
0
0
0
0
0
0
0
0
0
0
0
18.8465152398
20.2945277487
19.8380906476
18.5413847675
19.6687828386
19.1071209533
18.7951053221
21.2007948353
20.9923865021
23.4591160792
24.2325869509
22.0408533533
21.2645336748
22.2338302305
21.8148601655
21.1556117217
20.931483485
22.2135682085
21.0439907845
22.2093430686
21.7138409005
21.4927161184
21.1962320403
20.7285340825
19.6556629253
20.6037454302
22.0229167589
16.5425051653
15.4729374143
17.5014414428
19.6511707033
19.9528499954
20.465150182
18.7112205956
19.5021003284
20.4824468528
22.2078570555
27.3246777879
36.4098705824
43.0608947126
44.4819975392
36.0755653967
29.108762781
30.4359433891
30.156457407
25.0623716606
0.311965019201
0
0
0
0
0
0
0
0
0
0
0
0
0
0
0
0
0
0
0
0
0
0
0
0
0
0
0
0
0
0
0
0
0
19.4684818324
20.946431199
20.4656422863
19.435617731
20.3252936134
19.6283688142
19.305505528
21.3033366736
21.4970075112
23.1968413368
25.0981719888
22.8063276646
21.8563735258
22.7123088919
22.6775626758
21.8071076583
20.8844831457
22.8915808892
22.5763723637
23.157692416
22.9760726124
23.028494444
21.1482506688
21.1405317354
20.564382799
22.4381687318
23.3319238396
19.3879999681
15.0121008474
16.2939404084
19.0067078446
20.2898122266
20.3030077437
19.3340053145
18.9691972196
20.5866429965
22.1427858293
28.7244429577
40.0642805747
47.1170414278
43.8784974724
30.0361855172
30.9629543804
32.9397211727
31.3868547877
3.60405571067
0.0121116739628
0
0
0
0
0
0
0
0
0
0
0
0
0
0
0
0
0
0
0
0
0
0
0
0
0
0
0
0
0
0
0
0
0
19.9442547002
21.2712408203
21.0375175089
20.0359587395
20.9935053029
20.3349470598
19.9087828632
21.597964403
22.0792552525
22.5171228474
25.6738997008
23.6841197268
22.2763533805
22.4706712109
23.6057368137
22.649270472