/*--------------------------------*- C++ -*----------------------------------*\
| =========                 |                                                 |
| \\      /  F ield         | OpenFOAM: The Open Source CFD Toolbox           |
|  \\    /   O peration     | Version:  v1806                                 |
|   \\  /    A nd           | Web:      www.OpenFOAM.com                      |
|    \\/     M anipulation  |                                                 |
\*---------------------------------------------------------------------------*/
FoamFile
{
    version     2.0;
    format      ascii;
    class       volScalarField;
    location    "146";
    object      pa;
}
// * * * * * * * * * * * * * * * * * * * * * * * * * * * * * * * * * * * * * //

dimensions      [0 2 -2 0 0 0 0];


internalField   nonuniform List<scalar> 
6400
(
-0.129741212807
-0.129742099555
-0.129744557549
-0.129749193706
-0.129755714624
-0.129763990398
-0.129774095243
-0.129786570521
-0.129801388879
-0.129818419229
-0.129840010946
-0.129867421351
-0.129899035316
-0.129935003325
-0.129976338351
-0.130024141256
-0.130078696935
-0.130139700597
-0.130206782638
-0.130278049089
-0.130350465424
-0.130423769086
-0.130500430147
-0.13058360424
-0.130675799266
-0.130777132984
-0.130885941024
-0.13100120517
-0.131123264933
-0.131253042331
-0.131391459143
-0.131538200245
-0.131690209865
-0.131844509432
-0.132000629626
-0.132156165855
-0.132310160142
-0.132468643339
-0.132631358841
-0.132790020091
-0.132945541737
-0.133110065214
-0.133290363242
-0.133480839521
-0.133676112064
-0.133873160443
-0.134069478263
-0.134264074697
-0.134456200692
-0.134645371588
-0.134832085616
-0.135012189218
-0.13518117511
-0.135331791042
-0.135465460652
-0.135592556361
-0.135710464095
-0.135808339484
-0.135883459905
-0.135942842126
-0.135990247781
-0.136026536541
-0.13605211943
-0.136071762691
-0.136094315942
-0.136121905194
-0.136150336533
-0.136172406983
-0.136184818913
-0.136188748422
-0.136186045662
-0.136177977105
-0.136165381157
-0.136150048514
-0.136132651928
-0.136114779629
-0.136097641767
-0.136085270305
-0.136076671366
-0.136072972219
-0.129739907207
-0.129740831962
-0.12974297905
-0.129747518007
-0.129754698578
-0.129763655897
-0.129774002041
-0.129785795672
-0.129799821398
-0.129816905255
-0.129838345952
-0.129865110176
-0.129896804438
-0.129933245745
-0.129974746124
-0.130021868756
-0.130076070558
-0.130137366586
-0.130205268571
-0.130277292456
-0.130348843484
-0.130420924966
-0.130497038792
-0.130579726756
-0.13067188601
-0.130773642503
-0.130882353827
-0.130997724094
-0.131120225124
-0.131250336813
-0.131388373378
-0.131535016936
-0.131687667869
-0.131841764934
-0.131998119011
-0.132153806648
-0.132307238865
-0.13246597766
-0.1326293114
-0.132787214977
-0.132938450131
-0.133100735722
-0.133285544152
-0.133479015736
-0.133675563183
-0.133874045478
-0.134071558658
-0.134267563306
-0.134460502206
-0.134647836858
-0.134830266833
-0.135010599015
-0.135189109253
-0.135342138693
-0.135476843269
-0.135608583478
-0.13572322259
-0.135815712168
-0.135890214309
-0.135949218598
-0.135994308418
-0.136031265076
-0.136058544235
-0.136078892942
-0.136102197864
-0.136130501058
-0.13615954396
-0.136181059314
-0.136192449033
-0.136195380835
-0.136191646769
-0.136182446588
-0.136168400856
-0.136151119109
-0.136132319397
-0.136113398091
-0.136096223779
-0.136083075167
-0.13607410864
-0.136070941434
-0.129736303976
-0.129737863598
-0.129739665571
-0.129743798297
-0.129750767206
-0.1297609484
-0.129772465172
-0.129783890758
-0.129796997939
-0.129813548146
-0.129834632491
-0.129860978846
-0.129892581649
-0.129929173736
-0.129970632704
-0.130015954346
-0.130068947137
-0.130133522141
-0.130203208209
-0.130274668782
-0.130344108537
-0.130412705027
-0.130487433778
-0.130571353375
-0.130663517383
-0.130764388369
-0.130873457864
-0.130989606405
-0.131112632886
-0.131243129801
-0.131381164574
-0.131527764868
-0.131681820444
-0.131834883471
-0.131989344907
-0.132147265905
-0.132299907139
-0.132456125403
-0.132619712061
-0.132779142033
-0.132935679677
-0.133100979729
-0.133281663103
-0.133472562042
-0.133668610836
-0.133867199085
-0.134066120627
-0.134263917112
-0.134459095912
-0.134650192331
-0.134836709694
-0.135017735855
-0.135189397499
-0.135346011953
-0.13549191684
-0.135624883278
-0.135736306085
-0.135827728123
-0.135901944759
-0.135961055618
-0.136007689622
-0.136044696788
-0.136071366739
-0.136094195582
-0.136120718642
-0.13615082349
-0.136178842911
-0.136198645754
-0.136208445851
-0.136209534902
-0.136203619152
-0.136191622566
-0.136174579231
-0.136154372292
-0.136132906749
-0.136111886905
-0.136093305421
-0.136078729212
-0.136069176265
-0.136065452218
-0.12973152107
-0.129733033863
-0.129734308359
-0.129738085124
-0.129744164176
-0.129754183896
-0.129769441617
-0.129780765535
-0.129792807024
-0.12980843801
-0.129828994515
-0.129855029846
-0.129886575846
-0.129922695721
-0.129964046611
-0.130012324773
-0.130068058818
-0.130131318112
-0.130197511217
-0.13026278482
-0.130328948079
-0.130398863781
-0.130474343974
-0.130557705255
-0.130649897256
-0.130751116777
-0.130860830683
-0.130977740944
-0.131101570875
-0.131232410987
-0.131371265947
-0.131518183231
-0.131672070717
-0.13182834261
-0.131979875161
-0.132133284943
-0.132289530342
-0.132444147226
-0.132601479194
-0.132761508426
-0.132923777896
-0.133093283656
-0.133274069696
-0.133464292604
-0.133660503587
-0.133860021561
-0.134060650357
-0.134260685091
-0.134458578351
-0.134652891251
-0.1348424143
-0.135025488172
-0.135199360166
-0.135361146789
-0.135510337024
-0.135643081415
-0.135754967261
-0.135846683866
-0.135920956199
-0.13598043439
-0.136027761546
-0.136065116231
-0.136094429334
-0.136122729964
-0.136151794396
-0.136181581172
-0.136209067551
-0.136227346332
-0.136234497943
-0.13623231199
-0.136222680739
-0.136206499327
-0.136185060736
-0.136160027343
-0.136133565274
-0.136109123686
-0.136088322333
-0.136070186561
-0.136057197366
-0.136051641478
-0.129724141503
-0.129724176784
-0.129725770511
-0.129729591694
-0.1297362557
-0.129745435237
-0.129758902683
-0.129771818503
-0.129784831455
-0.129800754343
-0.129820925656
-0.129846744552
-0.129878403154
-0.129916998681
-0.129962013469
-0.130010911279
-0.130064231149
-0.130121655062
-0.130181897009
-0.130245094722
-0.130311491296
-0.130381276466
-0.130456667158
-0.130540072164
-0.130632330154
-0.130733958055
-0.130844098251
-0.130961947428
-0.131086635096
-0.131218615056
-0.131357859349
-0.131506643404
-0.131663847601
-0.131816063571
-0.131966471749
-0.13211734006
-0.132267880974
-0.132421588549
-0.132579337103
-0.132741086679
-0.132907109053
-0.133079929582
-0.133261952951
-0.133452639677
-0.133649732992
-0.133850819942
-0.134053717297
-0.134256598128
-0.134457868712
-0.13465603506
-0.13484955415
-0.135036508916
-0.135214498362
-0.135381018938
-0.135533519412
-0.135667855076
-0.135780965216
-0.135873673551
-0.135948776435
-0.136009187628
-0.136057666092
-0.136096801659
-0.136130270796
-0.136164278304
-0.136194062659
-0.136224604834
-0.136252436842
-0.136269166847
-0.136272608694
-0.13626524424
-0.136249724499
-0.136227403863
-0.136199352446
-0.136166885253
-0.136133848219
-0.136103925775
-0.136076813153
-0.136050666977
-0.136032943301
-0.136025932636
-0.1297101239
-0.129709809664
-0.129712937683
-0.129716682797
-0.129723836898
-0.129733741684
-0.129745894322
-0.129759151163
-0.129773442831
-0.129790045564
-0.129809499349
-0.129835503326
-0.129870920508
-0.129912799699
-0.129957550498
-0.130004044412
-0.130052998184
-0.130105938802
-0.130163854692
-0.130225915888
-0.130290558445
-0.130359391255
-0.130434738972
-0.130518424599
-0.130610994903
-0.130712415956
-0.130823495683
-0.130942089229
-0.131068194216
-0.131201136175
-0.131342382033
-0.131491958275
-0.131647055447
-0.131802827615
-0.131948191164
-0.132092000018
-0.132240078398
-0.132393726503
-0.132552598733
-0.13271639519
-0.13288544685
-0.13306124804
-0.133245256757
-0.133437373337
-0.1336361004
-0.133839376724
-0.134045113587
-0.134251463561
-0.134456841116
-0.134659738664
-0.134858470921
-0.135050962512
-0.135234685381
-0.135406641024
-0.135563196465
-0.135700316002
-0.135815840818
-0.135910787393
-0.135987780948
-0.136049804897
-0.136099940188
-0.136142075413
-0.136182402027
-0.136219078536
-0.136250504125
-0.136283167448
-0.136312373313
-0.136327413437
-0.136325680516
-0.136310602879
-0.136286723928
-0.136255907882
-0.136218290909
-0.136175796079
-0.136133442968
-0.136093965898
-0.136055441256
-0.136018796823
-0.135995043018
-0.135984167876
-0.129688583815
-0.1296900439
-0.129695800747
-0.129701504168
-0.129707141919
-0.129716898095
-0.129729943305
-0.129743419233
-0.129758665521
-0.129775978385
-0.129796934154
-0.12982367697
-0.129862013321
-0.129903764041
-0.129946597425
-0.12998938692
-0.130035093597
-0.130086841525
-0.130144032396
-0.130203047278
-0.130265533117
-0.130333911488
-0.130409034769
-0.130492360592
-0.13058496455
-0.130688122455
-0.13079829658
-0.130918224258
-0.131045773113
-0.13118201575
-0.13132462466
-0.131473075411
-0.131627765329
-0.131777365494
-0.131919770509
-0.132060198552
-0.132207087353
-0.132361123999
-0.132521287129
-0.132687022542
-0.13285868797
-0.133037299645
-0.133223750417
-0.133418035472
-0.133619093282
-0.133825179836
-0.134034361205
-0.1342448795
-0.134455239763
-0.13466397803
-0.134869327405
-0.135068989181
-0.135260000837
-0.135438653491
-0.135600688089
-0.135742302161
-0.135861902414
-0.135960491367
-0.136040329001
-0.136104164812
-0.136156122136
-0.13620258773
-0.136247600036
-0.136286520906
-0.136328251866
-0.136364281272
-0.136393449989
-0.13640442183
-0.136395285853
-0.136370506597
-0.136336122262
-0.13629415029
-0.13624351862
-0.136187755696
-0.136131743056
-0.136076611688
-0.136021405207
-0.135972305224
-0.13594044745
-0.135924574999
-0.129663517582
-0.129666585154
-0.129673484963
-0.129682269514
-0.12968839135
-0.129698130915
-0.129710682689
-0.12972461385
-0.12974115592
-0.129757289833
-0.129780838336
-0.129812101566
-0.129849386425
-0.129889783046
-0.129929342708
-0.129968515879
-0.130013492969
-0.130065590734
-0.130119952332
-0.130176042563
-0.130236684631
-0.130304408445
-0.130379343745
-0.130463154088
-0.130556401612
-0.130659479136
-0.130771596081
-0.130888730314
-0.131020363101
-0.131161560501
-0.131303361321
-0.1314468502
-0.131599367948
-0.131743903789
-0.131881532618
-0.132022241748
-0.13216933984
-0.132323770816
-0.132485028137
-0.132652552683
-0.132826601925
-0.133007943765
-0.13319715473
-0.133394179201
-0.133598176576
-0.133807665349
-0.134020923899
-0.134236386929
-0.134452731553
-0.134668584121
-0.134882111428
-0.135090719336
-0.135290858401
-0.135478076574
-0.135647673454
-0.135796018839
-0.135921701931
-0.136025242989
-0.136107897823
-0.136172128699
-0.136224236089
-0.136273073917
-0.136322251305
-0.136371627517
-0.136423174575
-0.136469914101
-0.136499422499
-0.136504219541
-0.136485556489
-0.136449165195
-0.13640195913
-0.13634506484
-0.136277473022
-0.136203746805
-0.136127677641
-0.136049956263
-0.135974038289
-0.135909256555
-0.135867126429
-0.135846232729
-0.129636346664
-0.129640497104
-0.129647546337
-0.129654391979
-0.129662802283
-0.129675649851
-0.129687640183
-0.129701746325
-0.129720463868
-0.129738200509
-0.129759839492
-0.129794205221
-0.129832153972
-0.129870024514
-0.12990672409
-0.129945374792
-0.129989252004
-0.130039598818
-0.130091334844
-0.130145526592
-0.130204573548
-0.130270753175
-0.130344449666
-0.130427792931
-0.130524945889
-0.13062684274
-0.130740489712
-0.130861739182
-0.130991740373
-0.131131372877
-0.131275026303
-0.131422073268
-0.131561792573
-0.131699975994
-0.131837424337
-0.131978860225
-0.132126480714
-0.132281301785
-0.132443422511
-0.13261255394
-0.132788867495
-0.1329729169
-0.133165096353
-0.133365291463
-0.133572750459
-0.133786192571
-0.134004171586
-0.134225415144
-0.134448840967
-0.134673210175
-0.134896650229
-0.135116249854
-0.135327817903
-0.135526149607
-0.135706096214
-0.135863902284
-0.135997719055
-0.136106677838
-0.136190158976
-0.136251163566
-0.136301269206
-0.136354224648
-0.136412980897
-0.136474377929
-0.136534908712
-0.136597076061
-0.136638469126
-0.136633596082
-0.136602935433
-0.13655288875
-0.13648909796
-0.136412443598
-0.13632335286
-0.136225375267
-0.13612107802
-0.136013721952
-0.135911965816
-0.135826956094
-0.135769861605
-0.135742061003
-0.12960681179
-0.129611850703
-0.129619981954
-0.129626581263
-0.12963539048
-0.129648464881
-0.129660514858
-0.129674385779
-0.12969187685
-0.129715280071
-0.129738181785
-0.129771904114
-0.129809663187
-0.129845157991
-0.129878941565
-0.129918074167
-0.129962926605
-0.1300100622
-0.130058654746
-0.130111131538
-0.130169374871
-0.130234384334
-0.13030686787
-0.130387747646
-0.130486986576
-0.130592750537
-0.130700407418
-0.130825951234
-0.130956342582
-0.13109798162
-0.131240657467
-0.131383746169
-0.131519832729
-0.131651611214
-0.131788021092
-0.131930049101
-0.132078195283
-0.132233381226
-0.132396133338
-0.132566598573
-0.132745031417
-0.132931797108
-0.133127102892
-0.133330776403
-0.133542126688
-0.13376004175
-0.13398337614
-0.134211243773
-0.134442891251
-0.134677271458
-0.134912536136
-0.135145512003
-0.135371389363
-0.135584186119
-0.135778076144
-0.135948560338
-0.136092181136
-0.136204899165
-0.136282976375
-0.136335315693
-0.13638542603
-0.136449570711
-0.13652401086
-0.136599781866
-0.136671926473
-0.136739077589
-0.136788581941
-0.136801427068
-0.136755952352
-0.136687705595
-0.13660236569
-0.136501536809
-0.13638544501
-0.136255121225
-0.136112973438
-0.135967518272
-0.135831140555
-0.135716065143
-0.135633935964
-0.135591566304
-0.129573701153
-0.12957867329
-0.129587200907
-0.129595679053
-0.129607302429
-0.129617655705
-0.129629319738
-0.129643556567
-0.129657538851
-0.129683004422
-0.12971035392
-0.129743766361
-0.129781064503
-0.129815665145
-0.12984839874
-0.129886390662
-0.129931103407
-0.129975912073
-0.130021930952
-0.130072150928
-0.130129458082
-0.130194236454
-0.130268026306
-0.130347039199
-0.130440477896
-0.130553254449
-0.13066350911
-0.130786092646
-0.130915586651
-0.131048546029
-0.131195196338
-0.131336163812
-0.131468289297
-0.131597534594
-0.131733375441
-0.131875633855
-0.132024153832
-0.132179673111
-0.132342874877
-0.132514315132
-0.132694599652
-0.132884033979
-0.133082574493
-0.133289946131
-0.133505517309
-0.133728362032
-0.133957669487
-0.134192986228
-0.134433960333
-0.134679849552
-0.134928964327
-0.135178035669
-0.13542178565
-0.135653416059
-0.135865951325
-0.136052844924
-0.136206321434
-0.136315053148
-0.136376670048
-0.136420316769
-0.136480084404
-0.13656661476
-0.136663761944
-0.1367569268
-0.136838186613
-0.13690376116
-0.136951457026
-0.136981014523
-0.136949782269
-0.136865087771
-0.136750308642
-0.136620403456
-0.136470972334
-0.136297949262
-0.136105028727
-0.135909054098
-0.135722723805
-0.135558981021
-0.1354350204
-0.135367008276
-0.129536254933
-0.129540140068
-0.129546106368
-0.129557248235
-0.129572710979
-0.129582158567
-0.129593599109
-0.129609132964
-0.129622040819
-0.129645255069
-0.129675802342
-0.129709621508
-0.129745954934
-0.129780226527
-0.12981483337
-0.129852312125
-0.129895039412
-0.12993738802
-0.12998132906
-0.130029238547
-0.130083938987
-0.130146471071
-0.130223705637
-0.130307668582
-0.13039535993
-0.130505622382
-0.130619394635
-0.130735915529
-0.130871138153
-0.131005120131
-0.131142859378
-0.13127621854
-0.131405487018
-0.131536722006
-0.131672809401
-0.1318151136
-0.131963866211
-0.132119706375
-0.13228333076
-0.132455406184
-0.132637056413
-0.132828946268
-0.133030790895
-0.133242010186
-0.133462024905
-0.133690174763
-0.133926016643
-0.134169529744
-0.134420814769
-0.134679571549
-0.134944507879
-0.135212594118
-0.135478529794
-0.135734810413
-0.13597233157
-0.136179042432
-0.136335565545
-0.136425378574
-0.13646444408
-0.136509193796
-0.136595769962
-0.136719129165
-0.136846888973
-0.136960867234
-0.137049066637
-0.137111712052
-0.137151314927
-0.13717356536
-0.137167216759
-0.13708739827
-0.136945001614
-0.13678214017
-0.136593755398
-0.136364332974
-0.136099125712
-0.135834231794
-0.135575688505
-0.135335897779
-0.135150135437
-0.135043369442
-0.129494351241
-0.129497097839
-0.129499424854
-0.129512087324
-0.1295270863
-0.12953882285
-0.129551284027
-0.129568226913
-0.129583126977
-0.129604958519
-0.129636258124
-0.129669839458
-0.129704747294
-0.129737068278
-0.129773838224
-0.129813680401
-0.129854312751
-0.129894384211
-0.129936566376
-0.129982745433
-0.130034544755
-0.130092880772
-0.130167492553
-0.130260929357
-0.130349860349
-0.130450309
-0.130569157722
-0.130685745254
-0.130811844381
-0.130946752479
-0.131081620963
-0.131211453696
-0.13133730489
-0.131468962957
-0.13160557031
-0.131748025317
-0.131896826752
-0.132052686563
-0.132216749224
-0.132389551188
-0.132572161381
-0.132765924942
-0.132970849817
-0.133186000823
-0.133410625483
-0.133644361967
-0.133887195909
-0.134139509109
-0.134401831467
-0.134674454277
-0.134956767603
-0.135246685329
-0.13553991942
-0.135828598671
-0.13609940601
-0.136325856514
-0.136468610547
-0.136527097622
-0.136543478263
-0.13660875921
-0.136748522221
-0.136927759235
-0.13709594452
-0.137238790928
-0.137329603794
-0.137379737458
-0.137403222693
-0.137411574226
-0.13741886316
-0.137354536151
-0.137184602398
-0.137005196444
-0.13677762894
-0.136475326416
-0.136097154409
-0.135741815585
-0.135383699507
-0.135027353846
-0.134748067434
-0.134577122867
-0.129448487229
-0.129451620709
-0.129456019692
-0.129463959213
-0.129476393135
-0.129489435286
-0.129503208911
-0.129520416739
-0.129539117202
-0.129560436297
-0.129591797272
-0.129624857971
-0.129658577615
-0.129689330792
-0.129724579919
-0.129766721368
-0.129807241977
-0.129846295488
-0.12988712958
-0.129931888831
-0.129981615202
-0.130036341422
-0.130106262231
-0.130202483435
-0.13029784417
-0.130393267397
-0.130511365869
-0.130630445867
-0.130749273473
-0.130879906634
-0.131007498803
-0.13113338329
-0.131261454213
-0.131394025541
-0.131531092126
-0.131673643224
-0.131822677419
-0.131978493021
-0.132142330404
-0.132315676938
-0.132499351284
-0.132694597627
-0.13290201999
-0.133120824311
-0.133350092165
-0.133589636609
-0.133839829765
-0.134101319842
-0.134374955547
-0.134661707834
-0.134962032271
-0.135275824295
-0.1356018033
-0.135932980138
-0.136248523222
-0.136483172613
-0.136578253147
-0.136580226503
-0.136604242056
-0.136734105915
-0.136964330857
-0.137226132473
-0.137435531242
-0.137623818793
-0.13766261418
-0.137650810766
-0.137626392564
-0.137604832586
-0.137581436428
-0.137533856734
-0.137438337643
-0.137282144232
-0.137037205968
-0.136639518036
-0.136081409706
-0.135635261061
-0.135156369615
-0.13460755642
-0.134176749726
-0.133874199537
-0.129397397398
-0.12940085864
-0.129408843253
-0.129412506441
-0.129422021861
-0.129435206644
-0.129449907131
-0.129468115271
-0.129491480204
-0.12951174288
-0.129542444152
-0.129574957375
-0.129607881736
-0.129638321128
-0.129672451644
-0.129714523877
-0.129754750137
-0.129793278926
-0.129833096367
-0.129876368596
-0.129924368758
-0.129977016099
-0.130041109705
-0.130132855452
-0.130237762714
-0.130333817135
-0.13044263082
-0.130568931616
-0.130690219475
-0.130806811671
-0.130927433262
-0.13105063787
-0.13117870734
-0.131311571292
-0.131448955688
-0.131591631422
-0.1317404267
-0.13189632587
-0.132060042622
-0.132233190235
-0.132417553944
-0.132614174553
-0.132823633394
-0.133045472993
-0.133279055303
-0.133524543362
-0.13378238254
-0.134053188142
-0.134337803327
-0.134637737748
-0.134954872447
-0.135292692455
-0.135655935062
-0.13604228226
-0.13641788906
-0.136639982134
-0.136612646437
-0.1366063678
-0.136685630221
-0.136923277126
-0.137286101383
-0.137672539389
-0.137811861098
-0.13777802508
-0.137770702935
-0.137807061003
-0.137885738597
-0.13792217776
-0.137905658336
-0.13787476083
-0.137721032565
-0.1378992068
-0.137827693083
-0.137299763086
-0.136069970328
-0.135511579583
-0.134919912908
-0.134019146653
-0.133356719193
-0.132761603903
-0.129340091128
-0.129343081696
-0.129349715603
-0.1293539666
-0.129362102615
-0.129375610626
-0.129390450943
-0.129407801149
-0.129435307524
-0.129457801244
-0.129487696912
-0.129519945379
-0.129552613977
-0.129583754301
-0.129617446527
-0.129658358599
-0.129697780388
-0.129735873274
-0.129774794523
-0.129816609699
-0.129862643378
-0.129913595629
-0.129973706645
-0.130059037837
-0.130167184969
-0.130269206738
-0.130369268531
-0.130487837951
-0.130612797216
-0.130728378491
-0.130843033273
-0.130962677558
-0.13108954627
-0.131222127419
-0.131359422681
-0.131501633389
-0.131650044953
-0.131805381454
-0.131968924647
-0.132141769979
-0.13232611678
-0.132523662688
-0.132734899848
-0.132959095055
-0.133195991496
-0.13344699756
-0.133713066049
-0.13399368046
-0.134287948832
-0.134597705162
-0.134927923638
-0.135286089901
-0.135685309313
-0.13613851895
-0.136606553441
-0.1366508189
-0.136610128651
-0.136619887454
-0.136835261399
-0.137213027379
-0.137620188164
-0.13751437775
-0.13738360371
-0.137331622429
-0.137163244016
-0.136857438755
-0.13644110005
-0.13602757329
-0.135701013216
-0.135572162643
-0.135624619064
-0.135304201681
-0.134898938065
-0.134398936022
-0.134520208599
-0.13558903955
-0.135427441653
-0.133224188634
-0.132206119415
-0.13086242574
-0.129277609165
-0.129280105517
-0.129286518638
-0.129290365275
-0.129298138809
-0.129311386649
-0.129326043496
-0.12934128872
-0.129368078705
-0.129395419326
-0.129426428082
-0.129459008328
-0.129492021515
-0.129525307414
-0.129558499497
-0.129598054172
-0.129636521087
-0.12967432707
-0.129712387307
-0.129752801492
-0.129796819226
-0.129845465901
-0.129902253686
-0.129980712438
-0.130084831684
-0.130196505392
-0.130295484254
-0.130403672232
-0.13052098479
-0.130634316439
-0.130746209736
-0.130865789467
-0.130992115894
-0.131124243186
-0.131261537218
-0.131403589265
-0.131551066211
-0.13170563969
-0.131868379148
-0.132040702091
-0.132224626111
-0.13242208881
-0.132634317041
-0.132860426372
-0.133099726665
-0.133356019916
-0.133631102463
-0.133921424504
-0.134222099484
-0.134536745244
-0.134873046182
-0.135241779372
-0.135659002528
-0.136140416413
-0.136645324104
-0.136653803008
-0.136620888326
-0.136733175278
-0.137005260315
-0.136881856568
-0.136706119448
-0.136515214531
-0.135972226366
-0.13522882031
-0.134247403498
-0.133026843789
-0.131636432547
-0.13023705693
-0.129019994905
-0.128203513871
-0.127876192315
-0.12777282856
-0.127848365262
-0.128093400299
-0.128581707027
-0.129034580759
-0.12945513779
-0.130942837354
-0.131444390254
-0.127966124442
-0.12921094172
-0.129212763662
-0.129217116665
-0.129221283931
-0.129230519763
-0.129243293998
-0.129258231642
-0.129272258203
-0.129297547478
-0.129327123739
-0.129358863245
-0.129391461391
-0.129424128444
-0.129460305205
-0.129494263556
-0.129532448171
-0.129570106181
-0.129608204904
-0.129645571961
-0.129684694409
-0.129726748532
-0.129772752979
-0.129826181578
-0.129898439728
-0.129996746621
-0.13011162906
-0.130217320821
-0.130319358572
-0.130426616794
-0.130533189798
-0.130641817383
-0.130759985293
-0.130884880026
-0.131016250495
-0.13115351696
-0.131295504836
-0.131442764103
-0.131596334676
-0.131758206362
-0.131929407782
-0.132112085555
-0.132309164479
-0.132521791952
-0.132749075199
-0.132987063083
-0.13324150117
-0.13352352989
-0.133828372754
-0.134136357458
-0.134448528273
-0.134779488747
-0.135138960035
-0.135548970142
-0.136015682002
-0.136708352709
-0.13679713303
-0.136718943903
-0.136423931659
-0.136124329401
-0.135697816732
-0.134989245305
-0.134051437896
-0.132711821049
-0.131044368533
-0.129074733507
-0.126848774782
-0.12444599901
-0.122022217752
-0.119783330061
-0.117962237962
-0.116723129409
-0.116020872032
-0.115743899469
-0.115819919835
-0.11651813736
-0.118242598634
-0.120892455724
-0.123352004431
-0.123403634302
-0.121302322081
-0.129141076657
-0.129142328729
-0.129144416027
-0.129149162048
-0.129159617518
-0.129171627862
-0.129186477739
-0.129201120906
-0.129223823081
-0.129253832471
-0.129285471145
-0.12931753983
-0.12934886306
-0.129385085825
-0.129422270255
-0.129460124592
-0.12949709391
-0.129535522249
-0.129573209302
-0.129611561322
-0.129652020185
-0.129695015083
-0.129745010764
-0.129811304295
-0.129901494772
-0.130010688478
-0.130122726633
-0.130224400256
-0.130325251714
-0.130426746006
-0.130530146071
-0.130645161578
-0.130768893883
-0.130897524947
-0.131034432201
-0.131176329715
-0.131322843185
-0.131475869206
-0.131637101281
-0.131807860486
-0.131989097766
-0.132184024646
-0.132394884642
-0.132622124873
-0.132862974531
-0.133119214878
-0.133400211756
-0.133699579835
-0.134006711293
-0.134316332414
-0.134630251651
-0.134946240329
-0.135304197815
-0.135620518459
-0.136260123038
-0.137127325379
-0.136395504774
-0.135336642387
-0.134448735894
-0.133301027152
-0.131793034891
-0.129897617742
-0.127639572573
-0.125121446282
-0.122391853619
-0.119512672943
-0.116555934965
-0.113633872638
-0.110877600355
-0.108417862618
-0.106367908443
-0.10478498423
-0.103523923442
-0.102546410887
-0.102213562985
-0.103254457065
-0.105746508076
-0.108129931492
-0.111630270544
-0.129015841804
-0.129068368141
-0.12906936812
-0.129070561596
-0.129076424529
-0.12908639157
-0.129096872408
-0.129109879151
-0.129125994114
-0.129145974212
-0.129175353719
-0.129206510547
-0.129237905871
-0.129268261952
-0.129302585128
-0.129342163619
-0.129380799514
-0.129417574456
-0.129455570661
-0.129493713873
-0.129532136756
-0.129571919114
-0.129611994579
-0.129658276264
-0.129718982435
-0.129800884082
-0.129901905816
-0.130011486292
-0.130114641398
-0.130209141751
-0.130305717959
-0.130407852022
-0.130516850016
-0.130637595206
-0.130765378673
-0.13090246784
-0.131044637154
-0.131190436491
-0.131342733455
-0.13150323993
-0.131673462742
-0.13185417788
-0.132047394776
-0.132258210132
-0.132488217219
-0.132734612013
-0.132991612074
-0.133265904389
-0.133558936804
-0.133863071052
-0.134167855981
-0.134452010807
-0.13465242336
-0.134900649104
-0.134499050935
-0.135165864077
-0.135452819175
-0.134554985247
-0.133029981202
-0.13144802586
-0.129376157181
-0.126942497873
-0.124156148486
-0.121124621416
-0.11794817375
-0.11467138671
-0.111326155704
-0.107940069109
-0.104558316891
-0.101231344421
-0.0980042779682
-0.0949253093606
-0.0920524699703
-0.0893064982535
-0.0865769929715
-0.0841203322022
-0.0825840540881
-0.0821165854835
-0.0801917027801
-0.0713651941954
-0.0566669767948
-0.128991831845
-0.128992702713
-0.128993913581
-0.129001428365
-0.129010517204
-0.129019251984
-0.129029645775
-0.129046455552
-0.129063110114
-0.129091253113
-0.129121902571
-0.129152655355
-0.129182431778
-0.129215729261
-0.129255510845
-0.129294817363
-0.129331864604
-0.129369441252
-0.129406994275
-0.129445403522
-0.129485203953
-0.12952297916
-0.129564982349
-0.129620365152
-0.129694453134
-0.129786602846
-0.129891234565
-0.129993461351
-0.130090039235
-0.130178865637
-0.130276923536
-0.130382529429
-0.130497266592
-0.130617823442
-0.13075191541
-0.130897205223
-0.131043902041
-0.131196520293
-0.131355830989
-0.131524694632
-0.131705292116
-0.13189923129
-0.132112162931
-0.13234738768
-0.13259587426
-0.132852939891
-0.133126104803
-0.133423995638
-0.133744872847
-0.134064848683
-0.134340301718
-0.134317366051
-0.135340218894
-0.134034720815
-0.132529760235
-0.131600428778
-0.1306968485
-0.129105708455
-0.126816986092
-0.123945055823
-0.120721048424
-0.117224873057
-0.113573270345
-0.109822043096
-0.105978566297
-0.102026836109
-0.0979501055402
-0.0937517606028
-0.0894515559832
-0.0850738384105
-0.0806362399489
-0.0761379139299
-0.071510148059
-0.0664722216492
-0.060974944562
-0.0554340871503
-0.0492606167361
-0.0368075758048
-0.00654081215186
0.0331824653852
-0.128909494635
-0.128910173465
-0.128912080031
-0.128921620384
-0.128929933092
-0.128937215238
-0.128946033711
-0.12896188638
-0.128975131978
-0.129001368055
-0.129031416458
-0.12906144768
-0.129090635429
-0.129122880352
-0.129161920335
-0.129201503741
-0.129239539237
-0.12927665103
-0.12931293534
-0.129350695862
-0.129390460303
-0.129426809432
-0.129463893817
-0.129513988984
-0.129580957933
-0.129663754953
-0.129760686839
-0.129856186698
-0.12995441504
-0.130043626795
-0.130134759616
-0.13023247817
-0.13034399071
-0.130464543614
-0.130589807522
-0.130731204287
-0.130879563614
-0.131032975237
-0.131193486449
-0.131361462476
-0.13154076126
-0.131737178716
-0.131955032869
-0.132193521078
-0.132439857656
-0.132695406999
-0.13297634531
-0.133297284576
-0.133663321458
-0.134052001931
-0.134524119147
-0.134300685755
-0.133527561348
-0.132147903627
-0.130163664447
-0.128290899633
-0.126510718638
-0.124111453406
-0.121039376075
-0.117454415539
-0.113557914782
-0.109454126134
-0.105235338152
-0.100922111583
-0.0965030276717
-0.0919522710459
-0.0872512243671
-0.082396672424
-0.0773907060713
-0.0722177588698
-0.0668094248379
-0.0610129495367
-0.0546021751426
-0.0472541011461
-0.0387591046856
-0.0291822598176
-0.0167216776712
0.00700537214031
0.0545436766321
0.109566518916
-0.128818399932
-0.128818926431
-0.128821522644
-0.128832882856
-0.12884020826
-0.128847414654
-0.128855320915
-0.128868950523
-0.128880050498
-0.128905176831
-0.128934669192
-0.128963882046
-0.12899233445
-0.129023243868
-0.129060722295
-0.12909951996
-0.129139081324
-0.129175842625
-0.129210778676
-0.129247314338
-0.129285930688
-0.129322119341
-0.129354536365
-0.129398697279
-0.129459255734
-0.12953316751
-0.129620972784
-0.12970777123
-0.129798279395
-0.129890789397
-0.129982286429
-0.130073614568
-0.130172418121
-0.130288349713
-0.130415252853
-0.130551160401
-0.130697849684
-0.130850465686
-0.131010919183
-0.13117988452
-0.131360591577
-0.131558367551
-0.13177927959
-0.132015828431
-0.132260616967
-0.132520900883
-0.132814576955
-0.13316065782
-0.133584677907
-0.134042053338
-0.133996486178
-0.133041268186
-0.131385278854
-0.129631885563
-0.127392545599
-0.124903798667
-0.122065666637
-0.118604332667
-0.114662747039
-0.110372479559
-0.105881414394
-0.101272557005
-0.0966074604993
-0.0918916464804
-0.0871110747425
-0.0822380271548
-0.0772404471184
-0.0720779986888
-0.0666925389003
-0.0609897056677
-0.0548006703221
-0.0478350052513