/*--------------------------------*- C++ -*----------------------------------*\
| =========                 |                                                 |
| \\      /  F ield         | OpenFOAM: The Open Source CFD Toolbox           |
|  \\    /   O peration     | Version:  v1806                                 |
|   \\  /    A nd           | Web:      www.OpenFOAM.com                      |
|    \\/     M anipulation  |                                                 |
\*---------------------------------------------------------------------------*/
FoamFile
{
    version     2.0;
    format      ascii;
    class       surfaceScalarField;
    location    "146";
    object      phia;
}
// * * * * * * * * * * * * * * * * * * * * * * * * * * * * * * * * * * * * * //

dimensions      [0 3 -1 0 0 0 0];
oriented        oriented;


internalField   nonuniform List<scalar> 
12640
(
7.51602642449e-08
-7.52261396345e-08
1.46869907976e-07
-7.17644091827e-08
2.13032658992e-07
-6.62044266265e-08
2.70341785554e-07
-5.73399127219e-08
3.10635987603e-07
-4.03197117986e-08
3.3105006756e-07
-2.04231902349e-08
3.4123941462e-07
-1.018499125e-08
3.66119837289e-07
-2.48649367285e-08
4.08212814413e-07
-4.20659247624e-08
4.47584080459e-07
-3.93316247676e-08
4.83883907046e-07
-3.62541916764e-08
5.26739280342e-07
-4.27944361012e-08
5.66123572218e-07
-3.93102621334e-08
5.97028869082e-07
-3.0816591394e-08
6.23783485474e-07
-2.66554969726e-08
6.57253045797e-07
-3.33641364077e-08
6.92896923956e-07
-3.55262909903e-08
7.21086963765e-07
-2.80621990706e-08
7.3897124687e-07
-1.77418680853e-08
7.51005256222e-07
-1.18686035941e-08
7.72948387742e-07
-2.17560189413e-08
8.09389496226e-07
-3.62380578073e-08
8.52137218954e-07
-4.25292636369e-08
8.96796444246e-07
-4.44339352347e-08
9.39110593215e-07
-4.20839513879e-08
9.77817138377e-07
-3.84666608785e-08
1.01662670318e-06
-3.8553278753e-08
1.05364224846e-06
-3.67449693259e-08
1.08643885855e-06
-3.25065624058e-08
1.11584554615e-06
-2.91051211699e-08
1.14689665186e-06
-3.07279527855e-08
1.17781247506e-06
-3.05814705717e-08
1.20408235808e-06
-2.59171543903e-08
1.23264288808e-06
-2.81797460711e-08
1.26110148654e-06
-2.80234539727e-08
1.2889006608e-06
-2.73406747549e-08
1.32184818042e-06
-3.2445909858e-08
1.35382562851e-06
-3.14225886084e-08
1.38279176993e-06
-2.83488071148e-08
1.41929650115e-06
-3.58303803283e-08
1.48665681064e-06
-6.66515924335e-08
1.56030759765e-06
-7.29845526188e-08
1.60280905744e-06
-4.18541353961e-08
1.62722394836e-06
-2.37445258915e-08
1.64377520308e-06
-1.58590359804e-08
1.65125460113e-06
-6.76326151945e-09
1.65012617185e-06
1.8790237311e-09
1.63821046231e-06
1.26916301862e-08
1.61859592891e-06
2.04168056206e-08
1.60860652457e-06
1.07988252122e-08
1.62601829594e-06
-1.65315135483e-08
1.6421899998e-06
-1.52874275833e-08
1.591657934e-06
5.1446096853e-08
1.50407050675e-06
8.86422335559e-08
1.39546590571e-06
1.09654201957e-07
1.24416757612e-06
1.52323563484e-07
1.10834577131e-06
1.37006664404e-07
1.01314335003e-06
9.66215728144e-08
9.09941118359e-07
1.04845620638e-07
7.9718069814e-07
1.1462734956e-07
7.03911325826e-07
9.54272333682e-08
6.02080360921e-07
1.04146413927e-07
4.41436646418e-07
1.63151523107e-07
3.15188409205e-07
1.27984516825e-07
2.31790375575e-07
8.44691024448e-08
1.73507891917e-07
5.90432565132e-08
1.23619958046e-07
5.05752380109e-08
7.50685729067e-08
4.93076760819e-08
2.64434359069e-08
4.95015185864e-08
-2.14249501618e-08
4.88660286801e-08
-6.43696191353e-08
4.40073861852e-08
-9.76270671417e-08
3.43095437096e-08
-1.1845490122e-07
2.18567790139e-08
-1.25846589997e-07
8.40977959055e-09
-1.2296705805e-07
-1.91989037729e-09
-1.12211640821e-07
-9.83430492442e-09
-1.00070039403e-07
-1.11595994824e-08
-7.64126328577e-08
-2.26503346163e-08
-4.80350166499e-08
-2.69685565343e-08
-4.69258349052e-08
3.72903932135e-08
-1.12558751779e-07
8.60221775589e-08
-1.20538623178e-07
1.34282107755e-07
-1.1449658053e-07
1.86836453081e-07
-1.09920123286e-07
2.61304970123e-07
-1.14805183605e-07
3.23995123241e-07
-8.31228413918e-08
3.61208328661e-07
-4.7397709212e-08
3.93631106091e-07
-5.72721851495e-08
4.27590671648e-07
-7.59971377159e-08
4.66970318538e-07
-7.86705137549e-08
5.06264091486e-07
-7.54964317251e-08
5.37329516591e-07
-7.37963652273e-08
5.66096198382e-07
-6.80052366516e-08
5.9592511574e-07
-6.05565031878e-08
6.26114232792e-07
-5.67482812991e-08
6.61819263009e-07
-6.89512093742e-08
6.90895048214e-07
-6.4486693842e-08
6.95760563236e-07
-3.27943152381e-08
6.97567580448e-07
-1.94103452678e-08
7.1404587718e-07
-2.81791514391e-08
7.47263020254e-07
-5.47818841374e-08
8.00762089004e-07
-8.95121332812e-08
8.56081996445e-07
-9.76288067704e-08
8.96400272912e-07
-8.45127864074e-08
9.34628795705e-07
-8.00810628924e-08
9.79788324851e-07
-8.3368171873e-08
1.0196602165e-06
-7.81687205096e-08
1.05317872365e-06
-6.99737589608e-08
1.08436979554e-06
-6.34102199486e-08
1.1138479894e-06
-5.82599423912e-08
1.13966027906e-06
-5.62244447304e-08
1.16320440322e-06
-5.37876629119e-08
1.18203522682e-06
-4.43969715542e-08
1.20490549106e-06
-5.06430500941e-08
1.23978732632e-06
-6.25052806129e-08
1.26660814772e-06
-5.36582658001e-08
1.29495115746e-06
-6.02564092274e-08
1.33893979992e-06
-7.48356295977e-08
1.39125379702e-06
-8.00503610091e-08
1.43304451929e-06
-7.69109485216e-08
1.40413978452e-06
-3.70799041199e-08
1.3426256017e-06
-1.08515553426e-08
1.33515411699e-06
-3.37970650362e-08
1.36054172356e-06
-4.84902373642e-08
1.3961436376e-06
-5.08123913889e-08
1.43932803249e-06
-4.92361277038e-08
1.4809650962e-06
-3.90355916017e-08
1.51968122645e-06
-2.52415344408e-08
1.54867853276e-06
-7.7805631689e-09
1.5399986195e-06
2.03230045234e-08
1.47447317908e-06
4.97995080831e-08
1.40365591127e-06
5.63460672231e-08
1.44059841508e-06
1.5412216148e-08
1.47417881894e-06
5.61293714697e-08
1.42794391331e-06
1.5695903506e-07
1.39538335491e-06
1.86102601019e-07
1.35040938755e-06
1.83440278703e-07
1.25741482923e-06
1.91316519043e-07
1.15147700962e-06
2.12760989966e-07
1.02277129504e-06
2.45620790441e-07
8.20212920626e-07
3.00361183668e-07
6.26349944935e-07
3.00418201904e-07
4.55812449635e-07
3.36230634863e-07
3.252914242e-07
2.60201437556e-07
2.33974210698e-07
1.7682448971e-07
1.6577374549e-07
1.27980571858e-07
1.13794042183e-07
1.03238049294e-07
6.67964007571e-08
9.70600826702e-08
1.9005236031e-08
9.81706011546e-08
-2.87268217399e-08
9.75886856242e-08
-7.08993848866e-08
8.7219493377e-08
-1.02478559771e-07
6.69054193216e-08
-1.24693644323e-07
4.50882967257e-08
-1.39802048907e-07
2.45841298193e-08
-1.44472205065e-07
3.82520209094e-09
-1.40331761137e-07
-1.28691359436e-08
-1.24205709475e-07
-2.61294800176e-08
-9.90285652256e-08
-4.65121564316e-08
-5.49415135967e-08
-6.94541443977e-08
-1.00680628696e-07
5.07744906935e-08
-1.63365047114e-07
7.12588567193e-08
-1.41058451558e-07
1.37365685638e-07
-1.80638106661e-07
2.20010731168e-07
-1.92591305824e-07
2.93032239316e-07
-1.87844360851e-07
3.25299302782e-07
-1.15398513709e-07
3.40187569463e-07
-6.22850399971e-08
3.75501021972e-07
-9.25745995793e-08
4.18059590026e-07
-1.18531362177e-07
4.60791085838e-07
-1.21364062299e-07
5.00909177865e-07
-1.15568572905e-07
5.3407776241e-07
-1.06908914834e-07
5.62941979043e-07
-9.68010039968e-08
5.92761792033e-07
-9.02944609224e-08
6.11204278667e-07
-7.50926759802e-08
5.82304505462e-07
-3.99493521944e-08
5.31932045836e-07
-1.40155877853e-08
5.22005361472e-07
-2.27646003863e-08
5.55418178051e-07
-5.26960474978e-08
6.40232116324e-07
-1.1283053789e-07
7.40888671739e-07
-1.55237669483e-07
8.02250979436e-07
-1.50662286741e-07
8.4248493542e-07
-1.37643026725e-07
8.93103888967e-07
-1.34907059711e-07
9.42139873058e-07
-1.28879043992e-07
9.79656669403e-07
-1.20640365366e-07
1.0126676721e-06
-1.10918279478e-07
1.0447242956e-06
-1.01758019377e-07
1.07370408622e-06
-9.20967229388e-08
1.10208715325e-06
-8.63420993204e-08
1.12335117947e-06
-7.71797518517e-08
1.14162352918e-06
-7.1731945892e-08
1.1653797822e-06
-6.78149273468e-08
1.16822225142e-06
-5.31110839283e-08
1.18065827578e-06
-7.44929669165e-08
1.23060737587e-06
-1.03118396109e-07
1.2618420735e-06
-9.09424506709e-08
1.29358054943e-06
-1.05995566128e-07
1.36731643174e-06
-1.53149169051e-07
1.44542735962e-06
-1.54357781452e-07
1.51571020342e-06
-1.06673019638e-07
1.57347769053e-06
-6.79317822848e-08
1.60639174045e-06
-6.59969124775e-08
1.62916406032e-06
-7.05394619568e-08
1.64773116573e-06
-6.86212127941e-08
1.66027722328e-06
-6.10099195735e-08
1.66899127947e-06
-4.69417963789e-08
1.67295954784e-06
-2.83879863363e-08
1.67125787435e-06
-5.22972596797e-09
1.668655786e-06
2.37783820671e-08
1.66648941871e-06
5.28564916487e-08
1.64968438173e-06
7.40909755136e-08
1.57219739016e-06
9.38906826245e-08
1.48170605505e-06
1.47642885503e-07
1.44669120992e-06
1.93082709062e-07
1.41470393439e-06
2.19367307165e-07
1.34303111319e-06
2.56599398436e-07
1.24062646163e-06
2.95422072528e-07
1.12107374216e-06
3.34249406928e-07
9.88813133512e-07
3.80042438355e-07
8.61674179553e-07
4.29889144272e-07
6.89364154399e-07
4.75334432463e-07
4.91452225926e-07
5.36562830628e-07
3.21496954341e-07
4.3171501623e-07
2.19021943435e-07
2.80271345861e-07
1.58274234482e-07
1.89467371978e-07
1.04490993854e-07
1.57709654583e-07
5.39274204345e-08
1.48354389885e-07
5.8874753833e-09
1.47033193145e-07
-4.06030035025e-08
1.45002426439e-07
-8.3826130333e-08
1.31422905594e-07
-1.22321593887e-07
1.06434839542e-07
-1.52196235802e-07
7.60543942402e-08
-1.66073027529e-07
3.95726186594e-08
-1.65449159916e-07
4.32122565551e-09
-1.54994425282e-07
-2.21654232716e-08
-1.36830580982e-07
-4.31004418845e-08
-1.10820421398e-07
-7.13399217353e-08
-5.16541623323e-08
-1.26950639003e-07
-1.51772388573e-07
3.45603313282e-08
-1.97968708831e-07
4.10597875532e-08
-1.475846586e-07
1.23802238256e-07
-2.634163174e-07
1.8674140581e-07
-2.55555264761e-07
1.75962301422e-07
-1.7707670772e-07
1.38163972641e-07
-7.76026356373e-08
1.96555392775e-07
-1.20679468422e-07
3.09509449262e-07
-2.05525599029e-07
3.91181245737e-07
-2.00184894009e-07
4.45588588949e-07
-1.75742050916e-07
4.92412013177e-07
-1.62351177619e-07
5.30266343597e-07
-1.44714001697e-07
5.50497906372e-07
-1.16974008844e-07
5.29276133469e-07
-6.90039339176e-08
4.80947556957e-07
-2.66876541148e-08
4.59697798998e-07
-1.86125647714e-08
4.8334055723e-07
-3.75613426998e-08
5.50033891425e-07
-8.93366530762e-08
6.51712146685e-07
-1.54221460046e-07
7.28267091671e-07
-1.8920717536e-07
7.65703634504e-07
-1.92484587491e-07
8.07428778377e-07
-1.92183538057e-07
8.55959894826e-07
-1.85961457926e-07
8.97362711515e-07
-1.76089853823e-07
9.34121282133e-07
-1.65414259442e-07
9.67370107868e-07
-1.53652392763e-07
1.00079415348e-06
-1.44098315879e-07
1.03105338303e-06
-1.31749263452e-07
1.06093527208e-06
-1.21704328359e-07
1.08336101234e-06
-1.08482234515e-07
1.10767152094e-06
-1.01194515178e-07
1.11962349704e-06
-8.33890443775e-08
1.1169107373e-06
-6.47621026592e-08
1.1542377819e-06
-9.00295306163e-08
1.18507359358e-06
-1.04874713351e-07
1.21473950004e-06
-1.3226870096e-07
1.30324012144e-06
-1.78859885655e-07
1.39366122202e-06
-1.95787120429e-07
1.43948602056e-06
-1.98340834906e-07
1.47016781103e-06
-1.84379057086e-07
1.51367929151e-06
-1.49499965872e-07
1.56329070343e-06
-1.16834388358e-07
1.6010273963e-06
-1.03022403204e-07
1.62828391921e-06
-9.70653010995e-08
1.64919630477e-06
-8.87910926094e-08
1.66472310773e-06
-7.57666473517e-08
1.67594866212e-06
-5.73781941548e-08
1.68248155514e-06
-3.4100740599e-08
1.68383463364e-06
-5.74506176695e-09
1.6805677829e-06
2.79106849769e-08
1.66977768204e-06
6.45346228559e-08
1.64256750767e-06
1.02226953092e-07
1.59240521185e-06
1.45028025311e-07
1.54196879773e-06
1.99125219652e-07
1.48800834705e-06
2.48181155152e-07
1.41516858368e-06
2.93493632513e-07
1.32370763698e-06
3.49536186506e-07
1.21071533239e-06
4.10095871373e-07
1.07798665141e-06
4.68854937778e-07
9.34469962447e-07
5.25608456094e-07
7.87761483072e-07
5.78794753607e-07
6.34832951482e-07
6.30541459445e-07
5.04797151123e-07
6.68669433964e-07
3.48108687774e-07
5.89931733444e-07
2.26856152037e-07
4.02579387921e-07
1.48278515486e-07
2.68801257812e-07
8.86939614876e-08
2.17966879175e-07
3.59183487832e-08
2.01830580826e-07
-1.36438458218e-08
1.97383697497e-07
-6.40753929038e-08
1.96339257482e-07
-1.1547844066e-07
1.8385924258e-07
-1.56282557857e-07
1.48334834095e-07
-1.73562045992e-07
9.43976327237e-08
-1.75381145552e-07
4.24156346208e-08
-1.71384745162e-07
1.38850920052e-09
-1.55117006219e-07
-3.73014983114e-08
-1.21676560257e-07
-7.554168577e-08
-8.71044905894e-08
-1.04980478249e-07
-4.64778332646e-08
-1.66770601833e-07
-1.97523325253e-07
2.31808995708e-09
-2.0030442278e-07
3.79897909245e-08
-1.83282937505e-07
1.06024495946e-07
-3.31482368413e-07
1.40090272343e-07
-2.89638854246e-07
1.16132712477e-07
-1.53128158999e-07
1.44819937125e-07
-1.06297633927e-07
2.36081284967e-07
-2.11950075143e-07
3.11506669976e-07
-2.80952308062e-07
3.67459089728e-07
-2.56125069334e-07
4.21458543177e-07
-2.29721178604e-07
4.71958803724e-07
-2.12817613817e-07
4.84953754942e-07
-1.57670806282e-07
4.51690535054e-07
-8.3665522691e-08
4.2534177826e-07
-4.2599657023e-08
4.41308992356e-07
-4.2579977542e-08
4.90838452836e-07
-6.80500317678e-08
5.71596592421e-07
-1.18200124074e-07
6.56183981125e-07
-1.73778654806e-07
7.00154441522e-07
-1.98032350106e-07
7.21573412002e-07
-2.10459310343e-07
7.61222607477e-07
-2.3195289502e-07
8.07611736986e-07
-2.38377694245e-07
8.50035177222e-07
-2.28185108546e-07
8.86990957615e-07
-2.12845081191e-07
9.20998445209e-07
-1.99208183666e-07
9.5564670041e-07
-1.88085124714e-07
9.83364071169e-07
-1.71573319242e-07
1.01383818709e-06
-1.61979874579e-07
1.03608595391e-06
-1.43695457115e-07
1.06034624516e-06
-1.32478653877e-07
1.06962328661e-06
-1.10200767702e-07
1.08913251984e-06
-1.02593898139e-07
1.13594895794e-06
-1.11218998072e-07
1.15316376984e-06
-1.06807283662e-07
1.1995711045e-06
-1.5078044825e-07
1.28403754055e-06
-2.16170661765e-07
1.34947062661e-06
-2.43700266386e-07
1.40049256539e-06
-2.46205725133e-07
1.43954013405e-06
-2.36763262971e-07
1.4742911592e-06
-2.18479875165e-07
1.51573261915e-06
-1.90260771708e-07
1.56086179399e-06
-1.61264753392e-07
1.59964164685e-06
-1.41086209589e-07
1.63003908878e-06
-1.26736708945e-07
1.65398806276e-06
-1.11996284696e-07
1.67275009377e-06
-9.37678018337e-08
1.68693198428e-06
-7.07729363623e-08
1.69616758492e-06
-4.25258308046e-08
1.69955924587e-06
-8.29807818122e-09
1.69586555346e-06
3.24640153589e-08
1.68204389566e-06
7.92450467175e-08
1.65364490642e-06
1.31549326951e-07
1.60987686772e-06
1.89767618726e-07
1.55760358176e-06
2.52435210648e-07
1.49316287974e-06
3.13759515947e-07
1.40894540063e-06
3.78996037888e-07
1.30340449414e-06
4.56541050439e-07
1.17456237778e-06
5.40579498074e-07
1.02614858742e-06
6.19067458155e-07
8.71008441275e-07
6.82682752022e-07
7.21761120575e-07
7.30064931699e-07
5.94335175612e-07
7.59970334632e-07
5.12119019989e-07
7.52638781322e-07
3.52984778139e-07
7.50652045273e-07
2.39338312177e-07
5.1732092875e-07
1.52739352516e-07
3.5619380911e-07
7.86998739082e-08
2.9269755226e-07
1.57296875211e-08
2.65489329803e-07
-4.02043206401e-08
2.54077289795e-07
-9.75850401545e-08
2.54633168154e-07
-1.51760368626e-07
2.3907978979e-07
-1.79931538675e-07
1.77551321223e-07
-1.88723121354e-07
1.0415631921e-07
-1.93755141677e-07
4.84379446697e-08
-1.88297718504e-07
-2.98192712904e-09
-1.64047323907e-07
-6.04830614844e-08
-1.32248006658e-07
-1.06484432151e-07
-9.46456893804e-08
-1.41907345356e-07
-4.53961487395e-08
-2.14804809488e-07
-2.42613100881e-07
7.76322220772e-11
-2.00410364327e-07
5.28305402743e-08
-2.36061431839e-07
8.48924457979e-08
-3.63574481476e-07
9.71101101176e-08
-3.01879299791e-07
8.72545253329e-08
-1.43282261997e-07
1.69136304937e-07
-1.88193699076e-07
2.65980590911e-07
-3.08809968431e-07
3.06333350531e-07
-3.21310547195e-07
3.47985284707e-07
-2.97780732665e-07
3.83771129546e-07
-2.65484847197e-07
3.89720587489e-07
-2.18744831265e-07
3.50060190897e-07
-1.17982087997e-07
3.40763775197e-07
-7.4334221758e-08
3.71877323227e-07
-7.3661705533e-08
4.2974209314e-07
-1.0037264495e-07
5.21068769809e-07
-1.59273429964e-07
6.12827427559e-07
-2.09832713944e-07
6.50738921141e-07
-2.11553572573e-07
6.67130960365e-07
-2.14280794668e-07
7.12698836997e-07
-2.55866940096e-07
7.61227084066e-07
-2.80306270074e-07
7.99779581127e-07
-2.76752160403e-07
8.3653983212e-07
-2.64762217389e-07
8.74700318714e-07
-2.50813474795e-07
9.09692845339e-07
-2.34010291214e-07
9.27831802548e-07
-2.0601539172e-07
9.58112562994e-07
-2.01643793448e-07
9.79253579835e-07
-1.82892979823e-07
1.00315396021e-06
-1.67352883224e-07
1.00536094553e-06
-1.34440315256e-07
1.01683055322e-06
-1.21409745058e-07
1.04208544873e-06
-1.27531645122e-07
1.06501230221e-06
-1.33770831565e-07
1.14603345836e-06
-1.87370304187e-07
1.24099475344e-06
-2.45197087265e-07
1.30893608827e-06
-2.83543928218e-07
1.35824390063e-06
-2.92433755957e-07
1.39940929502e-06
-2.86785424904e-07
1.43738685048e-06
-2.74135050844e-07
1.47547735613e-06
-2.55933034518e-07
1.51696888486e-06
-2.31081804567e-07
1.56021886224e-06
-2.03817911981e-07
1.5996975955e-06
-1.79852811096e-07
1.63287873901e-06
-1.59192627102e-07
1.66021430776e-06
-1.38592338202e-07
1.6825226789e-06
-1.15316726864e-07
1.70010415506e-06
-8.75724595049e-08
1.71228712892e-06
-5.39001877672e-08
1.71768455295e-06
-1.28604228658e-08
1.71444598036e-06
3.65670435829e-08
1.70004280784e-06
9.45406473503e-08
1.67202718974e-06
1.60495359394e-07
1.62981320804e-06
2.32960010045e-07
1.57384849107e-06
3.09441166238e-07
1.49963136613e-06
3.89122744161e-07
1.40204717653e-06
4.77868042995e-07
1.28063098492e-06
5.79411678692e-07
1.13779533042e-06
6.850235997e-07
9.79356850193e-07
7.79250786537e-07
8.19536011623e-07
8.44332402682e-07
6.77048791404e-07
8.74431274261e-07
5.61683023348e-07
8.77060465779e-07
4.78405110609e-07
8.37581232785e-07
3.56055489776e-07
8.74542831619e-07
2.3119587104e-07
6.43261820194e-07
1.47675485695e-07
4.40494342974e-07
6.65610588792e-08
3.74510282927e-07
-8.52797873569e-09
3.41287926278e-07
-7.67630555144e-08
3.23095690262e-07
-1.40721662602e-07
3.1950722622e-07
-1.83009765886e-07
2.82378253497e-07
-1.99695331012e-07
1.95167044945e-07
-2.15082836071e-07
1.20480708154e-07
-2.24479285228e-07
5.8851897087e-08
-2.16780634736e-07
-9.61248566173e-09
-1.8976940774e-07
-8.64998061257e-08
-1.52650076884e-07
-1.42790505617e-07
-1.09519295451e-07
-1.84118213072e-07
-5.70042666983e-08
-2.66765156811e-07
-2.98886881633e-07
1.8226910043e-08
-2.18654854899e-07
8.58003027281e-08
-3.03663782239e-07
1.11687858143e-07
-3.89490423525e-07
8.44558025388e-08
-2.74669625059e-07
1.0840459015e-07
-1.67249363301e-07
2.11544234094e-07
-2.91357375868e-07
2.65373974345e-07
-3.62659164384e-07
2.95751857916e-07
-3.51708878507e-07
3.15706165958e-07
-3.17728164516e-07
3.49188232774e-07
-2.98967078569e-07
3.26064014536e-07
-1.9560155567e-07
3.06177541199e-07
-9.80785682996e-08
3.33204561314e-07
-1.01327773596e-07
3.76374884572e-07
-1.16778486327e-07
4.57794587849e-07
-1.81716488745e-07
5.53166708223e-07
-2.54549397898e-07
5.89023596354e-07
-2.45580816125e-07
6.00166618963e-07
-2.22579573636e-07
6.52045544099e-07
-2.6602177133e-07
7.08955272994e-07
-3.12621322046e-07
7.50949691845e-07
-3.22143366212e-07
7.88327267606e-07
-3.13962469908e-07
8.24971113869e-07
-3.01231084832e-07
8.52877482149e-07
-2.78555304585e-07
8.71814316137e-07
-2.52765915356e-07
8.94217682952e-07
-2.28238003584e-07
9.09462259005e-07
-2.16682672868e-07
9.34069644334e-07
-2.07287261606e-07
9.44125268007e-07
-1.77189396321e-07
9.45909432571e-07
-1.36002868397e-07
9.77659036868e-07
-1.52877581498e-07
1.01736373881e-06
-1.66917385166e-07
1.07993862959e-06
-1.95944504025e-07
1.16363919612e-06
-2.70584743678e-07
1.25537535659e-06
-3.36399608626e-07
1.31292551704e-06
-3.40549770346e-07
1.35521295098e-06
-3.34169008976e-07
1.394648812e-06
-3.25651790428e-07
1.43453601545e-06
-3.13425568124e-07
1.47522424407e-06
-2.95991937547e-07
1.51757389272e-06
-2.7277126371e-07
1.56060328863e-06
-2.46161794996e-07
1.60108415653e-06
-2.196292277e-07
1.63688318357e-06
-1.94270690382e-07
1.66774145406e-06
-1.68711981858e-07
1.6939602934e-06
-1.40775763751e-07
1.71536502865e-06
-1.08193022072e-07
1.73090478643e-06
-6.86288394738e-08
1.73890249008e-06
-2.00165737813e-08
1.73736289573e-06
3.89782872836e-08
1.72406763664e-06
1.08744110526e-07
1.69690963265e-06
1.8859636019e-07
1.65408761582e-06
2.7676403557e-07
1.59295991769e-06
3.71627861458e-07
1.50876517314e-06
4.74475744974e-07
1.39826979992e-06
5.89669125221e-07
1.26285058849e-06
7.16271711599e-07
1.10750999469e-06
8.41939617837e-07
9.42492376348e-07
9.45949464552e-07
7.87204314384e-07
1.00143737335e-06
6.73355003917e-07
9.90069911877e-07
6.01770907915e-07
9.50427813074e-07
5.01190656509e-07
9.39813766099e-07
4.14181778553e-07
9.63085419871e-07
2.35936418223e-07
8.22636177652e-07
1.34349561514e-07
5.42866792991e-07
4.61399529821e-08
4.63462351674e-07
-4.18593637898e-08
4.30049496456e-07
-1.20959722108e-07
4.03005714749e-07
-1.78578216685e-07
3.7803013216e-07
-2.06720039075e-07
3.1139743508e-07
-2.30305656183e-07
2.19647218722e-07
-2.56253683515e-07
1.47368992966e-07
-2.68139700926e-07
7.17593189575e-08
-2.57683765916e-07
-1.90056608943e-08
-2.31649930194e-07
-1.11573476006e-07
-1.87869861266e-07
-1.8571717567e-07
-1.32696961042e-07
-2.38662780145e-07
-7.38510658712e-08
-3.24225922979e-07
-3.72512030687e-07
3.60160139085e-08
-2.54707787994e-07
9.9911631126e-08
-3.67594758099e-07
1.04408762835e-07
-3.94023693315e-07
5.82370776356e-08
-2.28518235883e-07
1.27299519501e-07
-2.36336351146e-07
2.17664224834e-07
-3.81752584603e-07
2.50022389275e-07
-3.9504728085e-07
2.82913135471e-07
-3.8460859726e-07
2.73705143212e-07
-3.08536571333e-07
2.78956786843e-07
-3.04214491204e-07
2.52032674471e-07
-1.68676155727e-07
2.90984198645e-07
-1.37013222057e-07
3.27232381738e-07
-1.37545847501e-07
3.91602475782e-07
-1.8110394948e-07
4.82172844715e-07
-2.72215439546e-07
5.27136199046e-07
-2.99431539759e-07
5.34896877983e-07
-2.53256184552e-07
5.84624603486e-07
-2.72201362453e-07
6.48873677874e-07
-3.30138305358e-07
6.94180641001e-07
-3.57787296133e-07
7.30879903415e-07
-3.58692478004e-07
7.66378282036e-07
-3.4930463465e-07
8.0636005551e-07
-3.41071705162e-07
8.42559884939e-07
-3.14592126077e-07
8.52594610905e-07
-2.62648135951e-07
8.80152271726e-07
-2.55625830422e-07
8.92593167153e-07
-2.28939769652e-07
8.90789642313e-07
-2.05285248735e-07
8.97373642668e-07
-1.83571174684e-07
9.62668866251e-07
-2.01062852806e-07
9.996966902e-07
-1.89626867901e-07
1.01773576642e-06
-1.846072713e-07
1.09996657342e-06
-2.77755456716e-07
1.20258176819e-06
-3.7271002086e-07
1.25871683696e-06
-3.92027529247e-07
1.30447316457e-06
-3.85788606894e-07
1.34680700038e-06
-3.75968279308e-07
1.38830612396e-06
-3.66595060711e-07
1.43058328126e-06
-3.55117996519e-07
1.47366599104e-06
-3.3845833732e-07
1.51741697116e-06
-3.1587367719e-07
1.56117924646e-06
-2.89249720905e-07
1.60320714413e-06
-2.60960550727e-07
1.6418384715e-06
-2.32186863675e-07
1.67645453563e-06
-2.02591361589e-07
1.70691285043e-06
-1.70474640816e-07
1.73259098317e-06
-1.33083567661e-07
1.75210921102e-06
-8.73282004123e-08
1.76365327056e-06
-3.07089042091e-08
1.76521091331e-06
3.83122597099e-08
1.75450763102e-06
1.203738041e-07
1.72892517426e-06
2.15143932376e-07
1.68514593913e-06
3.21562744483e-07
1.61868238896e-06
4.39164948947e-07
1.5250087696e-06
5.69353690705e-07
1.40299622204e-06
7.12992710128e-07
1.25627391206e-06
8.64431353107e-07
1.09044691881e-06
1.00933495132e-06
9.14551362389e-07
1.12358588334e-06
7.59985708679e-07
1.15781111032e-06
6.67749900949e-07
1.08419568993e-06
6.07287715489e-07
1.01257663374e-06
5.48110552601e-07
1.00060515244e-06
5.01378778648e-07
1.01128659281e-06
3.32849166742e-07
9.92443844063e-07
1.35419580351e-07
7.41202340077e-07
1.83005194123e-08
5.81353493922e-07
-7.9404175315e-08
5.28551314313e-07
-1.58288729188e-07
4.82713673693e-07
-2.06129556976e-07
4.26683308261e-07
-2.36786411109e-07
3.4291887729e-07
-2.75647640848e-07
2.59362742662e-07
-3.10259888198e-07
1.82956341463e-07
-3.25479954948e-07
8.80496826871e-08
-3.16959279859e-07
-2.64952964181e-08
-2.91058708917e-07
-1.36512987719e-07
-2.42381057689e-07
-2.33508110851e-07
-1.67780898763e-07
-3.12150819902e-07
-9.12291316791e-08
-4.00368607139e-07
-4.62841809091e-07
4.97401246963e-08
-3.04475867388e-07
9.88427925798e-08
-4.16739247983e-07
7.92886372312e-08
-3.74504539483e-07
7.84439255453e-08
-2.27699993999e-07
1.64869173743e-07
-3.22794086095e-07
2.00812101684e-07
-4.17733248558e-07
2.30163480784e-07
-4.24419762819e-07
2.57914621488e-07
-4.1238160951e-07
2.56455102583e-07
-3.0708640961e-07
2.58802726997e-07
-3.06574096847e-07
2.59477855554e-07
-1.69351440558e-07
2.91635757219e-07
-1.69167248504e-07
3.3427948373e-07
-1.80163013084e-07
4.12773576091e-07
-2.59552667241e-07
4.92535338663e-07
-3.51934927615e-07
5.06653764772e-07
-3.13489169341e-07
5.2593676336e-07
-2.72463855712e-07
5.80130294046e-07
-3.26292026952e-07
6.3461539938e-07
-3.84502775601e-07
6.75682322789e-07
-3.98721146647e-07
7.10000029377e-07
-3.92869269065e-07
7.36756554338e-07
-3.75945759494e-07
7.60434681422e-07
-3.64614040848e-07
7.83650894616e-07
-3.37693275767e-07
8.00603145775e-07
-2.79471735847e-07
8.2083938613e-07
-2.75703772956e-07
8.52101613167e-07
-2.60047982576e-07
8.89084889556e-07
-2.42071583847e-07
9.25749868736e-07
-2.20047347239e-07
9.50728545083e-07
-2.25814580734e-07
9.90827753541e-07
-2.29435465907e-07
1.08027410432e-06
-2.73666682432e-07
1.15517971557e-06
-3.52209356904e-07
1.20657041028e-06
-4.23628017528e-07
1.25047817794e-06
-4.35459083112e-07
1.29347808391e-06
-4.28295982151e-07
1.33700432459e-06
-4.18979149275e-07
1.38060376083e-06
-4.09650437457e-07
1.42488613996e-06
-3.98826318363e-07
1.47014097645e-06
-3.83106857938e-07
1.51591756001e-06
-3.61016111444e-07
1.56139233261e-06
-3.34063563633e-07
1.60554864345e-06
-3.04433335173e-07
1.64737001174e-06
-2.7329952719e-07
1.68608913296e-06
-2.4057753475e-07
1.72110071468e-06
-2.0472219786e-07
1.75150041934e-06
-1.62685745754e-07
1.77580913277e-06
-1.10803552805e-07
1.79217302446e-06
-4.61953107486e-08
1.79851623055e-06
3.28844086488e-08
1.79229868599e-06
1.27553167563e-07
1.7699838303e-06
2.38456602744e-07
1.72655295377e-06
3.66013687738e-07
1.65600827979e-06
5.10850977777e-07
1.55389905219e-06
6.72667539554e-07
1.4209603045e-06
8.47241822817e-07
1.26200470197e-06
1.02482344199e-06
1.08059304442e-06
1.19234242588e-06
8.86389312667e-07
1.31957731022e-06
7.38887141573e-07
1.30738152947e-06
6.79099346208e-07
1.14580333049e-06
6.36009211968e-07
1.05733546084e-06
5.84492805889e-07
1.05359408165e-06
5.27646338251e-07
1.06951559597e-06
4.47353305253e-07
1.07401054184e-06
2.1442075972e-07
9.75211906519e-07
-1.52369869891e-08
8.11960409729e-07
-1.2094171824e-07
6.35052647934e-07
-1.9275151365e-07
5.55322040022e-07
-2.37131749039e-07
4.7190705853e-07
-2.80022817168e-07
3.86565449002e-07
-3.32853834171e-07
3.13116785785e-07
-3.75747831876e-07
2.26846895208e-07
-3.96078652134e-07
1.09395469864e-07
-3.92920209992e-07
-2.86242525252e-08
-3.66894278488e-07
-1.61559957161e-07
-3.11815037524e-07
-2.8765073322e-07
-2.18618440132e-07
-4.04736402195e-07
-1.11326547174e-07
-5.06025115191e-07
-5.74061078276e-07
6.10825993607e-08
-3.65617009185e-07
1.03373713407e-07
-4.59090452938e-07
7.10390767265e-08
-3.42208889032e-07
9.84094115939e-08
-2.55102334539e-07
1.7508005839e-07
-3.99509476132e-07
1.79274521242e-07
-4.2195935313e-07
2.05720661176e-07
-4.50899182119e-07
2.07177067332e-07
-4.13863970456e-07
2.29106255553e-07
-3.29028769702e-07
2.14172661661e-07
-2.91657955697e-07
2.46372735692e-07
-2.01563546227e-07
2.8730367399e-07
-2.10086864484e-07
3.35791812348e-07
-2.28638420845e-07
4.09929629555e-07
-3.33672214938e-07
4.51349131372e-07
-3.93316661578e-07
4.51427796095e-07
-3.13531969533e-07
4.99491528717e-07
-3.20465239143e-07
5.60562177528e-07
-3.87273289504e-07
6.10286687471e-07
-4.34120574683e-07
6.53620898725e-07
-4.41938513417e-07
6.90912863593e-07
-4.30065931823e-07
7.24672718678e-07
-4.09579288927e-07
7.39727903755e-07
-3.79575387955e-07
7.51727629129e-07
-3.49590957457e-07
7.88396588541e-07
-3.16014843972e-07
7.98940167535e-07
-2.86128253488e-07
7.99699869521e-07
-2.60652170699e-07
8.07654960856e-07
-2.49875310415e-07
8.59504555082e-07
-2.71701845019e-07
9.23924945272e-07
-2.89998393371e-07
9.88462947681e-07
-2.93671679265e-07
1.05302446161e-06
-3.3784808493e-07
1.14498902279e-06
-4.43721648219e-07
1.1973589739e-06
-4.75555341344e-07
1.23853041908e-06
-4.76183217315e-07
1.28154392459e-06
-4.70839430844e-07
1.32636909245e-06
-4.63302748031e-07
1.37169371484e-06
-4.5444443301e-07
1.41760262246e-06
-4.44174095875e-07
1.46468465034e-06
-4.29600072294e-07
1.51262037345e-06
-4.08334009254e-07
1.5604801774e-06
-3.81280185852e-07
1.60742434492e-06
-3.50706656974e-07
1.65280574763e-06
-3.1798416053e-07
1.69599088154e-06
-2.83031974968e-07
1.73608503085e-06
-2.440490617e-07
1.77181816497e-06
-1.97611723468e-07
1.80176196791e-06
-1.39892204735e-07
1.82436433467e-06
-6.79038750184e-08
1.83765025826e-06
2.05513341549e-08
1.83869155456e-06
1.27492740564e-07
1.82284085626e-06
2.55317165272e-07
1.78300393158e-06
4.06978795042e-07
1.71072050667e-06
5.84259970853e-07
1.600673512e-06
7.83906545846e-07
1.45477409419e-06
9.9443975628e-07
1.27728310102e-06
1.20373939425e-06
1.06322003316e-06
1.40816235706e-06
8.47252416619e-07
1.5377594059e-06
7.52195712709e-07
1.40461912792e-06
7.35708991508e-07
1.16422025456e-06
6.90131907684e-07
1.1044241344e-06
6.17619744751e-07
1.12748310691e-06
5.38682535967e-07
1.14974369936e-06
4.71745447926e-07
1.14222065135e-06
3.25023365242e-07
1.12323983984e-06
6.39625711463e-08
1.07416175321e-06
-1.52172495537e-07
8.52116526221e-07
-2.2389385101e-07
6.27882642914e-07
-2.74235983671e-07
5.22899170926e-07
-3.31168765831e-07
4.44426887491e-07
-3.96045354487e-07
3.7881799632e-07
-4.5079603232e-07
2.82527582525e-07
-4.82104559056e-07
1.4170308546e-07
-4.84824300471e-07
-2.49781681133e-08
-4.57632860685e-07
-1.87805824555e-07
-3.92275120394e-07
-3.52090794302e-07
-2.82160323215e-07
-5.13605542697e-07
-1.4390376797e-07
-6.44104502706e-07
-7.16987016696e-07