/*--------------------------------*- C++ -*----------------------------------*\
| =========                 |                                                 |
| \\      /  F ield         | OpenFOAM: The Open Source CFD Toolbox           |
|  \\    /   O peration     | Version:  v1806                                 |
|   \\  /    A nd           | Web:      www.OpenFOAM.com                      |
|    \\/     M anipulation  |                                                 |
\*---------------------------------------------------------------------------*/
FoamFile
{
    version     2.0;
    format      ascii;
    class       surfaceScalarField;
    location    "628";
    object      phi;
}
// * * * * * * * * * * * * * * * * * * * * * * * * * * * * * * * * * * * * * //

dimensions      [0 3 -1 0 0 0 0];
oriented        oriented;


internalField   nonuniform List<scalar> 
12640
(
-2.36290276685e-07
2.36866754313e-07
-4.46616391937e-07
2.10780391697e-07
-6.26392984372e-07
1.8011144052e-07
-7.75091147075e-07
1.48963865673e-07
-8.83839423326e-07
1.08987277377e-07
-9.52012459397e-07
6.84117970546e-08
-9.99963705144e-07
4.81722746498e-08
-1.07141878994e-06
7.16540481285e-08
-1.16765531665e-06
9.64159934276e-08
-1.25729173463e-06
8.97917805253e-08
-1.33875044338e-06
8.15868947723e-08
-1.42170939958e-06
8.30738548128e-08
-1.4948025407e-06
7.31973982999e-08
-1.55381665842e-06
5.91114451364e-08
-1.60672628866e-06
5.30005486293e-08
-1.66656578145e-06
5.99295656237e-08
-1.72785459487e-06
6.13730974869e-08
-1.77845885034e-06
5.06842400026e-08
-1.81702539416e-06
3.86349221353e-08
-1.85222473764e-06
3.5261308994e-08
-1.89984923604e-06
4.76810318409e-08
-1.96052250336e-06
6.0728295147e-08
-2.02267958636e-06
6.22076741591e-08
-2.08063872803e-06
5.80080177571e-08
-2.132678645e-06
5.20842877864e-08
-2.17902053312e-06
4.63853714778e-08
-2.22182342094e-06
4.28429157614e-08
-2.26006589662e-06
3.82824175409e-08
-2.29272922517e-06
3.26996718053e-08
-2.3210148044e-06
2.8321789313e-08
-2.34776066112e-06
2.67781795448e-08
-2.37193813694e-06
2.42102221565e-08
-2.3917262465e-06
1.9818886451e-08
-2.41114807913e-06
1.94520100244e-08
-2.43048755441e-06
1.93650896934e-08
-2.4485379523e-06
1.80763295437e-08
-2.4669259308e-06
1.84093856067e-08
-2.48370818692e-06
1.68015711517e-08
-2.4963334706e-06
1.26406335298e-08
-2.50557544789e-06
9.25792452396e-09
-2.5156839834e-06
1.01215961494e-08
-2.52279781477e-06
7.12702968977e-09
-2.51926242101e-06
-3.5256332103e-09
-2.50800592613e-06
-1.1247554924e-08
-2.49246545331e-06
-1.55353416124e-08
-2.47190165486e-06
-2.05589889243e-08
-2.44565228219e-06
-2.62482799082e-08
-2.41237020814e-06
-3.32813966902e-08
-2.37191843971e-06
-4.04547643444e-08
-2.32821710716e-06
-4.37045830254e-08
-2.28572171223e-06
-4.25034812413e-08
-2.23774778778e-06
-4.79821493428e-08
-2.16970056101e-06
-6.80585087647e-08
-2.08517595275e-06
-8.45368572159e-08
-1.98527146294e-06
-9.99209726922e-08
-1.86477864438e-06
-1.20510789388e-07
-1.73896295763e-06
-1.25843782128e-07
-1.61201084985e-06
-1.26989212269e-07
-1.46565877549e-06
-1.46402899669e-07
-1.29827791822e-06
-1.67449160088e-07
-1.11917998537e-06
-1.7918673114e-07
-9.05030181504e-07
-2.14255895128e-07
-5.94378492833e-07
-3.10766216913e-07
-2.85680631705e-07
-3.08776810641e-07
-7.90536769999e-08
-2.06677079434e-07
5.59750642281e-08
-1.35060189522e-07
1.59572208591e-07
-1.03627693499e-07
2.49772795197e-07
-9.02332064024e-08
3.2758799741e-07
-7.78534428585e-08
3.88368805598e-07
-6.08209473341e-08
4.25416074248e-07
-3.70894429919e-08
4.34992182572e-07
-9.61769197435e-09
4.18119480184e-07
1.68350311189e-08
3.73247147197e-07
4.48361198136e-08
3.19084397741e-07
5.41302762056e-08
2.6088727323e-07
5.81620688029e-08
2.14286353253e-07
4.65649880025e-08
1.53994416526e-07
6.02550091185e-08
9.46699732569e-08
5.92834609814e-08
9.46322435967e-08
-1.23959167491e-07
3.61101709168e-07
-2.87148724226e-07
3.74287304932e-07
-4.42946532212e-07
3.36162262945e-07
-6.01565964062e-07
3.07793350109e-07
-7.95135396625e-07
3.02781987184e-07
-9.39693793376e-07
2.1319237463e-07
-1.02196821684e-06
1.30670618768e-07
-1.09904346687e-06
1.48932675703e-07
-1.18341234688e-06
1.80967079043e-07
-1.27392167941e-06
1.80452018703e-07
-1.35931017223e-06
1.67110141352e-07
-1.43011925303e-06
1.53996062184e-07
-1.49300292649e-06
1.36190643558e-07
-1.55175329689e-06
1.17963410248e-07
-1.60767781489e-06
1.09029876405e-07
-1.66938841813e-06
1.21733426737e-07
-1.72610602014e-06
1.1817949097e-07
-1.75717132442e-06
8.18192849519e-08
-1.78351871984e-06
6.50481625748e-08
-1.82609634447e-06
7.78946912955e-08
-1.88552543105e-06
1.07169214403e-07
-1.95808562748e-06
1.33340169858e-07
-2.0268413121e-06
1.3101869085e-07
-2.08117071675e-06
1.12383423789e-07
-2.13025865381e-06
1.01221230936e-07
-2.17990735672e-06
9.60746922935e-08
-2.22340360032e-06
8.63839640083e-08
-2.26008209832e-06
7.49976235501e-08
-2.29251607483e-06
6.51746515905e-08
-2.32140571687e-06
5.72444495e-08
-2.3463274909e-06
5.17376515973e-08
-2.36792615488e-06
4.5839845589e-08
-2.3852914689e-06
3.72186479002e-08
-2.40311820962e-06
3.73057888731e-08
-2.42553954875e-06
4.18177129076e-08
-2.4445309832e-06
3.70890884658e-08
-2.4615504418e-06
3.5453222797e-08
-2.48196722237e-06
3.72344682529e-08
-2.502669725e-06
3.33632946371e-08
-2.51518135711e-06
2.17824445324e-08
-2.50431135629e-06
-7.30340817217e-10
-2.47992731086e-06
-1.7246541597e-08
-2.46522951633e-06
-1.82095717597e-08
-2.45768250452e-06
-1.87887770099e-08
-2.44901880966e-06
-2.41899987228e-08
-2.43742852158e-06
-3.21476559954e-08
-2.42037261979e-06
-4.32991633614e-08
-2.39760342381e-06
-5.60526239999e-08
-2.36770723728e-06
-7.03500400046e-08
-2.32380187901e-06
-8.76158769356e-08
-2.26062179118e-06
-1.05686796431e-07
-2.19150323336e-06
-1.17110497762e-07
-2.13947198853e-06
-1.20098207978e-07
-2.0778646297e-06
-1.46159441769e-07
-1.98847600369e-06
-1.89324668654e-07
-1.8929293464e-06
-2.16082176093e-07
-1.78580730938e-06
-2.32993862583e-07
-1.65646237955e-06
-2.5637652079e-07
-1.51238746233e-06
-2.90531600597e-07
-1.34481190044e-06
-3.35098626222e-07
-1.1252098897e-06
-3.98868140552e-07
-8.74428225414e-07
-4.65132740533e-07
-5.80169881992e-07
-6.05124616633e-07
-2.95241239507e-07
-5.93786390114e-07
-8.60398313407e-08
-4.15919471843e-07
5.63590402339e-08
-2.77491399388e-07
1.66456471878e-07
-2.13752531825e-07
2.63079974024e-07
-1.86890505484e-07
3.4446774641e-07
-1.59277116633e-07
4.04603834762e-07
-1.20999981793e-07
4.34552826345e-07
-6.70818936541e-08
4.33793266029e-07
-8.89934607283e-09
4.17516341096e-07
3.30727118921e-08
3.95564689701e-07
6.6747352002e-08
3.57191403411e-07
9.24632608651e-08
3.10244136066e-07
1.05069883043e-07
2.50380878863e-07
1.06387389419e-07
1.88815246878e-07
1.2177863351e-07
1.008630828e-07
1.47180932168e-07
1.95469871077e-07
-1.59722302398e-07
5.21117695828e-07
-2.42320993153e-07
4.57145329961e-07
-4.2948242369e-07
5.23573478627e-07
-6.42072254819e-07
5.20625978542e-07
-8.34554961912e-07
4.95488303496e-07
-9.34611869273e-07
3.13430512229e-07
-9.84546546322e-07
1.80781967963e-07
-1.06986889991e-06
2.34441545188e-07
-1.16898383376e-06
2.80250528323e-07
-1.26526900283e-06
2.76884467375e-07
-1.35387381555e-06
2.55841512237e-07
-1.42841162562e-06
2.28653902367e-07
-1.4918649832e-06
1.99760781059e-07
-1.55211089695e-06
1.78323562009e-07
-1.59840588559e-06
1.55430670187e-07
-1.58870721351e-06
1.12127246899e-07
-1.54772466612e-06
7.72671520596e-08
-1.55530277295e-06
8.94581434411e-08
-1.62872452926e-06
1.38525077132e-07
-1.75747104795e-06
2.06698339181e-07
-1.88542801053e-06
2.35183736948e-07
-1.96412033566e-06
2.1209029848e-07
-2.02043657816e-06
1.87386729151e-07
-2.07985649536e-06
1.71853976398e-07
-2.1350971946e-06
1.56507558784e-07
-2.18061797666e-06
1.4164052821e-07
-2.22079484558e-06
1.26601465023e-07
-2.25747163054e-06
1.11715393515e-07
-2.28981604137e-06
9.75562162056e-08
-2.31877225671e-06
8.62387339199e-08
-2.34201361612e-06
7.50137499582e-08
-2.36217605754e-06
6.60364131135e-08
-2.38254086275e-06
5.76156375936e-08
-2.39322022192e-06
4.8016521898e-08
-2.40838380158e-06
5.7006291003e-08
-2.43776816444e-06
6.64983895112e-08
-2.45805286365e-06
5.5758596794e-08
-2.47380205195e-06
5.30035160532e-08
-2.49716433493e-06
5.67420375058e-08
-2.51615380835e-06
4.07900081618e-08
-2.52661244788e-06
9.74321810953e-09
-2.52937486773e-06
-1.44693331562e-08
-2.52332865676e-06
-2.42453310632e-08
-2.51170313394e-06
-3.04039511948e-08
-2.49605929856e-06
-3.98273144396e-08
-2.47554603179e-06
-5.2654431256e-08
-2.4502931937e-06
-6.85492441802e-08
-2.41965629408e-06
-8.66869650778e-08
-2.38293678165e-06
-1.07070556905e-07
-2.34066723012e-06
-1.29886537503e-07
-2.29337924014e-06
-1.52979561489e-07
-2.23683574269e-06
-1.73659940164e-07
-2.15995533512e-06
-1.96988430278e-07
-2.07196689006e-06
-2.34159378072e-07
-1.98723395006e-06
-2.7407579232e-07
-1.89420384212e-06
-3.09134033528e-07
-1.78007668074e-06
-3.47153587723e-07
-1.64453631514e-06
-3.91956776414e-07
-1.48835931192e-06
-4.46761895204e-07
-1.30682596563e-06
-5.16693609649e-07
-1.09976909592e-06
-6.05998882665e-07
-8.36022998811e-07
-7.28960202075e-07
-5.557405311e-07
-8.85485051054e-07
-2.91144642607e-07
-8.58439795482e-07
-7.54259266411e-08
-6.31680813842e-07
7.61875067617e-08
-4.29134334356e-07
1.96430657259e-07
-3.34025606525e-07
2.89406385555e-07
-2.79895391315e-07
3.6101991553e-07
-2.30927453912e-07
4.11941688848e-07
-1.71962569312e-07
4.44791930045e-07
-9.99753007547e-08
4.66083227348e-07
-3.02329377587e-08
4.66963191352e-07
3.21505930671e-08
4.36456628879e-07
9.72139998341e-08
3.78704287919e-07
1.50177738628e-07
3.10423763184e-07
1.733124846e-07
2.45369331671e-07
1.7140452011e-07
1.88682954435e-07
1.78427889226e-07
8.34385789683e-08
2.52392536477e-07
2.78890172616e-07
-1.14894478907e-07
6.3621194757e-07
-1.55206512254e-07
4.97630957153e-07
-3.67794636144e-07
7.36397119035e-07
-5.41077467453e-07
6.94143486092e-07
-5.55700794816e-07
5.102822722e-07
-4.95752768702e-07
2.53568272685e-07
-6.77447192269e-07
3.62587457483e-07
-9.51442733775e-07
5.08595163883e-07
-1.12584580319e-06
4.5481072446e-07
-1.24343973299e-06
3.94618322933e-07
-1.3438331481e-06
3.56366542991e-07
-1.42798805264e-06
3.12936148081e-07
-1.48616350975e-06
2.58057889465e-07
-1.48595980998e-06
1.78231063092e-07
-1.43993373597e-06
1.09497950478e-07
-1.42353001322e-06
9.57969119791e-08
-1.47871407715e-06
1.32514219563e-07
-1.59951444676e-06
2.10317478349e-07
-1.7440531236e-06
2.83125436091e-07
-1.8437353035e-06
3.06442981391e-07
-1.90263118702e-06
2.94140648433e-07
-1.96443595247e-06
2.73951570397e-07
-2.02727905214e-06
2.50283872197e-07
-2.08222606892e-06
2.26850490004e-07
-2.13121154421e-06
2.05540637295e-07
-2.17529777566e-06
1.85770337719e-07
-2.2164338828e-06
1.67780332063e-07
-2.25339475024e-06
1.48715402356e-07
-2.28648604036e-06
1.3068666221e-07
-2.31337864312e-06
1.13168401269e-07
-2.33842392441e-06
1.00095488636e-07
-2.35556046591e-06
8.32075428731e-08
-2.36599668946e-06
6.80833981541e-08
-2.39243680738e-06
7.44846016051e-08
-2.41566353162e-06
8.02598265888e-08
-2.43601242201e-06
8.68699768676e-08
-2.47282853122e-06
9.25963211355e-08
-2.50342550947e-06
8.36200682313e-08
-2.51566103618e-06
6.89973571093e-08
-2.52124537507e-06
4.63914410607e-08
-2.52738951049e-06
1.59035146248e-08
-2.53088520037e-06
-1.09603841799e-08
-2.52702996733e-06
-2.80878114102e-08
-2.51637734611e-06
-4.10463729314e-08
-2.50056568822e-06
-5.56293916817e-08
-2.47986070001e-06
-7.3352532007e-08
-2.45426120832e-06
-9.41427568585e-08
-2.42334897744e-06
-1.17596056365e-07
-2.38671741153e-06
-1.43700004772e-07
-2.34424042899e-06
-1.72364128323e-07
-2.29467380978e-06
-2.02547913579e-07
-2.23430674725e-06
-2.34031397259e-07
-2.16077459268e-06
-2.70527148269e-07
-2.07964607271e-06
-3.15299916087e-07
-1.99067165052e-06
-3.63065336132e-07
-1.88719334097e-06
-4.12636885393e-07
-1.76485603848e-06
-4.69518758573e-07
-1.61995908122e-06
-5.36892292576e-07
-1.44834090497e-06
-6.18423810519e-07
-1.24540722007e-06
-7.19677599712e-07
-1.0071747201e-06
-8.44282363194e-07
-7.48068834706e-07
-9.88121644671e-07
-5.38519051593e-07
-1.09509533606e-06
-3.11394595775e-07
-1.08562068363e-06
-6.51246919295e-08
-8.77990409616e-07
1.04779556565e-07
-5.99068849108e-07
2.29044116205e-07
-4.58313805992e-07
3.30538842924e-07
-3.814213217e-07
4.12469855128e-07
-3.12893240061e-07
4.78640320731e-07
-2.38175907643e-07
5.25796721091e-07
-1.47176175818e-07
5.34924570072e-07
-3.94037940374e-08
4.91988308542e-07
7.5050053359e-08
4.22470004652e-07
1.66699374909e-07
3.49640071753e-07
2.22975752936e-07
2.66840159892e-07
2.56081469339e-07
1.83911115367e-07
2.54308775501e-07
1.2399276498e-07
2.3832884014e-07
6.36950360323e-08
3.12664255361e-07
3.42578416696e-07
-2.47138954623e-08
6.61072634864e-07
-1.38139943352e-07
6.11196656652e-07
-3.10898688132e-07
9.09358693916e-07
-4.38686059999e-07
8.22122210727e-07
-4.19819550581e-07
4.91533386062e-07
-5.20442915409e-07
3.54273191973e-07
-7.48319605063e-07
5.90582870946e-07
-9.23012628221e-07
6.83434750095e-07
-1.06871047981e-06
6.00651304035e-07
-1.19935266044e-06
5.25399672933e-07
-1.31689320043e-06
4.74045122338e-07
-1.38058199109e-06
3.76748325368e-07
-1.36141237572e-06
2.38995853641e-07
-1.3361739623e-06
1.53080587932e-07
-1.37719588894e-06
1.50594019337e-07
-1.47686221181e-06
1.95532193528e-07
-1.6104780523e-06
2.66197242465e-07
-1.72680333237e-06
3.26710074297e-07
-1.79268483926e-06
3.49073310335e-07
-1.83962755875e-06
3.53450151811e-07
-1.90017256397e-06
3.54747119964e-07
-1.96486403293e-06
3.38701270107e-07
-2.02471760067e-06
3.10191363315e-07
-2.07796944321e-06
2.80153339398e-07
-2.12571853055e-06
2.53336904212e-07
-2.17067500454e-06
2.30772172156e-07
-2.21010404685e-06
2.07250377748e-07
-2.24770757485e-06
1.86359539297e-07
-2.27851921533e-06
1.61537862603e-07
-2.3052927231e-06
1.39980704999e-07
-2.32170191289e-06
1.1654081412e-07
-2.34362557265e-06
1.05163931326e-07
-2.37860392293e-06
1.03091601781e-07
-2.39902657526e-06
9.49345227449e-08
-2.42702219279e-06
1.08279826157e-07
-2.46414037314e-06
1.24011799755e-07
-2.49068219632e-06
1.1916049016e-07
-2.50901144879e-06
1.01971102477e-07
-2.51982995084e-06
7.98355777095e-08
-2.5263162196e-06
5.2896134646e-08
-2.5320393e-06
2.16427548441e-08
-2.53519733337e-06
-7.78734659075e-09
-2.53216460798e-06
-3.11074167494e-08
-2.52234624916e-06
-5.08523923403e-08
-2.50677707521e-06
-7.11879475442e-08
-2.48603767245e-06
-9.40823465807e-08
-2.46020826145e-06
-1.19964662513e-07
-2.42899256751e-06
-1.48805631093e-07
-2.39196328574e-06
-1.80725381961e-07
-2.34849927833e-06
-2.15825595945e-07
-2.29704107861e-06
-2.54005661887e-07
-2.23514135559e-06
-2.95932775046e-07
-2.16200594074e-06
-3.43668004431e-07
-2.07931284178e-06
-3.98001188252e-07
-1.98503899007e-06
-4.57355391143e-07
-1.87381371876e-06
-5.23878797247e-07
-1.74056515003e-06
-6.02793213448e-07
-1.5797712442e-06
-6.97711768187e-07
-1.38660710936e-06
-8.1161777791e-07
-1.16092632586e-06
-9.45387288616e-07
-9.14551849923e-07
-1.0906893879e-06
-6.84306976499e-07
-1.21840476801e-06
-5.06167286404e-07
-1.27327619886e-06
-2.77046454879e-07
-1.3147829899e-06
-4.85390496432e-08
-1.1065368015e-06
1.35616766821e-07
-7.83250376576e-07
2.79615230327e-07
-6.02342281219e-07
3.93263461081e-07
-4.95096918198e-07
4.85008761783e-07
-4.04674977282e-07
5.63385278125e-07
-3.16591446643e-07
6.05651961372e-07
-1.89484598224e-07
5.74845886125e-07
-8.63341462748e-09
5.01988014311e-07
1.47877878277e-07
4.20084331912e-07
2.48575116527e-07
3.28662858432e-07
3.14370713998e-07
2.33563070454e-07
3.5115894025e-07
1.66322282804e-07
3.21532945655e-07
1.05651971653e-07
2.98982324845e-07
4.45005243732e-08
3.73806407008e-07
3.87069848353e-07
-1.28566757122e-08
6.74007947663e-07
-1.67842059553e-07
7.66304196074e-07
-2.65757468399e-07
1.00744420945e-06
-3.28647624103e-07
8.85153165047e-07
-3.26103151964e-07
4.89067943671e-07
-5.65119125488e-07
5.93385308656e-07
-7.90130915035e-07
8.15725956079e-07
-8.99928955212e-07
7.93364887839e-07
-1.02270146669e-06
7.23561204507e-07
-1.13739755264e-06
6.40237271841e-07
-1.19749396993e-06
5.34271139167e-07
-1.15784308435e-06
3.37198973501e-07
-1.15335315248e-06
2.34584805309e-07
-1.23047285656e-06
2.30269444745e-07
-1.35700239062e-06
2.7719100821e-07
-1.51836803951e-06
3.56967639637e-07
-1.65477761809e-06
4.02679024262e-07
-1.72457985055e-06
3.96583913873e-07
-1.77017697371e-06
3.94739041618e-07
-1.83560612605e-06
4.18945532845e-07
-1.90249384003e-06
4.21697834196e-07
-1.96172903977e-06
3.97995284607e-07
-2.0181569628e-06
3.66674254778e-07
-2.07292401995e-06
3.34970970906e-07
-2.12198525055e-06
3.02446219904e-07
-2.15855907948e-06
2.67390271423e-07
-2.19904785716e-06
2.47782145215e-07
-2.23428850309e-06
2.21641240955e-07
-2.26588271582e-06
1.93171395511e-07
-2.28130769811e-06
1.55443217797e-07
-2.29955314965e-06
1.34821361244e-07
-2.32544006782e-06
1.31082260952e-07
-2.35100619011e-06
1.28685394736e-07
-2.40333731729e-06
1.47291365305e-07
-2.45069342738e-06
1.55660897884e-07
-2.48020289204e-06
1.53545808721e-07
-2.49991769121e-06
1.38899240265e-07
-2.51459761831e-06
1.16673643085e-07
-2.52510597802e-06
9.03651398241e-08
-2.53259551657e-06
6.04047801074e-08
-2.53837129506e-06
2.74358764068e-08
-2.54120113075e-06
-4.94181822241e-09
-2.53853621373e-06
-3.37575126455e-08
-2.52941196197e-06
-5.99628430443e-08
-2.51428106173e-06
-8.63059021875e-08
-2.49365706691e-06
-1.14694747924e-07
-2.46766424144e-06
-1.45947114178e-07
-2.43603059628e-06
-1.80430532446e-07
-2.39822902656e-06
-2.18519700747e-07
-2.35341777745e-06
-2.60631287912e-07
-2.3001688226e-06
-3.07250999762e-07
-2.23681026699e-06
-3.59290291114e-07
-2.16248415942e-06
-4.17995858053e-07
-2.07642022101e-06
-4.84073418256e-07
-1.9751074105e-06
-5.58676108384e-07
-1.85297110878e-06
-6.4603165095e-07
-1.70438242394e-06
-7.51393440322e-07
-1.52460641953e-06
-8.77503656133e-07
-1.31305538669e-06
-1.02318190804e-06
-1.07892247439e-06
-1.17953475389e-06
-8.44352583015e-07
-1.32527642502e-06
-6.35032403515e-07
-1.42774786833e-06
-4.46151645323e-07
-1.46218995046e-06
-2.35126466454e-07
-1.52585036714e-06
-1.39492713832e-08
-1.32774409043e-06
1.6508286108e-07
-9.62312033392e-07
3.31118473477e-07
-7.68399793754e-07
4.74851188741e-07
-6.38862188169e-07
5.95754435608e-07
-5.25608634569e-07
6.83929500124e-07
-4.04803214463e-07
6.88061092834e-07
-1.9365080469e-07
6.20794230731e-07
5.86043526796e-08
5.31784651377e-07
2.36861857626e-07
4.27503832747e-07
3.52831900968e-07
3.15268176109e-07
4.26585317106e-07
2.22611172939e-07
4.43798372439e-07
1.48641975245e-07
3.95488838068e-07
8.73299575701e-08
3.60286361659e-07
3.97285012337e-08
4.21390520314e-07
4.26795231786e-07
-6.5205746424e-08
7.39310422836e-07
-2.42958613473e-07
9.44179051908e-07
-3.29044678579e-07
1.09368264523e-06
-2.94930027824e-07
8.51158666994e-07
-3.9185872045e-07
5.86077956426e-07
-6.49341363943e-07
8.50980983441e-07
-7.76219139369e-07
9.42728270922e-07
-8.72064057005e-07
8.89339878952e-07
-9.60949434186e-07
8.12578069314e-07
-1.07765855253e-06
7.57077953681e-07
-1.07377446976e-06
5.30498413647e-07
-1.05521324951e-06
3.18716037289e-07
-1.13229489583e-06
3.1173469877e-07
-1.24140512444e-06
3.39442499746e-07
-1.40071343716e-06
4.36568476065e-07
-1.55201471383e-06
5.08346023986e-07
-1.6297721443e-06
4.80512177414e-07
-1.67917674199e-06
4.46059467039e-07
-1.75719400707e-06
4.7282566708e-07
-1.83381878351e-06
4.95637966977e-07
-1.89699625092e-06
4.84939137926e-07
-1.95652600704e-06
4.57584958629e-07
-2.01417556288e-06
4.24378212152e-07
-2.06355189684e-06
3.84398826139e-07
-2.10422472703e-06
3.43167570962e-07
-2.14400823007e-06
3.07218412678e-07
-2.17492724438e-06
2.78743785486e-07
-2.21108766197e-06
2.57841711596e-07
-2.23583267589e-06
2.17955203951e-07
-2.25330074313e-06
1.72947520124e-07
-2.28378933094e-06
1.65343060312e-07
-2.32018017651e-06
1.67503109147e-07
-2.36962707506e-06
1.78159318842e-07
-2.41743100822e-06
1.95121422864e-07
-2.46246688116e-06
2.00723189785e-07
-2.48967317954e-06
1.8077817299e-07
-2.50714058123e-06
1.56391582611e-07
-2.52090228325e-06
1.30458986245e-07
-2.5319403374e-06
1.01425091356e-07
-2.54031280788e-06
6.87974856605e-08
-2.54629469851e-06
3.34363701304e-08
-2.54896237722e-06
-2.25662646727e-09
-2.54650331451e-06
-3.61999902674e-08
-2.53791183432e-06
-6.85383670131e-08
-2.52323700801e-06
-1.00965611257e-07
-2.50278244704e-06
-1.3513496156e-07
-2.47659352356e-06
-1.72122725357e-07
-2.44436097134e-06
-2.12650836606e-07
-2.40550516719e-06
-2.57364544019e-07
-2.35916042069e-06
-3.06966847068e-07
-2.3040824707e-06
-3.62321814215e-07
-2.23880673201e-06
-4.24561883204e-07
-2.16177169434e-06
-4.95031822999e-07
-2.07039259221e-06
-5.75453986237e-07
-1.95994127681e-06
-6.69136535535e-07
-1.82457250002e-06
-7.81402570842e-07
-1.65953609649e-06
-9.16436218225e-07
-1.46383844548e-06
-1.07320295403e-06
-1.24443894421e-06
-1.24258557444e-06
-1.01704936769e-06
-1.40693070669e-06
-8.04089164963e-07
-1.53824926465e-06
-6.15508005962e-07
-1.61635272298e-06
-4.14055424074e-07
-1.6636761147e-06
-2.49536783549e-07
-1.69040029396e-06
6.529033154e-09
-1.58384251652e-06
2.22419765737e-07
-1.17822283126e-06
4.20593395783e-07
-9.66604327664e-07
6.06193805513e-07
-8.24486789919e-07
7.51443174945e-07
-6.7088975075e-07
8.16724808281e-07
-4.70114620513e-07
7.84482248892e-07
-1.61435891033e-07
7.01954177479e-07
1.4110781954e-07
5.84220787526e-07
3.54572141453e-07
4.43071280581e-07
4.93960548073e-07
3.06835558754e-07
5.62803052398e-07
2.12617720178e-07
5.38002592238e-07
1.2651759767e-07
4.81577756312e-07
6.13748209509e-08
4.25414686062e-07
3.05662143463e-08
4.5219389737e-07
4.5735286407e-07
-1.15397290825e-07
8.54784439464e-07
-2.67645010043e-07
1.09654779357e-06
-3.11432395299e-07
1.13758033324e-06
-2.33102876513e-07
7.72905414744e-07
-4.34950631648e-07
7.88013643265e-07
-6.44036613847e-07
1.06018458114e-06
-7.43870847287e-07
1.04268521831e-06
-8.46914439878e-07
9.92507613781e-07
-8.8351695279e-07
8.49306894343e-07
-9.28344751247e-07
8.02019752415e-07
-9.1363523837e-07
5.15867227801e-07
-1.0207064932e-06
4.25854248514e-07
-1.12222552242e-06
4.13314719751e-07
-1.27003791068e-06
4.8732121344e-07
-1.43197695808e-06
5.9858442149e-07
-1.52106211349e-06
5.97509933993e-07
-1.57262610717e-06
5.32150208141e-07
-1.66019400154e-06
5.33699183267e-07
-1.75282382666e-06
5.65526711978e-07
-1.82370887979e-06
5.66591844029e-07
-1.88406332445e-06
5.45358200481e-07
-1.94221036514e-06
5.15790359966e-07
-2.0029922378e-06
4.85215800855e-07
-2.06056114696e-06
4.42020563301e-07
-2.09678700816e-06
3.79440204668e-07
-2.13932518088e-06
3.49802189155e-07
-2.17259476325e-06
3.12055830881e-07
-2.18546473e-06
2.70751817369e-07
-2.20942751991e-06
2.41954688308e-07
-2.26820490361e-06
2.3175939071e-07
-2.3096167352e-06
2.06787380796e-07
-2.33163953286e-06
1.89554420375e-07
-2.38209836601e-06
2.28645783946e-07
-2.4385384296e-06
2.51589201841e-07
-2.47161902013e-06
2.33831375274e-07
-2.49535812104e-06
2.04544247008e-07
-2.51369236289e-06
1.74751734797e-07
-2.5283369579e-06
1.45128136317e-07
-2.5402082764e-06
1.13319485049e-07
-2.54940527285e-06
7.80160058624e-08
-2.55574239559e-06
3.97936770935e-08
-2.55844073324e-06
4.60898446888e-10
-2.55620575133e-06
-3.84163735077e-08
-2.5480888925e-06
-7.66371021438e-08
-2.53384869701e-06
-1.15188043282e-07
-2.51353947911e-06
-1.55426859563e-07
-2.4870630234e-06
-1.98582352656e-07
-2.45404783543e-06
-2.45649845052e-07
-2.4139128745e-06
-2.97484560771e-07
-2.36585263885e-06
-3.55013544359e-07
-2.30871699346e-06
-4.19447069313e-07
-2.24087706271e-06
-4.92394984136e-07
-2.15987481954e-06
-5.76030060057e-07
-2.06174223859e-06
-6.73588907202e-07
-1.94099586391e-06
-7.89880365801e-07
-1.79247357929e-06
-9.29924535099e-07
-1.61409685702e-06
-1.09480927818e-06
-1.40895715917e-06
-1.27834151331e-06
-1.18766433112e-06
-1.46388427958e-06
-9.668514571e-07
-1.62775524296e-06
-7.64203076977e-07
-1.74091609299e-06
-5.78723525404e-07
-1.80185773272e-06
-4.07632314186e-07
-1.83479850545e-06
-2.63299993728e-07
-1.83477169873e-06
-3.57446871856e-08
-1.8114304566e-06
2.8414424936e-07
-1.49814575992e-06
5.25466863127e-07
-1.20794489046e-06
7.37516506394e-07
-1.03656247075e-06
8.94300459338e-07
-8.2769532913e-07
9.56591152123e-07
-5.32429047751e-07
9.30006694833e-07
-1.34876252451e-07
8.26847757198e-07
2.44244058337e-07
6.55636614681e-07
5.25761485863e-07
4.60402636293e-07
6.89176024053e-07
2.96351825345e-07
7.26838219486e-07
1.77820162664e-07
6.56520847735e-07
8.75943846599e-08
5.7179047496e-07
2.15242142888e-08
4.91477819323e-07
4.44449640318e-09
4.69256133367e-07
4.61793786727e-07
-1.46629138402e-07
1.00152296025e-06
-2.61145070777e-07
1.21118257553e-06
-2.59965244124e-07
1.13650935667e-06
-2.86950365931e-07
7.99965649568e-07
-5.06892367436e-07
1.00805225616e-06
-6.07192139321e-07
1.16060036213e-06
-7.01123296965e-07
1.13673698679e-06
-8.01018551412e-07
1.09251869521e-06
-8.45915238149e-07
8.94307727701e-07
-8.92439442174e-07
8.48648505254e-07
-9.23159092106e-07
5.46653150059e-07
-1.01952400385e-06
5.2227878242e-07
-1.13867734533e-06
5.32528097639e-07
-1.30119847534e-06
6.49912379624e-07
-1.43775015383e-06
7.35217346668e-07
-1.5015800162e-06
6.61420174971e-07
-1.5620185704e-06
5.92662624155e-07
-1.65171265675e-06
6.23465955598e-07
-1.73773688774e-06
6.51623058249e-07
-1.81058839834e-06
6.39511657533e-07
-1.87356130295e-06
6.08393357953e-07
-1.92632140991e-06
5.68610291546e-07
-1.97324911503e-06
5.32201438327e-07
-2.02268031713e-06
4.91502415161e-07
-2.06676455915e-06
4.23572887597e-07
-2.09840323896e-06
3.81486074729e-07
-2.14297352927e-06
3.56666769515e-07
-2.19052903306e-06
3.18347280286e-07
-2.23104055882e-06
2.82503081041e-07
-2.26472077349e-06
2.65472986055e-07
-2.30641319489e-06
2.48509195027e-07
-2.37496794066e-06
2.58137724725e-07
-2.41871951185e-06
2.72425581307e-07
-2.44973788685e-06
2.82636197525e-07
-2.47758015841e-06
2.61702462069e-07
-2.50143396868e-06
2.28426125718e-07
-2.52109117793e-06
1.94435754944e-07
-2.53692786288e-06
1.60990268994e-07
-2.54969301698e-06
1.2610873055e-07
-2.55970021321e-06
8.80460739705e-08
-2.56662320302e-06
4.6738556617e-08
-2.56964702328e-06
3.50597766712e-09
-2.56775604754e-06
-4.02865078878e-08
-2.56013175114e-06
-8.42406456293e-08
-2.54633128261e-06
-1.28967753831e-07
-2.52612694045e-06
-1.75610309769e-07
-2.49925527875e-06
-2.25433051537e-07
-2.46529737249e-06
-2.79587210071e-07
-2.4236977403e-06
-3.39064312313e-07
-2.37373024989e-06
-4.04964206589e-07
-2.31427098185e-06
-4.78892015375e-07
-2.24339589363e-06
-5.63261251213e-07
-2.15783418569e-06
-6.61588407254e-07
-2.05269693069e-06
-7.78723349572e-07
-1.92246881438e-06
-9.20105572701e-07
-1.76354011023e-06
-1.08885010351e-06
-1.57625027731e-06
-1.28209869631e-06
-1.36299534464e-06
-1.49160917666e-06
-1.1356998846e-06
-1.6911985371e-06
-9.15329824561e-07
-1.84814975822e-06
-7.2314718732e-07
-1.93312786603e-06
-5.50344785183e-07
-1.97469502605e-06
-3.8309872e-07
-2.002086914e-06
-2.15906110445e-07
-2.00200642313e-06
-6.36583356614e-08
-1.96372501928e-06
2.60948974916e-07
-1.82278060919e-06
6.47275288686e-07
-1.59429966438e-06
8.90397708677e-07
-1.27970053949e-06
1.0670335004e-06
-1.00434943e-06
1.15962931206e-06
-6.25046247272e-07
1.16018067374e-06
-1.35448187013e-07
1.01019308551e-06
3.94208683295e-07
7.4580714856e-07
7.90127731784e-07
4.66499049612e-07
9.68466104593e-07
2.50186537815e-07
9.4313561512e-07
9.69012108258e-08
8.09792991849e-07
8.94427903112e-09
6.59735835227e-07
-3.61833160917e-08
5.36588653506e-07
-3.2363476481e-08
4.65430048752e-07
4.29420813679e-07
-1.65436244273e-07
1.1670382484e-06
-2.73235548462e-07
1.31908568673e-06
-2.40177365432e-07
1.10353819341e-06
-3.3942123399e-07
8.9929333511e-07
-5.25867903983e-07
1.19460862702e-06
-5.72023833917e-07
1.20686981413e-06
-6.5202461313e-07
1.21684915355e-06
-7.03121640758e-07
1.14372126083e-06
-7.83547514634e-07
9.74822064496e-07
-7.98814004712e-07
8.63990497019e-07
-8.93848031732e-07
6.41746994553e-07
-1.01129659032e-06
6.39783336736e-07
-1.14226213245e-06
6.63555694506e-07
-1.29148837264e-06
7.99215116314e-07
-1.38268548408e-06
8.26494672698e-07
-1.43358687923e-06
7.12395576884e-07
-1.52972415144e-06
6.88872884906e-07
-1.62968432087e-06
7.23499822446e-07
-1.71290582168e-06
7.34916074808e-07
-1.78986701318e-06
7.16539887734e-07
-1.86239582164e-06
6.80987122492e-07
-1.92537807194e-06
6.31654225957e-07
-1.96506333781e-06
5.71941549677e-07
-1.99702948198e-06
5.23520676602e-07
-2.05637805405e-06
4.82968607481e-07
-2.0953306318e-06
4.20481809873e-07
-2.10956221425e-06
3.70941485391e-07
-2.13740957345e-06
3.46233633194e-07
-2.18898557592e-06
3.34114216101e-07
-2.25611199083e-06
3.32631311235e-07
-2.31912842037e-06
3.11554392607e-07
-2.37134874445e-06
3.10385572199e-07
-2.42651370056e-06
3.27619261558e-07
-2.45984136523e-06
3.15993889277e-07
-2.48536110972e-06
2.87251942671e-07
-2.50896286105e-06
2.52056565744e-07
-2.52973259436e-06
2.15232990484e-07
-2.54682150761e-06
1.78105567962e-07
-2.56050596072e-06
1.39818527819e-07
-2.57126687126e-06
9.88314260813e-08
-2.57889601542e-06
5.43914331656e-08
-2.5825369627e-06
7.1701758209e-09
-2.58121827679e-06
-4.15819352861e-08
-2.57418142433e-06
-9.1253949519e-08
-2.56087839499e-06
-1.42246602839e-07
-2.54082564175e-06
-1.95638229647e-07
-2.51352674592e-06
-2.52706670323e-07
-2.4785017938e-06
-3.14586888414e-07
-2.43528490284e-06
-3.82257974163e-07
-2.38327912372e-06
-4.56948969261e-07
-2.32141939792e-06
-5.40736853072e-07
-2.24758574403e-06
-6.37085379862e-07
-2.1579928168e-06
-7.51177904513e-07
-2.04732218047e-06
-8.8938930936e-07
-1.91050947546e-06
-1.05691022165e-06
-1.74535270403e-06
-1.25400634551e-06
-1.55180080075e-06
-1.47565764114e-06
-1.32260138484e-06
-1.72083126138e-06
-1.0791930238e-06
-1.9346436624e-06
-8.59295770101e-07
-2.06809622218e-06
-6.95040099486e-07
-2.09742058293e-06
-5.34829828302e-07
-2.1349430501e-06
-3.42021343849e-07
-2.19493652731e-06
-1.28579037526e-07
-2.21549812255e-06
6.1967113095e-08
-2.15431331507e-06
3.02412349554e-07
-2.06327247587e-06
6.60943942912e-07
-1.95285921488e-06
1.01639873954e-06
-1.63517550455e-06
1.24116170627e-06
-1.2291265808e-06
1.44004778419e-06
-8.23948400897e-07
1.51673092967e-06
-2.12155869273e-07
1.27466680396e-06