/*--------------------------------*- C++ -*----------------------------------*\
| =========                 |                                                 |
| \\      /  F ield         | OpenFOAM: The Open Source CFD Toolbox           |
|  \\    /   O peration     | Version:  v1806                                 |
|   \\  /    A nd           | Web:      www.OpenFOAM.com                      |
|    \\/     M anipulation  |                                                 |
\*---------------------------------------------------------------------------*/
FoamFile
{
    version     2.0;
    format      ascii;
    class       volVectorField;
    location    "628";
    object      Ua;
}
// * * * * * * * * * * * * * * * * * * * * * * * * * * * * * * * * * * * * * //

dimensions      [0 1 -1 0 0 0 0];


internalField   nonuniform List<vector> 
6400
(
(3.70801011367e-05 4.9606894797e-05 0)
(0.000100381767984 3.74147484715e-05 0)
(0.000146469427303 3.03424004766e-05 0)
(0.000196412696001 2.74185601825e-05 0)
(0.000234325591181 1.92338298913e-05 0)
(0.000263193488815 1.2931435716e-05 0)
(0.000281562728497 1.08269746136e-05 0)
(0.000298456763962 1.4963451954e-05 0)
(0.000335909038223 2.0223630561e-05 0)
(0.000374905817282 2.03120384969e-05 0)
(0.00039744743714 1.90955206633e-05 0)
(0.000435143005202 2.05834267007e-05 0)
(0.000471837232729 2.029427454e-05 0)
(0.000505128969839 1.8990038308e-05 0)
(0.000534540687116 1.87760742359e-05 0)
(0.000566248745639 2.07591006566e-05 0)
(0.000603585124837 2.18527860449e-05 0)
(0.000639268987068 2.12082996698e-05 0)
(0.000671267535885 2.00306727996e-05 0)
(0.000704148891947 2.01847534002e-05 0)
(0.000743399812761 2.37620080166e-05 0)
(0.000788706895906 2.73588209745e-05 0)
(0.000836352325326 2.84699353436e-05 0)
(0.000882288202331 2.84342094193e-05 0)
(0.000927346985516 2.78280636144e-05 0)
(0.000972350899878 2.71457331537e-05 0)
(0.00101840896973 2.72670216183e-05 0)
(0.00106403326214 2.72136689106e-05 0)
(0.00110793998352 2.67275872087e-05 0)
(0.00115033814661 2.64095017626e-05 0)
(0.001191259646 2.67879670972e-05 0)
(0.00123372523662 2.69659403521e-05 0)
(0.00127778156955 2.68043166643e-05 0)
(0.00132129561412 2.77339028924e-05 0)
(0.00136566405586 2.85290576473e-05 0)
(0.00141470981763 2.92349358359e-05 0)
(0.00146277483803 3.01440653719e-05 0)
(0.00150336481781 2.98123656063e-05 0)
(0.00155038326807 2.899306874e-05 0)
(0.00160223599868 2.88936674805e-05 0)
(0.00164881258003 3.04569265512e-05 0)
(0.00168723184513 2.99046889335e-05 0)
(0.0017229271442 2.5598099437e-05 0)
(0.00175724294223 2.25658058244e-05 0)
(0.00178802899038 2.12363732306e-05 0)
(0.00181590939609 1.97762909152e-05 0)
(0.00184055129423 1.81925363956e-05 0)
(0.00186101109314 1.6078910317e-05 0)
(0.0018773764611 1.40204774862e-05 0)
(0.00188961722911 1.40260726706e-05 0)
(0.00190063484789 1.64780945074e-05 0)
(0.00191695223799 1.57914454567e-05 0)
(0.00192421138123 7.36075450143e-06 0)
(0.00192731640692 2.76104689174e-06 0)
(0.00191583580323 -1.53688144917e-06 0)
(0.00187563714537 -9.92925191774e-06 0)
(0.00183268281353 -8.27681265239e-06 0)
(0.00181509387951 -1.63198788208e-06 0)
(0.00180864544414 -4.1822625069e-06 0)
(0.00176018167758 -6.49142604007e-06 0)
(0.00172869563958 4.39396059416e-06 0)
(0.00168970874642 -2.0957129519e-06 0)
(0.00179941925781 -4.17055339445e-05 0)
(0.0016388686536 -8.26638702653e-05 0)
(0.00131462171307 -7.1607805362e-05 0)
(0.00117285294829 -4.96159391061e-05 0)
(0.00109207274191 -4.8403822224e-05 0)
(0.00102872187072 -4.8105195223e-05 0)
(0.00096189919252 -4.95695150053e-05 0)
(0.000867057564606 -5.25751913544e-05 0)
(0.00076710168581 -5.35065767785e-05 0)
(0.000653857733151 -5.14031937218e-05 0)
(0.000546893447436 -5.02465108993e-05 0)
(0.00047426388344 -5.29961863596e-05 0)
(0.000348817511653 -4.16318381871e-05 0)
(0.000299775585156 -3.61249442866e-05 0)
(0.000195164092206 -2.2082430633e-05 0)
(0.000199243131672 -2.98335618305e-05 0)
(8.50451338967e-05 -2.07152865101e-05 0)
(6.33214761678e-05 -3.81659847915e-05 0)
(1.42857405981e-05 6.9690113184e-05 0)
(6.11747914192e-05 7.76132165634e-05 0)
(0.000106332518064 6.99635398237e-05 0)
(0.000136401397812 5.68128515683e-05 0)
(0.000195934569284 5.63411764899e-05 0)
(0.000249558143915 4.19346428408e-05 0)
(0.000283288481814 3.05000000157e-05 0)
(0.000310086201837 3.94427306907e-05 0)
(0.000339821632775 4.98478286983e-05 0)
(0.000372987364484 5.04301433088e-05 0)
(0.000405716569981 4.91412817809e-05 0)
(0.00043746797188 4.95790964271e-05 0)
(0.000468984121564 4.78175671379e-05 0)
(0.000499918301896 4.53006306784e-05 0)
(0.000532302926625 4.56369817408e-05 0)
(0.000566022852092 5.27125575096e-05 0)
(0.000601474306792 5.68795870856e-05 0)
(0.000634574608435 5.04603740348e-05 0)
(0.000654012147178 4.56728682465e-05 0)
(0.000690195147425 4.88298397746e-05 0)
(0.000734966683149 5.88553119521e-05 0)
(0.00078354712083 6.9684619505e-05 0)
(0.000835131532854 7.22707588532e-05 0)
(0.000882905703072 6.8987479011e-05 0)
(0.000922422339937 6.65042434102e-05 0)
(0.000970121499107 6.62682047752e-05 0)
(0.00101752590399 6.5682436159e-05 0)
(0.00106185839601 6.42671577829e-05 0)
(0.00110509829512 6.28054368123e-05 0)
(0.00114809691839 6.19328951542e-05 0)
(0.00119031764306 6.22789616238e-05 0)
(0.00122917323734 6.21326367424e-05 0)
(0.00127307750864 6.09594335569e-05 0)
(0.00131608934515 6.36752814877e-05 0)
(0.00135896363621 6.7169503294e-05 0)
(0.00141282335261 6.71503769175e-05 0)
(0.00145852363239 6.82994506289e-05 0)
(0.00149942049797 6.92030752546e-05 0)
(0.00154992863259 6.75448441171e-05 0)
(0.00160817610837 6.44291317242e-05 0)
(0.00165615376144 5.84640778918e-05 0)
(0.00166381696287 5.1070262421e-05 0)
(0.00168304391501 4.65904595978e-05 0)
(0.00172058129149 4.42911752148e-05 0)
(0.00175349629273 4.1822477083e-05 0)
(0.00178649574108 3.84290135191e-05 0)
(0.00181818280762 3.37681855187e-05 0)
(0.00184358783809 2.80302618949e-05 0)
(0.00186920041611 2.19194928961e-05 0)
(0.00188920436085 1.64720257537e-05 0)
(0.00189590185205 1.27514153407e-05 0)
(0.00188103823864 9.20429799997e-06 0)
(0.00187209688366 4.52167728106e-06 0)
(0.00192668621661 -6.66903825283e-06 0)
(0.00190598237946 -2.78239688334e-05 0)
(0.00188096699911 -4.23423953111e-05 0)
(0.00188711875525 -3.97242667545e-05 0)
(0.00187542340047 -3.36125131218e-05 0)
(0.00185363378935 -4.01993515719e-05 0)
(0.0018355654248 -4.88568421567e-05 0)
(0.00182268305948 -5.48516599626e-05 0)
(0.00166775534188 -6.69569752021e-05 0)
(0.00177032615223 -0.000164420457083 0)
(0.00159977259756 -0.000269144820937 0)
(0.00132634453949 -0.000254571369694 0)
(0.00110765963457 -0.000180554645708 0)
(0.000996235244495 -0.000132245328444 0)
(0.000979517800599 -0.000122053139534 0)
(0.000919337698264 -0.000134586779542 0)
(0.000847025155898 -0.000155333330846 0)
(0.000739988798695 -0.000165029062799 0)
(0.000624128798871 -0.000158407416433 0)
(0.000505753786775 -0.000136006886375 0)
(0.000449024299262 -0.000129663882061 0)
(0.000377456678235 -0.000118106125572 0)
(0.000314904269888 -0.000105452698283 0)
(0.000252787046209 -8.83479294018e-05 0)
(0.000197023045388 -8.88582896154e-05 0)
(0.000120934275713 -9.29227334969e-05 0)
(5.53311730506e-05 -0.000149551813883 0)
(2.00353567179e-05 0.000120492278536 0)
(5.75710601916e-05 0.000129309959876 0)
(8.93307039129e-05 0.000120827292835 7.21572915237e-29)
(0.000149745468071 0.000121697525372 -6.65250265656e-29)
(0.00020622570033 0.000120284432125 -5.82434247703e-29)
(0.00024311269849 9.98511954402e-05 5.29769208101e-29)
(0.000271319549644 6.32603281044e-05 -5.300066792e-29)
(0.000298781785201 6.96958324345e-05 5.11817474331e-29)
(0.000329720450293 8.34346039463e-05 0)
(0.0003642516361 8.65688570336e-05 0)
(0.00039890231288 8.4598120018e-05 0)
(0.000431347237599 8.19107799519e-05 0)
(0.000462448379471 7.89787598142e-05 0)
(0.00049262948612 7.83662198314e-05 0)
(0.000525157335945 8.10551049473e-05 0)
(0.000559178836942 8.19064934609e-05 0)
(0.000541992534138 7.2998540769e-05 0)
(0.000547066585198 6.81940853623e-05 0)
(0.000582689531403 7.66163538184e-05 0)
(0.000638764966647 9.72728628992e-05 0)
(0.000728314192473 0.000119403562124 0)
(0.0007875747494 0.000125725584998 0)
(0.00082581056376 0.000121744306921 0)
(0.00087293272249 0.000117222046519 0)
(0.000921819554276 0.000115014438065 0)
(0.000966591068669 0.000114043378803 0)
(0.00101074830612 0.000112089055398 0)
(0.00105527151217 0.000109874042015 0)
(0.00109898452291 0.000108083166309 0)
(0.00114144039773 0.000107058475299 9.4278036855e-29)
(0.00118526140623 0.000106441086459 -9.11826400966e-29)
(0.00122117858204 0.00010571221083 0)
(0.00126373317886 0.000105688174954 0)
(0.00131550566999 0.000107791772206 0)
(0.00134417197893 0.0001142780533 0)
(0.00139873336531 0.000119574148165 0)
(0.00146011093344 0.000118736158957 0)
(0.00149136628087 0.000118909421169 0)
(0.00154425547664 0.00012142724272 0)
(0.00160473458728 0.000115743093132 0)
(0.00165317096765 9.90945844515e-05 0)
(0.00168971973079 8.48923974145e-05 0)
(0.001723836559 8.14083519609e-05 0)
(0.00175780041785 8.01744790037e-05 0)
(0.00178883979493 7.6493391497e-05 0)
(0.00181661723442 7.10045893518e-05 0)
(0.0018413808246 6.34436870482e-05 0)
(0.00186309657372 5.47250260045e-05 0)
(0.00188190702793 4.48745277432e-05 0)
(0.00189738830488 3.29685227364e-05 0)
(0.0019090061846 2.07264074165e-05 0)
(0.00191695535322 1.36666701724e-05 0)
(0.00192198999719 1.25686186485e-05 0)
(0.0019136132045 -3.76509855884e-06 0)
(0.00189241315313 -3.02431636156e-05 0)
(0.00189403602405 -4.23240486306e-05 0)
(0.00189064176997 -4.46919566222e-05 0)
(0.00187368308288 -4.86288777255e-05 0)
(0.00185045377954 -5.69423951122e-05 0)
(0.0018245017666 -7.1853638579e-05 0)
(0.00178059942259 -0.000105217300916 0)
(0.00173269907261 -0.000157061510912 0)
(0.00169149858574 -0.000325029418653 0)
(0.00142925776563 -0.000456374377691 0)
(0.00112841808249 -0.000378146831675 0)
(0.00103479557018 -0.000282269304964 0)
(0.000989744531937 -0.000222168622715 0)
(0.000915255865287 -0.000200010622834 0)
(0.00084112452752 -0.000219246355161 0)
(0.000755573854732 -0.000248156487449 0)
(0.000653622531324 -0.000255565339733 0)
(0.000561379734447 -0.000237165695117 0)
(0.000503194239815 -0.000215135963368 0)
(0.000446778516438 -0.000204443710312 0)
(0.000373855593983 -0.000194149073866 0)
(0.00030003468307 -0.000175286959701 0)
(0.000232022227515 -0.000154564013053 0)
(0.000176268190597 -0.000162304617118 0)
(0.000121155415441 -0.000207433366037 0)
(3.07275887821e-05 -0.000204560996462 0)
(1.86629276781e-05 0.000175924614297 0)
(2.79189573571e-05 0.000122363059466 0)
(7.09564484434e-05 0.000179450736426 0)
(0.000126173444255 0.000179163786686 0)
(0.000177203535301 0.000155961933889 0)
(0.000109317706323 6.74829616641e-05 0)
(0.000139278629194 7.20526320985e-05 0)
(0.000252696153227 0.000126594455128 0)
(0.000307266934398 0.000133229278342 0)
(0.000348137996302 0.000126131978215 0)
(0.000386924309694 0.000120901586722 0)
(0.000421701763891 0.000114871964147 0)
(0.000453565766352 0.00011026233304 0)
(0.000480393683547 0.00010379989092 0)
(0.00047756420952 9.10395501562e-05 0)
(0.000474122046793 8.16598630584e-05 0)
(0.000491775335301 8.38067678054e-05 0)
(0.00053734280806 0.000104789039843 0)
(0.000616062346166 0.000139584555271 0)
(0.000690431648986 0.000170809122595 0)
(0.000732360378798 0.000178386650633 0)
(0.000775886087828 0.000173428632758 0)
(0.000822865675554 0.000168343422778 0)
(0.000868369538868 0.000164548084484 0)
(0.000912832365006 0.000160928655746 0)
(0.000956649523156 0.000157877516027 0)
(0.00100024181679 0.00015556819781 0)
(0.00104619780967 0.00015352191155 0)
(0.00108853275341 0.000151153974383 0)
(0.00113438282201 0.000149851272151 0)
(0.0011718055679 0.000148134170896 0)
(0.00121778783688 0.00014707326553 0)
(0.00124809120975 0.000144693515051 0)
(0.00129580868149 0.000150689734627 0)
(0.00135672874033 0.000162067865014 0)
(0.00139093073268 0.000169150480556 0)
(0.00145127791522 0.000171601416992 0)
(0.0015124674498 0.00017194964119 0)
(0.00156018085518 0.000171311120157 0)
(0.00160525823946 0.000161451149219 0)
(0.0016486965506 0.000142980607701 0)
(0.00168806241476 0.000126092950142 0)
(0.00172454532057 0.000116817939509 0)
(0.00175880419312 0.000111075152587 0)
(0.00178985552302 0.000104439314576 0)
(0.00181762320051 9.59967114691e-05 -8.15331344891e-29)
(0.00184231659808 8.57734174878e-05 8.2026161122e-29)
(0.00186394231581 7.41278904541e-05 0)
(0.00188248838671 6.11034353381e-05 0)
(0.00189770641355 4.67411049918e-05 0)
(0.00190912155287 3.25042503911e-05 0)
(0.00191593852523 2.00637742331e-05 0)
(0.00191710370317 6.31080428153e-06 0)
(0.00191105503916 -1.45603137767e-05 0)
(0.00190196157721 -3.50873505644e-05 0)
(0.00189471826726 -4.83302451977e-05 0)
(0.00188402847057 -5.9266241061e-05 0)
(0.00186443065996 -7.14623835481e-05 -1.60377866115e-28)
(0.00183531484463 -8.84300479525e-05 1.86755443206e-28)
(0.00179334138716 -0.000117776795449 0)
(0.00172786474374 -0.000172802574771 0)
(0.00163311441078 -0.000283490708252 0)
(0.0014953310656 -0.000485767870485 0)
(0.00134339578591 -0.00063285873069 0)
(0.00119612435026 -0.000562019219888 0)
(0.000986142948199 -0.000369916961335 0)
(0.000892461839901 -0.000289946895043 0)
(0.000828578789675 -0.000278526578122 0)
(0.000761549137912 -0.000301261685026 0)
(0.000701062168012 -0.000340073795337 0)
(0.000624190828368 -0.000350096353225 0)
(0.000546422162699 -0.000324384304258 0)
(0.000470112463601 -0.000293741157641 0)
(0.000376670671923 -0.000266529177355 0)
(0.000307884295463 -0.000256097049829 0)
(0.000244238343011 -0.000249415716502 0)
(0.000174951039229 -0.0002248900968 0)
(0.000101610795169 -0.000182074330869 0)
(7.41209791624e-05 -0.000230505150363 0)
(2.4616691807e-05 -0.000265713139809 0)
(1.44016938762e-06 0.00017695130627 0)
(1.43386588509e-05 0.00014788740472 0)
(6.10807396245e-05 0.000230413093276 0)
(0.000104825752779 0.000216525796381 0)
(0.000117702894119 0.000152241849984 0)
(9.72536975512e-05 9.1674423385e-05 0)
(0.000166926386819 0.000146423381596 0)
(0.000245876734147 0.000196954345021 0)
(0.000282607382112 0.000183601438518 0)
(0.000326565825384 0.000169190776078 0)
(0.000367995804451 0.000162033380173 0)
(0.000404787623292 0.000151908513733 0)
(0.000420942286228 0.000129651760922 0)
(0.000405478083035 0.000102539509436 0)
(0.00042519700701 9.85133531233e-05 0)
(0.00046433559287 0.000111508366286 0)
(0.000522503264618 0.000138569896679 0)
(0.000589927180523 0.000175160799616 0)
(0.000643709207139 0.000203199937327 0)
(0.000677021281073 0.000212805265617 0)
(0.000719267536921 0.000218359748125 0)
(0.000766937727708 0.000219787893498 0)
(0.000811908300376 0.00021544987345 0)
(0.000856529561592 0.000209763491365 0)
(0.000900315712079 0.000204979752686 0)
(0.00094322526203 0.000201956598738 0)
(0.000989179175056 0.000199919168012 0)
(0.00103026766676 0.000196980055522 0)
(0.00107899041374 0.000195109573243 0)
(0.00111516121921 0.000191461985918 0)
(0.00116569881453 0.000190670056596 9.04262314935e-29)
(0.00118718432232 0.000186110492561 -8.61194979331e-29)
(0.00124486836111 0.000191438149167 0)
(0.00130299808964 0.000200468595848 0)
(0.00134190011217 0.000210848023147 0)
(0.00140728181979 0.000224498101401 0)
(0.00146218211705 0.000229749503653 0)
(0.00151225136757 0.000224759274705 0)
(0.00155885963012 0.000215898397695 0)
(0.00160338360728 0.000202977860751 0)
(0.00164660599654 0.000185103259359 0)
(0.001687342855 0.000167298907694 0)
(0.00172517728583 0.000154028293674 0)
(0.00175998448322 0.000143832449682 0)
(0.00179135094598 0.000133616323072 0)
(0.00181933291793 0.000122032652549 0)
(0.00184409125376 0.000108831063708 0)
(0.00186562290569 9.41134374175e-05 0)
(0.00188380324011 7.78871442958e-05 0)
(0.00189834591415 6.02873712844e-05 0)
(0.00190874855027 4.20760156893e-05 0)
(0.00191417502887 2.36641002347e-05 0)
(0.00191375451571 3.39545591306e-06 0)
(0.00190749850473 -1.99081241118e-05 0)
(0.00189819687817 -4.20239048987e-05 0)
(0.00188751885916 -6.05283708504e-05 0)
(0.0018711654289 -7.92499571842e-05 0)
(0.00184333522051 -0.000102730915931 0)
(0.00179915795037 -0.000136936303787 0)
(0.00173150991355 -0.000192669924832 0)
(0.00163205273765 -0.000285304106371 0)
(0.00150507513093 -0.000429234748672 0)
(0.00135585735701 -0.000611453942983 0)
(0.00127808712164 -0.000744090428007 0)
(0.00118917508886 -0.000703180019965 0)
(0.00100232436551 -0.000524366792863 0)
(0.000872307094645 -0.00041396118389 0)
(0.000767072244028 -0.000371061854113 0)
(0.000682372213195 -0.000375574791636 0)
(0.000619039683299 -0.000407090189532 0)
(0.000559205090345 -0.000428087529957 0)
(0.000482711450872 -0.00040676180256 0)
(0.000385655133768 -0.000357140440916 0)
(0.000318605127332 -0.000337195752692 0)
(0.000255149061963 -0.000332433923663 0)
(0.000190847916321 -0.000322141444019 0)
(0.000128107742988 -0.000269237423824 0)
(8.22018288159e-05 -0.000231744207769 0)
(5.2075342144e-05 -0.000287069858483 0)
(1.29710121119e-05 -0.000296189311759 0)
(-8.92228015188e-07 0.000165500455503 0)
(1.60973607903e-05 0.000177528375461 0)
(5.87877691243e-05 0.000260970343546 0)
(8.45733067939e-05 0.000227270377491 0)
(6.66009754781e-05 0.00012216049539 0)
(9.43625071526e-05 0.000128553806737 0)
(0.000194109818979 0.000224433014698 0)
(0.000228017275425 0.000235629080228 0)
(0.000261049938503 0.000223710617142 0)
(0.000301008989447 0.000213224830765 0)
(0.000342372022967 0.000196539371458 0)
(0.00033622997473 0.000156570937337 0)
(0.000318835281961 0.000117642566456 0)
(0.000350830516587 0.000117966592533 0)
(0.000394327288796 0.000137721249265 0)
(0.000464739354781 0.000172658537625 0)
(0.000535635572267 0.000206409975279 0)
(0.000588429163435 0.000227493164365 0)
(0.000615744904961 0.000235841685439 0)
(0.000659897323467 0.000251780468138 0)
(0.00070918921778 0.000264590610506 0)
(0.000753024885028 0.000265333457049 0)
(0.000796590096326 0.000260476672117 0)
(0.000839978315683 0.000254520519861 0)
(0.000886003881271 0.000249999091444 0)
(0.000928902334037 0.000245176668449 0)
(0.000965228037499 0.000242509286178 0)
(0.00101943378008 0.000242613479811 0)
(0.00105027000612 0.000236008906838 0)
(0.00110783292536 0.000233991671523 0)
(0.00112114049286 0.000226104138333 0)
(0.00118738255849 0.000234128586206 0)
(0.00120948847065 0.000237504330947 0)
(0.00128340799026 0.000254252332881 0)
(0.00135581781513 0.000272704719947 0)
(0.00141175083748 0.000282986439805 0)
(0.00146175029324 0.000281040993503 0)
(0.00150982909122 0.000272575742157 0)
(0.00155630789159 0.000260928778548 0)
(0.00160145602458 0.000246064476659 0)
(0.00164519649657 0.000227695970897 0)
(0.00168683128582 0.000208601280959 0)
(0.00172566587426 0.000191873032443 0)
(0.00176117836534 0.000177379142488 0)
(0.00179310005984 0.000163260828579 0)
(0.00182146320928 0.000148227308269 0)
(0.00184638562149 0.000131776697805 0)
(0.0018677809186 0.000113748298609 0)
(0.00188538942825 9.40251408167e-05 0)
(0.00189885872869 7.26362966347e-05 0)
(0.00190769446677 4.98736026533e-05 0)
(0.00191121423679 2.58030631939e-05 0)
(0.00190893348704 -1.57741845275e-08 0)
(0.00190127591691 -2.70356745638e-05 0)
(0.00188955722165 -5.31593657325e-05 0)
(0.00187303308676 -7.901929849e-05 0)
(0.00184666570848 -0.000109433431136 0)
(0.00180386253334 -0.000150623057958 0)
(0.00173863447871 -0.000210172752647 0)
(0.00164519196658 -0.000296774341884 0)
(0.0015256363703 -0.000416893244307 0)
(0.00139503930568 -0.000563197075825 0)
(0.00122557516082 -0.000687495087191 0)
(0.00122920399323 -0.000855054514814 0)
(0.00106807748746 -0.00079781253933 0)
(0.00090959069678 -0.000632211226969 0)
(0.000807903318562 -0.000534546088344 0)
(0.000698812284016 -0.000474116034728 0)
(0.000600284385043 -0.000451988544812 0)
(0.000541519841493 -0.00048409152522 0)
(0.00048386598296 -0.000512198007186 0)
(0.000395232162346 -0.000463382443206 0)
(0.000325036485489 -0.000419493469018 0)
(0.000268565368458 -0.000409601352381 0)
(0.000202907022033 -0.000401198556891 0)
(0.00015061953848 -0.000379669978801 0)
(9.9168003465e-05 -0.000302769214482 0)
(6.279861918e-05 -0.000270129904578 0)
(3.69865427519e-05 -0.000320229759282 0)
(1.01395848721e-05 -0.000318453870687 0)
(4.9022678012e-06 0.000178322270568 0)
(3.38388957883e-05 0.00022572457139 0)
(7.24803493727e-05 0.000281268620843 0)
(8.08368770829e-05 0.000270213612571 0)
(5.94509785509e-05 0.000153479777387 0)
(0.000126658470814 0.000215909157814 0)
(0.000188552433526 0.00026719503294 0)
(0.000209872001566 0.000264527147345 0)
(0.000240275077036 0.000255963014262 0)
(0.000266691885818 0.000245195211378 0)
(0.000313125074319 0.000222939895678 -2.41655426389e-28)
(0.000260960921326 0.000142706429679 1.55612488891e-28)
(0.000300866054564 0.000143261361362 0)
(0.000332620710308 0.000160009104488 0)
(0.000396493672078 0.000200448836307 0)
(0.000472515565861 0.000245930361942 0)
(0.000526151032492 0.000263260314736 0)
(0.000545554870802 0.000258489837516 0)
(0.000592007051231 0.000275961188472 0)
(0.000647407281488 0.000300590316618 0)
(0.000690399622388 0.000309627620525 0)
(0.000734462204691 0.000309480869313 0)
(0.000778930949579 0.00030551264066 0)
(0.000823124496842 0.000299026101866 0)
(0.000863226016237 0.000291112235644 0)
(0.000900567308692 0.000285164925388 0)
(0.000952552552842 0.000285835961008 0)
(0.000977210051444 0.000282298871719 0)
(0.00104252800397 0.000281477349947 0)
(0.00105088596516 0.000264316815209 0)
(0.00112187811939 0.000272647714 0)
(0.00114610849673 0.000278866782092 -8.47785054237e-29)
(0.00121880748964 0.000296937871459 8.59720873829e-29)
(0.00128033350064 0.000319801088083 0)
(0.00135598132809 0.000337801063758 0)
(0.0014093841485 0.000338117151428 0)
(0.00145770920558 0.000330532531707 0)
(0.00150570221092 0.000319822138396 0)
(0.00155322849477 0.000306620723477 0)
(0.00159952147392 0.000290372048321 0)
(0.00164411486771 0.000270990331742 0)
(0.00168663259626 0.00025025152904 0)
(0.00172637547039 0.0002303552981 0)
(0.00176269383847 0.000211785551949 0)
(0.00179529709805 0.000193611492864 0)
(0.001824164078 0.000174808631754 0)
(0.00184928094409 0.000154724425891 0)
(0.0018704076448 0.000132949146791 0)
(0.00188715612779 0.000109204190987 0)
(0.00189913009418 8.33890106966e-05 0)
(0.00190587975171 5.55865037206e-05 0)
(0.00190688863636 2.59107570145e-05 0)
(0.00190187507234 -5.40960382227e-06 0)
(0.00189098385845 -3.77016026223e-05 0)
(0.00187398286982 -7.08752435017e-05 0)
(0.00184816828025 -0.000107946090832 0)
(0.00180771518417 -0.000154984519213 0)
(0.00174663252385 -0.000218149967955 0)
(0.00166288754699 -0.000302292577001 0)
(0.0015615186531 -0.000409777883435 0)
(0.00145046309771 -0.000538131545177 0)
(0.0013377130583 -0.000675651632514 0)
(0.00124280286998 -0.000813123926246 0)
(0.00117495473706 -0.00095203947599 0)
(0.00102888311087 -0.000924756010474 0)
(0.000807528246339 -0.000720928782271 0)
(0.000734127566659 -0.00064240075456 0)
(0.000638790998762 -0.000591433869115 0)
(0.00053802051686 -0.000559769313889 0)
(0.000463944609638 -0.000572253420232 0)
(0.000399189477092 -0.000566770412966 0)
(0.000330392943758 -0.00051061952652 0)
(0.000279494855676 -0.000488276317892 0)
(0.000217523731216 -0.00047697236782 0)
(0.000159620376574 -0.000462270536711 0)
(0.000114623420891 -0.000407520773637 0)
(7.84697798507e-05 -0.00034713118027 0)
(3.91659022683e-05 -0.000303536442205 0)
(1.89825822262e-05 -0.000338415577373 0)
(6.4880324671e-06 -0.000341587804239 0)
(1.03839824608e-05 0.000204801513945 0)
(4.54642048649e-05 0.000268242169246 0)
(7.73809383529e-05 0.000291228268029 0)
(5.07372004443e-05 0.000191212745085 0)
(5.92779634576e-05 0.000186893420967 0)
(0.000136577999657 0.000284595537427 0)
(0.000166244877591 0.00029390649986 0)
(0.000192548673587 0.00029189652964 0)
(0.000211281982964 0.000280530384424 0)
(0.000243825922732 0.000271544148517 0)
(0.000211204171731 0.000184922164637 0)
(0.000242031114169 0.000167485647441 0)
(0.000280072089187 0.000179007343403 0)
(0.000319164554537 0.000208743973051 0)
(0.00040263047678 0.000271907187725 0)
(0.000460969890999 0.000301124729786 0)
(0.000475533393242 0.000288653849648 0)
(0.000515819912148 0.00029822958767 0)
(0.00057656626593 0.000329383845477 0)
(0.000625585781218 0.000348187766586 0)
(0.000667170678782 0.000352985899906 0)
(0.000709613494026 0.000352568675488 0)
(0.000755869483363 0.000350906695751 0)
(0.000799630634178 0.000343985606223 0)
(0.000845533259503 0.00033326794285 0)
(0.000874297328703 0.000327438644038 0)
(0.000932892196928 0.000329779469548 0)
(0.000964511926085 0.000322854202845 0)
(0.000989730520738 0.000312786704004 0)
(0.00103951612981 0.000313887656292 0)
(0.00111785569081 0.000327887212591 0)
(0.00114847454784 0.000331230641074 0)
(0.00119932843961 0.000356117198813 0)
(0.00129231760778 0.000390331690445 0)
(0.00134944270648 0.000398659950406 0)
(0.0014011899997 0.00039126871144 0)
(0.00145136857651 0.000380336767128 0)
(0.0015007301101 0.000368102462009 0)
(0.0015496321752 0.000353677832489 0)
(0.001597372422 0.000336082497659 0)
(0.00164319954763 0.000315268079985 0)
(0.00168674411305 0.000292533722392 0)
(0.00172748155695 0.000269549227809 0)
(0.00176475715953 0.000247047710466 0)
(0.00179818899751 0.000224711770377 -7.88844393884e-29)
(0.00182764759964 0.000201808062483 7.86474970047e-29)
(0.00185293235062 0.000177598904577 0)
(0.00187361256939 0.000151474668136 0)
(0.00188917960573 0.00012303009444 0)
(0.00189920628591 9.20933492463e-05 0)
(0.00190326714623 5.86807272845e-05 0)
(0.00190091946784 2.29607480083e-05 0)
(0.0018918357992 -1.47730433151e-05 0)
(0.00187552195231 -5.45771117104e-05 0)
(0.00185024723134 -9.82647016284e-05 0)
(0.00181196756547 -0.000150553882431 0)
(0.00175520960584 -0.00021713083934 0)
(0.00167838857669 -0.000300239887408 0)
(0.00158861150533 -0.000398982968254 0)
(0.0014962089506 -0.000512906367767 0)
(0.00140350430931 -0.000639041863602 0)
(0.0013130039155 -0.000769258855227 0)
(0.00123287248672 -0.000899613645333 0)
(0.0011490065296 -0.00102970429594 0)
(0.00113482253662 -0.00114927550762 0)
(0.000812983388545 -0.000883341074909 0)
(0.000643083810945 -0.000748517499596 0)
(0.000544016940756 -0.000693048956307 0)
(0.000441093551167 -0.000647770894638 0)
(0.000371895889661 -0.000632894136042 0)
(0.000325217459852 -0.000601182344295 0)
(0.000280852702827 -0.000562346919918 0)
(0.000231273338618 -0.000552346495555 0)
(0.000170936697882 -0.000539315800821 0)
(0.000120934443945 -0.000508777384564 0)
(8.01084533211e-05 -0.000440202839392 0)
(4.618155937e-05 -0.00038976416705 0)
(9.76893463903e-06 -0.000341616701893 0)
(-7.27919308824e-06 -0.000346406134953 0)
(-3.79689543776e-06 -0.000352867224984 0)
(1.37710700213e-05 0.00023654232673 0)
(4.83772453074e-05 0.000299734724176 0)
(6.03938464292e-05 0.000299019884938 0)
(4.51410232034e-05 0.000207504999249 0)
(7.76491868954e-05 0.000238497332559 0)
(0.000132033506002 0.000315202430979 0)
(0.000144921343275 0.000317973490596 0)
(0.000175513415779 0.00031644349033 0)
(0.0001750586306 0.000282946694225 0)
(0.000223044006759 0.000304671011407 0)
(0.000189454282127 0.000205791303095 0)
(0.00022919373967 0.000202135445338 0)
(0.00026183799229 0.000219208151012 0)
(0.000321330545354 0.000274649589839 0)
(0.000390377367441 0.000332330406955 0)
(0.000431881628136 0.00034091070871 0)
(0.000445168650584 0.000325172242581 0)
(0.000495701421569 0.000349267398983 0)
(0.000551200724409 0.000380131072759 0)
(0.000597460227907 0.00039397772906 0)
(0.000641858620913 0.00039714797195 0)
(0.000682622840767 0.000395094074717 0)
(0.000727516701379 0.000393549278106 0)
(0.000764166820939 0.000385093741498 0)
(0.000799106720855 0.000368844740023 0)
(0.00085870689291 0.000371109298328 0)
(0.00086937756432 0.000362979658887 0)
(0.000955252681527 0.000371052567666 0)
(0.000965101292031 0.000360352283278 0)
(0.00105015064367 0.000376112146835 0)
(0.00106392521579 0.000369344267437 0)
(0.00115521912159 0.000395714220291 0)
(0.00122087455831 0.000429199148419 -8.95957162237e-29)
(0.00128309971768 0.000452638513418 8.94923122639e-29)
(0.00133835225631 0.000453626309229 0)
(0.00139127559589 0.000444212143124 0)
(0.00144361338067 0.00043189084354 0)
(0.00149494414186 0.000418224351316 0)
(0.00154548288245 0.00040243384901 0)
(0.00159483447904 0.000383381818859 0)
(0.00164224993394 0.000360838861784 0)
(0.00168718976399 0.000335804499066 0)
(0.00172915010119 0.000309672311077 0)
(0.00176757244341 0.000283274024011 0)
(0.00180203317492 0.000256638080547 0)
(0.00183219015818 0.000229237445676 0)
(0.00185759749865 0.00020029661794 0)
(0.00187764817212 0.00016907904052 0)
(0.00189172822643 0.000135114425525 0)
(0.00189934156467 9.8215627182e-05 0)
(0.00190002955189 5.83593020157e-05 0)
(0.00189331441664 1.56026747191e-05 0)
(0.00187863027492 -3.01917450397e-05 0)
(0.00185469203872 -8.02141465468e-05 0)
(0.00181860537469 -0.000137815926069 0)
(0.00176587582995 -0.000207914714915 0)
(0.00169326732463 -0.000293081030106 0)
(0.00160700224106 -0.00038766266713 0)
(0.00152340823636 -0.000488498600107 0)
(0.0014480225525 -0.000601764415645 0)
(0.0013687855288 -0.00072804775307 0)
(0.00128001862402 -0.000853519317744 0)
(0.00119894836767 -0.000972424642431 0)
(0.00113446721589 -0.0010898586016 0)
(0.00111762577142 -0.00122214139012 0)
(0.000996346157523 -0.00120203553452 0)
(0.00060975541043 -0.000883026667283 0)
(0.000437748408934 -0.000810195216309 0)
(0.000346871435949 -0.000745190549486 0)
(0.00028846641844 -0.000681390320393 0)
(0.000259805002752 -0.000624792061812 0)
(0.000233831973303 -0.000611151851896 0)
(0.000186608607965 -0.000611978856878 0)
(0.000130169517475 -0.000595219499813 0)
(8.01218475504e-05 -0.000548125843367 0)
(3.58098706213e-05 -0.000484084387521 0)
(-3.9206613206e-06 -0.000427402102572 0)
(-3.27293915059e-05 -0.000376183410891 0)
(-3.8120281698e-05 -0.00034626795453 0)
(-1.66047273827e-05 -0.000333992513292 0)
(1.56114755894e-05 0.000273279674568 0)
(5.06382591883e-05 0.0003207786748 0)
(5.12318734035e-05 0.000296066376763 0)
(4.22296744761e-05 0.000221908919815 0)
(9.0653186692e-05 0.000307036635712 0)
(0.000111810157283 0.000324333353982 0)