/*--------------------------------*- C++ -*----------------------------------*\
| =========                 |                                                 |
| \\      /  F ield         | OpenFOAM: The Open Source CFD Toolbox           |
|  \\    /   O peration     | Version:  v1806                                 |
|   \\  /    A nd           | Web:      www.OpenFOAM.com                      |
|    \\/     M anipulation  |                                                 |
\*---------------------------------------------------------------------------*/
FoamFile
{
    version     2.0;
    format      ascii;
    class       volScalarField;
    location    "669";
    object      p;
}
// * * * * * * * * * * * * * * * * * * * * * * * * * * * * * * * * * * * * * //

dimensions      [0 2 -2 0 0 0 0];


internalField   nonuniform List<scalar> 
6400
(
0.147058555157
0.147061644584
0.147070478434
0.147087781363
0.147113543201
0.14714772494
0.14719030352
0.147242366766
0.147304894338
0.14737948897
0.147472289604
0.147586560939
0.147719640214
0.147871446084
0.148043891629
0.148239527047
0.148460023293
0.148705345887
0.148973382397
0.149258730221
0.149555769611
0.149865966958
0.150196802618
0.150556130309
0.150948837968
0.1513748031
0.151830540401
0.15231337879
0.152822842355
0.153359500805
0.153923725157
0.154513525261
0.155122834837
0.155745475824
0.156378602771
0.157019399914
0.15766814784
0.158330798504
0.159005948304
0.159684474167
0.16036721758
0.161066575794
0.161788829926
0.162525825796
0.163266383481
0.164002686356
0.164728782233
0.165440078608
0.166132386008
0.166802039749
0.167446006646
0.168058874649
0.16863174705
0.169153756587
0.169622868061
0.170043795788
0.170412620237
0.170720024325
0.170963997003
0.171152439739
0.17129246362
0.171388936953
0.171446582662
0.171480326782
0.171503674097
0.171520080358
0.171522244428
0.171506957772
0.171478687154
0.171442882539
0.171402102494
0.171356663443
0.171306795402
0.171256992858
0.171208280352
0.171163287621
0.1711241399
0.171097728471
0.171080420892
0.171073058595
0.147054052588
0.147057340842
0.147065377884
0.147082277392
0.147109523041
0.14714514159
0.147188187481
0.147238536963
0.147299069848
0.147373452444
0.147465898939
0.14757912777
0.147712482051
0.147865219416
0.14803783009
0.148232100734
0.148451823348
0.148697808557
0.148967170716
0.149253091157
0.149548194485
0.149856252668
0.150186450043
0.150545754141
0.150938908825
0.151365625058
0.151821687073
0.152305122826
0.152815536482
0.153352944468
0.153917270143
0.154507503463
0.155117800678
0.155740546852
0.156373782271
0.15701484147
0.157663484029
0.158326640262
0.159002972557
0.159682362763
0.160364462544
0.161064358484
0.16178997979
0.162529542573
0.16327143848
0.164009219157
0.164736884399
0.165450085321
0.166144211384
0.166814337108
0.167457406909
0.168071406988
0.168649157894
0.169173454709
0.169644259615
0.170068042152
0.170435408365
0.170739806716
0.170983263245
0.171170766931
0.171308024918
0.171403773773
0.1714618793
0.171496698701
0.171521708629
0.171539102877
0.171540621756
0.17152231197
0.171490510516
0.171451423508
0.171407628618
0.171359151202
0.171305785218
0.171251995806
0.171201395889
0.17115593083
0.171118419628
0.171091938915
0.171074690835
0.171068851235
0.147041365504
0.147046790207
0.147054105938
0.147069664198
0.147096012847
0.14713558243
0.147182048232
0.147230940503
0.147288586576
0.147361341871
0.147452955553
0.147565615079
0.147699228991
0.147852752555
0.148025412003
0.148216306806
0.148433646143
0.148684328439
0.148956742081
0.14924127664
0.149532202878
0.149835028467
0.150164166919
0.150525749315
0.150919821411
0.151346421413
0.151803688118
0.152288931834
0.15280092344
0.153339631265
0.153904786129
0.154496082653
0.155108470295
0.155730928
0.156362954758
0.157005684686
0.157654609069
0.158317063749
0.158994688006
0.159677326559
0.160365589894
0.16107018743
0.161795988011
0.162535631206
0.163279142717
0.164019225897
0.164750043627
0.165466702537
0.166164507203
0.16683903397
0.167486633104
0.168102812636
0.16867925258
0.169207099294
0.169685473395
0.170111214988
0.170476580964
0.170779186219
0.171021101054
0.171206791744
0.171342803244
0.171436185986
0.171494162213
0.171533146866
0.171563658003
0.171581707059
0.171579455358
0.171555397706
0.171516414313
0.171469903605
0.171418736393
0.171362725689
0.171303571579
0.17124560355
0.17119150931
0.171144308532
0.171107124608
0.171080673809
0.171064038931
0.171057951562
0.147023169153
0.147028747241
0.147035035543
0.147049400403
0.14707266045
0.14711214194
0.147170543461
0.147219617843
0.14727303047
0.14734295028
0.147433179958
0.147545511396
0.147679740021
0.14783326067
0.148005819943
0.148200945369
0.148422406356
0.148670333998
0.148934467043
0.149207863767
0.149494671779
0.149801026959
0.150132622684
0.150494862007
0.150890046964
0.15131810403
0.151777239732
0.152264678817
0.152778942247
0.153319463416
0.153886651098
0.154479510376
0.155093474231
0.155718976653
0.156348634442
0.156988547711
0.157640926278
0.158304113459
0.158980350824
0.159667181777
0.160363682656
0.161074931282
0.161803801536
0.162545479481
0.163291862175
0.164035722936
0.164771039425
0.165492634623
0.166195724921
0.166875804316
0.167528520788
0.16814857526
0.168728828244
0.169262571966
0.169745779741
0.170172959172
0.170538101773
0.17083952636
0.171079577184
0.171263100494
0.171396977689
0.171489461209
0.171551696779
0.171598904768
0.171634301714
0.171650129659
0.171641913875
0.171608526542
0.171557585105
0.171498695979
0.171436408355
0.171371013758
0.17130371393
0.171236355299
0.171174002287
0.171124135554
0.171087702993
0.171059316243
0.171039853353
0.171031914178
0.146994603863
0.146995895187
0.147003625032
0.147018431944
0.147044295469
0.14708167355
0.147135402582
0.147189013821
0.147245762197
0.147316260913
0.147405423562
0.14751765875
0.147653079448
0.147812045755
0.147992079504
0.148187960751
0.14840256643
0.148637447813
0.148890679382
0.149161161847
0.149449239726
0.149757034289
0.150090202502
0.150454072556
0.150850826286
0.151280730098
0.151741898929
0.152232097346
0.152749274578
0.15329281125
0.15386208648
0.154458464924
0.155076463077
0.155699803507
0.156328404915
0.156967073663
0.157617576207
0.158283073074
0.15896331452
0.159656063535
0.160360571579
0.161079179026
0.161813097161
0.162558765293
0.163309569798
0.164058662541
0.164799918484
0.165527955281
0.166237871258
0.166924995714
0.167584522698
0.16821084948
0.168797413995
0.169337818789
0.169826194619
0.170255950205
0.170621805122
0.170922743274
0.171161621289
0.17134406342
0.171478066456
0.171573640826
0.171643078806
0.171696869414
0.17173114911
0.171744797944
0.171731446144
0.17168674625
0.171618910672
0.171541524179
0.171462756385
0.171382748446
0.171299166974
0.171215401763
0.171143947391
0.171090467163
0.171050049887
0.171014709412
0.17099316827
0.170985775965
0.146942759915
0.1469429932
0.146955591757
0.146971119255
0.146999864067
0.147039645374
0.147090106566
0.147144592867
0.147206175324
0.147279031563
0.147366876397
0.147479773703
0.147624135309
0.147791873259
0.14797130031
0.14816106654
0.148365754875
0.148591476439
0.148839777786
0.149108066349
0.149394303231
0.149702275677
0.150037227047
0.150403317337
0.150802241086
0.151233812616
0.151697767007
0.152190917346
0.152712115269
0.153259382682
0.153833105648
0.154431611075
0.155049424578
0.155676416148
0.156301820724
0.156936294896
0.157587947836
0.158257653952
0.158943516352
0.159643315886
0.160356181615
0.161082947496
0.161823671402
0.162575313947
0.163332278099
0.164088175459
0.164836899482
0.165572944972
0.166291308704
0.166987174225
0.16765547201
0.16829044256
0.168885581588
0.169434027692
0.169928643072
0.170362383763
0.170730620966
0.171033047609
0.171273248719
0.171457864071
0.171595955832
0.171698410997
0.171776704475
0.171831960566
0.171864758916
0.17187379332
0.17185281541
0.171794321724
0.171704835169
0.171602199455
0.171499382178
0.171394073041
0.171282942299
0.171179130868
0.171096591624
0.171035838277
0.170986461985
0.170946404651
0.170924732134
0.170916028686
0.146863866486
0.146870028077
0.146890496345
0.146913303978
0.146938543409
0.146979035663
0.147031563099
0.147088452209
0.147153738781
0.147229554611
0.147321677675
0.147438549533
0.147590839386
0.147758021786
0.147932925124
0.148114673317
0.148312971376
0.148536188296
0.148782413838
0.149045662434
0.14932907692
0.14963765101
0.149974174276
0.150341984738
0.150743390987
0.151178959757
0.151644243704
0.152140978129
0.152666962618
0.153221388479
0.153799274785
0.154398068685
0.155016618943
0.155639180013
0.156263765785
0.156898722263
0.157553495753
0.158228481022
0.158921000171
0.159628678326
0.160350473375
0.16108631747
0.161835457901
0.162594996244
0.163359957403
0.164124361785
0.164882205747
0.16562795616
0.166356563885
0.167063124096
0.167742403506
0.168388453785
0.168994467614
0.169552881916
0.170055746666
0.170496006735
0.170869758662
0.171177474013
0.17142335917
0.171614489928
0.171760300139
0.171871532037
0.171955593993
0.17201131329
0.172049898741
0.172054561115
0.172017357421
0.171936867836
0.171819717017
0.171684411104
0.171544944711
0.171399032672
0.171250454162
0.17112201101
0.171023762507
0.170950959784
0.170892197081
0.170852484767
0.170833924532
0.170825397007
0.14677044073
0.146782288536
0.146805684904
0.14683814575
0.146866089715
0.14690851019
0.146959791859
0.147019748914
0.14708976951
0.147163890968
0.147264625945
0.147394402315
0.147545217668
0.147709129243
0.147877308621
0.148051948882
0.148249329552
0.148473072641
0.148714454067
0.148972712245
0.149253931787
0.149562625113
0.149900538212
0.150271167903
0.150676010031
0.151114689562
0.151584204459
0.152081098763
0.152614592019
0.15317868581
0.15375842398
0.154354445092
0.154971061601
0.155591349039
0.156214871395
0.15685439264
0.157514623217
0.158195720268
0.158895568681
0.159611881642
0.160343361048
0.161089323057
0.161848436486
0.16261774345
0.163392599065
0.164167338993
0.164936116021
0.165693458353
0.166434337278
0.167153813693
0.167846536936
0.168506321884
0.169125912354
0.169697101524
0.170211548235
0.170662537573
0.171046907373
0.171365497988
0.171621945366
0.171822503933
0.171976446996
0.172094171438
0.172181603175
0.172242678894
0.172283315655
0.172293984975
0.172238061523
0.172125824475
0.171971430939
0.171791122111
0.171598248962
0.171394070528
0.171196193933
0.171033341703
0.170913009197
0.170826307604
0.170767007695
0.17073412105
0.170723825737
0.17072040999
0.146667285792
0.146682506172
0.146706378699
0.146734685448
0.14676994546
0.146821014288
0.146872953681
0.146934892276
0.147013088857
0.147092939781
0.147191920591
0.147330707063
0.147484505908
0.147643003868
0.147805371368
0.147979762764
0.148176627038
0.148397451437
0.148634303374
0.148889735168
0.149169383032
0.149477309933
0.149815057639
0.150187508285
0.150600007412
0.151040592748
0.151514780696
0.152019733895
0.152555022924
0.153120549621
0.153706142372
0.154307856249
0.15491395547
0.155529723079
0.156157929972
0.15680399425
0.157470928303
0.158159051942
0.158866950229
0.159592664645
0.160334719674
0.16109195278
0.16186258592
0.162643514589
0.163430223756
0.164217267232
0.164998988663
0.16577005281
0.166525507041
0.167260423486
0.167969380344
0.168645982929
0.169282593979
0.169870632102
0.170401783452
0.170869843632
0.171271918875
0.171607821909
0.171878276309
0.172088269873
0.172249071208
0.172374120839
0.172467996901
0.172531346673
0.172564291949
0.17257609858
0.17252732802
0.17237640992
0.172172721308
0.171932276096
0.171664094123
0.171378256161
0.171108690149
0.170894882207
0.17074613992
0.170653185278
0.170607970843
0.17059354542
0.170597153896
0.170602998329
0.14655270206
0.146570062411
0.146597855528
0.146625326128
0.146663451205
0.146715152261
0.146769556259
0.146831954476
0.14691067435
0.147007431461
0.147111815504
0.147251105434
0.147405994783
0.147560952644
0.147717821033
0.147895067126
0.148095210334
0.148311059343
0.148542466624
0.148795495029
0.149074777673
0.14938308869
0.14972109918
0.150092308557
0.150511295552
0.150960640669
0.151431895795
0.151944066315
0.152484772957
0.153054894329
0.153643666478
0.1542433028
0.154848363962
0.155461466759
0.156093810798
0.156747224334
0.157421945871
0.158118088289
0.158834849073
0.159570757365
0.160324352264
0.161094113431
0.161877857532
0.162672276134
0.163472875924
0.164274361392
0.165071278322
0.165858482119
0.166631141516
0.167384383906
0.168112800396
0.168809944016
0.169468087578
0.170078729415
0.170633959489
0.17112784326
0.171556247168
0.171915472806
0.172200707698
0.172418852176
0.172587841709
0.172727927852
0.172833199343
0.172893980612
0.172909334296
0.172890609113
0.172838867027
0.172707867593
0.172443273441
0.172121587986
0.171754238279
0.171351981242
0.17096545352
0.170673357261
0.170494027544
0.170414995048
0.170406489316
0.170427368792
0.17045228551
0.170470435713
0.146421701797
0.146438243566
0.146468530394
0.146501182009
0.146547839099
0.146594525634
0.146649879313
0.146714984466
0.146786536016
0.146892536143
0.147011278274
0.147151563662
0.147306963926
0.147462683753
0.147618943663
0.147797045968
0.147998745614
0.148211561503
0.148438941613
0.148688715675
0.148967037772
0.149277261878
0.149620383281
0.149991621238
0.150405957327
0.150868415367
0.151348352381
0.151860417355
0.152402998177
0.152968213499
0.153564151698
0.15416675493
0.154769952798
0.155385131817
0.156023042857
0.156684074584
0.157367277184
0.158072409643
0.158798953909
0.15954589913
0.160312024032
0.161095629089
0.161894141273
0.162703980968
0.163520611783
0.16433887173
0.165153527441
0.16595964104
0.166752516743
0.167527393442
0.168279029792
0.169001246725
0.169686777565
0.170327872527
0.170917283303
0.171448205884
0.171911859134
0.172299897899
0.172600724019
0.172828337367
0.173010146297
0.173184282615
0.173312385053
0.173366449607
0.173346367175
0.173269816399
0.173163425815
0.1730440357
0.172799509499
0.172397274305
0.171903923145
0.171322110345
0.170723169332
0.170308616433
0.170108099953
0.170081590851
0.170151078689
0.17023383263
0.170291426604
0.170328906825
0.146270400539
0.146283546446
0.146307822601
0.146349384052
0.146406790285
0.146454248223
0.146511158586
0.146582862808
0.146653265036
0.146756214752
0.146886086832
0.14703018006
0.147185503036
0.147343660254
0.147507100902
0.147688021985
0.147888520572
0.148098452099
0.148323466943
0.148570211481
0.148844831404
0.149153050702
0.149505646767
0.149888812727
0.150298089053
0.150760686369
0.151249565361
0.15175975457
0.152312176176
0.152883067311
0.153471380058
0.154070189716
0.15467581556
0.155299299078
0.155944945559
0.156614119098
0.157306436941
0.158021506674
0.158758882939
0.159517821754
0.160297470223
0.161096247858
0.161911259318
0.162738541806
0.163573473095
0.164411066571
0.165246344266
0.166074554329
0.166891103895
0.167691395455
0.168470582353
0.169223273858
0.169943567299
0.170625441635
0.171262211217
0.171843184607
0.172349597847
0.172778598571
0.17310204006
0.173341711484
0.173532947147
0.17378694269
0.173970255158
0.174017128515
0.17393921322
0.17377559463
0.173571683211
0.17339087838
0.173180384195
0.172787196891
0.172202242221
0.1713311842
0.170276270675
0.169669577735
0.169493088749
0.169607090568
0.169841131902
0.170032418778
0.170131343888
0.170204574389
0.146098384719
0.146108621936
0.146123988934
0.14617046669
0.146229150255
0.146284761284
0.146346067255
0.146425191984
0.146503501709
0.146605783475
0.146740644225
0.146887498159
0.147042452734
0.147199329419
0.147372347782
0.147563371712
0.147763367558
0.147971025532
0.148194969142
0.148440317117
0.148711142248
0.149012905023
0.149366200011
0.149770512397
0.15018685298
0.150638393894
0.151139007926
0.151655791576
0.152200316447
0.15277546737
0.153366016493
0.153963393969
0.154571821095
0.155203220316
0.155858022289
0.156536515959
0.157238774116
0.157964640993
0.158713983383
0.159486173871
0.160280496688
0.161095715969
0.161928930207
0.162775779842
0.163631449304
0.164491187751
0.165350356432
0.166204337874
0.167048522266
0.167878477612
0.168690043373
0.169479375882
0.170243269085
0.170978769944
0.171678892565
0.17232388681
0.172878760654
0.17339823341
0.173768595547
0.174022516602
0.174187377081
0.174710681959
0.175024839609
0.175032260859
0.174816807096
0.17448342604
0.174104575467
0.173769369598
0.173517687016
0.173260169096
0.172831475791
0.171489776531
0.169510774564
0.168620663863
0.16854694488
0.168960288245
0.16952496236
0.169890018534
0.169988647421
0.170137149751
0.145906709163
0.145918508651
0.145939061253
0.145974732883
0.146027985887
0.146089087945
0.146156050574
0.146239338374
0.146330407883
0.146435760329
0.14657465295
0.14672409154
0.146880168911
0.147036663357
0.147212589536
0.147413149399
0.147617361342
0.147826740976
0.148051457686
0.148297026662
0.1485663186
0.148862585854
0.149211074403
0.149627413109
0.150060188825
0.150509676536
0.151013834492
0.151539693599
0.152080459369
0.152652774329
0.153238774194
0.153836859011
0.154455432155
0.155096721925
0.155761416781
0.156450209795
0.15716357942
0.157901294546
0.158663479786
0.159450147364
0.16026066644
0.161093826922
0.161946911652
0.162815425638
0.163694395469
0.164579365621
0.16546613762
0.166350121094
0.167226427377
0.1680906964
0.168939759283
0.169772281284
0.170589410314
0.171392946753
0.17217340543
0.172899730592
0.173527518192
0.17430532858
0.174668791095
0.174788082167
0.174287869536
0.174459132335
0.174726572397
0.174768196977
0.174599485926
0.174328364184
0.174030273278
0.173764103508
0.173582654043
0.173656624447
0.173913615592
0.172879170004
0.167138456796
0.166021935175
0.166735934876
0.167964249976
0.169323683803
0.169933525778
0.169853340223
0.170203376487
0.145690740387
0.145704156763
0.145734958718
0.14576085341
0.145807657785
0.145870489191
0.145942107633
0.1460310833
0.146137411948
0.146245453298
0.146387304119
0.146539754913
0.146698591774
0.146858150046
0.147036496553
0.147241757702
0.147450607556
0.147664191275
0.147891586699
0.148138459853
0.148408157921
0.148702832347
0.149042726419
0.149457042487
0.149914902522
0.15037336839
0.15086626508
0.151407586395
0.151958176114
0.152515564143
0.153095585876
0.15369864353
0.154326241048
0.154978111888
0.155653958277
0.156354247459
0.157079631989
0.157830476275
0.158606857821
0.159409065527
0.16023717338
0.16109005459
0.161964913201
0.16285720101
0.163762026175
0.16467549238
0.165594023805
0.16651290954
0.16742642626
0.168329839595
0.169221449661
0.170103514005
0.170982724113
0.171866971872
0.172748366065
0.173634820985
0.173973817071
0.174182465942
0.174410683002
0.174560128978
0.174532129003
0.174488322649
0.174598267405
0.174595964128
0.174423966501
0.174145697622
0.173818932924
0.173483520129
0.173147504464
0.172751806523
0.171917948369
0.169597336471
0.167311365762
0.166904471055
0.167646166973
0.168854766152
0.170233994642
0.171052533981
0.169140507676
0.170498541425
0.145446072873
0.145459057119
0.145489083417
0.145517368668
0.14556206508
0.145626831629
0.1457012354
0.14579130614
0.145912269401
0.1460318148
0.146176517353
0.146332947406
0.146496409887
0.146661970687
0.146844609404
0.147052506525
0.147265057746
0.147483648962
0.147714899833
0.147964020699
0.14823476388
0.148530096446
0.148864391394
0.149271327121
0.149745500159
0.150223010019
0.150709095901
0.151244015866
0.151805201546
0.152368235571
0.152944311937
0.153549394919
0.154184680901
0.154847246659
0.155534948457
0.156247556765
0.156986047925
0.157751030457
0.158542976496
0.159362216139
0.160209278084
0.16108361432
0.161982401835
0.162900740688
0.163833827727
0.164779001415
0.165734049629
0.166693694729
0.167649795853
0.168596855052
0.169535991668
0.170473030541
0.171417718732
0.172385660807
0.173324238259
0.173528114868
0.173761435311
0.174031749789
0.174248890567
0.174378571362
0.17436734482
0.174295585243
0.174269249641
0.174177864428
0.173960686075
0.173640457874
0.173253403039
0.17281938475
0.172335027542
0.171690072879
0.170690794555
0.16919306032
0.167827249889
0.167244870868
0.1675379858
0.168375791055
0.169364992679
0.169784524523
0.170840458535
0.172374879287
0.145174560893
0.145186862514
0.145218393688
0.145247722943
0.145293464334
0.145359294889
0.145436114398
0.145524160569
0.145648697772
0.145785219201
0.145937914921
0.146100158384
0.146270268314
0.146445994913
0.146634003294
0.146844687793
0.147060953759
0.147285205124
0.147521105479
0.147773395094
0.148045827525
0.148341963188
0.148672997868
0.149070794354
0.149546498265
0.150052514618
0.150549307912
0.15107170761
0.151628016649
0.152193765065
0.152773656284
0.153385726011
0.154029732018
0.154702999284
0.155403160557
0.156129280875
0.156881827971
0.157662062289
0.158470745383
0.159308537322
0.160176116253
0.16107349523
0.161998398664
0.162945491975
0.163909474976
0.164889358856
0.165885542253
0.166892013581
0.167896442105
0.168891924953
0.169884228852
0.170881590087
0.171899081083
0.17287078115
0.173124316926
0.173361270242
0.173585706592
0.173814125604
0.173983155372
0.174063494122
0.174038329888
0.173940654116
0.173811312157
0.173616072912
0.173317692337
0.172918510852
0.172436154768
0.171879226726
0.171238910822
0.170453578847
0.169419982018
0.168134709755
0.166903447365
0.166192240131
0.166192283544
0.166754907608
0.167698423481
0.168960490842
0.171028470513
0.173285556853
0.144878821216
0.144889555024
0.144916883393
0.144950497851
0.145002095382
0.145069383926
0.145150378927
0.145238469158
0.145363198192
0.145510533825
0.14567079335
0.145838625569
0.146014184399
0.146203595054
0.146400877967
0.146614857233
0.146835718073
0.147067276135
0.147309133169
0.147565675839
0.147840676138
0.148137849516
0.148467006039
0.148857233709
0.14932810071
0.14985283805
0.150372130383
0.150891790254
0.151437588612
0.152000308184
0.152585714127
0.153205425127
0.153858804008
0.154542938805
0.155256314132
0.155997443695
0.156765705182
0.157562272966
0.158389083022
0.159246772942
0.160136404281
0.161058829392
0.1620122862
0.162990919034
0.163987574319
0.16500385851
0.166047733922
0.167111402464
0.168169197769
0.169215137918
0.170265311835
0.17133568202
0.172352455634
0.172643227798
0.172905877407
0.173138649991
0.17334064509
0.173508579016
0.173611741615
0.173626273281
0.173542377333
0.173371954197
0.173132480806
0.172814815452
0.17239975334
0.171882932774
0.17127008301
0.170563090021
0.169752483179
0.168818608376
0.167690270786
0.166373993058
0.165098412694
0.164170703664
0.163751367479
0.16382806027
0.164397928889
0.165574468043
0.167928895109
0.169950216058
0.144562409781
0.144571845655
0.144593515524
0.144632007636
0.144688715331
0.144757325787
0.144841863791
0.144934498444
0.145057083312
0.145210700325
0.145376490058
0.145548828569
0.14572719334
0.145925593698
0.146138142405
0.146358562723
0.146585165891
0.146825247544
0.147075937212
0.147338859843
0.147618143289
0.147916836866
0.148245369833
0.148629825572
0.14909076568
0.149615840388
0.150158925692
0.150692733295
0.151236680891
0.15179733141
0.152383012568
0.153008500063
0.15367115718
0.154365146578
0.155092839772
0.155850412144
0.156635038525
0.157449574888
0.158296175005
0.159175850067
0.160089363209
0.161038076292
0.16202150162
0.163035240009
0.164073345027
0.165137235594
0.166232067222
0.167344795136
0.168456082483
0.169561498446
0.170681086399
0.171785806191
0.172103279554
0.172377497264
0.172628362888
0.172836834973
0.17299143593
0.173085144482
0.173101544712
0.173024510426
0.172846959731
0.172572871053
0.172209531949
0.171754160804
0.171197004206
0.170532548237
0.169760086634
0.168877257289
0.167875697204
0.166742634046
0.165454876203
0.163987158913
0.162457334791
0.161070158065
0.159925846686
0.159004965193
0.158237426706
0.157447709325
0.156187376489
0.153424375105
0.14422677012
0.144236055972
0.144256282211
0.14429937231
0.144356652082
0.144424344044
0.14450783734
0.144606779716
0.144727174168
0.144884750782
0.145055323962
0.145232173856
0.145414419923
0.145616436139
0.145842372062
0.146073229311
0.146307889791
0.14655626294
0.146816934773
0.147089265508
0.147376037286
0.147677659426
0.148006644764
0.148387872816
0.148839674091
0.149358676391
0.1499133062
0.150464320923
0.151009723338
0.151570369212
0.152162896152
0.152792570072
0.153462318917
0.154168023007
0.154910771701
0.15568533847
0.156487908308
0.157321925877
0.158189794489
0.159093060941
0.160032688268
0.161010358913
0.162028321608
0.163086330271
0.164175873949
0.165286446005
0.166421954544
0.167582801925
0.168765546833
0.169944446654
0.17115463583
0.17150359871
0.171788969505
0.172053615943
0.172274734598
0.172431239227
0.172513458209
0.172514570825
0.172424446319
0.172232999021
0.171935058467
0.171531193883
0.171023817343
0.170411240534
0.169687516939
0.168846748971
0.167884192941
0.166793616954
0.1655651256
0.164185793731
0.162648577235
0.160893130092
0.15891942238
0.156831393932
0.154630704641
0.152168571994
0.149165981928
0.145266616094
0.140349907872
0.139272100788
0.143868666202
0.143878444598
0.143899781071
0.143947787987
0.144005066562
0.144071116401
0.144151094698
0.144254285265
0.144370867783
0.144530784827
0.144706302284
0.144887957454
0.145075348188
0.14528239024
0.145517039546
0.145758726667
0.146003466381
0.14626089227
0.146530666979
0.146813463939
0.147111031068
0.147418174465
0.147748469124
0.148128538839
0.148573371492
0.149084192051
0.14964114348
0.150204198918
0.150762626942
0.151327021904
0.151925113015
0.152561458909
0.15323596245
0.153947780182
0.154702780762
0.155497471338
0.156321600131
0.157177485234
0.158067980612
0.15899612442
0.15996436495
0.160975283872
0.16203607765
0.163146405513
0.164282981966
0.165431698726
0.166608168012
0.167838015942
0.16914883319
0.170431238547
0.170825068248
0.171132692182
0.17141898417
0.171654263676
0.171817875115
0.171897581216
0.171885233763
0.171774632975
0.171559331032
0.171233328192
0.170793058793
0.170237694571
0.169567108628
0.168778934882
0.167867733769
0.1668263009
0.165646159912
0.164316264943
0.162821434196
0.161141666059
0.159253832647
0.157106871041
0.154574321943
0.151596402618
0.14805559113
0.143550096925
0.137227583616
0.127262929131
0.108482674519
0.0627101681948
0.143480467053
0.143490703559
0.14351530531
0.143568891887
0.143627104169
0.143692273202
0.143771063559
0.143875621204
0.143987864725
0.144147694033
0.144327893641
0.144514424215
0.144707151053
0.144919485474
0.145160943989
0.145412940535
0.145670170254
0.145937899939
0.146216252358
0.146509073624
0.14681961755
0.147135881241
0.147468077277
0.147848174714
0.148289052733
0.148791246158
0.149343763736
0.149908501343
0.150483287369
0.151065271566
0.151668050026
0.152306192337
0.152988821755
0.153712727393
0.154474444809
0.155283413715
0.156130823315
0.157011416821
0.157928315364
0.158883698822
0.159882175711
0.1609335157
0.162049136304
0.163213181769
0.164389495505
0.165575780922
0.166812310464
0.168160834628
0.169714666791
0.170116548658
0.170412439223
0.170723949484
0.170981168827
0.171155661112
0.171237823772
0.171218639453
0.171091010615
0.170850357893
0.170492965931
0.170015506687
0.169415578436
0.168691646372
0.167841846129
0.166862314244
0.16574627498
0.164484050807
0.163062847031
0.161465596937
0.159669204131
0.157642527522
0.155343167274
0.152717822256
0.149573960851
0.145650007986
0.140702048485
0.13414290955
0.124735353333
0.110055995811
0.0852166314574
0.0437839190532
0.143051532424
0.143062182023
0.143090026172
0.143149567328
0.143208702336
0.1432766756
0.143356400159
0.143460731223
0.143572243716
0.14373317759
0.143918222476
0.144109617975
0.144307595968
0.144524810705
0.144771414942
0.145031454323
0.145303434869
0.145583687941
0.145871329662
0.146173789423
0.14649750221
0.146827794945
0.147163820806
0.147543148469
0.147982862738
0.14847862148
0.14902506419
0.149586759765
0.150166626236
0.150769972263
0.151392092012
0.152036121576
0.15271416673
0.153445149897
0.154223534785
0.155046572603
0.155914174522
0.156820252372
0.157765234829
0.158751762326
0.159787293472
0.160891300059
0.162067751894
0.163281378067
0.164504744885
0.165756367585
0.167092610007
0.168458424994
0.1694904408
0.169777177635
0.170015814311
0.170268363496
0.17045651263
0.170543913622
0.170521325856
0.170381772122
0.170120025116
0.169733275394
0.169219720697
0.168577664827
0.167805333162
0.166900541649
0.165859838609
0.164677373562
0.163343986643
0.161846604704
0.160167442096
0.158282507718
0.156159241141
0.153752978083
0.1510011662
0.14781246173
0.144051946521
0.139346081847
0.133207614585
0.125072524118
0.113830758551
0.0975913981424
0.073038427057
0.0391336435176
0.142573278993
0.14258628353
0.142615786716
0.142675657451
0.142739448889
0.14281612739
0.142901388593
0.143009131475
0.143127485866
0.143285656334
0.143475013005
0.143671442594
0.143874843505
0.144096831341
0.144347545925
0.144611895667
0.144895046699
0.145191632134
0.145491795719
0.145805680937
0.146141252033
0.146489369686
0.146837710083
0.147213718024
0.147652103706
0.148144178958
0.148685214729
0.149244159873
0.1498226111
0.150437847161
0.151081606453
0.151744265052
0.152426865068
0.153155411307
0.153940096331
0.154780250721
0.155669940092
0.156602880015
0.157576837732
0.158597749491
0.159683281016
0.16085168675
0.16208803307
0.163357882878
0.164660990457
0.1660453534
0.167476144232
0.168558729755
0.169052972097
0.169318992842
0.169542531947
0.169727371039
0.169822282396
0.169800929603
0.169654086976
0.169376753636
0.168966056751
0.168420938475
0.167740987214
0.166925449498
0.165972689775
0.164879686772
0.163641302435
0.162249372489
0.160691787668
0.158951564528
0.157005628134
0.154822933709
0.152361589548
0.149564489402
0.146352473485
0.142613101022
0.138184535385
0.132794166613
0.125873333128
0.11670237296
0.10443880178
0.0877277510073
0.0641414328392
0.0342898033934
0.14205099892
0.142067880476
0.142097948218
0.142151902728
0.142223537618
0.142309639217
0.142403640947
0.142519476071
0.142651210884
0.142806252435
0.142997126225
0.143198022292
0.143407162373
0.143634396316
0.14388978954
0.144159093134
0.144447867301
0.14475906878
0.145075109867
0.145403893124
0.145751624337
0.146117229444
0.146488462034
0.146872371875
0.147302559001
0.14778973673
0.148325440552
0.148882327313
0.149457623365
0.150075662017
0.150732184049
0.151419148165
0.152119041649
0.152848818896
0.153633594148
0.154481753374
0.155390791437
0.156352906526