/*--------------------------------*- C++ -*----------------------------------*\
| =========                 |                                                 |
| \\      /  F ield         | OpenFOAM: The Open Source CFD Toolbox           |
|  \\    /   O peration     | Version:  v1806                                 |
|   \\  /    A nd           | Web:      www.OpenFOAM.com                      |
|    \\/     M anipulation  |                                                 |
\*---------------------------------------------------------------------------*/
FoamFile
{
    version     2.0;
    format      ascii;
    class       volScalarField;
    location    "405";
    object      alphak;
}
// * * * * * * * * * * * * * * * * * * * * * * * * * * * * * * * * * * * * * //

dimensions      [0 0 -1 0 0 0 0];


internalField   nonuniform List<scalar> 
6400
(
0.856446049616
1.3234229928
2.06092658891
2.46409485086
2.85669816983
3.27200548144
3.87892184614
4.57529520709
4.83392108204
5.30636980162
6.46359756998
7.12312557317
7.64423133577
8.27884109637
9.14069847718
10.035146221
10.7663961482
11.4576577872
12.0485661538
12.3330545713
12.3460418512
12.430582503
12.8201765322
13.5383758802
14.3545349771
15.0605553055
15.5824418791
16.051144044
16.5867457661
17.2025772282
17.8442482973
18.2790488068
18.434702658
18.4625228545
18.3856294115
18.1455462199
18.0901735681
18.3676657786
18.2381918787
17.82409016
17.8427478903
18.4531779944
19.0946543175
19.4093633722
19.4725958877
19.3642974564
19.1571025241
18.9084200642
18.629092135
18.3366639001
17.9052466941
17.0236498194
15.9507632595
14.6919504473
13.7872243741
13.3981798853
12.5506893151
10.7558926594
8.78418216846
7.6140810391
6.28635277237
4.90122737684
3.42832567208
4.89351469441
8.99280125826
13.9723435102
16.9963066157
16.7351447864
14.7702564999
13.1511959866
12.2662189441
12.4251352229
12.9179311903
12.7709446468
14.7509554848
14.1725829869
16.0032296503
9.90817748067
12.8762993045
4.8162096366
3.11103444387
2.44510433249
3.01412103259
4.23246493548
4.00621382463
3.74460240949
3.84985302779
4.19984019766
4.72247502525
5.40230725995
6.2480038081
7.0906551051
7.81798867402
8.51197493846
9.21132008035
10.0229956786
10.8728270623
11.7052270329
12.7140448798
12.8005348738
12.572718559
12.5905514768
12.9019053765
13.5821555157
14.5958691196
15.2088617996
15.6840380533
16.2098821279
16.7717080989
17.3520691306
17.9479391819
18.5271611556
18.682396398
18.7165512062
18.6993680865
18.3013391309
18.3361725782
18.6323572507
18.4027370252
17.75498659
17.7230359128
19.3844342909
20.5756832045
20.7525074258
20.724623298
20.4521135205
20.0269298435
19.6228347847
19.034596985
18.4620808772
18.158957463
18.2095412364
17.5333158478
14.9174306994
14.2232198753
13.4204569806
11.5405906759
9.817866096
8.26136491728
6.74323206591
5.4261965547
5.32569542186
3.79691909716
5.19796354203
9.08128595258
14.954630433
18.7237798118
17.525414522
15.3884223563
13.479223241
12.7551453711
13.1280012314
14.1686080626
13.5762458583
13.3952206914
12.8447015642
11.6213501336
9.76446868377
8.19479194719
4.28190986613
3.1292939951
2.69843870522
3.19775800871
3.37335256852
3.76282925322
4.12346278409
4.06916469676
4.12563893171
4.63868022749
5.38372363338
6.22858451805
7.09074228739
7.86940196596
8.57346798268
9.13002983461
9.8565214404
12.7312044549
14.7926678351
15.0851990538
14.2365538657
12.3957491224
12.154463571
13.067604126
13.8075374925
14.4601280628
15.180170544
15.8061694784
16.336078312
16.875816068
17.4656059774
18.0093973215
18.7241552818
18.9029320314
18.5862445933
19.1013593177
18.71797338
18.2047669361
18.8499252871
18.6239488846
17.9954461778
17.9665218867
18.5942710319
19.2480600711
19.5773299642
19.6650343427
19.6010764332
19.4241101299
19.155368064
18.7968071974
18.3743241387
17.8929753256
17.2470943982
16.3195276836
15.4658198988
14.721036241
13.1709624688
11.454922906
9.86688951367
8.37657210323
7.00939639357
5.9060698088
4.88355107196
4.21463442455
6.26838817061
11.2677279932
15.8854975221
18.1697836933
18.3162843024
16.7504252134
15.085114307
14.3802081664
14.2626707173
13.5942666088
12.9859841672
12.9247051109
12.542525717
11.5277963317
9.88902642792
7.45742111823
7.62440698133
3.01539997837
5.39750510489
3.40322101998
3.44130337061
4.09248145555
11.7704681347
10.1130008541
4.81227761613
4.63578584509
5.39782482233
6.25364376897
7.12846967924
7.88314114596
8.64268422907
10.4721892046
12.6776834889
14.3249018681
14.5641756789
13.1068750772
11.8715702808
12.0203450194
12.4201626477
12.9750731122
13.7371166955
14.5541151219
15.3256633628
15.9926047145
16.4874526948
17.073542263
17.5491860207
18.3203779241
18.6904521679
19.3311630316
19.084665405
18.4361363475
18.8714764723
18.4677475991
18.061996132
18.0885971859
18.1356795795
18.3137522924
18.7657833679
19.2683667612
19.5921340086
19.7191530451
19.6915074055
19.5423821575
19.2938163126
18.9558275823
18.5387619714
18.0336675348
17.3952788876
16.5972652168
15.7035049957
14.6261831674
13.2064733285
11.5982308909
10.0442419854
8.63915935095
7.43956854534
6.50489456592
5.84617843242
5.78763304245
7.23281134669
10.5912898596
16.2477354589
19.8148906097
20.029424973
18.3860814564
16.0531996513
14.4537474326
13.65503776
13.7943353181
15.1349622488
15.0319239085
13.6789348047
13.4984955145
16.7436439897
13.1659272542
11.200102069
5.44769952208
7.41827111834
4.00821031573
4.32596658867
6.33750918297
11.6546253845
7.92026747498
5.11594003034
5.1424151888
5.62234139529
6.40451080477
7.30089393445
8.7297810914
11.1993605904
12.1880970769
12.4457078171
12.2156730574
11.6675715913
11.4740665275
11.9304856065
12.1620713042
12.4315550783
13.0562867573
13.8461213078
14.6936866895
15.5129860023
16.1255830818
16.8174640873
17.1933541053
17.9982966342
18.3356055691
19.6171819752
19.2200416405
18.5566898733
18.6949137747
18.1095602897
17.9841674812
18.0606661866
18.1988091876
18.3491493407
18.5712432784
18.9361962229
19.3444913073
19.6498517027
19.8002624077
19.8027524559
19.6802651124
19.4547118195
19.1399389909
18.7406999164
18.2454592381
17.6294917714
16.8768679341
15.9738744596
14.832703408
13.4052704086
11.8526224292
10.3914494438
9.14295700118
8.16786458733
7.50366072014
7.21055267625
7.5342871004
8.21949833287
10.6629506389
15.7343705672
19.8937371747
21.3179215325
20.1618614213
17.4188663065
14.9644023225
14.6229489622
16.8005609097
17.6240187163
16.5519311919
15.6017208225
18.1995030204
21.178944378
16.5242995694
15.6442689176
9.77049262945
8.90601598919
4.97880533397
5.65745760965
11.9230634021
11.3610012505
6.02379739985
5.63929653433
5.72664264769
5.96208303161
6.68712779546
9.48118138295
12.851774719
13.2043639334
12.7147755495
11.50287469
10.7846387877
10.870305501
11.7478640681
11.9258919478
11.9984407383
12.4885504333
13.2074825925
14.0503829418
14.8096554703
15.6483643722
16.6386838837
16.9071537983
17.9400526997
18.0042140979
19.6303365904
19.2880505041
20.2005114582
18.9522362563
17.8581368699
17.7034117051
17.9069759921
18.1486850043
18.3633783955
18.5630313181
18.8059001723
19.1286059864
19.4782323997
19.7621258502
19.9226567431
19.9478411637
19.8498000792
19.6498966572
19.3647530647
18.9970641168
18.5338798144
17.9526001768
17.2248346981
16.305418839
15.1359912497
13.7438905138
12.3008467983
10.9962998249
9.93469589181
9.17733010241
8.74942512565
8.81152071984
9.72923117143
9.00437770747
12.2722990013
17.5241391125
21.1511529169
22.5679053265
21.6595421312
18.3314991039
16.1746066582
17.9143780697
20.0580826304
19.501522817
18.4672447222
18.506958919
22.9953370175
24.5493003321
19.5821415414
19.3813476269
11.8550382414
8.60178351995
6.05814417643
5.70093118866
11.8171541246
7.98590345161
6.08226768899
6.17422224038
6.26335616309
6.93904982738
7.33221725365
12.7210793189
13.2882776656
13.2382873087
11.6351724579
10.2506867701
10.2690106211
11.6089128906
11.7596921769
11.5620342523
12.011021607
12.6045641713
13.3235119814
14.1639832041
15.1867138891
16.1943675071
16.6399398109
18.0574302341
17.9434912475
19.7440277374
19.2197802188
20.3412173139
19.4282294743
18.6505674128
17.561030075
17.5801938075
17.9494026626
18.2864384216
18.5425336821
18.7730738325
19.0338562824
19.3390101172
19.6554031478
19.9217853785
20.0864386784
20.128348084
20.0539681433
19.8849069682
19.6389040261
19.3162398015
18.899643761
18.3595389326
17.654501356
16.7362762665
15.5859166502
14.281119889
12.9929365005
11.8727430534
10.9795086967
10.3251598533
10.0132002849
10.1218749704
10.1793577364
10.4559351694
13.588232669
20.0238958217
22.5085550852
22.9184040092
21.884720782
19.6564462603
19.4094534897
21.9040708745
22.3038066041
21.4249653087
20.797346375
22.6980288135
25.3781510837
26.7968755944
22.2428327327
21.1092476375
11.4899939735
8.06810150634
7.13919012078
11.8830003584
11.8381556403
6.71295938691
6.67275518309
6.78106502623
6.91887867691
7.45043228047
12.5212995934
13.4153637261
13.3872235921
12.7678130165
10.2443299107
9.70518669823
11.3331987337
11.8015933555
11.3065024768
11.4186721357
12.06259554
12.8164194935
13.5497591797
14.4607767648
15.2734446959
16.6376198444
16.760968891
18.0355637689
19.6028403126
19.8373801751
18.8048990333
19.6525535807
19.6009984183
17.7932174278
17.4939028887
17.7038753818
18.0712353143
18.4333270793
18.7265099264
18.9865682296
19.264702288
19.5684635116
19.8693312788
20.1235920471
20.2895510638
20.3453053761
20.2963161408
20.1650079579
19.9685703708
19.7034266215
19.3459659224
18.8572833513
18.1886102993
17.3040958671
16.224752197
15.0573812156
13.9465915078
12.9684878399
12.106484962
11.4081007848
11.0921441228
11.1959012133
11.5370349453
12.2079730976
12.7733628653
20.0651090588
24.2263769663
24.3419645039
23.7986771183
22.9067446754
23.7531616254
25.0730861213
24.3529482941
23.6168050865
23.763302965
25.9946991804
26.6056490243
27.1395768079
24.2688511816
22.1413338086
10.6489354457
7.81984664735
7.78402574428
12.8135373948
10.6217193339
7.1687411703
7.31002965757
7.53877698502
8.94028856405
7.47519081753
13.2949478224
13.8832033048
13.391961637
11.3415018691
9.70235060198
9.83722171015
11.4415017181
11.4388984344
11.1548070116
11.4486847395
12.0599510027
12.9250414457
13.7850263479
15.1823589198
16.3829688225
16.5432908001
18.6413944363
17.808569667
19.8782727592
18.9450925761
20.3837809108
18.7298481669
18.0388923528
17.6475217187
17.6403963417
17.8831419144
18.2253455745
18.5890083697
18.9151781977
19.2101392492
19.5084817364
19.8177865451
20.114847721
20.3636183968
20.5302825035
20.5994700566
20.580152367
20.494728341
20.3579460276
20.1623220627
19.8776857288
19.4568215991
18.8500245931
18.0415024442
17.0850063886
16.0894875096
15.131868661
14.1679128094
13.1327591487
12.2801576931
12.089388466
12.6262297438
13.41026651
14.0583655712
14.4255867817
16.784517355
24.3843855283
26.1244830423
26.2291872572
26.9379831267
28.010550224
27.6435063868
26.5810478523
26.2959010629
27.1710441169
28.2482517104
28.0185234666
27.3583854585
26.3206363483
24.9447702717
9.94512183557
8.11533396209
8.95423880471
12.8334949849
8.32620537454
8.17413474674
7.95103457643
8.20153084982
11.6209389835
10.222163834
14.1251348265
14.1082867019
13.4034882927
10.4708163914
9.65925645245
11.3986653493
11.6979930026
11.1373324114
11.111100877
11.6223789554
12.1918302089
12.9995837924
13.7150739267
15.3615341814
17.6193545764
16.4368162787
18.5677251136
19.7366002235
20.1318637993
20.5400123799
19.2902474883
19.1489859065
17.6275919648
17.5181686781
17.7892895876
18.0779523582
18.4006191652
18.7557560742
19.1064779541
19.4410221604
19.7689684586
20.0909538743
20.3902235054
20.6386250574
20.808884802
20.8927403428
20.9070776067
20.8759568231
20.8093527556
20.6950863066
20.4986685741
20.1678517702
19.6572795954
18.973481267
18.1886931239
17.3735955584
16.466038809
15.259592184
13.8711073833
13.0586389212
13.4290213415
14.6288256147
15.7416640852
16.4592961306
16.7853121249
16.2166293893
16.8778408408
27.9192559129
30.7937149509
31.8978708888
31.7941612688
30.3616710242
29.3634527701
29.4982069419
30.4642572208
30.6420546347
30.2888632618
29.9316263606
30.2297638808
30.3923434836
9.73232129537
8.84092571837
12.5196723157
12.8659431347
8.22208093061
8.8853348319
8.57491014952
9.1742777733
10.9475166316
13.8661730051
14.8773125452
14.3047290029
13.5561342038
10.3291470222
9.7749949758
11.9619750776
11.7498192126
11.0692789529
11.1328878001
11.7712600662
12.6078441356
13.3532460301
13.9102042215
14.9545166365
17.7824888744
18.9217411161
18.0084090108
19.889552417
18.5981342165
20.5813688661
20.6888134468
19.0338504403
17.5421183344
17.6155839975
17.9710929687
18.2830495083
18.598038126
18.9433772954
19.3038181618
19.6755354903
20.0443528773
20.3886499343
20.6956317091
20.9474745319
21.1244786565
21.2271045688
21.2802118239
21.309429925
21.3209383879
21.299136353
21.2074511676
20.9931601827
20.6213099213
20.1190092994
19.5487606982
18.8630411568
17.7328118193
15.9803259731
14.4966023106
14.2691494697
15.6285153085
17.5363262581
18.8858209313
19.6085222098
19.6604476297
18.8878900726
17.5983243793
19.0109018851
32.4284461661
37.6592586486
36.40613862
34.012972649
33.0644776216
33.3044600178
33.800960555
33.8845783834
34.0367559038
34.4758397639
35.0300299778
35.6717368226
9.91341651953
9.62647516265
14.1113344143
13.4246984805
11.3336430762
10.0493173185
9.40436871271
10.6675086
10.2337413902
14.8075261164
15.4411131775
14.5630386843
13.5130818603
10.8186856367
10.5377814147
12.4502857212
11.7124483507
11.1123117234
11.2476700043
11.8159793466
12.781374126
13.8093958293
15.593861784
15.1044344899
17.2260477717
19.315423111
17.7899327206
20.1918852994
20.8154265905
19.4754160215
19.4998645016
18.017673392
17.8496123767
17.9433963267
18.2075603306
18.5140526641
18.8263138561
19.1642884432
19.5162388222
19.9052299868
20.3242423188
20.7132053402
21.0350200512
21.2901824426
21.4772178193
21.6044358174
21.7014641251
21.7943559465
21.8875170849
21.9647750373
21.9907160516
21.9218842604
21.7438386885
21.4878911237
21.1404676368
20.3687904731
18.6043472196
16.4908627923
15.5024436188
16.3777691309
19.03784962
21.528589362
23.0403585203
23.9058678844
23.8679277626
22.7913691841
21.0127801858
18.8233063809
28.3897654524
38.7136648189
41.5982123025
38.9183440555
37.9990425447
38.067227311
38.2264831126
38.1759291649
38.9173153341
39.665001815
39.579894524
39.7661054299
10.3992414652
10.2130337253
13.7655510916
13.8032280065
13.7727935119
11.0657167047
10.3676807864
13.6540172155
10.4497672807
15.6527934351
15.8676292383
14.8343515405
13.482100641
11.3284771104
13.4475178958
13.5309583191
11.8232813774
11.2915067272
11.4937700135
11.968859026
12.747026833
13.7771068255
17.0174519752
17.966594232
16.5948318872
19.4077135386
20.2273805372
19.6839781038
20.7867664644
20.9099523302
19.9480141199
18.0058271125
18.0430319368
18.2695145676
18.496463297
18.7712154979
19.0637730424
19.4147222777
19.7836962636
20.161364671
20.5985813064
21.0422863748
21.4053133929
21.6720767796
21.8696128048
22.0261685949
22.1720082108
22.3285308692
22.4989499531
22.6705036828
22.8178424034
22.9251102953
23.006772343
23.0532110013
22.8406766613
21.5775880763
19.0894609217
17.2804097457
17.4259057124
20.1201643763
24.2495263741
27.2286459005
28.6676261101
29.6451483853
28.8952691623
26.9802226059
24.5301366404
21.2273729888
24.1298597455
35.6724040529
42.8767801308
44.3029146958
42.7547383261
42.9551595554
42.8560269893
43.1796163298
44.3287334518
45.0567883392
45.0201570103
45.1872169263
10.9446114369
10.8337845532
10.5125814892
14.0604106555
14.2161299466
11.7072671318
11.2443537123
14.5492150745
10.9774475904
16.5061164856
16.2400401794
15.116505516
13.5724548677
11.5603068206
14.6276323979
13.9793372451
12.1507520691
11.6351442214
11.8233843236
12.2935612165
12.8387699096
13.6828105684
17.5877707754
19.0142518004
16.9024432686
19.4950524127
20.7639467668
18.9405940747
20.4111444775
20.3281836652
18.4193216406
18.3606971441
18.4878743621
18.6389192064
18.811490394
19.0849089952
19.3628860618
19.6601836322
20.0518266968
20.4708448072
20.9110344498
21.3779372364
21.7870471436
22.0863157636
22.3052949266
22.496287871
22.6923912321
22.9041427249
23.137685066
23.3855127664
23.6350002928
23.9440608052
24.3561115487
24.7397331616
24.3866486803
22.1357745045
20.0104278958
19.8882531123
21.6554857171
24.9865801536
27.5738648606
27.2117136446
23.655665597
19.5473570815
14.9070634226
13.3524718506
15.3102193736
17.2791793584
17.6597327831
17.6752899218
42.6147914257
46.3241752475
46.2020547461
43.481338908
43.3856260597
46.600090828
49.2534413468
50.7959828849
51.7245076658
52.2199313378
11.6646952318
11.7400395848
14.6615099911
14.6151932488
14.5614955089
12.2399885121
12.2261745647
15.2791736019
11.9014628342
17.2246329997
16.5819524636
15.412456729
13.7338067194
11.8882930757
14.8482003799
14.0412692337
12.480486783
12.0269592878
12.1702372156
12.5845262589
13.0876370276
13.7424499341
16.8650947141
19.8186006574
19.9081575973
18.7189358921
20.972083104
21.6227540263
18.8287534967
18.3185895756
18.31614375
18.5709843458
18.8033549572
18.9882198802
19.1891746648
19.4114630841
19.681983855
19.9929693731
20.3343285893
20.7793547265
21.2642945767
21.7498921615
22.1847370151
22.520063733
22.7801877847
23.0149045607
23.2590668942
23.524798928
23.7965242601
24.0553563421
24.3602646792
24.8770286359
25.6579697809
26.2851318399
25.1777773453
22.4115368419
19.9773893796
18.0137677434
13.7624146988
0.784757322082
0.0133021743924
3.84864909502e-05
1.09370206155e-07
1.89317756763e-12
1.48084911033e-12
3.59516111263e-12
2.42342283463e-11
1.1351177256e-10
4.19313054452e-10
2.66466893281e-09
2.0863762909e-09
1.81004486653e-07
0.000103021796891
0.0103558888893
0.78583702922
38.3695296351
50.6605841653
55.5184851536
59.5924197728
59.5210830603
12.3263286166
12.51219107
16.225574214
15.1586567916
14.4997230771
12.7913033596
13.1926582171
15.8541774148
15.8363939602
18.0974405704
16.9660907867
15.7868028487
13.9579089391
12.3653385535
15.0793634542
14.0534824048
12.8123446068
12.4298995006
12.5102186114
12.8510104848
13.3354336596
14.0181310473
16.2338144458
20.0708659318
21.3094295943
18.2269048693
20.518826244
21.6009200282
21.0331278718
18.876264536
18.4310228476
18.7869803562
19.1444213067
19.4068419409
19.5273155378
19.7604226414
20.0079199348
20.3304307011
20.6805702093
21.1124443665
21.634370902
22.1616364483
22.6079210688
22.9554153462
23.2681825269
23.6097306716
23.9474478086
24.2332022772
24.4163523836
24.6081853592
24.9529926831
25.5783727531
26.6823271687
27.1584827998
24.0265992252
16.8143687356
0.0210466500109
8.52287757548e-05
2.46467822806e-06
3.58811970469e-08
2.91527143588e-11
4.86440976574e-14
3.42894476824e-15
0
0
0
0
0
0
0
0
4.76907741721e-19
1.60851108158e-16
2.40598972616e-14
1.39587818943e-11
1.94969925856e-08
0.00105581197904
16.0337794748
51.1350177784
63.2573699682
12.8576715791
13.0669355846
18.4373534001
15.5481059306
14.1464026391
13.2853257163
13.8688586983
15.7540206992
17.4101990944
19.1080099318
17.4981837052
16.2833198108
14.419798627
13.1519937768
15.5195124789
14.2286525725
13.2340405417
12.8891232114
12.8897479379
13.1519260214
13.5711861428
14.209790241
15.9635159601
19.9342949678
22.2944544428
21.3634077594
19.9105329404
20.9367437484
20.6174149037
18.605542145
18.8918299771
19.293160636
19.7126371242
19.8805491982
20.0131214882
20.131787428
20.3989719834
20.6848286994
21.0541510608
21.4918767419
22.0123330444
22.5823553983
23.1102673914
23.475486954
23.82692759
24.2762199863
24.7219774046
24.9928729502
25.0640573505
25.1738531358
25.4622273692
25.9350764776
26.5609635803
25.9869716017
12.9040100379
3.04707245721e-05
9.99307093878e-09
4.04078516939e-10
5.50948893744e-12
1.51085159866e-14
0
0
0
0
0
0
0
0
0
0
0
0
0
6.14495570733e-18
6.10634987867e-17
1.33864419897e-15
6.49090061272e-14
3.60454605245e-10
0.30002929551
5.78354895773e-06
13.2655132113
13.461892985
20.5471348782
15.8252265172
14.0923640351
13.7523448197
14.6580501361
14.8686965893
18.3585895632
19.822551142
18.0202981268
16.796376617
15.0937708129
15.1520080266
16.1356488144
14.6533492106
13.8599225883
13.5578873891
13.3777772746
13.5415733155
13.8605441791
14.428735343
15.9055100957
19.7989562904
22.6917459172
23.0342458998
19.321701364
19.5493329216
18.9209353091
18.7138015819
19.1557622002
19.8067386773
20.2072265421
20.3796545428
20.515869229
20.7578370368
20.8436126219
21.1076062723
21.4562449197
21.8742193151
22.4663647268
23.0897860188
23.6416338592
23.9527330826
24.3218642172
25.7015051844
27.672078602
28.2264160904
26.8302787895
26.5719375233
26.7016666804
26.7257585723
26.1925420223
10.716461616
0.000243018278681
1.0902182075e-15
1.10167900455e-12
1.79763653177e-14
0
0
0
0
0
0
0
0
0
0
0
0
0
0
0
0
0
0
9.49376391432e-17
6.42902011463e-16
1.18556461153e-13
92.4322429065
13.6389930056
13.8031895149
20.2967666092
15.0298247249
14.169562815
14.1501744527
15.5576644968
14.6994997828
19.1458506273
20.5004412593
18.528116325
17.2805545055
15.6015810934
17.5083928936
17.0217514503
15.2863335237
14.5880372667
14.6453219508
14.092224836
14.1029149615
14.251356856
14.6756780934
15.9988949113
19.6469523677
22.5462825783
24.1526103715
22.4641726568
21.1935870579
20.2587709598
19.0142134091
19.472815789
20.5332171054
20.5895422048
20.8580588386
21.371211367
21.3050026434
21.3915816875
21.64396542
21.9924035157
22.3938415579
22.878157296
23.5453527301
24.2563725329
25.1683650354
26.4327906851
28.3104158871
29.7347624829
29.5075592494
29.362928972
30.2297424184
31.5052319635
32.7649244975
19.3116843501
0.000669340202711
8.79728868785e-08
1.19484042311e-09
0
0
0
0
0
0
0
0
0
0
0
0
0
0
0
0
0
0
0
0
0
0
2.92121585173e-16
2.12621753835e-05
14.1009941593
14.2473313381
19.8335856878
14.5140025636
14.3903678694
14.465874887
16.3153067948
15.0697595386
19.7999581611
21.1650743986
19.0411453532
17.7819499558
16.0347450475
18.1825426478
17.8370596679
15.9955924839
15.3004456583
15.4930058302
14.9594756337
14.8919208144
14.8575876376
14.9491752226
16.2581068599
19.6183277785
22.2549117376
24.4994626464
23.6974084004
21.5595386313
19.2307644303
19.5479490439
20.064814263
21.0776402587
21.6194936117
21.980097606
22.1978495638
21.9401795361
22.0106779949
22.2812832242
22.6253866111
23.0441479543
23.5117887503
24.2506344535
25.3923520367
27.1905162126
28.3557697188
28.5286881535
29.1650776901
29.6694257702
32.2077768739
35.6527705533
40.8248481373
33.1204745751
0.000887192465405
1.52991792041e-07
3.13794044155e-10
7.5975574253e-12
2.55024213685e-14
0
0
0
0
0
0
0
0
0
0
0
0
0
0
0
0
0
0
0
0
0
4.90920148773e-17
6.49532196453e-17
14.8203202571
14.9691680696
19.3558471946
14.6834205494
14.9113008838
14.8896170415
16.1628515647
15.7675107112
20.230852779
21.7903364535
19.5945325848
18.3418572309
16.6068663268
18.808943758
18.5846642725
16.8225229495
16.0901972799
16.3274597242
15.7963532503
15.8319434801
15.7681120001
15.3936100507
16.7208682553
19.765073041
22.1155942376
24.5983385651
24.1995387083
22.100627299
19.5984345439
19.734264856
20.7861306924
21.0646926888
21.4264287715
22.0556650952
23.1476992357
22.9589456698
22.9329422904
23.0024704941
23.2924418113
23.7982865396
24.383984726
25.2380939275
27.4320634116
29.4874609031
29.4810000103
29.4543827076
30.5881836978
34.4163244317
39.2174788654
44.8047023216
33.3224009192
3.17112030764e-05
1.3122837388e-09
4.3025477046e-13
2.69961794509e-15
5.47190679693e-15
8.40280698814e-16
0
0
0
0
0
0
0
0
0
0
0
0
0
0
0
0
0
0
0
0
0
3.62853489562e-18
1.64761107577e-17
15.9318420354
16.0284273859
19.4926052097
15.5689333212
16.0774289652
15.6968907007
16.3195031728
17.145618006
20.1246528158
22.2234691098
20.21994242
18.9828196539
17.2982079464
19.5242006241
19.3639843698
17.8303994109
17.0895474306
17.3310035519
16.6376840045
16.8796617675
17.0285113089
16.0980776631
17.22865497
20.0824337999
22.1581566803
24.418305737
24.4123718859
22.6123000187
21.9063826337
20.6276772557
21.2332249359
22.0963204119
23.1787351925
22.5943043199
23.1698392667
24.033942898
23.9254811294
24.1259685492
24.2632857456
24.620790568
25.3465399695
27.4177817309
30.6140107912
31.4362246539
30.9186889831
32.1132725745
37.286552718
44.377302712
49.703017907
6.86656729234
4.80441844268e-07
4.48557971054e-12
3.0691815059e-14
0
0
0
0
0
0
0
0
0
0
0
0
0
0
0
0
0
0
0
0
0
0
0
0
0
0
0
17.5177285964
17.3378200132
20.160176564
17.5087458735
18.1034395134
16.9286391811
17.1806554463
19.1809894596
20.2079151083
22.77180213
20.9775545861
19.7175626405
18.0875903942
20.2760719942
20.1379186696
18.9528961108
18.6271022218
18.6718976843
17.568124301
18.0420886062
18.6218410866
17.1631609323
17.5856264852
20.4724303494
22.3855225209
24.2315357817
24.582250838
22.6644380751
23.0969000629
22.2836790577
22.3906517675
21.5609874839
22.5631195939
24.0017686693
24.1096416526
24.6120692843
24.9233554845
25.1130111598
25.4640760646
25.8203378901
27.2721251494
31.093870098
33.5823396149
33.7053163907
34.3430001904
38.7310226287
47.089870416
51.2606275777
0.0974007671271
4.28754625304e-09
7.49553580719e-12
3.43211027557e-14
0
0
0
0
0
0
0
0
0
0
0
0
0
0
0
0
0
0
0
0
0
0
0
0
0
0
0
0
19.2179852665
18.5650550969
20.915663619
20.1506893043
19.8213592235
18.3895092596
18.147610903
20.3004544276
19.1522888224
23.176348026
21.8513782908
20.5388720801
18.9674160636
21.0447247036
20.8560826919
19.8800866499
20.8651398179
20.3069585231
18.6314077807
19.3627291922
19.993655672
18.5652778182
17.6056108239
20.415400392
22.5360597007
24.078523773
24.6239560938
22.705337779
23.4144897448
23.5896431052
23.6799000358
22.2977287664
22.887579793
23.7183534168
25.0465409973
25.8415370488
26.1731590246
26.2945149194
26.5828729571
27.5880818925
31.1125794168
35.0796185498
36.7563563072
37.494972958
40.2979055012
46.6459605776
47.033725336
0.00451578886749
1.1544589692e-08
1.67132292675e-11
5.85329531576e-14
0
0
0
0
0
0
0
0
0
0
0
0
0
0
0
0
0
0
0
0
0
0
0
0
0
0
0
0
0
20.0236379679
19.4325280019
21.3861546059
21.1689994368
20.8596956488
19.7949867856
19.3224798024
21.6850620988
20.1569326495
23.7158447568
22.7339972107
21.4111784268
19.9317660246
21.8499891286
21.5975771718
20.6621430515
21.8071418518
21.3792696941
19.6853367362
20.6920732098
20.6877851011
19.309859355
18.6995450882
18.8843645701
22.0253405808
23.5641029555
24.395426971
22.6681589447
23.4523373959
24.0906822842
24.7049256152
24.2845919735
23.0025278647
23.689083384
25.2321161043
26.6943803602
27.5404981979
27.9611487744
28.2574009697
31.1205815333
35.7299668753
38.9664003657
40.2508954592
41.7612512806
45.6818391722
42.3982845699
0.0160296359129
6.09883884535e-08
5.49383581904e-11
1.56467288337e-13
0
0
0
0
0
0
0
0
0
0
0
0
0
0
0
0
0
0
0
0
0
0
0
0
0
0
0
0
0
0
20.071792207
20.0054584021
21.6920586659
21.356656365
21.5367532208
20.9024869472
20.3607409658
23.0459938992
21.881838393
24.4308076312
23.6780726652
22.320254896
20.974484521
22.7065089775
22.4166351136
21.5936731154
22.5824535691
22.3207459021
20.817632039
21.7014256045
20.2228682651
20.0261540408
19.7337426598
20.0347083379
20.9089065583
21.8146121342
23.5419987284
22.5170503945
22.9110469189
24.0906233767
25.1351911155
25.6553164761
24.5963969111
24.4488162726
25.2918160059
26.6962401839
28.3378581597
29.6985762628
31.1346903443
35.5885042249
39.9853740122
42.4155396339
43.0413197735
43.5972144788
39.3254993468
13.6262977369
4.1365019688e-07
1.90831447957e-10
4.27480294895e-13
0
0
0
0
0
0
0
0
0
0
0
0
0
0
0
0
0
0
0
0
0
0
0
0
0
0
0
0
0
0
0
20.3254897709
20.4302244953
21.9864046773
20.3229978782
21.8277420417
21.5174468598
21.0723948678
23.6355400958
22.7189650943
25.1876811352
24.6771170301
23.2418843295
22.1059988453
23.6020104488
23.2852197017
22.6667282715
23.4292813796
23.374212423
22.0708943136
23.0959628832
21.5702185802
21.7400230617
20.9841505879
21.3047100545
22.8344178815
23.4298092866
23.1785872962
22.3092286718
22.3717865281
24.0443224298
25.1468392168
25.8834767557
26.0983928515
25.5418502724
26.8299969123
27.44367763
29.0037611674
31.3664594833
34.8126299065
39.9901350209
43.6980624178
45.0175500942
43.3740874973
38.1597004825
29.8571707932
1.56533841228e-05
1.60131670141e-09
3.64547582765e-12
0
0
0
0
0
0
0
0
0
0
0
0
0
0
0
0
0
0
0
0
0
0
0
0
0
0
0
0
0
0
0
0
21.0626817311
21.1364464725
22.2893100226
20.7539512884
22.0824493371
21.8577446679
21.5893040145
23.81714639
23.325301301
25.7536456746
25.6752891243
24.1215616057
23.3180452013
24.4953814455
24.127874869
23.7147093519
24.2422887828
24.519945987
23.372754208
24.4868962718
23.3608324763
23.88417489
23.5643138428
22.1881170082
23.4759407186
24.5010571206
24.5662765495
22.190148445
21.7499709222
23.9626290503
25.3104418989
25.4123973413
25.7665501845
25.8643029285
27.0470147855
28.0038265652
29.8197166991
33.1238880507
38.626960746
44.2710915489
46.9774042537
46.0835176419
39.5672052506
34.2629862097
0.0376271946958
1.82070870476e-08
2.54031087051e-11
1.03010170579e-13
0
0
0
0
0
0
0
0
0
0
0
0
0
0
0
0
0
0
0
0
0
0
0
0
0
0
0
0
0
0
0
0
21.9938924962
23.1360037063
22.7405056568
21.7795650608
22.6362474737
22.2616802295
22.0940559117
23.9790330826
23.8910477071
25.9653017573
26.6610216115
24.9250778055
24.4014117417
25.2213902757
24.9418681308
24.5043079285
24.4608688477
25.5731875891
24.7633696299
25.6996055108
25.3847560557
25.1847875921
24.9550309455
24.5074131595
23.6623203391
24.4866326206
25.5461295602
21.5802108612
21.2741171854
23.2251018841
25.363905693
26.07368896
26.6974188689
25.9104471436
26.8904991347
28.2684274874
30.2895059567
34.7626884693
42.3237309944
48.2524275608
49.6198357651
43.3550039837
38.8001589863
32.7496948424
1.37333177111e-06
1.72184575165e-10
4.39456450787e-13
0
0
0
0
0
0
0
0
0
0
0
0
0
0
0
0
0
0
0
0
0
0
0
0
0
0
0
0
0
0
0
0
0
22.7071595156
23.8817140993
23.4711181446
22.710586699
23.3672530714
22.8605804329
22.6736610027
24.2328518102
24.4507799273
25.909407193
27.5521385516
25.7206431606
25.0568753118
25.8300038306
25.8513077518
25.2311186342
24.6453244839
26.3236597748
26.2234736382
26.7586289544
26.7194166114
26.8031934094
25.3663396241
25.318609289
24.7970117016
26.1966518268
26.9216333856
23.7430310412
20.9001600002
22.2117702852
24.733547618
26.3505832514
26.8886475328
26.5599310935
26.5630047791
28.2091302114
30.27479666
36.0502531237
45.7669434384
52.2070030925
49.7680246852
40.5081531722
36.1088630722
0.0430982742577
5.90350864662e-09
5.07693309687e-12
1.70613784405e-14
0
0
0
0
0
0
0