/*--------------------------------*- C++ -*----------------------------------*\
| =========                 |                                                 |
| \\      /  F ield         | OpenFOAM: The Open Source CFD Toolbox           |
|  \\    /   O peration     | Version:  v1806                                 |
|   \\  /    A nd           | Web:      www.OpenFOAM.com                      |
|    \\/     M anipulation  |                                                 |
\*---------------------------------------------------------------------------*/
FoamFile
{
    version     2.0;
    format      ascii;
    class       volScalarField;
    location    "211";
    object      alphak;
}
// * * * * * * * * * * * * * * * * * * * * * * * * * * * * * * * * * * * * * //

dimensions      [0 0 -1 0 0 0 0];


internalField   nonuniform List<scalar> 
6400
(
0.832390779566
1.24947086366
1.91522910699
2.19771676927
2.48314620801
2.81109218644
3.379968742
4.04980222652
4.16576708145
4.46932426362
5.57939778779
6.05901474763
6.40892189644
6.89645047845
7.65550760933
8.43285507205
8.9951471267
9.54162194305
10.0386240773
10.2471152971
10.1464945846
10.0602298106
10.2414329529
10.7588757338
11.3730212073
11.8810573297
12.1938159455
12.4608017188
12.824114985
13.2941287736
13.8188441376
14.1180259271
14.1328655382
14.0483601928
13.8704114448
13.4766751765
13.2705318168
13.5291333066
13.2701664045
12.6536057379
12.485055793
12.9516215196
13.4721813879
13.717778456
13.7767207059
13.6986150793
13.5630054201
13.4386033406
13.3286034366
13.237244607
12.9919121169
12.1445820339
11.3139194615
10.3881945381
9.95859201056
10.2928916729
10.1015187333
8.76292741406
7.17373010574
6.5799238237
5.7066035867
4.74057307561
3.77309946639
5.4843534593
9.57074963536
14.5255857277
17.5272161331
17.2409996146
15.2341600297
13.5383005156
12.5656214706
12.6299514426
13.0445667647
12.8471141511
14.7795485113
14.1824168214
16.0026205809
9.9027847447
12.8746131467
4.81486570978
3.08059959665
2.38600135919
2.91645226079
4.10677138828
3.75613518728
3.33337522143
3.32068127306
3.5771666441
3.99076090282
4.54363138703
5.25836372558
5.97113041262
6.5725933836
7.14635659362
7.71423053811
8.38582880034
9.08792675563
9.81177888935
10.8804427615
10.8645125375
10.4746400694
10.2764050848
10.3111895658
10.7532393749
11.6541034984
12.0206942699
12.265561442
12.612834774
13.0162423395
13.4483580615
13.9071229648
14.4224449724
14.4451992107
14.3869779174
14.3089542875
13.6648266703
13.6176576942
13.8801526538
13.4546130538
12.485444903
12.23720936
14.5135911502
15.8889785976
15.9634523779
15.8972500137
15.5396150846
15.0179512319
14.6070974407
13.9809493515
13.4603750913
13.412332077
13.9822112822
13.7659255915
10.6096736994
10.4781791519
10.1497370653
8.46093934656
7.23517882714
6.2376563186
5.26608701618
4.50950683653
5.09312205018
3.99018846376
5.6735863242
9.62244562868
15.4417455578
19.171576316
17.9884697779
15.8162732858
13.8496202864
13.0367349014
13.3181237412
14.2785379022
13.6437799384
13.4261385187
12.85235152
11.6161962217
9.75514749698
8.18853233084
4.27454175098
3.03888812692
2.57141867476
3.05452174059
3.12220366843
3.36085404558
3.65060991039
3.56483937544
3.5266221089
3.92055538692
4.52910362272
5.23280255154
5.96471636615
6.62141362027
7.2107943658
7.64474781309
8.24570128051
11.4796630111
13.6329597577
13.8394506387
12.7745444367
10.3430328039
9.71824831992
10.5333767575
11.0394406091
11.4326746008
11.9571501679
12.4065695797
12.760742132
13.1420851002
13.6048500392
13.98964781
14.6947986724
14.7851807189
14.2256947431
14.9632525563
14.3506481165
13.4500251476
14.2938956814
13.794523343
12.7504153257
12.469369784
13.0065262224
13.5942841926
13.8745565964
13.9557983469
13.9200429561
13.8007799689
13.6179515038
13.3715971989
13.0866308594
12.7656639009
12.3199921478
11.6746243343
11.2719482333
11.0459440662
9.70472974035
8.35888271102
7.28926291818
6.35568211158
5.5345056746
4.93279869934
4.34249335305
4.01164469131
6.42944144948
11.5904291627
16.2860562764
18.6003575694
18.7198288994
17.1107872153
15.385942016
14.605795795
14.4169908994
13.694981274
13.0437561722
12.9489439446
12.5429845945
11.515465076
9.87303270633
7.43730607228
7.60738153074
2.81136336741
5.3066943725
3.1469277813
3.09079781402
3.70998396257
11.6851967032
9.99288120047
4.36081297581
3.94287929533
4.55985373841
5.25650153035
5.99227926596
6.62733388677
7.31955658171
9.35486159477
11.7047435271
13.3512858885
13.4347249323
11.5601285888
9.78749789002
9.7647791903
9.99703297804
10.3327790178
10.8923547768
11.5256518831
12.125216745
12.6332465142
12.9329740726
13.401264691
13.6867683558
14.4401096378
14.6139876382
15.3893544034
15.0310878099
14.01386735
14.6124709663
13.8488571125
13.0065407155
12.8540322811
12.7850985927
12.8447456262
13.1920646854
13.6119142505
13.8839002948
13.999507534
13.994595845
13.8971421845
13.7277620975
13.4959806416
13.2130957203
12.8756941901
12.4578248479
11.9527345315
11.4142496916
10.7103141627
9.67252017568
8.49719777321
7.44901155543
6.58425314906
5.89929310471
5.39672467869
5.03988494775
5.15281633496
7.01381615792
10.7924646346
16.5613622585
20.1482810234
20.3504131252
18.6744091518
16.3052262538
14.6483931423
13.7827789936
13.86789101
15.1715479301
15.04505361
13.6739595913
13.4821695942
16.728465312
13.1387000103
11.1625300291
5.25322948123
7.28785945915
3.58376617843
3.90590143818
6.11853373159
11.5634419214
7.65255484585
4.47069642458
4.42271642095
4.78032453355
5.41075649971
6.18249988418
7.67568054211
10.3742432162
11.3333402888
11.4673403435
10.9791838373
10.0201379988
9.46937732991
9.85391783544
9.91490201659
9.9488270914
10.3882062374
10.9991096695
11.6799590638
12.3489436422
12.7655492592
13.3672119397
13.5080625801
14.3293679889
14.389624289
15.9278787681
15.210883388
14.2670086385
14.5092499151
13.4532784344
13.0626483797
12.9378227957
12.9358260274
12.9795626932
13.0911403827
13.3494121983
13.6720080589
13.9238240742
14.0578247961
14.0763079913
13.9983754054
13.8449654526
13.6308926109
13.3639131699
13.0393297319
12.6457357565
12.1763619223
11.608820939
10.8356911431
9.80514136128
8.69474786346
7.7221612811
6.9710966996
6.43770616203
6.10515398473
6.02055169948
6.50563568041
7.59239072985
10.6258442321
15.9621804183
20.1678091498
21.5653955674
20.369291802
17.5881903066
15.0868982404
14.7001825287
16.8484436181
17.6500699674
16.5572528413
15.5893561462
18.1750312433
21.1496281915
16.4711987487
15.5808953637
9.60342597529
8.7112115082
4.43548192655
5.26448716811
11.8175606992
11.2265319852
5.44593167125
4.90591820433
4.95820835761
5.10677878644
5.74142913587
8.77579798785
12.3165376626
12.5849572815
11.9602243927
10.4322663691
9.28059988995
9.03270615604
9.91333231228
9.87791127153
9.66765164536
9.97950844498
10.5370373551
11.227871926
11.7912580335
12.4881854816
13.4624365205
13.4090585698
14.5589600575
14.2380568363
16.265496503
15.4314496223
16.645115742
14.9214648515
13.3210344095
12.8776713972
12.8968291787
12.9903804668
13.0822119602
13.1702534435
13.3035972545
13.5218155574
13.7850428373
14.0128801423
14.1507835554
14.1844558757
14.1227034493
13.987077449
13.7968540313
13.558312766
13.2640378617
12.8995744144
12.4410281724
11.8390608515
11.0280730795
10.0324564819
9.02054708441
8.15833064169
7.50379083556
7.08984713608
6.91903351189
7.22032926656
8.53227122222
7.87530925563
11.9082034125
17.5699506328
21.3143473666
22.723609834
21.7692453128
18.3960387425
16.2117776664
17.9541897685
20.090664981
19.512558873
18.4590152364
18.4757134251
22.9503178615
24.4943694879
19.4889484287
19.2775020577
11.6581944792
8.25596563002
5.39817660913
5.12742122152
11.6725769521
7.60413712645
5.3069410861
5.38151315004
5.44822960078
6.14012970648
6.44601424248
12.2996471708
12.7477969606
12.622165738
10.7606675814
8.91592062501
8.5999437473
10.0464673768
9.97551172965
9.40748761618
9.6689626816
10.0871837721
10.6424358044
11.3289254627
12.2581290748
13.2359518834
13.4049131479
15.0089313621
14.4148185504
16.6691255615
15.6305691045
16.9801405589
15.5801964958
14.5671667051
12.8522310272
12.6689037666
12.9009070059
13.1087987271
13.2381057634
13.3504495784
13.5018020887
13.704234937
13.9344585
14.1419722648
14.2780346323
14.3201333518
14.2729898714
14.1598725564
14.0018781962
13.8020660956
13.5465355785
13.2104893507
12.7554641271
12.1327148319
11.3201463662
10.3866365102
9.48216804443
8.72241045225
8.13554539768
7.73681344385
7.68795761963
8.10110992074
8.39597683635
8.95460674753
12.911228554
19.865510235
22.5126409586
22.9423920541
21.8666072618
19.6019868092
19.3861191073
21.9188195772
22.3101387047
21.4095116017
20.7594917361
22.6307576349
25.2864136718
26.6991065548
22.0918575372
20.9334028719
11.2216039578
7.52936466207
6.42490343478
11.6498897359
11.6235150962
6.00233925841
5.83797953548
5.91186406648
6.12549976443
6.63974206228
12.1299213887
12.9832992033
12.8487183201
12.1106135503
9.11941331914
8.1850844489
9.96244789096
10.2943012911
9.39328386768
9.22603259312
9.72242017543
10.3347421573
10.878434685
11.6557192251
12.3044958569
13.7731041331
13.5455263838
14.9056858587
16.5935595978
16.6751236005
15.056315744
16.0741862776
15.912942536
13.2405322461
12.7223693775
12.7694340453
12.9985442764
13.2315659388
13.3940611873
13.5297211625
13.6960499346
13.8987883609
14.1136098814
14.3055111997
14.4365022015
14.4838091803
14.4527076413
14.3683672313
14.2510391612
14.0981401629
13.8871269697
13.5814352492
13.1341088504
12.5100042487
11.7263603841
10.873100515
10.0624642145
9.33783164342
8.68084515233
8.20589493189
8.2347865677
8.73839986169
9.44642908907
10.4457662132
11.4909246744
19.6812114285
24.0123896106
24.1707581119
23.6210197864
22.7531042473
23.6839146616
25.0439906023
24.3089621937
23.5539036686
23.6694051043
25.8649976045
26.4348916463
26.9598580928
24.0312543069
21.8476208444
10.2715588
7.09083565867
7.06446203719
12.5404627372
10.2262786649
6.27091366725
6.41178492803
6.59186783491
8.26969281174
6.57140972165
12.9030492698
13.3945736226
12.8206837476
10.4874184097
8.34958264807
8.30035473144
10.0999760925
9.82043631578
9.1720844691
9.25274468625
9.70097039789
10.4722920024
11.1762755733
12.5386640501
13.7753366917
13.5671140517
16.0192173343
14.458276052
16.9614448192
15.2975661122
17.1912553497
14.7802255076
13.7533311868
13.0151052922
12.8337661791
12.9289820832
13.1256169478
13.3549515829
13.5490845767
13.7170116048
13.899734625
14.1065545668
14.3168563613
14.4996296423
14.623980758
14.6757412952
14.6651991251
14.6170801118
14.5476332049
14.4484201398
14.2877273617
14.0176185794
13.5878648131
12.9822447034
12.2485596202
11.4748508225
10.707052938
9.8840294076
8.96202039408
8.32072215661
8.61325349726
9.73583479664
10.9861218957
12.0277835773
12.8764687765
15.9990450372
23.9975244043
25.6882333469
25.8701684179
26.6964848074
27.8734406775
27.5317831995
26.4550268927
26.1527298507
26.9927085411
28.0205196519
27.7370206585
27.0357837975
25.9373100444
24.4918097433
9.40115628098
7.22367829036
8.27165821395
12.5225411086
7.57564639605
7.28540894881
6.98353444256
7.23294375426
11.0468673047
9.52164205926
13.729112925
13.5782413227
12.779238235
9.41440848068
8.19638242904
10.1818858109
10.3779106899
9.43970724149
9.10117719377
9.4402659288
9.82036533256
10.5325789492
11.0839329452
12.7249876305
15.2341987716
13.3651528788
15.8940112253
17.0048385138
17.1982520043
17.4722974688
15.6189500656
15.473143164
13.1676264903
12.845884078
12.9666378767
13.0969195782
13.2668165046
13.4810018579
13.6984279095
13.9065853076
14.1171235328
14.3334787842
14.5429726629
14.7210378284
14.8417424032
14.8983678753
14.9115236222
14.9073743249
14.8938324768
14.8543929195
14.7498763166
14.5227235281
14.1222669479
13.5523059311
12.8796978496
12.1604862665
11.3182075597
10.1319847916
8.71297502563
8.13716866208
9.28220256825
11.232966146
12.8569587456
14.0595725028
14.9403375067
14.940611585
16.0329372192
27.4271375481
30.2894537553
31.5542628705
31.5481690489
30.1224563343
29.1099694773
29.2303024771
30.1649686851
30.2828686747
29.8544501527
29.4139754441
29.6418627867
29.7567542844
8.98882600568
7.8268467548
12.0130493087
12.4286122092
7.22638827201
7.96189621409
7.51945704205
8.28987696387
10.1907426583
13.3224528917
14.4067486048
13.7068246637
12.8492503491
9.08668364617
8.26033006086
10.7977500876
10.3595748315
9.30327009791
9.10521759049
9.59189769144
10.3013469571
10.8538516836
11.2747212759
12.2581060665
15.3557022354
16.5126894711
15.0551969153
17.179271126
15.0965834595
17.5231064971
17.4842900426
15.2798701546
13.0051437234
12.935392993
13.1344758478
13.275584529
13.4290746428
13.6254620306
13.8464221151
14.0926764179
14.3453817876
14.5804087795
14.7929023099
14.9692521109
15.0890870486
15.1546856623
15.1961591816
15.2404166933
15.2878261506
15.313696506
15.2714766959
15.0953655398
14.7375219579
14.2201516422
13.6076754386
12.8639632731
11.6450284126
9.653267323
8.02012924783
8.3287848616
10.832256463
13.5177721928
15.3386651332
16.5673938798
17.2052309445
17.10276023
16.5000543136
18.2104712603
31.9270079419
37.2390559815
36.0143471308
33.5968622629
32.6183365928
32.8527045715
33.3327802044
33.3597345504
33.3990206346
33.7057279497
34.1594791538
34.7632387689
8.98225850749
8.53069474286
13.5572830409
12.834284793
10.5453377513
9.0750002151
8.23758648923
9.84096626924
9.27544653614
14.2456279926
14.8862717875
13.8851068747
12.6761038114
9.41090401569
9.0342362955
11.3197022108
10.2470029519
9.28495719477
9.20765750305
9.62632718389
10.5050021442
11.28390194
13.2769232341
12.3990496308
14.7151749457
16.8951314836
14.6559804535
17.5009838229
17.971013699
16.0146465726
15.9536857351
13.6773585774
13.3441371763
13.2558406588
13.3492081572
13.483987481
13.6260327465
13.8052283025
14.0028316475
14.2593918943
14.5687482714
14.8527933997
15.0738882224
15.2453173255
15.3672560244
15.4480585177
15.5226552547
15.6172080153
15.7264860618
15.8193705398
15.8411698714
15.7241810488
15.4314476393
14.9841108302
14.3910394098
13.3514785481
11.1318610211
8.46151406241
7.52527920804
9.49282477117
13.5549688386
16.6769941994
18.5167924438
19.8634291867
20.4637164245
20.1850673181
19.3588642756
18.0915200556
28.0766763356
38.2924058404
41.0783198691
38.2366262328
37.2299481408
37.3392518713
37.5611431087
37.474728211
38.0300645215
38.566336333
38.3215451438
38.4425806858
9.34333436879
9.06216909143
13.1330457815
13.1048371191
13.03203803
9.95566154084
9.09232312034
12.9751757438
9.31628030122
15.0829633571
15.2476469637
14.0804222267
12.5271014827
9.796886228
12.3312790059
12.4281625895
10.264146568
9.40626378559
9.44119981424
9.7849618745
10.4701089185
11.2191802591
14.8538815189
15.8793370833
13.9107717128
16.9990368247
17.7590388035
16.8890709295
17.9456649603
17.897191708
16.5525475708
13.6053273886
13.5331052414
13.573851755
13.6110422438
13.7067816786
13.8185788232
14.0145808382
14.2291238495
14.4513865846
14.769577585
15.1167866669
15.3833234093
15.5589030082
15.6811474202
15.7817472053
15.8947327167
16.0392284647
16.2048476716
16.3559150156
16.4353626799
16.3888885099
16.1945296478
15.8185760407
15.096115457
13.1951631428
9.57993464285
6.79133409307
7.51079568004
12.1548789012
17.5299529455
20.8187501894
22.4365947592
24.2100007898
24.3681014257
23.2616912174
21.821483623
20.252591938
24.4895369959
35.6156760677
42.5181795159
43.5232293802
41.5522846491
41.8257248853
41.9703664515
42.3547614849
43.1469084159
43.5256094712
43.326514678
43.4174539268
9.76002510846
9.60017606449
9.3319160053
13.3043271986
13.3880887623
10.4499229829
9.88607058208
13.7806104748
9.69902122754
15.9103616251
15.551131249
14.2827727799
12.508260605
9.93944900323
13.5397551544
12.7367325672
10.4588197311
9.68267957265
9.74196686743
10.1232099912
10.5598454181
11.137861646
15.4865374656
16.8562572231
14.128136485
17.1242849333
18.2793883406
15.8080814702
17.5589635122
17.1455378513
14.2028326937
13.9640271826
13.9535209866
13.9178874716
13.8868319658
13.9926590525
14.0854886298
14.1932915872
14.4371058838
14.7090366543
15.0116621601
15.3748396399
15.6933611969
15.9024992433
16.0384919324
16.1632408897
16.3156991077
16.5020356884
16.7136489902
16.9082500411
17.0158963933
17.0543973913
17.0052692515
16.7020338506
15.5203826427
11.7177391261
6.42031827839
4.85965320789
10.042474677
17.1489243549
23.3220168533
25.9444598614
24.7484962693
22.707559586
19.7997260894
18.1553428379
17.6793231632
16.861094552
14.8732550225
16.5627450869
42.1135202883
45.3766893772
45.7931008673
45.196693234
45.2508541575
47.5199385582
48.3458043323
48.6802723576
49.6787146696
50.1920060416
10.342128863
10.3933524718
13.8749826387
13.7753956405
13.6283185636
10.8372187255
10.8118076535
14.3845045988
10.5219052311
16.5888041275
15.8144076555
14.4877152535
12.5434503679
10.1965719654
13.701411278
12.6472458496
10.6630211979
10.0002318263
10.0424884876
10.3780625179
10.7920311958
11.2448071318
14.6014379106
17.6210040935
17.7230580859
16.1423837874
18.446305244
19.0390494835
15.3797175614
14.4250715668
14.0316798358
14.1284282271
14.1960834037
14.2060802811
14.2369087287
14.2698398202
14.3538250068
14.4869668864
14.6427713048
14.9443744987
15.297001313
15.668810957
16.0106151819
16.2598630773
16.4377883503
16.5953299923
16.7820835324
17.0229433111
17.2739745256
17.4445463731
17.5296408778
17.6662031004
17.7973942936
17.4771722102
15.0811248226
8.33523489654
2.46274664905
8.04010294006
16.2050054068
23.5260260059
25.7428671275
20.3273529161
11.9037204974
0.00142608206687
0.00111548562379
0.00270814258413
0.0182550221596
0.0855055046047
0.315857760826
2.00722670931
1.571613706
29.8914179301
50.769680583
51.0246007916
47.1789257435
51.0747768699
53.0225359016
55.6814305499
57.9650001826
58.2323782158
10.854524021
11.0314545183
15.3847098553
14.1872063673
13.3755605121
11.2572396123
11.7454880451
14.8052427169
14.8078076361
17.3824337324
16.098916711
14.7531491462
12.6097277301
10.6072675476
13.8635418839
12.5169016935
10.8912455252
10.3340192581
10.3220713844
10.5905567381
10.9956065747
11.5606180728
13.8097549218
17.8491370302
19.1218446
15.3282939673
18.0154342088
18.8877797551
18.1139295399
15.1632678363
14.1887240021
14.3257692247
14.5017477831
14.6056454996
14.4991114484
14.5612954088
14.6062832994
14.75512234
14.9210844233
15.1920031607
15.5855974635
15.9995814679
16.3428116501
16.6041104042
16.8471963058
17.1317895617
17.4204907287
17.6936207722
17.8449129056
17.9301129159
18.0372076582
18.191647829
18.5392354764
18.1692713978
12.0386629681
1.39017375582
5.90065345349
13.418881624
18.2248100899
13.7163429118
0.0219599914231
3.66423501495e-05
2.58293607841e-06
0
0
0
0
0
0
0
0
3.59242360382e-10
1.21165010986e-07
1.81237030282e-05
0.0105147921015
14.6865840583
59.2757764146
58.916449186
65.4696460753
65.5192765967
11.2528314461
11.4569465998
17.6668672187
14.4405752186
12.771086691
11.6434013787
12.3819607822
14.5405237663
16.3617406642
18.2981510806
16.5151512652
15.1225040957
12.8880023361
11.3491852018
14.2378001038
12.5584588262
11.2225014959
10.7330508266
10.6419256422
10.8364058754
11.1791285714
11.7159132968
13.4494008182
17.6987690626
20.0702963024
19.057147495
17.2854326744
18.191524695
17.4902811499
14.4667051483
14.6483793014
14.8491014796
15.1320783284
15.0566617448
14.9653856855
14.8484779716
14.9444568587
15.0202599078
15.2116536279
15.4809000789
15.8560867048
16.3169895947
16.780536994
17.0726264006
17.3719343856
17.7838563637
18.2108652661
18.5092096086
18.6155195266
18.6996121773
18.8061079188
18.8765424395
18.7054157959
17.5976613895
10.0050478984
2.28663738455
4.85455589007
0.304381974764
0.00415015659684
1.13808572814e-05
0
0
0
0
0
0
0
0
0
0
0
0
0
4.62883740319e-09
4.59975662341e-08
1.00836631424e-06
4.88942882057e-05
0.27152120184
73.6367748373
32.2943043798
11.5460012676
11.7361530616
19.8297926357
14.5851116112
12.5037263497
12.0188242882
13.1698404229
13.3703199993
17.3146272572
18.9370438421
16.9275579717
15.5068680029
13.3886822433
13.5086964978
14.7539690774
12.8586263669
11.7687612422
11.3588762397
11.0710710823
11.1744140227
11.4202164913
11.8901421369
13.3331356889
17.5611278303
20.4280327754
20.7198508496
16.1816733237
16.4014790878
15.1500979221
14.5562011132
14.8311648682
15.3806721276
15.6140535618
15.5017185233
15.3982257793
15.5084562086
15.3079417613
15.3562652942
15.5047963142
15.7357893083
16.2198841201
16.7356833423
17.2129623368
17.4602745259
17.8766959198
19.7899545855
22.4367919551
23.2650620812
21.5282005237
21.3036084144
21.4628033571
21.6198735175
21.2916091841
19.337481013
18.1965625596
8.21233391563e-07
0.000829866515799
1.35411345694e-05
0
0
0
0
0
0
0
0
0
0
0
0
0
0
0
0
0
0
7.15140866698e-08
4.84281582973e-07
8.93055390329e-05
54.4433542485
11.834632688
11.9963505173
19.4989524338
13.5151525192
12.4177318743
12.3268775865
14.0590957706
12.9936055553
18.0908003154
19.5555504806
17.3382194285
15.8769603263
13.7486108816
16.0269803738
15.5167978218
13.370167448
12.4153359656
12.4833980718
11.7294388406
11.6877268232
11.7688510053
12.0780508931
13.3867386381
17.4073221211
20.2604648575
21.8356440829
19.8704629738
18.4135345501
17.0056793369
14.9053467421
15.1594175405
16.2271745742
15.8743615496
15.8939236548
16.3717745336
15.9711677228
15.7881877788
15.8117082712
15.9509069635
16.1574436402
16.4580113671
17.0418266097
17.7471398401
18.9534854847
20.7546434563
23.2912651296
25.1866049066
25.1467987764
25.3972195435
26.8452160403
28.9304400283
31.9027896334
32.6591578823
31.0387757573
21.7440796827
0.900042621091
0
0
0
0
0
0
0
0
0
0
0
0
0
0
0
0
0
0
0
0
0
0
2.20047691819e-07
90.9319237658
12.2297121306
12.380386739
18.9332503376
12.7503148025
12.5401849233
12.5572954791
14.7846123615
13.2403085
18.701680549
20.1590228489
17.757295493
16.2726385537
14.0634949437
16.6111606632
16.2058779787
13.9557046219
13.0414982536
13.27830823
12.5412303777
12.4343110086
12.3531814739
12.2641505784
13.6206034958
17.3707907625
19.9457998791
22.1928166801
21.125103568
18.5907522251
15.3192196722
15.4460830344
15.8379116585
16.8550593434
17.1501042861
17.2257148913
17.1703383249
16.4886501894
16.3138906464
16.3753391092
16.4937594335
16.7132318866
16.9841570141
17.6444471622
18.9301370801
21.3580275158
22.9535349309
23.2307713667
24.3038901588
25.3517279712
29.1209700838
33.5875801682
40.1138128759
43.9466735276
44.4850842605
35.3837747353
0.236372998873
0.00572304499138
1.92103194107e-05
0
0
0
0
0
0
0
0
0
0
0
0
0
0
0
0
0
0
0
0
0
3.69797546939e-08
4.89275931139e-08
12.892878591
13.0483545038
18.2882571903
12.7455578897
13.0032228936
12.9009356518
14.425617456
13.8983064939
19.0553428771
20.7149405803
18.2165327241
16.7289119896
14.5318504707
17.165757856
16.8509473976
14.6851565933
13.7614975773
14.0715559061
13.3121762452
13.3360327121
13.2776906769
12.6390731133
14.0785539012
17.4939781537
19.7896981963
22.2856306144
21.5596411772
18.8753643218
15.503254414
15.5662710075
16.6714130845
16.5517085268
16.6111541644
17.04623492
18.1276497861
17.4595510795
17.2010807872
16.9722270388
17.029888623
17.3645065533
17.7707250273
18.4857376779
21.303918123
23.9652515912
23.9807733576
24.1527679161
25.8459132821
31.0073196017
37.7040107684
43.6343040244
48.2538676315
42.8076397787
0.988509656222
0.000324099874639
2.03355290318e-06
4.12184693507e-06
6.32961881761e-07
0
0
0
0
0
0
0
0
0
0
0
0
0
0
0
0
0
0
0
0
0
2.73328219821e-09
1.24110313184e-08
13.9547816726
14.0397794863
18.2339185902
13.5278036011
14.1587727693
13.6304619036
14.3659676377
15.3443172292
18.7731486142
21.052325974
18.7506927693
17.2706086705
15.1292748535
17.7994137397
17.5297730832
15.6117692407
14.7163564954
15.0584717027
14.0816383325
14.3568991094
14.5903441372
13.3170972155
14.5483947667
17.7648487433
19.8085567278
22.0506706364
21.7266772381
19.1977762688
18.2335267523
16.4946331503
17.1633901271
17.8685189296
18.8368027113
17.4900900742
17.821005016
18.5954530209
18.0761085043
18.0924423019
17.926765213
18.036293267
18.547354478
21.0575710598
25.1054574722
25.9958316714
25.3985236488
27.006235888
33.3532134538
42.0140479313
47.947120854
46.9447251199
33.1428505804
0.00337887205832
2.31193564744e-05
0
0
0
0
0
0
0
0
0
0
0
0
0
0
0
0
0
0
0
0
0
0
0
0
0
0
0
15.515741819
15.2628537491
18.6969649692
15.5002291931
16.2443685799
14.7902722283
15.0964573318
17.5181153651
18.6858259062
21.5066855886
19.428090363
17.9137887727
15.8392399139
18.4664758955
18.2025841849
16.6570506535
16.2803801114
16.4074611625
14.9333282278
15.5169570229
16.2650666271
14.407823843
14.8176045504
18.0891702059
19.9982974205
21.7870928462
21.8789964486
19.1103107972
19.4140027722
18.2153333122
18.4155191565
16.9295576966
17.6894658605
19.1012706042
18.7000543697
18.9404324211
18.9822418636
18.9225092601
19.077725758
19.1267864801
20.7253611009
25.5880943903
28.3915465596
28.3709819735
29.0281844945
34.0074724673
43.2357227872
48.9812699567
38.4239384741
3.22969853799
0.00564619472519
2.58532057383e-05
0
0
0
0
0
0
0
0
0
0
0
0
0
0
0
0
0
0
0
0
0
0
0
0
0
0
0
0
17.2132235713
16.3947005175
19.2600502188
18.2821294763
17.9214659628
16.2021199425
15.9269643089
18.5830440849
17.2323232366
21.8083376222
20.2363149804
18.6517851334
16.6553688693
19.1506981921
18.8245497267
17.5076618129
18.6919756918
18.0602676468
15.9201964286
16.8772919834
17.6391651734
15.8643580062
14.6239300612
17.9626618139
20.0933008555
21.5474068351
21.8732345171
19.0750875492
19.6219759392
19.5266943813
19.5635905839
17.5719358918
18.1360938525
18.4724275183
19.6192551502
20.1595273119
20.1672169112
19.9944080837
20.0101967959
20.9890766801
25.5324975982
30.1684279739
31.8460197709
32.4528087941
35.2091890585
41.714566495
44.4605812583
28.9264519518
8.69624308394
0.0125896466054
4.40913711667e-05
0
0
0
0
0
0
0
0
0
0
0
0
0
0
0
0
0
0
0
0
0
0
0
0
0
0
0
0
0
17.935281234
17.1837738704
19.569114496
19.2032720287
18.8624896109
17.5792971825
17.0186307103
19.9243822668
18.1399278632
22.2423203212
21.0491910883
19.4431795043
17.5692528307
19.8722727149
19.4770212204
18.2285841645
19.5657724094
19.0416140013
16.9084217996
18.2689627854
18.2315976583
16.4467202928
15.7682140858
15.9375001832
19.5508186743
20.9668150892
21.5829036229
18.9892296491
19.5814677469
19.927278906
20.4232953328
19.7773259947
17.8460198659
18.2831784178
19.706677557
20.9550399855
21.467677483
21.6547741574
21.6634858743
25.3679288245
30.919346755
34.4081511353
35.5642136683
36.8540367188
40.3743820854
38.8417332146
24.8797195877
20.4896002338
0.0413836550454
0.000117862792041
0
0
0
0
0
0
0
0
0
0
0
0
0
0
0
0
0
0
0
0
0
0
0
0
0
0
0
0
0
0
17.8477940048
17.7177421035
19.7702025962
19.2843874769
19.4720996071
18.6672154959
17.9873653878
21.2353292817
19.8577189755
22.8298228713
21.9180326321
20.2706389669
18.5718823095
20.6446796765
20.2084123552
19.1146010232
20.2618156047
19.902032702
17.9994800093
19.2065407674
17.3210264288
17.0541354085
16.7287922749
17.1282783631
18.0722713545
18.869706829
20.6547454656
18.8517935227
18.8199770877
19.8186958533
20.7592537671
21.0991204306
19.4877517885
18.9572290728
19.5112711216
20.6744667405
22.1044834098
23.3650522078
24.9702096637
30.5728535202
35.5128766681
37.9857223746
38.3210994873
38.5257040308
33.5973250599
26.2674818741
23.9527541812
0.143748431409
0.000322009933412
0
0
0
0
0
0
0
0
0
0
0
0
0
0
0
0
0
0
0
0
0
0
0
0
0
0
0
0
0
0
0
18.0146821117
18.1101015261
19.9897174636
17.9151771882
19.6900604456
19.2355591231
18.6384816672
21.7189952507
20.5921718736
23.4717374902
22.8520737027
21.1143626293
19.6775941036
21.4557320881
20.9905197773
20.1465421603
20.9988780439
20.8760872557
19.2085432485
20.5287118832
18.6173267212
18.8457119942
17.9376221198
18.3421262352
20.1312696372
20.714970507
20.240050946
18.677257009
18.0961214874
19.7262726568
20.7246551316
21.2303368027
21.1776937455
19.9855914328
21.3346314354
21.4063792105
22.6554091703
25.0694962921
29.1859459626
35.324502114
39.2899090521
40.4506264516
38.0684954729
30.558122186
28.2852262228
27.1387292214
1.20623076795
0.00274604336746
0
0
0
0
0
0
0
0
0
0
0
0
0
0
0
0
0
0
0
0
0
0
0
0
0
0
0
0
0
0
0
0
18.6973948828
18.7720204779
20.1806468959
18.2765517904
19.8602012738
19.5022922682
19.1017200749
21.7774758124
21.1285812912
23.9302975398
23.8030025736
21.9259203217
20.8852165277
22.2671772494
21.7531663864
21.1598714701
21.6941013685
21.9500387467
20.4728731094
21.8326032384
20.3976310269
21.0689093323
20.6981966192
19.0411521117
20.6077492335
21.7057903915
21.7885907092
18.5525676031
17.2476506356
19.6087893042
20.8344279996
20.4528450218
20.5159448477
20.2059837552
21.2594179922
21.7752421247
23.3746062957
26.9107774485
33.3836162287
39.7613815329
42.5203994268
41.1485720924
31.5941440266
28.9393874451
29.3998714048
13.6989822672
0.0191355097305
7.75949173914e-05
0
0
0
0
0
0
0
0
0
0
0
0
0
0
0
0
0
0
0
0
0
0
0
0
0
0
0
0
0
0
0
0
19.5714776078
20.9377136049
20.4954590994
19.2879649454
20.3408543989
19.8278380184
19.5533333241
21.8196807564
21.6406981297
24.0084425773
24.7614316256
22.6780286522
21.9618615704
22.889434683
22.5013710283
21.8924244174
21.7109388989
22.9453759089
21.860468178
22.9593624702
22.5023814847
22.2764865118
21.9888045955
21.5155869097
20.4907431964
21.4034451465
22.7229149237
17.5946976897
16.7097723765
18.6889416598
20.8125231774
21.1906937829
21.6941241642
20.1570602127
20.9506922414
21.9833755516
23.7184450422
28.6113183674
37.3304987397
43.81335563
45.1928906779
37.1523008822
30.7770854932
32.093604072
28.1565908923
0.12970222077
0.000331031264236
0
0
0
0
0
0
0
0
0
0
0
0
0
0
0
0
0
0
0
0
0
0
0
0
0
0
0
0
0
0
0
0
0
20.2185195448
21.6151353053
21.1511683434
20.1928306562
21.0176435315
20.3698044483
20.082132372
21.9612456041
22.1592429035
23.7975736554
25.6342001754
23.4512750885
22.5692184456
23.4010742734
23.3759840007
22.5619708212
21.7214733311
23.6390025185
23.3717456203
23.9334137798
23.7806948387
23.8318948508
22.0542115106
22.0252846598
21.4524370031
23.202674047
24.0488457306
20.2588042154
16.2605482957
17.520071913
20.1571857047
21.5013687639
21.6148724149
20.7690029961
20.4438755694
22.0107839207
23.6246480017
29.9440679639
40.9200213964
47.8342290308
44.6966524849
31.6442972136
32.5856056916
33.611620424
4.44696152991
0.00382432338515
1.2851898441e-05
0
0
0
0
0
0
0
0
0
0
0
0
0
0
0
0
0
0
0
0
0
0
0
0
0
0
0
0
0
0
0
0
0
20.7134399032
21.9641343836
21.7452660537
20.8114202048
21.702279208
21.088329233
20.7023492362