/*--------------------------------*- C++ -*----------------------------------*\
| =========                 |                                                 |
| \\      /  F ield         | OpenFOAM: The Open Source CFD Toolbox           |
|  \\    /   O peration     | Version:  v1806                                 |
|   \\  /    A nd           | Web:      www.OpenFOAM.com                      |
|    \\/     M anipulation  |                                                 |
\*---------------------------------------------------------------------------*/
FoamFile
{
    version     2.0;
    format      ascii;
    class       surfaceScalarField;
    location    "892";
    object      phi;
}
// * * * * * * * * * * * * * * * * * * * * * * * * * * * * * * * * * * * * * //

dimensions      [0 3 -1 0 0 0 0];
oriented        oriented;


internalField   nonuniform List<scalar> 
12640
(
-2.58636006122e-07
2.5899492551e-07
-4.84494882603e-07
2.26164663225e-07
-6.74163838699e-07
1.89897278489e-07
-8.30140660051e-07
1.56163034231e-07
-9.45840929316e-07
1.15859786983e-07
-1.0212649216e-06
7.5578550354e-08
-1.0763472756e-06
5.52261429943e-08
-1.15241381575e-06
7.61960450262e-08
-1.25041897109e-06
9.81238112207e-08
-1.34178764011e-06
9.14727111842e-08
-1.42447696251e-06
8.2777356651e-08
-1.50640197326e-06
8.20041288952e-08
-1.57832742423e-06
7.19975205422e-08
-1.63718362909e-06
5.89231354697e-08
-1.69038076777e-06
5.32594431476e-08
-1.74901345852e-06
5.86918386857e-08
-1.80860270614e-06
5.96446487256e-08
-1.8590045692e-06
5.045403567e-08
-1.89952745916e-06
4.05705644867e-08
-1.93784109811e-06
3.83586184038e-08
-1.98585108652e-06
4.80525990966e-08
-2.04293657389e-06
5.71261060522e-08
-2.09951976506e-06
5.66210220563e-08
-2.15121917632e-06
5.17347432604e-08
-2.19727879895e-06
4.60921873951e-08
-2.23822592306e-06
4.09778431237e-08
-2.27559745478e-06
3.74003208353e-08
-2.30876063172e-06
3.31906952707e-08
-2.33713266579e-06
2.83978573712e-08
-2.36169857214e-06
2.45906582834e-08
-2.38440000484e-06
2.27246240358e-08
-2.40457345943e-06
2.01959750229e-08
-2.42115269868e-06
1.66009079801e-08
-2.43685726549e-06
1.57256973223e-08
-2.45205654878e-06
1.52193649342e-08
-2.4657396472e-06
1.37029226555e-08
-2.47857502216e-06
1.28541114408e-08
-2.48936034825e-06
1.08034313621e-08
-2.49627155816e-06
6.92846545019e-09
-2.4992232135e-06
2.96891688802e-09
-2.50023452325e-06
1.0278186377e-09
-2.49768876842e-06
-2.52955891485e-09
-2.48808538524e-06
-9.58811056074e-09
-2.47310328532e-06
-1.49669976201e-08
-2.4545969603e-06
-1.84919233406e-08
-2.43203912286e-06
-2.25433356741e-08
-2.40485655992e-06
-2.71686431507e-08
-2.37218024378e-06
-3.26622333052e-08
-2.33381834819e-06
-3.83483835084e-08
-2.29180148323e-06
-4.20031587911e-08
-2.24849273666e-06
-4.32957547761e-08
-2.20055492529e-06
-4.79245201046e-08
-2.14079855848e-06
-5.97433419105e-08
-2.07040539872e-06
-7.03795065409e-08
-1.98949806734e-06
-8.08939901379e-08
-1.89608960121e-06
-9.33947008346e-08
-1.79810537176e-06
-9.79709415067e-08
-1.69752640158e-06
-1.00565178722e-07
-1.58589625824e-06
-1.11616544377e-07
-1.46281835575e-06
-1.23064162527e-07
-1.33313709576e-06
-1.29667059174e-07
-1.18565033074e-06
-1.47469220685e-07
-9.96884028751e-07
-1.88742343675e-07
-7.80779875269e-07
-2.16075273764e-07
-6.00209821715e-07
-1.80546757057e-07
-4.73351904674e-07
-1.26839843336e-07
-3.71588860431e-07
-1.01746712031e-07
-2.79191543566e-07
-9.23796278309e-08
-1.9214915225e-07
-8.70223665226e-08
-1.10144517861e-07
-8.19812374122e-08
-3.90547254841e-08
-7.10671739406e-08
1.52815578113e-08
-5.43133443853e-08
5.14728754109e-08
-3.61710790525e-08
7.19223912224e-08
-2.04289717341e-08
7.90040039986e-08
-7.06218748382e-09
7.67541979462e-08
2.26737543447e-09
7.09185502958e-08
5.8498672042e-09
5.52603384587e-08
1.56751659693e-08
3.52792320156e-08
2.00079638548e-08
3.52924131625e-08
-1.38219656679e-07
3.97435059279e-07
-3.19648879658e-07
4.07817582033e-07
-4.91194638003e-07
3.61630213282e-07
-6.62009551558e-07
3.27128754499e-07
-8.62914352036e-07
3.16919030622e-07
-1.00984891395e-06
2.22659402084e-07
-1.09434912815e-06
1.39869879956e-07
-1.17455842098e-06
1.56540851385e-07
-1.2623676591e-06
1.86054700487e-07
-1.35467452686e-06
1.8388379341e-07
-1.44096230362e-06
1.69157743423e-07
-1.51323959894e-06
1.54361254851e-07
-1.57707151937e-06
1.35903814143e-07
-1.63584112584e-06
1.17761745427e-07
-1.69132065012e-06
1.08806346152e-07
-1.75117822127e-06
1.18611549994e-07
-1.8074178585e-06
1.15942005565e-07
-1.84335474503e-06
8.64412171566e-08
-1.87530825476e-06
7.2571643608e-08
-1.92017427588e-06
8.32689138601e-08
-1.97732177932e-06
1.05244446047e-07
-2.04249547982e-06
1.22340900149e-07
-2.10315604999e-06
1.17321336528e-07
-2.15215334964e-06
1.00767616092e-07
-2.19611097013e-06
9.00841190975e-08
-2.23922599569e-06
8.41237653256e-08
-2.27711381693e-06
7.53185984778e-08
-2.30930830261e-06
6.54126961204e-08
-2.33762467276e-06
5.67416166635e-08
-2.3626672235e-06
4.96578952784e-08
-2.38431960393e-06
4.44018702982e-08
-2.40299818039e-06
3.8897154475e-08
-2.41822170581e-06
3.18474072368e-08
-2.43306508176e-06
3.05900985286e-08
-2.45016172075e-06
3.23376707262e-08
-2.46455755429e-06
2.81181942449e-08
-2.4765478362e-06
2.48643652906e-08
-2.48921138711e-06
2.34848712211e-08
-2.50071206761e-06
1.84478607836e-08
-2.50578796902e-06
8.06184805418e-09
-2.49623446815e-06
-8.50773487132e-09
-2.47751443161e-06
-2.12336854652e-08
-2.46230763742e-06
-2.47783453795e-08
-2.44964814593e-06
-2.76117134485e-08
-2.43483981446e-06
-3.32845531886e-08
-2.416681946e-06
-4.06870220908e-08
-2.39387107901e-06
-4.99642741973e-08
-2.36630273893e-06
-6.02167490485e-08
-2.33328051007e-06
-7.13557662175e-08
-2.2912295761e-06
-8.40406376898e-08
-2.23748346928e-06
-9.70274494528e-08
-2.17898545037e-06
-1.06409439278e-07
-2.12637752221e-06
-1.12337040831e-07
-2.06625184955e-06
-1.30491820836e-07
-1.98946498151e-06
-1.5766657778e-07
-1.9065855472e-06
-1.76260886903e-07
-1.81581148984e-06
-1.88730682685e-07
-1.71227003143e-06
-2.04093123205e-07
-1.59949198287e-06
-2.24380261317e-07
-1.47440562427e-06
-2.48136906366e-07
-1.3266641927e-06
-2.7739189151e-07
-1.16220304348e-06
-3.11910367885e-07
-9.7258864571e-07
-3.78330163095e-07
-7.66530834332e-07
-4.22106067221e-07
-5.81278535734e-07
-3.65776363389e-07
-4.36673899093e-07
-2.71427272509e-07
-3.34133402347e-07
-2.04271576422e-07
-2.50421280996e-07
-1.7607506398e-07
-1.69786931792e-07
-1.67637244188e-07
-9.14324242746e-08
-1.60315641807e-07
-2.31229532836e-08
-1.39353971224e-07
2.82771418236e-08
-1.05694464565e-07
6.37327272425e-08
-7.16049962488e-08
8.69592599428e-08
-4.36341619284e-08
9.82122628043e-08
-1.82940392633e-08
9.98283576027e-08
6.71847557198e-10
9.07442398693e-08
1.49563923117e-08
7.32783388003e-08
3.31591879753e-08
4.1136485418e-08
5.21690172001e-08
7.64548258114e-08
-1.74273247773e-07
5.71867434662e-07
-2.69848742047e-07
5.03576171835e-07
-4.70044573462e-07
5.62002465083e-07
-6.92081375652e-07
5.49331050663e-07
-8.93897507766e-07
5.18881235995e-07
-1.002763509e-06
3.31648035943e-07
-1.05943072463e-06
1.96660911957e-07
-1.14813372982e-06
2.45371980788e-07
-1.24968911766e-06
2.87726768492e-07
-1.3474543573e-06
2.81752176581e-07
-1.43707048226e-06
2.58862430888e-07
-1.51288234884e-06
2.30254022787e-07
-1.57736979521e-06
2.00467113479e-07
-1.63774557091e-06
1.78210107933e-07
-1.68652606932e-06
1.57654927932e-07
-1.68993938249e-06
1.22086012568e-07
-1.6670265046e-06
9.30802599445e-08
-1.68392593405e-06
1.03386890804e-07
-1.75624210336e-06
1.4493207896e-07
-1.87031217823e-06
1.97383702395e-07
-1.97952246975e-06
2.14498908543e-07
-2.04877975043e-06
1.91640497064e-07
-2.10001988273e-06
1.68600206809e-07
-2.15215127489e-06
1.52935412651e-07
-2.20031308368e-06
1.38279426018e-07
-2.24075731888e-06
1.24599756376e-07
-2.27652496845e-06
1.11115683331e-07
-2.30888036675e-06
9.77964125311e-08
-2.33733403177e-06
8.52217162527e-08
-2.36251071643e-06
7.48602373731e-08
-2.38317245693e-06
6.50876226744e-08
-2.40114581722e-06
5.68937818048e-08
-2.41842758924e-06
4.9151464435e-08
-2.42930694266e-06
4.14913304831e-08
-2.44228873149e-06
4.53398691915e-08
-2.4628278898e-06
4.86775375001e-08
-2.47695099688e-06
3.90065288252e-08
-2.48670597157e-06
3.32585289863e-08
-2.49886502371e-06
3.06246907549e-08
-2.50682616192e-06
1.60409476891e-08
-2.5080090991e-06
-7.30772394197e-09
-2.50316053533e-06
-2.60653624322e-08
-2.49220083097e-06
-3.57221951101e-08
-2.47694179227e-06
-4.28548890177e-08
-2.45815626312e-06
-5.20549685371e-08
-2.43527361275e-06
-6.35543858721e-08
-2.40823357031e-06
-7.69896757458e-08
-2.3766320319e-06
-9.18034480034e-08
-2.34002471926e-06
-1.0794884538e-07
-2.298594852e-06
-1.25455993666e-07
-2.25260851435e-06
-1.42999838195e-07
-2.199837999e-06
-1.59165673688e-07
-2.13481610238e-06
-1.77345020948e-07
-2.06162689727e-06
-2.03666754835e-07
-1.98711612068e-06
-2.32163585813e-07
-1.90588923158e-06
-2.57473712236e-07
-1.81146448428e-06
-2.83141604505e-07
-1.70380741501e-06
-3.1173601141e-07
-1.58382976303e-06
-3.44343634295e-07
-1.44995314609e-06
-3.8199775881e-07
-1.30047931074e-06
-4.26847585771e-07
-1.12045859803e-06
-4.91908939362e-07
-9.09695542843e-07
-5.89066843634e-07
-6.93474692801e-07
-6.38302774971e-07
-5.15172199264e-07
-5.4405858301e-07
-3.95993406453e-07
-3.90590800851e-07
-2.94863616801e-07
-3.05387046948e-07
-2.04842550608e-07
-2.66081697527e-07
-1.25198087912e-07
-2.47267046083e-07
-5.30084764229e-08
-2.32486546094e-07
9.49309289776e-09
-2.01839520715e-07
6.02685514268e-08
-1.56446428669e-07
9.7736582172e-08
-1.09052362782e-07
1.16503190241e-07
-6.23770144791e-08
1.21014964306e-07
-2.27820882297e-08
1.16086875605e-07
5.62271696941e-09
1.03871960281e-07
2.71872378196e-08
8.47180913711e-08
5.23323427089e-08
3.98543868153e-08
9.70677833397e-08
1.16312399661e-07
-1.26645820967e-07
6.98680725675e-07
-1.77018204567e-07
5.54070205047e-07
-3.99465399604e-07
7.84607918555e-07
-5.84115639997e-07
7.34136342668e-07
-6.11907305152e-07
5.46790627018e-07
-5.62086842434e-07
2.8189230612e-07
-7.57545838543e-07
3.92203776015e-07
-1.03666893789e-06
5.24610577933e-07
-1.21048950954e-06
4.61658995547e-07
-1.32855436768e-06
3.99915634657e-07
-1.42925127632e-06
3.59648308559e-07
-1.51429974514e-06
3.15383714204e-07
-1.57587442548e-06
2.62117514281e-07
-1.58729609413e-06
1.89701541249e-07
-1.55859544448e-06
1.29016498261e-07
-1.55358528396e-06
1.17130139176e-07
-1.61026856665e-06
1.49812898426e-07
-1.7218796773e-06
2.15045326787e-07
-1.84839558799e-06
2.71495615558e-07
-1.93616950296e-06
2.85204265559e-07
-1.99204551637e-06
2.70419388979e-07
-2.0491500206e-06
2.4878649739e-07
-2.10555141996e-06
2.25040492893e-07
-2.15506384042e-06
2.02483670779e-07
-2.19919639142e-06
1.82445518173e-07
-2.23886449345e-06
1.64298959331e-07
-2.27544863833e-06
1.47729352315e-07
-2.30824864177e-06
1.30624040572e-07
-2.33726509554e-06
1.14264687635e-07
-2.36126221032e-06
9.88824190855e-08
-2.3831025033e-06
8.69520336701e-08
-2.39935040505e-06
7.31646297339e-08
-2.41102369302e-06
6.08467614249e-08
-2.43149163385e-06
6.19803639025e-08
-2.44932230166e-06
6.31911737007e-08
-2.46429934247e-06
6.36741266895e-08
-2.48714523273e-06
6.18715321863e-08
-2.50470992541e-06
5.08416041731e-08
-2.51029209046e-06
3.62249995941e-08
-2.51069926535e-06
1.64655152977e-08
-2.50989800229e-06
-8.09189314054e-09
-2.50598423006e-06
-2.9962782193e-08
-2.49640909495e-06
-4.52811653132e-08
-2.48154975487e-06
-5.76986308104e-08
-2.46239579774e-06
-7.11933746232e-08
-2.43908590374e-06
-8.6849190804e-08
-2.41154185136e-06
-1.04518648139e-07
-2.37947754619e-06
-1.23853120124e-07
-2.34263826955e-06
-1.44773437395e-07
-2.3009310887e-06
-1.6714886204e-07
-2.25361429259e-06
-1.90302066745e-07
-2.19853035781e-06
-2.14235241109e-07
-2.13436630157e-06
-2.41494443478e-07
-2.06392450626e-06
-2.74094286132e-07
-1.9872465586e-06
-3.08827259728e-07
-1.9005839724e-06
-3.44122299157e-07
-1.80123002181e-06
-3.82481338835e-07
-1.68741855789e-06
-4.25532998148e-07
-1.55729122356e-06
-4.74455613803e-07
-1.40771038648e-06
-5.31561332935e-07
-1.23282696773e-06
-6.01710731795e-07
-1.03329329861e-06
-6.91418904634e-07
-8.42722050413e-07
-7.79616063423e-07
-6.66477422254e-07
-8.14525036872e-07
-4.83091167169e-07
-7.27428495752e-07
-3.37634829677e-07
-5.36032158761e-07
-2.30604532311e-07
-4.12405447472e-07
-1.44028536637e-07
-3.52646336144e-07
-7.06838396418e-08
-3.20597481463e-07
-2.749412284e-09
-3.00408704966e-07
6.21166994127e-08
-2.66681457217e-07
1.10786696902e-07
-2.05098982646e-07
1.31190549967e-07
-1.29431099693e-07
1.35285626928e-07
-6.64518725292e-08
1.33982806663e-07
-2.14592440828e-08
1.21987568348e-07
1.76368931542e-08
9.52797788236e-08
5.39148325108e-08
6.7748305414e-08
7.98768168876e-08
3.61415986389e-08
1.28678878263e-07
1.52470812733e-07
-3.24329815198e-08
7.31184224698e-07
-1.56636675876e-07
6.78367029557e-07
-3.37628606422e-07
9.65726695285e-07
-4.81262538961e-07
8.77886182763e-07
-4.7554741001e-07
5.41159570042e-07
-5.88393824473e-07
3.94804490064e-07
-8.23145442006e-07
6.27047699441e-07
-1.00175026157e-06
7.03320374392e-07
-1.1537642669e-06
6.13775135441e-07
-1.28751406179e-06
5.33758913246e-07
-1.40627207456e-06
4.78493222727e-07
-1.47740452529e-06
3.86593150271e-07
-1.47322122643e-06
2.58002140678e-07
-1.46019303979e-06
1.7673380137e-07
-1.50487230723e-06
1.73751917754e-07
-1.60091012603e-06
2.13222174404e-07
-1.72241145284e-06
2.71367211429e-07
-1.82524560354e-06
3.17931147562e-07
-1.88705326506e-06
3.33352579398e-07
-1.93470243115e-06
3.32900154768e-07
-1.99173551008e-06
3.27496606483e-07
-2.050968114e-06
3.08060548921e-07
-2.10562386983e-06
2.7973455696e-07
-2.1542794317e-06
2.51174831463e-07
-2.19770430644e-06
2.25903414059e-07
-2.23800452617e-06
2.04630165276e-07
-2.27376806423e-06
1.83521709999e-07
-2.30718445839e-06
1.64067864749e-07
-2.33509060347e-06
1.42196948892e-07
-2.35883307102e-06
1.22649903653e-07
-2.37516218109e-06
1.03304725174e-07
-2.39452685793e-06
9.25516620754e-08
-2.42161515821e-06
8.79565429649e-08
-2.43910238441e-06
7.9488450306e-08
-2.45935579446e-06
8.34646035136e-08
-2.48333799704e-06
8.76758820133e-08
-2.49993722186e-06
7.84896375776e-08
-2.51034997664e-06
6.12727699341e-08
-2.51497211929e-06
4.08648736933e-08
-2.51574299041e-06
1.72537065772e-08
-2.51474790943e-06
-9.07023858754e-09
-2.51083057422e-06
-3.38637026246e-08
-2.50180041629e-06
-5.42953694479e-08
-2.48731784785e-06
-7.21654081731e-08
-2.46806344199e-06
-9.04323119802e-08
-2.44441201439e-06
-1.10485257312e-07
-2.41638382056e-06
-1.32531805767e-07
-2.38378176814e-06
-1.56440214363e-07
-2.34635909545e-06
-1.82181426558e-07
-2.30376169311e-06
-2.0973139662e-07
-2.25504848061e-06
-2.39000522911e-07
-2.19873339229e-06
-2.70535220735e-07
-2.13434151349e-06
-3.05871404088e-07
-2.06279286003e-06
-3.45628044852e-07
-1.98294300579e-06
-3.88662515597e-07
-1.89145540356e-06
-4.35595329877e-07
-1.7849940333e-06
-4.88927880984e-07
-1.66009448137e-06
-5.50417175446e-07
-1.51295021548e-06
-6.21583086869e-07
-1.34007331007e-06
-7.04419648574e-07
-1.14284155074e-06
-7.98921453077e-07
-9.41908485973e-07
-8.92332185934e-07
-7.70085562387e-07
-9.51417601991e-07
-6.01116295196e-07
-9.83478836594e-07
-4.41441547846e-07
-8.87085489332e-07
-2.96584204542e-07
-6.80878645052e-07
-1.73391269867e-07
-5.35587883212e-07
-7.65410831938e-08
-4.49485936079e-07
-2.72049394811e-10
-3.96857728032e-07
6.89114432028e-08
-3.69570851499e-07
1.28378867144e-07
-3.26136557854e-07
1.54055225816e-07
-2.30748148017e-07
1.58798240005e-07
-1.34159646811e-07
1.62122079847e-07
-6.9757112062e-08
1.56671420716e-07
-1.59908276942e-08
1.34347638086e-07
3.99776074678e-08
1.05832852824e-07
8.24358642652e-08
7.43508256217e-08
1.11367049567e-07
3.52300489936e-08
1.67825068303e-07
1.87699398604e-07
-1.86739210544e-08
7.49938725552e-07
-1.84925309324e-07
8.44700117782e-07
-2.92163535561e-07
1.07306640701e-06
-3.66618070673e-07
9.52432508362e-07
-3.7304135004e-07
5.47640802015e-07
-6.27833911076e-07
6.49672577386e-07
-8.57369699741e-07
8.56679698536e-07
-9.7562328934e-07
8.21669710282e-07
-1.10733300995e-06
7.45574677247e-07
-1.23090832035e-06
6.57425631235e-07
-1.30282898356e-06
5.5049441188e-07
-1.27901657489e-06
3.628451809e-07
-1.28302259859e-06
2.62063408621e-07
-1.36300519129e-06
2.56769723835e-07
-1.48695254797e-06
2.97754075214e-07
-1.63613893774e-06
3.62464874331e-07
-1.75881083174e-06
3.94094454224e-07
-1.82628112282e-06
3.85453909615e-07
-1.87361216763e-06
3.80733053266e-07
-1.93448239787e-06
3.93817374189e-07
-1.99590804685e-06
3.88966441993e-07
-2.05121825297e-06
3.63411701572e-07
-2.10357965532e-06
3.32133963243e-07
-2.15353292963e-06
3.01163195442e-07
-2.19809669042e-06
2.70499800946e-07
-2.23304370395e-06
2.3960751202e-07
-2.26947252494e-06
2.19979141589e-07
-2.30199246194e-06
1.96614845878e-07
-2.33054112754e-06
1.70771259019e-07
-2.34748238985e-06
1.39615399211e-07
-2.36504867865e-06
1.20894025564e-07
-2.38721001124e-06
1.14734865861e-07
-2.40885811677e-06
1.09625497229e-07
-2.44580695559e-06
1.16457602746e-07
-2.4775578147e-06
1.15235379905e-07
-2.49669233634e-06
1.06829739311e-07
-2.50874602859e-06
9.05620788499e-08
-2.51672241576e-06
6.92672746884e-08
-2.52100708033e-06
4.51671334786e-08
-2.52226678796e-06
1.85304410947e-08
-2.5212797537e-06
-1.00406745474e-08
-2.5171965205e-06
-3.79307355784e-08
-2.50836626663e-06
-6.31096397745e-08
-2.49417702204e-06
-8.6338900831e-08
-2.47495111608e-06
-1.09642610528e-07
-2.45104138602e-06
-1.34379611398e-07
-2.42252629195e-06
-1.61031644351e-07
-2.38924581294e-06
-1.89705626972e-07
-2.35091099929e-06
-2.20501059227e-07
-2.30705241036e-06
-2.53574863778e-07
-2.25682627264e-06
-2.89211035963e-07
-2.19923676969e-06
-3.28109187904e-07
-2.13380799847e-06
-3.71284499398e-07
-2.06009018252e-06
-4.19330503124e-07
-1.97586866097e-06
-4.72869122255e-07
-1.87727993684e-06
-5.34169013882e-07
-1.75989710709e-06
-6.06295349892e-07
-1.61906611632e-06
-6.91231988057e-07
-1.45117979308e-06
-7.89452331204e-07
-1.25728927664e-06
-8.98291351184e-07
-1.0492179911e-06
-1.00697441943e-06
-8.51173728058e-07
-1.09035661403e-06
-6.77578907671e-07
-1.1249989055e-06
-5.11071929322e-07
-1.14996833043e-06
-3.52632277368e-07
-1.04551551713e-06
-2.24068677456e-07
-8.09429779953e-07
-1.02750905482e-07
-6.56895745219e-07
2.44633367952e-09
-5.54673167986e-07
8.8072534817e-08
-4.82465013276e-07
1.56820065601e-07
-4.38309045721e-07
1.89914532764e-07
-3.59202868047e-07
1.91348666691e-07
-2.32174024504e-07
1.96140773186e-07
-1.38933252104e-07
1.99420020606e-07
-7.30241476584e-08
1.88353912074e-07
-4.91193880008e-09
1.59216399553e-07
6.91235234997e-08
1.22913399562e-07
1.18751054653e-07
8.51610239703e-08
1.49130256468e-07
4.29819286152e-08
2.10001266252e-07
2.30696330897e-07
-7.39157045209e-08
8.23901252003e-07
-2.59927034929e-07
1.03078647258e-06
-3.55300501189e-07
1.16852240298e-06
-3.31603942144e-07
9.28810659894e-07
-4.42733882156e-07
6.58833670018e-07
-7.08406696162e-07
9.1543115782e-07
-8.40570891144e-07
9.88935281703e-07
-9.46181897456e-07
9.27364777115e-07
-1.04704051851e-06
8.46521884569e-07
-1.17439356832e-06
7.84855404705e-07
-1.18620716083e-06
5.62376949473e-07
-1.17909805071e-06
3.55788950003e-07
-1.26133245463e-06
3.44350118365e-07
-1.37279493891e-06
3.6828541093e-07
-1.52443411954e-06
4.49449998648e-07
-1.66310782171e-06
5.01196663532e-07
-1.74056419027e-06
4.71605937875e-07
-1.79389313382e-06
4.3883432181e-07
-1.86633805047e-06
4.53227474482e-07
-1.93604359779e-06
4.63570063962e-07
-1.99495676168e-06
4.47923391053e-07
-2.05062309281e-06
4.191188032e-07
-2.1041716051e-06
3.85719897698e-07
-2.15074426972e-06
3.47770391638e-07
-2.18999269094e-06
3.09780495838e-07
-2.22734719259e-06
2.76991795713e-07
-2.25749784467e-06
2.50157955339e-07
-2.29037802036e-06
2.29521330322e-07
-2.31526134902e-06
1.95679476495e-07
-2.33394047062e-06
1.58317969051e-07
-2.35959649271e-06
1.4657248653e-07
-2.38847939799e-06
1.43639059524e-07
-2.42514093837e-06
1.46307564295e-07
-2.45880895407e-06
1.50145734756e-07
-2.48884682306e-06
1.45292955503e-07
-2.50663204015e-06
1.24634065734e-07
-2.51712002558e-06
1.01068493018e-07
-2.52427237442e-06
7.64374725912e-08
-2.52868687305e-06
4.95989200888e-08
-2.53035661474e-06
2.02170226924e-08
-2.52940547808e-06
-1.09753764938e-08
-2.52515373765e-06
-4.21663030994e-08
-2.51636086536e-06
-7.18865700555e-08
-2.50234826819e-06
-1.00335693888e-07
-2.4831597479e-06
-1.28815508473e-07
-2.45901079981e-06
-1.58513031189e-07
-2.42994287782e-06
-1.9008415618e-07
-2.39578635232e-06
-2.23846620968e-07
-2.35623429206e-06
-2.60037601398e-07
-2.31082848526e-06
-2.98964530067e-07
-2.25889098923e-06
-3.41132479136e-07
-2.19962666087e-06
-3.87357046419e-07
-2.13219153126e-06
-4.38703528262e-07
-2.05501015086e-06
-4.96496478413e-07
-1.9648157948e-06
-5.63048241801e-07
-1.85684965974e-06
-6.4211967631e-07
-1.72580599571e-06
-7.37323134902e-07
-1.56750867012e-06
-8.49513109368e-07
-1.38231980273e-06
-9.74624259728e-07
-1.17823535568e-06
-1.10235902189e-06
-9.72340958659e-07
-1.21285088412e-06
-7.81823332285e-07
-1.28086051642e-06
-5.97855681317e-07
-1.30894912186e-06
-4.45368722858e-07
-1.30244468271e-06
-2.71767074051e-07
-1.2190991453e-06
-1.28355584635e-07
-9.5282912072e-07
-8.83055806696e-09
-7.76406039032e-07
1.02205598296e-07
-6.65689326911e-07
1.92095383123e-07
-5.72343718684e-07
2.40414805697e-07
-4.86601684175e-07
2.41337743378e-07
-3.60121608453e-07
2.37835166801e-07
-2.2865309801e-07
2.44598583372e-07
-1.45691408208e-07
2.46296399952e-07
-7.47120838459e-08
2.2986951628e-07
1.15221552297e-08
1.96665633591e-07
1.02335917091e-07
1.49619180936e-07
1.65799503185e-07
9.91098848592e-08
1.99642979376e-07
5.2863688905e-08
2.56273720651e-07
2.83556928567e-07
-1.26380886177e-07
9.503633376e-07
-2.83304099049e-07
1.18778594598e-06
-3.37663749702e-07
1.22295642688e-06
-2.6971856967e-07
8.60917786269e-07
-4.8468315118e-07
8.73863992413e-07
-6.97867366793e-07
1.12870205586e-06
-8.07713218236e-07
1.09886219793e-06
-9.20599692325e-07
1.0403341234e-06
-9.73146570536e-07
8.99139447803e-07
-1.03010650537e-06
8.41887722709e-07
-1.0311248763e-06
5.63445198442e-07
-1.14429292106e-06
4.69007183017e-07
-1.25149141815e-06
4.5159867889e-07
-1.39801537503e-06
5.14863890489e-07
-1.55079460271e-06
6.02288802378e-07
-1.63907976786e-06
5.89539190276e-07
-1.69670439984e-06
5.29283466612e-07
-1.78027030309e-06
5.22451366217e-07
-1.86524085288e-06
5.38247868284e-07
-1.93187812166e-06
5.30254358946e-07
-1.98911960194e-06
5.05208609032e-07
-2.04371899578e-06
4.73758136696e-07
-2.09962343266e-06
4.41661151013e-07
-2.15258674216e-06
4.00768161366e-07
-2.18920122725e-06
3.46426115481e-07
-2.22848700369e-06
3.1630704342e-07
-2.26096395424e-06
2.82662414138e-07
-2.27736660081e-06
2.4594982575e-07
-2.30138170745e-06
2.19718534322e-07
-2.34787278697e-06
2.04831873756e-07
-2.38209235986e-06
1.80813945474e-07
-2.401592923e-06
1.63160502652e-07
-2.43742922233e-06
1.82164230674e-07
-2.4760992523e-06
1.88835729155e-07
-2.4991703483e-06
1.6838342311e-07
-2.51477684006e-06
1.40259275874e-07
-2.52570891738e-06
1.1201867475e-07
-2.53321647524e-06
8.39625697929e-08
-2.53793870008e-06
5.43382045857e-08
-2.53994218159e-06
2.22371382272e-08
-2.53906113164e-06
-1.18401159294e-08
-2.53469229068e-06
-4.65190836372e-08
-2.52589453043e-06
-8.06684195162e-08
-2.51199418662e-06
-1.14220271338e-07
-2.49281696088e-06
-1.47977037494e-07
-2.46839418551e-06
-1.82920166294e-07
-2.43866461873e-06
-2.19797947409e-07
-2.4034149763e-06
-2.59080395867e-07
-2.36234229815e-06
-3.01093752499e-07
-2.31505778511e-06
-3.46232497389e-07
-2.26101193419e-06
-3.95161113882e-07
-2.19940530271e-06
-4.48946880255e-07
-2.12890725777e-06
-5.09185388929e-07
-2.04701260158e-06
-5.78375988365e-07
-1.94957405399e-06
-6.60471337147e-07
-1.83126834442e-06
-7.60410026981e-07
-1.68701910112e-06
-8.81557087784e-07
-1.51478569134e-06
-1.02172980551e-06
-1.31928217513e-06
-1.17011187507e-06
-1.1115014263e-06
-1.31012297441e-06
-9.03101644392e-07
-1.42123637742e-06
-7.0403827793e-07
-1.47990714928e-06
-5.25859310269e-07
-1.48711731011e-06
-3.82779881846e-07
-1.44550527447e-06
-2.26804353337e-07
-1.37506102763e-06
-2.87132491765e-08
-1.150903326e-06
1.06700231808e-07
-9.11799542278e-07
2.12497924453e-07
-7.71471606569e-07
2.90241983163e-07
-6.50058421197e-07
3.14210160586e-07
-5.1056474041e-07
3.00450055474e-07
-3.46343595663e-07
2.94281765047e-07
-2.22485017671e-07
2.97730808443e-07
-1.49131836224e-07
3.02380826613e-07
-7.93590613192e-08
2.89192712591e-07
2.47138180634e-08
2.48443398566e-07
1.43087775101e-07
1.87091550918e-07
2.27160552193e-07
1.16420755863e-07
2.70326592726e-07
5.8127514878e-08
3.14559979527e-07
3.41697223567e-07
-1.57179098429e-07
1.10759283352e-06
-2.76277074725e-07
1.30695514836e-06
-2.87863621444e-07
1.23460272922e-06
-3.25301217251e-07
8.98409000205e-07
-5.53036861687e-07
1.10166882934e-06
-6.61009276848e-07
1.23675197471e-06
-7.6489857882e-07
1.20282749047e-06
-8.75880109664e-07
1.1513843388e-06
-9.35404010045e-07
9.58728901005e-07
-9.95391083347e-07
9.01935523204e-07
-1.03705166063e-06
6.0515310158e-07
-1.14093737956e-06
5.72938838201e-07
-1.2659785184e-06
5.76691640917e-07
-1.42446942615e-06
6.73411795337e-07
-1.55461934083e-06
7.3249629985e-07
-1.62514804402e-06
6.60123521781e-07
-1.68968854088e-06
5.93876158668e-07
-1.7748016804e-06
6.07615762038e-07
-1.85580969295e-06
6.19305527849e-07
-1.92560725106e-06
6.00098598552e-07
-1.98621139094e-06
5.65855557597e-07
-2.03732096351e-06
5.24906962706e-07
-2.08274443954e-06
4.87121523472e-07
-2.13036406477e-06
4.48420542246e-07
-2.17352586083e-06
3.89618574939e-07
-2.20459646999e-06
3.4740665127e-07
-2.24436641511e-06
3.22458763006e-07
-2.28584090616e-06
2.87449725671e-07
-2.32053509928e-06
2.54436208449e-07
-2.35050604646e-06
2.34824950136e-07
-2.38479199346e-06
2.15120923684e-07
-2.43489893888e-06
2.13288140631e-07
-2.46642098173e-06
2.13706461257e-07
-2.48863993345e-06
2.11074283017e-07
-2.50809382065e-06
1.87856296585e-07
-2.52377115863e-06
1.55954958846e-07
-2.53545812438e-06
1.23723374308e-07
-2.54354166381e-06
9.2063330537e-08
-2.5486092041e-06
5.94225289576e-08
-2.55090042302e-06
2.45448021596e-08
-2.55017548577e-06
-1.25488822653e-08
-2.54581369718e-06
-5.08648815691e-08
-2.53703928273e-06
-8.94269989537e-08
-2.52323177961e-06
-1.28011998124e-07
-2.50405106221e-06
-1.67141992372e-07
-2.47930827525e-06
-2.0764702781e-07
-2.44879525806e-06
-2.50294816868e-07
-2.41223223985e-06
-2.95626632213e-07
-2.3693160048e-06
-3.43992985397e-07
-2.31972439969e-06
-3.95806287678e-07
-2.26298958744e-06
-4.5187862407e-07
-2.19822421253e-06
-5.13695393109e-07
-2.12368034301e-06
-5.83714368244e-07
-2.03627043247e-06
-6.65770994861e-07
-1.93154755161e-06
-7.65180003637e-07
-1.80450308693e-06
-8.87439673136e-07
-1.65081010803e-06
-1.03523271481e-06
-1.46902613435e-06
-1.20349862409e-06
-1.26638664621e-06
-1.37273432652e-06
-1.05477876779e-06
-1.52171635061e-06
-8.36479134619e-07
-1.63952034472e-06
-6.24873655988e-07
-1.69150155107e-06
-4.35103718496e-07
-1.67687131322e-06
-2.73171103468e-07
-1.6074266987e-06
-1.50904662331e-07
-1.49731092684e-06
3.27812258067e-08
-1.33456835858e-06
2.31120693806e-07
-1.11011854011e-06
3.2856859231e-07
-8.68884902505e-07
3.93725481715e-07
-7.15200205287e-07
4.04414283263e-07
-5.21230427451e-07
3.75848058761e-07
-3.17776462673e-07
3.5046140885e-07
-1.97088750534e-07
3.45697766428e-07
-1.44367895902e-07
3.66591276044e-07
-1.00250310342e-07
3.71979933408e-07
1.93282154824e-08
3.15092572295e-07
1.99981283829e-07
2.26603662095e-07
3.15652441267e-07
1.33928196484e-07
3.63002195536e-07
5.79603183928e-08
3.90550701647e-07
3.99652779933e-07
-1.74186069686e-07
1.28186630673e-06
-2.88698068164e-07
1.42154083525e-06
-2.68098752033e-07
1.21406387097e-06
-3.78777262367e-07
1.00914190119e-06
-5.70465102505e-07
1.29342635113e-06
-6.2799273236e-07
1.29434751081e-06
-7.16823981424e-07
1.2917294247e-06
-7.81447041398e-07
1.21606744132e-06
-8.72816327938e-07
1.05015365297e-06
-9.03657307701e-07
9.32826260521e-07
-1.00686295156e-06
7.08401763951e-07
-1.13187705335e-06
6.98000692008e-07
-1.26807252742e-06
7.12936446498e-07
-1.41470699439e-06
8.20102860558e-07
-1.50851129838e-06
8.26357293618e-07
-1.56967824689e-06
7.21341189424e-07
-1.66455291616e-06
6.88801711259e-07
-1.7592027455e-06
7.02316705367e-07
-1.83872535366e-06
6.98877226145e-07
-1.91257818401e-06
6.73997065341e-07
-1.98246763579e-06
6.35787203147e-07
-2.04299115012e-06
5.85470213555e-07
-2.0830450283e-06
5.27210649581e-07
-2.11592352258e-06
4.81331528714e-07
-2.170272845e-06
4.43997928706e-07
-2.20949174274e-06
3.8665322519e-07
-2.22717416855e-06
3.40167850911e-07
-2.25457271215e-06
3.14872641907e-07
-2.29699254581e-06
2.9687903459e-07
-2.35013948582e-06
2.87993462001e-07
-2.39974075247e-06
2.64742774508e-07
-2.43957172651e-06
2.53139216891e-07
-2.47847139182e-06
2.52625972527e-07
-2.50194373426e-06
2.34565896005e-07
-2.5192864389e-06
2.05217549742e-07
-2.53443631599e-06
1.71122721545e-07
-2.54664842423e-06
1.35952830495e-07
-2.55533673752e-06
1.00768546314e-07
-2.56074910825e-06
6.4851446198e-08
-2.56325144284e-06
2.7063388047e-08
-2.5627036675e-06
-1.3080630297e-08
-2.55847519183e-06
-5.50775174184e-08
-2.54981960226e-06
-9.80668232916e-08
-2.53613399674e-06
-1.41681834963e-07
-2.51696893397e-06
-1.86291121966e-07
-2.49191513468e-06
-2.32684620326e-07
-2.46054618276e-06
-2.81646968177e-07
-2.42246496904e-06
-3.33690667626e-07
-2.37735689074e-06
-3.89083019129e-07
-2.32495425556e-06
-4.48191339955e-07
-2.26484580538e-06
-5.11969630658e-07
-2.19609981531e-06
-5.82426116543e-07
-2.11679975598e-06
-6.63000861432e-07
-2.02387667857e-06
-7.58680240411e-07
-1.9136011478e-06
-8.75439993143e-07
-1.78230719944e-06
-1.01871645992e-06
-1.62471219969e-06
-1.19281319256e-06
-1.43401483511e-06
-1.39417362856e-06
-1.22358931564e-06
-1.58314266402e-06
-1.01295775669e-06
-1.7323315788e-06
-7.79504419121e-07
-1.87296470327e-06
-5.39771070481e-07
-1.93122550986e-06
-3.13187740525e-07
-1.90344935521e-06
-1.16143476949e-07
-1.80446122694e-06
3.3513964241e-08
-1.64695724683e-06
1.60403732308e-07
-1.46144202812e-06
2.96812609236e-07
-1.24649688596e-06
4.23191520565e-07
-9.95242526745e-07
5.03868800088e-07
-7.95850699541e-07