/*--------------------------------*- C++ -*----------------------------------*\
| =========                 |                                                 |
| \\      /  F ield         | OpenFOAM: The Open Source CFD Toolbox           |
|  \\    /   O peration     | Version:  v1806                                 |
|   \\  /    A nd           | Web:      www.OpenFOAM.com                      |
|    \\/     M anipulation  |                                                 |
\*---------------------------------------------------------------------------*/
FoamFile
{
    version     2.0;
    format      ascii;
    class       surfaceScalarField;
    location    "892";
    object      phia;
}
// * * * * * * * * * * * * * * * * * * * * * * * * * * * * * * * * * * * * * //

dimensions      [0 3 -1 0 0 0 0];
oriented        oriented;


internalField   nonuniform List<scalar> 
12640
(
4.06918328483e-08
-4.3153024984e-08
7.73925696139e-08
-3.87590873673e-08
1.09493279122e-07
-3.3653218628e-08
1.3701897749e-07
-2.8839319201e-08
1.59228746036e-07
-2.33628787984e-08
1.75995125204e-07
-1.77289105555e-08
1.91221292989e-07
-1.60673789442e-08
2.12455167524e-07
-2.19940045668e-08
2.39746135015e-07
-2.80061450728e-08
2.67481231034e-07
-2.83867373048e-08
2.94997793974e-07
-2.81127421561e-08
3.24352624529e-07
-2.99000731462e-08
3.54029028059e-07
-3.01872815567e-08
3.83415355365e-07
-2.98523199416e-08
4.14045560463e-07
-3.10555800262e-08
4.48400506295e-07
-3.47258258739e-08
4.84988410867e-07
-3.69389035645e-08
5.21260739268e-07
-3.66036757799e-08
5.57072568253e-07
-3.61606852375e-08
5.94877012375e-07
-3.81609521142e-08
6.38326328859e-07
-4.38168851194e-08
6.86786554755e-07
-4.88135804765e-08
7.36720368452e-07
-5.02785936057e-08
7.86468315391e-07
-5.00661646906e-08
8.35694266748e-07
-4.95339109708e-08
8.84784092587e-07
-4.93773915064e-08
9.34440325023e-07
-4.99415730232e-08
9.84382917212e-07
-5.02115167719e-08
1.03419849856e-06
-5.00852781769e-08
1.08409773127e-06
-5.01544631137e-08
1.13476469201e-06
-5.09263660268e-08
1.18583262428e-06
-5.13159019905e-08
1.23695277711e-06
-5.13735778887e-08
1.28948965822e-06
-5.27873008735e-08
1.34326942429e-06
-5.40453850147e-08
1.39758000109e-06
-5.45722612912e-08
1.45226375452e-06
-5.49584265197e-08
1.50603540856e-06
-5.40448454814e-08
1.55795383598e-06
-5.22046185793e-08
1.60807839293e-06
-5.04063002902e-08
1.65715812922e-06
-4.93692869719e-08
1.70332805643e-06
-4.64491569803e-08
1.74417688793e-06
-4.11358592149e-08
1.78112416884e-06
-3.72329595066e-08
1.81556736179e-06
-3.47446599211e-08
1.84720536284e-06
-3.19421302395e-08
1.87564573256e-06
-2.87637646545e-08
1.90022377809e-06
-2.49074989015e-08
1.92084249156e-06
-2.09706194936e-08
1.93924083565e-06
-1.8760062771e-08
1.9575721272e-06
-1.8722517436e-08
1.97326347832e-06
-1.60988228191e-08
1.98040387378e-06
-7.58418182736e-09
1.98078750782e-06
-8.58442749977e-10
1.97382319766e-06
6.44517800323e-09
1.95768695897e-06
1.55789558711e-08
1.94189299068e-06
1.51590955411e-08
1.93051195236e-06
1.06533584451e-08
1.91564328432e-06
1.40138664426e-08
1.89774186248e-06
1.68947363406e-08
1.88568440236e-06
1.08437770258e-08
1.86862682858e-06
1.55804080985e-08
1.81788804722e-06
4.89800747007e-08
1.71036462266e-06
1.05824577876e-07
1.58668980012e-06
1.22383992878e-07
1.48770030632e-06
9.80591005274e-08
1.39343793389e-06
9.34305197454e-08
1.2960802984e-06
9.64597693513e-08
1.18966785716e-06
1.0538449379e-07
1.06792612973e-06
1.20600660798e-07
9.37225450603e-07
1.29518732847e-07
8.07255577692e-07
1.2884632527e-07
6.82051952732e-07
1.24165415477e-07
5.48634049882e-07
1.32431150174e-07
4.33593941117e-07
1.14155258505e-07
3.33467134075e-07
9.9276121324e-08
2.62134340673e-07
7.04665345067e-08
1.82481667403e-07
7.87632833276e-08
1.10198733579e-07
7.11305403639e-08
1.09239814434e-07
2.18581864619e-08
-6.65320764316e-08
5.06192479398e-08
-6.91095048184e-08
7.92002059655e-08
-6.35693338407e-08
1.08600476577e-07
-5.93554114238e-08
1.43951877153e-07
-5.97211907342e-08
1.7155345508e-07
-4.63203148127e-08
1.91618165693e-07
-3.70240172212e-08
2.14215447585e-07
-4.54424622553e-08
2.39709998529e-07
-5.42554377951e-08
2.67345385457e-07
-5.67272623484e-08
2.95520427988e-07
-5.68966076232e-08
3.22647988503e-07
-5.7605423077e-08
3.50251167676e-07
-5.82867791687e-08
3.79381508937e-07
-5.94457903231e-08
4.10663018144e-07
-6.27268948264e-08
4.45777136349e-07
-7.02290215573e-08
4.81421505435e-07
-7.29193738421e-08
5.13461584071e-07
-6.90080795206e-08
5.46803063454e-07
-6.98477743326e-08
5.86517544088e-07
-7.82610150884e-08
6.32947533874e-07
-9.06152887172e-08
6.83933654637e-07
-1.00184043535e-07
7.34960318814e-07
-1.0163953404e-07
7.83569299324e-07
-9.90172677865e-08
8.32051015593e-07
-9.83121495412e-08
8.8200997539e-07
-9.9647418509e-08
9.31917356632e-07
-1.00121956977e-07
9.81503842764e-07
-1.00090163482e-07
1.03140163129e-06
-1.00240478436e-07
1.08166894565e-06
-1.00699746272e-07
1.13207946645e-06
-1.01581901761e-07
1.18256970718e-06
-1.02072005349e-07
1.23316685243e-06
-1.02214417596e-07
1.28562703183e-06
-1.05519721759e-07
1.34070213546e-06
-1.0937092968e-07
1.39556559468e-06
-1.09722055999e-07
1.45004997516e-06
-1.09709626669e-07
1.5051451893e-06
-1.09433616857e-07
1.5600563609e-06
-1.07389606601e-07
1.61157174643e-06
-1.02224187666e-07
1.65367320274e-06
-9.17474505922e-08
1.68886066754e-06
-8.19329119641e-08
1.72567415214e-06
-7.822379031e-08
1.7640094889e-06
-7.58712938383e-08
1.80089570798e-06
-7.19207254579e-08
1.83557402477e-06
-6.69418330573e-08
1.86717263234e-06
-6.06747208365e-08
1.89563246341e-06
-5.37134225235e-08
1.92050676176e-06
-4.61875571918e-08
1.93884505103e-06
-3.74777693734e-08
1.9482008928e-06
-2.84582691007e-08
1.95447262858e-06
-2.27902756792e-08
1.96813240964e-06
-2.16798598343e-08
1.97793054186e-06
-1.11468968811e-08
1.97502978904e-06
8.82998994878e-09
1.97074711497e-06
1.92778100022e-08
1.96492044663e-06
2.03386008217e-08
1.95313072661e-06
2.1685490476e-08
1.94027864044e-06
2.5990745065e-08
1.92470833072e-06
3.14178052446e-08
1.89379122447e-06
4.05449895348e-08
1.8573662954e-06
5.05377232472e-08
1.79837638598e-06
1.06273615371e-07
1.68924439143e-06
2.13322549445e-07
1.54132699615e-06
2.69100333574e-07
1.39429945625e-06
2.44193762664e-07
1.30464809815e-06
1.82274460506e-07
1.24048208878e-06
1.5973609264e-07
1.15565061024e-06
1.89205315626e-07
1.03993794251e-06
2.3518399219e-07
9.0179046824e-07
2.66521971459e-07
7.60605480067e-07
2.68963215698e-07
6.42282786997e-07
2.41472604718e-07
5.52909688211e-07
2.20775617248e-07
4.64802002691e-07
2.01258727731e-07
3.82355457968e-07
1.8073508491e-07
2.95334157122e-07
1.56473757994e-07
2.16933594056e-07
1.56068785764e-07
1.13446590992e-07
1.73233533226e-07
2.21783926149e-07
2.67381745085e-08
-9.44191254872e-08
4.04818249183e-08
-8.41683063979e-08
7.30754878242e-08
-9.74498038018e-08
1.10650291209e-07
-9.80702360116e-08
1.45860018914e-07
-9.59362156622e-08
1.64822846245e-07
-6.611007839e-08
1.78706647873e-07
-5.17685460058e-08
2.03316555348e-07
-7.09770902871e-08
2.3126768532e-07
-8.30535370261e-08
2.59552121311e-07
-8.57449145156e-08
2.87817735852e-07
-8.58117883568e-08
3.15084900286e-07
-8.54190424213e-08
3.42362161382e-07
-8.60368759745e-08
3.71688940862e-07
-8.91918449972e-08
4.0113563547e-07
-9.25670716038e-08
4.21639030019e-07
-9.10948771793e-08
4.36160336329e-07
-8.77957701512e-08
4.62153079708e-07
-9.53474022462e-08
5.06450774554e-07
-1.14518774375e-07
5.66303388164e-07
-1.38496103976e-07
6.27788620594e-07
-1.52490297327e-07
6.79318791622e-07
-1.52077813385e-07
7.26791851413e-07
-1.49464815093e-07
7.7634868793e-07
-1.48897248163e-07
8.26443495675e-07
-1.48723394858e-07
8.7549803389e-07
-1.48995593224e-07
9.24634832648e-07
-1.49551825488e-07
9.74452561345e-07
-1.50182699016e-07
1.02461949539e-06
-1.50683753393e-07
1.07530092583e-06
-1.51640287836e-07
1.12556359164e-06
-1.5210634479e-07
1.17620026085e-06
-1.52961423645e-07
1.22816029177e-06
-1.54432780928e-07
1.27911595667e-06
-1.5673235186e-07
1.33292329496e-06
-1.63454222856e-07
1.39154369063e-06
-1.68614533559e-07
1.44751336723e-06
-1.6596422403e-07
1.50154990636e-06
-1.63750475125e-07
1.55726749689e-06
-1.63398674108e-07
1.61057798959e-06
-1.55818765098e-07
1.65962708099e-06
-1.41088537701e-07
1.70477238079e-06
-1.27362151e-07
1.74553663094e-06
-1.19281903044e-07
1.78294790182e-06
-1.13573192554e-07
1.81769287872e-06
-1.06970802903e-07
1.84946922962e-06
-9.90249858664e-08
1.87831035011e-06
-8.98408545516e-08
1.90402359102e-06
-7.97578955367e-08
1.92629987538e-06
-6.88168446921e-08
1.94539947422e-06
-5.69406326722e-08
1.96183128334e-06
-4.52796594381e-08
1.97419748138e-06
-3.55650419926e-08
1.97769665225e-06
-2.56229301501e-08
1.97552953935e-06
-9.45310861139e-09
1.97583643224e-06
7.99992109168e-09
1.97526015577e-06
1.92762853907e-08
1.96808607498e-06
2.68528977873e-08
1.95523032561e-06
3.37868938557e-08
1.9390008897e-06
4.13397737614e-08
1.91870141888e-06
5.06960398704e-08
1.89290428896e-06
6.51374966022e-08
1.83683821987e-06
1.05192434168e-07
1.7132162055e-06
2.28366929761e-07
1.53716768524e-06
3.88000322833e-07
1.39858493228e-06
4.06599293691e-07
1.33476641696e-06
3.07146680814e-07
1.26008563555e-06
2.56148568692e-07
1.16198090373e-06
2.57003472303e-07
1.05291246119e-06
2.97342442586e-07
9.30627706763e-07
3.56444270395e-07
8.12644689917e-07
3.83451950085e-07
7.2084232273e-07
3.59708658066e-07
6.40186754766e-07
3.21060809237e-07
5.5550447765e-07
3.04426457402e-07
4.55241965774e-07
3.00533279542e-07
3.54083587073e-07
2.80898666233e-07
2.68212749785e-07
2.41361906914e-07
2.03131584191e-07
2.20163902164e-07
8.74865648622e-08
2.87642529631e-07
3.08790900977e-07
1.76823138351e-08
-1.13353657294e-07
2.40535688285e-08
-9.14495067376e-08
5.86146370347e-08
-1.33155954822e-07
8.87842107287e-08
-1.2928980469e-07
9.47233965146e-08
-1.02678107457e-07
8.76604756836e-08
-5.95161606574e-08
1.22645862811e-07
-8.74492516315e-08
1.76197635656e-07
-1.25495062024e-07
2.15023960304e-07
-1.22760258859e-07
2.46245497065e-07
-1.17725800862e-07
2.76004218305e-07
-1.16191885447e-07
3.0422988333e-07
-1.14161013318e-07
3.29951042957e-07
-1.1220433829e-07
3.47049381653e-07
-1.06682806339e-07
3.57647958066e-07
-1.03538170873e-07
3.75312405796e-07
-1.09140382936e-07
4.11048308789e-07
-1.23913924512e-07
4.64380891529e-07
-1.49077289876e-07
5.25131706834e-07
-1.75670421904e-07
5.77502405372e-07
-1.91262489618e-07
6.21869925735e-07
-1.97235416373e-07
6.68758733255e-07
-1.99334510697e-07
7.17832445301e-07
-1.98882841212e-07
7.66510268122e-07
-1.9790535375e-07
8.15115485096e-07
-1.97636528279e-07
8.63962431303e-07
-1.98142667563e-07
9.13677937238e-07
-1.9955123446e-07
9.63869339534e-07
-2.00656491835e-07
1.0146631313e-06
-2.01746170065e-07
1.06518046394e-06
-2.0242260758e-07
1.11670205288e-06
-2.03883022983e-07
1.16688188394e-06
-2.03395339607e-07
1.21688179522e-06
-2.04690978975e-07
1.2738218691e-06
-2.13944023023e-07
1.33126342969e-06
-2.21168088734e-07
1.3880754476e-06
-2.25708951955e-07
1.44966478583e-06
-2.27835838312e-07
1.50909337815e-06
-2.23466347076e-07
1.5615137726e-06
-2.1610161574e-07
1.61045057741e-06
-2.05044260096e-07
1.65855411781e-06
-1.89478148477e-07
1.70470850297e-06
-1.7380715413e-07
1.74691776608e-06
-1.61778197077e-07
1.78514067801e-06
-1.52090139873e-07
1.82007010845e-06
-1.42196025269e-07
1.85190140982e-06
-1.31164074011e-07
1.88069036388e-06
-1.18944349529e-07
1.9063216682e-06
-1.0571999973e-07
1.92869916438e-06
-9.15361858692e-08
1.94791518645e-06
-7.65184033867e-08
1.96365528171e-06
-6.13972028517e-08
1.97435454693e-06
-4.66672808224e-08
1.9789273422e-06
-3.06247188887e-08
1.98045161457e-06
-1.144685932e-08
1.98056415106e-06
7.37354576747e-09
1.97686186872e-06
2.24004010008e-08
1.96788744962e-06
3.51745820666e-08
1.95317962718e-06
4.77443135196e-08
1.93180056843e-06
6.18566527666e-08
1.89995324108e-06
8.15505553621e-08
1.84555193226e-06
1.18409971437e-07
1.74780935161e-06
2.01674976136e-07
1.62115729765e-06
3.5371866945e-07
1.50393331456e-06
5.0398524882e-07
1.37477526447e-06
5.34695230032e-07
1.24984085965e-06
4.31234868154e-07
1.1515850769e-06
3.53653637307e-07
1.06615439731e-06
3.41656839682e-07
9.83007738889e-07
3.7962103984e-07
8.92964991644e-07
4.45510026759e-07
7.92710879492e-07
4.82641557788e-07
6.88735899512e-07
4.6261122327e-07
5.79619268682e-07
4.29209254594e-07
4.70849329175e-07
4.12319935941e-07
3.70289493925e-07
4.00217440243e-07
2.67029783534e-07
3.83275655156e-07
1.76978849507e-07
3.30653621238e-07
1.18716816703e-07
2.77774373257e-07
6.08806458152e-08
3.44812502708e-07
3.69242152929e-07
2.11188138261e-09
-1.16006826584e-07
1.95739879348e-08
-1.09627178766e-07
4.57109762576e-08
-1.60210470834e-07
6.70861477467e-08
-1.51465909519e-07
6.41617622963e-08
-1.00357640305e-07
8.53465123761e-08
-8.1269092396e-08
1.29414263977e-07
-1.32337624428e-07
1.62135485215e-07
-1.59105652884e-07
1.93697638097e-07
-1.55169613381e-07
2.26067046908e-07
-1.50811385625e-07
2.58444574342e-07
-1.49149757707e-07
2.81744080374e-07
-1.37941999842e-07
2.91454957276e-07
-1.22311572302e-07
3.02284132339e-07
-1.17901392363e-07
3.29548130951e-07
-1.31221989197e-07
3.73651845855e-07
-1.53680645793e-07
4.2807107237e-07
-1.78775676135e-07
4.80482986587e-07
-2.01919627053e-07
5.22818656365e-07
-2.18413813139e-07
5.62647008786e-07
-2.31478693602e-07
6.07428163388e-07
-2.42393423844e-07
6.54991519309e-07
-2.4725850952e-07
7.03192357499e-07
-2.47428413085e-07
7.51372800103e-07
-2.46409009303e-07
7.99817348909e-07
-2.4639104471e-07
8.49193204122e-07
-2.47811662181e-07
8.98813132007e-07
-2.49460715148e-07
9.49759614169e-07
-2.51879439498e-07
1.00021544589e-06
-2.52469616281e-07
1.05139501644e-06
-2.53860920121e-07
1.1007657437e-06
-2.53509487271e-07
1.15389449894e-06
-2.56782362844e-07
1.212423008e-06
-2.63485847076e-07
1.26928173619e-06
-2.71078094997e-07
1.32955576102e-06
-2.81726077438e-07
1.39288353528e-06
-2.89320503556e-07
1.45204833104e-06
-2.87285003991e-07
1.50769388874e-06
-2.79393230981e-07
1.56006464115e-06
-2.68756497907e-07
1.60997262807e-06
-2.55235922768e-07
1.65865906371e-06
-2.38451331268e-07
1.70545512764e-06
-2.20888401067e-07
1.74868925778e-06
-2.05300016335e-07
1.78783371642e-06
-1.91522446329e-07
1.82327582904e-06
-1.77932097188e-07
1.85535252108e-06
-1.63539912876e-07
1.88419211029e-06
-1.48094281692e-07
1.90976992364e-06
-1.31618149446e-07
1.93202529461e-06
-1.1412691662e-07
1.95087655493e-06
-9.57187429522e-08
1.96582841255e-06
-7.67168641215e-08
1.97589659379e-06
-5.71240746874e-08
1.98097334362e-06
-3.61207821055e-08
1.98273281395e-06
-1.36623179798e-08
1.98160399132e-06
7.99480530806e-09
1.97580553807e-06
2.76312685169e-08
1.96335814809e-06
4.69768980567e-08
1.94183547157e-06
6.85353318551e-08
1.90702056294e-06
9.58415302222e-08
1.8512003754e-06
1.36441403392e-07
1.7638694611e-06
2.04709055481e-07
1.64787966433e-06
3.16570614745e-07
1.53946403345e-06
4.61025891305e-07
1.44990871308e-06
5.92436479622e-07
1.35944621381e-06
6.24148313072e-07
1.23835317016e-06
5.5150385731e-07
1.10430055813e-06
4.86969117165e-07
9.89365401149e-07
4.55855551962e-07
8.97466321112e-07
4.70724189793e-07
8.1127402337e-07
5.30782292993e-07
7.10391885374e-07
5.82515894678e-07
6.02162727893e-07
5.6990948094e-07
4.97341305311e-07
5.33228536637e-07
3.93154071688e-07
5.15734365787e-07
2.89525096581e-07
5.03056820041e-07
1.95290086445e-07
4.7676054465e-07
1.39075177811e-07
3.86298818973e-07
8.60074187372e-08
3.30358824526e-07
3.36909821521e-08
3.96445375308e-07
4.02690833656e-07
-2.82415024036e-10
-1.16383205079e-07
2.23607183631e-08
-1.3290667096e-07
3.50634515859e-08
-1.73671561495e-07
4.45523630107e-08
-1.61666418758e-07
4.37320648446e-08
-1.00016838031e-07
8.63560717475e-08
-1.24556802206e-07
1.25812326275e-07
-1.72636693245e-07
1.46608294779e-07
-1.80742362632e-07
1.72478255786e-07
-1.81788228646e-07
2.00460895359e-07
-1.79447262979e-07
2.22263551455e-07
-1.71507678691e-07
2.24240582334e-07
-1.40315964787e-07
2.34956259162e-07
-1.33416142762e-07
2.65200798032e-07
-1.4857332751e-07
3.11259074321e-07
-1.77748641494e-07
3.68194290331e-07
-2.11106202421e-07
4.21467686158e-07
-2.32517436258e-07
4.6202635815e-07
-2.42903718324e-07
4.99984008254e-07
-2.56771506138e-07
5.44474934907e-07
-2.76358057184e-07
5.9065030054e-07
-2.88943325095e-07
6.3669612456e-07
-2.93662808039e-07
6.83958699189e-07
-2.95030257399e-07
7.32493158211e-07
-2.95268040267e-07
7.81251982182e-07
-2.95456249194e-07
8.28769811177e-07
-2.95624714058e-07
8.79586612807e-07
-3.00559410834e-07
9.30108454734e-07
-3.02674286802e-07
9.81626970686e-07
-3.04255267772e-07
1.02942473275e-06
-3.01918490578e-07
1.0812296024e-06
-3.05572348437e-07
1.13684747535e-06
-3.12663270291e-07
1.19477190263e-06
-3.21682380574e-07
1.26271746844e-06
-3.39307063175e-07
1.33084041163e-06
-3.50136938942e-07
1.39242827238e-06
-3.5119377238e-07
1.44990806829e-06
-3.45045942127e-07
1.50513157973e-06
-3.34896840982e-07
1.55829016062e-06
-3.22194797058e-07
1.6095217325e-06
-3.06749521941e-07
1.65918553188e-06
-2.88397961723e-07
1.70673510242e-06
-2.68721719678e-07
1.75091066814e-06
-2.49758385615e-07
1.79102966384e-06
-2.31925768061e-07
1.82718706062e-06
-2.14376412318e-07
1.85966121701e-06
-1.96307470219e-07
1.88861656991e-06
-1.77350452642e-07
1.91406586773e-06
-1.57378819953e-07
1.93594607164e-06
-1.36329919965e-07
1.95410557481e-06
-1.14214638085e-07
1.96814410748e-06
-9.11078351402e-08
1.97756442425e-06
-6.69186621492e-08
1.98248002282e-06
-4.14402070509e-08
1.98349975964e-06
-1.51263690013e-08
1.97999562218e-06
1.10040308783e-08
1.96963651605e-06
3.74341819395e-08
1.94920934033e-06
6.67823492289e-08
1.91428438224e-06
1.02758877926e-07
1.85867846358e-06
1.50667603802e-07
1.77609350059e-06
2.18171222751e-07
1.66608781033e-06
3.13804553718e-07
1.54490798509e-06
4.36812068847e-07
1.44850136156e-06
5.56465237844e-07
1.35297427014e-06
6.86970445694e-07
1.24285024215e-06
7.33384293299e-07
1.14166454162e-06
6.51941423388e-07
1.02430563407e-06
6.03631819433e-07
9.09115218278e-07
5.70343193074e-07
8.14769744486e-07
5.64303577844e-07
7.2375423488e-07
6.20932828764e-07
6.20322295256e-07
6.85067999615e-07
5.25714627033e-07
6.6375302891e-07
4.22901740805e-07
6.35339534851e-07
3.16681104487e-07
6.21247609426e-07
2.18587879249e-07
6.00443093581e-07
1.53395109917e-07
5.41337896233e-07
1.01378240406e-07
4.37817416011e-07
5.46766080651e-08
3.76564461295e-07
2.34359138654e-08
4.27263734866e-07
4.25812110621e-07
7.35601883653e-09
-1.24096929275e-07
3.09992481896e-08
-1.57137753462e-07
3.92299816896e-08
-1.82550731722e-07
3.00030250008e-08
-1.53043354658e-07
4.6854373617e-08
-1.17433264837e-07
9.06209497967e-08
-1.69088304458e-07
1.1111152496e-07
-1.93934094293e-07
1.28398145593e-07
-1.98756605495e-07
1.47501280208e-07
-2.01583570713e-07
1.74588559311e-07
-2.07117703882e-07
1.77861400792e-07
-1.75245007808e-07
1.84399817538e-07
-1.47255155845e-07
2.12140219772e-07
-1.61593166351e-07
2.49843633031e-07
-1.86760256254e-07
3.03152498215e-07
-2.31579839769e-07
3.56066622196e-07
-2.64524228599e-07
3.94462934023e-07
-2.71367985794e-07
4.30261908025e-07
-2.79123461629e-07
4.75862604052e-07
-3.02781159209e-07
5.22977892545e-07
-3.23866680158e-07
5.68135655139e-07
-3.34474481598e-07
6.14032810003e-07
-3.3991321279e-07
6.61582901532e-07
-3.42921165692e-07
7.08728757958e-07
-3.42733828035e-07
7.55562888471e-07
-3.4259272078e-07
8.03980603117e-07
-3.44334708757e-07
8.53248821487e-07
-3.50110558978e-07
9.04956931385e-07
-3.54655849625e-07
9.54257914032e-07
-3.53820098438e-07
1.00341191716e-06
-3.5133277394e-07
1.0612014563e-06
-3.63629610916e-07
1.12173851087e-06
-3.73469817983e-07
1.18938914574e-06
-3.89612927866e-07
1.2584118623e-06
-4.08617290958e-07
1.32603458692e-06
-4.18047170712e-07
1.38762988082e-06
-4.13072228709e-07
1.44553586341e-06
-4.03231732671e-07
1.50171589025e-06
-3.91354567812e-07
1.55633812014e-06
-3.77095106609e-07
1.60916044059e-06
-3.59850366436e-07
1.66009628537e-06
-3.39613014181e-07
1.70864320301e-06
-3.1754694871e-07
1.75383170699e-06
-2.95224906127e-07
1.79497287258e-06
-2.73344892101e-07
1.83194762948e-06
-2.51631743517e-07
1.86489958678e-06
-2.29543744875e-07
1.89394312787e-06
-2.06684765115e-07
1.91908874754e-06
-1.82822903466e-07
1.94028752608e-06
-1.57836335899e-07
1.95743415534e-06
-1.31681016918e-07
1.9703116014e-06
-1.04319613952e-07
1.97868966289e-06
-7.56544800684e-08
1.98249547185e-06
-4.56341214077e-08
1.98130959595e-06
-1.43725154652e-08
1.9732790243e-06
1.8553020351e-08
1.95490289679e-06
5.52792807755e-08
1.92175090571e-06
9.93372703904e-08
1.86924446486e-06
1.54604525008e-07
1.79416917906e-06
2.25021138476e-07
1.6976121596e-06
3.13954629391e-07
1.59087947928e-06
4.19724951942e-07
1.49301292994e-06
5.33832138378e-07
1.3937280922e-06
6.54874873852e-07
1.28893640126e-06
7.90896615903e-07
1.14990148138e-06
8.716195597e-07
1.03940295454e-06
7.61751913183e-07
9.51928483459e-07
6.90433370254e-07
8.51302577106e-07
6.70262256334e-07
7.45890285475e-07
6.68977817294e-07
6.42918980895e-07
7.23128511885e-07
5.5501087176e-07
7.7224150125e-07
4.63479483004e-07
7.54621573344e-07
3.51777692282e-07
7.46387567645e-07
2.44231550452e-07
7.28136104679e-07
1.59244144756e-07
6.84807798288e-07
1.14700806445e-07
5.85334340197e-07
6.05254555238e-08
4.91532518029e-07
1.78698733208e-08
4.18825964913e-07
8.97074897293e-09
4.35578790382e-07
4.34592445119e-07
1.36256330121e-08
-1.38397908128e-07
3.12572515399e-08
-1.75376976611e-07
3.40589044584e-08
-1.85977308654e-07
1.83687952839e-08
-1.37826897743e-07
4.75466980862e-08
-1.47203302547e-07
7.79999532213e-08
-2.00307631197e-07
9.31960067993e-08
-2.09829620419e-07
1.09532259882e-07
-2.15762610619e-07
1.16923554509e-07
-2.09546311652e-07
1.33692420231e-07
-2.24444242866e-07
1.31878185478e-07
-1.73839197103e-07
1.58814272853e-07
-1.7463477723e-07
1.8980985124e-07
-1.93069814099e-07
2.358560997e-07
-2.33325549956e-07
2.87008447003e-07
-2.83276754504e-07
3.24991113997e-07
-3.0301047708e-07
3.56806467006e-07
-3.03626523565e-07
4.01021142807e-07
-3.23764132873e-07
4.497000474e-07
-3.5187631271e-07
4.95123364617e-07
-3.69684970672e-07
5.3976776795e-07
-3.79491589593e-07
5.85420516424e-07
-3.85925265163e-07
6.33900747875e-07
-3.91736071292e-07
6.82475582176e-07
-3.91620755201e-07
7.27506667566e-07
-3.87929005547e-07
7.78809679874e-07
-3.95927129048e-07
8.27063469065e-07
-3.98645268258e-07
8.75162156744e-07
-4.0302743934e-07
9.2436630905e-07
-4.03289259909e-07
9.89084334744e-07
-4.16321519542e-07
1.04897756023e-06
-4.23796042827e-07
1.10964616563e-06
-4.34419899383e-07
1.18036503718e-06
-4.60616951476e-07
1.25329259746e-06
-4.81833612742e-07
1.318011987e-06
-4.83052725043e-07
1.37953054867e-06
-4.74872437357e-07
1.43934031881e-06
-4.63319356857e-07
1.49756554698e-06
-4.49855385633e-07
1.5541488883e-06
-4.33953129309e-07
1.60884991715e-06
-4.14826003689e-07
1.6613793033e-06
-3.92416547689e-07
1.71122768817e-06
-3.6766851218e-07
1.75761823438e-06
-3.41887188481e-07
1.79988861961e-06
-3.15886712564e-07
1.83775831565e-06
-2.89773463621e-07
1.87119860072e-06
-2.63258672692e-07
1.90021622151e-06
-2.35980844e-07
1.92479011982e-06
-2.07680196204e-07
1.94491473885e-06
-1.78252476651e-07
1.96060556062e-06
-1.47671197509e-07
1.97182578882e-06
-1.15857826465e-07
1.97842387502e-06
-8.25918541929e-08
1.97988898921e-06
-4.74752936259e-08
1.97467863712e-06
-9.58230358616e-09
1.95952181033e-06
3.32541054709e-08
1.92976375153e-06
8.45296365598e-08
1.8815084458e-06
1.47036013014e-07
1.81389369394e-06
2.21623823252e-07
1.72907756561e-06
3.09183797899e-07
1.63163828562e-06
4.10698036636e-07
1.53320948662e-06
5.17418303496e-07
1.44231046854e-06
6.23964115664e-07
1.35678874402e-06
7.39614429487e-07
1.28539485269e-06
8.61484520953e-07
1.16464259277e-06
9.91588742499e-07
9.74743244733e-07
9.50944482996e-07
8.50522292908e-07
8.14008288467e-07
7.51075570471e-07
7.6906237926e-07
6.52452747972e-07
7.66891185588e-07
5.75984284872e-07
7.98921759781e-07
5.06356799283e-07
8.41237143728e-07
4.02108122465e-07
8.58262498343e-07
2.80607007327e-07
8.67272940246e-07
1.72946863656e-07
8.35192673966e-07
1.0429761627e-07
7.52895592908e-07
5.50410550614e-08
6.34092095856e-07
7.3228900026e-09
5.38779374248e-07
-2.96139804913e-08
4.55275369624e-07
-2.10119964368e-08
4.26632993022e-07
4.1328104869e-07
1.58055230043e-08
-1.5458316501e-07
2.50774733763e-08
-1.85234479346e-07
1.96690297851e-08
-1.81080771301e-07
2.0592459584e-08
-1.39235718973e-07
5.07078319444e-08
-1.77936519307e-07
6.12898254908e-08
-2.11552042327e-07
7.39225467715e-08
-2.23075344226e-07
8.90157798921e-08
-2.31421667826e-07
9.22394573712e-08
-2.13310742724e-07
1.00822007608e-07
-2.33541560293e-07
1.12857930246e-07
-1.86321489573e-07
1.37701474613e-07
-1.99947206107e-07
1.69620176687e-07
-2.25506097599e-07
2.18161684544e-07
-2.82429448626e-07
2.60894816104e-07
-3.2654605311e-07
2.88832617704e-07
-3.31427915856e-07
3.23924321849e-07
-3.3916649539e-07
3.70087939659e-07
-3.70366206899e-07
4.17005395111e-07
-3.99214524475e-07
4.62309592725e-07
-4.15390512412e-07
5.07388346046e-07
-4.24956795889e-07
5.51910784393e-07
-4.30802757237e-07
5.97811784529e-07
-4.37962679183e-07
6.45406073958e-07
-4.39526967963e-07
6.90070931392e-07
-4.32885517171e-07
7.39956866203e-07
-4.46102569567e-07
7.92472369618e-07
-4.5144191129e-07
8.48078941354e-07
-4.58906061093e-07
9.06664707229e-07
-4.62143094603e-07
9.64754316721e-07
-4.7468611217e-07
1.02759210056e-06
-4.86917904651e-07
1.10310637174e-06
-5.1022492597e-07
1.17586541997e-06
-5.33669705462e-07
1.24203062127e-06
-5.48288503924e-07
1.30631251587e-06
-5.47618125541e-07
1.3696481821e-06
-5.38487160267e-07
1.43189216827e-06
-5.25839172638e-07
1.49262421015e-06
-5.10860863563e-07
1.55158276976e-06
-4.93183379701e-07
1.60851303113e-06
-4.7202650424e-07
1.66302716702e-06
-4.47199296426e-07
1.71456380599e-06
-4.19471683468e-07
1.76243404119e-06
-3.90022262114e-07
1.80600812014e-06
-3.59723933839e-07
1.84486508836e-06
-3.28893011076e-07
1.87876794587e-06
-2.97424023529e-07
1.90757066321e-06
-2.65047066884e-07
1.9312039873e-06
-2.31580681989e-07
1.94972808923e-06
-1.97045562393e-07
1.963311233e-06
-1.61537430469e-07
1.97210042358e-06
-1.24943745487e-07
1.97591077319e-06
-8.67295194544e-08
1.97368113138e-06
-4.56127224823e-08
1.96268322661e-06
1.02060912387e-09
1.93821385596e-06
5.72890996597e-08
1.89510122697e-06
1.27182770622e-07
1.83277535529e-06
2.0888319237e-07
1.75710769254e-06
2.96749663027e-07
1.67167829931e-06
3.94037275588e-07
1.57236640445e-06
5.0937676049e-07
1.47040056363e-06
6.18705175393e-07
1.38376344471e-06
7.09899040067e-07
1.31620244958e-06
8.06432947814e-07
1.26208779579e-06
9.14850313038e-07
1.20957458757e-06
1.04331808193e-06
1.01869047985e-06
1.14108976562e-06
7.67394139328e-07
1.06463205261e-06
6.57713994052e-07
8.78025306755e-07
5.82129565441e-07
8.41810113684e-07
5.37540906143e-07
8.4286740262e-07
4.66333125774e-07
9.1186018218e-07
3.44111839115e-07
9.798999203e-07
2.08385537334e-07
1.00242028582e-06
9.59002681486e-08
9.47123202854e-07
2.96745202106e-08
8.18599103634e-07
-3.06424414464e-08
6.93911219272e-07
-7.2091263253e-08
5.79774512359e-07
-8.85337963311e-08
4.71339051305e-07
-5.8148764008e-08
3.95704027747e-07
3.54988778298e-07
1.55797429341e-08
-1.70925025698e-07
2.18284541154e-08
-1.92120856932e-07
1.02195446489e-08
-1.70010418966e-07
1.9432932486e-08
-1.48934845229e-07
4.14751457207e-08
-2.00584360564e-07
4.40952608282e-08
-2.14732309871e-07
5.25172602649e-08
-2.32086393434e-07
6.04219418285e-08
-2.39829093159e-07
7.28976517196e-08
-2.26256843565e-07
6.71602939484e-08
-2.28291353162e-07
8.74957270347e-08
-2.07108556416e-07
1.14753815961e-07
-2.277008851e-07
1.46359194164e-07
-2.57626365411e-07
1.87987593912e-07
-3.2461722985e-07
2.208197827e-07
-3.59909109659e-07
2.43971663329e-07
-3.55045618027e-07
2.84482792823e-07
-3.80132320186e-07
3.3189515361e-07
-4.18226549464e-07
3.78138958915e-07
-4.45887683005e-07
4.24421304277e-07
-4.62079863328e-07
4.71006950297e-07
-4.71916059936e-07
5.16731111508e-07
-4.76878323997e-07
5.59620004045e-07
-4.81193348313e-07
6.05931794762e-07
-4.86146915684e-07
6.56084373716e-07
-4.8332839189e-07
7.0260657804e-07
-4.92917790177e-07
7.53820054501e-07
-5.02929510967e-07
8.03391004238e-07
-5.08745697299e-07
8.69321315338e-07
-5.28350040997e-07
9.36972456408e-07
-5.42616273178e-07
1.00909264367e-06
-5.59328653206e-07
1.08202791223e-06
-5.83458096012e-07
1.15850023061e-06
-6.10440064412e-07
1.22734549613e-06
-6.17422336636e-07
1.29291488244e-06
-6.13469317739e-07
1.35831248153e-06
-6.04162327464e-07
1.42325311289e-06
-5.91053939431e-07
1.4868587843e-06
-5.74737174105e-07
1.54860029653e-06
-5.5519252864e-07
1.60814669626e-06
-5.31837706184e-07
1.66505768303e-06
-5.04372477461e-07
1.71871934013e-06
-4.73393029936e-07
1.76844278041e-06
-4.40002348617e-07
1.81357773319e-06
-4.05112697582e-07
1.85356438233e-06
-3.69130650859e-07
1.88792376989e-06
-3.3203246681e-07
1.91628549876e-06
-2.93657370868e-07
1.93849855272e-06
-2.54040240648e-07
1.95470102941e-06
-2.13503695306e-07
1.96527194296e-06
-1.72370724126e-07
1.97057121674e-06
-1.3053114659e-07
1.97043566476e-06
-8.69149123822e-08
1.96334519621e-06
-3.88802873182e-08
1.94549478645e-06
1.84979366232e-08
1.91097844257e-06
9.14341053419e-08
1.85426043561e-06
1.83508782602e-07
1.78060554113e-06
2.82116515382e-07
1.70438701956e-06
3.72565365854e-07
1.62251545047e-06
4.75407541363e-07
1.50620640831e-06
6.25131375414e-07
1.38328392215e-06
7.41023368679e-07
1.29957475963e-06
7.92964512058e-07
1.24788707639e-06
8.57463352237e-07
1.21698933504e-06
9.45051485871e-07
1.20097221736e-06
1.05861428218e-06
1.13879423294e-06
1.20248301443e-06
8.62588854427e-07
1.33992251336e-06
5.74178543884e-07
1.16562081466e-06
5.00757215259e-07
9.14549548119e-07
5.15706528342e-07
8.27346827692e-07
4.3998073814e-07
9.87056451438e-07
2.92503456753e-07
1.12686327987e-06
1.32505949019e-07
1.16191242453e-06
1.64988383518e-09
1.07749526021e-06
-6.97457435013e-08
8.89518913167e-07
-1.37489353695e-07
7.61203837778e-07
-1.72413562314e-07
6.14224764156e-07
-1.53775892452e-07
4.52244442329e-07
-9.14610516137e-08
3.3314842316e-07
2.63290120289e-07
1.15690161849e-08
-1.82817749631e-07
1.53491306506e-08
-1.96338158082e-07
6.93970591357e-09