/*--------------------------------*- C++ -*----------------------------------*\
| =========                 |                                                 |
| \\      /  F ield         | OpenFOAM: The Open Source CFD Toolbox           |
|  \\    /   O peration     | Version:  v1806                                 |
|   \\  /    A nd           | Web:      www.OpenFOAM.com                      |
|    \\/     M anipulation  |                                                 |
\*---------------------------------------------------------------------------*/
FoamFile
{
    version     2.0;
    format      ascii;
    class       volScalarField;
    location    "718";
    object      alpha;
}
// * * * * * * * * * * * * * * * * * * * * * * * * * * * * * * * * * * * * * //

dimensions      [0 0 -1 0 0 0 0];


internalField   nonuniform List<scalar> 
6400
(
0.896943547464
1.4443774173
2.29656915027
2.87992594999
3.43644657795
3.99097263447
4.68192879845
5.45331611657
5.93041895525
6.64883155655
7.92742676704
8.84914672836
9.63025984568
10.4978643266
11.5521803897
12.6607466243
13.6668685632
14.6144254261
15.4151690194
15.9082303256
16.192719918
16.6203000313
17.3908570538
18.4785746105
19.6616505962
20.7363454442
21.6417287805
22.4863986625
23.3695337652
24.3064108257
25.2418277098
25.988560049
26.4696508025
26.8014376092
27.0284911972
27.1547023506
27.4485067248
27.9533361864
28.1555846166
28.1457101681
28.4965902072
29.3315304913
30.1631820125
30.6367312622
30.7944460915
30.7308989397
30.5120617599
30.1808167786
29.7502918018
29.2403050588
28.5706296578
27.5304841579
26.1317213155
24.4532778244
22.9261540141
21.5811426688
19.7757116384
17.262874076
14.6335097489
12.4264975292
10.1903044995
7.84877868285
5.64383657545
5.57196813278
8.82657851851
13.4892498267
16.3360853565
15.9439274993
13.8894523204
12.2703254782
11.4415098758
11.7296472032
12.3724498782
12.321924114
14.4898004606
13.9700239724
15.9141994305
9.81222074358
12.8578804045
4.80306648305
3.16410925074
2.54685875599
3.18176656221
4.45487578531
4.4324675419
4.40664463586
4.68242588631
5.18028518522
5.87815813874
6.76028549523
7.81486452013
8.86825748352
9.80669551277
10.7075231692
11.6290029894
12.6779878175
13.7821727834
14.8347553433
15.8997353493
16.22783355
16.333378372
16.7394515507
17.4892344284
18.5658404992
19.8657144158
20.8869694066
21.7641056634
22.6447412764
23.5419368105
24.4494749119
25.3574345315
26.1878757107
26.6631603243
26.9884139307
27.2458912446
27.292182599
27.6296684951
28.1591179322
28.3189627938
28.1828319665
28.5060719341
29.8327111514
30.9389824869
31.3236025748
31.4250989992
31.2899600132
30.9811052986
30.5874775502
30.0084844048
29.3442788602
28.7373317322
28.1757931495
26.9603701052
24.67651031
23.2560610277
21.7091953484
19.3912484592
16.9419482518
14.5308383955
12.1402204692
9.91168189437
8.16436168887
6.04224980598
6.08644207655
9.0700210921
14.5717858871
18.171005604
16.7803696397
14.5484534333
12.603418987
11.9498623336
12.4550669604
13.666387792
13.1390202906
13.0603415203
12.5967375356
11.4539765318
9.65261661459
8.13853653709
4.22039916063
3.28611953753
2.91123928354
3.43518374208
3.7688087998
4.37034661249
4.8510070552
4.87073011269
5.07581583384
5.77679654813
6.73442984807
7.79916611904
8.87215864383
9.85495815832
10.7576214793
11.5344235997
12.4894200673
15.0498494197
17.0515594168
17.5613041957
17.1365244168
16.1393708359
16.4311415151
17.6038073671
18.7298083963
19.7990576673
20.8812002104
21.8580092672
22.740857408
23.617951011
24.5204608418
25.3967202993
26.3117119665
26.7812580976
26.8914677275
27.4388826392
27.5029050729
27.5520497371
28.253412317
28.4637507397
28.392899227
28.7307755132
29.5451207031
30.352736854
30.8276691179
31.010368173
30.9881338945
30.8030342277
30.4751778343
30.0076831443
29.4214755718
28.7154754489
27.7767875207
26.4796422285
25.0646925838
23.6142642622
21.6165083934
19.3067046159
16.925589564
14.5425248342
12.2275375275
10.0926744317
8.05535863001
6.66271846705
7.52792271102
11.5054404867
15.6261948171
17.618575921
17.6245317196
15.9956940963
14.3274895097
13.6828321763
13.6467732029
13.0277543109
12.4863742668
12.5355900046
12.265840126
11.3431958489
9.74983487874
7.31655000058
7.51933414612
3.35286010761
5.56194822124
3.80439672121
3.96219533947
4.68438327989
11.9335749205
10.3508438432
5.59679011652
5.73900663359
6.72635204775
7.82048252364
8.91467267308
9.87271294285
10.7831833735
12.4607576549
14.5336772543
16.2405134345
16.7894399281
16.0041729568
15.484891349
15.9510446978
16.6696796386
17.5946028405
18.7150248992
19.8795471672
20.9916528791
21.9942406888
22.8580917072
23.751527106
24.5889232537
25.579513179
26.3069546052
27.0337099605
27.1305025138
27.0379616244
27.575895517
27.7159613265
27.8807889729
28.2517004405
28.5917139722
29.0411067208
29.714158667
30.3995466873
30.8699756551
31.0910881994
31.1047571347
30.9470664706
30.6395696801
30.191421665
29.6090585178
28.8749214151
27.9268044743
26.722793473
25.3199588817
23.676547696
21.6629414873
19.3670487074
16.9846178976
14.6335748993
12.4098007904
10.4297019691
8.88106252723
8.32927739138
9.08268416107
11.2544025676
16.1045342034
19.3653031726
19.4234188342
17.7038954216
15.3174517901
13.7158148573
12.9595379814
13.1871195781
14.6790114794
14.6718416767
13.3964378371
13.304269267
16.6368775969
13.020286044
11.0225078637
5.78448891139
7.65135032917
4.63678203817
4.95719127108
6.7209670396
11.8310051411
8.40636448541
6.11558523987
6.26635195483
6.94467036266
7.96016123366
9.06641495272
10.501547681
12.7241414593
13.7941021092
14.294115491
14.5034915636
14.5565266298
14.8560707718
15.5290742452
16.0767051103
16.7254183813
17.6873929396
18.8131856641
19.9900711331
21.1292718359
22.1063447043
23.0813038712
23.858930441
24.8578132201
25.6218087222
26.8569259127
26.9734265908
26.8106230466
27.1224156879
27.169537379
27.4952105288
27.9445489917
28.3968768534
28.8251993718
29.3092322493
29.9072750166
30.5103638578
30.9651586495
31.2114751674
31.2572004142
31.1273162121
30.8431320069
30.4160710353
29.8459706269
29.1121638948
28.175188798
27.0078172245
25.5994694984
23.8855774347
21.8205033441
19.5216555994
17.1760365186
14.9280758535
12.913619713
11.3053582545
10.3500924528
10.3156513625
10.5247249554
11.7726263835
15.8037609206
19.5287899495
20.7786228915
19.5470681269
16.7416671543
14.2310224836
13.914199503
16.2370872436
17.149652703
16.1491481427
15.2711143569
17.9824009931
21.0274182877
16.3091341062
15.4206613838
10.0659156905
9.24745440457
5.78111886852
6.29086431443
12.1201374133
11.6152633861
6.9359156106
6.74004637845
6.90939693222
7.29976816116
8.19430356897
10.7543715623
13.8870411876
14.4000221996
14.1729635882
13.4901140494
13.390909243
13.9387548771
14.9574981735
15.492771789
15.9841185267
16.7972944586
17.826679297
18.9787982156
20.091262927
21.2380818011
22.4365238934
23.1840834279
24.3203796502
24.9127277033
26.3589595034
26.6684481719
27.5149285037
26.998646353
26.6258282615
26.9389864813
27.5067717912
28.0762816142
28.5909593888
29.0697224223
29.573862602
30.1333899672
30.6837925777
31.1210168472
31.3816893821
31.4538008591
31.3509788072
31.0929445387
30.69219518
30.1459020517
29.4329557786
28.5197264794
27.3704752189
25.9420698147
24.1819190117
22.1060414631
19.8583819608
17.6287879362
15.5823671299
13.8849977033
12.707096983
12.2564975796
12.5899628913
11.8501622787
13.7755720327
17.8854699196
20.9702244235
22.133068739
21.1198911208
17.6898369728
15.4343060124
17.2288360456
19.4548222543
18.948727547
17.9861947968
18.0978141643
22.7386539125
24.351457041
19.3132362376
19.1172682001
12.2026766028
9.17911687334
7.02466941255
6.58425766448
12.0919052398
8.63993750298
7.22565676308
7.35795149033
7.51109895283
8.22461111117
8.77555255544
13.5406246597
14.3062479893
14.4239972224
13.2797752112
12.5594212515
13.0266551506
14.3837421837
14.9071466292
15.2204870087
15.9951383826
16.9055213994
17.9381007717
19.0872253176
20.3625645304
21.581968948
22.4624730617
23.8964949669
24.4127854194
25.9570283648
26.1364678951
27.2356634685
27.0413169172
26.7890435587
26.486746245
26.9082095574
27.5978398754
28.2468046717
28.806550902
29.3223115253
29.8460309163
30.3899908228
30.9104879052
31.334316768
31.6040517202
31.6979052326
31.6221219808
31.3949407872
31.0289027189
30.5191457042
29.842098127
28.9602837984
27.8264841427
26.3898121231
24.6263586034
22.6016307869
20.482156673
18.4571470241
16.6773550093
15.2658266542
14.3716581765
14.0320211212
13.7654910499
13.7689157876
15.6434926305
20.6927228882
22.5530147938
22.6146703571
21.4049249766
19.0395071611
18.665507217
21.1631389149
21.5703417008
20.7485726194
20.1917815984
22.2336360522
25.0456468485
26.5500085384
21.9385839921
20.7984028377
11.9586799392
8.91742561002
8.19476861048
12.3036831995
12.2378084168
7.80222142261
7.90410366041
8.07048354928
8.1681359854
8.76243282318
13.2658736196
14.2344336207
14.3990933562
14.023833749
12.2226787529
12.194129481
13.7613900357
14.4990204491
14.5706215249
15.098365447
16.0281135732
17.0651703398
18.1308225475
19.3299427553
20.4579232596
21.899129562
22.5418033367
23.9160476653
25.5026738356
26.0995241013
25.8692254174
26.7675968726
27.087750216
26.3414574491
26.490583199
27.0578429493
27.7543220116
28.4322009708
29.0346525876
29.5875832961
30.1334312633
30.6778935025
31.1857455909
31.6023429078
31.8793624412
31.99291991
31.9461153982
31.7562418415
31.4349250565
30.9746495702
30.3475568065
29.5092780451
28.4059097931
26.9956589241
25.2917932161
23.3996996018
21.4889803184
19.702219244
18.112092483
16.8130177834
15.9811967327
15.626008651
15.5725236206
15.9015042977
15.9486216071
21.215537474
24.5969469616
24.2761923059
23.4702489753
22.3401412484
22.9610440511
24.1802195578
23.4276463822
22.7484579182
23.0097767646
25.4459170154
26.1892959612
26.8259710044
23.9445080107
21.8015799438
11.292132237
8.91426952907
8.87493366205
13.3046284883
11.3077062783
8.48587922368
8.64163975379
8.94076084486
10.0566504834
8.90474805184
14.0366767734
14.7767437942
14.4547619715
12.888394736
11.9218313988
12.3301371278
13.825233549
14.2403699469
14.4667985799
15.1147386692
16.0267048729
17.1319198264
18.2915261327
19.8632485332
21.1934716937
21.8722871726
23.7745291974
23.8432162065
25.6650663839
25.6417342391
26.8559924276
26.2000490719
26.1113471811
26.274296994
26.6663369306
27.2612360585
27.9452101358
28.6347352255
29.2758402019
29.870039842
30.4432109456
30.9982731029
31.5063855353
31.923252186
32.2086132089
32.342521393
32.3290366138
32.1845726325
31.9188891601
31.521912731
30.9615145383
30.1878226948
29.1478604115
27.8206322048
26.2574476618
24.5835472512
22.9234949127
21.2989135216
19.7024331984
18.3651842247
17.6551777398
17.6233674482
17.8928975462
18.0742699688
17.9344553487
18.9350985803
25.0830474048
26.4352062999
26.0882103521
26.3805483801
27.1114528429
26.5083984973
25.3553504136
25.1451920429
26.2384776031
27.5698004051
27.5191657742
26.9740740412
25.9886634895
24.6321925542
10.8348884847
9.41032621847
10.0262007096
13.3994771672
9.50368421246
9.51207097698
9.3853819731
9.66375800491
12.6108717353
11.4062588362
14.8719513959
15.0676746392
14.5553326252
12.2849699013
11.9819705075
13.5322488842
14.0429932549
14.0141327295
14.4320145664
15.2536568093
16.149565792
17.2000604223
18.2207355848
20.0011198166
22.130409689
21.8262370488
23.7212243143
25.0922566542
25.8885039471
26.6404935977
26.2363482244
26.4002783528
25.8616983074
26.2032374182
26.8351544464
27.486929792
28.1641593447
28.8572456778
29.5302509401
30.1692592051
30.7788350448
31.3542191787
31.8717423658
32.2959731443
32.5939843707
32.7514459867
32.7768832729
32.6872363448
32.4895177116
32.1714182723
31.6991250915
31.0219930712
30.0962582637
28.9284683476
27.5986836544
26.2097064887
24.7559416744
23.0834039408
21.3175779591
20.0893816149
19.8518984721
20.3546078538
20.8231951201
20.8773373783
20.4867512631
19.1172099353
18.5785486337
28.408163511
30.8678295831
31.385727743
30.746255121
28.868323018
27.6584702949
27.9127882166
29.241785725
29.7795259704
29.7021238328
29.5249016241
29.9355452168
30.158677313
10.8955002615
10.2960983042
13.3687465102
13.6258673415
9.6987826541
10.2937487266
10.1285788213
10.5763831811
12.203972004
14.8202707206
15.7343482798
15.3713061695
14.8367028544
12.3631613273
12.1524980368
14.0238360244
14.160725901
14.002892327
14.4534449366
15.375284905
16.4831586941
17.5499129796
18.3866397669
19.6365350146
22.2880154608
23.559038602
23.4048178033
25.1943890949
24.9154938729
26.6527361473
27.1414819522
26.3732891642
25.8489350211
26.3144346246
27.031790939
27.7226114086
28.4071398113
29.1051612315
29.8008865879
30.4838395229
31.1399725832
31.7470307898
32.2827180957
32.7210244447
33.0374538633
33.2249432114
33.2971325707
33.2717956373
33.1544162799
32.9326965378
32.5752188613
32.0376642073
31.2944233518
30.380401804
29.3748938827
28.272822289
26.8451902298
24.9397560063
23.2094893141
22.5126811163
23.0986833739
24.22074684
24.8256313666
24.7400371614
23.9535950895
22.252204257
19.79796975
19.9363159861
32.5094759172
37.1992957263
35.2564969426
31.9904856174
30.5421276977
30.9608244422
32.0433558512
32.7561247214
33.385663422
34.1008231987
34.8031853677
35.5262080683
11.3197951327
11.2021929213
15.031993111
14.4004050374
12.5917713214
11.5418128624
11.1032147694
12.0224115429
11.7606620913
15.794088738
16.4247715614
15.7549595869
14.9856627411
13.0343532081
12.9122263674
14.4737092651
14.2068076721
14.098793084
14.5652829838
15.4097415781
16.6111629342
17.997142438
19.7083698711
19.7487493939
21.7987484638
23.9105608427
23.3248801867
25.4216010611
26.3952119981
25.9488011127
26.3466353663
25.8645114188
26.1264819296
26.6295927275
27.2844029372
27.9804104573
28.6781122839
29.3863271634
30.0952471707
30.8109006926
31.521187879
32.1778871204
32.7421523136
33.1998494279
33.541722479
33.7685476283
33.8972127228
33.9456536594
33.9199328743
33.8119383787
33.5987670176
33.2538467669
32.7798868594
32.2240131316
31.5893243741
30.6300250851
29.0541040509
27.2185735326
25.9826560884
26.1765927661
27.930065148
29.9783089633
30.7895958413
30.7162696137
29.8219459206
27.8349116329
24.670353942
20.2612648028
28.0683559397
38.3658420831
40.5140596953
36.2141032904
34.3731131024
34.6631206566
35.7194661234
36.7308601737
38.2640358512
39.3573210809
39.4306678831
39.7212303816
11.9683569666
11.8808177965
14.8220805394
14.9380572893
14.9726444906
12.725254393
12.2075631162
14.8205907161
12.1970304959
16.6606739862
16.9532360269
16.1471031003
15.1293995156
13.6879340708
15.3870337286
15.515355217
14.4291570667
14.3323195415
14.8118840355
15.5403830061
16.5606452909
17.9870224201
20.9159752457
21.8915467887
21.3216288916
23.9512843396
24.9934557521
25.0145806934
26.3495222789
26.9013824872
26.6497006877
25.9084626653
26.3264907589
26.9515371813
27.5919436587
28.2719951705
28.9687997227
29.6987177928
30.4365465056
31.1705544789
31.9185221629
32.6345266743
33.2482417389
33.7365261094
34.1108671937
34.3876549699
34.5844013395
34.7154611602
34.7890742081
34.8074106221
34.7672116099
34.67676841
34.5721710909
34.4620574032
34.1259765968
33.0310023856
31.7750841815
31.4112054602
30.7317770945
31.7638602344
33.8863461126
34.2314397298
33.0557678657
31.6347526381
29.0064481038
25.6860218453
22.3482911972
15.5288536878
15.0425550949
30.8548186077
38.4251093669
37.1552042112
32.2520278275
33.5041304103
37.0593141011
40.720985692
43.6901093271
44.8623193941
44.9624469838
45.2220004187
12.672545612
12.6115598215
12.2611348436
15.2968372705
15.544987157
13.5444148778
13.1976928466
15.8437523254
12.9035172006
17.5630937597
17.4344990758
16.553457066
15.3756040342
14.0348734116
16.5337052207
16.1355602621
14.9059872593
14.746294034
15.1654861846
15.840863031
16.6331827671
17.8632922732
21.3927360258
22.9550097076
21.6614524511
23.9491944704
25.4889835528
24.5857157316
25.9672173012
26.5045044734
25.8576457699
26.2445367815
26.7576625068
27.3251019135
27.9323166185
28.6137722253
29.3113419218
30.0266804546
30.796249402
31.5790936602
32.3589999188
33.1192102471
33.7897858434
34.3270964655
34.7486446893
35.0888691894
35.3655403426
35.5840287314
35.7580022456
35.9073195835
36.0598792517
36.2896182747
36.6577975579
37.0301508035
36.6898901495
35.290554635
35.7521039196
31.0343874789
26.4080970952
21.2557710289
0.760060269868
0.000154351120241
5.34598462725e-07
5.45438985977e-08
4.32838133271e-09
1.21921769312e-09
1.43511096105e-08
1.46632902729e-07
1.65637347749e-06
4.32629461296e-06
0.00718414940565
1.88580406376
41.6429839608
46.4297558698
42.4372982811
42.4150034659
46.6623345964
49.9778920454
51.7440391407
52.1638907254
13.5558909684
13.6521036722
15.9492492605
15.9762887722
16.0357310068
14.2452039899
14.2597543934
16.7345366876
13.9489265695
18.3547342178
17.8997965723
16.9857097134
15.7044344064
14.4510907997
16.8407740448
16.3865636457
15.3777473922
15.2224244851
15.5625995959
16.1624470625
16.880112546
17.8611677078
20.8444439823
23.7562167526
23.9629347035
23.3695445824
25.68469135
26.5917750725
24.9896167109
25.1758462038
25.7987964195
26.4752581217
27.1106459117
27.7096291837
28.3284144762
28.984646944
29.6871756534
30.4222422462
31.1848171331
32.0079180082
32.8455675082
33.651168051
34.3701043326
34.9633217023
35.4522640472
35.875203126
36.2448612365
36.557190197
36.8202906009
37.0769493479
37.431604378
38.0430448165
38.9634318364
39.7345899891
38.978287627
35.2270792488
23.4871039011
1.8128865544e-10
1.99398721327e-13
3.73801320316e-15
6.33618854013e-17
1.83321655328e-19
5.20960127592e-22
9.01772120451e-27
7.05368828113e-27
1.71247331224e-26
1.15434240596e-25
5.40687538178e-25
1.99730246497e-24
1.2692545036e-23
9.93797942711e-24
8.62173747094e-22
4.90720922449e-19
4.93279238171e-17
3.74315614279e-15
8.61958409929e-13
1.45094724217e-08
50.1224608882
57.0694289932
56.8956863196
14.3898613585
14.5828150357
17.5823312077
16.6932068566
16.2156822184
14.9465348153
15.2849280444
17.5010393202
17.4762378265
19.3422699364
18.433537196
17.5144773534
16.122629237
15.0090549695
17.1671791683
16.5703019299
15.8243076879
15.704798913
15.9694257115
16.4838657256
17.1622102204
18.0831247523
20.3594777726
24.0058916368
25.3019403009
23.1582843875
25.1871255241
26.6741585683
26.6216086111
25.5718310319
25.868845739
26.6860338832
27.4617810504
28.1349219321
28.7225895575
29.386188514
30.0875040997
30.8446508716
31.6314510875
32.4735191314
33.3658064604
34.2345488725
34.9981840381
35.634989628
36.203328181
36.7588378668
37.2637660489
37.6527625864
37.9276476955
38.2552110715
38.839224749
39.8453694551
41.3446426328
42.4895403548
32.5956823504
6.07127795453
1.00250935428e-16
4.05967908926e-19
1.17399347528e-20
1.70911929755e-22
1.38862331213e-25
2.31705107022e-28
1.6332999331e-29
0
0
0
0
0
0
0
0
2.27164167199e-33
7.66177707578e-31
1.14603854083e-28
6.64894860522e-26
9.28694943725e-23
5.0291204767e-18
7.63732655775e-14
5.95435232064e-07
61.8638004954
15.072372115
15.2871038947
19.7057165127
17.25697761
16.1570496218
15.5655879439
16.0267524317
17.6139765188
19.0650407485
20.4722434116
19.1238969359
18.179623359
16.7913716464
15.8533046155
17.6991596818
16.9031149048
16.3447904359
16.2331500002
16.4151811579
16.8425540897
17.4472916891
18.2989271256
20.1602129556
23.8737625586
26.2795804833
25.6020709405
24.6879182268
26.03884691
26.4146245305
25.6327499184
26.2973113892
27.1349846976
27.9562280489
28.6107018563
29.219404228
29.8267775918
30.540483917
31.2986273318
32.1171674624
32.9900209623
33.9176337493
34.8529299289
35.7000416948
36.3825527741
37.0248762877
37.7307579315
38.3922535524
38.8304019845
39.0747804289
39.4455481247
40.2290763553
41.5061186795
43.3000203986
33.1561376449
6.63872811038e-13
1.45140373406e-19
4.75997229438e-23
1.92473620689e-24
2.62431987715e-26
7.19659831758e-29
0
0
0
0
0
0
0
0
0
0
0
0
0
2.92701003488e-32
2.90862102554e-31
6.37632749551e-30
3.09179303053e-28
1.71694361509e-24
1.42912138109e-15
2.75486214104e-20
15.6031824391
15.808692812
21.7393023547
17.6923292765
16.3328730823
16.1357517448
16.8335784359
17.060702012
20.0106393966
21.2830093771
19.7899811321
18.8581894434
17.653014971
17.6968439648
18.4423943624
17.4756748399
17.0581618598
16.953301227
16.9689153179
17.2875105334
17.7852182573
18.5558782004
20.1437607161
23.7186272725
26.681727986
27.2231607501
24.5868446319
25.0524415381
25.2902484621
25.7361518236
26.5970392882
27.6057208986
28.4370725467
29.1324045209
29.7640439544
30.4323983866
31.0598375508
31.8171360029
32.6469740972
33.5351009542
34.533965834
35.5494254664
36.4630225181
37.1418348297
37.8050155606
39.0413506893
40.6008333944
41.1987871678
40.6333883901
40.8264084343
41.7114059448
43.0225600632
32.2355961575
7.68056897208e-14
1.15756235559e-18
5.19300672871e-30
5.2475976315e-27
8.56263318756e-29
0
0
0
0
0
0
0
0
0
0
0
0
0
0
0
0
0
0
4.52213873777e-31
3.06231766122e-30
5.64716766115e-28
97.2453706422
16.0585617337
16.2301126405
21.6013713649
17.1970568847
16.5734759623
16.6279525282
17.7458075249
17.113221091
20.8152773478
22.0335127416
20.4190735525
19.4848650533
18.3261556644
19.8662639212
19.465589181
18.2492946408
17.8780380749
18.0160616483
17.743453684
17.9008704716
18.2221828983
18.8589194304
20.2666334777
23.5525051541
26.5442585557
28.3055833256
27.1343383888
26.3046940579
26.1356248568
25.9631599074
26.8737282047
28.1960996138
28.8881488152
29.6639432677
30.522367334
31.0415575488
31.6700141556
32.4354861342
33.2868917791
34.1880812693
35.1624676566
36.24180204
37.2929247055
38.3113550991
39.4516514138
41.0172727549
42.340493822
42.520656521
42.5117929157
43.0478964091
44.1898618393
35.7870163666
3.49282307909e-13
3.18824997835e-18
4.19038858789e-22
5.69135088206e-24
0
0
0
0
0
0
0
0
0
0
0
0
0
0
0
0
0
0
0
0
0
0
1.39145479956e-30
1.01277541572e-19
16.5728960392
16.7204039849
21.2673725532
16.9206722716
16.8879598135
17.0294555704
18.5321999594
17.605092348
21.5240901005
22.7698743863
21.0409714965
20.1073395923
18.8879426342
20.6411411248
20.4124507227
19.0882278589
18.6850333803
18.9219386279
18.6670182271
18.732381075
18.8554923587
19.2185134054
20.5495647579
23.5204265513
26.2565888177
28.6101850752
28.3140516403
26.8790326514
25.6959735373
26.4426380933
27.352582383
28.6411145175
29.6836090742
30.5910786158
31.3500881126
31.7617842489
32.3650349569
33.1431899795
34.0146462544
34.9543250779
35.9470370398
37.109665685
38.4593569054
40.0149677868
41.1454011308
41.8027405871
42.722927119
43.4467273233
44.7472112533
46.3546404869
41.3679326921
3.18264106128e-12
4.22593973463e-18
7.28741640926e-22
1.49468663384e-24
3.61892385944e-26
1.21474989918e-28
0
0
0
0
0
0
0
0
0
0
0
0
0
0
0
0
0
0
0
0
0
2.3383865893e-31
3.09389904101e-31
17.3245463501
17.4716470672
20.9820369204
17.2328009186
17.4558119654
17.5259060467
18.5826527887
18.3382489907
22.0471641861
23.4714185983
21.6937362769
20.7748199413
19.5608497584
21.3420465915
21.2612305347
20.0063203345
19.5438211434
19.8015722327
19.5695596623
19.7070850851
19.7537723665
19.7355062091
21.0255461304
23.6872004872
26.1160672214
28.6813211422
28.866458575
27.6608120648
26.2188629309
26.6669986598
27.9283141854
28.8269999293
29.7578155172
30.859658146
32.259154861
32.7902939347
33.3106230523
33.9616183122
34.7985503403
35.8132531758
36.9174335086
38.2139004762
40.1611928712
41.899986186
42.3786307049
42.9115350004
44.3425509564
47.3705320637
50.8552725058
45.1079828997
9.09290463167e-13
1.51049110919e-19
6.25076543269e-24
2.04942084317e-27
1.28590167154e-29
2.6064184784e-29
4.00248619305e-30
0
0
0
0
0
0
0
0
0
0
0
0
0
0
0
0
0
0
0
0
0
1.7283701555e-32
7.84802101438e-32
18.453644546
18.563416198
21.310861676
18.181448358
18.6118551397
18.3892601853
18.9299061376
19.64140695
22.1413078398
24.0085732484
22.4060431725
21.5094179908
20.3364880872
22.1383655417
22.1357453849
21.0794487348
20.5780867392
20.8205305859
20.4802855684
20.7759677879
20.9541687046
20.4713077989
21.5814145196
24.0565807285
26.17433782
28.5425292852
29.1142858821
28.3431493466
28.1459869178
27.5183065593
28.3137784131
29.5741147741
31.056089967
31.4565285561
32.5540177938
33.8088262299
34.3751725779
35.0843342876
35.8267684812
36.7613792439
38.0031482048
39.9982529907
42.5524707946
43.5833486662
43.6729533469
45.0142698002
49.3835737788
56.7495198487
51.2039783936
11.2167515438
2.28847556651e-21
2.13660398062e-26
1.46193487708e-28
0
0
0
0
0
0
0
0
0
0
0
0
0
0
0
0
0
0
0
0
0
0
0
0
0
0
0
20.0253387821
19.9137128588
22.1596520225
20.0520766632
20.5453556045
19.6566282097
19.8876461353
21.5163470332
22.3988625998
24.6476729435
23.229125024
22.320932387
21.1898854256
22.9716822926
23.0059815482
22.2584352722
22.0728545472
22.1446107656
21.4845977776
21.9358563782
22.4445419099
21.5091858767
22.0300273191
24.518456545
26.4394023525
28.4293040467
29.2832839904
28.5283260531
29.3288264688
29.0870801861
29.351112168
29.3540476488
30.8529704815
32.6382175543
33.509676929
34.5661132545
35.4392998198
36.1848714481
37.0593486309
38.0172740193
39.6607605143
42.6737641133
44.9094830507
45.452050549
46.2070858997
49.7071512559
57.2751934729
54.3542909229
28.7909304808
2.04227524256e-23
3.57032817963e-26
1.6348077506e-28
0
0
0
0
0
0
0
0
0
0
0
0
0
0
0
0
0
0
0
0
0
0
0
0
0
0
0
0
21.684090937
21.183016674
23.0700571532
22.5162823177
22.2509107412
21.1159930568
20.9375955374
22.65619527
21.7307612377
25.1531393554
24.1450746175
23.2011666375
22.1106598837
23.814752825
23.8148418484
23.2476502662
24.1094796766
23.7322990023
22.6073498019
23.2056099418
23.7832169546
22.8301829249
22.2380585986
24.5343807656
26.6298588959
28.3534169718
29.3514534624
28.6213348215
29.7360844415
30.3703848558
30.730602036
30.138828388
31.0718804024
32.6096522224
34.4258464231
35.7815437048
36.7294034891
37.4497891064
38.3080320735
39.6529411551
42.4583804047
45.7072188447
47.4812040253
48.4775522657
50.8508431081
55.9410557164
52.009983435
29.7755904898
5.49900300126e-23
7.96096702907e-26
2.78808423402e-28
0
0
0
0
0
0
0
0
0
0
0
0
0
0
0
0
0
0
0
0
0
0
0
0
0
0
0
0
0
22.5162012814
22.0694195505
23.6539725293
23.5739504122
23.32255101
22.4886183139
22.1294134378
24.0272966687
22.785400604
25.7907252182
25.0713792434
24.1214020974
23.0936926974
24.6829598692
24.6278928048
24.0748095709
25.0936359467
24.8552609014
23.6901187927
24.4447057646
24.5463845857
23.6697267508
23.2434078928
23.4792490968
26.1303092576
27.8575899392
29.1377203925
28.5873568952
29.8120532562
30.9294287005
31.8698343253
31.9176187341
31.4840315922
32.687855976
34.6737616539
36.6609998429
38.1326094994
39.1080047371
39.9624901499
42.3235002369
45.9400406362
48.8615492015
50.4555731592
52.377894714
56.3515254559
52.5365176018
25.3021219288
2.90504331547e-22
2.61686386985e-25
7.45296377886e-28
0
0
0
0
0
0
0
0
0
0
0
0
0
0
0
0
0
0
0
0
0
0
0
0
0
0
0
0
0
0
22.6235820267
22.6164914713
24.0054856478
23.8075192169
23.9993236073
23.5492864193
23.1638665932
25.3753036992
24.4537414877
26.599086583
26.0516958971
25.0675555867
24.1343109494
25.5916175215
25.5043244323
25.0226801917
25.9156420393
25.8319898087
24.8116870181
25.478554978
24.4687704265
24.4411223388
24.2830753358
24.5429532226
25.3575271795
26.4195852111
28.2888564181
28.3476555518
29.4046086815
30.964291551
32.3349738955
33.2718674199
33.0037434435
33.4883269076
34.9058794724
36.8780236945
39.0538750665
40.834595555
42.3970147953
45.7733376587
49.4329685262
51.8687875575
53.1560966306
55.0057212276
50.5363018584
32.4925414209
32.9349094243
9.08982244533e-25
2.03620525918e-27
0
0
0
0
0
0
0
0
0
0
0
0
0
0
0
0
0
0
0
0
0
0
0
0
0
0
0
0
0
0
0
22.8729727779
22.9959173297
24.2993951008
22.9901340455
24.2913634999
24.135040251
23.8563066334
26.0032921633
25.3145264986
27.4121659742
27.0584798911
26.0080342782
25.2378599649
26.5278806245
26.4188136687
26.1001775288
26.8339230658
26.9182628954
26.0588136403
26.8890432987
25.8182349541
26.0454559666
25.5473396541
25.8523077746
27.1163316917
27.7513708309
27.9096327648
28.0334342997
28.9444619249
30.8783999479
32.311424563
33.5197891694
34.2864820951
34.5841617277
36.1792071573
37.6099360874
39.8018320301
42.4295895459
45.4040009717
49.4407603514
52.7243746793
54.3944092173
53.9089998113
50.5677291037
46.7776766011
29.3826163674
7.62750828045e-24
1.73643958356e-26
0
0
0
0
0
0
0
0
0
0
0
0
0
0
0
0
0
0
0
0
0
0
0
0
0
0
0
0
0
0
0
0
23.5561178667
23.6432249306
24.6107606691
23.387562916
24.543808977
24.4581987493
24.3359826267
26.2248840515
25.9066479633
28.0132903072
28.030697506
26.8826190365
26.3889937774
27.4437714085
27.2881407609
27.1399691658
27.719341105
28.0845491035
27.3522460881
28.3212849924
27.5851274451
28.0669747437
27.900167041
26.8897467254
27.9223414951
28.8567184728
29.0437946751
27.8303417357
28.4176629969
30.7399478155
32.4130498184
33.198222748
34.1219277923
34.9040100456
36.5616867508
38.2654598068
40.6555732197
44.0376657196
48.591133771
53.1898943445
55.7802078954
56.004945084
53.493396679
48.1437524303
30.3716873412
30.3752365845
1.2100193661e-25
4.90665543153e-28
0
0
0
0
0
0
0
0
0
0
0
0
0
0
0
0
0
0
0
0
0
0
0
0
0
0
0
0
0
0
0
0
24.4176639326
25.4016828129
25.0646390163
24.3129307386
25.0587479502
24.8289875801
24.7871139571
26.4054014015
26.4350102947
28.2713009694
28.9567588014
27.6507416152
27.4001566448
28.1910605518
28.0927900664
27.9271337751
28.0790571873
29.1372704745
28.6941276209
29.571042552
29.4859914532
29.4185401969
29.3235711028
28.9831062931
28.3487702952
29.0631893216
29.956395977
27.3818211596
27.87647258
30.0461874221
32.410226296
33.6611475353
34.7081129726
34.8752892229
36.3937226608
38.4736847403
41.1619366239
45.5231120497
51.764778463
56.7793133903
58.3015407534
54.4868528903
52.2974056367
51.3263144882
34.3767027515
8.20162102646e-25
2.09325095674e-27
0
0
0
0
0
0
0
0
0
0
0
0
0
0
0
0
0
0
0
0
0
0
0
0
0
0
0
0
0
0
0
0
0
25.0530520642
26.0776459622
25.7271075559
25.1351323356
25.7103591396
25.3538186878
25.2908851674
26.6493493202
26.9347634843
28.2632672289
29.7649932627
28.3651061827
28.0086884784
28.7928040571
28.9341178879
28.6226093475
28.3586961192
29.8866726594
30.0444317725
30.6560324102
30.810930197
31.0252812248
30.000576856
30.0248048707
29.5905099205
30.6201228358
31.2471374021
28.9427021318
27.3845016901
29.0014888829
31.6397305513
33.7290037131
34.9194641973
35.3436355102
35.9839112106
38.139340681
41.0482495272
46.6358789198
54.77468625
60.3905352185
59.4315053489
54.2847051104
48.3922683908