/*--------------------------------*- C++ -*----------------------------------*\
| =========                 |                                                 |
| \\      /  F ield         | OpenFOAM: The Open Source CFD Toolbox           |
|  \\    /   O peration     | Version:  v1806                                 |
|   \\  /    A nd           | Web:      www.OpenFOAM.com                      |
|    \\/     M anipulation  |                                                 |
\*---------------------------------------------------------------------------*/
FoamFile
{
    version     2.0;
    format      ascii;
    class       volScalarField;
    location    "830";
    object      pa;
}
// * * * * * * * * * * * * * * * * * * * * * * * * * * * * * * * * * * * * * //

dimensions      [0 2 -2 0 0 0 0];


internalField   nonuniform List<scalar> 
6400
(
-0.122907250946
-0.122907748247
-0.122909178772
-0.12291203212
-0.12291636611
-0.122922254388
-0.122929787746
-0.122939314293
-0.122951264125
-0.122966193866
-0.122985530027
-0.123010265033
-0.123040318545
-0.123076137601
-0.123118706328
-0.123169298555
-0.123229111957
-0.12329889119
-0.123378834768
-0.123468232669
-0.123566317407
-0.123674343557
-0.123795425595
-0.123932975868
-0.124089640714
-0.124266470725
-0.12446336068
-0.124680433371
-0.124918628203
-0.12517933557
-0.125463905841
-0.125772635145
-0.12610389004
-0.126455787602
-0.126827821846
-0.127219432998
-0.12763155898
-0.128067742672
-0.128527647101
-0.129006765014
-0.129505819266
-0.130032133478
-0.130589674222
-0.131173733942
-0.13177711315
-0.132394242205
-0.13302058762
-0.13365227307
-0.134285513492
-0.1349167482
-0.135542693371
-0.136158064787
-0.136754172882
-0.1373203772
-0.13785282603
-0.138352542555
-0.138813406151
-0.139224092855
-0.139578909822
-0.139881113114
-0.140133822261
-0.140337092331
-0.140490841312
-0.140614887435
-0.14074604179
-0.140922251615
-0.141145098947
-0.141368722506
-0.141556439243
-0.141705258226
-0.141825001673
-0.141926877081
-0.142018068648
-0.142096400136
-0.142164043565
-0.142221156871
-0.142267144653
-0.142296582276
-0.142315037106
-0.142322784011
-0.122906539716
-0.12290706691
-0.122908345473
-0.12291109554
-0.122915622526
-0.122921686349
-0.122929181131
-0.122938261202
-0.12294970707
-0.122964424299
-0.122983470403
-0.123007739921
-0.123037517039
-0.123073137279
-0.123115283431
-0.123165080489
-0.123224252282
-0.123293689152
-0.123373383842
-0.123462361457
-0.123559382379
-0.123666340757
-0.12378677471
-0.123923778114
-0.124079944367
-0.124256349193
-0.124452657108
-0.124669227355
-0.124907027481
-0.12516727337
-0.125451139469
-0.125759346973
-0.126090329653
-0.126441622952
-0.126813166413
-0.127204488776
-0.127616227536
-0.128052429897
-0.128512811476
-0.128992396815
-0.129491172153
-0.130017698823
-0.13057690648
-0.131162366967
-0.13176657369
-0.132384718798
-0.133012228865
-0.133645365561
-0.134280062647
-0.134911914207
-0.135537506602
-0.136153835049
-0.136753546219
-0.137321977132
-0.137856240073
-0.138358484504
-0.138818651956
-0.139227501432
-0.139582672765
-0.139884890928
-0.140135800192
-0.140339335113
-0.140495819753
-0.140624031215
-0.14075886316
-0.14093646418
-0.141162321601
-0.141385804632
-0.14157217193
-0.141720431591
-0.141839812681
-0.141941815798
-0.142033712039
-0.142112959066
-0.142179207486
-0.142233715392
-0.14227571114
-0.142303705505
-0.142321377122
-0.142327195541
-0.122904485123
-0.122905343153
-0.122906443399
-0.122908885381
-0.122913144168
-0.122919719347
-0.122927514228
-0.122935979135
-0.122946567343
-0.122960592735
-0.122979004101
-0.123002569359
-0.123031677072
-0.123066614925
-0.123107839906
-0.123155808809
-0.123213123068
-0.123282316086
-0.123361547143
-0.123449186047
-0.123544283338
-0.123648821575
-0.123767809304
-0.123904233282
-0.124059314015
-0.124234208902
-0.124429389301
-0.124645013523
-0.124881793508
-0.125140906752
-0.125423506928
-0.125730578797
-0.126060977264
-0.12641074629
-0.126780470612
-0.127171614424
-0.12758279375
-0.128018037937
-0.128478684275
-0.128959820677
-0.129461745079
-0.129990638863
-0.130549874743
-0.131135364199
-0.13174061748
-0.132360375876
-0.13299014507
-0.133625843836
-0.134263369219
-0.134898598757
-0.135527731707
-0.13614605251
-0.136745609328
-0.13731754361
-0.137858341221
-0.138363178019
-0.138822897548
-0.139231505695
-0.139586901062
-0.139889372211
-0.140141129209
-0.140344531042
-0.140504608184
-0.14064221389
-0.140790441638
-0.140977283207
-0.141196742376
-0.141413782572
-0.141601342083
-0.141752118405
-0.141873811243
-0.141976724353
-0.142065249456
-0.142139669704
-0.142202954804
-0.142254295185
-0.142292004756
-0.142317265983
-0.14233283189
-0.14233831904
-0.122901565845
-0.122902395985
-0.122903247092
-0.12290538145
-0.122908924615
-0.122915109856
-0.122924329287
-0.122932506303
-0.12294193956
-0.122954874967
-0.122972301727
-0.122994927126
-0.123023089574
-0.123056749414
-0.123096305528
-0.123143298529
-0.123199558284
-0.123266377415
-0.12334219484
-0.123425685315
-0.123518289123
-0.123622217169
-0.123740110212
-0.12387477158
-0.124028086604
-0.124201198718
-0.124394661845
-0.124608688355
-0.124843875059
-0.125101257176
-0.125382205589
-0.125687601213
-0.126016363804
-0.126365316059
-0.126732256288
-0.127120686559
-0.127532456574
-0.127967333698
-0.128426797804
-0.128909726444
-0.129415763283
-0.129948113916
-0.130508928334
-0.131095521944
-0.131702578003
-0.132324912935
-0.132957895694
-0.133597266604
-0.134238849141
-0.134878470709
-0.135511843456
-0.136133689027
-0.136736904202
-0.137314192773
-0.137859985634
-0.138367476627
-0.138828546642
-0.139237954196
-0.139593882677
-0.139896848089
-0.140149329357
-0.140355917103
-0.140527422052
-0.140683036942
-0.140843284878
-0.141028334578
-0.141245923304
-0.141463339395
-0.141652879631
-0.141805772246
-0.141926341298
-0.14202338704
-0.142105011456
-0.142178046307
-0.142240879231
-0.142287527234
-0.142318832455
-0.142341871649
-0.142357582856
-0.142363951336
-0.122896996399
-0.122897068287
-0.12289804609
-0.122900049848
-0.122903673339
-0.122908684178
-0.122916544348
-0.122925201681
-0.122934661818
-0.12294690343
-0.122963162213
-0.122984639289
-0.123011512091
-0.123044172079
-0.123082913682
-0.12312778744
-0.123180590697
-0.12324261202
-0.123313959009
-0.12339459673
-0.123485195572
-0.123587192166
-0.123703099251
-0.123835574307
-0.123986470727
-0.124157110502
-0.124348105462
-0.124559855143
-0.124792890617
-0.125048067784
-0.125326585424
-0.125630076398
-0.125957617718
-0.126303036467
-0.126667178278
-0.12705322507
-0.127462871531
-0.127897863877
-0.128358415993
-0.128843685703
-0.129353538747
-0.1298896531
-0.130453135768
-0.131041982998
-0.131651816713
-0.13227770831
-0.132914948381
-0.133559121924
-0.134205961508
-0.134851170171
-0.135490137643
-0.136117369634
-0.136726238969
-0.137309788887
-0.137861123165
-0.13837236947
-0.138835919873
-0.139247110154
-0.139604504623
-0.139909280132
-0.140165403589
-0.14038071995
-0.140569031329
-0.140743486947
-0.140913750261
-0.141101570333
-0.141317139394
-0.141533897283
-0.141725021235
-0.141877991934
-0.14199345657
-0.142083576942
-0.142164746344
-0.14223993144
-0.142298432352
-0.142338128486
-0.142365599698
-0.142389622777
-0.142403509972
-0.142407758642
-0.12288890187
-0.1228886806
-0.122890223121
-0.122892030429
-0.122895506021
-0.122900007423
-0.122907037253
-0.122915183361
-0.122924616162
-0.122936270452
-0.122951049107
-0.12297097935
-0.122996960018
-0.123028557564
-0.123064745135
-0.123106389562
-0.123155211774
-0.123212927273
-0.123280187143
-0.123357218561
-0.123444468885
-0.123543561329
-0.123656793633
-0.123786507678
-0.123934419455
-0.124101683251
-0.124289468905
-0.124498237177
-0.124728514988
-0.124981003923
-0.125256745612
-0.125557079256
-0.125880827924
-0.126224724595
-0.126584932479
-0.126967096029
-0.127375441577
-0.127810889376
-0.128272967423
-0.128760918684
-0.129274604768
-0.129814841772
-0.130381985988
-0.130974295264
-0.131588025275
-0.132218547376
-0.132861142015
-0.133511282429
-0.134164601707
-0.134816684078
-0.135462726853
-0.136097145459
-0.136713427171
-0.137304372449
-0.13786214091
-0.138378383239
-0.138845927106
-0.139260664965
-0.139621781781
-0.139931598089
-0.14019596415
-0.140425006662
-0.140632948392
-0.140822743692
-0.141003586358
-0.141200479765
-0.141420229867
-0.141635385384
-0.141823695689
-0.141971109536
-0.142079524623
-0.142169308244
-0.142255545715
-0.142327554615
-0.142378107926
-0.142411054937
-0.142437203758
-0.14245778251
-0.142467323225
-0.142470839286
-0.122876863851
-0.122877429285
-0.122879841875
-0.122882314841
-0.122884373992
-0.122888473806
-0.122895261838
-0.122902817089
-0.122911751265
-0.122922590545
-0.122936666146
-0.122954481871
-0.122978589556
-0.123007396069
-0.123040353179
-0.123078416778
-0.123123562631
-0.123177436754
-0.123240564932
-0.123312960581
-0.123396010681
-0.123491563764
-0.123601300757
-0.123727329792
-0.123871459775
-0.124035135536
-0.124218277183
-0.124423167021
-0.124650228446
-0.124900017758
-0.125171972668
-0.125467743637
-0.125787448643
-0.126125994
-0.126483213586
-0.126863005823
-0.127270337236
-0.127706228351
-0.128169955352
-0.128660738199
-0.129178374987
-0.12972315085
-0.130294881487
-0.130891855955
-0.131510703821
-0.132147045558
-0.132796194242
-0.133453551815
-0.134114669034
-0.134775034856
-0.135429727229
-0.136073063526
-0.136698397184
-0.137298101658
-0.137863730859
-0.138386841415
-0.138860773482
-0.139282102631
-0.139650852687
-0.139970423425
-0.140248066597
-0.140494744935
-0.140719927966
-0.140926158222
-0.141125404656
-0.141334638267
-0.141558378114
-0.141768457806
-0.141947711672
-0.142087528045
-0.142195802232
-0.142293073295
-0.142379917914
-0.142442904418
-0.142483880053
-0.142510459694
-0.142532805295
-0.142544879584
-0.142546820607
-0.142548092891
-0.122863088873
-0.122864348058
-0.12286682593
-0.122870006539
-0.122871446962
-0.122875495969
-0.12288118052
-0.122888018149
-0.122896341787
-0.122905135528
-0.122918424977
-0.122934832778
-0.122955901876
-0.122981178998
-0.12301064201
-0.123044775048
-0.123086245007
-0.123136115782
-0.123194338964
-0.123261646549
-0.123339879825
-0.123430972178
-0.12353636526
-0.123658276179
-0.123798060482
-0.12395666937
-0.12413553286
-0.124333864198
-0.124557437466
-0.124804336234
-0.125072050678
-0.125360580399
-0.125674558896
-0.126008384589
-0.126361801427
-0.126740319441
-0.127147131958
-0.1275833401
-0.128048630081
-0.128542330119
-0.129064120249
-0.12961391682
-0.130191138919
-0.130793984556
-0.131419254461
-0.132062734869
-0.132719779343
-0.133385746958
-0.134056118656
-0.134726304102
-0.135391288968
-0.136045271042
-0.136681379696
-0.137291616776
-0.137867280812
-0.13840016216
-0.138884193007
-0.13931652118
-0.139697585501
-0.140031143436
-0.140324658956
-0.140588693108
-0.140832516445
-0.141063006271
-0.141282928303
-0.141506118213
-0.141729143742
-0.141932870473
-0.142104123837
-0.142241824221
-0.142356982496
-0.14246009773
-0.142539312775
-0.142589786489
-0.142619155138
-0.142637302834
-0.142646834087
-0.142645816769
-0.142636475068
-0.142631299727
-0.122848383797
-0.122849919914
-0.122851965324
-0.122853624927
-0.122855390177
-0.122859973833
-0.122864563579
-0.122870323355
-0.12287814921
-0.122885736365
-0.122895482527
-0.122910205454
-0.122928657907
-0.122950059544
-0.122975917941
-0.123006754098
-0.123043527814
-0.123088304791
-0.123141262003
-0.123203331008
-0.123276225114
-0.123361803311
-0.123461451958
-0.123577888521
-0.123713746467
-0.12386583422
-0.124039127165
-0.124233339953
-0.124449806793
-0.12469090386
-0.124954027603
-0.12523881715
-0.125542928099
-0.125870217579
-0.126221209537
-0.126598599296
-0.127004871173
-0.127441307092
-0.12790806868
-0.128404743148
-0.128930947061
-0.129486310287
-0.130069940286
-0.130679888104
-0.13131298097
-0.131965075736
-0.132631548765
-0.133307718685
-0.133988986641
-0.134670674472
-0.135347689912
-0.13601413732
-0.136663001897
-0.13728617175
-0.137875103414
-0.138422032928
-0.138921161914
-0.139369368114
-0.13976664464
-0.14011692956
-0.140427496421
-0.140709841035
-0.140975578811
-0.141230836343
-0.141475584946
-0.141715373228
-0.141944655661
-0.142138885905
-0.14230464754
-0.142446026021
-0.142570698143
-0.142672743498
-0.142738689619
-0.142772571046
-0.142786709688
-0.142788579704
-0.142776392386
-0.142755114816
-0.142730946987
-0.142716316645
-0.122832800657
-0.122834344939
-0.122836303086
-0.122836838658
-0.122838341866
-0.122841898631
-0.12284532977
-0.122849518591
-0.122855159182
-0.122862978178
-0.122869839499
-0.122881305726
-0.122896664526
-0.122914544106
-0.122936080598
-0.122963174694
-0.122995517733
-0.123034491446
-0.12308131037
-0.123137548564
-0.123204816369
-0.123284521095
-0.123377672041
-0.123486253499
-0.123616474377
-0.123764095632
-0.123927228229
-0.124115878966
-0.124325488229
-0.124561022895
-0.124818021049
-0.125095683676
-0.125393473365
-0.125713761162
-0.126061070287
-0.126436885118
-0.126842461414
-0.127279032387
-0.127747180655
-0.128246861307
-0.128777757731
-0.129339293488
-0.129930295913
-0.13054863371
-0.13119107416
-0.131853463949
-0.132531153203
-0.13321938637
-0.133913439451
-0.13460850973
-0.135299440758
-0.135980353964
-0.136644358866
-0.137283710493
-0.137890497264
-0.138457354433
-0.138977377412
-0.139445178072
-0.139860839028
-0.140231579143
-0.140562784449
-0.140865132104
-0.141153312246
-0.141431912426
-0.141701501842
-0.14195902254
-0.142192674276
-0.142396901621
-0.142560720434
-0.142709594856
-0.142842800239
-0.142938226308
-0.142986146741
-0.142996240226
-0.142989298565
-0.142965575985
-0.14292338823
-0.142872690853
-0.142827994719
-0.142801153634
-0.122815798149
-0.122816993059
-0.122818542233
-0.122818724514
-0.122820505534
-0.122821931323
-0.122823755838
-0.122826210165
-0.122828191125
-0.12283434719
-0.122839404386
-0.122847668628
-0.122859579057
-0.122874367875
-0.122891829273
-0.122913685853
-0.122940907094
-0.122974076794
-0.123014397985
-0.123063798372
-0.123124501613
-0.123198182636
-0.123285843769
-0.123385725488
-0.123505083098
-0.123648007447
-0.123804286883
-0.123983303591
-0.12418519683
-0.12440898486
-0.124660444917
-0.124931804784
-0.125222965493
-0.125537595426
-0.125880850167
-0.126254276735
-0.126658707244
-0.127095243216
-0.127564700429
-0.128067398351
-0.128603246514
-0.12917159005
-0.129770994472
-0.130399107355
-0.131052583901
-0.131727209474
-0.132418247891
-0.133120779962
-0.133829852417
-0.134540460145
-0.135247399522
-0.135945012063
-0.136627010788
-0.137286773206
-0.137917655038
-0.138512172018
-0.13905867886
-0.139546706367
-0.139982335115
-0.140385433333
-0.140746705172
-0.141066667054
-0.14137337006
-0.141671108881
-0.1419598533
-0.142232168452
-0.142478330397
-0.142699317643
-0.142872937774
-0.143042252154
-0.143188346326
-0.143275364365
-0.143296506393
-0.143264435085
-0.143229063906
-0.14317528014
-0.143093398302
-0.142998823681
-0.142921391918
-0.142875605944
-0.1227972222
-0.122797694831
-0.122797774134
-0.122798180037
-0.122799852466
-0.122799570617
-0.122799787229
-0.122800590599
-0.122799621949
-0.122801780335
-0.122804380261
-0.122809291299
-0.122817254967
-0.122828663113
-0.122843041588
-0.122859180179
-0.122880130945
-0.122906908635
-0.122940397936
-0.122982192628
-0.123034635154
-0.123100387758
-0.123183005198
-0.123277412196
-0.123383970793
-0.123516138538
-0.123666263148
-0.123833032741
-0.124028112485
-0.12424377306
-0.124482762747
-0.124744849207
-0.12502949424
-0.125339905271
-0.12567914661
-0.126049483962
-0.126452197538
-0.126888433581
-0.127359139757
-0.127864879175
-0.128405887308
-0.128981654564
-0.129590556245
-0.130229957436
-0.130896367894
-0.131585504547
-0.132292483353
-0.133012074875
-0.133738902129
-0.134467603802
-0.135192914342
-0.135909659593
-0.136612878396
-0.137298157915
-0.137961072768
-0.138593639485
-0.139172142521
-0.139676123124
-0.14013264314
-0.14060180628
-0.141011558982
-0.141331169061
-0.141645572493
-0.141956231843
-0.142263766372
-0.14255351598
-0.142813366628
-0.143034864627
-0.143239516869
-0.143433662077
-0.143623478951
-0.143705387423
-0.143686110919
-0.143573107651
-0.143511686972
-0.143433252776
-0.143296405314
-0.143126018035
-0.142994184768
-0.142913904841
-0.122777260551
-0.122777046583
-0.122775436193
-0.122775437564
-0.122775435006
-0.122774191165
-0.122772947975
-0.122771596229
-0.122768603388
-0.122766978901
-0.122765667738
-0.122766507533
-0.122769964315
-0.122776603594
-0.122786968252
-0.12279790128
-0.122812755403
-0.122832772374
-0.12285898157
-0.122892768457
-0.122935974654
-0.122991421116
-0.123065046531
-0.123155317395
-0.123252761988
-0.12336984497
-0.123511815972
-0.123667768091
-0.123848013305
-0.124054892386
-0.124284603018
-0.124537789474
-0.124814386654
-0.125119170643
-0.125453998504
-0.125820812
-0.126221266844
-0.126656775843
-0.127128616455
-0.127637541705
-0.128183966184
-0.128767694353
-0.129387167641
-0.130039502292
-0.130721008382
-0.13142735075
-0.132153467215
-0.132893613921
-0.133641671181
-0.1343916272
-0.135138015252
-0.135876460068
-0.136604023014
-0.13731975465
-0.138023373323
-0.138711228771
-0.13933431199
-0.139839294111
-0.140303091376
-0.140946833046
-0.141516793976
-0.141734183305
-0.142045085703
-0.142373901768
-0.142714841268
-0.143026162399
-0.143297283496
-0.143429683304
-0.143602628528
-0.144012678971
-0.144389861165
-0.144473959926
-0.144353681165
-0.143919126634
-0.143804411834
-0.143743787152
-0.143536096794
-0.143231434686
-0.143020178184
-0.142875293636
-0.122756639057
-0.122756074139
-0.122754315339
-0.122752074037
-0.122749520764
-0.122746822333
-0.122743811344
-0.122739536554
-0.122734899767
-0.122729347962
-0.122723553572
-0.122719770824
-0.122718232092
-0.1227193194
-0.122723070534
-0.122728641193
-0.122737861041
-0.122751105649
-0.122769601789
-0.122794899574
-0.122828597157
-0.122872854864
-0.122933958755
-0.123016259714
-0.123108194374
-0.123209938385
-0.123339163686
-0.123486932974
-0.123651039775
-0.123843469082
-0.124061876256
-0.124305487884
-0.124575460777
-0.124874111345
-0.125203648138
-0.125566255642
-0.125963972326
-0.126398356738
-0.126870957335
-0.127383076854
-0.127935326523
-0.128527649712
-0.129158722965
-0.129825660357
-0.130524666788
-0.131251418746
-0.132000670312
-0.132765901619
-0.13353975227
-0.134315047454
-0.135085814277
-0.135848575882
-0.13660236545
-0.137350054525
-0.138097724842
-0.138883504626
-0.139605894663
-0.140058146319
-0.140365695405
-0.141432410715
-0.141384430926
-0.141321407734
-0.141382703624
-0.141466419223
-0.141584379126
-0.141717480166
-0.141884311565
-0.142114686902
-0.142349322663
-0.142568691534
-0.142849031392
-0.143010610706
-0.143045552524
-0.143312214028
-0.144113953659
-0.144450968354
-0.144077087801
-0.14329458692
-0.142959310087
-0.142678967649
-0.122735322967
-0.122734545557
-0.122732757801
-0.122727938135
-0.122723070388
-0.122718421835
-0.12271323278
-0.12270619302
-0.122699527386
-0.122689143838
-0.122678408177
-0.122669606407
-0.122662740751
-0.122658130089
-0.122654698184
-0.122653426768
-0.122655951287
-0.122661833939
-0.122672020006
-0.122688101959
-0.122711811441
-0.122744870573
-0.122791728568
-0.122861429407
-0.122946826726
-0.123035780447
-0.123147081255
-0.123285715748
-0.123439971408
-0.123614237489
-0.123817913711
-0.124050001607
-0.124311161893
-0.124602581785
-0.124925987861
-0.125283654759
-0.125677893932
-0.126110744468
-0.126583880837
-0.127098967305
-0.127657246464
-0.128258892375
-0.128902694455
-0.129585907877
-0.130304948624
-0.131055825768
-0.131833214048
-0.132629495046
-0.133435311225
-0.134241559981
-0.135041094668
-0.135831391766
-0.13661125934
-0.137380482126
-0.138149514444
-0.139139745303
-0.140160480835
-0.140101309836
-0.140085160124
-0.140351784258
-0.140703997929
-0.140720093269
-0.140597141356
-0.140390138551
-0.140149545029
-0.139885088543
-0.139646395544
-0.13950761923
-0.139495986846
-0.13960885069
-0.139864323723
-0.140165531226
-0.140497679392
-0.141019192319
-0.141689455736
-0.14223641348
-0.142422003858
-0.142822350821
-0.142922400311
-0.142253855316
-0.122713526755
-0.12271221662
-0.122709046476
-0.122702847663
-0.122696024356
-0.122689298201
-0.122681429694
-0.122671230173
-0.122661247904
-0.122645999667
-0.122630417427
-0.122616399138
-0.122604007238
-0.122593498523
-0.122582623796
-0.12257340211
-0.122567969276
-0.122565458848
-0.122566437223
-0.122572418293
-0.122585146892
-0.122606468163
-0.122639361781
-0.12269299958
-0.122766792117
-0.122847644286
-0.122938386158
-0.123057587833
-0.123201927941
-0.12336426797
-0.123552243688
-0.123770527449
-0.124020557033
-0.12430298096
-0.124619028723
-0.124970677363
-0.125360591895
-0.125791145185
-0.126264458387
-0.126782374707
-0.12734667918
-0.127958188705
-0.128615925999
-0.129317148158
-0.130058698658
-0.13083770293
-0.131649439835
-0.132484777744
-0.133331052183
-0.134176195534
-0.135010867795
-0.135835431626
-0.136639739421
-0.137386212776
-0.137943424654
-0.139405251082
-0.139562974424
-0.139678690515
-0.13972273973
-0.139770708947
-0.139929969106
-0.13982308819
-0.139487714928
-0.138969766993
-0.138342395818
-0.137649665537
-0.136958177764
-0.1363424314
-0.135873308526
-0.135609261042
-0.135565637612
-0.13566025304
-0.135877060707
-0.136384883629
-0.137379379832
-0.138712426795
-0.139933259757
-0.140644994778
-0.140807330051
-0.140712374847
-0.122691906387
-0.122690063377
-0.122685656507
-0.122677754636
-0.122669222321
-0.122660073735
-0.12264902855
-0.122634937582
-0.122620119698
-0.122600554017
-0.122579913391
-0.122560405732
-0.122542261128
-0.122525679031
-0.122506489092
-0.122488680439
-0.122474353559
-0.122462451257
-0.122453147536
-0.122447992966
-0.122448585268
-0.122456920246
-0.122475497611
-0.122511482802
-0.122568771495
-0.122640604921
-0.122714826896
-0.122811560349
-0.122935986228
-0.123085175559
-0.123259164601
-0.123463817714
-0.123701170318
-0.123972845884
-0.124280210901
-0.124624839257
-0.125009307014
-0.125436683499
-0.125909461848
-0.126429880629
-0.127000147207
-0.127621748796
-0.128294367234
-0.129015339206
-0.129781836844
-0.130593175164
-0.131446582026
-0.132331131216
-0.133229421539
-0.13412554804
-0.135004695713
-0.135883903853
-0.136753755916
-0.137476646385
-0.138022743717
-0.138362927937
-0.138734365393
-0.139108634576
-0.139216042475
-0.139118978661
-0.138877156455
-0.138375485597
-0.137672544199
-0.136795707851
-0.135808826679
-0.134764995314
-0.133727703244
-0.132755058784
-0.131907954294
-0.131254206215
-0.130840103273
-0.130623221039
-0.130586974148
-0.130866477015
-0.131733719484
-0.133313846398
-0.135213437657
-0.136698399154
-0.138104753595
-0.140792325254
-0.122671488431
-0.122669015097
-0.122662819131
-0.122653419253
-0.12264337016
-0.122631569058
-0.122617061804
-0.122599154271
-0.122579332111
-0.122554105895
-0.122527621587
-0.122501952812
-0.12247737884
-0.122453852422
-0.122425626638
-0.122398830033
-0.122374869456
-0.122352803855
-0.122332186353
-0.122314829881
-0.122302082446
-0.122296045947
-0.122299142808
-0.122316398061
-0.122353352156
-0.1224100489
-0.122474436334
-0.122551113676
-0.122652696887
-0.122781494109
-0.122938026208
-0.123126998135
-0.123349727447
-0.123608900971
-0.123906188516
-0.124242514585
-0.124620671543
-0.125043908574
-0.125515396695
-0.12603767703
-0.126613444974
-0.127245203424
-0.127933476965
-0.128675892739
-0.12946891636
-0.130314413084
-0.131216285352
-0.132164662766
-0.133132558992
-0.134097766085
-0.135021865989
-0.135988762173
-0.137023638454
-0.137228249996
-0.137416420414
-0.13770244458
-0.138188946768
-0.13845966679
-0.138327311478
-0.137899447815
-0.137198094059
-0.136221289717
-0.135055090202
-0.133739041045
-0.132328546669
-0.130873747179
-0.129432812207
-0.128059548007
-0.126809180171
-0.125745812477
-0.124933060581
-0.124383349084
-0.124077882048
-0.124138299357
-0.124857563242
-0.126482741279
-0.128667635352
-0.130471079945
-0.133403296033
-0.144356812536
-0.122653004144
-0.122649852295
-0.12264192916
-0.122631197278
-0.122619308405
-0.122604553668
-0.122586289342
-0.122564592856
-0.122539246886
-0.122507534111
-0.12247429247
-0.122441577825
-0.122409531826
-0.122376921531
-0.122339698936
-0.122303500387
-0.122269136401
-0.122235786903
-0.122203081317
-0.122172634627
-0.122145419124
-0.122123509956
-0.122109762586
-0.122107064365
-0.12212101536
-0.122156332742
-0.122207159717
-0.122266377289
-0.122345854225
-0.122452949272
-0.122588379649
-0.122757884928
-0.122963971694
-0.123208112914
-0.123493266952
-0.123819848219
-0.124190325745
-0.12460843936
-0.125077808756
-0.125601502949
-0.126182311116
-0.126823533902
-0.127526976105
-0.128291325608
-0.12911378998
-0.129998506164
-0.13095407877
-0.131973413826
-0.133032570803
-0.134108543532
-0.13502583211
-0.13605203616
-0.13640221096
-0.136725871398
-0.137063868152
-0.137407878149
-0.137662937581
-0.137504775338
-0.136910431533
-0.135987059937
-0.134763172019
-0.133276934121
-0.13160648706
-0.129797880757
-0.127900633063
-0.125958445734
-0.124018806779
-0.122124385871
-0.12031344784
-0.118627308925
-0.117126541954
-0.115874948146
-0.114850967854
-0.114146705179
-0.114029502913
-0.114861334553
-0.116487671781
-0.117465035074
-0.117401052594
-0.122093432718
-0.122637502687
-0.122633670886
-0.122624324235
-0.122612111346
-0.122597771708
-0.122579703259
-0.122557223572
-0.1225313813
-0.12250009485
-0.1224614186
-0.122420750876
-0.122380183369
-0.122339744772
-0.12229692705
-0.122250040862
-0.122203417757
-0.122157602027
-0.122111542677
-0.122065613069
-0.122021039953
-0.121978261208
-0.121939010135
-0.121906868021
-0.121882941105
-0.121872256253
-0.121881312761
-0.121909211059
-0.121950659191
-0.122009427423
-0.122093936286
-0.1222072506
-0.122353118604
-0.122538463937
-0.122765094705
-0.123036570894
-0.123352397146
-0.123713883578
-0.124125451266
-0.124591413309
-0.125115570173
-0.125701025729
-0.126351216184
-0.127069647148
-0.127856654693
-0.12871051675
-0.129634597867
-0.130642213241
-0.131742806539
-0.132925466039
-0.134215691932
-0.134944045566
-0.135363989186
-0.135782010829
-0.136417351233
-0.136796118049
-0.136923009914
-0.136716652893
-0.135995011788
-0.134827309879
-0.133311750985
-0.131496921463
-0.129436165518
-0.127188533966
-0.124790979609
-0.122278472488
-0.11968045906
-0.117027973438
-0.114349429078
-0.111669213094
-0.109013136109
-0.106431048052
-0.103990169952
-0.101638666992
-0.0992868959808
-0.0970759698303
-0.0954640504038
-0.0943814096311
-0.0900628402541
-0.0745177682822
-0.0558877407713
-0.122625419933
-0.122620929457
-0.122610404139
-0.122596455706
-0.12257928197
-0.122557524777
-0.122530790695
-0.122500250333
-0.122462396123
-0.122416547608
-0.122367917466
-0.122318873375
-0.122269414787
-0.122216257555
-0.122158141093
-0.122099844678
-0.122041393282
-0.121981265317
-0.121920287502
-0.121860063669
-0.121800244254
-0.121742043899
-0.12168948397
-0.121642954771
-0.121606462289
-0.121586754717
-0.121587584903
-0.121607659948
-0.121648017046
-0.121705783741
-0.121792460277
-0.121912941155
-0.122073949227
-0.122276940449
-0.122529458232
-0.122833403342
-0.123185396807
-0.123589722912
-0.124050897666
-0.124573843378
-0.125162979406
-0.125822062169
-0.126555305761
-0.127363355119
-0.128243174287
-0.12920032523
-0.130256753594
-0.131453849407
-0.132843269463
-0.135115447377
-0.134530245019
-0.134802393274
-0.135484719533
-0.136173402507
-0.136247966563
-0.135933520507
-0.135126111488
-0.133765865078
-0.131953767287
-0.129781745612
-0.127309383387
-0.124590507825
-0.12166808148
-0.118568662263
-0.115315953089
-0.111931315044
-0.10843814171
-0.10485811525
-0.101205645642
-0.0974829893981
-0.0936852018573
-0.0897937976194
-0.0857076771535
-0.0810862165078
-0.0758214577746
-0.0702958794978
-0.063932436879
-0.0498887627299
-0.0122498885687
0.0428522965661
-0.122617638973
-0.122612420915
-0.122600690112
-0.122584693896
-0.122564329753
-0.122538628219
-0.122507720944
-0.122471564344
-0.122426834473
-0.122373927911
-0.122316755102
-0.122258478552
-0.122199250974
-0.122135105726
-0.122064772185
-0.121993623146
-0.121921415469
-0.121845556481
-0.121767749329
-0.121690039023
-0.121611042677
-0.121531963997
-0.121456495839
-0.121385771072
-0.121322147006
-0.121271712348
-0.12124186991
-0.121233802751
-0.121251395608
-0.121284986244
-0.12134193727
-0.121430655384
-0.121563720239
-0.121743781607
-0.121971721063
-0.122256679906
-0.122597046258
-0.122993189478
-0.123449555161
-0.123970447986
-0.124561505818
-0.125228748534
-0.125975717209
-0.126800788687
-0.127698041251
-0.12867454117
-0.129751839942
-0.13095324545
-0.132012711114
-0.132944710188
-0.133612683221
-0.133884503417
-0.135252083243
-0.135589996201
-0.135219237096
-0.134304936173
-0.132800260177
-0.130736705138
-0.128224491141
-0.125351833633
-0.122182248754
-0.118768551928
-0.115150475659
-0.111357384125
-0.10741598659
-0.103349460006
-0.0991754465081
-0.0948982515804
-0.090499307609
-0.0859241515645
-0.081068028649
-0.0757679812717
-0.0698009928502
-0.0627545442902
-0.0543446553396
-0.0447023998643
-0.0320845844174
-0.00692883695051
0.0477773274109
0.117506293038
-0.122614663282
-0.122608767258
-0.122595868701
-0.122577465171
-0.122553456293
-0.122523626478
-0.122488303848
-0.122445709773
-0.122394152123
-0.122334348005
-0.12226806474
-0.122199822873
-0.12212997609
-0.122053972787
-0.121970513321
-0.12188534318
-0.121798016658
-0.121704383743
-0.121608256797
-0.12151125999
-0.121410244149
-0.121308410281
-0.121207795852
-0.121110407094
-0.121018169447
-0.120935529629
-0.120871583163
-0.120829647005
-0.120815016958
-0.120823247175
-0.120852213368
-0.120907218696
-0.121003201021
-0.121152943373
-0.121357481722
-0.121619588352
-0.121943346765
-0.122328287496
-0.122778034901
-0.123296981014
-0.123890038836
-0.124563348943
-0.125320211216
-0.126156528585
-0.127068194674
-0.128072467336
-0.129207705045
-0.130521796598
-0.130850990059
-0.130547878132
-0.131075985064
-0.133056592288
-0.134589472586
-0.134466119528
-0.133569256839
-0.131952605783
-0.129698390097
-0.126893967736
-0.123660281619
-0.120087724006
-0.116246413034
-0.112194266583
-0.107976881276
-0.103629727128
-0.0991787164534
-0.0946349702223
-0.0899879384009
-0.085197577024
-0.0801894297098
-0.0748454804056
-0.0689758785102