/*--------------------------------*- C++ -*----------------------------------*\
| =========                 |                                                 |
| \\      /  F ield         | OpenFOAM: The Open Source CFD Toolbox           |
|  \\    /   O peration     | Version:  v1806                                 |
|   \\  /    A nd           | Web:      www.OpenFOAM.com                      |
|    \\/     M anipulation  |                                                 |
\*---------------------------------------------------------------------------*/
FoamFile
{
    version     2.0;
    format      ascii;
    class       volScalarField;
    location    "967";
    object      alpha;
}
// * * * * * * * * * * * * * * * * * * * * * * * * * * * * * * * * * * * * * //

dimensions      [0 0 -1 0 0 0 0];


internalField   nonuniform List<scalar> 
6400
(
0.915551228301
1.4988929116
2.40210821997
3.06227146519
3.69093512312
4.30967392508
5.04765406752
5.86642455426
6.44569153973
7.27827292718
8.63294658588
9.68036057982
10.5919182531
11.5839363883
12.7538833908
13.9910982132
15.1524918979
16.2545861036
17.1998961846
17.8474140059
18.3201016516
18.9673476514
19.9725567663
21.2918810863
22.7070691368
24.0190967343
25.1713024794
26.2630584968
27.3858252763
28.5548467145
29.7147611042
30.6943369957
31.4174060467
31.9871452861
32.4561856726
32.8484511291
33.3963191264
34.1113787524
34.5574554781
34.8130029677
35.3842617903
36.3781814849
37.3472899985
37.9487601712
38.2083411804
38.2199111432
38.0464914369
37.725229246
37.2687687006
36.694941194
35.9368876708
34.8112690251
33.2766734515
31.4248427159
29.6278664667
27.8775405856
25.6530249973
22.802444949
19.830370986
17.1307441856
14.409458832
11.5923618368
9.07766489634
8.26975256059
10.4324741552
14.5078371381
17.0570086815
16.4471221081
14.1980243542
12.3993203139
11.4344598041
11.6422847635
12.2577699242
12.1965902289
14.4033833059
13.8934336303
15.8776129039
9.76964748598
12.8494307652
4.7969174752
3.18914217337
2.5944151828
3.26014132528
4.56149918102
4.63109356865
4.70498423287
5.05587010708
5.62546716643
6.40983519286
7.3917782949
8.55117807034
9.71343289221
10.7650442631
11.7814857487
12.8287736748
14.01449844
15.2670335009
16.4614401653
17.619519426
18.116211069
18.4351722259
19.0755471848
20.0758202129
21.3901576983
22.8960930431
24.166289914
25.296162071
26.4169707315
27.5500532022
28.6930258229
29.8317277962
30.87643283
31.5929300538
32.153974239
32.6462141192
32.9826367104
33.5629977723
34.3029436147
34.7239385746
34.8875053233
35.4381053264
36.774143086
37.936249655
38.4676421805
38.6838563489
38.6491676584
38.4190584364
38.0587933851
37.4981291011
36.8088327381
36.0939215327
35.3081497246
33.8968446084
31.6462361378
29.9204217304
28.0246570382
25.4485815158
22.6513653026
19.8286937438
17.0086249925
14.2980296045
11.832688955
9.41448422126
8.74502221379
10.7695529236
15.5379121291
18.7891402029
17.2354849764
14.8278863333
12.7294644898
11.9482882747
12.3758256163
13.561967503
13.0158729426
12.946772308
12.5008045504
11.3825141475
9.60130752654
8.11195724765
4.19073489249
3.35923483977
3.00796159722
3.54302238968
3.94252477957
4.63145632882
5.16884624639
5.23044401556
5.50710761321
6.29950977813
7.36002240172
8.53273950605
9.7138160781
10.8059150607
11.8203063577
12.7244574226
13.8148274151
16.3191581035
18.3455413744
19.0088946119
18.8364681302
18.2420456056
18.8096428531
20.1695342789
21.527134797
22.8437636086
24.1601294352
25.3722984779
26.4950015665
27.6094936138
28.7444505983
29.8586261233
30.9713960242
31.6766280201
32.067775022
32.7781110658
33.1367541345
33.5079862342
34.3726383497
34.8517971802
35.0854117063
35.6506734191
36.6153741456
37.5530923833
38.153462601
38.4378402996
38.4883417931
38.3474123354
38.0342873437
37.5523799141
36.9190857114
36.1282022096
35.0679516407
33.6193430998
31.9765287317
30.2238084723
27.9820924985
25.3803508447
22.6262552307
19.817644228
17.0359165678
14.3627229746
11.793360521
9.91151523141
9.98334182026
12.9582828776
16.5570579064
18.2550079033
18.0275214839
16.2370826509
14.4420245067
13.6915142412
13.577949061
12.9052107796
12.3403080876
12.4006119646
12.1566732816
11.2622278365
9.68417281561
7.24679533745
7.46664679301
3.50359357189
5.64116440197
3.9787332751
4.18215717566
4.94156925586
12.0169645314
10.4760333182
5.97236003834
6.24593613112
7.33968180522
8.54661317216
9.75037009172
10.8167640229
11.8221400249
13.4934052241
15.5566208956
17.3320408307
18.0684700125
17.6245502113
17.441351064
18.1059370318
19.0269118259
20.1745152576
21.5183128776
22.9076896977
24.246827817
25.4801635461
26.58897722
27.712218115
28.7964838179
29.9930556619
30.96666574
31.864982621
32.227743387
32.4622788133
33.1896690818
33.6459887392
34.1245019796
34.7348989102
35.2950487352
35.9454789237
36.7865345765
37.6165728423
38.2130732984
38.5340620206
38.6188061764
38.5035529621
38.2093000586
37.7446465663
37.1138348754
36.2954878911
35.2231244445
33.8510568857
32.2287026735
30.328906583
28.039635161
25.4240972159
22.6546594592
19.8518022108
17.1117435548
14.5492421585
12.4087244503
11.306049776
11.555517283
13.0591726655
17.0549346338
19.9252078748
19.7783048808
17.9224329447
15.4392957371
13.7356011506
12.8830216309
13.0564983145
14.5502992041
14.5508889868
13.2883403434
13.2204159002
16.5861506532
12.9461728376
10.9293197834
5.93950578632
7.76189535561
4.89904079653
5.22400643381
6.9014659865
11.9214774323
8.64502568387
6.56218469656
6.77552343605
7.54855298886
8.67452570489
9.88682509077
11.3609591989
13.5203935121
14.6555402914
15.3017326591
15.7453086217
16.0905910733
16.6371351938
17.4701080425
18.214426845
19.0839488077
20.2572502348
21.5983247091
22.9931371047
24.3524361635
25.5685307364
26.7634357728
27.7988308159
28.9964036644
30.0264625194
31.3830173157
31.8127004002
31.9701869802
32.5017939063
32.893945508
33.5068225267
34.210195935
34.8930856092
35.5348456505
36.2168082355
36.9905968591
37.7459982026
38.3287698944
38.6748936235
38.7911009097
38.7024914228
38.4299096428
37.983798691
37.3620477296
36.5406234874
35.4753072957
34.1346568283
32.5074905501
30.538896454
28.1861788677
25.5453169992
22.7817117124
20.0332009018
17.4383653434
15.1993724525
13.6554788398
13.1421280315
13.0552578511
13.790126026
16.9719297017
20.175909319
21.1428901602
19.7602706652
16.8675030168
14.2692551817
13.8566475774
16.133983953
17.0273904106
16.022573328
15.1485117389
17.8871934448
20.9522282438
16.1944252721
15.2974350539
10.2036267862
9.40580731934
6.11292056421
6.56936121587
12.2177994328
11.7427696614
7.33965986555
7.21993125599
7.43665202267
7.90487262524
8.88589842395
11.3881416937
14.4351171447
15.0403250538
14.9652474975
14.5518017626
14.743368942
15.5200810117
16.6694772039
17.4112086208
18.1314871343
19.1456630947
20.3754734979
21.7330219254
23.0699490476
24.4318293743
25.8214868565
26.8485258012
28.1536745751
29.0435258209
30.5704897315
31.2266294309
32.2057902927
32.095862716
32.1166013596
32.7244700025
33.5476411339
34.3572750194
35.0987430593
35.7910002629
36.4936965611
37.2328554442
37.9401297989
38.5077155626
38.8693565704
39.0121593826
38.9498287155
38.7013962432
38.277986675
37.6749497315
36.8684055688
35.8209310185
34.4940107084
32.8452151384
30.8247737025
28.4415937739
25.8176281474
23.1236048954
20.5234046096
18.2056587192
16.4131775961
15.4438376964
15.290780422
14.5163971078
15.8057999747
19.1186929895
21.7119156315
22.5511955843
21.3549806534
17.8484053327
15.5175442074
17.2047198277
19.3645313553
18.8222843681
17.8447513021
17.9430789026
22.6200272587
24.2477858436
19.1608503247
18.9622935702
12.3633680213
9.43482518913
7.41833736336
6.95800777798
12.2287632202
8.94083266366
7.70853703787
7.86790509809
8.06041131038
8.81083278659
9.43641395129
13.9662160072
14.8293418121
15.0523746573
14.1476979177
13.7330295031
14.4139468279
15.8496579376
16.5815851737
17.1526069626
18.1246659402
19.2317427201
20.4652327742
21.8180620743
23.2827856824
24.6884441831
25.8300077551
27.398622613
28.2444751403
29.8386166574
30.3879292191
31.625424139
31.82542606
31.9214530171
32.024664975
32.7236226887
33.6546827828
34.5396363437
35.328453047
36.0607032543
36.7850009732
37.5113671208
38.191831565
38.7484214323
39.1207302828
39.285921512
39.2497585956
39.029243313
38.6353095937
38.0616633358
37.2829278584
36.2592131286
34.94150288
33.2779380146
31.2406398532
28.8813431571
26.3456974983
23.8133087927
21.4560369145
19.4574137932
18.0391705296
17.2825980302
16.7479392063
16.5938544362
17.9203257707
21.9971255771
23.4033751929
23.1459536196
21.7319494578
19.272481483
18.7903089517
21.1587299853
21.4836110042
20.61565834
20.0185545607
22.0488698539
24.8808950415
26.4125056644
21.7536104694
20.6012989712
12.1712158969
9.2755073191
8.62303521116
12.5015083588
12.4314034107
8.26398043323
8.42074661449
8.61823276263
8.72163373832
9.35542116599
13.6419442199
14.6462602655
14.9122151773
14.6790942521
13.2134733731
13.4129328403
15.0179224531
15.9179006876
16.2648907972
17.0172460216
18.1293139469
19.3508216408
20.621269505
22.0158412243
23.3513335792
24.9331722737
25.8688914522
27.4007082831
29.109715288
29.9682614205
30.1541433411
31.2208518396
31.8298213219
31.5928539064
32.0485517378
32.8766501788
33.8206197794
34.738341461
35.5736584557
36.3474129491
37.0973600474
37.8269693798
38.497527256
39.049503724
39.431082846
39.6167213049
39.6081190819
39.4206202637
39.0641741898
38.5304967271
37.7910869684
36.8005110982
35.5034499398
33.8546390315
31.8580566136
29.602882369
27.2452969239
24.9393870228
22.8091374804
21.0143496149
19.759251363
19.064690472
18.7752211655
18.9282558975
18.8877920253
22.8814030373
25.5878816222
24.9397323082
23.9142294901
22.6483542372
23.1127860876
24.1931948592
23.3536215136
22.6043635849
22.7953718059
25.2165507843
25.969097283
26.6381291947
23.7306700737
21.565133146
11.5748003711
9.356590656
9.32056073254
13.532693134
11.6185017388
9.02472597801
9.19741448833
9.52913310082
10.5639808565
9.53269165948
14.4045423388
15.2101671892
14.984317834
13.6576053886
12.9831212363
13.5308030547
15.0452155016
15.6733607801
16.153856019
17.0051844428
18.1025905835
19.3776123743
20.7301843562
22.4544634347
23.9328735868
24.8918846048
26.8458889898
27.3384242018
29.2090391291
29.6233520482
30.9168819814
30.7554685445
31.0391266334
31.5432809865
32.2228129502
33.0808128199
34.0200834022
34.9561234237
35.8349191454
36.6547194564
37.4368161572
38.1810099867
38.8550682265
39.410328743
39.8027691207
40.0095467114
40.0320138404
39.8839902412
39.5736707754
39.0909334374
38.4043027874
37.4643422947
36.2172033378
34.636787474
32.7630970921
30.7081559606
28.5966158258
26.4867972199
24.4414503469
22.7277908141
21.6702434407
21.295642253
21.2967675435
21.2851133402
21.0458447662
21.4853150362
26.3351187581
27.3178671477
26.7072904794
26.7524501304
27.2784359142
26.5497880616
25.3091450588
24.9911727954
25.9835291163
27.2772346149
27.2376623829
26.7232926835
25.7466122224
24.390353772
11.2087866857
9.91603958656
10.4675300179
13.6600822183
9.99400798035
10.0619898951
9.9783162651
10.2788003576
13.0681239077
11.9430624055
15.2364023374
15.5249831923
15.1207523765
13.1487064908
13.0619489027
14.5916810258
15.2276158055
15.4519982594
16.0974170411
17.1054193664
18.1935410798
19.4123931549
20.6244043417
22.5401807504
24.7221934995
24.828126954
26.7617539262
28.3163925956
29.3831324355
30.3961069157
30.4344496683
30.8798799555
30.8285879358
31.4835378256
32.3867724006
33.3073815363
34.2482419635
35.1958306483
36.1127841852
36.9826628701
37.8065846618
38.5764091948
39.264515359
39.8311185351
40.2393332083
40.4707785591
40.5294238239
40.4286170218
40.1741471222
39.754607465
39.1383128676
38.2771801838
37.128382275
35.6943372806
34.0462389791
32.2810771795
30.4069628461
28.3285465289
26.2431483705
24.7818758387
24.2491343395
24.3264794188
24.4360583122
24.1954766148
23.5706825114
22.061898191
21.0840139738
29.4763212141
31.5945239187
31.7991074818
30.9214493506
28.9544330479
27.6704212856
27.7683237289
28.9414594115
29.3955191548
29.3350735847
29.230055972
29.6943873681
29.9579037629
11.3620925154
10.8511992692
13.728242396
13.957760308
10.2844865378
10.870912506
10.7603545303
11.1780712924
12.7618626274
15.2607736876
16.13883525
15.8713026424
15.4531218076
13.2974780689
13.2349401359
15.0376964463
15.3468734622
15.4365961563
16.0913422488
17.1874306796
18.4704395735
19.7257519674
20.7393765831
22.1483769481
24.8306999751
26.2536510646
26.481309512
28.3639957822
28.5679645767
30.3683872445
31.1461074432
30.865570651
30.8232106721
31.5833224154
32.5730367767
33.5415519414
34.499319233
35.4614094317
36.4099341612
37.3304145398
38.2067529057
39.0147624364
39.7273943068
40.3136428099
40.7446693906
41.0079707214
41.110600912
41.0654775727
40.8769080879
40.5345538678
40.0112425121
39.2686315523
38.2861009894
37.0992040576
35.7865870403
34.3487782912
32.5772337005
30.365820319
28.4383943294
27.748843489
28.1253257995
28.5985754953
28.6846485924
28.1577289576
27.0138119974
25.0502386806
22.4692004218
22.3834114363
33.5153906629
37.5667258501
35.3625903126
32.1327325312
30.7118202326
30.9003048715
31.6793894742
32.194987932
32.8771795406
33.7910124951
34.5942464515
35.3937950408
11.8617180745
11.7939551791
15.4125625689
14.8032715998
13.1045156475
12.1456639288
11.7778506262
12.6076015575
12.4118838307
16.2426638605
16.8743011604
16.3033028268
15.6754933602
14.0236172937
13.9820429961
15.4573947199
15.4031695511
15.5268914713
16.1732601809
17.1852169469
18.5518472733
20.1344020195
21.8997333358
22.1939443073
24.3164115102
26.5397668931
26.3991895886
28.5140342286
29.7463852568
29.7694774485
30.4713158784
30.4885684301
31.0676393818
31.8678712161
32.8109007452
33.7938152832
34.7752554091
35.7587258274
36.7328248092
37.6963635171
38.6333219355
39.4971669038
40.2467023627
40.8606764618
41.3237134919
41.6298295218
41.787295598
41.8074880494
41.6947899158
41.4440725071
41.0397837979
40.4659999638
39.7366048993
38.909866367
38.0081017084
36.8225069241
35.0350540864
32.8959869891
31.5497600138
32.5434713526
34.7334952862
35.2591026004
35.2638493468
34.5375226428
33.0798158506
30.5067634933
26.7432821617
22.0938280387
28.6565505706
38.572296676
40.1340584187
36.2495196379
34.7545407861
34.8538419938
35.3856788432
35.8610657639
37.5073074844
39.0646915168
39.2818521289
39.7011297685
12.5544761594
12.4977764723
15.250244709
15.3908849705
15.4572916016
13.3732965679
12.9191534248
15.3307092453
12.9141006416
17.11250833
17.4368298474
16.739691258
15.8836359062
14.718446966
16.3006394346
16.4719511772
15.6510987336
15.7574345845
16.3912186343
17.2737236738
18.4590724884
20.0966366327
22.9894246974
24.0390525615
23.8374504956
26.5097709106
27.7434397845
28.0971913019
29.6553954737
30.5216197525
30.7001307611
30.5241964961
31.2432470134
32.1601160328
33.1003975969
34.0783982569
35.0711045312
36.0858352986
37.099312416
38.0967656278
39.083843558
40.0144563402
40.8215609819
41.4769755214
41.982893089
42.3459754518
42.5729655297
42.6696349718
42.6413144066
42.4939843815
42.2353164892
41.8888221037
41.5086260138
41.1306372125
40.6090701644
39.5745662372
38.3243024845
37.1741481722
35.9894563323
38.1397107529
36.8668246311
34.5807808905
31.5572595759
28.0485658595
22.8726325487
15.2231852433
12.6357460409
0.00419502341503
0.000177117454209
24.9027607634
35.0306165834
36.4621089407
32.2033616332
31.4295160316
33.6512534613
37.1895197202
41.1953195029
44.5456084702
44.9192836972
45.3083769843
13.2942832527
13.2494602383
12.9007000306
15.7817347838
16.0655160074
14.2343180623
13.9333304142
16.3874358032
13.6632289678
18.0271084893
17.9522142061
17.1867036293
16.1798660847
15.0922343177
17.4220300547
17.1402856057
16.1648842637
16.1748147812
16.7254004518
17.5325085374
18.4839236221
19.9177942547
23.3908987851
25.0580375153
24.1242738654
26.4111856676
28.1655853695
27.7192125256
29.2213045528
30.1509191485
30.1026782585
30.8173652312
31.628466534
32.5006292081
33.4202426369
34.4073907786
35.4126616865
36.4317811177
37.4877731727
38.5442965763
39.5798233788
40.5688058604
41.4436531372
42.1605985903
42.7282855333
43.1678270449
43.4828315083
43.667222713
43.7287717145
43.691697934
43.5997541818
43.5410031954
43.5947651614
43.6633776029
43.3070402207
42.7584147436
43.1432806399
35.3587231057
26.6942088711
0.0905886973624
3.07066813276e-12
6.23583530108e-16
2.15979512203e-18
2.20359118744e-19
1.74868009179e-20
4.92567900939e-21
5.79789481147e-20
5.92401681122e-19
6.69180255159e-18
1.74783705025e-17
2.90241965216e-14
7.61870955868e-12
6.95219284716e-09
3.60113452604e-06
0.00910190194715
33.9360630251
43.4134682287
47.9134412779
51.6756704742
51.9960416731
14.2077764152
14.3103747285
16.4365261161
16.4943269033
16.5924466327
14.9681739543
15.003592112
17.3128288326
14.7261046581
18.8391685985
18.4542902007
17.6585412119
16.5537406228
15.518186363
17.7420196076
17.4385642806
16.6648087526
16.6564965192
17.1115436531
17.8301361145
18.6879543253
19.8470274097
22.857712926
25.806969705
26.121689776
25.8320570318
28.291517763
29.4263388752
28.3974421701
28.9968052334
30.0102962913
31.0078016201
31.948993458
32.8573838775
33.789902361
34.7658640185
35.7872659291
36.8365707815
37.9067774731
39.0171266758
40.1236466933
41.1756521427
42.1158475618
42.9055635958
43.559936417
44.1041933695
44.5320971319
44.8210143173
44.9714862886
45.0323519332
45.1232098788
45.4088509263
45.9253857278
46.1873638831
45.3160221645
43.8861413376
28.3650478735
7.32412045675e-22
8.05577299018e-25
1.51016945337e-26
2.55984071325e-28
7.40625431138e-31
2.10469580592e-33
3.64318860366e-38
2.84971293488e-38
6.91844770284e-38
4.6635807459e-37
2.18439518428e-36
8.06916671454e-36
5.12782934603e-35
4.01497590924e-35
3.48320989145e-33
1.98252843673e-30
1.99286411519e-28
1.51224721766e-26
3.48233992233e-24
5.86187390063e-20
33.487356252
55.6104563431
50.0607217608
15.0682848805
15.2645696471
18.0742244702
17.2490848949
16.8296366732
15.6917569875
16.0298950533
18.1199119984
18.1046887905
19.8530721998
19.0303760126
18.2272637964
17.016739939
16.0769857905
18.0793260916
17.6553011968
17.1220272373
17.1361140343
17.5084645909
18.1331965871
18.9383346214
20.0030049699
22.3641234285
25.9996197966
27.3794738405
25.6367689567
27.7037570888
29.4821361095
29.7874817238
29.2928511255
30.0133021422
31.1625865983
32.2535012596
33.2421613172
34.1636034825
35.153247803
36.1871356699
37.2703609147
38.378962697
39.5279385098
40.7052873078
41.8382283866
42.8457437276
43.7037993095
44.4637006465
45.168121791
45.7634715515
46.1627965308
46.3569253289
46.496538856
46.8065586476
47.4761456971
48.4509365353
48.154374401
40.2682379642
16.7481052864
4.05017029443e-28
1.64012351426e-30
4.74297170306e-32
6.90489737477e-34
5.61008320264e-37
9.36096144656e-40
6.5985846842e-41
0
0
0
0
0
0
0
0
9.17750600546e-45
3.09538277945e-42
4.63003286154e-40
2.68619679357e-37
3.75195768258e-34
2.03178097788e-29
3.08550469089e-25
2.4055776426e-18
61.5466893177
15.7639308504
15.9818069512
20.1518256085
17.8423009144
16.8306609654
16.3193827397
16.7701480185
18.2783665434
19.6698980425
20.9979657059
19.7547397014
18.9290425101
17.7241012583
16.9103309166
18.6194416959
18.0128449124
17.6428496555
17.6519360792
17.9381176326
18.4693914618
19.1932817661
20.1756070216
22.1278427538
25.8112519656
28.2945668254
27.7807320773
27.1565792795
28.7824362144
29.5891402447
29.3921319971
30.3676549632
31.5276943623
32.6682930653
33.6682109237
34.6212622488
35.5782645251
36.6318895613
37.73524173
38.8894654893
40.0874091503
41.3229474328
42.54280742
43.6503406478
44.5823465373
45.4530503208
46.353226943
47.1615459102
47.6798813225
47.9100731648
48.1137139062
48.6491124683
49.7957849676
50.9864886154
38.2492523899
0.000772711098613
5.86371814268e-31
1.9230442396e-34
7.77599667917e-36
1.06023373888e-37
2.90744905294e-40
0
0
0
0
0
0
0
0
0
0
0
0
0
1.18252154398e-43
1.17509232458e-42
2.57605698136e-41
1.24909440847e-39
6.9365078713e-36
5.77369671423e-27
1.11297323673e-31
16.2911645325
16.5019594678
22.1403477411
18.2895157201
17.0318976355
16.8818194723
17.5522071232
17.7893229298
20.5846182811
21.8106521758
20.4410923077
19.6364964765
18.610358704
18.6785846668
19.3789480243
18.6070203519
18.3512283042
18.3512979502
18.4712116195
18.8862736788
19.4959293013
20.3896941083
22.0602489805
25.5792016129
28.6279471794
29.3266080598
27.1436339848
27.8407197667
28.5518847615
29.4130052913
30.6006717572
31.9145205438
33.0801297801
34.1388672614
35.1275465112
36.1372038574
37.1392366548
38.2580210758
39.4428585724
40.6777712484
41.9980701365
43.3196736981
44.5224562293
45.4915755597
46.4254272889
47.8001101108
49.393548106
50.1509779985
49.9038176528
49.9865669508
50.6328804932
51.9399036851
38.0194200639
3.10297476648e-25
4.67658944681e-30
2.09799155504e-41
2.12004645676e-38
3.45933156934e-40
0
0
0
0
0
0
0
0
0
0
0
0
0
0
0
0
0
0
1.82695871163e-42
1.23718626371e-41
2.28147404422e-39
92.3425174419
16.7220151772
16.8999406301
22.0084850308
17.8269557377
17.2680227974
17.35410879
18.4274734663
17.8597287735
21.3632360762
22.5507520685
21.0745347788
20.2769729731
19.2960893328
20.7558657624
20.4091369889
19.3936815592
19.1633252584
19.3690830795
19.2198273577
19.4670240986
19.8922970627
20.6501697318
22.1234094178
25.3314200725
28.4162704215
30.3322594617
29.4447555269
28.893582763
29.1598534508
29.5230236064
30.7739941877
32.3805994743
33.4762478339
34.621496835
35.803193359
36.7152613545
37.7278029273
38.8692802928
40.0923048942
41.3611767042
42.6936305335
44.1008271616
45.4511519042
46.7083566543
48.0356820976
49.7461861986
51.3220928456
51.9889103505
52.3937368049
52.5698245028
52.6403660065
41.4372578758
1.4111118483e-24
1.28806332812e-29
1.69293057549e-33
2.29932420872e-35
0
0
0
0
0
0
0
0
0
0
0
0
0
0
0
0
0
0
0
0
0
0
5.62152250366e-42
4.09164551549e-31
17.1927704658
17.3459203999
21.6722126822
17.5499130663
17.5530626407
17.7273076304
19.1741575012
18.3320189781
22.052431571
23.2706157275
21.6864394824
20.8931228305
19.8487431015
21.5137106384
21.345815999
20.2235261667
19.9510053033
20.2439259703
20.1091809371
20.2565832334
20.4742881994
20.9702999994
22.3416586202
25.2147014525
28.0346880676
30.5312108999
30.534400829
29.4752986181
28.8086536388
29.8806345354
31.1111128972
32.6982834859
34.1165325121
35.417889056
36.5676702437
37.4060121443
38.398502723
39.5600199486
40.8201116156
42.1448128961
43.518059113
45.0216820975
46.6360565407
48.3292023219
49.6947310432
50.8259705869
52.2925176303
53.7195154463
55.7826339253
56.7588026302
45.4110042529
1.28579730744e-23
1.70729335403e-29
2.94413985643e-33
6.03858246109e-36
1.4620569724e-37
4.90762897702e-40
0
0
0
0
0
0
0
0
0
0
0
0
0
0
0
0
0
0
0
0
0
9.44715763538e-43
1.24994524353e-42
17.8844491482
18.0366405887
21.3835703762
17.8239481809
18.0709747369
18.1837609076
19.2149431776
19.0195398449
22.5600893756
23.9490151368
22.314802478
21.5371378746
20.4905297663
22.1788955797
22.1639269375
21.1046517086
20.7664556976
21.0759913441
20.9691336631
21.1771687701
21.3024506654
21.4371711065
22.7492363349
25.3036571918
27.7917369249
30.4877205738
31.0159882939
30.2675077822
29.2913401771
29.995301386
31.5189872595
32.8253019915
34.1664677609
35.6532472939
37.3893209084
38.3745702448
39.2999730453
40.3627749235
41.6042715275
43.0100716795
44.5004668112
46.1403979661
48.2137900731
50.0548011286
50.9514719063
52.0266334541
54.0789228929
57.7569685799
64.0638097542
50.2380898099
3.673562952e-24
6.1024330539e-31
2.52532950089e-35
8.27972665223e-39
5.19508444424e-41
1.05300151574e-40
1.61701739876e-41
0
0
0
0
0
0
0
0
0
0
0
0
0
0
0
0
0
0
0
0
0
6.98267146502e-44
3.17062593448e-43
18.9393957698
19.0562049563
21.6893454632
18.7053002644
19.1554774748
18.9906775661
19.534265827
20.251481146
22.6557176211
24.4621220118
22.9882859655
22.2329960314
21.220405615
22.9357411802
22.9983119741
22.1218806176
21.7337909017
22.0292413245
21.8282321196
22.1769837834
22.4096957756
22.1012771833
23.2414819998
25.6065278108
27.7519985331
30.2496411478
31.17088336
30.915959943
31.0349016614
30.7231739223
31.7477351766
33.3524052011
35.2164068118
36.1676326586
37.6808532084
39.3096408497
40.3278520073
41.4397691469
42.6108684029
43.9642979894
45.5893806907
47.769661085
50.2983309489
51.5905596709
52.1277385269
53.7237695486
57.831623537
63.6654174897
56.8475538361
36.7152083368
9.2455154851e-33
8.63194935417e-38
5.90626430191e-40
0
0
0
0
0
0
0
0
0
0
0
0
0
0
0
0
0
0
0
0
0
0
0
0
0
0
0
20.422478927
20.3248228753
22.4951253015
20.4789209498
20.9942646576
20.1825228214
20.4337015676
22.0327933363
22.8880553034
25.0611549447
23.7559461706
22.9900103259
22.0125905075
23.7227464057
23.8236154465
23.2342652023
23.1347385385
23.272916224
22.7743795747
23.2510285883
23.7831521268
23.0378949789
23.6155801976
25.9981864228
27.9229632664
30.0361512011
31.2119807177
31.0158619811
32.1187228345
32.1705808922
32.6175780723
33.0560257558
34.979328644
37.1633032883
38.5435405284
40.0424974157
41.3521188967
42.5256236717
43.814492961
45.1990538114
47.1245088978
50.0639342623
52.3629991218
53.2465094307
54.258889287
57.6157215406
64.4859841364
60.2029687175
35.0800939382
8.25085819409e-35
1.4424241602e-37
6.60467631577e-40
0
0
0
0
0
0
0
0
0
0
0
0
0
0
0
0
0
0
0
0
0
0
0
0
0
0
0
0
21.9818718113
21.5018066418
23.3447899478
22.829494055
22.6024356788
21.5389239925
21.3984696846
23.0894861488
22.2030128557
25.5205818848
24.6001655376
23.7983399433
22.8537155321
24.5060907257
24.5781653544
24.1505156858
25.0317790361
24.7542271867
23.8148296545
24.4054025434
25.0001626798
24.2163693721
23.7263319655
25.888351946
27.9824621252
29.8308082218
31.1318125795
30.9560863422
32.4045847049
33.330553596
33.9125626655
33.6988852873
34.9815252288
37.0412796774
39.3324290714
41.1675219499
42.5930356244
43.7714987116
45.0652131249
46.7555047098
49.5350322679
52.6604026819
54.5911756872
55.819441489
58.2013559625
63.0427206262
62.8123288327
34.1734513618
2.22161504125e-34
3.2162564906e-37
1.12639507e-39
0
0
0
0
0
0
0
0
0
0
0
0
0
0
0
0
0
0
0
0
0
0
0
0
0
0
0
0
0
22.7107712703
22.2798112897
23.8475603303
23.7900342998
23.5649495665
22.7872026692
22.4705755834
24.3471433398
23.1616747203
26.1031866918
25.4479213688
24.6307621225
23.736667927
25.2949126477
25.3121390792
24.8838790254
25.9131307074
25.763041065
24.7654058807
25.4845454838
25.6259319916
24.8987136261
24.5270325672
24.7172164027
27.2482971594
29.0903227612
30.6938885769
30.6912079605
32.2756760105
33.721108256
34.937203768
35.2858534042
35.2865814012
36.9422187715
39.4236111513
41.9377256867
43.9399184112
45.3910838229
46.6856567776
49.1206162976
52.532492773
55.4069983936
57.1575709105
59.1147786277
62.650889865
59.2536684298
37.5868343642
27.7523801814
1.05722148775e-36
3.01102153048e-39
0
0
0
0
0
0
0
0
0
0
0
0
0
0
0
0
0
0
0
0
0
0
0
0
0
0
0
0
0
0
22.6969347423
22.6994015286
24.0935102735
23.9098182074
24.1168146244
23.7135458649
23.3718552757
25.57734653
24.7031142241
26.8255768845
26.3305882736
25.4691710252
24.6557999547
26.1042458196
26.0858521599
25.7117898334
26.6119434157
26.5980962952
25.7120420691
26.3563393163
25.4383058869
25.4774999739
25.3482818305
25.5446282515
26.276305389
27.3793146775
29.4872644378
30.0903886713
31.592742533
33.4814685257
35.1585865697
36.441159119
36.6061656418
37.5401301552
39.4862506682
42.0461712802
44.8033626747
47.0764444506
48.969888463
52.1816641559
55.6637621129
58.1649391533
59.7365311846
61.7843742747
57.5817405144
39.0956968502
40.6223023456
3.67231773872e-36
8.22633526447e-39
0
0
0
0
0
0
0
0
0
0
0
0
0
0
0
0
0
0
0
0
0
0
0
0
0
0
0
0
0
0
0
22.7979933165
22.931793316
24.2559528309
22.9541994758
24.2753431581
24.1559274032
23.9171829296
26.0799605686
25.4223017311
27.5176661231
27.2114876808
26.2771397939
25.6156335932
26.9214246316
26.8779197646
26.655200399
27.4042796096
27.5373299907
26.7856776123
27.6038637319
26.6080264626
26.8814261846
26.4262755758
26.6878233371
27.8204856054
28.3904245285
28.706871419
29.3376425509
30.7518160914
33.0067144686
34.7442007177
36.3468027131
37.5487836573
38.377644108
40.4479824603
42.5640383611
45.4410551575
48.5982507592
51.7464099139
55.5535087954
58.781693697
60.7315665863
60.9384341411
59.2490818217
60.0405115706
36.4709185392
3.08153807503e-35
7.01527221603e-38
0
0
0
0
0
0
0
0
0
0
0
0
0
0
0
0
0
0
0
0
0
0
0
0
0
0
0
0
0
0
0
0
23.308903074
23.408939149
24.4081215573
23.1807454445
24.3782945897
24.3201212583
24.2310718881
26.1532711823
25.8546941349
27.9760221717
28.0332295762
26.9941813642
26.6014090838
27.6921008874
27.5991761676
27.5445741238
28.1473412199
28.5421872375
27.9023132259
28.8795772128
28.2096723418
28.7023515126
28.5569806688
27.5341078069
28.4291368424
29.2294615837
29.4202745269
28.6099965615
29.7468811463
32.3830491165
34.3645641871
35.5626630619
36.9365822213
38.2481014117
40.5013003745
42.9561151655
46.1155236312
50.0850314774
54.7065212077
59.1084076002
61.7836232102
62.5960041907
61.3177570301
56.7117885737
36.9831010858
51.1359765589
4.88851747e-37
1.98230470258e-39
0
0
0
0
0
0
0
0
0
0
0
0
0
0
0
0
0
0
0
0
0
0
0
0
0
0
0
0
0
0
0
0
23.9787351949
25.0015141149
24.672805671
23.9163356755
24.7139282706
24.5067227903
24.4949651619
26.1618006793
26.2120338362
28.0694503684
28.7879877709
27.5792562579
27.4259341633
28.2589069104
28.2147739375
28.1511610795
28.3393645791
29.4063963012
29.0422141645
29.9432642297
29.8960469733
29.8444464986
29.727512242
29.3212262332
28.543521998
29.0483380657
29.8659223287
27.5008558495
28.4793051336
31.029047008
33.7629233333
35.3887741695
36.8134008412
37.5138279776
39.6845510335
42.6386092569
46.3071057683
51.3988341802
57.7012885649
62.6614150602
64.5363205181
61.9945489823
60.7510806654
64.669471925
43.9388983918
3.31348148579e-36
8.4568017321e-39
0
0
0
0
0
0
0
0
0
0
0
0
0
0
0
0
0
0
0
0
0
0
0
0
0
0
0
0
0
0
0
0
0
24.400116944
25.4741031156
25.1247890213
24.5241594613
25.1565747936
24.819109405
24.7856109423
26.2059532359
26.5249487469
27.8682787326
29.4029082227
28.0801962263
27.8243936094
28.6412121111
28.8172618725
28.6164113277
28.4071574963
29.9467295615
30.1618004245
30.8102184878
30.9742884149
31.1958030136
30.1290165636
30.0937134653
29.4590811149
30.1873122358
30.6334903745
28.2900916155
26.9613484958
28.973041043
32.0231036432
34.5853702906
36.2259122048
37.0679897284
38.2227379149
41.2870716877
45.5042397379
52.186486951
60.5517712002
66.3375518654