/*--------------------------------*- C++ -*----------------------------------*\
| =========                 |                                                 |
| \\      /  F ield         | OpenFOAM: The Open Source CFD Toolbox           |
|  \\    /   O peration     | Version:  v1806                                 |
|   \\  /    A nd           | Web:      www.OpenFOAM.com                      |
|    \\/     M anipulation  |                                                 |
\*---------------------------------------------------------------------------*/
FoamFile
{
    version     2.0;
    format      ascii;
    class       surfaceScalarField;
    location    "967";
    object      phi;
}
// * * * * * * * * * * * * * * * * * * * * * * * * * * * * * * * * * * * * * //

dimensions      [0 3 -1 0 0 0 0];
oriented        oriented;


internalField   nonuniform List<scalar> 
12640
(
-2.5278193117e-07
2.52976146398e-07
-4.72539146661e-07
2.19930740358e-07
-6.5632943385e-07
1.83921619222e-07
-8.07314217616e-07
1.51094824796e-07
-9.1969546464e-07
1.1247367293e-07
-9.93592248249e-07
7.39821500811e-08
-1.04797195351e-06
5.44584150794e-08
-1.12187811616e-06
7.39773292694e-08
-1.21617859541e-06
9.43670978776e-08
-1.30411184921e-06
8.79929944226e-08
-1.38362736636e-06
7.95678096697e-08
-1.46196172005e-06
7.83820729187e-08
-1.53070953049e-06
6.87920686681e-08
-1.58715862231e-06
5.64903430358e-08
-1.63827231732e-06
5.1152479227e-08
-1.69427935801e-06
5.60428591555e-08
-1.75109521577e-06
5.68500697691e-08
-1.79941593206e-06
4.8353264084e-08
-1.83869195145e-06
3.93081736536e-08
-1.87602045245e-06
3.73601248855e-08
-1.92203018209e-06
4.6041071293e-08
-1.97592506007e-06
5.39244121708e-08
-2.02896527547e-06
5.30682300159e-08
-2.07722775588e-06
4.82877182501e-08
-2.12015855843e-06
4.29542810675e-08
-2.15831313578e-06
3.8175485037e-08
-2.19305839321e-06
3.47647623484e-08
-2.2238581797e-06
3.08168304062e-08
-2.25022939839e-06
2.63868857037e-08
-2.27307382148e-06
2.28576735483e-08
-2.29409891028e-06
2.10370774749e-08
-2.31273430801e-06
1.86450934533e-08
-2.32807970025e-06
1.53539976905e-08
-2.3425143598e-06
1.444140691e-08
-2.35638806715e-06
1.38798011729e-08
-2.36877396324e-06
1.23902475097e-08
-2.38016849065e-06
1.13982393201e-08
-2.38953066157e-06
9.36441170781e-09
-2.3952427506e-06
5.7137225195e-09
-2.39712249667e-06
1.87988931977e-09
-2.39679429026e-06
-3.28710113264e-10
-2.39298955666e-06
-3.80653598543e-09
-2.38290333232e-06
-1.00884965538e-08
-2.36795221311e-06
-1.49543788229e-08
-2.34966217335e-06
-1.82936350718e-08
-2.32754392375e-06
-2.21226236503e-08
-2.30105243892e-06
-2.64960580041e-08
-2.26940998788e-06
-3.16474963749e-08
-2.23240976397e-06
-3.70052415312e-08
-2.1917117962e-06
-4.07030296057e-08
-2.14926030732e-06
-4.24561774473e-08
-2.10227607611e-06
-4.69885239685e-08
-2.04480124169e-06
-5.74783644806e-08
-1.97762306335e-06
-6.71808683733e-08
-1.90073706428e-06
-7.688744538e-08
-1.81259425963e-06
-8.8143091578e-08
-1.71968053716e-06
-9.29126410305e-08
-1.62353960852e-06
-9.61386477528e-08
-1.51736348835e-06
-1.06172641195e-07
-1.40093620913e-06
-1.16422816852e-07
-1.27817262102e-06
-1.22758301854e-07
-1.14033096586e-06
-1.37836866165e-07
-9.69643858922e-07
-1.7068513475e-07
-7.75610646002e-07
-1.94038872677e-07
-6.08910869259e-07
-1.66708063379e-07
-4.89381058441e-07
-1.19540860767e-07
-3.93349828281e-07
-9.60443314719e-08
-3.06585033788e-07
-8.67821655134e-08
-2.25366682876e-07
-8.12411185473e-08
-1.49270252811e-07
-7.61255079276e-08
-8.34871521669e-08
-6.58152702121e-08
-3.29045332538e-08
-5.06138313751e-08
1.89319227878e-09
-3.48295750709e-08
2.43024334559e-08
-2.24418186027e-08
3.53776070629e-08
-1.1106928449e-08
3.87442732831e-08
-3.39467428074e-09
3.80683631556e-08
6.48190409926e-10
3.07442120218e-08
7.30228408056e-09
1.99095907695e-08
1.07626114234e-08
1.98813520982e-08
-1.3566628319e-07
3.88779053423e-07
-3.13618875796e-07
3.98014956756e-07
-4.81465053657e-07
3.51880683364e-07
-6.47691762452e-07
3.17411991902e-07
-8.4159804524e-07
3.0646832759e-07
-9.82853086388e-07
2.1532014917e-07
-1.0643848133e-06
1.36068884488e-07
-1.14197912783e-06
1.51648448079e-07
-1.22688051212e-06
1.79337556524e-07
-1.31572676046e-06
1.76901229387e-07
-1.398625727e-06
1.62521590563e-07
-1.46822676545e-06
1.4803264386e-07
-1.52964669569e-06
1.30256591622e-07
-1.58604848409e-06
1.12934571967e-07
-1.63921367336e-06
1.04356881988e-07
-1.69627048027e-06
1.13138290903e-07
-1.75010096239e-06
1.10715529866e-07
-1.78554040354e-06
8.38271528727e-08
-1.81730175831e-06
7.11019625016e-08
-1.86071056143e-06
8.08025401638e-08
-1.91493651452e-06
1.002991459e-07
-1.97587825041e-06
1.14898168727e-07
-2.03238334847e-06
1.09601530292e-07
-2.07822698216e-06
9.41586220108e-08
-2.11929707133e-06
8.40478193792e-08
-2.15932822779e-06
7.82294092421e-08
-2.19453033885e-06
6.99861669049e-08
-2.22449446845e-06
6.07996466948e-08
-2.25082986911e-06
5.27376314948e-08
-2.27409566251e-06
4.61381212538e-08
-2.2942311569e-06
4.1184034172e-08
-2.31159834348e-06
3.60230458045e-08
-2.32580518926e-06
2.95689968942e-08
-2.3395193316e-06
2.8163338532e-08
-2.35501253874e-06
2.93784259662e-08
-2.36802561578e-06
2.5408636119e-08
-2.37869078651e-06
2.20666669931e-08
-2.38959326136e-06
2.0269750404e-08
-2.39917217007e-06
1.52936291579e-08
-2.40289232388e-06
5.60061453419e-09
-2.39388315195e-06
-9.33903024446e-09
-2.37672662024e-06
-2.0964647199e-08
-2.36204381117e-06
-2.47741596469e-08
-2.3490896935e-06
-2.79116714346e-08
-2.33388778306e-06
-3.34996937092e-08
-2.31537070191e-06
-4.0644143933e-08
-2.29243888459e-06
-4.94329799684e-08
-2.26498463511e-06
-5.91069855337e-08
-2.2324092716e-06
-6.95860958871e-08
-2.19171310253e-06
-8.14045162613e-08
-2.14066846179e-06
-9.3505929706e-08
-2.08500577398e-06
-1.02655730211e-07
-2.03328025129e-06
-1.09207799762e-07
-1.97436266499e-06
-1.26101285555e-07
-1.9006862977e-06
-1.50565668781e-07
-1.82082163321e-06
-1.68007918178e-07
-1.73336850977e-06
-1.8036498824e-07
-1.63437931399e-06
-1.95125311898e-07
-1.52669566651e-06
-2.13852954923e-07
-1.40806957812e-06
-2.35043924991e-07
-1.27090445371e-06
-2.59919164581e-07
-1.11949651752e-06
-2.89240589606e-07
-9.47256984642e-07
-3.42925117094e-07
-7.60155515468e-07
-3.81143847375e-07
-5.88457874343e-07
-3.38416414472e-07
-4.52307722454e-07
-2.55702394688e-07
-3.55730318336e-07
-1.92636797776e-07
-2.77724430671e-07
-1.64806808989e-07
-2.02900176127e-07
-1.5609025322e-07
-1.30340051149e-07
-1.48714098294e-07
-6.69646749913e-08
-1.29221437391e-07
-1.88451937737e-08
-9.87632483986e-08
1.42473278328e-08
-6.79524633665e-08
3.57150847198e-08
-4.39421878339e-08
4.7989824151e-08
-2.34148738656e-08
5.30279198845e-08
-8.4645584353e-09
5.07098618743e-08
2.93237677814e-09
4.20158519358e-08
1.59490971568e-08
2.40223616534e-08
2.87237616538e-08
4.38346987468e-08
-1.70137953648e-07
5.5899640049e-07
-2.64724432291e-07
4.92709415553e-07
-4.59335686843e-07
5.46596722922e-07
-6.74017866578e-07
5.3218986716e-07
-8.69325225932e-07
5.01858182912e-07
-9.7558748032e-07
3.21652602244e-07
-1.03150028413e-06
1.92054576886e-07
-1.1172805245e-06
2.37504336293e-07
-1.21512079665e-06
2.77247622358e-07
-1.3091207611e-06
2.70963392432e-07
-1.39522171583e-06
2.48676673847e-07
-1.46816827363e-06
2.21027280278e-07
-1.5302379732e-06
1.92370390562e-07
-1.58819942226e-06
1.70937565786e-07
-1.63552983763e-06
1.51727407416e-07
-1.64158842302e-06
1.19233974715e-07
-1.62349976331e-06
9.26608660002e-08
-1.64169141763e-06
1.0205095959e-07
-1.7105874823e-06
1.40030932755e-07
-1.81671238325e-06
1.86960617258e-07
-1.91753303334e-06
2.01153037225e-07
-1.98199060748e-06
1.79386627816e-07
-2.03003242781e-06
1.57672350562e-07
-2.07853941942e-06
1.42691757273e-07
-2.12328516755e-06
1.2881799095e-07
-2.16099877522e-06
1.1596479205e-07
-2.1943604925e-06
1.03368088556e-07
-2.22448577418e-06
9.09426147019e-08
-2.25096487149e-06
7.92328349307e-08
-2.2743503989e-06
6.95372671195e-08
-2.29363183377e-06
6.04775355498e-08
-2.31041950094e-06
5.28206980118e-08
-2.32642055288e-06
4.55787236901e-08
-2.33681641309e-06
3.85662138234e-08
-2.34883770561e-06
4.14059889114e-08
-2.36705016329e-06
4.36257244623e-08
-2.37955088257e-06
3.45711068436e-08
-2.38795061154e-06
2.86717408403e-08
-2.39792803624e-06
2.52724117572e-08
-2.40395108853e-06
1.16235678875e-08
-2.40378956122e-06
-9.50151452149e-09
-2.39810908575e-06
-2.66472276796e-08
-2.38693294939e-06
-3.59530531098e-08
-2.37177839628e-06
-4.30699109589e-08
-2.35325705335e-06
-5.20252811108e-08
-2.33084818027e-06
-6.30579706717e-08
-2.30445335575e-06
-7.58331406628e-08
-2.27370026452e-06
-8.98657994463e-08
-2.23817988631e-06
-1.05112283099e-07
-2.19800082069e-06
-1.21589421531e-07
-2.15334793053e-06
-1.38164415229e-07
-2.10232306498e-06
-1.53685801735e-07
-2.04038273773e-06
-1.71152607766e-07
-1.97075683152e-06
-1.95730796699e-07
-1.89891885572e-06
-2.22405648602e-07
-1.82038316208e-06
-2.46544520584e-07
-1.72974020978e-06
-2.71007013899e-07
-1.62692853122e-06
-2.97934751551e-07
-1.51279561987e-06
-3.27982482545e-07
-1.38632352309e-06
-3.61511900011e-07
-1.24624340849e-06
-3.99994700784e-07
-1.08109853032e-06
-4.5438218208e-07
-8.89178299509e-07
-5.34844930174e-07
-6.90220125004e-07
-5.80108455973e-07
-5.2438251779e-07
-5.04262992878e-07
-4.12089836844e-07
-3.68008430443e-07
-3.16785731987e-07
-2.87957023536e-07
-2.31538562474e-07
-2.50073848003e-07
-1.56340176198e-07
-2.31311716299e-07
-8.90166809357e-08
-2.16064072985e-07
-3.24670109725e-08
-1.8579832706e-07
1.10350268138e-08
-1.42293716354e-07
4.19921051032e-08
-9.8940491026e-08
5.83614312276e-08
-6.0344080128e-08
6.52976193503e-08
-3.03849077487e-08
6.61070047007e-08
-9.30854042889e-09
6.14646812484e-08
7.5432072792e-09
5.09805175561e-08
2.64092675824e-08
2.43756117835e-08
5.52293330491e-08
6.82072368967e-08
-1.23926191909e-07
6.83030290762e-07
-1.74587923846e-07
5.43443275563e-07
-3.89745067806e-07
7.61845450116e-07
-5.69156720352e-07
7.11689176634e-07
-5.98950405903e-07
5.31719965721e-07
-5.5380276807e-07
2.76544142209e-07
-7.43917685731e-07
3.82222055397e-07
-1.01213207653e-06
5.05791005848e-07
-1.17845299448e-06
4.43637185377e-07
-1.29165390507e-06
3.84224782084e-07
-1.38820535266e-06
3.45280911045e-07
-1.46990596427e-06
3.02774111219e-07
-1.52965845981e-06
2.52165147696e-07
-1.54314821936e-06
1.84466703445e-07
-1.51951531601e-06
1.28131657767e-07
-1.51734085828e-06
1.1709531859e-07
-1.57194965505e-06
1.47304202636e-07
-1.67675236191e-06
2.06888336243e-07
-1.79419038366e-06
2.5750372284e-07
-1.87591894611e-06
2.68723358798e-07
-1.92881787719e-06
2.54084327123e-07
-1.98253770059e-06
2.33137229959e-07
-2.03526124366e-06
2.10424298394e-07
-2.08156293498e-06
1.89019787597e-07
-2.12281617732e-06
1.70094993e-07
-2.15987324999e-06
1.53043755907e-07
-2.19396505144e-06
1.37479404985e-07
-2.22450914501e-06
1.21504546331e-07
-2.25147217391e-06
1.06211353344e-07
-2.27384397496e-06
9.19226974168e-08
-2.29412563352e-06
8.07706802923e-08
-2.30945090075e-06
6.81558260749e-08
-2.32074056583e-06
5.68768044252e-08
-2.33930684256e-06
5.71398714688e-08
-2.35543812292e-06
5.75431432718e-08
-2.36887601885e-06
5.70684275222e-08
-2.38858653835e-06
5.42850044661e-08
-2.40345240965e-06
4.35398382544e-08
-2.40784570056e-06
2.9666529025e-08
-2.40751878204e-06
1.12964959969e-08
-2.40578987271e-06
-1.12317276279e-08
-2.40102701402e-06
-3.14122522423e-08
-2.39108539728e-06
-4.58978449032e-08
-2.37628061629e-06
-5.78786070124e-08
-2.35744174609e-06
-7.08688799306e-08
-2.3346621624e-06
-8.58428520868e-08
-2.30783820985e-06
-1.02662936828e-07
-2.27669403464e-06
-1.21016097442e-07
-2.24098461963e-06
-1.40828059708e-07
-2.20059931759e-06
-1.61981123079e-07
-2.15486944573e-06
-1.83900608311e-07
-2.10191824528e-06
-2.0664306082e-07
-2.04059022255e-06
-2.32486113249e-07
-1.9731264447e-06
-2.63198880305e-07
-1.89946843994e-06
-2.96066932774e-07
-1.81633203139e-06
-3.29681895554e-07
-1.72127165442e-06
-3.66066907071e-07
-1.61276312027e-06
-4.06441115086e-07
-1.48937991562e-06
-4.5136161617e-07
-1.34876142868e-06
-5.02125400156e-07
-1.18629838962e-06
-5.62453094164e-07
-1.00235667864e-06
-6.38320088098e-07
-8.23582228645e-07
-7.13619563134e-07
-6.58630516503e-07
-7.45063382929e-07
-4.89835298024e-07
-6.73070074894e-07
-3.53381524575e-07
-5.04477075274e-07
-2.51885960971e-07
-3.89470750171e-07
-1.69754801211e-07
-3.32224923418e-07
-1.00833778258e-07
-3.0025506585e-07
-3.89913144577e-08
-2.77929646499e-07
1.70199850306e-08
-2.41836016377e-07
5.67054527405e-08
-1.82007802587e-07
7.28968264612e-08
-1.15159893597e-07
7.7126154033e-08
-6.4602487413e-08
7.85677929505e-08
-3.18556776617e-08
7.41409645316e-08
-4.91237647171e-09
5.95372295606e-08
2.21170074654e-08
4.28946495215e-08
4.30074145827e-08
2.31361089022e-08
7.49898900535e-08
9.12959290778e-08
-3.29438265918e-08
7.16005905689e-07
-1.54293513729e-07
6.64846607147e-07
-3.29420769186e-07
9.37043238452e-07
-4.70548287223e-07
8.52879016403e-07
-4.68324650984e-07
5.29545719438e-07
-5.79214537563e-07
3.87476489821e-07
-8.05417664621e-07
6.08484758851e-07
-9.77331588212e-07
6.77770057874e-07
-1.12427899964e-06
5.90648161576e-07
-1.25304746392e-06
5.13048954681e-07
-1.3670466331e-06
4.59329057819e-07
-1.4367547442e-06
3.72524981395e-07
-1.43610970508e-06
2.51558012582e-07
-1.42652343432e-06
1.7491694101e-07
-1.47024196275e-06
1.71887465485e-07
-1.56138543039e-06
2.08276542125e-07
-1.67515340021e-06
2.61110196714e-07
-1.77096783739e-06
3.02740034699e-07
-1.82942448801e-06
3.15995950063e-07
-1.87518518711e-06
3.14517729226e-07
-1.92910536629e-06
3.08036664098e-07
-1.98472892395e-06
2.88791101611e-07
-2.03598787863e-06
2.61711414047e-07
-2.08159482856e-06
2.34652423769e-07
-2.12223981345e-06
2.1076363383e-07
-2.15983591271e-06
1.90661162554e-07
-2.193250922e-06
1.70914014067e-07
-2.22434664317e-06
1.52617521686e-07
-2.250395401e-06
1.32275277904e-07
-2.27248608764e-06
1.14026413486e-07
-2.28799214998e-06
9.62879856779e-08
-2.30599000731e-06
8.61634227256e-08
-2.33050051924e-06
8.13958399695e-08
-2.34663691189e-06
7.32835372324e-08
-2.36473121321e-06
7.5643456864e-08
-2.38562231867e-06
7.79640297924e-08
-2.39998384611e-06
6.86496651512e-08
-2.40878083165e-06
5.23385605522e-08
-2.41233899069e-06
3.32252985238e-08
-2.41231228983e-06
1.12692356467e-08
-2.41046269914e-06
-1.30828696975e-08
-2.40577647877e-06
-3.61010732517e-08
-2.39636170657e-06
-5.53161085931e-08
-2.38191393074e-06
-7.23307999819e-08
-2.3630073619e-06
-8.97806139178e-08
-2.33994646215e-06
-1.08909620442e-07
-2.3127195506e-06
-1.29896178296e-07
-2.28112897355e-06
-1.52613440169e-07
-2.2449386063e-06
-1.77025483577e-07
-2.20381991272e-06
-2.03107123146e-07
-2.15693203606e-06
-2.30796029553e-07
-2.10295905421e-06
-2.60623401104e-07
-2.04144118838e-06
-2.94010805026e-07
-1.97306619504e-06
-3.31579801877e-07
-1.89672723192e-06
-3.7240915389e-07
-1.80938228707e-06
-4.1702857266e-07
-1.70795256936e-06
-4.67495556837e-07
-1.58934537411e-06
-5.25044272934e-07
-1.45032447136e-06
-5.90376867715e-07
-1.28802080109e-06
-6.64422340764e-07
-1.10377948385e-06
-7.46687095758e-07
-9.15157827206e-07
-8.26937307488e-07
-7.51043233114e-07
-8.77731921374e-07
-5.93168225999e-07
-9.02946581602e-07
-4.45728543206e-07
-8.20521537187e-07
-3.10887772042e-07
-6.39336101569e-07
-1.94251968197e-07
-5.06125619871e-07
-1.01393382197e-07
-4.25103380469e-07
-2.87543850224e-08
-3.72913386244e-07
3.3969373144e-08
-3.40676442101e-07
8.32260295731e-08
-2.91117619555e-07
1.00424301244e-07
-1.99230254905e-07
9.99044930055e-08
-1.1466488234e-07
9.99603116587e-08
-6.4681595144e-08
9.70869957906e-08
-2.90115833594e-08
8.52635792808e-08
6.88085948469e-09
6.86112761977e-08
3.87447596865e-08
4.94701677574e-08
6.21423328066e-08
2.4071214223e-08
1.00308104049e-07
1.15370637839e-07
-1.9353188015e-08
7.35414741264e-07
-1.80964479268e-07
8.26505292848e-07
-2.85766699699e-07
1.04190007654e-06
-3.59761776379e-07
9.26926468302e-07
-3.68204236862e-07
5.38023543682e-07
-6.1556961001e-07
6.34890204925e-07
-8.36341813469e-07
8.29317061668e-07
-9.5157473189e-07
7.93063002902e-07
-1.07971692485e-06
7.18843289532e-07
-1.20001471898e-06
6.33399313337e-07
-1.27152083606e-06
5.30880059838e-07
-1.25245032255e-06
3.5349010672e-07
-1.25845660112e-06
2.57597794888e-07
-1.33573682484e-06
2.52232584969e-07
-1.4537560668e-06
2.89945129167e-07
-1.59395285577e-06
3.48513722139e-07
-1.70865573813e-06
3.75852482774e-07
-1.77281966413e-06
3.66940945832e-07
-1.81848229021e-06
3.61693609351e-07
-1.87592364869e-06
3.71992755411e-07
-1.93368866903e-06
3.65833700608e-07
-1.98582918145e-06
3.40961488541e-07
-2.03508163443e-06
3.10991582715e-07
-2.081868347e-06
2.81464782739e-07
-2.12354130569e-06
2.52459797071e-07
-2.15649376917e-06
2.23634833982e-07
-2.19044510172e-06
2.04884294563e-07
-2.22085964259e-06
1.83048990482e-07
-2.24746315127e-06
1.58893685847e-07
-2.26375819399e-06
1.30334268205e-07
-2.28030522191e-06
1.12846072538e-07
-2.30072251547e-06
1.06590467433e-07
-2.32061556792e-06
1.01297418328e-07
-2.35331609932e-06
1.05991352003e-07
-2.38114250421e-06
1.03475674115e-07
-2.39782299894e-06
9.46487348476e-08
-2.40820233226e-06
7.90316974657e-08
-2.41486959932e-06
5.90072342206e-08
-2.4181237544e-06
3.64796555769e-08
-2.41852097005e-06
1.16655916116e-08
-2.4167148646e-06
-1.4890900395e-08
-2.41194561693e-06
-4.08732500616e-08
-2.40276207886e-06
-6.45036089415e-08
-2.38861575957e-06
-8.64819972913e-08
-2.36977202026e-06
-1.0863009194e-07
-2.34651894718e-06
-1.321690754e-07
-2.31889949527e-06
-1.57522626776e-07
-2.28675012357e-06
-1.84770282709e-07
-2.24980070997e-06
-2.13982896808e-07
-2.20762672435e-06
-2.45289658685e-07
-2.1594765455e-06
-2.78955051874e-07
-2.10446155376e-06
-3.15647417537e-07
-2.04212866763e-06
-3.56352168775e-07
-1.97200338822e-06
-4.0171146203e-07
-1.89201770132e-06
-4.52399853346e-07
-1.79855762584e-06
-5.10489882134e-07
-1.68739720075e-06
-5.78653641766e-07
-1.55406224688e-06
-6.58374974255e-07
-1.39503843315e-06
-7.49393081968e-07
-1.21109803669e-06
-8.48354107668e-07
-1.01348700768e-06
-9.44291166665e-07
-8.24757160829e-07
-1.01566137437e-06
-6.59389621488e-07
-1.04310192962e-06
-5.03562838208e-07
-1.05877534442e-06
-3.57389463893e-07
-9.66710781828e-07
-2.37950389635e-07
-7.58792389927e-07
-1.2351006378e-07
-6.20584862351e-07
-2.15374110498e-08
-5.27097107018e-07
6.19476125631e-08
-4.56419659465e-07
1.2526108952e-07
-4.04009466177e-07
1.48927482758e-07
-3.14803242006e-07
1.39743617055e-07
-1.90067317539e-07
1.32154018603e-07
-1.07093512899e-07
1.27075040732e-07
-5.96280553623e-08
1.18720014402e-07
-2.06811363932e-08
1.02751165648e-07
2.28250720233e-08
8.24384034651e-08
5.90344643602e-08
5.95557108429e-08
8.49748915793e-08
3.09401209091e-08
1.28935875578e-07
1.46270535151e-07
-7.2795496942e-08
8.08231206672e-07
-2.52587681743e-07
1.00633854622e-06
-3.46002304285e-07
1.13535695984e-06
-3.25917665639e-07
9.06883346819e-07
-4.35601495681e-07
6.4774705654e-07
-6.91670607363e-07
8.91013350859e-07
-8.19532215979e-07
9.57235724251e-07
-9.22956344317e-07
8.96536090118e-07
-1.02225582655e-06
8.18195280739e-07
-1.14659723266e-06
7.57781886966e-07
-1.16165430595e-06
5.45974909071e-07
-1.15772393782e-06
3.49590846054e-07
-1.23768568548e-06
3.37593804178e-07
-1.34489076826e-06
3.5947532701e-07
-1.48839747473e-06
4.33492321661e-07
-1.61865584279e-06
4.78812437717e-07
-1.69278681151e-06
4.50021584514e-07
-1.74461083208e-06
4.18801136172e-07
-1.81293981857e-06
4.30057891967e-07
-1.878385611e-06
4.3747242543e-07
-1.93394893958e-06
4.21428665086e-07
-1.98642075121e-06
3.93462958933e-07
-2.03677461235e-06
3.61373150448e-07
-2.08064861671e-06
3.25363846934e-07
-2.11772617417e-06
2.89560348049e-07
-2.15279726601e-06
2.58726765269e-07
-2.18126398569e-06
2.33369924463e-07
-2.21189074433e-06
2.13692451493e-07
-2.23545907268e-06
1.82476525236e-07
-2.2533022713e-06
1.48190005697e-07
-2.27681624873e-06
1.36371304867e-07
-2.30296019364e-06
1.32744151894e-07
-2.33566822153e-06
1.34013996595e-07
-2.36544196396e-06
1.35772190677e-07
-2.39170748502e-06
1.29746586787e-07
-2.40720812682e-06
1.101531424e-07
-2.41619034319e-06
8.80162467487e-08
-2.42209877005e-06
6.49167097889e-08
-2.42544185597e-06
3.98226346991e-08
-2.42619735549e-06
1.24198672211e-08
-2.42445215297e-06
-1.66384014998e-08
-2.41958745937e-06
-4.57413389777e-08
-2.4104960354e-06
-7.35994658842e-08
-2.39656351839e-06
-1.00419949995e-07
-2.37780876469e-06
-1.27391098828e-07
-2.354398828e-06
-1.55586048005e-07
-2.32634481896e-06
-1.85584308877e-07
-2.29347527867e-06
-2.17648268674e-07
-2.25550499652e-06
-2.51962405162e-07
-2.21202422629e-06
-2.88780437089e-07
-2.16243697665e-06
-3.28553236242e-07
-2.1060489059e-06
-3.72046294062e-07
-2.04211391011e-06
-4.20297166753e-07
-1.96920269489e-06
-4.746315546e-07
-1.88429346777e-06
-5.37313538381e-07
-1.78282596591e-06
-6.11958503013e-07
-1.65940773667e-06
-7.02070652922e-07
-1.50930236967e-06
-8.08473218135e-07
-1.33177551679e-06
-9.26911770663e-07
-1.13370712363e-06
-1.04641292355e-06
-9.33680075668e-07
-1.14430923951e-06
-7.49488119364e-07
-1.19985016602e-06
-5.75634743376e-07
-1.21694878693e-06
-4.32425846018e-07
-1.20199540256e-06
-2.75909720068e-07
-1.12323728318e-06
-1.452648118e-07
-8.89453905046e-07
-3.3478176978e-08
-7.32393566713e-07
7.72069338315e-08
-6.37803422589e-07
1.70715666181e-07
-5.49944882329e-07
2.1862424231e-07
-4.51933531679e-07
2.0967028015e-07
-3.05865866884e-07
1.86418712325e-07
-1.66828757802e-07
1.6881081614e-07
-8.95077790946e-08
1.54574247413e-07
-4.54095550727e-08
1.419448475e-07
-8.07602339469e-09
1.27507755346e-07
3.7236247322e-08
1.04108873535e-07
8.24056092461e-08
7.38644002642e-08
1.15218250662e-07
4.06722339546e-08
1.62049927978e-07
1.86951626739e-07
-1.23419409241e-07
9.31706595462e-07
-2.74612833687e-07
1.15757432596e-06
-3.29109277369e-07
1.18989637757e-06
-2.66721856843e-07
8.44526881279e-07
-4.7531363167e-07
8.56379561625e-07
-6.80306573872e-07
1.09605999218e-06
-7.87842285044e-07
1.064818691e-06
-8.98259936029e-07
1.00700233718e-06
-9.52264163523e-07
8.72236136099e-07
-1.00980157693e-06
8.15360163175e-07
-1.01456554478e-06
5.50766985178e-07
-1.12439378533e-06
4.59451281408e-07
-1.22835151339e-06
4.41585989077e-07
-1.36833343874e-06
4.99495441931e-07
-1.51279816921e-06
5.77998319793e-07
-1.59731508249e-06
5.63368462933e-07
-1.65373031124e-06
5.06473039552e-07
-1.73300925332e-06
4.98115907827e-07
-1.81293819585e-06
5.10022341411e-07
-1.87593361208e-06
5.0050154461e-07
-1.9301019149e-06
4.7562876508e-07
-1.98159909985e-06
4.44989939737e-07
-2.03403874809e-06
4.13839758162e-07
-2.08365755058e-06
3.75007596483e-07
-2.11848826711e-06
3.2441381556e-07
-2.15521222012e-06
2.9547133263e-07
-2.18581365782e-06
2.63989984889e-07
-2.20186634886e-06
2.29761722652e-07
-2.22452703237e-06
2.05151628314e-07
-2.26654199601e-06
1.9021778443e-07
-2.29769739383e-06
1.675379251e-07
-2.31566055026e-06
1.50717351234e-07
-2.34731981069e-06
1.65681740608e-07
-2.38123394926e-06
1.69693104455e-07
-2.40155298238e-06
1.50070652421e-07
-2.41513890818e-06
1.23742481837e-07
-2.42446263571e-06
9.73419851927e-08
-2.43063614759e-06
7.10909646278e-08
-2.43421858227e-06
4.34046480837e-08
-2.43526069629e-06
1.34604374606e-08
-2.43359945942e-06
-1.8302305518e-08
-2.42867874014e-06
-5.0665850071e-08
-2.4196446733e-06
-8.26384474278e-08
-2.40588078476e-06
-1.14189750099e-07
-2.38720989111e-06
-1.46068860872e-07
-2.36363284234e-06
-1.79170802289e-07
-2.33506716841e-06
-2.14158649937e-07
-2.30129916072e-06
-2.51425933239e-07
-2.26204498726e-06
-2.91227353366e-07
-2.21695870783e-06
-3.33878809709e-07
-2.16557185777e-06
-3.79952507588e-07
-2.10721731923e-06
-4.30413778179e-07
-2.04077153294e-06
-4.86754967774e-07
-1.96404208098e-06
-5.51368588113e-07
-1.87323136798e-06
-6.28131266692e-07
-1.76308126724e-06
-7.2211070825e-07
-1.62781790803e-06
-8.37329888515e-07
-1.46365930399e-06
-9.72628104374e-07
-1.27288628522e-06
-1.11767814657e-06
-1.06442168379e-06
-1.25487029405e-06
-8.57589226557e-07
-1.35113648004e-06
-6.64440970688e-07
-1.39299034339e-06
-4.95924155739e-07
-1.38547103691e-06
-3.63399066012e-07
-1.3345197105e-06
-2.26033300549e-07
-1.26061687516e-06
-5.19877791114e-08
-1.06351473846e-06
7.21439565921e-08
-8.56545361973e-07
1.85269935072e-07
-7.50952103362e-07
2.80281343132e-07
-6.4498215765e-07
3.12473631625e-07
-4.84136289538e-07
2.84078657526e-07
-2.77477287385e-07
2.41846252728e-07
-1.24612145322e-07
2.01774849453e-07
-4.94477941628e-08
1.76518802714e-07
-2.01766228254e-08
1.68337081306e-07
8.4450359405e-11
1.62200585284e-07
4.33491387435e-08
1.37132708019e-07
1.07448964197e-07
9.50134169984e-08
1.57282360715e-07
5.02707470902e-08
2.06814439041e-07
2.37187472057e-07
-1.52698490082e-07
1.08442657561e-06
-2.67729382353e-07
1.27264376106e-06
-2.81800019673e-07
1.20399763904e-06
-3.20154755071e-07
8.82913579039e-07
-5.3975791744e-07
1.07602452918e-06
-6.44922548288e-07
1.20126957964e-06
-7.46743898666e-07
1.16668273827e-06
-8.55597662646e-07
1.11589308334e-06
-9.16031467918e-07
9.32706687454e-07
-9.76725047459e-07
8.76086042731e-07
-1.01935296961e-06
5.93424109035e-07
-1.12065010824e-06
5.60778571375e-07
-1.24174677907e-06
5.62719190203e-07
-1.39276332354e-06
6.50551724187e-07
-1.51634159082e-06
7.01614475017e-07
-1.58536229821e-06
6.32425843338e-07
-1.6481054395e-06
5.6925186134e-07
-1.72882507647e-06
5.78871656494e-07
-1.80549068686e-06
5.86723417734e-07
-1.87172722482e-06
5.66772263955e-07
-1.92923671116e-06
5.33170526699e-07
-1.9777266979e-06
4.93508871778e-07
-2.02073231584e-06
4.56872177961e-07
-2.0656849611e-06
4.19984462078e-07
-2.10649154949e-06
3.65242482926e-07
-2.13583350291e-06
3.24834096142e-07
-2.17264444136e-06
3.00819329323e-07
-2.21082531607e-06
2.67959228377e-07
-2.24261318728e-06
2.36953844257e-07
-2.27022660087e-06
2.17844121984e-07
-2.30135005226e-06
1.98673056605e-07
-2.34575506865e-06
1.95132641149e-07
-2.37361476826e-06
1.93549945582e-07
-2.39321066706e-06
1.89295547239e-07
-2.41028411662e-06
1.67148748188e-07
-2.4238855327e-06
1.37346992584e-07
-2.43381934938e-06
1.07277536501e-07
-2.4404494508e-06
7.77215865449e-08
-2.44430173633e-06
4.72562682073e-08
-2.44558432861e-06
1.47412012804e-08
-2.44407350416e-06
-1.98161505868e-08
-2.43919916853e-06
-5.55444078388e-08
-2.43024842472e-06
-9.15945544634e-08
-2.41664553776e-06
-1.27799107143e-07
-2.39806203545e-06
-1.64659868013e-07
-2.37429889637e-06
-2.02942570451e-07
-2.34513544491e-06
-2.43331900609e-07
-2.31028943919e-06
-2.86283133913e-07
-2.26946743597e-06
-3.32062009253e-07
-2.22237918535e-06
-3.80980628785e-07
-2.1686375514e-06
-4.33709279842e-07
-2.10752910983e-06
-4.91536708529e-07
-2.03762992865e-06
-5.56665660094e-07
-1.95635178615e-06
-6.3265971149e-07
-1.85973725858e-06
-7.24751394683e-07
-1.74275959265e-06
-8.39091443696e-07
-1.59974455808e-06
-9.80349496762e-07
-1.42627283596e-06
-1.14610031519e-06
-1.22516168499e-06
-1.31878859052e-06
-1.00077225092e-06
-1.47925861007e-06
-7.79050284947e-07
-1.57285514555e-06
-5.73725418922e-07
-1.59831797344e-06
-3.96723837069e-07
-1.56246576609e-06
-2.51756986573e-07
-1.47949464686e-06
-1.48995117525e-07
-1.36338187767e-06
2.12325921962e-09
-1.2146495537e-06
1.719709309e-07
-1.02642733286e-06
2.92741338534e-07
-8.71770701536e-07
4.03643594723e-07
-7.55909743848e-07
4.39456011443e-07
-5.19968543273e-07
3.87146596517e-07
-2.25180482659e-07
2.99307685188e-07
-3.6780051628e-08
2.18209284021e-07
3.16306010657e-08
1.8117269343e-07
1.68444493535e-08
1.94114409891e-07
-1.28766718792e-08
2.1074465581e-07
2.66881792159e-08
1.81680389791e-07
1.3648355745e-07
1.24982294441e-07
2.13984591962e-07
6.00041231551e-08
2.71726277877e-07
2.97209204671e-07
-1.68509328279e-07
1.25299625948e-06
-2.79605500478e-07
1.38378315406e-06
-2.62848222358e-07
1.1872756126e-06
-3.71343105837e-07
9.91439256204e-07
-5.55924173427e-07
1.26064466119e-06
-6.1365583636e-07
1.25903793033e-06
-7.00853916477e-07
1.25392026185e-06
-7.65910152638e-07
1.18098048489e-06
-8.56062414375e-07
1.02288943429e-06
-8.89309705441e-07
9.09362307632e-07
-9.90199497599e-07
6.94340634124e-07
-1.11175148516e-06
6.82363498052e-07
-1.24344210035e-06
6.94443066225e-07
-1.38360076917e-06
7.90747629426e-07
-1.47430333105e-06
7.92354044845e-07
-1.53512939321e-06
6.93285041213e-07
-1.62591858115e-06
6.60075788031e-07
-1.71567656857e-06
6.68665625807e-07
-1.79120800638e-06
6.62290393932e-07
-1.86134018094e-06
6.36938310061e-07
-1.92767336412e-06
5.99534686053e-07
-1.98501616499e-06
5.50881342488e-07
-2.02321615485e-06
4.95099034103e-07
-2.05457025722e-06
4.51362642036e-07
-2.10527506089e-06
4.15969721145e-07
-2.14239229836e-06
3.61971884275e-07
-2.15953144291e-06
3.17977125238e-07
-2.1851685887e-06
2.93612654988e-07
-2.2236230324e-06
2.75423402763e-07
-2.27142556466e-06
2.65660006392e-07
-2.31596120271e-06
2.43220763331e-07
-2.351474662e-06
2.30656678127e-07
-2.38559525001e-06
2.2767913179e-07
-2.4061180225e-06
2.09824594956e-07
-2.42116104473e-06
1.82196207028e-07
-2.4341758995e-06
1.50364754507e-07
-2.44449272662e-06
1.17595973323e-07
-2.45159640062e-06
8.48256058976e-08
-2.45571202124e-06
5.13710381846e-08
-2.45716080287e-06
1.61878977076e-08
-2.45581013034e-06
-2.11701472007e-08
-2.45108512202e-06
-6.02739818146e-08
-2.44229952767e-06
-1.00385953193e-07
-2.42888981647e-06
-1.41215859883e-07
-2.41042547924e-06
-1.8313257865e-07
-2.38650508813e-06
-2.26872735773e-07
-2.35670353413e-06
-2.73144896489e-07
-2.32061672965e-06
-3.22382965227e-07
-2.27792052185e-06
-3.74772643174e-07
-2.22835361071e-06
-4.30563831142e-07
-2.17156656585e-06
-4.90512523836e-07
-2.1068148748e-06
-5.56303763435e-07
-2.03259522591e-06
-6.30898920655e-07
-1.94653454871e-06
-7.18729818176e-07
-1.84573104285e-06
-8.25566570874e-07
-1.72688269295e-06
-9.57951111168e-07
-1.58324943568e-06
-1.1239822583e-06
-1.40417114911e-06
-1.325193483e-06
-1.19489687819e-06
-1.52807143091e-06
-9.43577349403e-07
-1.73057176458e-06
-7.00519107575e-07
-1.81590412273e-06
-4.70822500656e-07
-1.82799742456e-06
-2.6427537957e-07
-1.76900793179e-06
-9.28180969302e-08
-1.65093689942e-06
2.33122841527e-08
-1.4795097528e-06
1.02575895622e-07
-1.29394075313e-06
1.72627114108e-07
-1.09653283784e-06
3.62753163985e-07
-1.06195433037e-06
5.49338430044e-07
-9.42549649267e-07
6.32873041435e-07