/*--------------------------------*- C++ -*----------------------------------*\
| =========                 |                                                 |
| \\      /  F ield         | OpenFOAM: The Open Source CFD Toolbox           |
|  \\    /   O peration     | Version:  v1806                                 |
|   \\  /    A nd           | Web:      www.OpenFOAM.com                      |
|    \\/     M anipulation  |                                                 |
\*---------------------------------------------------------------------------*/
FoamFile
{
    version     2.0;
    format      ascii;
    class       volVectorField;
    location    "21";
    object      U;
}
// * * * * * * * * * * * * * * * * * * * * * * * * * * * * * * * * * * * * * //

dimensions      [0 1 -1 0 0 0 0];


internalField   nonuniform List<vector> 
6400
(
(-4.37257330109e-05 -6.7142641942e-05 0)
(-0.000134394877273 -6.1899342908e-05 0)
(-0.000204514957714 -6.24598876038e-05 0)
(-0.00030980123192 -7.02493312568e-05 0)
(-0.000380324701605 -3.67801944584e-05 0)
(-0.000417207858767 2.01511232558e-05 0)
(-0.000351707850594 4.06801659662e-05 0)
(-0.000290963391598 1.94132643753e-05 0)
(-0.000314208484723 2.67171436825e-06 0)
(-0.000390960638139 7.33692496483e-06 0)
(-0.000322619887073 1.7377704795e-06 0)
(-0.00044316832104 -3.16796968097e-05 0)
(-0.000560740450176 -6.70242093695e-05 0)
(-0.000742912496657 -3.15946215551e-05 0)
(-0.000715708933134 -8.45144870696e-07 0)
(-0.000712388066243 -5.33571412387e-05 0)
(-0.000835584250804 -0.000116227990813 0)
(-0.00081867066084 -9.24583270682e-05 0)
(-0.000718105814521 -1.68346956862e-05 0)
(-0.00077403951484 1.3091245551e-05 0)
(-0.000839831196614 3.03129515141e-05 0)
(-0.000818805509414 3.45022098051e-05 0)
(-0.000713948277257 1.97540009695e-05 0)
(-0.000547492069794 1.57435360327e-06 0)
(-0.000408927235145 2.70353352115e-06 0)
(-0.000273078498087 -3.259164478e-05 0)
(-0.000189207601496 -2.12912003457e-05 0)
(-0.000103454237368 -2.86447106512e-05 0)
(9.49540259626e-05 -6.83848376809e-05 0)
(0.000328880411426 -0.000103250748154 0)
(0.000485241303258 -6.69205341261e-05 0)
(0.00121979646636 4.62826973636e-05 0)
(0.00338445462621 0.000273723876565 0)
(0.00727512928439 0.000379088980224 0)
(0.00936403061171 0.000239025853576 0)
(0.0112522202302 0.000188322981322 0)
(0.0130460043953 0.000197814851545 0)
(0.0147834058487 0.000224296907515 0)
(0.0164777324832 0.000243834542318 0)
(0.0181217408983 0.000244457951253 0)
(0.0196955534237 0.000219361792706 0)
(0.0211728247412 0.000164859167333 0)
(0.0225215608244 7.81660166438e-05 0)
(0.0237071101945 -4.14040117381e-05 0)
(0.0246936345699 -0.000190738099182 0)
(0.0254414366463 -0.000354254569114 0)
(0.025897329203 -0.000503828664091 0)
(0.0260448156431 -0.000617908766979 0)
(0.025939345433 -0.000715513467023 0)
(0.025503208914 -0.000853522473178 0)
(0.0245332393234 -0.00115016050239 0)
(0.0237083414845 -0.00209630360618 0)
(0.0190828680445 -0.00308976658037 0)
(0.011679461218 -0.00251449832019 0)
(0.00554648328665 -0.00088681238896 0)
(0.000811763193497 0.000344071549511 0)
(-0.000987257363148 0.000710351285479 0)
(-0.00145124761176 0.000777961267974 0)
(-0.000799825287951 0.000789770713363 0)
(0.000671265091134 0.000726004665354 0)
(0.00242593025568 0.000832306516934 0)
(0.00398422757563 0.000733638551965 0)
(0.00591345094006 0.000558682605965 0)
(0.00841869860643 0.00110675656364 0)
(0.0102924724716 0.000887387081239 0)
(0.0114258427628 0.000624873625972 0)
(0.0118996464134 0.000164121552929 0)
(0.0118758833767 -7.5304435633e-05 0)
(0.0115763046123 -0.000209556998864 0)
(0.0107389885522 -0.000344637750739 0)
(0.00996868740759 -0.000477365715552 0)
(0.00929152554999 -0.000590770103598 0)
(0.0083959288138 -0.000724428873796 0)
(0.00782695225794 -0.000942396288748 0)
(0.00593219047211 -0.000763847976934 0)
(0.00554710704763 -0.00061660095245 0)
(0.00365796240798 -0.000343524657939 0)
(0.00398310278078 -0.000497565538622 0)
(0.00168179515991 -0.000448385672643 0)
(0.0013014722922 -0.000770842039067 0)
(-1.37400806667e-05 -8.43667836993e-05 0)
(-6.14119059147e-05 -0.000102444506868 0)
(-0.000111676630533 -0.000107724140848 0)
(-0.00013980653929 -8.43825861593e-05 0)
(-0.000224675706725 -8.21076552684e-05 0)
(-0.000357004653161 -4.96838046208e-05 0)
(-0.000480155148618 2.76798633324e-05 0)
(-0.000525034429689 2.3107529356e-05 0)
(-0.000555726426122 -3.63208137578e-05 0)
(-0.000614472841727 -4.52331641391e-05 0)
(-0.00067132842332 -9.71546688359e-05 0)
(-0.00074989347729 -0.000218049355998 0)
(-0.000846237530855 -0.000258898372416 0)
(-0.000896172711499 -0.000181855043019 0)
(-0.00104806677001 -0.000106221199828 0)
(-0.00111000200204 -9.2965981543e-05 0)
(-0.00102922447663 -0.000179906366523 0)
(-0.000795448632455 -0.000153592663377 0)
(-0.000611484896333 -4.64630457288e-05 0)
(-0.000661503020812 5.98573160227e-05 0)
(-0.000704353797667 0.000120497481858 0)
(-0.000657050601706 0.000100019152242 0)
(-0.000625022480247 6.89968149396e-05 0)
(-0.000668781147201 -2.33213871126e-05 0)
(-0.000734184487136 1.01409078849e-05 0)
(-0.000583068362395 3.48311003768e-05 0)
(-0.000170576995304 9.66959225017e-05 0)
(0.000431223697052 0.000259638691067 0)
(0.0029750154884 0.000161734941138 0)
(0.00494619781524 0.000191735119696 0)
(0.00702046800717 0.000443575454873 0)
(0.00920421435584 0.00107822605877 0)
(0.0114199309858 0.00175036591597 0)
(0.0136700265011 0.0021071288951 0)
(0.0159726077202 0.00226827549707 0)
(0.0183659440491 0.00239328343256 0)
(0.0208015317027 0.00250259990158 0)
(0.0232528966215 0.00258180317458 0)
(0.0257039088682 0.00261998171132 0)
(0.0281394208987 0.0026098980275 0)
(0.0305428827617 0.00254737357579 0)
(0.0328962147123 0.00242869081758 0)
(0.0351796507146 0.00225091905948 0)
(0.0373711803299 0.00201099128872 0)
(0.0394439232461 0.0017076126708 0)
(0.0413624262158 0.00134263916387 0)
(0.0430850447607 0.000919142082429 0)
(0.0445382366491 0.000428960773989 0)
(0.045585824872 -0.000155236157223 0)
(0.046239804339 -0.000868833464503 0)
(0.0464987323044 -0.0018125596509 0)
(0.0465788810102 -0.00325829149928 0)
(0.0464982390319 -0.00501101585965 0)
(0.0457182862584 -0.00590041757596 0)
(0.0435271647897 -0.00515787180119 0)
(0.0397246712523 -0.00313121999809 0)
(0.0351201038853 -0.000666948533305 0)
(0.0303750865849 0.00136229056335 0)
(0.0253405083142 0.00261124053359 0)
(0.0215896038491 0.00285064352158 0)
(0.0112552733885 0.0011520426876 0)
(0.00405409426292 0.000598872795977 0)
(0.00596865962673 0.00182788594333 0)
(0.00865927893413 0.0035675451186 0)
(0.010331060597 0.00258796218198 0)
(0.0107891648343 0.000880049816488 0)
(0.0108552986744 0.000305844155808 0)
(0.0112778945943 0.000114647403439 0)
(0.0109184410822 -0.000319148812909 0)
(0.0105503432023 -0.000936575225172 0)
(0.00966448293143 -0.00161390244543 0)
(0.00898676897709 -0.00210751620618 0)
(0.00784005522729 -0.00197632310737 0)
(0.00757302833354 -0.00195064567573 0)
(0.00678900771037 -0.00173968124585 0)
(0.00609650583939 -0.00153762076192 0)
(0.00518077922793 -0.00134347754407 0)
(0.00437455413991 -0.00163300500223 0)
(0.00268734586838 -0.00178506913057 0)
(0.0012189382027 -0.00282413067061 0)
(-2.43003413251e-05 -0.000138647440954 0)
(-5.98346792613e-05 -0.000165536354764 0)
(-9.56677542447e-05 -0.000176456393399 -1.51586206406e-28)
(-0.000218570178669 -0.00021009249725 1.70931391017e-28)
(-0.000389695711935 -0.00026690508851 2.09317233817e-28)
(-0.000442503534929 -0.000210462285515 -1.98822765594e-28)
(-0.000438358678742 -7.34498576991e-05 2.01278405378e-28)
(-0.000474843874473 -8.72413861831e-05 -2.5122062087e-28)
(-0.000519865976417 -0.000147854892127 0)
(-0.000573262142976 -0.000169085148483 0)
(-0.000638132238904 -0.000231242943615 0)
(-0.000695117486564 -0.000303565017452 0)
(-0.000782235295513 -0.000279885823913 0)
(-0.000851093793598 -0.000202748856127 0)
(-0.000936193524429 -0.000148337795949 0)
(-0.000867570612377 -8.54167840042e-05 0)
(-0.000569575995735 -0.000123413621193 0)
(-0.000532477716548 -9.70689413039e-05 0)
(-0.000518203922411 -8.65054555299e-06 0)
(-0.000443394645855 8.82537691183e-05 0)
(-0.000467214565059 0.000171454898792 0)
(-0.000575747110516 0.000193000418081 0)
(-0.000732329853857 9.65602388518e-05 0)
(-0.000624400492243 8.85729949797e-05 0)
(-0.000386971148359 9.36122589154e-05 0)
(0.000120875808384 0.000424377515022 0)
(0.00200326890437 0.000909864415522 0)
(0.00380431321081 0.00152206346319 0)
(0.00575145296747 0.00205605316179 0)
(0.00780335851112 0.00255542687152 -2.83350350017e-27)
(0.0100065301925 0.00305803329095 2.40860243748e-27)
(0.0123056994857 0.00359798554838 0)
(0.0146298423163 0.00413531726362 0)
(0.01696277334 0.00456212105529 0)
(0.0193421671966 0.00485333450803 0)
(0.0217836411289 0.00506401032026 0)
(0.0242678051881 0.00521345076175 0)
(0.0267733436074 0.00530241785864 0)
(0.0292835545918 0.00532829986346 0)
(0.0317837272094 0.00528780764499 0)
(0.0342593884142 0.00517821441175 0)
(0.0366955453299 0.00499625037243 0)
(0.0390763720052 0.00473854264148 0)
(0.0413849389787 0.00440053023611 0)
(0.0436026965413 0.00397654647245 0)
(0.0457090913134 0.00345673811205 0)
(0.04768205852 0.00282420617969 0)
(0.0495020777001 0.00205600663583 0)
(0.0511598754738 0.0011274279201 0)
(0.0525925120625 -1.01577021805e-05 0)
(0.0538482259585 -0.00136879771171 0)
(0.0550009178017 -0.00293271354561 0)
(0.0560649591432 -0.00432233628127 0)
(0.0567025155548 -0.00489509564187 0)
(0.0563207358429 -0.0045327853253 0)
(0.0546671122898 -0.00370330745245 0)
(0.0520553111557 -0.00292332072333 0)
(0.0487943171122 -0.00279443857466 0)
(0.0450906371339 -0.00381873183111 0)
(0.0360639800687 -0.00504613205248 0)
(0.0264144494605 -0.00547819908028 0)
(0.0199229064557 -0.0039643239194 0)
(0.0138597233859 0.000111975533563 0)
(0.00992938071038 0.0027445005938 0)
(0.00918806546225 0.0018418134456 0)
(0.0106441809588 0.000742374296274 0)
(0.0113021262717 0.000342392530558 0)
(0.0109718830669 -2.85026079099e-05 0)
(0.0103700571061 -0.00075757193327 0)
(0.00955989111319 -0.0016521617372 0)
(0.00871855089035 -0.00237880713134 0)
(0.00818687700466 -0.00264378394538 0)
(0.0080611687847 -0.00247348264431 0)
(0.00780685751536 -0.00253642264329 0)
(0.00723415530017 -0.00277425362683 0)
(0.00645226329127 -0.00262497721021 0)
(0.00549411683394 -0.00234942515067 0)
(0.00444650713556 -0.00292618198124 0)
(0.00315032254075 -0.00445149585414 0)
(0.000772360729467 -0.00449012205494 0)
(-2.58378436153e-05 -0.000220777807678 0)
(-1.62065338683e-05 -0.000127888988916 0)
(-8.90923280869e-05 -0.000296618670792 0)
(-0.000270028535598 -0.000380745445218 0)
(-0.000289445695235 -0.000276775411238 0)
(-9.81629734198e-05 -5.67620084987e-05 0)
(-0.000108511048539 -5.22030230299e-05 0)
(-0.000216476030625 -0.000166780196024 0)
(-0.000463524866352 -0.000326166175269 0)
(-0.000518979553264 -0.000319896603113 0)
(-0.00061605225582 -0.000351594540386 0)
(-0.000691574808708 -0.000333235760093 0)
(-0.00080195020195 -0.000247547420922 0)
(-0.000776504831238 -0.000154574617424 0)
(-0.00064837717155 -0.000138794023992 0)
(-0.000639651568206 -0.000121924738866 0)
(-0.00060719073781 -6.80134458547e-05 0)
(-0.000498044145505 3.20942751649e-05 0)
(-0.000439607457471 0.00011836365858 0)
(-0.000482738533301 0.000217088376609 0)
(-0.000772595655523 8.8898994839e-05 0)
(-0.000707921047472 5.17210370985e-05 0)
(-0.000675647472644 5.55631718812e-05 0)
(-0.000665862059863 0.000251175389921 0)
(0.000645142011165 0.000789208044833 0)
(0.00217115236666 0.00171863007452 0)
(0.00392402317541 0.00262169191086 0)
(0.00577198763742 0.00349348845108 0)
(0.00772745461911 0.00428860311814 0)
(0.00979226836796 0.00498254330034 0)
(0.0119669434473 0.00560714661261 0)
(0.0142249473094 0.00618611364949 0)
(0.0165336491447 0.0067115726729 0)
(0.0188794280819 0.00714873788692 0)
(0.0212690810197 0.00748357102886 0)
(0.0237056876504 0.00773026379413 0)
(0.026179773332 0.00789865932963 0)
(0.0286773845933 0.00799089792125 0)
(0.0311845024319 0.00800567122519 0)
(0.0336874481407 0.0079404350627 0)
(0.0361724290896 0.00779209403865 0)
(0.0386252595393 0.00755703937648 0)
(0.0410312120571 0.00723094837455 0)
(0.0433749698132 0.00680847484167 0)
(0.0456405504153 0.00628275693917 0)
(0.0478114148105 0.00564462334382 7.63450299919e-28)
(0.0498713174352 0.00488165431629 -7.47692658055e-28)
(0.0518065778855 0.00397770999569 0)
(0.0536130833111 0.00291584366513 0)
(0.0553035879624 0.00168643269369 0)
(0.0568653829524 0.000263312608313 0)
(0.0583694972963 -0.00129018074528 0)
(0.0597799566405 -0.00281659093257 0)
(0.0609087253771 -0.00404331411481 0)
(0.0613933432884 -0.00486856453821 0)
(0.0609691233536 -0.00537723266178 0)
(0.0598208319834 -0.00601164517353 0)
(0.0507610885529 -0.00658410047859 4.90154850025e-28)
(0.0397797691334 -0.00720363475811 -4.04273945066e-28)
(0.0323989231036 -0.00802333187622 0)
(0.0273084727784 -0.0084837148726 0)
(0.0228626646439 -0.00804619337598 0)
(0.0181011662663 -0.00617799334673 0)
(0.0125704558842 -0.00250552928205 0)
(0.0109701326908 0.000621237737309 0)
(0.010789474114 0.00076247945278 0)
(0.0107483057203 0.000141219051607 0)
(0.0104052257129 -0.000543720002615 0)
(0.00984543936573 -0.00135972749782 0)
(0.00939994788 -0.00232346368632 0)
(0.0088210651725 -0.00291032852852 0)
(0.00837717921339 -0.00288232044644 0)
(0.00803075840025 -0.00289575764519 0)
(0.00699877957828 -0.00329771529336 0)
(0.00624070741927 -0.00377283876026 0)
(0.00538517666567 -0.00395398701443 0)
(0.00434646075987 -0.00371947774164 0)
(0.00275503852763 -0.00335359140538 0)
(0.00222417857696 -0.00513247221424 0)
(0.000798439219182 -0.00647349646273 0)
(1.66353757655e-06 -0.000200108977346 0)
(-1.1226340072e-06 -0.000155378617627 0)
(-0.000117843125382 -0.000500179079398 0)
(-0.000209718623835 -0.000402940926564 0)
(-0.000137087575045 -0.000162718111104 0)
(-9.38492725701e-05 -6.4477800788e-05 0)
(-0.000138406318147 -0.000137038614309 0)
(-0.000377733874896 -0.00045171204457 0)
(-0.000581196592535 -0.000579950588859 0)
(-0.00058639316727 -0.000509074190048 0)
(-0.000568588087827 -0.000412406543207 0)
(-0.000573251817518 -0.000310593086557 0)
(-0.000581388358491 -0.000205611998724 0)
(-0.000622655834477 -0.000168139432088 0)
(-0.000661376563063 -8.38799594712e-05 0)
(-0.00063286381786 9.62095570715e-06 0)
(-0.000557034836604 7.34666319935e-05 0)
(-0.000497828611936 0.000132341812131 0)
(-0.00059913777317 9.45475753687e-05 0)
(-0.000776608052153 -8.14444964885e-05 0)
(-0.000687509745058 -3.35692919477e-05 0)
(-0.000678432097467 5.07632606851e-05 0)
(-0.000733261928763 0.000371005197239 0)
(0.000465285989823 0.00103066393582 0)
(0.00191759690549 0.00218460762879 0)
(0.00354995478798 0.00341301121313 0)
(0.00529750931795 0.00456278527467 0)
(0.00714508701299 0.00559399775238 0)
(0.00909303797902 0.00650768386432 0)
(0.0111407644449 0.00731111715084 0)
(0.0132840100321 0.00802331463159 -1.66855163142e-27)
(0.0155092762418 0.00865810922794 1.51104847137e-27)
(0.0178001573614 0.00921583527788 0)
(0.0201461115055 0.0096858155168 0)
(0.0225436906768 0.0100614750021 0)
(0.0249891278772 0.0103450018253 0)
(0.0274741397829 0.0105392220391 0)
(0.0299873971525 0.0106443382331 0)
(0.0325164063592 0.0106586341669 0)
(0.0350481665449 0.0105792686978 0)
(0.0375693057955 0.0104028015285 0)
(0.040066096637 0.0101251872417 0)
(0.0425245255774 0.00974172098977 0)
(0.044930375382 0.00924668068875 0)
(0.0472693290784 0.0086330122495 0)
(0.0495271718452 0.00789176962529 0)
(0.051690318572 0.00701182572327 0)
(0.0537468474567 0.00598011593863 0)
(0.0556877793131 0.00478361639642 0)
(0.057512126753 0.0034164303283 0)
(0.0592265007764 0.00188699837132 0)
(0.0608017576053 0.000189758718605 0)
(0.0622709593985 -0.00158579517371 0)
(0.0634602768043 -0.00335956907376 0)
(0.0641004176883 -0.00502796010195 0)
(0.0642152050787 -0.00668837137112 0)
(0.055991528395 -0.00776415206522 0)
(0.0448099665112 -0.00850925405993 0)
(0.0375469825213 -0.00948820449205 0)
(0.033342721849 -0.0107007045033 0)
(0.0304993613818 -0.011998807166 0)
(0.0275888527548 -0.0131605760772 0)
(0.0237700266007 -0.0136815028188 0)
(0.0181131080198 -0.00983818286523 0)
(0.0130752402853 -0.00173729152592 0)
(0.0124335349518 -0.0008945730705 0)
(0.0116325201021 -0.00124253648145 0)
(0.0104752578657 -0.00152225510912 0)
(0.0094900691144 -0.00197776409876 0)
(0.00884188915269 -0.00261346348232 0)
(0.00843508591316 -0.00310854063299 0)
(0.00800289736854 -0.00348448712371 0)
(0.00704586899944 -0.00390363548538 0)
(0.00642764611175 -0.00441101202137 0)
(0.00563850056902 -0.00487496652018 0)
(0.00479121218416 -0.00519878250252 0)
(0.00371046531195 -0.00475665725992 0)
(0.00267873207646 -0.00456812276446 0)
(0.00189177800108 -0.00668379644113 0)
(0.000440693049763 -0.00741977289462 0)
(4.13593980166e-07 -0.000182396776452 0)
(-1.26898641918e-05 -0.000195770719369 0)
(-0.000132675266768 -0.000566599209945 0)
(-0.000132275448141 -0.000306505281762 0)
(-8.15394997855e-05 -9.89515231912e-05 0)
(-9.70597514043e-05 -9.15808470744e-05 0)
(-0.000246695633325 -0.000320403306061 0)
(-0.000607230631486 -0.000766618714683 0)
(-0.000573627947944 -0.000651976368253 0)
(-0.000539757952727 -0.000509078606542 0)
(-0.000418503340074 -0.00037371769731 0)
(-0.00040800061451 -0.000275469235542 0)
(-0.000510326263779 -0.000239633067992 0)
(-0.000583675946183 -0.000143745687259 0)
(-0.000583082870501 -4.06185088155e-05 0)
(-0.000549525781723 6.34762883582e-05 0)
(-0.000520554166248 9.1621454996e-05 0)
(-0.000654405429485 -1.08133658119e-05 0)
(-0.000807215355109 -0.000202109306819 0)
(-0.00070394502815 -0.000118233371178 0)
(-0.000713224473804 -2.35111229935e-05 0)
(-0.000915354136025 0.000256770132733 0)
(8.55915720011e-05 0.000883718124682 0)
(0.00141017122171 0.00231651749875 0)
(0.002898093228 0.0038221137628 0)
(0.00451341412714 0.00523149956993 0)
(0.00623850524688 0.0065044654684 0)
(0.00806718680391 0.00764088456277 0)
(0.00999759188812 0.00865211413583 0)
(0.0120276041305 0.00955030506854 0)
(0.014152630861 0.0103481023237 0)
(0.0163641816631 0.0110541020738 0)
(0.0186520622464 0.0116701522622 0)
(0.0210075704171 0.0121927829681 0)
(0.023424143001 0.0126183619116 0)
(0.0258950557891 0.0129455775077 0)
(0.0284116098771 0.0131735811874 0)
(0.030963204734 0.013300646758 0)
(0.0335380001111 0.0133240440532 0)
(0.0361233865624 0.0132403714312 0)
(0.0387062553396 0.0130457534222 0)
(0.0412732143 0.012735924028 0)
(0.0438108070947 0.0123060734418 0)
(0.0463057335597 0.0117505981434 0)
(0.0487450365647 0.0110626738322 0)
(0.0511162502196 0.0102338502348 0)
(0.0534075549552 0.00925378259855 0)
(0.055607911121 0.00811059688008 0)
(0.057707003195 0.00679222687478 0)
(0.0596942310404 0.00528897215776 0)
(0.0615621849262 0.00360048322799 0)
(0.0632900424664 0.00173348175977 0)
(0.0648131954176 -0.000313711287561 0)
(0.0660415211069 -0.00252627111143 0)
(0.066860259976 -0.00497274423921 0)
(0.0638272569688 -0.00740066408255 0)
(0.0536485749342 -0.00882971049847 0)
(0.0461531439481 -0.0102008726851 0)
(0.0422186099273 -0.0118201527139 0)
(0.0406720150407 -0.0141168335971 0)
(0.0404690084353 -0.0174686482726 0)
(0.04053943439 -0.0221452812912 0)
(0.035702970068 -0.0256671274792 0)
(0.0283770039338 -0.0239478710909 0)
(0.0133922015219 -0.00658006077939 0)
(0.0122840778171 -0.00361415475363 0)
(0.0112118033545 -0.00336130428793 0)
(0.00982399594502 -0.00294094249338 0)
(0.00869515105994 -0.00271618229352 0)
(0.00825405279652 -0.00300567279677 0)
(0.00799139061844 -0.00367863157669 0)
(0.00715395176448 -0.00420139248732 0)
(0.00652592584256 -0.00468684186297 0)
(0.00606811455104 -0.00523593500735 0)
(0.00524113561398 -0.00581748565819 0)
(0.00461276077545 -0.00629991436306 0)
(0.00350949561036 -0.00554081969317 0)
(0.00262846656534 -0.00540393648379 0)
(0.00192139864033 -0.00761691630312 0)
(0.000553319752844 -0.00829551794902 0)
(-9.30633957137e-06 -0.00020157986197 0)
(-5.60984755742e-05 -0.000293114681717 0)
(-0.000211161225986 -0.00064207915404 0)
(-0.000201754818139 -0.0004478535566 0)
(-9.00293280046e-05 -0.000110180054609 0)
(-0.000165809604188 -0.000215517691642 0)
(-0.000488161364022 -0.000702314558834 0)
(-0.000584914909706 -0.000852847617571 0)
(-0.000490234057553 -0.00061395229916 0)
(-0.000318430156862 -0.000341721474848 0)
(-0.000405540288996 -0.000406553988059 8.16381209053e-28)
(-0.000436469161905 -0.000336709592948 -2.98550345232e-28)
(-0.000544764582984 -0.000253117987331 0)
(-0.000565360763985 -0.000126129399027 0)
(-0.000554826876109 1.9826940135e-06 0)
(-0.000536986745438 7.63793119893e-05 0)
(-0.000650077923933 -5.66388018297e-05 0)
(-0.000853306281318 -0.000312787985537 0)
(-0.000750270738408 -0.00019805936429 0)
(-0.00068344199132 -9.35981061686e-05 0)
(-0.00111434734681 4.68396894676e-05 0)
(-0.000600587624416 0.000553999818646 0)
(0.000752813779026 0.0019963113335 0)
(0.00207654851024 0.00377350831274 0)
(0.00354155292262 0.00546508117071 0)
(0.00512590171761 0.00699972499353 0)
(0.00682336060198 0.0083794490422 0)
(0.00863008724927 0.00961810571349 0)
(0.0105437294004 0.0107298389486 0)
(0.0125615809543 0.0117263356048 0)
(0.0146793579097 0.0126167787575 0)
(0.0168907251476 0.0134068002023 1.25132564562e-27)
(0.0191881227261 0.0140979243033 -1.15751398887e-27)
(0.0215639405376 0.0146884279077 0)
(0.024010829316 0.015175414163 0)
(0.0265209382598 0.0155560818455 0)
(0.029085160376 0.0158275601439 0)
(0.0316929892268 0.0159865207615 0)
(0.0343327530696 0.0160291542121 0)
(0.036991917652 0.0159513282615 0)
(0.0396573992524 0.0157487636373 0)
(0.0423159018543 0.0154170828272 0)
(0.0449542986471 0.0149517041723 0)
(0.0475600049006 0.0143475238992 0)
(0.0501212630444 0.0135984161548 0)
(0.0526272389519 0.0126966273882 0)
(0.0550678438581 0.0116323283737 0)
(0.0574332355027 0.0103936651617 0)
(0.0597129347451 0.00896756410393 0)
(0.0618943339528 0.00734123783407 0)
(0.0639607727798 0.00550361001285 0)
(0.0658959498831 0.00345035375902 0)
(0.0676457586544 0.00115842189141 0)
(0.0691826600624 -0.00140316428866 0)
(0.0705260986613 -0.00437480732604 0)
(0.0714879105603 -0.00782624613835 0)
(0.0712109772061 -0.0113074651327 0)
(0.0696179937277 -0.0143974896907 0)
(0.0669166557786 -0.0174378000593 0)
(0.0633629564048 -0.0209103827832 0)
(0.0591316237057 -0.0252041651804 0)
(0.0542301167413 -0.0306594171937 0)
(0.0463803079437 -0.0368917342168 0)
(0.0386219263475 -0.0411888788164 0)
(0.0152891663381 -0.0155454053485 0)
(0.0115629820587 -0.00697451546585 0)
(0.010440910607 -0.00523182046947 0)
(0.00913862996518 -0.00428891558788 0)
(0.00814683033682 -0.00357036032869 0)
(0.0076825693996 -0.00356025349871 0)
(0.00726282790037 -0.00421507996741 0)
(0.00660005683992 -0.00470828804794 0)
(0.00637975263057 -0.0052589045692 0)
(0.0058519977986 -0.00591640964171 0)
(0.00522097303345 -0.00665038889887 0)
(0.0045552970741 -0.00684850453878 0)
(0.00380773058283 -0.00658927167163 0)
(0.00258595202321 -0.00622728977052 0)
(0.00195565281408 -0.00831689331114 0)
(0.000744218648696 -0.00931356913495 0)
(-1.42744637684e-05 -0.000241027963522 0)
(-0.000111997484158 -0.000435295614436 0)
(-0.000258284171595 -0.000610875509412 0)
(-9.54409691341e-05 -0.000186109068689 0)
(-9.36724422337e-05 -0.000147353270661 0)
(-0.000283921109281 -0.000456624066948 0)
(-0.000498542422627 -0.000813879378617 0)
(-0.000503021857484 -0.000870356352517 0)
(-0.000352238761081 -0.000466343655152 0)
(-0.000292968994359 -0.000369617121046 0)
(-0.000316702302002 -0.000385670253856 0)
(-0.000499079230973 -0.000406762749462 0)
(-0.00055919534417 -0.000256399587488 0)
(-0.000547612901609 -0.00010134632975 0)
(-0.000580886111254 1.10238495282e-05 0)
(-0.00064459592075 -8.22356472144e-05 0)
(-0.000879220047107 -0.000416875062861 0)
(-0.000787552563586 -0.00030296777684 0)
(-0.000676281806232 -0.000129544461117 0)
(-0.000766202154595 -0.000136830494796 0)
(-0.000943407032871 0.000280979294052 0)
(6.91682643832e-05 0.00114505249764 0)
(0.00119972666884 0.00318647429798 0)
(0.00248156574562 0.00520703836262 0)
(0.00390161371252 0.0070447452394 0)
(0.00544845148949 0.00869862219225 0)
(0.00711578321231 0.0101901069159 0)
(0.00889997075672 0.0115386721375 0)
(0.0107983990725 0.0127590885553 0)
(0.0128082108389 0.0138619062382 0)
(0.0149255168168 0.0148541716447 0)
(0.0171451277563 0.0157396378042 0)
(0.0194608227642 0.0165189556689 0)
(0.0218657646227 0.017190334262 0)
(0.0243525990161 0.0177505388809 0)
(0.026913160564 0.0181956591136 0)
(0.0295381273879 0.018521342506 0)
(0.0322168943994 0.0187228713897 0)
(0.0349376615529 0.0187952986161 0)
(0.0376876575365 0.018733683516 0)
(0.0404534774865 0.0185333129409 0)
(0.0432215444497 0.0181898430329 0)
(0.0459786798282 0.017699238481 0)
(0.0487127160226 0.0170574312404 0)
(0.0514129888218 0.0162596166871 6.12967591452e-28)
(0.0540704683151 0.015299264419 -5.98962360556e-28)
(0.0566773068736 0.0141671298332 0)
(0.059225765433 0.0128508203077 0)
(0.06170671029 0.0113352066394 0)
(0.0641078686613 0.00960345885862 0)
(0.0664120077679 0.00763796670704 0)
(0.0685980630452 0.00542048671489 0)
(0.070649369487 0.00293409330189 0)
(0.072489318746 0.000116938280485 0)
(0.0741905175681 -0.00303866687542 0)
(0.0756787881916 -0.00660943806255 0)
(0.0767338875589 -0.0104724733652 0)
(0.0770004473043 -0.0146049480688 0)
(0.0761932243641 -0.0191642215109 0)
(0.0741638841173 -0.0244048225601 0)
(0.070836882091 -0.0306394275698 0)
(0.0661667705129 -0.0382801893873 0)
(0.0585131411532 -0.0478385110454 0)
(0.0525343133248 -0.057590292628 0)
(0.0203632144407 -0.0242104107615 0)
(0.010991937776 -0.0110764680803 0)
(0.00844194139909 -0.00697277073996 0)
(0.00740817223275 -0.00538224865363 0)
(0.00664219687524 -0.00411795717038 0)
(0.00654665620698 -0.00381998236781 0)
(0.00654319032116 -0.00439127562042 0)
(0.00637776289355 -0.00492798255396 0)
(0.00629248133492 -0.00563304881686 0)
(0.00583860171224 -0.00644003058193 0)
(0.0054469104824 -0.00725051866586 0)
(0.0047816639327 -0.00744068501396 0)
(0.00414441545377 -0.00760250454666 0)
(0.00273775271743 -0.00733271793253 0)
(0.00169671386371 -0.00883526773627 0)
(0.000624814264507 -0.0102644485037 0)
(-1.60631773894e-05 -0.00029200204688 0)
(-0.000175031403711 -0.000620352449437 0)
(-0.000241219843551 -0.000567542685158 0)
(-0.000106872835378 -0.000193940129159 0)
(-0.00015563200383 -0.000253199425702 0)
(-0.000451455132655 -0.000760851560447 0)
(-0.000419649422793 -0.000878399412995 0)
(-0.000427467120621 -0.000813552790825 0)
(-0.00022499022703 -0.000317156744842 0)
(-0.000413633788435 -0.000520417988434 0)
(-0.000402020329273 -0.000485737498462 0)
(-0.000537702662264 -0.000437724865005 0)
(-0.000562915710428 -0.000241072777025 0)
(-0.000582836486738 -9.09839145179e-05 0)
(-0.000628492268076 -5.55889173947e-05 0)
(-0.000751211843106 -0.000383806913586 0)
(-0.000825190350441 -0.000454301287987 0)
(-0.000681851886102 -0.000242274043337 0)
(-0.000624126835406 -0.000107969842453 0)
(-0.000952596089048 -8.3308054663e-05 0)
(-0.000772247792384 0.000544233277666 0)
(0.000327510388622 0.00207885372523 0)
(0.00141005150438 0.00439833125347 0)
(0.00264765465163 0.00658720048251 0)
(0.00402161966654 0.00855796227043 0)
(0.00552808476227 0.0103348801784 0)
(0.00716291184043 0.0119466381326 0)
(0.00892309779286 0.0134144925054 0)
(0.0108061710113 0.0147529582285 0)
(0.0128094471967 0.0159714744258 0)
(0.0149295082504 0.0170756037346 0)
(0.0171619735627 0.0180676973299 0)
(0.0195015228698 0.0189473858269 1.01860082447e-27)
(0.0219419853722 0.0197121287361 -9.51587508835e-28)
(0.0244763162537 0.020357846488 0)
(0.0270964149281 0.0208794486176 0)
(0.0297929128983 0.0212711833734 0)
(0.0325550511207 0.0215269097835 0)
(0.0353706967446 0.0216404066745 0)
(0.038226516706 0.0216057428348 0)
(0.0411083390036 0.0214176654235 0)
(0.0440017383052 0.0210719265599 0)
(0.0468928715432 0.0205653876081 0)
(0.0497694805652 0.0198957182299 0)
(0.0526218235839 0.0190604530021 0)
(0.0554430774615 0.0180553241965 0)
(0.0582286490533 0.0168722336314 0)
(0.0609743317956 0.015498019788 0)
(0.0636739636045 0.0139147007087 0)
(0.066317340888 0.0121007759987 0)
(0.0688888122271 0.0100325391821 0)
(0.0713667048369 0.00768452989884 0)
(0.0737325349581 0.00503083845419 0)
(0.0759638344529 0.00204166701202 0)
(0.0780020457744 -0.00132337936211 0)
(0.0798485708732 -0.00511587903071 0)
(0.0813808782981 -0.00938998322148 0)
(0.0824157985825 -0.014220469492 0)
(0.0827562176821 -0.0197624851863 0)
(0.0822366156444 -0.0262469893965 0)
(0.080730885304 -0.0339978677494 0)
(0.0782876979739 -0.0434961588607 0)
(0.0740228577594 -0.0555139512446 0)
(0.0719345149993 -0.0704139351137 0)
(0.0568429578343 -0.0590484869298 0)
(0.017992921915 -0.0182929921103 0)
(0.0072642732697 -0.00741785774194 0)
(0.00522657097745 -0.00642493532933 0)
(0.00495270499297 -0.00429136416867 0)
(0.00558963172905 -0.00358049975741 0)
(0.00612647220486 -0.00411127017644 0)
(0.00637033033627 -0.00489835741253 0)
(0.00636951020898 -0.00585438771087 0)
(0.00602522007674 -0.00681074883323 0)
(0.00566580630036 -0.00762788418773 0)
(0.0051220230514 -0.0081141598765 0)
(0.00429180736403 -0.00851294237844 0)
(0.00293343348227 -0.00879685605948 0)
(0.00131272625076 -0.00980162320501 0)
(0.000225642379114 -0.0110133847058 0)
(-2.39260216224e-05 -0.000370118939136 0)
(-0.000255132727138 -0.00085039172195 0)
(-0.000223028272767 -0.000471033904445 0)
(-0.000109996612062 -0.00019540246617 0)
(-0.000279427333281 -0.000456482963912 0)
(-0.000321354904782 -0.000602517639823 0)
(-0.000376936663 -0.000968081177289 0)
(-0.000380781354788 -0.000702145321778 0)
(-0.000168789566542 -0.000253839062945 0)
(-0.000330061696432 -0.00044483255384 0)
(-0.000471844129352 -0.000582100678776 0)
(-0.000545896795462 -0.000444360945105 0)
(-0.000551005806227 -0.000233853410134 0)
(-0.000625653426466 -0.000123660319933 0)
(-0.000719124572349 -0.000254657673112 0)
(-0.000837624175594 -0.000579561017627 0)
(-0.000734367700584 -0.000425619814351 0)
(-0.000631043559335 -0.00019722022927 0)
(-0.000600117475536 -0.00013054577946 0)
(-0.00107064752743 0.000106530614577 0)
(-0.000552701109626 0.000678967404753 0)