/*--------------------------------*- C++ -*----------------------------------*\
| =========                 |                                                 |
| \\      /  F ield         | OpenFOAM: The Open Source CFD Toolbox           |
|  \\    /   O peration     | Version:  v1806                                 |
|   \\  /    A nd           | Web:      www.OpenFOAM.com                      |
|    \\/     M anipulation  |                                                 |
\*---------------------------------------------------------------------------*/
FoamFile
{
    version     2.0;
    format      ascii;
    class       surfaceScalarField;
    location    "33";
    object      phi;
}
// * * * * * * * * * * * * * * * * * * * * * * * * * * * * * * * * * * * * * //

dimensions      [0 3 -1 0 0 0 0];
oriented        oriented;


internalField   nonuniform List<scalar> 
12640
(
-1.86565352576e-07
1.95086747187e-07
-3.80381738619e-07
2.02496842754e-07
-5.77056667338e-07
2.04046013009e-07
-7.58337662414e-07
1.88512916725e-07
-8.74739962519e-07
1.23192074106e-07
-8.85296227864e-07
1.74821510915e-08
-8.35601713885e-07
-4.31131236662e-08
-8.64326221025e-07
3.47408987746e-08
-9.89804887695e-07
1.31934856922e-07
-1.10026133026e-06
1.16733209122e-07
-1.21523025502e-06
1.19612420538e-07
-1.41857097792e-06
2.0783269557e-07
-1.61552584118e-06
2.01184030064e-07
-1.72787539886e-06
1.16483341697e-07
-1.78120689165e-06
5.71537601459e-08
-1.89742174702e-06
1.20788309118e-07
-2.05211194004e-06
1.59816440867e-07
-2.13585099544e-06
8.92049811774e-08
-2.10912854124e-06
-2.22064326383e-08
-1.97497990825e-06
-1.30571140523e-07
-1.85031159141e-06
-1.21579623828e-07
-1.78589785094e-06
-6.10323424093e-08
-1.76244892375e-06
-2.0652017864e-08
-1.81913884398e-06
5.8562593598e-08
-1.8968292516e-06
7.91064232675e-08
-1.94839737029e-06
5.36223136879e-08
-2.07243284232e-06
1.25917030698e-07
-2.22341670868e-06
1.53930341314e-07
-2.32636476026e-06
1.05290665628e-07
-2.34102577673e-06
1.76504542327e-08
-2.38477238919e-06
4.540461015e-08
-2.44733030427e-06
6.28394274824e-08
-2.34888065535e-06
-9.22218587316e-08
-2.1680313857e-06
-1.73497283115e-07
-1.95012051825e-06
-2.12985498763e-07
-1.67305418074e-06
-2.63658064008e-07
-1.39290412354e-06
-2.66760905383e-07
-1.15309672869e-06
-2.31221018306e-07
-9.48081379618e-07
-2.03615436258e-07
-7.9878059878e-07
-1.66055184553e-07
-7.8305036651e-07
-3.92891711719e-08
-8.37393418856e-07
3.57157701535e-08
-9.04474897542e-07
5.36626699388e-08
-9.76854134321e-07
6.61319000121e-08
-1.04953711829e-06
7.25827242496e-08
-1.11749920539e-06
7.16185211342e-08
-1.17329920949e-06
6.19395538471e-08
-1.23015967206e-06
5.66027647081e-08
-1.31009761055e-06
7.91884283952e-08
-1.46537707194e-06
1.51269604837e-07
-1.77275481785e-06
3.02004625746e-07
-2.12067591592e-06
3.47124850066e-07
-2.14699395001e-06
4.25056954108e-08
-1.90451102387e-06
-2.27493911445e-07
-1.51961641383e-06
-3.75140955202e-07
-1.06064343081e-06
-4.61532489137e-07
-4.08357219855e-07
-6.60098483276e-07
-1.15678079313e-07
-2.98060269269e-07
1.59822709268e-08
-1.25480658589e-07
4.10550385382e-07
-3.80861905562e-07
1.36059386676e-06
-9.41820649437e-07
2.25857206676e-06
-8.87967878487e-07
3.16184003487e-06
-8.94160844153e-07
3.8143983751e-06
-6.46319756019e-07
4.19043939871e-06
-3.73521095104e-07
4.43267349893e-06
-2.40363499418e-07
4.58634376246e-06
-1.51999500036e-07
4.69832193811e-06
-1.09653070347e-07
4.76421865431e-06
-6.26394793496e-08
4.75415448552e-06
1.45483071085e-08
4.65112196816e-06
1.07899738897e-07
4.44311838432e-06
2.12672279992e-07
4.12001912351e-06
3.28266419006e-07
3.6234701819e-06
5.02466465306e-07
3.09081892766e-06
5.39245539272e-07
2.5393322672e-06
5.57816179887e-07
2.09853735551e-06
4.4598504529e-07
1.52160578915e-06
5.82837124938e-07
9.41204744935e-07
6.00080445432e-07
9.46873013811e-07
-8.13738129799e-08
2.82149060955e-07
-1.88672261591e-07
3.15583950565e-07
-2.99368136963e-07
3.19904163022e-07
-4.28816092657e-07
3.22283311038e-07
-6.60040002591e-07
3.5966506851e-07
-9.05530288677e-07
2.69041601409e-07
-1.06844898171e-06
1.26651271611e-07
-1.18284595525e-06
1.5682235692e-07
-1.29180884309e-06
2.4858176838e-07
-1.43204618489e-06
2.63610015656e-07
-1.57721428686e-06
2.70885750222e-07
-1.66228046252e-06
2.97842428348e-07
-1.72925984582e-06
2.72816038957e-07
-1.82496935045e-06
2.1682517212e-07
-1.93068726611e-06
1.68336667359e-07
-2.00484283718e-06
2.00416918562e-07
-1.96999423195e-06
1.30541279673e-07
-1.73914599176e-06
-1.37756090869e-07
-1.54870776225e-06
-2.10001839256e-07
-1.48545481068e-06
-1.91402655879e-07
-1.46375652003e-06
-1.40568558505e-07
-1.59398958738e-06
7.14233954229e-08
-1.79962714945e-06
1.87570415481e-07
-1.83331955379e-06
9.38758187522e-08
-1.89369701556e-06
1.41740913807e-07
-2.17023244269e-06
3.31585551516e-07
-2.34444744768e-06
3.04433792885e-07
-2.36331946297e-06
1.75919948696e-07
-2.31759516247e-06
6.43115857957e-08
-2.24180993194e-06
-5.48365130551e-08
-2.06311512666e-06
-1.30698564684e-07
-1.8590364287e-06
-1.35203188499e-07
-1.67409909561e-06
-2.7238087378e-07
-1.47091915219e-06
-3.71523412892e-07
-1.44043174068e-06
-2.33457989749e-07
-1.28911383072e-06
-4.06913103374e-07
-1.06074810255e-06
-4.88846389027e-07
-9.6658797756e-07
-3.25467638117e-07
-8.90294868289e-07
-2.88922726726e-07
-7.9822588589e-07
-2.68814459837e-07
-5.6900688749e-07
-2.90538793478e-07
-3.00220870655e-07
-2.48279757372e-07
-2.68230813276e-07
1.11832808707e-08
-2.77317053604e-07
7.54520617192e-08
-3.04415861738e-07
9.92316547039e-08
-3.5542217227e-07
1.26230210908e-07
-4.36098200654e-07
1.42170533846e-07
-5.60216809204e-07
1.83432407248e-07
-7.21707503486e-07
2.38055925916e-07
-8.31553077769e-07
2.64069422022e-07
-8.16029812617e-07
2.8773655278e-07
-8.04058803129e-07
3.36625632547e-07
-1.31323793846e-06
5.50789380995e-07
-1.55549870356e-06
1.10374481049e-08
-1.39151882286e-06
-5.47845846284e-07
-1.55565820423e-06
-3.07848121742e-07
4.08351343724e-07
-2.63612695771e-06
3.42285608434e-06
-3.30283739456e-06
5.20298456788e-06
-1.87852877981e-06
5.26750783851e-06
-4.06869730714e-07
3.9552175329e-06
4.08051453753e-07
2.94614318429e-06
1.37427287269e-07
3.39012992274e-06
-1.31385564899e-06
3.87974607863e-06
-1.12560247528e-06
4.12108851516e-06
-6.10500190718e-07
4.21773308032e-06
-3.35350884379e-07
4.39351308244e-06
-3.25656836735e-07
4.6108099273e-06
-3.2451520179e-07
4.74358225145e-06
-1.91729072451e-07
4.74817719103e-06
1.40189202047e-08
4.60309596817e-06
2.57550354899e-07
4.32859178162e-06
4.91675833101e-07
4.0374504631e-06
6.24475031506e-07
3.78145103604e-06
7.6437885012e-07
3.42750434761e-06
8.99897862801e-07
3.01289969011e-06
9.79168614923e-07
2.4733967281e-06
9.94771910314e-07
1.88764492292e-06
1.17897372957e-06
1.01455195401e-06
1.47949976766e-06
1.98120987792e-06
-1.19473947571e-07
4.05464811642e-07
-1.48122310895e-07
3.49789696526e-07
-3.46588705457e-07
5.23949759125e-07
-6.39773541081e-07
6.21731719955e-07
-8.7611942899e-07
6.02050634923e-07
-9.41745228192e-07
3.39445748011e-07
-9.67841567373e-07
1.58203802447e-07
-1.0877614875e-06
2.83176653963e-07
-1.25583195431e-06
4.23384314095e-07
-1.42279666555e-06
4.3697465563e-07
-1.56791327486e-06
4.21481361252e-07
-1.65804309676e-06
3.9337749255e-07
-1.71416528308e-06
3.34481751193e-07
-1.75174492467e-06
2.59904268015e-07
-1.68228019453e-06
1.04214148481e-07
-1.32104349076e-06
-1.56295359679e-07
-9.47700747619e-07
-2.40816617457e-07
-8.63557306801e-07
-2.20387921144e-07
-8.85540208448e-07
-1.86282433638e-07
-1.0602666562e-06
-1.4756860383e-08
-1.38850429533e-06
1.90134618896e-07
-1.53509584056e-06
2.20971138601e-07
-1.58422732677e-06
2.38794063592e-07
-1.8848366466e-06
3.97273817052e-07
-2.20884139864e-06
4.6797961191e-07
-2.28457321207e-06
4.11482834913e-07
-2.21708618118e-06
2.40361181594e-07
-2.14412446179e-06
1.07716256051e-07
-2.01753062661e-06
-5.81515345006e-08
-1.92197165286e-06
-1.47260986093e-07
-1.80105103591e-06
-2.44788402996e-07
-1.60614981175e-06
-3.27741689238e-07
-1.59594989498e-06
-2.74789199422e-07
-1.36979958645e-06
-5.89024190506e-07
-1.05777950753e-06
-5.42016858479e-07
-1.09906910617e-06
-3.65668584628e-07
-1.01171088595e-06
-5.82688845564e-07
-7.06417089897e-07
-6.38632114128e-07
-4.61662490112e-07
-5.50494831269e-07
2.43781027591e-09
-7.58170794716e-07
1.19937062856e-06
-1.51067710242e-06
3.14638631245e-06
-2.21096515943e-06
5.54690183242e-06
-2.39136044949e-06
7.69830482072e-06
-2.07557315022e-06
9.35018784335e-06
-1.54843618931e-06
1.04586080485e-05
-9.80076051638e-07
1.10192386389e-05
-4.14165039715e-07
1.10784878367e-05
1.25847843965e-07
1.06659245577e-05
6.56132762163e-07
9.77688460245e-06
1.16022164102e-06
8.48169545771e-06
1.58945151021e-06
6.90682336041e-06
1.91126577061e-06
5.45243112088e-06
1.99847084696e-06
3.92090506228e-06
1.5309501961e-06
3.03891409616e-06
3.23868777764e-07
4.51984124042e-06
-1.7923694967e-06
5.68680173873e-06
-3.79220499892e-06
5.27286997368e-06
-2.86735534853e-06
4.01135334457e-06
-5.91082377503e-07
3.02648135041e-06
6.05883665931e-07
2.9472053686e-06
5.08845104171e-07
3.44282195811e-06
-3.09463750037e-07
3.52702756512e-06
-1.36318749892e-06
3.51256310304e-06
-1.09985324871e-06
3.74721429406e-06
-8.39168418667e-07
4.11412447889e-06
-6.99143087188e-07
4.37207134004e-06
-5.8133075783e-07
4.50028840651e-06
-4.50048460136e-07
4.54630703815e-06
-2.34596291015e-07
4.50323357623e-06
6.07254593913e-08
4.42238375912e-06
3.42247741727e-07
4.3835632391e-06
5.35011228689e-07
4.29971169953e-06
7.13716132293e-07
4.04437223597e-06
1.02631779869e-06
3.58592094324e-06
1.36610246802e-06
3.02767770963e-06
1.54652220174e-06
2.46155552553e-06
1.56699278884e-06
1.92599456779e-06
1.72134689627e-06
8.88084343128e-07
2.54515150918e-06
2.86796756391e-06
-7.65459593508e-08
4.87531257787e-07
-6.98298179656e-08
3.46331689156e-07
-3.7530004174e-07
8.36009258909e-07
-5.7071809315e-07
8.23873790412e-07
-4.51900281098e-07
4.87223661078e-07
-2.81156806996e-07
1.70248308784e-07
-3.98478624965e-07
2.77799391202e-07
-7.84026013342e-07
6.73680810319e-07
-1.13643081382e-06
7.81835610257e-07
-1.36407345032e-06
6.70229415454e-07
-1.5386620543e-06
6.01984644983e-07
-1.61642017013e-06
4.76742525485e-07
-1.53159483798e-06
2.54748216126e-07
-1.24023750176e-06
-2.71038811472e-08
-9.28459951681e-07
-2.04554470227e-07
-8.32380598056e-07
-2.5052393826e-07
-8.4089875004e-07
-2.30878523274e-07
-9.4505749454e-07
-1.14446549811e-07
-1.25909389823e-06
1.29962934363e-07
-1.52808383627e-06
2.57403557998e-07
-1.60577578263e-06
2.70925572421e-07
-1.76901124256e-06
3.87066864494e-07
-2.04867059247e-06
5.22061047967e-07
-2.19652176066e-06
5.48340664079e-07
-2.19108653876e-06
4.67321349926e-07
-2.08382198281e-06
3.07777342208e-07
-2.03588076373e-06
1.97107619036e-07
-1.94672196082e-06
2.25355420294e-08
-1.89570943408e-06
-1.05891829717e-07
-1.79644017896e-06
-2.4068943652e-07
-1.69880311666e-06
-3.39943421044e-07
-1.6306996235e-06
-3.87305105091e-07
-1.32562501846e-06
-5.75423806285e-07
-1.31603408179e-06
-5.9432675704e-07
-1.24905991151e-06
-6.13316285593e-07
-9.84241231138e-07
-6.37480177419e-07
-1.00406155578e-06
-5.77619101679e-07
-2.03237279088e-07
-1.48905473369e-06
1.77956837381e-06
-2.56932507143e-06
4.90782240535e-06
-3.89506638099e-06
8.04412737362e-06
-4.63876116306e-06
1.06682948948e-05
-4.82935411533e-06
1.28609454368e-05
-4.58062246422e-06
1.47798228377e-05
-3.99340261554e-06
1.64418390126e-05
-3.20855436864e-06
1.77847438273e-05
-2.3218041365e-06
1.87592344833e-05
-1.38614755902e-06
1.93260277686e-05
-4.38685798122e-07
1.94726788785e-05
5.14512441969e-07
1.92130495783e-05
1.42614023285e-06
1.85721687382e-05
2.2368068461e-06
1.75882552342e-05
2.89929808653e-06
1.62685788126e-05
3.31954578856e-06
1.44311272225e-05
3.36735968955e-06
1.18872683565e-05
2.86995959288e-06
8.77180718335e-06
1.33950928931e-06
5.3236061262e-06
-3.2089654138e-07
2.30933872928e-06
1.6636334646e-07
8.14857612688e-07
9.14040472661e-07
6.08367943561e-07
8.20128594595e-07
1.02724446724e-06
1.21439162175e-07
1.85279781579e-06
-1.09539344925e-06
2.54042333397e-06
-2.01095963243e-06
3.26558395694e-06
-1.7986779489e-06
3.72187205703e-06
-1.28616870487e-06
3.96418926303e-06
-9.3753356126e-07
4.17850680681e-06
-7.92943195774e-07
4.37477832043e-06
-6.43962424131e-07
4.52790010613e-06
-3.85455178702e-07
4.63469571943e-06
-4.34617216954e-08
4.69217286282e-06
2.88633718231e-07
4.62020292542e-06
6.11957281029e-07
4.28585176932e-06
1.05398289291e-06
3.79298876402e-06
1.52588067285e-06
3.27457426703e-06
1.8919716692e-06
2.63692400516e-06
2.1915686262e-06
1.91470144257e-06
2.29906655484e-06
1.33714143233e-06
2.30967803672e-06
6.99837721816e-07
3.17921245125e-06
3.58207055011e-06
7.31287998627e-09
4.81665740283e-07
-7.68115521812e-08
4.33936377461e-07
-3.56652169667e-07
1.12122292015e-06
-3.84410818298e-07
8.5575286747e-07
-2.49395180747e-07
3.54420776832e-07
-2.98120747873e-07
2.20609014753e-07
-5.92138579929e-07
5.75313614259e-07
-9.55440832906e-07
1.04229001977e-06
-1.14872947582e-06
9.80810255223e-07
-1.29660773478e-06
8.23374289036e-07
-1.35794071363e-06
6.68572862179e-07
-1.2122329847e-06
3.3506562216e-07
-9.55114671546e-07
5.43170525459e-10
-8.4435188306e-07
-1.35551111905e-07
-8.69512272377e-07
-1.77470986732e-07
-9.58597310542e-07
-1.59767128092e-07
-1.14916228008e-06
-3.80328259716e-08
-1.47259252598e-06
2.1179664235e-07
-1.59089487009e-06
2.5195025165e-07
-1.53441199457e-06
2.0392751321e-07
-1.69265324003e-06
4.32430104409e-07
-1.94376599406e-06
6.42171208511e-07
-2.08664649668e-06
6.6879896182e-07
-2.06589625114e-06
5.32684226847e-07
-1.99742771502e-06
4.02911550405e-07
-1.99591509383e-06
3.11351331764e-07
-1.87630300054e-06
8.11766841697e-08
-1.81765586844e-06
-3.25946983795e-08
-1.74255000656e-06
-1.75521797502e-07
-1.678398426e-06
-3.0131642789e-07
-1.62630401607e-06
-3.8571392073e-07
-1.53396136518e-06
-4.75207902017e-07
-1.72132032217e-06
-3.83796300635e-07
-1.53380939286e-06
-7.87199031158e-07
-1.39713973472e-06
-7.579891183e-07
-1.14131288289e-06
-9.12062264343e-07
5.15068213985e-07
-2.28530079605e-06
3.4166412994e-06
-4.42760598645e-06
6.92165993352e-06
-6.07890911311e-06
1.01026242813e-05
-7.06323128974e-06
1.29391253059e-05
-7.46076774432e-06
1.54801823063e-05
-7.3604171529e-06
1.77452617396e-05
-6.84108020721e-06
1.97486294844e-05
-5.99533346245e-06
2.14699911241e-05
-4.93018346547e-06
2.28767036728e-05
-3.72875055221e-06
2.39413412293e-05
-2.45048663649e-06
2.46430806754e-05
-1.13811709106e-06
2.49826700072e-05
1.78729617801e-07
2.49621996017e-05
1.45244552084e-06
2.45587121126e-05
2.64699524659e-06
2.37473366836e-05
3.71666248784e-06
2.24367141846e-05
4.63506298021e-06
2.04331039861e-05
5.37513837208e-06
1.74383946747e-05
5.87319196638e-06
1.26660770682e-05
6.12461750552e-06
6.98507729012e-06
5.37090349424e-06
2.79084382433e-06
4.36257608664e-06
6.16618452328e-07
3.08768925774e-06
-2.68242484142e-07
1.70556834617e-06
-2.30065121803e-07
9.29976955303e-08
4.13253745695e-07
-1.6931710712e-06
1.3154532477e-06
-2.86915437962e-06
3.03087340866e-06
-3.49395182565e-06
3.71363024426e-06
-1.95823826493e-06
4.01465199078e-06
-1.23200240984e-06
4.19547059894e-06
-9.71034897754e-07
4.36535795349e-06
-8.12613577399e-07
4.54502765068e-06
-5.63804355261e-07
4.73059834745e-06
-2.26534320677e-07
4.79553115752e-06
2.27454852083e-07
4.54912640995e-06
8.63252444835e-07
4.10912136892e-06
1.49937469751e-06
3.63353750987e-06
2.00749361226e-06
3.07058483924e-06
2.46246593102e-06
2.39138754709e-06
2.87990955176e-06
1.82778575387e-06
2.86693075759e-06
1.23761226733e-06
2.90138525322e-06
5.66122990307e-07
3.87388443331e-06
4.14444512513e-06
5.02129298653e-09
4.79006031714e-07
-1.44191224064e-07
5.85459469901e-07
-2.57849448896e-07
1.2394677689e-06
-2.44686028551e-07
8.45486427373e-07
-1.95160388354e-07
3.06284464005e-07
-3.91955933087e-07
4.19734183297e-07
-8.24740690025e-07
1.0126991805e-06
-1.03479393504e-06
1.25800930295e-06
-1.10876989829e-06
1.05905176261e-06
-1.07442099648e-06
7.94084863934e-07
-9.06806725663e-07
5.04584215459e-07
-7.01168531091e-07
1.31444485581e-07
-6.76000996987e-07
-2.31062838183e-08
-7.42012180185e-07
-6.80398236274e-08
-8.5877405349e-07
-5.90551267662e-08
-1.09075101441e-06
7.46606992434e-08
-1.44464890613e-06
3.1881529609e-07
-1.5051355941e-06
2.75927577344e-07
-1.38322966714e-06
1.32862251884e-07
-1.57544762188e-06
3.99691480015e-07
-1.84063601315e-06
7.02123446813e-07
-1.94850125229e-06
7.54345218828e-07
-1.95193727835e-06
6.77361169914e-07
-1.97168139753e-06
5.56681584329e-07
-1.9699005807e-06
4.06423988725e-07
-1.75861762339e-06
1.03761377684e-07
-1.70103980584e-06
2.7147222663e-08
-1.62607601068e-06
-1.028052803e-07
-1.55844184612e-06
-2.39953367262e-07
-1.47522060289e-06
-3.80231834999e-07
-1.36522770449e-06
-4.91554320625e-07
-1.35893076797e-06
-4.78968627572e-07
-1.24597298613e-06
-4.99398591187e-07
-1.51758271916e-06
-5.22706508546e-07
-1.36839726502e-06
-9.24728278742e-07
5.51208022806e-07
-2.86821148497e-06
3.98186448069e-06
-5.73650602782e-06
7.58628547048e-06
-8.03293024081e-06
1.10147292017e-05
-9.49637551861e-06
1.42387104883e-05
-1.0272025622e-05
1.72187657352e-05
-1.04272830216e-05
1.99175478238e-05
-1.00509063613e-05
2.23180002625e-05
-9.23817292813e-06
2.44119582598e-05
-8.08948151093e-06
2.6185142122e-05
-6.70481197348e-06
2.76225712985e-05
-5.16804560043e-06
2.87148261959e-05
-3.54340458665e-06
2.9456911404e-05
-1.87972988457e-06
2.98510551817e-05
-2.1258993175e-07
2.98946077298e-05
1.41376884528e-06
2.95795838068e-05
2.96848404207e-06
2.8863621708e-05
4.43969352068e-06
2.76427780601e-05
5.86242188331e-06
2.56965810349e-05
7.32733140931e-06
2.25121656085e-05
9.06241864004e-06
1.76215827194e-05
1.10177140732e-05
1.15925552057e-05
1.13970765382e-05
6.05257709489e-06
9.89629386655e-06
1.76311194437e-06
7.36286014925e-06
-1.18342521379e-06
4.63356105104e-06
-2.18152389225e-06
1.1053265471e-06
-1.52429790365e-06
-2.33756765695e-06
5.32651898509e-07
-4.90932574841e-06
2.67056216186e-06
-5.59933981518e-06
3.31215886084e-06
-2.58496880227e-06
3.75077242693e-06
-1.66359298786e-06
4.0949692425e-06
-1.31155778193e-06
4.40107698694e-06
-1.11707238846e-06
4.70694831265e-06
-8.68478669161e-07
4.93196165905e-06
-4.49754475654e-07
4.82841776713e-06
3.34523316978e-07
4.47075238159e-06
1.22546712151e-06
4.06167616468e-06
1.91364638624e-06
3.58913050583e-06
2.48633646657e-06
3.0084569435e-06
3.05034379467e-06
2.41979849958e-06
3.47406322463e-06
1.82235874333e-06
3.47170654538e-06
1.21946099833e-06
3.51607784122e-06
6.05437180949e-07
4.48003196e-06
4.76360652855e-06
-4.90360524844e-08
5.29418374606e-07
-2.94360687831e-07
8.33721117794e-07
-3.6969477682e-07
1.31789430613e-06
-2.45552813387e-07
7.23781378793e-07
-2.70744565756e-07
3.33042320622e-07
-6.37349373541e-07
7.89981149047e-07
-9.46524257539e-07
1.32740043175e-06
-1.01996632502e-06
1.33532245929e-06
-9.3056061809e-07
9.7412629145e-07
-8.80689054818e-07
7.46904783831e-07
-7.48150283448e-07
3.74632136521e-07
-6.60900081462e-07
4.53566674945e-08
-7.05128100076e-07
2.24148982981e-08
-7.83636152863e-07
1.20520618634e-08
-9.69400903035e-07
1.28657209052e-07
-1.32225743767e-06
4.30453207833e-07
-1.37862308671e-06
3.78597391357e-07
-1.23681253968e-06
1.36685031855e-07
-1.40540715314e-06
3.04734669801e-07
-1.70444634812e-06
7.03586160737e-07
-1.89042694648e-06
8.92772313443e-07
-1.91150828329e-06
7.80985042537e-07
-1.87607495528e-06
6.46508428628e-07
-1.74100580998e-06
4.26256143405e-07
-1.55192809903e-06
2.21662744518e-07
-1.50646909513e-06
6.09100032499e-08
-1.39551112004e-06
-8.00842382375e-08
-1.38927679489e-06
-1.06923827294e-07
-1.34047573082e-06
-2.85153323591e-07
-1.27702598462e-06
-4.41954979371e-07
-1.22059220978e-06
-5.45986297824e-07
-1.29332174893e-06
-4.08196316004e-07
-1.33290681694e-06
-4.63970831011e-07
-1.3532043649e-06
-5.13996058674e-07
3.92457214133e-07
-2.6992669988e-06
3.891214021e-06
-6.37640183739e-06
7.65720832631e-06
-9.49429998702e-06
1.13553797301e-05
-1.17179794013e-05
1.4945586996e-05
-1.30731677896e-05
1.83358864352e-05
-1.36503717582e-05
2.14625901899e-05
-1.35452377467e-05
2.42816278027e-05
-1.28651572899e-05
2.67686858287e-05
-1.1724163826e-05
2.89129226288e-05
-1.02350156277e-05
3.07076126993e-05
-8.50220711089e-06
3.21503798819e-05
-6.61347812217e-06
3.32431028571e-05
-4.63822310365e-06
3.39918808824e-05
-2.62873769266e-06
3.44047729035e-05
-6.23755605524e-07
3.44875297989e-05
1.33475314983e-06
3.42650238566e-05
3.19636584838e-06
3.37325541925e-05
4.97882152994e-06
3.28888718898e-05
6.71304148876e-06
3.17642981603e-05
8.45823768704e-06
3.05188152994e-05
1.03126193549e-05
2.92584220679e-05
1.22799994685e-05
2.72332213108e-05
1.34208486686e-05
2.41149863111e-05
1.30097197933e-05
2.01301537311e-05
1.13373215299e-05
1.56804652241e-05
9.07878528277e-06
1.03177459911e-05
6.46417596616e-06
4.63966525441e-06
3.35105166679e-06
1.82896283891e-06
-2.03940856231e-06
1.8915650787e-06
-5.62513348081e-06
2.90728831507e-06
-3.58500273238e-06
3.54254320224e-06
-2.28946807317e-06
4.1496853202e-06
-1.91249590768e-06
4.69743039973e-06
-1.66196366334e-06
5.07993397271e-06
-1.24976988325e-06
5.13986459937e-06
-5.07631459159e-07
4.88914104118e-06
5.88477132313e-07
4.55695532699e-06
1.56158799532e-06
4.16555548176e-06
2.31008042263e-06
3.67328406349e-06
2.98461948929e-06
3.0976047623e-06
3.63228973375e-06
2.59737217758e-06
3.98165826913e-06
1.92121921314e-06
4.15202653991e-06
1.22043217452e-06
4.2154833421e-06
6.84108767781e-07
5.04182048134e-06
5.44231458811e-06
-9.87556419819e-08
6.30399008643e-07
-3.99412589281e-07
1.13715505285e-06
-3.57424039508e-07
1.27880935931e-06
-1.60105593676e-07
5.27662494096e-07
-3.4586147284e-07
5.20898885971e-07
-7.60441377738e-07
1.20889402234e-06
-8.89717403181e-07
1.46075594307e-06
-9.36284615483e-07
1.38631754811e-06
-7.40821017112e-07
7.80693735112e-07
-6.82478224117e-07
6.91330784386e-07
-5.73500731124e-07
2.66611387105e-07
-6.61252755409e-07
1.34172653937e-07
-7.27556791668e-07
9.00104434216e-08
-8.51761864522e-07
1.37654614295e-07
-1.1321042155e-06
4.12098000182e-07
-1.24820354849e-06
5.49806204109e-07
-1.137152387e-06
2.69871683862e-07
-1.25791064461e-06
2.59989438938e-07
-1.53500749231e-06
5.86279256337e-07
-1.73584178668e-06
9.09623684703e-07
-1.79152007786e-06
9.54318465218e-07
-1.79509168753e-06
7.89197730126e-07
-1.81372714319e-06
6.6968921585e-07
-1.80557625849e-06
4.23039123531e-07
-1.64632889255e-06
6.43520821317e-08
-1.55633079534e-06
-2.54560663224e-08
-1.49053747909e-06
-1.43823774547e-07
-1.26819683952e-06
-3.26238787344e-07
-1.27029507805e-06
-2.82397879481e-07
-1.38880038312e-06
-3.21772971176e-07
-1.52082731933e-06
-4.16659229173e-07
-1.36131072702e-06
-5.71368685436e-07
-1.57468968632e-06
-2.5812138783e-07
-2.09083114888e-07
-1.90230682633e-06
3.25463823396e-06
-6.16961985313e-06
7.20206474772e-06
-1.0311320644e-05
1.11941985291e-05
-1.34703553512e-05
1.5115294684e-05
-1.56252638089e-05
1.88848018834e-05
-1.68318834022e-05
2.24197922903e-05
-1.71774208057e-05
2.56537730122e-05
-1.67741918172e-05
2.8543042167e-05
-1.57523737027e-05
3.10657696575e-05
-1.42473869353e-05
3.3216268881e-05
-1.23878081814e-05
3.49977622669e-05
-1.02867502639e-05
3.64185497838e-05
-8.03740379559e-06
3.74907631171e-05
-5.71282813272e-06
3.82287588467e-05
-3.36784344904e-06
3.86484862133e-05
-1.04290979913e-06
3.87616300655e-05
1.22418984265e-06
3.86148784091e-05
3.34734559022e-06
3.82271610982e-05
5.37191288323e-06
3.76380941477e-05
7.3084692493e-06
3.69273652893e-05
9.17526178912e-06
3.62516262091e-05
1.09938353768e-05
3.57896987185e-05
1.27461014384e-05
3.52469382764e-05
1.39676579617e-05
3.41641193129e-05
1.40954313415e-05
3.2329917764e-05
1.3174895112e-05
2.9796930396e-05
1.1612336045e-05
2.65562473731e-05
9.70642381813e-06
2.24096006374e-05
7.50159539824e-06
1.5312317742e-05
5.06733596319e-06
7.62748982729e-06
2.09457660735e-06
3.76057310645e-06
3.13061297765e-07
3.57276482574e-06
-2.08731103339e-06
4.2222658414e-06
-2.55330033785e-06
4.9124215367e-06
-2.34531012353e-06
5.32348661678e-06
-1.65777708656e-06
5.31721760498e-06
-4.99450218308e-07
5.09674418026e-06
8.1107621944e-07
4.79358910879e-06
1.86849660052e-06
4.38274171385e-06
2.72580004848e-06
3.87379834861e-06
3.49906057923e-06
3.34947392884e-06
4.16259696179e-06
2.8044997503e-06
4.53134353613e-06
2.10340869211e-06
4.85912380264e-06
1.26658799028e-06
5.06670114153e-06
6.54879741666e-07
5.64199890133e-06
6.11159588745e-06
-1.45690248381e-07
7.78490667474e-07
-4.45554119563e-07
1.43988339288e-06
-2.83784344846e-07
1.11880305429e-06
-2.5153743639e-07
4.9661290504e-07
-5.72333191173e-07
8.44213057072e-07
-7.38394478199e-07
1.37919994773e-06
-8.30266569476e-07
1.55620106614e-06
-8.1720394734e-07
1.3759842437e-06
-7.36075946254e-07
7.01666286551e-07
-7.0241653901e-07
6.59538405062e-07
-6.54060431117e-07
2.19111660607e-07
-7.13235738733e-07
1.94194155016e-07
-7.95192781739e-07
1.73258413931e-07
-9.82036658029e-07
3.27022647815e-07
-1.30594713306e-06
7.38584767489e-07
-1.28653946888e-06
5.33463306771e-07
-1.22634038207e-06
2.1175398951e-07
-1.36529075676e-06
4.02514086826e-07
-1.59027341948e-06
8.16059344913e-07
-1.68073748335e-06
1.00588793125e-06
-1.6425871968e-06
9.21684880802e-07
-1.52793201969e-06
6.78021842766e-07
-1.4315206469e-06
5.78168707501e-07
-1.36830224367e-06
3.61416703986e-07
-1.38676987736e-06
8.61257830425e-08
-1.36413652502e-06
-4.55836296589e-08
-1.50408881574e-06
-2.17521866946e-09
-1.60287999448e-06
-2.24613881824e-07
-1.63751979695e-06
-2.46138378227e-07
-1.61122999598e-06
-3.4825025441e-07
-1.69485049962e-06
-3.36310802324e-07
-1.94373232465e-06
-3.28387040668e-07
-1.69248427051e-06
-5.21928531727e-07
1.94586075474e-06
-5.54846398295e-06
6.23033697007e-06
-1.04432818184e-05
1.05199902485e-05
-1.45853220901e-05
1.47553037226e-05
-1.76912534027e-05
1.8875763819e-05
-1.97346613635e-05
2.27961768787e-05
-2.07446292734e-05
2.64304470081e-05
-2.08068878145e-05
2.97124482495e-05
-2.00538665209e-05
3.26044027615e-05
-1.864420968e-05
3.50950191572e-05
-1.67394892678e-05
3.71917124389e-05
-1.44871813898e-05
3.89114909759e-05
-1.20096378157e-05
4.02747562279e-05
-9.4040054066e-06
4.13030427779e-05
-6.74372722074e-06
4.20165995485e-05
-4.08320342772e-06
4.24350092249e-05
-1.46133267071e-06
4.25710399296e-05
1.08931424724e-06
4.24820270096e-05
3.43863517252e-06
4.21909275064e-05
5.66611542128e-06
4.17378319251e-05
7.76487493809e-06
4.1194177266e-05
9.72228460013e-06
4.06900614988e-05
1.15011352884e-05
4.04245725834e-05
1.30150365887e-05
4.03965680244e-05
1.3999562711e-05
4.03199881187e-05
1.41773619264e-05
3.98990347807e-05
1.35997602294e-05
3.89399287698e-05
1.25753886032e-05
3.72045314501e-05
1.14381607123e-05
3.42426642347e-05
1.04543626103e-05
2.94066923982e-05
9.90001936678e-06
2.14012301853e-05
1.01215451205e-05
1.13978275156e-05
1.03619882323e-05
4.35068275047e-06
4.98390776895e-06
4.38556936651e-06
-2.57150938625e-06
5.26095072174e-06
-3.21111078653e-06
5.76990580238e-06
-2.15826628901e-06
5.71852363966e-06
-4.4400433418e-07
5.50025577849e-06
1.03305617216e-06
5.16243237885e-06
2.21013843548e-06
4.69272995116e-06
3.20034190465e-06
4.14851746454e-06
4.04871701835e-06
3.62009446087e-06
4.69667394013e-06
2.98927871089e-06
5.16844014091e-06
2.25242753928e-06
5.60146979677e-06
1.33908898956e-06
5.97618163616e-06
6.11362760804e-07
6.39669234932e-06
6.71704489603e-06
-2.14875801885e-07
9.9601511607e-07
-4.82612071629e-07
1.71133591525e-06
-2.81045551817e-07
9.18874963774e-07
-3.37834311268e-07
5.54779311427e-07
-6.57624070788e-07
1.16687338921e-06
-5.94118973209e-07
1.31787112044e-06
-7.38444316456e-07
1.70433444011e-06
-5.9971992179e-07
1.23901276351e-06
-6.35405458015e-07
7.39043117176e-07
-5.75066019346e-07
6.00170956157e-07
-6.52469526165e-07
2.97148131438e-07
-7.4035147824e-07
2.83279869307e-07
-8.4135771723e-07
2.7567544467e-07
-1.05800602381e-06
5.45831498604e-07
-1.17810429563e-06
8.62380224967e-07
-1.0631657655e-06
4.20139480516e-07
-1.18327184544e-06
3.34311171206e-07
-1.373659927e-06
5.96457391971e-07
-1.56478806307e-06
1.01238599099e-06
-1.67365797086e-06
1.12051053688e-06
-1.61521360772e-06
8.66721120529e-07
-1.60290943624e-06
6.71809923445e-07
-1.53066706679e-06
5.07864998834e-07
-1.42729832559e-06
2.61398108185e-07
-1.54974286736e-06
2.1085078713e-07
-1.49244153764e-06
-1.02083756058e-07
-1.2314533221e-06
-2.59406900599e-07
-1.20814894048e-06
-2.46242004393e-07
-1.16958707492e-06
-2.82579830835e-07
-1.40110633414e-06
-1.17524542745e-07
-1.47430913132e-06
-2.6533583138e-07
-1.67350933562e-06
-1.32356430969e-07
9.5563398901e-07
-3.15563011623e-06
5.02805952467e-06
-9.61425450552e-06
9.42104648201e-06
-1.48233637171e-05
1.38855500393e-05
-1.90364200576e-05
1.8310654614e-05
-2.21053047151e-05
2.25869526151e-05
-2.4003025662e-05
2.66018463863e-05
-2.47544184565e-05
3.02583559432e-05
-2.44606276197e-05
3.34933164809e-05
-2.32879657261e-05
3.62831966728e-05
-2.14345320415e-05
3.86376323602e-05
-1.90957591092e-05
4.05879859764e-05
-1.64396302983e-05
4.21715789154e-05
-1.35962419927e-05
4.3425152873e-05
-1.06603609766e-05
4.43793577551e-05
-7.70082763916e-06
4.50584467378e-05
-4.76390276185e-06
4.54795280041e-05
-1.88339593806e-06
4.56526749585e-05
9.16311468026e-07
4.56262810587e-05
3.46582169524e-06
4.54201450047e-05
5.87298350547e-06
4.50661455919e-05
8.11971892648e-06
4.46193554365e-05
1.01694218052e-05
4.41792112673e-05
1.19411926804e-05
4.39000498199e-05
1.3294893527e-05
4.38724024567e-05
1.40294974906e-05
4.4035057785e-05
1.40179032459e-05
4.42635543625e-05
1.33749776859e-05
4.44051658029e-05
1.24358585009e-05
4.42174386519e-05
1.16250329572e-05
4.32943101042e-05
1.13695706271e-05
4.11355016359e-05
1.20504501871e-05
3.72281286263e-05
1.40339240596e-05
3.0446393911e-05
1.7165741741e-05
1.7796232427e-05
1.76775325872e-05
7.27859325406e-06
7.97638143279e-06
5.79690179544e-06
-1.7073643845e-06
6.34099178232e-06
-2.69335965093e-06
6.29632236114e-06
-3.92920228976e-07
6.04455576305e-06
1.28873294434e-06
5.60842577275e-06
2.65005024868e-06
5.0617025584e-06
3.75069735438e-06
4.4672383072e-06
4.64762276977e-06
3.8483597222e-06
5.32038996408e-06
3.13360813664e-06
5.88824242627e-06
2.33709280799e-06
6.40265058985e-06
1.47022085505e-06
6.85924383896e-06