/*--------------------------------*- C++ -*----------------------------------*\
| =========                 |                                                 |
| \\      /  F ield         | OpenFOAM: The Open Source CFD Toolbox           |
|  \\    /   O peration     | Version:  v1806                                 |
|   \\  /    A nd           | Web:      www.OpenFOAM.com                      |
|    \\/     M anipulation  |                                                 |
\*---------------------------------------------------------------------------*/
FoamFile
{
    version     2.0;
    format      ascii;
    class       volVectorField;
    location    "496";
    object      U;
}
// * * * * * * * * * * * * * * * * * * * * * * * * * * * * * * * * * * * * * //

dimensions      [0 1 -1 0 0 0 0];


internalField   nonuniform List<vector> 
6400
(
(-9.36233473044e-05 -0.000124310768947 0)
(-0.000252226343363 -9.34429717635e-05 0)
(-0.000367730356839 -7.46922163e-05 0)
(-0.000494507862879 -6.53094096715e-05 0)
(-0.000586018707243 -4.03116752281e-05 0)
(-0.000651377093388 -2.09510371645e-05 0)
(-0.00068431355347 -1.38008414387e-05 0)
(-0.000710135675764 -2.37709040263e-05 0)
(-0.000790141961978 -3.51581841477e-05 0)
(-0.000870243145937 -3.2917758083e-05 0)
(-0.000901618921477 -2.93524771839e-05 0)
(-0.000974661001638 -3.1688617921e-05 0)
(-0.00103948054447 -2.83241821535e-05 0)
(-0.00109124858427 -2.23361347221e-05 0)
(-0.00112817723623 -1.95514959873e-05 0)
(-0.00116712980923 -2.24304402428e-05 0)
(-0.00121685247922 -2.31458002909e-05 0)
(-0.00125858197101 -1.95767284373e-05 0)
(-0.00128735213354 -1.44090470242e-05 0)
(-0.00131297233141 -1.17711123184e-05 0)
(-0.00134765374201 -1.70020712832e-05 0)
(-0.0013925052879 -2.29800275517e-05 0)
(-0.00144113092455 -2.42883919681e-05 0)
(-0.00148499294179 -2.354718933e-05 0)
(-0.0015260318939 -2.13320739417e-05 0)
(-0.00156477641039 -1.85284405061e-05 0)
(-0.0016030856747 -1.72696430461e-05 0)
(-0.00163773417931 -1.54979990348e-05 0)
(-0.00166614119023 -1.2944435427e-05 0)
(-0.00168908814562 -1.09084798066e-05 0)
(-0.00170687259491 -1.04415233972e-05 0)
(-0.00172559365722 -9.37712488168e-06 0)
(-0.00174420231966 -7.19560063376e-06 0)
(-0.00175825978851 -6.92040835264e-06 0)
(-0.00177061697662 -6.47400270825e-06 0)
(-0.00178846241386 -5.90903415561e-06 0)
(-0.00180288509279 -6.33176822321e-06 0)
(-0.00180317063788 -5.31357276472e-06 0)
(-0.00181412673716 -3.1537145013e-06 0)
(-0.00183102992716 -2.27422391319e-06 0)
(-0.00183964399436 -5.29217832738e-06 0)
(-0.00183795579466 -4.95543791315e-06 0)
(-0.00183312203361 2.38964883285e-06 0)
(-0.00182437051355 7.67998362948e-06 0)
(-0.00180863505289 1.03317209945e-05 0)
(-0.00178755136342 1.32941174458e-05 0)
(-0.00176041422964 1.63574611048e-05 0)
(-0.00172586714536 2.01309953577e-05 0)
(-0.00168400058025 2.37258569486e-05 0)
(-0.00163489188706 2.44570737159e-05 0)
(-0.00158260526979 2.25070566863e-05 0)
(-0.00153604928682 2.60450859334e-05 0)
(-0.00147173365625 4.01153075689e-05 0)
(-0.00139512271284 4.83116079342e-05 0)
(-0.00129703966172 5.49156472438e-05 0)
(-0.00116634248592 6.48357038822e-05 0)
(-0.00103011381869 6.47073071886e-05 0)
(-0.000907743614654 6.34959355577e-05 0)
(-0.000782515475982 7.19661102742e-05 0)
(-0.00061510985694 7.69337093054e-05 0)
(-0.00045175611828 7.81393252166e-05 0)
(-0.00027917097641 9.29924413527e-05 0)
(-7.41928375691e-05 0.000123767505653 0)
(0.000175501698341 8.65351824858e-05 0)
(0.000278919260972 4.42901524975e-05 0)
(0.000333764680405 2.67612903311e-05 0)
(0.000370534509999 1.52256878948e-05 0)
(0.000399229280259 7.78147815618e-06 0)
(0.000418724937842 1.67408780586e-06 0)
(0.000417706560824 -5.10669073349e-06 0)
(0.000403500406206 -1.12738025667e-05 0)
(0.000370192966022 -1.62171821063e-05 0)
(0.000327383628274 -2.09035705904e-05 0)
(0.000295988742312 -2.66335785977e-05 0)
(0.000225607113168 -2.32549960844e-05 0)
(0.000198261712311 -2.1584673666e-05 0)
(0.000131589698681 -1.37249609035e-05 0)
(0.000135767438441 -1.94056900906e-05 0)
(5.85098720386e-05 -1.39477206073e-05 0)
(4.35091349435e-05 -2.60212921442e-05 0)
(-3.50965087212e-05 -0.00017384631583 0)
(-0.000149535166997 -0.000194544241234 0)
(-0.000260745029817 -0.000175735555728 0)
(-0.000332115492308 -0.00014050288124 0)
(-0.000481368778993 -0.000137363748452 0)
(-0.000617814360661 -9.68879553996e-05 0)
(-0.0006970584909 -6.08085478643e-05 0)
(-0.000750725357457 -7.84827942412e-05 0)
(-0.00080777208687 -0.000101659358698 0)
(-0.000871723274395 -9.89795936119e-05 0)
(-0.000932286141958 -9.2076984091e-05 0)
(-0.000987596474534 -8.96038178552e-05 0)
(-0.00103889977144 -7.93884698505e-05 0)
(-0.0010847981727 -6.63154326687e-05 0)
(-0.00112993276724 -6.03541435397e-05 0)
(-0.00117337744801 -7.16585585049e-05 0)
(-0.00121771321915 -7.52007561666e-05 0)
(-0.00125285779141 -5.21071307664e-05 0)
(-0.00124977625859 -3.52508013525e-05 0)
(-0.00128324375865 -3.61039970552e-05 0)
(-0.00133001958434 -5.35439830653e-05 0)
(-0.00138292893749 -7.47418091407e-05 0)
(-0.00144233361698 -7.8205866103e-05 0)
(-0.00149148050551 -6.88392539606e-05 0)
(-0.00151965618791 -6.15567411005e-05 0)
(-0.00156510168982 -5.783305772e-05 0)
(-0.00160635062715 -5.25897311077e-05 0)
(-0.0016381456016 -4.55790721823e-05 0)
(-0.00166510856148 -3.86594908119e-05 0)
(-0.00168902439278 -3.30686359034e-05 0)
(-0.00170921194111 -3.02228754535e-05 0)
(-0.00172011503832 -2.64737156743e-05 0)
(-0.00173835641072 -1.97302389924e-05 0)
(-0.00175075996882 -2.00429611126e-05 0)
(-0.00175955119584 -2.19743873842e-05 0)
(-0.00178681816404 -1.76701281519e-05 0)
(-0.00179580754115 -1.7912014945e-05 0)
(-0.0017968909256 -1.89211308762e-05 0)
(-0.0018143380141 -1.47537432099e-05 0)
(-0.00184261630083 -8.26687733964e-06 0)
(-0.00185349275426 1.18067420759e-06 0)
(-0.00179460764106 9.84528818284e-06 0)
(-0.00176297073504 1.5205989489e-05 0)
(-0.00176011164915 1.9545868833e-05 0)
(-0.00174858700023 2.46192112878e-05 0)
(-0.00173740548873 3.14457509378e-05 0)
(-0.00172327740286 4.04440846986e-05 0)
(-0.00169805633951 5.10070337002e-05 0)
(-0.00167149581087 6.26304526647e-05 0)
(-0.00163397220744 7.36282152455e-05 0)
(-0.0015756064879 8.197205232e-05 0)
(-0.00148766699472 8.95331460865e-05 0)
(-0.00140332960329 0.000101049036193 0)
(-0.00139473796529 0.000127869657305 0)
(-0.0012860411515 0.000157460639105 0)
(-0.00117352378859 0.000179006472478 0)
(-0.00108212597997 0.000191477875152 0)
(-0.000956409698334 0.000202436543564 0)
(-0.000810814549311 0.00022479808806 0)
(-0.000654408570652 0.000252176462895 0)
(-0.000483079005914 0.000280611476131 0)
(-0.000248473107327 0.000278920827379 0)
(-4.6790738189e-05 0.000357309877512 0)
(0.000178431563153 0.000265500480842 0)
(0.000283832235798 0.000141353186328 0)
(0.000322489589209 7.09201846988e-05 0)
(0.000350658220637 4.36279696258e-05 0)
(0.000396729652079 2.95086228787e-05 0)
(0.000417566487755 8.84094688468e-06 0)
(0.000423339129272 -1.57269737685e-05 0)
(0.000402338387377 -3.87298539369e-05 0)
(0.000363810657011 -5.4585106463e-05 0)
(0.000311307308833 -5.87086372358e-05 0)
(0.000286842214694 -6.5543877521e-05 0)
(0.000248123899394 -6.62154845326e-05 0)
(0.000211257824152 -6.3362690971e-05 0)
(0.000172375161919 -5.54321822851e-05 0)
(0.0001359659931 -5.84025879373e-05 0)
(8.40168699772e-05 -6.28145408218e-05 0)
(3.87417444149e-05 -0.000102325225495 0)
(-5.24701002511e-05 -0.000300276436033 0)
(-0.000144804536401 -0.000325942407316 0)
(-0.000223435442864 -0.00030176743752 -9.50829602775e-29)
(-0.000379016715938 -0.000304510203562 8.90587002094e-29)
(-0.000523651447864 -0.000299233627329 7.92149497492e-29)
(-0.000613288544866 -0.000239766124163 -7.2452637124e-29)
(-0.00067629170476 -0.000127437933012 7.30244421411e-29)
(-0.000732383105421 -0.000135160665923 -7.13041817794e-29)
(-0.000792248988235 -0.000164725728387 0)
(-0.000860407047351 -0.000167105463487 0)
(-0.000926984167818 -0.000155976465258 0)
(-0.000985051190643 -0.000142089729968 0)
(-0.00103642160866 -0.00012538611044 0)
(-0.00108098976613 -0.00011298606905 0)
(-0.00112620050007 -0.000105351733935 0)
(-0.00116924853913 -9.20049752697e-05 0)
(-0.00107937543989 -6.67289094919e-05 0)
(-0.00105290034 -5.15235137983e-05 0)
(-0.0010902439074 -6.19289868207e-05 0)
(-0.00116699453903 -9.72568154865e-05 0)
(-0.00132016502278 -0.000133116669963 0)
(-0.00140130667297 -0.000140158282068 0)
(-0.00143049416961 -0.000128449940706 0)
(-0.00148001392517 -0.000114579722712 0)
(-0.00153035745295 -0.000104757292105 0)
(-0.00156858465371 -9.70964429102e-05 0)
(-0.00160284835124 -8.62525448923e-05 0)
(-0.00163507256408 -7.46028045594e-05 0)
(-0.00166276191892 -6.40472692223e-05 0)
(-0.00168497775876 -5.55354874985e-05 -1.40292823053e-28)
(-0.00170821426078 -4.78745875334e-05 1.35977229337e-28)
(-0.00171268420449 -4.10481375112e-05 0)
(-0.00172748515489 -3.31597757171e-05 0)
(-0.00175680333332 -2.70372112546e-05 0)
(-0.00173545541049 -3.37313766541e-05 0)
(-0.00176348085268 -3.65620964391e-05 0)
(-0.00180280185467 -2.97182346394e-05 0)
(-0.00178351730015 -3.08996993892e-05 0)
(-0.00180645470245 -3.40051937052e-05 0)
(-0.00184074293161 -2.16732575468e-05 0)
(-0.00185448334615 6.70452693152e-06 0)
(-0.00184954898515 2.75911745665e-05 0)
(-0.00184075518241 3.06852659959e-05 0)
(-0.00183047831396 3.2802023147e-05 0)
(-0.00181486795518 4.01284431185e-05 0)
(-0.0017937323181 5.07127870334e-05 0)
(-0.00176727595326 6.49715947456e-05 0)
(-0.0017352047072 8.14234374432e-05 0)
(-0.00169739673216 0.000100070319953 0)
(-0.00165319878541 0.000122165542223 0)
(-0.00160186433611 0.0001453453879 0)
(-0.00154228872705 0.000163546470516 0)
(-0.00147262670698 0.000176550680894 0)
(-0.00138165045771 0.000207934902289 0)
(-0.00127345679417 0.000248922185368 0)
(-0.00118355458628 0.00028144295598 0)
(-0.00107297260901 0.000310377948061 0)
(-0.000936140590606 0.000343622735987 0)
(-0.000780233207765 0.00038237855649 0)
(-0.000607828271851 0.000426700910733 0)
(-0.000417553565919 0.000475204526113 0)
(-0.000215725324889 0.000531431189901 0)
(-9.18917490531e-06 0.000575879156807 0)
(0.000157224284353 0.000396634511098 0)
(0.000247854942503 0.000207930924512 0)
(0.000321754621346 0.000125021586518 0)
(0.000377287848399 8.34916492129e-05 0)
(0.000403107868389 4.97156382959e-05 0)
(0.000413856167786 1.08353918237e-05 0)
(0.000407447267513 -3.07961582121e-05 0)
(0.000381354764359 -6.44964625529e-05 0)
(0.000348939541065 -8.32074984096e-05 0)
(0.000327053066495 -9.27899525445e-05 0)
(0.000298673401693 -0.000103997994975 0)
(0.000254319409922 -0.000110650770597 0)
(0.000207267334803 -0.000106502555272 0)
(0.000162815100489 -9.80379890495e-05 0)
(0.000124966475917 -0.000107523343797 0)
(8.61034051247e-05 -0.000141383270084 0)
(2.22858060918e-05 -0.000141423068719 0)
(-5.27372108438e-05 -0.000447388734338 0)
(-6.93449855e-05 -0.000303924569257 0)
(-0.000183384018106 -0.000455280708366 0)
(-0.000329636690465 -0.000453279812729 0)
(-0.000454184921205 -0.000383670554954 0)
(-0.000266333092358 -0.000150590941862 0)
(-0.000335325475525 -0.000150932794607 0)
(-0.000617423798515 -0.000266406732824 0)
(-0.000748215959708 -0.000274940705002 0)
(-0.00083492504866 -0.000248456435193 0)
(-0.000914243528645 -0.000226508794505 0)
(-0.000979972649119 -0.000201371206742 0)
(-0.00103472382294 -0.000175284896608 0)
(-0.00107122789297 -0.00013851207707 0)
(-0.00102283611302 -9.06873688663e-05 0)
(-0.000976908109499 -5.91641590488e-05 0)
(-0.000980764530684 -5.69321826657e-05 0)
(-0.00104335187432 -9.43126911499e-05 0)
(-0.00117784621531 -0.000154746508452 0)
(-0.00130302609016 -0.000208977351213 0)
(-0.00134593142493 -0.000215373813602 0)
(-0.00139164026284 -0.000195334762302 0)
(-0.0014427391618 -0.000176908393077 0)
(-0.00148751722409 -0.000162382513414 0)
(-0.00152754164293 -0.000147423283746 0)
(-0.00156377283365 -0.000132559180707 0)
(-0.00159662418875 -0.00011838034788 0)
(-0.00163201444044 -0.000103890298253 0)
(-0.00165608373201 -8.95995804527e-05 0)
(-0.0016857295017 -7.70710738838e-05 0)
(-0.00169411731639 -6.561571984e-05 0)
(-0.00171979310108 -5.35392443375e-05 0)
(-0.00170862257209 -4.0430288965e-05 0)
(-0.00172756983842 -3.872430421e-05 0)
(-0.00176921607727 -4.64490969048e-05 0)
(-0.00175469985261 -5.49941765662e-05 0)
(-0.00179232462623 -5.41884619326e-05 0)
(-0.00183057653967 -5.13016857072e-05 0)
(-0.00184239020061 -4.94296300922e-05 0)
(-0.00184917379911 -3.14660735543e-05 0)
(-0.00185388760424 -7.36664058483e-07 0)
(-0.0018527457602 2.46071261484e-05 0)
(-0.00184690470547 3.76219999942e-05 0)
(-0.00183692418846 4.70736018247e-05 0)
(-0.00182150180314 5.93419710944e-05 0)
(-0.00180063265145 7.52088246302e-05 1.26362029723e-28)
(-0.00177442650302 9.44967803007e-05 -1.27313519739e-28)
(-0.00174262190323 0.00011662338016 0)
(-0.00170488077549 0.000141598804736 0)
(-0.00166054174001 0.000169387082808 0)
(-0.00160847276291 0.00019834277752 0)
(-0.00154665111288 0.000227197081587 0)
(-0.00147283036781 0.000260372771085 0)
(-0.00138516383573 0.000303924338275 0)
(-0.00128674319009 0.000348673357718 0)
(-0.00117886730424 0.000392678909366 0)
(-0.00105361583533 0.000443466300756 0)
(-0.000904997228951 0.000499877648569 2.52442813643e-28)
(-0.000733201895409 0.000561056212206 -2.95135319461e-28)
(-0.000540699344147 0.000625577136302 0)
(-0.000333962926473 0.000684412952468 0)
(-0.000131250659246 0.000719704580182 0)
(2.51345973269e-05 0.000684888434099 0)
(0.000156320844473 0.000528604463907 0)
(0.000287305596298 0.000329043545462 0)
(0.000344891081971 0.000185271498953 0)
(0.000384155232246 0.000113934888278 0)
(0.000411812258979 6.27274104403e-05 0)
(0.000421858193029 8.87138195694e-06 0)
(0.000422381651072 -4.76086879378e-05 0)
(0.00040398217657 -9.19825404302e-05 0)
(0.000374188775664 -0.000116940500838 0)
(0.00033193480641 -0.000134665282456 0)
(0.000268784304887 -0.000144898844885 0)
(0.000220564838674 -0.000152320168354 0)
(0.000176772040226 -0.00015569587178 0)
(0.000128738886202 -0.000146000344742 0)
(7.55160519865e-05 -0.000122997945123 0)
(5.49446145083e-05 -0.00015937519381 0)
(1.85286552522e-05 -0.000185377131605 0)
(-6.36187853116e-06 -0.00044967283676 0)
(-3.61807207186e-05 -0.000370185073225 0)
(-0.000165644487391 -0.000595580416212 0)
(-0.000281930169049 -0.000549424189313 0)
(-0.000307510234166 -0.000362843322463 0)
(-0.000246064422508 -0.000202097247137 0)
(-0.00041621954574 -0.00032620299654 0)
(-0.00062085260784 -0.000443410733259 0)
(-0.000703541994786 -0.000392384220663 0)
(-0.000802114761246 -0.000341128300149 0)
(-0.000888726315979 -0.000310913745502 0)
(-0.000961461989883 -0.000269394199024 0)
(-0.000974205153627 -0.00018882553999 0)
(-0.000903577238094 -0.000106258712786 0)
(-0.000922866838264 -7.61960605811e-05 0)
(-0.000978632208837 -8.80454031846e-05 0)
(-0.00107321411997 -0.000135733888478 0)
(-0.00118791439246 -0.000205270341583 0)
(-0.00126786720817 -0.000253557051867 0)
(-0.00129316574878 -0.000259328005076 0)
(-0.00133895488262 -0.000255979601414 0)
(-0.00139469268124 -0.000246204735707 0)
(-0.0014409003693 -0.000226773524228 0)
(-0.00148409602926 -0.000205294804008 0)
(-0.00152281185429 -0.000185405281446 0)
(-0.00155685390163 -0.000168207371319 0)
(-0.00159523438146 -0.000150888572484 0)
(-0.00161879953674 -0.000132827297455 0)
(-0.00165758210408 -0.000115121020947 0)
(-0.00166468273892 -9.69410100489e-05 0)
(-0.0017022539486 -8.1156607753e-05 -1.34389877891e-28)
(-0.00167486471938 -6.50500406066e-05 1.26995581993e-28)
(-0.00171899993049 -5.7617739761e-05 0)
(-0.00175618863386 -5.57611327831e-05 0)
(-0.00174993333512 -6.47890344234e-05 0)
(-0.00179725088152 -7.97022841484e-05 0)
(-0.00182178360456 -8.48336304628e-05 0)
(-0.0018386728132 -7.38310961683e-05 0)
(-0.0018489238016 -5.65376347086e-05 0)
(-0.00185500196766 -3.30982846046e-05 0)
(-0.0018591470766 -3.44999926101e-06 0)
(-0.0018595273552 2.38350618935e-05 0)
(-0.00185513687794 4.36084467342e-05 0)
(-0.00184571065705 5.99994538988e-05 0)
(-0.0018307769075 7.78971709865e-05 0)
(-0.00181043149095 9.9004411191e-05 0)
(-0.00178469131187 0.000123569438006 0)
(-0.00175325435237 0.000151443506494 0)
(-0.00171559670958 0.000182731616375 0)
(-0.00167088440066 0.00021748886615 0)
(-0.001617798837 0.000255244318439 0)
(-0.00155434590614 0.00029622856263 0)
(-0.00147848654404 0.000342805347385 0)
(-0.00138901676823 0.000396298512124 0)
(-0.00128640831689 0.000453951335145 0)
(-0.00116886280809 0.000517926826896 0)
(-0.00102995387312 0.000591899753426 0)
(-0.000864652472096 0.000674050246542 0)
(-0.000673123955266 0.000759492997458 0)
(-0.000462093895034 0.000838192365047 0)
(-0.00024800323851 0.000890162677928 0)
(-5.7817494037e-05 0.000889048478717 0)
(7.32255107769e-05 0.000800568244383 0)
(0.00020472484157 0.000665015328735 0)
(0.000344993696426 0.000452897744717 0)
(0.000401347432882 0.000249029430813 0)
(0.000431072064041 0.000141341948882 0)
(0.000442863630684 7.11645052951e-05 0)
(0.000442117824481 5.2362466395e-06 0)
(0.000437063621465 -6.1323580588e-05 0)
(0.00042183555267 -0.000121097002213 0)
(0.000376823903065 -0.000165108709678 0)
(0.000300439095073 -0.000184889877808 0)
(0.000244748695257 -0.00019786035425 0)
(0.000195026281553 -0.000206922253403 0)
(0.000146741928948 -0.000207482383428 0)
(9.93789005763e-05 -0.000179124414547 0)
(6.43688668767e-05 -0.000158906926417 0)
(4.17164453524e-05 -0.000200639667569 0)
(1.10781153232e-05 -0.000209401702394 0)
(3.68562971939e-07 -0.000421123934094 0)
(-4.38716350045e-05 -0.000450043167438 0)
(-0.000166688554541 -0.000680658820907 0)
(-0.00023546965321 -0.000569903465832 0)
(-0.000181525427317 -0.000286477894487 0)
(-0.000248921790102 -0.000291959935099 0)
(-0.000512313454899 -0.000525764586409 0)
(-0.00059571359262 -0.000539640027566 0)
(-0.00067220610047 -0.000485503337231 0)
(-0.000762751543121 -0.000436538101672 0)
(-0.000850232102134 -0.000374928928188 0)
(-0.00080493894314 -0.000257765976053 0)
(-0.00074233049146 -0.000147255551075 0)
(-0.000799824225385 -0.000120106064585 0)
(-0.000872171390271 -0.000137868132597 0)
(-0.00100229597006 -0.000192498740532 0)
(-0.0011319256385 -0.000253110905186 0)
(-0.0012153693012 -0.000284176062083 0)
(-0.00122843563176 -0.000284021656634 0)
(-0.00128224757398 -0.000299007660748 0)
(-0.00134493140564 -0.000309178587554 0)
(-0.00139137420645 -0.00029579476885 0)
(-0.00143507109511 -0.000272501642087 0)
(-0.00147562892875 -0.00024808174475 0)
(-0.00152020697055 -0.000225171394003 0)
(-0.00155448847837 -0.000200694188288 0)
(-0.00156956876553 -0.000181143161333 0)
(-0.00162375148682 -0.000163094419694 0)
(-0.0016207362575 -0.000137285314529 0)
(-0.0016772473223 -0.000113549645205 0)
(-0.00163235421992 -8.88237004571e-05 0)
(-0.00169820783779 -8.40747761359e-05 0)
(-0.00166502496074 -7.97707782202e-05 0)
(-0.0017322268244 -8.53136101804e-05 0)
(-0.00179071576317 -9.96572289203e-05 0)
(-0.00181701407581 -0.000111256801268 0)
(-0.00183338460453 -0.000103986751396 0)
(-0.00184629330905 -8.62965917241e-05 0)
(-0.0018558125477 -6.38085728292e-05 0)
(-0.00186265752733 -3.70386469862e-05 0)
(-0.00186715613825 -6.50692168381e-06 0)
(-0.00186832943783 2.32305915563e-05 0)
(-0.00186497923899 4.87315085594e-05 0)
(-0.00185635862029 7.17233276889e-05 0)
(-0.00184223904322 9.55521601425e-05 0)
(-0.0018226632891 0.000122133771985 0)
(-0.00179761833599 0.000152181247631 0)
(-0.00176669568645 0.000185981811675 0)
(-0.00172917693017 0.000223902072076 0)
(-0.00168409214271 0.000266330624192 0)
(-0.0016300571929 0.000313591072174 0)
(-0.00156516692292 0.000366451806375 0)
(-0.00148742253699 0.000426264661651 0)
(-0.00139515025025 0.00049367384302 0)
(-0.00128659866117 0.000569215117758 0)
(-0.00115789023227 0.000656396182588 0)
(-0.00100314879311 0.000757249863627 0)
(-0.000819316032119 0.000866929893329 0)
(-0.000610140003275 0.000973537452282 0)
(-0.000387253630367 0.00105537783181 0)
(-0.000173083492771 0.00108543400856 0)
(7.48709798969e-06 0.00103293311166 0)
(0.000137905058968 0.000877920380313 0)
(0.00029100649663 0.00081416066998 0)
(0.000387460680055 0.000537282609385 0)
(0.000434230715084 0.000295917963525 0)
(0.000471621129843 0.000159054104993 0)
(0.000484036365373 7.14117038306e-05 0)
(0.000475986326814 -3.60600224675e-06 0)
(0.000473072298444 -8.40697202555e-05 0)
(0.000443673971282 -0.000171493209292 0)
(0.000357497958979 -0.000223440272289 0)
(0.000281991482774 -0.000244717974048 0)
(0.000225190638584 -0.00025925855007 0)
(0.00016648909096 -0.000262283675175 0)
(0.000122279308464 -0.000252180192126 0)
(8.13619209616e-05 -0.000205158560131 0)
(5.36984530673e-05 -0.000187563428915 0)
(3.36563813546e-05 -0.000227089366536 0)
(9.94263172153e-06 -0.00022902890238 0)
(-1.57034627409e-05 -0.000457969857989 0)
(-9.70289642601e-05 -0.00058480611706 0)
(-0.000214666030615 -0.000743101060401 0)
(-0.000245792988445 -0.000692307318819 0)
(-0.000172685121876 -0.000360858995374 0)
(-0.000354319827747 -0.000512192328694 0)
(-0.000523756543093 -0.000641759968934 0)
(-0.00057296548127 -0.000610049322082 0)
(-0.000646927861078 -0.000559279833916 0)
(-0.000698617180578 -0.000504590726234 0)
(-0.000814417921716 -0.000416622649478 3.33707155675e-28)
(-0.000648495705998 -0.000209241296441 -2.04678815824e-28)
(-0.00073677513809 -0.000181919233235 0)
(-0.000784902977378 -0.00019169324034 0)
(-0.000906081914868 -0.000249546363876 0)
(-0.00105450622893 -0.000327150975044 0)
(-0.00114669873975 -0.000346686488908 0)
(-0.00114409594354 -0.00031585466362 0)
(-0.00120859713745 -0.000329219382308 0)
(-0.00128928957001 -0.000360275902023 0)
(-0.00133552454282 -0.000361215863494 0)
(-0.00138393989109 -0.00034278017011 0)
(-0.00143011060399 -0.000317906458835 0)
(-0.00147301577625 -0.000289535989749 0)
(-0.00150397563133 -0.000258370053505 0)
(-0.00152535322294 -0.000228047888972 0)
(-0.0015771426417 -0.000209093664868 0)
(-0.00156161756876 -0.000187831191915 0)
(-0.00163915313462 -0.000161377578358 0)
(-0.00158671171878 -0.000116878480204 0)
(-0.00166486358304 -0.00010745201586 0)
(-0.00163664234164 -0.000107441286853 1.23978758734e-28)
(-0.00170617264372 -0.0001124800101 -1.27790550851e-28)
(-0.00174148184227 -0.000131985627807 0)
(-0.00180753890199 -0.000144619170498 0)
(-0.0018288050341 -0.000136357721973 0)
(-0.00184192329926 -0.000119068016747 0)
(-0.00185382279601 -9.7183642963e-05 0)
(-0.00186429447591 -7.15838492207e-05 0)
(-0.00187228418403 -4.22988992696e-05 0)
(-0.00187739849765 -9.99461807192e-06 0)
(-0.00187926895845 2.26105854852e-05 0)
(-0.00187680912496 5.31988932616e-05 0)
(-0.00186913661625 8.23160942784e-05 0)
(-0.00185600530114 0.000112105018592 0)
(-0.0018374278281 0.000144352047999 0)
(-0.00181327363909 0.000180118294277 0)
(-0.00178299080994 0.000220120639254 0)
(-0.0017457371358 0.000265064929369 0)
(-0.00170049371235 0.000315725453998 0)
(-0.00164587051664 0.000372978270765 0)
(-0.00157995457707 0.000437946860966 0)
(-0.00150048306072 0.000511961625348 0)
(-0.00140482568613 0.000596525386181 0)
(-0.00128942389535 0.000694297308121 0)
(-0.00114918730812 0.000808869015752 0)
(-0.000979087389915 0.000939349099029 0)
(-0.000778544986959 0.00107522624243 0)
(-0.000554440147102 0.00119659598675 0)
(-0.000320835784744 0.00127648081289 0)
(-9.81343978327e-05 0.00128125447684 0)
(8.99355970643e-05 0.00119454341943 0)
(0.000250669225854 0.00106954120064 0)
(0.000372328083052 0.000897047530868 0)
(0.00045140738177 0.000603214451783 0)
(0.00047750509994 0.000336670108901 0)
(0.000537899082714 0.000190323817043 0)
(0.000561142301548 7.76345345981e-05 0)
(0.000550648873975 -2.1724300282e-05 0)
(0.000523700195568 -0.000132214722472 0)
(0.000451795277372 -0.000240767356554 0)
(0.000349224364689 -0.000293923336425 0)
(0.000273994855126 -0.000321230804493 0)
(0.000198885172503 -0.000327838359878 0)
(0.000137234339649 -0.000317603624208 0)
(9.5873422589e-05 -0.000277210594972 0)
(6.90455610139e-05 -0.000236975285531 0)
(4.08885836247e-05 -0.000212422067479 0)
(2.47208040372e-05 -0.000244093991383 0)
(9.00206250536e-06 -0.000251617434587 0)
(-3.19794600147e-05 -0.000533873536373 0)
(-0.000136340466195 -0.000712506337319 0)
(-0.000238963693478 -0.000775443143219 0)
(-0.000159201343378 -0.00047678755946 0)
(-0.000182144421799 -0.00045038274477 0)
(-0.000408039342976 -0.000703494471958 0)
(-0.000485748651468 -0.000712252594756 0)
(-0.00055497733849 -0.000679886433036 0)
(-0.000600706158637 -0.000612000802788 0)
(-0.000676260827794 -0.000553388630352 0)
(-0.0005641796999 -0.000329560657462 0)
(-0.000642229517055 -0.000250002306456 0)
(-0.000718771772723 -0.000246791153433 0)
(-0.000783720737429 -0.000282149903307 0)
(-0.00096132814646 -0.000383956574878 0)
(-0.00107107976516 -0.000424112648012 0)
(-0.0010597499456 -0.000375217416314 0)
(-0.00111640724164 -0.000365845845356 0)
(-0.00121613114326 -0.000403736079826 0)
(-0.00127984797954 -0.000420088126929 0)
(-0.0013233418401 -0.000409346947516 0)
(-0.00136759602775 -0.000388590126869 0)
(-0.00141859488273 -0.000365386876376 0)
(-0.00146106767989 -0.000333031221856 0)
(-0.00150840681478 -0.000289813720792 0)
(-0.00150765397428 -0.000259359533724 0)
(-0.0015758968366 -0.000235539376184 0)
(-0.00157535861127 -0.000204357799252 0)
(-0.00156349545111 -0.000172042257547 0)
(-0.00159877220248 -0.000149218939656 0)
(-0.00168920601416 -0.000140353169056 0)
(-0.00167160778381 -0.000129747546884 0)
(-0.00168866933459 -0.000155601795237 0)
(-0.00178900717825 -0.000183399048955 0)
(-0.00181490495297 -0.000180928373957 0)
(-0.00183447177415 -0.000158406055032 0)
(-0.00184994632312 -0.000133817331877 0)
(-0.00186280184754 -0.000108580011928 0)
(-0.00187429052371 -8.05689463191e-05 0)
(-0.00188354706901 -4.88835651188e-05 0)
(-0.00188964092494 -1.41905781332e-05 0)
(-0.00189225915159 2.16204756809e-05 0)
(-0.00189071863084 5.69394174395e-05 0)
(-0.00188416210205 9.17804434546e-05 0)
(-0.00187221932425 0.000127447748538 1.22422634141e-28)
(-0.0018548310739 0.000165488350333 -1.22139348314e-28)
(-0.00183173158278 0.000207210173277 0)
(-0.00180224826997 0.000253701159022 0)
(-0.00176549671155 0.000305989206863 0)
(-0.00172049077568 0.000365216374213 0)
(-0.00166585487311 0.000432769224165 0)
(-0.00159958074299 0.000510355355186 0)
(-0.00151897907369 0.000600118741645 0)
(-0.00142038086499 0.000704952890255 0)
(-0.00129883870635 0.000828648548331 0)
(-0.00114875734108 0.000973453690248 0)
(-0.000966118663375 0.00113448770287 0)
(-0.000751570799976 0.00129597496027 0)
(-0.00051091954697 0.001434071883 0)
(-0.000254476640748 0.00151665500233 0)
(-3.85219174229e-06 0.00150365065456 0)
(0.000211723936667 0.00138847245825 0)
(0.000379442930917 0.00120234522299 0)
(0.000478125743091 0.0009650835251 0)
(0.000607172968091 0.000727279126982 0)
(0.000578935087152 0.000374570300598 0)
(0.000615317898391 0.000217473595822 0)
(0.000643284450969 7.84173819155e-05 0)
(0.000616553321477 -5.82824680892e-05 0)
(0.000561337150885 -0.000203540757149 0)
(0.000463680117865 -0.000325378634968 0)
(0.000355398541764 -0.000387171185073 0)
(0.000257212563117 -0.000414771455218 0)
(0.00016318162382 -0.00040565647192 0)
(9.94151640407e-05 -0.000365891029531 0)
(6.50327694543e-05 -0.000300939496786 0)
(4.81770251511e-05 -0.000262658864653 0)
(2.7104938509e-05 -0.000239123939311 0)
(1.26846469137e-05 -0.00025559224792 0)
(4.73215879745e-06 -0.000270352893875 0)
(-4.46565818909e-05 -0.000629440345281 0)
(-0.000154504798062 -0.00081594811265 0)
(-0.000203744664007 -0.000801705661886 0)
(-0.000153529831238 -0.000522808757192 0)
(-0.00024979076785 -0.00059443026343 0)
(-0.000418643911579 -0.000798353207374 0)
(-0.000451031173402 -0.000777927776871 0)
(-0.00053845978273 -0.000745482250022 0)
(-0.000524356319478 -0.000618495378399 0)
(-0.000680229247423 -0.000620985449418 0)
(-0.000547178509954 -0.000363063640565 0)
(-0.00064863123825 -0.000323725585364 0)
(-0.000710099674002 -0.0003258995157 0)
(-0.00083380802193 -0.000408179799 0)
(-0.000979123183998 -0.000503522529413 0)
(-0.00105274584498 -0.000485871926372 0)
(-0.00103956248042 -0.00041893545499 0)
(-0.00112097580371 -0.000439589388897 0)
(-0.0012051751622 -0.000475061667494 0)
(-0.00126254098595 -0.000476365173645 0)
(-0.0013142695736 -0.00045814314653 0)
(-0.00135365826186 -0.000431699189997 0)
(-0.00140099835118 -0.000406416692634 0)
(-0.0014253677607 -0.000371931325264 0)
(-0.00144797938488 -0.000315883749765 0)
(-0.00152406497498 -0.000288190626994 0)
(-0.0014763558258 -0.000258538615173 0)
(-0.00160628519004 -0.000232155502885 0)
(-0.00155117469344 -0.000199419517929 0)
(-0.0016637964847 -0.000194065524055 0)
(-0.00161084222067 -0.000167517289478 0)
(-0.00172158554724 -0.000171405008266 0)
(-0.0017620875226 -0.00020292478351 1.35426166258e-28)
(-0.00179676301794 -0.000223377766964 -1.36877649362e-28)
(-0.00182064954895 -0.000206907238777 0)
(-0.00184095995394 -0.000178931063501 0)
(-0.00185875882669 -0.000150164288264 0)
(-0.00187329719375 -0.000121523508252 0)
(-0.00188580537775 -9.09102090635e-05 0)
(-0.00189616737201 -5.67935772338e-05 0)
(-0.00190351288405 -1.93809897994e-05 0)
(-0.00190724832234 1.99038625914e-05 0)
(-0.00190678751098 5.97745621017e-05 0)
(-0.00190148862651 0.000100020921368 0)
(-0.00189097266509 0.000141458682634 0)
(-0.00187497542115 0.000185401634856 0)
(-0.00185307633082 0.000233282880155 0)
(-0.00182459284636 0.000286474731666 0)
(-0.00178870905566 0.00034628128471 0)
(-0.00174451666077 0.000414186993653 0)
(-0.0016907007417 0.000492163296511 0)
(-0.00162520165798 0.000582864158009 0)
(-0.00154491818485 0.000689795398248 0)
(-0.00144526120587 0.00081730364721 0)
(-0.00132027947517 0.000969371240345 0)
(-0.0011641969061 0.00114586881158 0)
(-0.00097281746413 0.00133892440255 0)
(-0.000743939753197 0.001531246824 0)
(-0.000477370603365 0.00169884424896 0)
(-0.00018153680776 0.00179737897279 0)
(0.000106839765271 0.00176249817697 0)
(0.000341041742718 0.00158915943916 0)
(0.000515401080883 0.00134404258365 0)
(0.000644081281006 0.00106923809806 0)
(0.000753351417551 0.000764672917309 0)
(0.000826746367733 0.000430579909542 0)
(0.000727978759314 0.00019999318236 0)
(0.000745815819709 6.73738770518e-05 0)
(0.000709386015864 -0.000119514592945 0)