/*--------------------------------*- C++ -*----------------------------------*\
| =========                 |                                                 |
| \\      /  F ield         | OpenFOAM: The Open Source CFD Toolbox           |
|  \\    /   O peration     | Version:  v1806                                 |
|   \\  /    A nd           | Web:      www.OpenFOAM.com                      |
|    \\/     M anipulation  |                                                 |
\*---------------------------------------------------------------------------*/
FoamFile
{
    version     2.0;
    format      ascii;
    class       volScalarField;
    location    "333";
    object      alpha;
}
// * * * * * * * * * * * * * * * * * * * * * * * * * * * * * * * * * * * * * //

dimensions      [0 0 -1 0 0 0 0];


internalField   nonuniform List<scalar> 
6400
(
0.847355598377
1.29569463429
2.00646657495
2.36554438485
2.71881930041
3.10177120159
3.69305384233
4.37754920492
4.58409602744
4.99611830132
6.13296959602
6.7283985326
7.18797736502
7.76946161129
8.59244101923
9.44305115772
10.1132949273
10.7512152396
11.3051917585
11.5575384731
11.5244710218
11.5435250266
11.855723739
12.4995440495
13.2415887241
13.8745738619
14.319968062
14.714995612
15.1865331889
15.7470239865
16.34262689
16.7258980846
16.8279813389
16.8109468476
16.6919628959
16.3924220052
16.2799928897
16.5404345436
16.3598152787
15.8714188883
15.8261914106
16.392182455
16.9965986425
17.2879326758
17.3476738097
17.2476257217
17.0624519263
16.853436861
16.6296766041
16.4058480662
16.0412887257
15.186789846
14.2013597776
13.0590701146
12.3198251738
12.1803852587
11.5683648641
9.94434678241
8.1218440864
7.1752293001
6.03175651423
4.82268644806
3.57411379255
5.16522046645
9.26624024554
14.2423740513
17.2633175165
16.9986057502
15.0235032511
13.3769935833
12.45862986
12.5762057054
13.030261099
12.8590507741
14.8008326193
14.2099423596
16.0193537077
9.92506126497
12.879524613
4.81850438721
3.09942757982
2.42263829422
2.97703185723
4.18436116632
3.91137125071
3.59120209836
3.65409990081
3.96981649954
4.4523097185
5.0855360999
5.88325871711
6.67823010016
7.35901247322
8.00843194629
8.65956532196
9.42001537133
10.2155575494
11.0061625745
12.0275502848
12.0729286066
11.7822749467
11.7199858851
11.9330084211
12.5279367557
13.4950631561
14.0205047457
14.4127568963
14.8720561995
15.3740294564
15.897890653
16.4415357176
16.9907219447
17.0947193448
17.0896553838
17.0419680023
16.5569052243
16.5538788277
16.8294276451
16.5285348392
15.7702938427
15.6660700304
17.4989170837
18.7468461383
18.8873571857
18.8450956896
18.5465107408
18.0944585624
17.6930258898
17.1005501478
16.5527767729
16.3378590652
16.5637007785
16.0436634449
13.2832862535
12.7833265867
12.1563289091
10.3638084037
8.82254269893
7.47263189832
6.16173106396
5.0609959465
5.23399958239
3.8956727569
5.42711237143
9.34279986024
15.1946591791
18.9510889817
17.7700762743
15.6262692393
13.7000583215
12.9405672472
13.2721690485
14.2705605802
13.6604763868
13.457465322
12.8894667174
11.6508535212
9.78381041563
8.20450771618
4.29253332769
3.09482190587
2.65043301204
3.14384423765
3.2801670041
3.61555795426
3.94940542761
3.88189336594
3.90372830863
4.37313395684
5.06836639702
5.86181931486
6.67613076074
7.40971383012
8.07121280505
8.58179294869
9.26117391641
12.2514591474
14.3429908038
14.5999978269
13.6676893326
11.6173413459
11.2441786432
12.1159056301
12.7722639227
13.3331851982
13.9814112431
14.5412321449
15.0053563583
15.4850419721
16.0243620205
16.5091652581
17.2108051136
17.3508563347
16.9490946719
17.5195838018
17.0519996022
16.4093290675
17.1015605204
16.7828756515
16.019517425
15.910041982
16.508362074
17.1404024528
17.4519072561
17.5355578711
17.4796186507
17.3212770509
17.0816683551
16.7623053837
16.3894148107
15.9681157796
15.397380776
14.570286217
13.8712126148
13.308899233
11.8512270969
10.2777378616
8.88332745074
7.60415444616
6.45007515207
5.54934133511
4.7089873574
4.18394890567
6.37176561487
11.432961483
16.0899505296
18.3959943599
18.5374218448
16.9590650139
15.2728869123
14.5374246739
14.3901196589
13.7030083735
13.0771389586
12.9937717732
12.5906114473
11.5592695892
9.91254982513
7.48115123244
7.64225103749
2.93847008454
5.36249923538
3.30821187089
3.31343527328
3.95127651866
11.7372105441
10.0657463339
4.64036916558
4.37919734206
5.08812933756
5.88653802782
6.7105673288
7.42064902162
8.1528430198
10.0469995499
12.3011467828
13.9457207253
14.1246047317
12.5135046543
11.0926870956
11.1777668635
11.514710351
11.990577765
12.678812101
13.427535157
14.1344659741
14.7405406669
15.1637897003
15.7015735118
16.1082849194
16.8623147425
17.1632991012
17.8344882743
17.5398065111
16.7664350626
17.2375553118
16.7117235481
16.1659580541
16.130210755
16.1328118329
16.2673955756
16.6833981072
17.1578992093
17.4632860184
17.5852108479
17.564327317
17.4324152285
17.2113150569
16.9111016626
16.5427933641
16.0995840539
15.5422616507
14.8503195731
14.0859279589
13.1475488707
11.8725600319
10.4303490277
9.07149478689
7.87818183591
6.88627635053
6.13155892366
5.60126076851
5.60902650996
7.20067765392
10.7236401203
16.4227268973
20.0020604567
20.2181605177
18.5673463415
16.2267637892
14.6091969174
13.7868301895
13.9015477116
15.2132746232
15.092620526
13.7258909518
13.5306083794
16.7614641107
13.190163643
11.2295531028
5.3734660371
7.36813060759
3.85334788139
4.17206979862
6.25380965107
11.6189426332
7.81713064845
4.87860651144
4.87749832892
5.31193216489
6.03874265899
6.88834758435
8.3334432952
10.8813092744
11.8579516974
12.0679316888
11.7414945032
11.0466599879
10.7297292477
11.1541011527
11.3221182233
11.5077239385
12.0640811381
12.7873629358
13.5721045691
14.3335360439
14.8743139486
15.5259267375
15.8186956489
16.6162658246
16.8595921741
18.2112753198
17.7030710826
16.9398039279
17.0941316496
16.3545929905
16.1379144536
16.1445111746
16.231269345
16.3405958583
16.5219572785
16.849343667
17.2278227747
17.5141754434
17.6581535002
17.6656047652
17.5584415424
17.3584809545
17.080106321
16.7293228775
16.2971407137
15.7633724243
15.1152881361
14.337078881
13.3349484697
12.0603999604
10.681488771
9.41536893689
8.36883074164
7.57693781411
7.05252885465
6.84710366298
7.22932712239
8.06028784875
10.7244942688
15.8911370579
20.0685527648
21.4846552178
20.316806072
17.5666779405
15.1037266838
14.7436169032
16.8922179873
17.699179038
16.6148623336
15.6534700968
18.2339971891
21.2033201064
16.5590477144
15.6804095008
9.70638236139
8.83143204459
4.78058530536
5.51040702557
11.8821068805
11.3086367003
5.80933983083
5.37201884927
5.44472015603
5.64689258353
6.33647365685
9.20990737596
12.6426163315
12.9628537867
12.4210072817
11.0909668155
10.2185531348
10.1884870606
11.0578060554
11.1581990353
11.1321123905
11.5564494616
12.214779293
12.9995659669
13.6871493138
14.4709504862
15.4443920715
15.6024729138
16.6588938406
16.5946291401
18.3363621048
17.8304363085
18.8268161722
17.4121791964
16.1474372848
15.8951297804
16.0333941892
16.2209276093
16.389371262
16.5469822864
16.7495708389
17.0349614348
17.3541414463
17.6181154192
17.7703612776
17.7983069774
17.7132030461
17.5366584825
17.2863683561
16.9665029537
16.5663339486
16.066359907
15.4401140489
14.6416227242
13.6107985483
12.3752915666
11.1068449773
9.98589884685
9.09705546647
8.48497653967
8.1639259395
8.31681827061
9.36401081971
8.70318849483
12.2262785107
17.6197730269
21.2929561908
22.7096368789
21.7877426299
18.4562503071
16.2975729108
18.0190854468
20.1460725691
19.5794623441
18.5349552461
18.5659535119
23.0334679817
24.5793169603
19.6236238994
19.4224313337
11.7794817463
8.47093051779
5.81773216178
5.48891866969
11.7607191329
7.84067063602
5.80037143771
5.8854718023
5.96439978835
6.64158568677
7.00069005
12.5558024221
13.0783744762
12.9980996241
11.2966461585
9.74723537329
9.65017978825
11.0168421476
11.0860810351
10.7607017571
11.1413800169
11.6701665116
12.3275290917
13.1093455562
14.0927064104
15.079656112
15.4285064222
16.8937959548
16.6191316738
18.554793434
17.8558836277
19.0407294307
17.9596158534
17.0897396291
15.7980825621
15.7445752095
16.0629065193
16.3514889704
16.5603662812
16.7470923921
16.9676859228
17.2359221547
17.521728916
17.7672068211
17.9216885749
17.9637973635
17.8995918346
17.7513849183
17.538242633
17.2617418511
16.9062376004
16.4442901572
15.8360394375
15.0337169073
14.0182330437
12.865499755
11.7395111561
10.7765291952
10.0192760927
9.47551333824
9.26620685612
9.48747105129
9.64844798918
10.0502119131
13.4534405089
20.0546660412
22.6090312612
23.0349413069
21.9933576356
19.7621039447
19.5184912075
22.003813144
22.3953522178
21.5059975283
20.8708482607
22.7572855646
25.4223051049
26.8310900128
22.2866004394
21.154772434
11.3871726703
7.8672985344
6.87806042447
11.7930282658
11.7546704539
6.45082094641
6.36904595809
6.4646787767
6.62490545762
7.14757340402
12.3685712161
13.2468529145
13.1780194646
12.5117542836
9.81644066022
9.14143917271
10.8129337304
11.2284425895
10.5914146843
10.6057484189
11.1939073751
11.8936552275
12.5577184068
13.4163542456
14.1675798915
15.5542458475
15.5559182458
16.8474891292
18.4479687896
18.6218016777
17.389962135
18.2810199912
18.1799219919
16.0899376617
15.7105325759
15.8605804517
16.1760294766
16.4895894663
16.7344958662
16.9489901478
17.1862812164
17.4535811669
17.7238003613
17.95598938
18.1096999689
18.1628717211
18.12105079
18.0077205732
17.841350552
17.6191796003
17.3185767986
16.9020927285
16.3222838878
15.5443281713
14.5888219035
13.5574172936
12.5824645569
11.7248299492
10.9618880502
10.3577708624
10.164994658
10.4176681865
10.9133402229
11.7343451955
12.5140311136
20.0510525708
24.2728055951
24.4164876904
23.8771346392
22.9962961011
23.8571110792
25.1752211585
24.4463056843
23.6993170479
23.8365110546
26.0518988601
26.651461625
27.1767194504
24.3100961403
22.1859538271
10.5050843972
7.55179074899
7.51877029052
12.7081462477
10.4704879905
6.84179150186
6.98248038073
7.1938286072
8.6874211861
7.13937591268
13.142030837
13.6942918606
13.1704210759
11.0130033512
9.19852069709
9.26819316411
10.9309883994
10.8292079575
10.418372575
10.6350224339
11.1853683535
12.0110906643
12.8123174959
14.1903419638
15.3922770974
15.4259736593
17.6305117534
16.5539219034
18.7535130813
17.5770980674
19.1494627675
17.2401491061
16.4282157673
15.9191330129
15.8459218388
16.0327139367
16.3205084759
16.6338979555
16.911365172
17.1600067624
17.4164271085
17.6888516405
17.9550019124
18.180491599
18.3324958484
18.3960899558
18.3808004197
18.3099992007
18.1992789305
18.0414219063
17.806497115
17.447873492
16.9165730116
16.1974675364
15.3428537515
14.4542946437
13.5961274102
12.7143927865
11.745733101
10.9759869423
10.940513529
11.6865279741
12.6737708383
13.5191801631
14.1249058257
16.7519502548
24.4080914465
26.1491551948
26.286518708
27.0260655746
28.1174140203
27.750585812
26.6747535737
26.373388898
27.2337553411
28.2976683488
28.0579232998
27.3916121832
26.3527175184
24.9765416146
9.73974612525
7.79043432234
8.69964669737
12.7128873692
8.04658773113
7.84756605038
7.59794614809
7.84620557415
11.4022504061
9.95657969735
13.9705999355
13.9037481987
13.1617015337
10.0702161993
9.11969999771
10.9363605283
11.1949825903
10.5013364866
10.3665541516
10.8137971558
11.3136755535
12.0811027289
12.7351556498
14.37269557
16.7057991683
15.2896656759
17.5406485904
18.6843653333
19.0037636641
19.3580234083
17.9011792281
17.740497222
15.9623394707
15.7743630932
15.988370971
16.2179319938
16.4838088816
16.7865472504
17.0881032387
17.3765216393
17.662073224
17.9462975411
18.2137500324
18.4374563574
18.5906149854
18.6654918806
18.6802178767
18.6597516228
18.6138789373
18.5297011295
18.3720547563
18.0879647991
17.6313583567
17.0086531676
16.2903610241
15.5414754615
14.6931971809
13.5302509612
12.1640119726
11.42408716
12.0069891708
13.4751548376
14.8343524684
15.8109112033
16.4214824505
16.1484616555
16.9978278062
27.961076539
30.8378785311
31.9926798625
31.9151249998
30.4801747901
29.4560943198
29.5590846074
30.5037183453
30.6722075669
30.3107519407
29.9445882127
30.2390986394
30.4001573783
9.45470967288
8.47229935266
12.3270345437
12.6980978634
7.85697993389
8.54437764737
8.19020485577
8.84471859658
10.6618054347
13.6579462179
14.6952748734
14.0748154583
13.2834956468
9.86451426144
9.21749880916
11.5175923396
11.2233684709
10.4112753896
10.3831201949
10.9644898561
11.7506446306
12.4261243581
12.929624155
13.9450350183
16.8571645332
17.9942344637
16.8914132235
18.8448511697
17.2856813743
19.4022840438
19.4506867749
17.598319908
15.8526232348
15.8672749484
16.1643342465
16.4133101296
16.6686509058
16.9589857861
17.2683079843
17.5941589113
17.9210747536
18.2266803743
18.5004908759
18.7259976481
18.8833160023
18.9734303313
19.0228117288
19.0576792403
19.0828614776
19.0806251488
19.0121840384
18.8217928056
18.4715782514
17.9877495296
17.4333501461
16.7638531435
15.6452658322
13.8708781423
12.3767026221
12.2477033895
13.8821112469
16.0859286298
17.7097759884
18.7408031708
19.1212809837
18.6975541532
17.7750459889
19.3012284063
32.5442499114
37.7834253394
36.5588743656
34.1628187002
33.158322732
33.3290398042
33.7914901209
33.875552285
34.0219671382
34.4462328611
35.0009989273
35.6475572807
9.56883440302
9.2273267125
13.9008444667
13.2007946595
11.0376559148
9.68858660125
8.97982403158
10.3560534382
9.87581479711
14.5920404859
15.2277735823
14.303202678
13.1926095024
10.2985172372
9.98240409424
12.01661534
11.1599251809
10.4343489477
10.4940661721
11.0062842771
11.933812296
12.8756222892
14.7180410701
14.093299275
16.2718570281
18.3866244132
16.6158810656
19.1557864536
19.7196452513
18.164538214
18.1451426642
16.4024778222
16.1681826227
16.1929498524
16.3928228462
16.6354974737
16.8852096511
17.1650052862
17.4613104556
17.802328604
18.181419352
18.5331762187
18.8201811419
19.0465635394
19.2112583583
19.3224334076
19.4111491053
19.5035033146
19.6012757146
19.6843491437
19.7123872131
19.6357709304
19.4342961064
19.1369709513
18.7371305096
17.9114634192
16.0607492045
13.8723629546
12.9161690161
13.9461670391
16.8996312296
19.6456002795
21.4423628668
22.6800003226
23.0336748481
22.3717055866
21.0602005693
19.3790343172
28.781401487
38.9648479978
41.8220672264
39.1335108986
38.0923518218
38.0091185716
38.1085564672
38.091637892
38.8380688532
39.5589209147
39.4905490243
39.6985439717
10.0097655191
9.79212553408
13.5243720031
13.5390842272
13.4931725532
10.6570590495
9.90405095568
13.3944193665
10.029886467
15.4334904124
15.6297094152
14.5458534235
13.1181599872
10.7659282677
13.0226311843
13.1069932159
11.2382038453
10.5944230784
10.7359912594
11.1609403949
11.8992027176
12.832018565
16.195197071
17.163025347
15.5830258923
18.4835111555
19.2750760717
18.6112690839
19.6911787011
19.7448622326
18.6398990768
16.3705769353
16.3575834072
16.5154450896
16.6719773815
16.8802240947
17.1066799182
17.4001057236
17.7131462027
18.0361653461
18.4308380547
18.8401055129
19.1699254556
19.405950322
19.5780099688
19.7149538423
19.8476535431
19.9964617914
20.1604082457
20.3202226181
20.4421199309
20.5003137653
20.4996639267
20.4245081038
20.0659162234
18.6168229056
15.8559643121
13.9532637457
14.3101351741
17.188272097
21.278454653
24.4026384839
26.3050593732
27.9365269765
27.7176752244
26.2023965019
24.2378232635
21.8282814266
25.1819530785
36.3196534421
43.5635594883
44.9754584883
43.0663396169
42.7768405625
42.5206993604
42.9572047609
44.1309924927
44.806638473
44.8441807114
45.080986705
10.5092850714
10.3824264537
10.0767954537
13.7733623697
13.9037146177
11.2466935801
10.7499938078
14.2562069794
10.5060638136
16.2761869863
15.9759218943
14.7978909486
13.1684618878
10.9657587204
14.2120059889
13.5062122429
11.520467053
10.9152249819
11.0555137759
11.4894498691
11.9905444341
12.7411633422
16.7864478723
18.1904508731
15.8637586043
18.5843348579
19.8087868852
17.7575139967
19.3103861828
19.1042958641
16.8554158886
16.7257630649
16.7955362704
16.8761744266
16.9735894093
17.1830189513
17.3929965997
17.6223820848
17.9596029392
18.3262972077
18.7187921324
19.1495764434
19.5278682455
19.797363562
19.9889633099
20.1568856535
20.334820111
20.5308673426
20.7457557176
20.9614103192
21.1497773678
21.3595039463
21.6181417548
21.7839011606
21.1473114783
18.333154735
15.3327698493
15.5603949851
18.681556732
23.3118448145
27.0272826015
27.5024294328
25.208952327
22.2634142147
18.1948602022
15.9798995637
16.1829728528
16.6136605382
15.7364701475
16.7725615072
42.2293667683
46.0386801969
46.9820831679
44.899706454
43.5129314903
46.6848170737
49.4328693974
50.3071512131
51.4452351918
52.1324648902
11.1805172223
11.2483476589
14.361949968
14.2965342587
14.2102758093
11.7286071726
11.7101698068
14.9406020563
11.3939168562
16.9785980485
16.2879162416
15.0596919788
13.2842084332
11.2681198159
14.410042418
13.514360526
11.8070355154
11.2809979726
11.3857006465
11.7677314197
12.2339684572
12.8151602994
16.0075674442
18.9832846459
19.0685973186
17.7384298611
20.0054531446
20.62685605
17.5315097496
16.8669259626
16.7298048691
16.9200088709
17.0879365401
17.2053701443
17.3402544183
17.4918080307
17.693431006
17.939121368
18.2149495436
18.6085213789
19.0475701412
19.4947858252
19.8991312165
20.2072517734
20.4415230099
20.6505835752
20.8713254393
21.1168128783
21.3602437416
21.5600370074
21.758763663
22.1192224788
22.6688438546
22.9765421702
21.3021626266
17.1653135301
16.3527495335
17.8601668848
20.7449544959
21.8773950933
14.9579389691
0.0758311489074
0.000215495572192
3.73018756698e-09
2.91776378211e-09
7.08365951134e-09
4.77494656699e-08
2.23655831312e-07
8.26185757285e-07
5.2502813752e-06
4.11085311458e-06
0.000356638857983
0.202987100872
20.404535021
46.8136444936
48.2400865445
51.6750070111
56.6896786598
59.324066201
59.7243736856
11.7894403622
11.9726751742
15.9059070945
14.7918347743
14.079836962
12.2338555837
12.6624674914
15.4603373059
15.4488609001
17.8217262082
16.6345855995
15.3936770141
13.4523400593
11.7209093603
14.6153135619
13.4762288111
12.1030140533
11.6591627737
11.7040385175
12.0150336194
12.4665232025
13.1029918329
15.3229838723
19.2273549598
20.472227681
17.1418864213
19.55763625
20.5625054246
19.9093329756
17.477560298
16.8550427238
17.1284370742
17.416105236
17.6149615301
17.6526029883
17.8195590103
17.9932051088
18.2510818782
18.5355915375
18.9107732948
19.3882099029
19.8782299372
20.2928088915
20.6153323536
20.9087591816
21.2330089311
21.5505057782
21.8155804378
21.9544676639
22.056581576
22.2530889963
22.6542825381
23.4760622515
23.6145048392
19.26862247
15.1953985066
10.6727937856
0.167928949246
0.00485623337192
7.06978560285e-05
5.74405140353e-08
9.58450022813e-11
6.75615819723e-12
0
0
0
0
0
0
0
0
9.39666389026e-16
3.1693001969e-13
4.74059756266e-11
2.75034289242e-08
3.84155404014e-05
2.08029969541
58.8329039667
55.4615370188
63.9979813903
12.2734610481
12.4811223182
18.1419046202
15.1314883992
13.6379429098
12.6892843051
13.3219906917
15.3003992697
17.0153137973
18.7977328115
17.1239541742
15.8437838513
13.8505947435
12.4903129787
15.0306496188
13.6044185958
12.4932206857
12.0963624305
12.0619201726
12.2960958943
12.6836926726
13.2820656884
15.0229493102
19.084577098
21.4464555557
20.4773338671
18.9063400689
19.8843065528
19.4229401235
17.0779418528
17.3151656435
17.6396935103
18.0003547514
18.078996841
18.1284894137
18.1615604728
18.3624559264
18.5730311618
18.8778272379
19.2565006357
19.7278068381
20.262739347
20.7718642259
21.1194606378
21.4619970315
21.9062757956
22.345769084
22.6079514958
22.6408898141
22.6459388074
22.7365052228
22.911390023
23.1447903646
22.2722088733
15.2755956563
0.0600374311945
1.96896633518e-05
7.96168666765e-07
1.08555200982e-08
2.97687863264e-11
0
0
0
0
0
0
0
0
0
0
0
0
0
1.21076003493e-14
1.20315340655e-13
2.63757295301e-12
1.27892265248e-10
7.10215095473e-07
61.7005340626
0.0113955092137
12.6405128236
12.8347324792
20.2704651902
15.360431559
13.5096902657
13.122978994
14.1075963116
14.3147718226
17.9637521612
19.4841870528
17.6056617664
16.3100482917
14.4648343623
14.5409470407
15.6105607098
13.9853253357
13.0911769437
12.7487045871
12.5284299233
12.6668174131
12.955385579
13.4851635051
14.9453280991
18.9477846362
21.8308749892
22.1484206891
18.149871084
18.3622904146
17.5217001866
17.1775572206
17.5526408613
18.1562056254
18.488342763
18.5591680244
18.6068029188
18.791230315
18.7770429543
18.9627674922
19.2397680569
19.5926410937
20.1457136157
20.7355759087
21.2685334502
21.5685061971
21.9635453521
23.5138301946
25.7057036211
26.3420198409
24.7869105655
24.397047693
24.2886640543
23.9892131695
23.1080052887
20.6574544717
0.478826591432
2.14809137424e-12
2.17067294471e-09
3.54194004588e-11
0
0
0
0
0
0
0
0
0
0
0
0
0
0
0
0
0
0
1.87058629484e-13
1.26673014246e-12
2.33595540609e-10
78.8379273419
12.9836050068
13.1467827512
19.9891889917
14.4686216769
13.5302788261
13.4881871389
15.001467363
14.0733823626
18.7454379608
20.1398161413
18.0777219957
16.752688836
14.9207699061
16.9515424387
16.4533597491
14.5756533885
13.790311425
13.8453065323
13.222465474
13.2103245927
13.3300925351
13.7112330572
15.0244804283
18.7940077272
21.676520898
23.2669035884
21.4726710913
20.1257497786
19.0202687586
17.4913821667
17.870795973
18.9171881406
18.832058042
19.0079590938
19.4909158891
19.3076617267
19.2977520101
19.466999894
19.739909852
20.0721600743
20.4949201621
21.1347900923
21.8489338231
22.8588291291
24.3079389984
26.427465563
28.0437403947
27.9089725613
27.8859286704
28.7895926201
30.0117635566
31.1880789379
29.9936377754
1.31882214586
0.00017333575808
2.35423183065e-06
0
0
0
0
0
0
0
0
0
0
0
0
0
0
0
0
0
0
0
0
0
0
5.75576387387e-13
0.0418935358302
13.421662034
13.5692418443
19.4874834487
13.8676270285
13.7160135154
13.7728221773
15.7463744795
14.4002816561
19.3825757757
20.781554935
18.5563781062
17.2158640081
15.3120020848
17.5929681692
17.2244309404
15.2418134533
14.471744006
14.6732605276
14.069529536
13.9834281681
13.9265760007
13.9544746932
15.2733971226
18.7612587647
21.3759875884
23.6164335895
22.7130930373
20.4259313917
17.7831388816
18.0270901197
18.4865600678
19.4836270262
19.9330402528
20.1889052489
20.305419716
19.9020539009
19.8811894938
20.0726257404
20.3349193169
20.6813312973
21.0810460139
21.7929713127
22.9836982039
24.9909422435
26.3280742789
26.5969076001
27.466217919
28.2843357088
31.3582851137
34.9674406779
40.0163318809
41.8799991812
1.74806334099
0.000301444560868
6.18278317952e-07
1.49697074019e-08
5.02482264438e-11
0
0
0
0
0
0
0
0
0
0
0
0
0
0
0
0
0
0
0
0
0
9.67275477294e-14
1.27979380539e-13
14.1208551924
14.2718153963
18.9486329034
13.9783567644
14.2153597864
14.1675502072
15.5224280273
15.0824799495
19.784559696
21.3811516647
19.0756632868
17.7386823556
15.8475722858
18.1929727052
17.9358230201
16.0346679076
15.2360045042
15.4913675709
14.8825084343
14.9088393314
14.8391755277
14.3738972445
15.7318573614
18.8984131144
21.2297295493
23.7128195515
23.1914059236
20.8827915558
18.0906342339
18.1883001162
19.240486975
19.3802399666
19.630411538
20.18176314
21.2539826083
20.9017851852
20.7842495034
20.7468813701
20.9498991522
21.3890467061
21.9090562786
22.7174066812
25.1021443772
27.3706611024
27.41325525
27.5396899359
29.0352900628
33.6158028308
39.6897829936
44.699666941
45.4049290189
0.0624815851782
2.5856341056e-06
8.47744565985e-10
5.31914251813e-12
1.07814708195e-11
1.65563160534e-12
0
0
0
0
0
0
0
0
0
0
0
0
0
0
0
0
0
0
0
0
0
7.14941693025e-15
3.24634015061e-14
15.2145911056
15.3075406634
19.0174787374
14.8290351691
15.3761358717
14.9473260122
15.6058836659
16.4811801566
19.614987583
21.7792975643
19.6683288792
18.3443991439
16.5057900128
18.8787214473
18.679722341
17.0142522818
16.2183745073
16.4868622796
15.6979539452
15.9455018099
16.114870592
15.0668653616
16.224540176
19.1982497512
21.2626437203
23.512728285
23.3868863134
21.3317536627
20.5271637735
19.0878677899
19.6969703627
20.49619674
21.5259608684
20.6859899459
21.1678795279
21.9860539192
21.7335656755
21.8573061034
21.884268041
22.148386372
22.7956115347
24.9855264595
28.4549605896
29.3103289383
28.7923191319
30.2192783405
36.0262490591
44.2213001077
49.9995223322
41.9217867094
0.000946629742917
8.83807940312e-09
6.04730527652e-11
0
0
0
0
0
0
0
0
0
0
0
0
0
0
0
0
0
0
0
0
0
0
0
0
0
0
0
16.7911676809
16.5875635181
19.6140509333
16.7787513767
17.4212624336
16.1541346466
16.4226949963
18.5622024827
19.6376208518
22.2936987904
20.3973484505
19.046823481
17.2669412284
19.6000460733
19.4178674948
18.1099544855
17.762702149
17.8284773893
16.6003129646
17.1045630971
17.7341018177
16.1375073087
16.5499856038
19.564302712
21.4752831405
23.2977899182
23.5490102999
21.3344873164
21.7123884049
20.762390442
20.8813700866
19.8314376866
20.7430784497
22.153163676
22.083453793
22.4845090693
22.6923583929
22.7843844617
23.054137525
23.2970811242
24.769659349
28.9104420538
31.5011693782
31.5574338861
32.1774552074
36.8194715102
45.63644009
51.3473336957
27.7070290818
8.44788782595e-06
1.47686909849e-08
6.76239529632e-11
0
0
0
0
0
0
0
0
0
0
0
0
0
0
0
0
0
0
0
0
0
0
0
0
0
0
0
0
18.4897108801
17.782488592
20.303345207
19.4670553007
19.1256547341
17.5979711154
17.3440038435
19.6622607457
18.444559324
22.6607967322
21.2477995342
19.8388812922
18.1238594401
20.3384371104
20.1016989161
19.0097650151
20.0571904802
19.4687205021
17.6365393039
18.4357955226
19.1058617399
17.5557594831
16.4983846447
19.4803509899
21.6055133609
23.1131768933
23.5726552159
21.347161862
21.9904261869
22.0663977685
22.1247209599
20.5342710502
21.0937533097
21.7572060165
23.0083839553
23.7016598525
23.9107479169
23.9175810777
24.1001245874
25.0721870257
28.8988607178
33.0889047332
34.7488362559
35.3965779486
38.0792317369
44.3680103184
46.8848449769
8.89760145937
2.27466697638e-05
3.29306035965e-08
1.15329326662e-10
0
0
0
0
0
0
0
0
0
0
0
0
0
0
0
0
0
0
0
0
0
0
0
0
0
0
0
0
0
19.2667979834
18.6231805958
20.7184035309
20.4526926114
20.1313424856
18.9935410988
18.4910218356
21.0321947695
19.4159693606
23.1620365371
22.1055596649
20.6829450869
19.0698643412
21.1139766057
20.8115394117
19.7690652188
20.9748155396
20.5099755439
18.6669909279
19.7835111589
19.7641127658
18.2469090226
17.6060872354
17.7813855728
21.0800008562
22.5744149286
23.3215592598
21.2908763613
21.9990207622
22.5316807802
23.0943919725
22.5837960572
21.0794453624
21.6691226712
23.1518627016
24.5255854074
25.2455639187
25.5674408272
25.749562731
28.8538034026
33.7782829026
37.1028920598
38.3241325587
39.7213924901
43.2407536999
41.7912553567
15.3497150921
0.000120167348393
1.08246782645e-07
3.08292441012e-10
0
0
0
0
0
0
0
0
0
0
0
0
0
0
0
0
0
0
0
0
0
0
0
0
0
0
0
0
0
0
19.269410645
19.1823264318
20.9883387989
20.6035923327
20.7855424295
20.0941479893
19.5061710955
22.376523749
21.1388731051
23.8323402266
23.0232950996
21.5638290954
20.0979327906
21.940952838
21.5997634259
20.6834983229
21.7219263101
21.4233939318
19.78406177
20.7676654232
19.1509438892
18.9254337828
18.6151746582
18.9431002195
19.8380573232
20.7043790903
22.4403413698
21.1413055766
21.384528972
22.4937365948
23.4898968893
23.9369985878
22.6822500172
22.393895402
23.123198663
24.4263961366
25.977125447
27.2803963609
28.7417716971
33.5658331503
38.159462508
40.610626321
41.1466112679
41.6589712634
37.5849538208
25.6645079895
0.000815028050121
3.76001230274e-07
8.42277929133e-10
0
0
0
0
0
0
0
0
0
0
0
0
0
0
0
0
0
0
0
0
0
0
0
0
0
0
0
0
0
0
0
19.4944545003
19.5957404041
21.2573305164
19.4593114489
21.0515687448
20.6933551221
20.1977078171
22.930119046
21.9418514527
24.5497398383
24.000062296
22.4589092229
21.2199239006
22.8071872682
22.4382161619
21.7412542805
22.5308369169
22.4494927909
21.021332737
22.1379699217
20.4801967398
20.6624284207
19.8490110087
20.1919065724
21.80722715
22.3953566483
22.0569126548
20.9410401792
20.7842708975
22.4290723135
23.4813912342
24.127658756
24.2363856005
23.4594474039
24.7377034031
25.1545357354
26.5885705277
28.9389509472
32.5815358295
38.087726061
41.8909663376
43.1535413707
41.2418620984
35.6058788173
30.1463011375
0.0308423572275
3.15512488239e-06
7.18279618379e-09
0
0
0
0
0
0
0
0
0
0
0
0
0
0
0
0
0
0
0
0
0
0
0
0
0
0
0
0
0
0
0
0
20.2146328418
20.2879586675
21.5234547313
19.8677049176
21.2779315754
21.009275197
20.6969998595
23.0702704201
22.5249435641
25.0791866193
24.9825521436
23.3157160707
22.4300296931
23.6726759735
23.2532511655
22.77622052
23.3034418105
23.5705845783
22.3092306801
23.4992473434
22.2658961851
22.8319293281
22.4885716126
21.011891899
22.3892514827
23.4383059325
23.4987749365
20.8166400259
20.0895800821
22.3316879941
23.6247239521
23.5551902707
23.7949360438
23.7399629091
24.8539470658
25.6428115753
27.3556856082
30.7016853069
36.5147555878
42.417158459
45.1320655619
44.0217247024
36.1664180824
33.2523720034
18.6883870101
3.58739987716e-05
5.00525475657e-08
2.02964193182e-10
0
0
0
0
0
0
0
0
0
0
0
0
0
0
0
0
0
0
0
0
0
0
0
0
0
0
0
0
0
0
0
0
21.128644112
22.3430684048
21.9309725141
20.8898838663
21.8083501493
21.3879494234
21.1847759868
23.1925391572
23.073162845
25.2457936061
25.9598942988
24.1023353311
23.511163301
24.3642159356
24.0450545977
23.5457606005
23.4538881351
24.6038336158
23.6975179639
24.6822499794
24.3150635713
24.099555687
23.8452764314
23.382315825
22.4723307638
23.3248732114
24.4641250611
20.094528161
19.5898396214
21.5321564503
23.6515817508
24.2364473255
24.7961443339
23.7479263681
24.6384876208
25.8743606586
27.7650038497
32.3387644433
40.2888235482
46.4186970944
47.7850297423
40.8954956727
36.4828493011
31.7015582843
0.00270591897217
3.39260707757e-07
8.65874927414e-10
0
0
0
0
0
0
0
0
0
0
0
0
0
0
0
0
0
0
0
0
0
0
0
0
0
0
0
0
0
0
0
0
0
21.8219233219
23.0679619281
22.6387682644
21.8139740601
22.5230318067
21.9693671794
21.748816927
23.4100361724
23.6198056061
25.1381586625
26.8460801349
24.8913122327
24.1508844956
24.9413164569
24.943726482
24.253519308
23.5801150575
25.3341048409
25.1736003793
25.7120968822
25.6302880713
25.6971034664
24.1408587601
24.0924445731
23.5480508608
25.0626723684
25.8251540684
22.418615528
19.1891685725
20.4655486054
23.0084153592
24.5223458763
24.902561314
24.3823725876
24.2464460774
25.8284201412
27.7067380609
33.6184975806
43.7692262023
50.369807632
47.6003776484
36.684067047
35.929876529
20.9178924327
1.16318695783e-05
1.00032416611e-08
3.36165729101e-11
0
0
0
0
0
0
0
0
0
0
0
0
0
0
0
0
0
0
0
0
0
0
0
0
0
0
0
0
0
0
0
0
0