/*--------------------------------*- C++ -*----------------------------------*\
| =========                 |                                                 |
| \\      /  F ield         | OpenFOAM: The Open Source CFD Toolbox           |
|  \\    /   O peration     | Version:  v1806                                 |
|   \\  /    A nd           | Web:      www.OpenFOAM.com                      |
|    \\/     M anipulation  |                                                 |
\*---------------------------------------------------------------------------*/
FoamFile
{
    version     2.0;
    format      ascii;
    class       volScalarField;
    location    "728";
    object      alphak;
}
// * * * * * * * * * * * * * * * * * * * * * * * * * * * * * * * * * * * * * //

dimensions      [0 0 -1 0 0 0 0];


internalField   nonuniform List<scalar> 
6400
(
0.89791892694
1.44723540914
2.30211118937
2.88954356086
3.44984644556
4.00768081778
4.70092370247
5.47452811433
5.95678929379
6.68094733132
7.96306797305
8.89099449293
9.67843299167
10.5519178059
11.6114928898
12.7258881501
13.7391501487
14.6936589406
15.5006486717
16.0002561486
16.2928647301
16.7301106971
17.5110714501
18.6089717231
19.8021894164
20.8871867089
21.8032633841
22.6585506016
23.5518305743
24.498397191
25.4430454068
26.1994003593
26.6905133622
27.0320443446
27.26899763
27.4063723602
27.7108283274
28.2240569162
28.4365730863
28.4382290188
28.7986164041
29.6402447658
30.4776747544
30.9565599191
31.1183629704
31.057717031
30.8404521074
30.5091515325
30.0769333084
29.5635470378
28.8895269726
27.8456447747
26.440415193
24.7536640085
23.2135121285
21.8483984939
20.0222157143
17.4931867899
14.847842811
12.6165361248
10.356996829
7.99138765106
5.7719698532
5.65781398924
8.8655091169
13.5085652491
16.3448975004
15.9447626921
13.8834245045
12.2592586352
11.427528304
11.7155922152
12.3601593913
12.3109367296
14.4830776073
13.9645489229
15.9117256077
9.80947050729
12.8573469699
4.80268219406
3.16542092862
2.54934299507
3.18584692362
4.4603812795
4.44278960344
4.42224839384
4.70191813003
5.20336163126
5.90552729142
6.79259639979
7.85231532572
8.91097307561
9.85479642391
10.7610238825
11.6883224711
12.7435715327
13.8545145199
14.9133654645
15.9817703826
16.3171376199
16.4321112489
16.8486619902
17.6097687886
18.6969361854
20.0055275463
21.0377353422
21.9258862087
22.8167618053
23.7238928068
24.6412754252
25.5587959333
26.3978311991
26.8830757385
27.2179170918
27.4848625818
27.5436354034
27.891108136
28.4289903746
28.6000637999
28.477328453
28.8104544937
30.1352422365
31.242717125
31.6336552763
31.7399077102
31.6091121487
31.3037577101
30.9114377905
30.3332708866
29.6678078711
29.0554157361
28.4823599256
27.2569790787
24.9768330526
23.5413986109
21.9777700996
19.6483965648
17.1826312254
14.7517998389
12.340678286
10.0892907404
8.30337457291
6.16833618043
6.174167996
9.11534475279
14.5916349614
18.179047332
16.7809722533
14.5426601741
12.5926702812
11.9366206291
12.441773934
13.6551995764
13.128329569
13.0516232621
12.5899675152
11.4492401047
9.64936489503
8.13688487355
4.21857633681
3.28996776847
2.91635131102
3.44086623388
3.77801545272
4.38423130007
4.86779481606
4.88953980124
5.09821016775
5.80375464427
6.76651712644
7.83658782318
8.91482674464
9.90283295167
10.8107052896
11.5933753003
12.5545369885
15.1106649853
17.112562979
17.6289513718
17.2156865118
16.2380919523
16.5427265372
17.7233475993
18.8596268949
19.939865403
21.0321507712
22.0190381735
22.9121016099
23.7991938709
24.7113526141
25.5975457153
26.5202251895
26.9993580462
27.1215701534
27.6744346043
27.75113305
27.8146217039
28.521704071
28.7437931442
28.6867324623
29.0345337873
29.8550274109
30.6679439543
31.1480436826
31.3348232889
31.3153811492
31.1318211201
30.8042112938
30.3356869231
29.7470106663
29.0368729221
28.0923796209
26.7879892794
25.3618993383
23.8967169185
21.8880036738
19.5646964104
17.1658366937
14.7623964497
12.4250480868
10.2640673273
8.20062582361
6.78610880594
7.61369085435
11.5480103371
15.6476724011
17.6277827276
17.6251996138
15.9909189605
14.3190487979
13.6721972823
13.6350444127
13.0151184564
12.4740525546
12.5253693964
12.2582203834
11.3379136797
9.74574011058
7.31231853607
7.51617146866
3.36089699433
5.56608186368
3.81372169475
3.9740035116
4.69804827423
11.9378066378
10.3571252595
5.61605610877
5.76518004453
6.75789771956
7.85767517879
8.95723775327
9.92046072855
10.8352362055
12.5114207483
14.5828576789
16.2922953533
16.8497518131
16.0809000714
15.5779450992
16.0528823248
16.7804212614
17.7152504168
18.8454868688
20.0197702367
21.1416296809
22.1540363945
23.0283760969
23.9313579065
24.7791967525
25.7779011938
26.5156807249
27.2484787866
27.3562549987
27.2781401305
27.8229251542
27.9770143335
28.1559256718
28.5369736962
28.8861860636
29.3440105608
30.0240566816
30.7154402742
31.1910555315
31.4161691757
31.4325602943
31.2763374798
30.9690302517
30.5197674135
29.9348809628
29.1966209131
28.2425230409
27.0304374188
25.6170870726
23.9615475245
21.9350525898
19.624139948
17.2233267537
14.850670514
12.6021235916
10.5941398443
9.0182210564
8.44472888404
9.17800168633
11.3159147034
16.1293129107
19.3748924335
19.425038053
17.7005666715
15.3104855424
13.7056052805
12.9468175235
13.1738685658
14.6680164051
14.6625193421
13.3887372289
13.2987366199
16.6337301992
13.0158743415
11.0170634681
5.79271025443
7.6571609239
4.65099571154
4.97156753431
6.73039534478
11.8356010103
8.41859943733
6.13893556919
6.29279889811
6.97589614351
7.99693668487
9.10839993594
10.5449433538
12.7634371866
13.8361090729
14.3428031527
14.5633038776
14.6305176331
14.9417841683
15.6216016154
16.1779520504
16.836601968
17.8078770046
18.9430623609
20.129348857
21.2779255263
22.265278115
23.2493132086
24.0380365037
25.044635006
25.8200987015
27.0586462523
27.1888208155
27.0398621706
27.3599841276
27.4226208578
27.7606995819
28.220812519
28.6827696546
29.1199420269
29.6122227822
30.2176022048
30.8270253588
31.2870806694
31.5373970346
31.585826329
31.4573680797
31.1733110021
30.7450277406
30.1722552368
29.4341496716
28.4909862808
27.3153118196
25.896539405
24.1706110747
22.0920173368
19.7770509841
17.4116218616
15.1399008764
13.0981703439
11.4612677348
10.4816886198
10.430478898
10.6289585616
11.8490709459
15.8400777373
19.5437416329
20.782889381
19.5459086922
16.7370668216
14.2227468051
13.9026958293
16.2256747849
17.1386256828
16.1389403621
15.2621498162
17.9761450445
21.0228610687
16.302492319
15.4136887334
10.0732142998
9.2558526892
5.79919585717
6.30576751688
12.1251794172
11.6218037811
6.95724487821
6.7653669095
6.93697983961
7.33122515978
8.23005107913
10.786403841
13.9141981668
14.431506349
14.2115518476
13.5417974386
13.4569204688
14.0157209121
15.0398030792
15.5844498721
16.0863080024
16.9083674496
17.9465001567
19.1074980699
20.2297442055
21.3856820343
22.5917400651
23.3516714468
24.4940905346
25.0996670644
26.5470570283
26.8722392918
27.7223899915
27.2244655667
26.8694328716
27.195301644
27.7738059599
28.3533077358
28.8773760509
29.3649750281
29.8773624944
30.4443728508
31.0012941496
31.4438736258
31.7086007818
31.7834356852
31.6820180617
31.424033877
31.0219046674
30.4727015338
29.7551651873
28.8354620644
27.6777107393
26.2388259156
24.4663706576
22.3760223879
20.11067532
17.8593526689
15.7874206372
14.0624321705
12.8589840176
12.3891394202
12.7039226196
11.9671080325
13.8591895113
17.9298346377
20.9925599092
22.1422444232
21.1222454076
17.6888352847
15.4292866373
17.2196916742
19.4436019642
18.9364293116
17.9741756824
18.0864966085
22.7310389302
24.3453549785
19.3047437762
19.1088595628
12.211237682
9.19289236633
7.04628641522
6.60450983164
12.0989782622
8.65580599696
7.25155342562
7.38504698552
7.54003376009
8.25513384368
8.80991365542
13.5620182691
14.3325112955
14.4550803013
13.322493684
12.6174021058
13.0950366795
14.4548617784
14.9878949442
15.3134139978
16.096869227
17.0159506964
18.0573234634
19.2152680105
20.4985152644
21.7254235642
22.6174071172
24.0557820859
24.5871228811
26.1309358821
26.3272626699
27.4305526629
27.2540180105
27.0167511764
26.7329846989
27.1661444374
27.8657074731
28.524396632
29.0936099951
29.6183248347
30.1503509825
30.7018840508
31.2290108981
31.6582876358
31.9321489615
32.0287657615
31.9543633725
31.7271136059
31.3594649328
30.8464690169
30.1644489357
29.2757952045
28.133197711
26.6857358942
24.9093413583
22.8689344769
20.7301966218
18.6821982392
16.8772067341
15.4416171561
14.5277658085
14.1738137161
13.8991352333
13.8989489647
15.7446558823
20.7453380791
22.5841811747
22.6318454885
21.4139178529
19.0442925094
18.664095913
21.1552356376
21.5580604185
20.7342048875
20.1764714435
22.2202766506
25.0353606494
26.5421589185
21.9287268797
20.788271588
11.970106711
8.93703313563
8.21840500763
12.3141605214
12.2479386556
7.82716804046
7.93195447127
8.09981281138
8.19736322875
8.79352070371
13.2850375874
14.2554473319
14.425062226
14.0564928518
12.2722442156
12.2550763987
13.8231282315
14.5681498618
14.6530311618
15.1911703238
16.1289486639
17.1740620107
18.2487607263
19.4562861944
20.5932283224
22.0394524766
22.6952816216
24.0751909718
25.6656388318
26.273441933
26.0622772486
26.9662498174
27.2982875579
26.5758927902
26.7379919218
27.3160482937
28.0227043876
28.7104377076
29.3224941355
29.8845497339
30.4388310317
30.9909501747
31.5055233693
31.9276700129
32.2089042229
32.3252700659
32.2798004033
32.0896819705
31.7664393182
31.3024972397
30.6699422689
29.8243345838
28.7117002513
27.2901072684
25.5724714554
23.6636029819
21.7328142086
19.923689717
18.3116903804
16.9942302119
16.1479452003
15.781671034
15.7210451914
16.0451221319
16.0897641917
21.2892801475
24.6395666122
24.3039009445
23.4884728722
22.3516905072
22.9631973603
24.1735777932
23.414445196
22.7306008832
22.9899686736
25.4292307004
26.1757441481
26.8155889659
23.9337014451
21.7902596504
11.3075320126
8.93885310352
8.8995838984
13.3167957379
11.3243649394
8.51537981657
8.67175937977
8.97250655607
10.083398572
8.93808738655
14.0556248723
14.799184561
14.4818009549
12.9273551028
11.9756849774
12.3906857321
13.8856173805
14.3109201295
14.5494842976
15.2066984226
16.1269259629
17.2394234354
18.407456365
19.9853107654
21.3212419089
22.0128169419
23.91507147
24.0039376294
25.8253184354
25.8225577551
27.0375418105
26.4046715082
26.3321889512
26.5099007521
26.9139019908
27.5196185691
28.2140881438
28.9137291416
29.5646084619
30.1681064317
30.7498924629
31.3127534902
31.8276995449
32.250233373
32.5399237138
32.676690875
32.6644624312
32.5195128209
32.2515015879
31.85032196
31.2838426273
30.5021853361
29.4523306658
28.1131029198
26.5354500558
24.8443461549
23.1648477817
21.5206448271
19.9076943278
18.5585578023
17.8380666848
17.7945815941
18.054861028
18.2298928348
18.0879730115
19.058804946
25.1416711167
26.4784625799
26.119171933
26.3995431456
27.1186842972
26.5053467487
25.3416934915
25.121699603
26.2123893121
27.5475132199
27.501721435
26.9606369861
25.9772365265
24.6216591725
10.8556191962
9.43883746267
10.0507137062
13.4134940276
9.53067582892
9.54229334829
9.41773568487
9.69705486199
12.6349886657
11.43470107
14.8909123961
15.0915603867
14.5844113685
12.3293547027
12.037375004
13.5855600724
14.1021028035
14.0856148271
14.5142504641
15.3442935361
16.2488968523
17.3066801651
18.3358051761
20.121433768
22.2512869605
21.9668820163
23.8611541217
25.2393398893
26.0470785924
26.8097828814
26.4259421527
26.6010671902
26.0850421678
26.4397163819
27.0827289977
27.7455459147
28.4336003867
29.1371151013
29.8201185585
30.4686030264
31.0869889061
31.6703713877
32.194905512
32.6249654003
32.9274498916
33.0878444055
33.1144515652
33.0240233669
32.8234873499
32.5005384536
32.0214163751
31.3355565078
30.3992397548
29.2189076884
27.8744677148
26.4689491642
24.9979173281
23.3102039728
21.5344687523
20.3020264019
20.0578671932
20.5450896098
20.9996660994
21.042019589
20.642345226
19.2687598279
18.7088816951
28.4626613354
30.9085019697
31.4139708061
30.7635833978
28.8748909192
27.6462832049
27.8795260477
29.2040814219
29.7476297452
29.6791193185
29.5095390378
29.9250672704
30.1509519016
10.9218454958
10.327783575
13.3887274474
13.6441152682
9.73159715972
10.3256431614
10.1633785807
10.6089399199
12.233842291
14.8436278732
15.7556791199
15.397615632
14.868658409
12.4117589322
12.2086307873
14.0752890838
14.2205932889
14.0748747183
14.5350043483
15.4646485833
16.5802636215
17.655531907
18.500135631
19.7566796492
22.4075229047
23.6842930673
23.5479992042
25.3395700236
25.0835778532
26.8207309391
27.3213413219
26.5752759254
26.0731274555
26.5507253944
27.2791715511
27.9813905098
28.6771227802
29.3859490243
30.0920139543
30.784671942
31.4498123572
32.0651156849
32.6080685758
33.0524392566
33.3735487418
33.5640891533
33.6373839983
33.6109617884
33.4902256077
33.2629241997
32.8977737347
32.3506729643
31.5962279741
30.6694510682
29.6498760374
28.5333135056
27.0924578755
25.1767903302
23.4412118667
22.7521681228
23.3386904932
24.4362786308
25.0192162932
24.9144275917
24.1125833001
22.4016477151
19.9465942714
20.0622890438
32.5617147062
37.2358727919
35.2915914332
32.0205751092
30.5387507401
30.9062932347
31.9793806394
32.7056901287
33.3546164267
34.0848193793
34.7947035447
35.5218988851
11.3509231529
11.2363390954
15.0534386745
14.4230778656
12.62055306
11.5755050109
11.1408582153
12.0542279494
11.796074189
15.818130318
16.4488238234
15.7840673977
15.0217913801
13.0863304476
12.9681533949
14.5241013623
14.2678986465
14.1712290634
14.6461053928
15.4981088804
16.7066888244
18.1016651642
19.8141446183
19.8668290815
21.9184133827
24.0336429112
23.4693273006
25.5639941908
26.5482576381
26.1234357321
26.5335841602
26.0744742701
26.349520597
26.8648654234
27.5314652816
28.2392074124
28.9485204209
29.667981337
30.3877490089
31.1135097845
31.833005844
32.4981544003
33.0700254601
33.5341532881
33.881018811
34.1111044722
34.2408956514
34.28801307
34.2584222899
34.1441039132
33.9224131334
33.5671742927
33.0815319621
32.5130535735
31.8657972955
30.8967055474
29.3146242906
27.4690814292
26.2253188882
26.4572584176
28.2660597021
30.2577588506
31.0273690774
30.9232913372
30.0043626369
27.9990095256
24.8246583962
20.4077609701
28.1387285844
38.4204648473
40.5826311903
36.3074940753
34.3907450956
34.5703750111
35.6095484143
36.6478949068
38.2209102196
39.3408042096
39.4240887328
39.7206543456
12.002568819
11.9168386964
14.8465367514
14.9639913136
15.0001463041
12.7620414425
12.247865671
14.8484828421
12.2366873727
16.6851744528
16.9794698674
16.1788761818
15.1692914375
13.7426052906
15.4345432306
15.5647164162
14.4921849129
14.4053230628
14.8920625537
15.6275299186
16.6550154688
18.0911654472
21.0164992776
21.9947430758
21.4428933391
24.0720871501
25.1219225194
25.1578839813
26.5013142894
27.0662131382
26.8334457507
26.1187564289
26.5489707841
27.1859299313
27.8386189081
28.530827722
29.2397182101
29.9812045931
30.7302533902
31.4750261663
32.2326966331
32.9573899708
33.5790084226
34.074198726
34.4540305939
34.7344700013
34.9325464961
35.062226958
35.1316188226
35.1430343264
35.09362485
34.9922263962
34.8755256752
34.7529356461
34.4065894517
33.3137175734
32.0667235817
31.6769536645
30.9405148187
32.064178349
34.0466510106
34.2729172185
33.0260850579
31.5355825355
28.8439740952
25.4692324796
22.1164309037
15.1967116546
14.7186465762
30.7781086515
38.3708034975
37.1411659879
32.3399954805
33.0265243666
36.6444261855
40.5012139215
43.6078545371
44.8423137047
44.9571912515
45.2219414338
12.7095602067
12.6495042641
12.2989072963
15.3249580604
15.5750400627
13.5843611853
13.2400470495
15.8741134215
12.9463887874
17.5886248356
17.4630223617
16.587858978
15.4186843559
14.0916506071
16.5803418139
16.1881269037
14.971644687
14.8202399566
15.245537502
15.9268215089
16.7262334664
17.965869955
21.4904877553
23.0571247388
21.7816694271
24.0667168899
25.6151027733
24.7334701721
26.1178053565
26.671962039
26.0531899244
26.4535348042
26.9787182222
27.5585930659
28.1785965854
28.8724323134
29.5825202196
30.3102457112
31.0913894462
31.8853253023
32.6756130254
33.4450737608
34.1239567203
34.6686948673
35.0964172869
35.4409813352
35.7195400004
35.9369797542
36.106733542
36.2488835404
36.3919923357
36.6103709705
36.9657755212
37.3239157449
36.9763510489
35.6120068315
36.0934510437
31.2155736637
26.4171617803
20.8815925441
0.265016629279
5.38189078332e-05
1.86402958063e-07
1.901828148e-08
1.50921325125e-09
4.25114923379e-10
5.0039225127e-09
5.11277317908e-08
5.77541720353e-07
1.50848565706e-06
0.00250495800821
0.657539219285
38.4775425744
45.6700965823
42.6489231356
42.3499344471
46.4560667702
49.9125969197
51.7390468929
52.1496352476
13.5956052574
13.6921837533
15.9781950931
16.0068493305
16.0685209979
14.2879717568
14.3034055126
16.7677362196
13.9937410715
18.3818136384
17.930867996
17.0228669765
15.7507038499
14.5092725116
16.8889176731
16.4425719896
15.4457943589
15.2975788961
15.6430700219
16.2482626389
16.9721696807
17.9615452687
20.9445852207
23.8569974789
24.0682587492
23.4892692484
25.8089115499
26.7249903152
25.1501920592
25.3543993428
25.9939752175
26.6834306312
27.3311563842
27.9426572761
28.5741097029
29.2432885382
29.9587144989
30.7064827318
31.4815358693
32.3161957392
33.1646787648
33.9802281116
34.708146996
35.3094844226
35.8054725116
36.2338631477
36.6065591723
36.9187074125
37.1782030488
37.4283131706
37.7741213294
38.3744144935
39.2805950538
40.0294483808
39.2500936559
35.5855564841
23.6825204759
6.32114455866e-11
6.95260351101e-14
1.30336461275e-15
2.20929233635e-17
6.39203088164e-20
1.81647564643e-22
3.14428496285e-27
2.45946902682e-27
5.97102523223e-27
4.02494309452e-26
1.88526087393e-25
6.96416307893e-25
4.42561680407e-24
3.46515916439e-24
3.00621397232e-22
1.71103805764e-19
1.71995835299e-17
1.30515784492e-15
3.00546313805e-13
5.05914021066e-09
49.8411629353
56.9983470347
56.6647111938
14.4322793575
14.6253827263
17.6122762853
16.7268495038
16.2528081199
14.9916668293
15.3294880578
17.5375690754
17.5129853335
19.3715070533
18.4676131435
17.5546106276
16.1723673533
15.0683707587
17.2168859892
16.6292159381
15.8940544331
15.7809535666
16.0505647891
16.5699901185
17.253987269
18.1814699265
20.4610611702
24.105383666
25.4045314678
23.2813415832
25.3089186042
26.8078238666
26.7704521935
25.7465024336
26.0620262928
26.8927704831
27.6811906258
28.3669606872
28.9682025162
29.6448610946
30.3595802836
31.1297993316
31.9295540487
32.7839430654
33.6876209316
34.5669555642
35.3404786984
35.9864243053
36.5629360058
37.1251921813
37.6348466951
38.0256409859
38.2992085718
38.621967527
39.1987910119
40.1965153398
41.6842864243
42.7736253221
32.8717714371
6.23499669786
3.49553397837e-17
1.41552257215e-19
4.09346213647e-21
5.95933050615e-23
4.84183010362e-26
8.07905752795e-29
5.6949647289e-30
0
0
0
0
0
0
0
0
7.92072474655e-34
2.67149647918e-31
3.99598930711e-29
2.31834502797e-26
3.23815904307e-23
1.75354588289e-18
2.66297111069e-14
2.07615427897e-07
61.8506566257
15.1169178646
15.3317884844
19.7335877184
17.2934976494
16.1991030213
15.612484202
16.0722389666
17.6542593802
19.1014779172
20.5033711602
19.1608479135
18.2228053674
16.844533473
15.9132446638
17.7503420504
16.9645931637
16.4158425403
16.3099946418
16.49687524
16.928967173
17.5390535076
18.3966306452
20.2617755771
23.9721730114
26.3806148959
25.7105913022
24.8099801493
26.1715791886
26.5659779593
25.8114716088
26.4883566409
27.3390598703
28.1729700559
28.8414828048
29.4640937832
30.0855979471
30.8128197802
31.5847965711
32.4167193106
33.3025327219
34.2424007943
35.1889897713
36.0464462345
36.7391641484
37.3911954859
38.1059082264
38.7748996709
39.2184576396
39.4652870835
39.8337203854
40.6134914836
41.8948798489
43.6926706034
33.3552831168
2.31478136178e-13
5.06073189948e-20
1.65969971452e-23
6.71114018222e-25
9.15043761089e-27
2.5092986754e-29
0
0
0
0
0
0
0
0
0
0
0
0
0
1.02058529312e-32
1.01417344203e-31
2.2232879247e-30
1.078041571e-28
5.98661221449e-25
4.98303813871e-16
9.6056103403e-21
15.6490988952
15.8548520405
21.7651998116
17.7310688276
16.3782047382
16.1837598769
16.8788771562
17.1064656291
20.0464533749
21.3154606397
19.8292958036
18.9041924705
17.7090481565
17.7535583573
18.4956437872
17.5395640747
17.1303030845
17.0304832277
17.0510910563
17.3741003882
17.8768928226
18.6531609322
20.2447038583
23.8151843357
26.7813113498
27.3292975255
24.7162045557
25.1906898783
25.4495531526
25.9129947595
26.7868585945
27.8073802109
28.6520055971
29.3621038064
30.008108307
30.6898439869
31.3324420676
32.1041339738
32.948062148
33.8499390958
34.8613380838
35.8887760025
36.8137323547
37.5042711067
38.1785966732
39.4197364833
40.9796641179
41.5863507974
41.0409024866
41.2357079714
42.1177999758
43.4341316639
32.5016818107
2.67804880826e-14
4.03617036467e-19
1.81068948559e-30
1.82972415642e-27
2.98560558299e-29
0
0
0
0
0
0
0
0
0
0
0
0
0
0
0
0
0
0
1.576772281e-31
1.06776414521e-30
1.96904561107e-28
97.4402870187
16.1048309476
16.2766461502
21.6288909593
17.2400295182
16.6205724103
16.6766441938
17.7905002852
17.1620111846
20.8508215478
22.0667023742
20.460082941
19.5330547616
18.3845641176
19.9188834701
19.5207669465
18.3153384751
17.9512976391
18.0922586322
17.8259630406
17.9875458084
18.3136848399
18.9560441067
20.3667051574
23.6472241291
26.6424495027
28.4096199301
27.2516787936
26.4343587938
26.2846144477
26.1366255832
27.0607952083
28.3935255355
29.1023914331
29.892957179
30.7635635975
31.2987554002
31.9425766832
32.7229162649
33.5889511459
34.5046001616
35.4930321962
36.5849122701
37.647207114
38.6735572857
39.81912415
41.3885665012
42.7227461031
42.9281803357
42.9417234504
43.4686110577
44.5715758541
36.027658447
1.21787210276e-13
1.1116740291e-18
1.46109815624e-22
1.98445134762e-24
0
0
0
0
0
0
0
0
0
0
0
0
0
0
0
0
0
0
0
0
0
0
4.85170288982e-31
3.53132952126e-20
16.6186739346
16.7663674815
21.2964537345
16.9662402589
16.9354339039
17.0785043181
18.5763588407
17.6548571011
21.5599457346
22.8036382643
21.0831635327
20.1569605141
18.947809997
20.6947422978
20.4690980366
19.1557832239
18.7592140396
18.998383474
18.7496735467
18.8188711526
18.9464361083
19.3159351103
20.6486810065
23.6134256408
26.3529330845
28.7115591431
28.428905387
27.0114233276
25.8531945826
26.6128153683
27.5353405155
28.8347187457
29.8920278289
30.8151846952
31.589747629
32.0190250381
32.6376572475
33.430762006
34.3174092964
35.2720679935
36.279536101
37.4548007338
38.812995318
40.3699128896
41.5065181515
42.1831355262
43.1282293493
43.8890827758
45.2221621018
46.8064098111
41.5267817332
1.10971832065e-12
1.47349407463e-18
2.54096498594e-22
5.21165003925e-25
1.26184072615e-26
4.23557099957e-29
0
0
0
0
0
0
0
0
0
0
0
0
0
0
0
0
0
0
0
0
0
8.15344988307e-32
1.07877589145e-31
17.3691518963
17.5164021022
21.0133089198
17.2789076657
17.5026174529
17.5748425351
18.6288672402
18.3874163742
22.083855687
23.5056360158
21.7366298582
20.8252843358
19.6213232216
21.395898932
21.3185422417
20.0743101877
19.6181010862
19.8777880534
19.6523202425
19.7930782694
19.8433605756
19.8329164963
21.123604036
23.7789728117
26.210379433
28.7800465128
28.9805663894
27.7962780397
26.3771051102
26.8353732643
28.1059283804
29.0212612998
29.9683864889
31.0849622135
32.4963717821
33.0461543443
33.5824114862
34.249660409
35.102321532
36.1319676652
37.2508037639
38.5595896767
40.5070377997
42.2438022281
42.7353994679
43.2867936676
44.7428643442
47.8050031414
51.4108372534
45.2877988657
3.17049980295e-13
5.26675683736e-20
2.1795071405e-24
7.14588862703e-28
4.48366188956e-30
9.08801929298e-30
1.39558064231e-30
0
0
0
0
0
0
0
0
0
0
0
0
0
0
0
0
0
0
0
0
0
6.02645409735e-33
2.73643572516e-32
18.4965206897
18.6066391735
21.3436850803
18.2264702676
18.6567886388
18.4374286832
18.9775010951
19.6881433614
22.1804711167
24.0435438705
22.4491219335
21.5601831772
20.3970381903
22.1924543842
22.1934476219
21.1471501451
20.6515584835
20.895791981
20.5630289379
20.8610324883
21.0413873882
20.5678537661
21.6789677525
24.1478250358
26.2670096636
28.639875166
29.227088462
28.48001993
28.2965464234
27.6838580233
28.4875880413
29.760805297
31.2566534329
31.6806715854
32.7939979753
34.0623505726
34.6467943338
35.3713619046
36.1306226113
37.0814808384
38.3376608683
40.3363362818
42.8822409756
43.9176950724
44.0168554172
45.353563539
49.6943067624
57.0468049906
51.4083479927
12.1794432344
7.97942090737e-22
7.44987743073e-27
5.09745172468e-29
0
0
0
0
0
0
0
0
0
0
0
0
0
0
0
0
0
0
0
0
0
0
0
0
0
0
0
20.0657166731
19.9551856185
22.1932717139
20.0938465965
20.5868776617
19.7032587777
19.9348153787
21.559094921
22.4394776537
24.6828180842
23.2717163463
22.3714107149
21.2499177897
23.0258608845
23.0640078382
22.3255213759
22.1440449679
22.2182285788
21.5672733243
22.0194209392
22.5283975289
21.6036497469
22.1274040708
24.6093997358
26.5308970953
28.5257677677
29.3936946105
28.6652561914
29.4775051118
29.2493988969
29.5203723648
29.5426203411
31.0571374018
32.8560706036
33.747859656
34.8210063732
35.7108175966
36.4727845009
37.3630592183
38.337726943
39.9905128541
42.9940104335
45.2270104495
45.7775211641
46.5275116246
49.9866374397
57.4637980502
54.5139746763
29.286066898
7.12097345829e-24
1.24489646032e-26
5.70022216342e-29
0
0
0
0
0
0
0
0
0
0
0
0
0
0
0
0
0
0
0
0
0
0
0
0
0
0
0
0
21.7213530582
21.2224114004
23.1036528193
22.55316957
22.2896847899
21.1599171054
20.9834321928
22.6970918701
21.7752956283
25.188431717
24.1864884491
23.2507139993
22.1694709136
23.8686202287
23.8729389626
23.3140917555
24.175532597
23.8033200418
22.6893112509
23.2865364332
23.8644488351
22.9211735138
22.3359284762
24.6240664422
26.7195315898
28.4485632647
29.4595055623
28.7560835555
29.8836753213
30.530327993
30.8994025889
30.3253356051
31.2709416628
32.8284035688
34.6612692075
36.0345219421
37.0004343573
37.7383322559
38.613320846
39.9708348803
42.7700296205
46.0092092563
47.7885143429
48.7922302786
51.1535056394
56.1892513468
52.1819429413
29.9318194743
1.91738378858e-23
2.77581756538e-26
9.72144861585e-29
0
0
0
0
0
0
0
0
0
0
0
0
0
0
0
0
0
0
0
0
0
0
0
0
0
0
0
0
0
22.5508579517
22.1060036475
23.6865018607
23.6085645455
23.3586903867
22.5288800695
22.1722708975
24.0651050584
22.8280718761
25.8258740064
25.1114561956
24.1694898178
23.1505315072
24.7359099426
24.6852666756
24.1399833423
25.1582007621
24.9246804918
23.769975157
24.5216351615
24.6260264057
23.7590413705
23.3366898916
23.5726994014
26.2160093203
27.9485665437
29.2418995834
28.7179209843
29.9563899821
31.0870995551
32.0380511601
32.0985642864
31.6844580217
32.9045694757
34.9070130657
36.9122666726
38.403020342
39.3958199282
40.2669903929
42.6262575953
46.2289584212
49.1479787002
50.7541312573
52.6927822255
56.6798620921
52.9837837476
25.6579104784
1.01292597166e-22
9.12444012093e-26
2.59868778453e-28
0
0
0
0
0
0
0
0
0
0
0
0
0
0
0
0
0
0
0
0
0
0
0
0
0
0
0
0
0
0
22.6553847818
22.6492062825
24.0354975316
23.8394471486
24.0320020171
23.5854048522
23.2031072616
25.4098390643
24.4925105395
26.6331555654
26.0898298797
25.1135472856
24.188413555
25.6430447098
25.5602675838
25.0856829773
25.9783844538
25.8991102468
24.8881374942
25.5528576266
24.5512306936
24.5277940644
24.3726686662
24.6314309775
25.4441930207
26.5096921683
28.3866649978
28.4705759131
29.545488102
31.1174782135
32.4993989435
33.4492504536
33.2000807997
33.702064395
35.1380371017
37.1297972685
39.3247232601
41.1214921567
42.6935633817
46.0556521865
49.7037152027
52.1433571612
53.449959372
55.3215983914
50.9025543307
32.9257765397
33.8797660548
3.16942511102e-25
7.09980873496e-28
0
0
0
0
0
0
0
0
0
0
0
0
0
0
0
0
0
0
0
0
0
0
0
0
0
0
0
0
0
0
0
22.9003923757
23.0239072861
24.3255928231
23.0202835529
24.3202899322
24.1668717464
23.8913293164
26.0348650271
25.3498104954
27.4437537344
27.0935665958
26.0510663243
25.2883627869
26.5771673184
26.4727395586
26.160571426
26.89511503
26.9830156603
26.1320371082
26.9606711421
25.8977138038
26.1275086565
25.6341764852
25.9388494278
27.1976618824
27.832663412
28.000344669
28.1473294358
29.0794921253
31.0243340259
32.4687310701
33.6917049672
34.4747731299
34.7938108086
36.4033221929
37.8580058518
40.0718227765
42.7142530581
45.687623133
49.7061454387
52.9836753738
54.6672386171
54.2204160144
50.9679847973
47.4512443553
29.6513578048
2.65954768908e-24
6.05459045324e-27
0
0
0
0
0
0
0
0
0
0
0
0
0
0
0
0
0
0
0
0
0
0
0
0
0
0
0
0
0
0
0
0
23.5778410235
23.665547078
24.6323159846
23.4123841234
24.5683919625
24.4853437099
24.3660069461
26.2528271552
25.9375057357
28.0415301557
28.0616485402
26.9217368624
26.4349421318
27.4900464013
27.339211789
27.1972366418
27.7786715469
28.1465326108
27.4222126073
28.3907559905
27.6616706057
28.1442466788
27.9807134293
26.9754386741
28.0030667791
28.9345594266
29.1245573772
27.9345415299
28.5456343512
30.8770860516
32.5616266864
33.3642968135
34.3049048892
35.1065470547
36.7826124423
38.5105862181
40.9232412839
44.3183528429
48.861464857
53.4413715846
56.0300307809
56.2803680473
53.8302282173
48.5335606904
30.6490781517
31.5550366252
4.21907665062e-26
1.71084496198e-28
0
0
0
0
0
0
0
0
0
0
0
0
0
0
0
0
0
0
0
0
0
0
0
0
0
0
0
0
0
0
0
0
24.4328069947
25.416457331
25.0804735179
24.3310446889
25.077616351
24.8504466087
24.8112679827
26.4287411198
26.4608063585
28.2956797127
28.9825696002
27.6848859171
27.4408292916
28.2334163425
28.1395798023
27.9806241118
28.1368046074
29.1956732682
28.7598407404
29.6377591007
29.5574761445
29.4931855209
29.4006480329
29.0614409988
28.4281311628
29.1383434829
30.0292785737
27.4775987935
27.9919278109
30.1731722474
32.5486006548
33.814919027
34.8761383451
35.066191564
36.6047344481
38.7103772014
41.425606044
45.7993753433
52.0240237619
57.0221980759
58.5515163382
54.7941422999
52.6581141661
51.9337388911
34.6446199872
2.8597284258e-25
7.29871478333e-28
0
0
0
0
0
0
0
0
0
0
0
0
0
0
0
0
0
0
0
0
0
0
0
0
0
0
0
0
0
0
0
0
0
25.0607195931
26.0853372971
25.7357078782
25.1455668665
25.7220730803
25.3682068767
25.3080670076
26.6668916956
26.954717888
28.2829686492
29.7847270914
28.3928890314
28.0437215405
28.8299406448
28.9747033582
28.6707922596
28.4133327228
29.9410551582
30.1045326589
30.7192754764
30.8781978351
31.0958018354
30.0770406133
30.1024636869
29.6669308969
30.6875998597
31.3115152559
29.0200143644
27.4831335892
29.1125958042
31.7616259143
33.867131398
35.0760205578
35.5193711352
36.1789726628
38.3582506418
41.301123963
46.9057564362
55.0246859453
60.6271034499