/*--------------------------------*- C++ -*----------------------------------*\
| =========                 |                                                 |
| \\      /  F ield         | OpenFOAM: The Open Source CFD Toolbox           |
|  \\    /   O peration     | Version:  v1806                                 |
|   \\  /    A nd           | Web:      www.OpenFOAM.com                      |
|    \\/     M anipulation  |                                                 |
\*---------------------------------------------------------------------------*/
FoamFile
{
    version     2.0;
    format      ascii;
    class       surfaceScalarField;
    location    "728";
    object      phia;
}
// * * * * * * * * * * * * * * * * * * * * * * * * * * * * * * * * * * * * * //

dimensions      [0 3 -1 0 0 0 0];
oriented        oriented;


internalField   nonuniform List<scalar> 
12640
(
4.95645907618e-08
-5.23533631653e-08
9.45138016418e-08
-4.73083708392e-08
1.33983321704e-07
-4.12670413619e-08
1.67661546532e-07
-3.52215524273e-08
1.94289274637e-07
-2.79940708167e-08
2.13591972151e-07
-2.0418509835e-08
2.30358657031e-07
-1.77330480949e-08
2.54350263893e-07
-2.48664845664e-08
2.85775813207e-07
-3.22584473417e-08
3.17342264916e-07
-3.2330888132e-08
3.48265457352e-07
-3.16324622643e-08
3.81245257165e-07
-3.36312698404e-08
4.14080370819e-07
-3.34504456594e-08
4.45839623197e-07
-3.23187285434e-08
4.78449072731e-07
-3.31168122828e-08
5.15220822546e-07
-3.72025151244e-08
5.54261491815e-07
-3.94476990453e-08
5.92221710656e-07
-3.83418892644e-08
6.28760764376e-07
-3.69542112948e-08
6.66878618921e-07
-3.85502953935e-08
7.1152754775e-07
-4.51028201685e-08
7.62273057391e-07
-5.1182897593e-08
8.14713684842e-07
-5.28701295267e-08
8.66728947053e-07
-5.24091296524e-08
9.17755622036e-07
-5.14081982811e-08
9.6818649923e-07
-5.07842664149e-08
1.01895934455e-06
-5.11242676517e-08
1.0697102201e-06
-5.10787604302e-08
1.1199115961e-06
-5.05307242592e-08
1.16988949808e-06
-5.02859171318e-08
1.22065965592e-06
-5.10842105489e-08
1.27177183676e-06
-5.14090623913e-08
1.3227036832e-06
-5.12339181356e-08
1.37536265406e-06
-5.29560866451e-08
1.42957174333e-06
-5.45270057901e-08
1.4846045318e-06
-5.53434383346e-08
1.54059591713e-06
-5.63192529635e-08
1.59590368159e-06
-5.56336614223e-08
1.64938624595e-06
-5.38249636362e-08
1.70146629903e-06
-5.24146758796e-08
1.75365389839e-06
-5.25298370147e-08
1.80313678266e-06
-4.98077802262e-08
1.84599134759e-06
-4.31859430721e-08
1.8841947468e-06
-3.85309097646e-08
1.91978811602e-06
-3.59385333696e-08
1.9523831689e-06
-3.29412549624e-08
1.98152487187e-06
-2.95095634505e-08
2.00630916097e-06
-2.51574107612e-08
2.02666425752e-06
-2.07533366204e-08
2.04523066874e-06
-1.89746336957e-08
2.06524847759e-06
-2.04610158369e-08
2.08266181558e-06
-1.78758598916e-08
2.08801491214e-06
-5.85913423028e-09
2.08452974123e-06
2.93647904711e-09
2.07150869367e-06
1.24174911542e-08
2.04535340864e-06
2.55013012291e-08
2.02046779142e-06
2.41291615292e-08
2.00325550908e-06
1.63250952584e-08
1.98063103059e-06
2.15653427874e-08
1.95305488825e-06
2.63081259413e-08
1.93608993927e-06
1.54028861188e-08
1.90995978925e-06
2.41727508556e-08
1.82357358607e-06
8.39963892787e-08
1.66074999807e-06
1.60666280618e-07
1.50132951712e-06
1.57984468919e-07
1.38716698806e-06
1.13184487178e-07
1.28291916546e-06
1.03385215447e-07
1.17787141235e-06
1.04113016164e-07
1.06638500467e-06
1.10414655394e-07
9.43478387049e-07
1.21714597117e-07
8.16576524353e-07
1.25667182629e-07
6.94920580875e-07
1.20476957403e-07
5.81430353527e-07
1.12388099127e-07
4.64083091746e-07
1.16288777053e-07
3.64522900633e-07
9.86003028281e-08
2.78872010781e-07
8.47292972179e-08
2.1821987904e-07
5.97078173116e-08
1.51366476245e-07
6.5868463871e-08
9.12125977537e-08
5.88975448145e-08
9.01499767179e-08
2.64743138384e-08
-8.05721516907e-08
6.12057939964e-08
-8.38685864286e-08
9.56990660997e-08
-7.73059753844e-08
1.3134885144e-07
-7.21748697018e-08
1.74797223665e-07
-7.26066349199e-08
2.08576321808e-07
-5.53585006874e-08
2.32082109523e-07
-4.22747485027e-08
2.57929720584e-07
-5.1710230646e-08
2.86955423526e-07
-6.2168288363e-08
3.1844231397e-07
-6.46574679317e-08
3.50283902855e-07
-6.41970978649e-08
3.80278305928e-07
-6.43223551234e-08
4.1036255911e-07
-6.41259140659e-08
4.41816015388e-07
-6.43206500899e-08
4.75316798901e-07
-6.70644341764e-08
5.13055518668e-07
-7.53911423889e-08
5.50789690077e-07
-7.75618311196e-08
5.82964430952e-07
-7.09466359056e-08
6.15992744924e-07
-7.03936520196e-08
6.56469912582e-07
-7.94998134759e-08
7.0507139893e-07
-9.41590895736e-08
7.59444433062e-07
-1.06036146632e-07
8.13619789236e-07
-1.07458190472e-07
8.64136410147e-07
-1.03350810227e-07
9.14118448139e-07
-1.0175373051e-07
9.65727899541e-07
-1.0277757925e-07
1.01678390951e-06
-1.02512318774e-07
1.06695237974e-06
-1.01604857167e-07
1.11715232679e-06
-1.01040813731e-07
1.16750991381e-06
-1.00980311952e-07
1.2177544213e-06
-1.01620356813e-07
1.26788619052e-06
-1.01856936013e-07
1.31788549666e-06
-1.01520864313e-07
1.37020768434e-06
-1.05601032343e-07
1.42609139314e-06
-1.10704169753e-07
1.48171850917e-06
-1.11311635332e-07
1.53729981957e-06
-1.12217251264e-07
1.59450675516e-06
-1.13189185554e-07
1.65225908436e-06
-1.11901369121e-07
1.70616792153e-06
-1.06681623649e-07
1.74741273316e-06
-9.40973623963e-08
1.77987201035e-06
-8.26084059177e-08
1.81629937154e-06
-7.99259450483e-08
1.85627086998e-06
-7.88470978024e-08
1.89542191797e-06
-7.5417795488e-08
1.93274806589e-06
-7.06306462658e-08
1.96689289209e-06
-6.40063762759e-08
1.99774979505e-06
-5.64032913322e-08
2.02459661742e-06
-4.7985355361e-08
2.04294905215e-06
-3.77525973952e-08
2.04898666187e-06
-2.69249371642e-08
2.05156811978e-06
-2.09273902051e-08
2.067571932e-06
-2.23579276463e-08
2.07957408798e-06
-9.62675808582e-09
2.07365480893e-06
1.77383776367e-08
2.06761034677e-06
3.08622508228e-08
2.06026608224e-06
3.06967306753e-08
2.04401111845e-06
3.16583062434e-08
2.0267630717e-06
3.77241219586e-08
2.00493284788e-06
4.68148331856e-08
1.95238304602e-06
6.63912428985e-08
1.89069871005e-06
8.39280593881e-08
1.79593895196e-06
1.76483073788e-07
1.64047629452e-06
3.14113684482e-07
1.45992598038e-06
3.37214063376e-07
1.29429718607e-06
2.77885556807e-07
1.19442874577e-06
2.02419238234e-07
1.12193609688e-06
1.75687628104e-07
1.03158779297e-06
1.99715242346e-07
9.15274516495e-07
2.36859724096e-07
7.8277707662e-07
2.5697896373e-07
6.52290027897e-07
2.49848616221e-07
5.45111293059e-07
2.18493753061e-07
4.6518768032e-07
1.95117358021e-07
3.88405172028e-07
1.74306124904e-07
3.17809065218e-07
1.54253400749e-07
2.44315928164e-07
1.32093549656e-07
1.78925981555e-07
1.30064051433e-07
9.32825353719e-08
1.43003363805e-07
1.82445894336e-07
3.29357972138e-08
-1.14817319724e-07
4.93558764622e-08
-1.01812407908e-07
8.94825765893e-08
-1.18933931149e-07
1.35971965931e-07
-1.19989384068e-07
1.79088402113e-07
-1.16894426357e-07
2.0171329165e-07
-7.89463655683e-08
2.17261823764e-07
-5.88379765298e-08
2.45544539866e-07
-8.10968736319e-08
2.77816265283e-07
-9.54580207346e-08
3.10272567326e-07
-9.79955764074e-08
3.42337561653e-07
-9.70473795902e-08
3.72662592641e-07
-9.52973684202e-08
4.02449457754e-07
-9.44635603614e-08
4.34172415449e-07
-9.6522954044e-08
4.65071995248e-07
-9.84104625709e-08
4.83185328737e-07
-9.39160665651e-08
4.92982686014e-07
-8.7773619254e-08
5.17254216262e-07
-9.56285575031e-08
5.64209689495e-07
-1.17802506884e-07
6.3116437148e-07
-1.46926428725e-07
7.00255570722e-07
-1.63735394142e-07
7.55694462405e-07
-1.61926209926e-07
8.05214191977e-07
-1.57415873606e-07
8.57150912545e-07
-1.55686846596e-07
9.09309748017e-07
-1.54303974421e-07
9.59531099415e-07
-1.53359208616e-07
1.00937258468e-06
-1.52713839365e-07
1.05967310616e-06
-1.52239957711e-07
1.11001424334e-06
-1.51718241746e-07
1.16070777317e-06
-1.51985143791e-07
1.21048149103e-06
-1.51707189862e-07
1.26046795405e-06
-1.5214452546e-07
1.31205237752e-06
-1.53409638593e-07
1.36173564483e-06
-1.55587264941e-07
1.41530987991e-06
-1.64608007533e-07
1.47606940727e-06
-1.72395261109e-07
1.53345392887e-06
-1.69942043935e-07
1.58894297641e-06
-1.69012589099e-07
1.64805923409e-06
-1.71364496548e-07
1.70481839705e-06
-1.63775792922e-07
1.75674550936e-06
-1.46366195424e-07
1.80436204326e-06
-1.30554003981e-07
1.84674007372e-06
-1.22642503182e-07
1.88538596826e-06
-1.17825527274e-07
1.9213375742e-06
-1.11717220072e-07
1.95417547075e-06
-1.03816806465e-07
1.98400549367e-06
-9.42043409085e-08
2.01055441538e-06
-8.33264072396e-08
2.03338670689e-06
-7.12156983587e-08
2.05294096931e-06
-5.77159252183e-08
2.06996962394e-06
-4.43922366923e-08
2.08232784134e-06
-3.37479407511e-08
2.08243389124e-06
-2.29684752685e-08
2.07545378383e-06
-3.19026160592e-09
2.07427813985e-06
1.83076026858e-08
2.07318002087e-06
3.12776636793e-08
2.06294727942e-06
4.01375540656e-08
2.0446618104e-06
4.90213213533e-08
2.02126188858e-06
6.0032076034e-08
1.99038375101e-06
7.64052992941e-08
1.95077404954e-06
1.04451144784e-07
1.8625504714e-06
1.70297724967e-07
1.68559875711e-06
3.51468364955e-07
1.46356238323e-06
5.34511844866e-07
1.30121841509e-06
4.98370326102e-07
1.22950123252e-06
3.48697623425e-07
1.14665222128e-06
2.84439659291e-07
1.0435707258e-06
2.77909603435e-07
9.32976678014e-07
3.09354406897e-07
8.12729734857e-07
3.5605639142e-07
6.9895716541e-07
3.69663204686e-07
6.11093316266e-07
3.36607709252e-07
5.36340275798e-07
2.92120699007e-07
4.61830986615e-07
2.6852634427e-07
3.76469429644e-07
2.58602946007e-07
2.91418104082e-07
2.38224301996e-07
2.19651935339e-07
2.02782827763e-07
1.65671542537e-07
1.82947671927e-07
7.10215110973e-08
2.36304757484e-07
2.52927226714e-07
2.19193201992e-08
-1.3820974936e-07
2.94412107889e-08
-1.10388515964e-07
7.28904067455e-08
-1.6372364319e-07
1.10149378093e-07
-1.58463503562e-07
1.15761819094e-07
-1.23431187876e-07
1.05208311829e-07
-6.89293671644e-08
1.47229124856e-07
-1.01683412352e-07
2.12715557516e-07
-1.47758341211e-07
2.59448972344e-07
-1.43262439131e-07
2.95918841857e-07
-1.35387703622e-07
3.30110378509e-07
-1.31980927564e-07
3.61866100007e-07
-1.27656020793e-07
3.89623739159e-07
-1.22731560583e-07
4.05156658368e-07
-1.12494880003e-07
4.1131532014e-07
-1.04990711104e-07
4.26224155186e-07
-1.09271929163e-07
4.63692362328e-07
-1.25700347528e-07
5.23201342182e-07
-1.5562390919e-07
5.92396930901e-07
-1.87494243272e-07
6.50271146138e-07
-2.05291396452e-07
6.96772741622e-07
-2.10705542486e-07
7.45974907095e-07
-2.11586824678e-07
7.97574515393e-07
-2.09443443364e-07
8.48111376529e-07
-2.06633944129e-07
8.98048144913e-07
-2.04620803509e-07
9.47785299851e-07
-2.03466673531e-07
9.9818943044e-07
-2.03465768729e-07
1.04872749782e-06
-2.03124338544e-07
1.09966648467e-06
-2.02983466208e-07
1.14977748459e-06
-2.02415818618e-07
1.20092362395e-06
-2.0315874245e-07
1.24983390199e-06
-2.01355112992e-07
1.29795118965e-06
-2.01834632964e-07
1.35565910297e-06
-2.13620944134e-07
1.41393755986e-06
-2.23212901514e-07
1.47169987486e-06
-2.3049772901e-07
1.53725462468e-06
-2.35837063952e-07
1.60058209272e-06
-2.32684827619e-07
1.65465381853e-06
-2.25772604436e-07
1.70470064236e-06
-2.14164706309e-07
1.75473228402e-06
-1.96734511568e-07
1.80324402131e-06
-1.79405087504e-07
1.84735008559e-06
-1.6708073323e-07
1.88700499617e-06
-1.57818591962e-07
1.92317234679e-06
-1.48222947384e-07
1.95610770674e-06
-1.3710307081e-07
1.98589997298e-06
-1.24354391029e-07
2.01237977461e-06
-1.10182030574e-07
2.03539218454e-06
-9.46160743626e-08
2.05505625142e-06
-7.77899465547e-08
2.07091084413e-06
-6.06742968907e-08
2.08070305997e-06
-4.39968218722e-08
2.08278572776e-06
-2.55409209345e-08
2.0817894131e-06
-2.73380785162e-09
2.07988229244e-06
1.96141862366e-08
2.07322729822e-06
3.72475963193e-08
2.05957294784e-06
5.30031100538e-08
2.0376204611e-06
7.00543919302e-08
2.00489855766e-06
9.1681272413e-08
1.95497680453e-06
1.25075496948e-07
1.87191435777e-06
1.86070176913e-07
1.73318409141e-06
3.07421891782e-07
1.57850729015e-06
5.04517471767e-07
1.44135059457e-06
6.70190917747e-07
1.28543352753e-06
6.53104372222e-07
1.14531327958e-06
4.87932634132e-07
1.03956315193e-06
3.89417415289e-07
9.48463173684e-07
3.682181842e-07
8.61296730615e-07
3.95641368233e-07
7.68986737045e-07
4.47367214589e-07
6.69478494968e-07
4.68070802074e-07
5.72263746699e-07
4.32697474004e-07
4.77400370219e-07
3.85952748989e-07
3.85953680715e-07
3.59031271289e-07
3.02062303119e-07
3.41545414213e-07
2.16627600888e-07
3.22691627396e-07
1.42943858363e-07
2.75625940234e-07
9.56902081619e-08
2.29484136309e-07
4.88543049282e-08
2.82385514431e-07
3.01309464868e-07
2.63135999994e-09
-1.41458383535e-07
2.45389797561e-08
-1.33134190483e-07
5.78773438486e-08
-1.98133619201e-07
8.39419203707e-08
-1.85445748587e-07
7.91318736572e-08
-1.19312760471e-07
1.04022012857e-07
-9.4490115732e-08
1.58065365393e-07
-1.56720302086e-07
1.98328059877e-07
-1.89103817485e-07
2.35866516142e-07
-1.81833877912e-07
2.73834786842e-07
-1.74219533047e-07
3.11382470957e-07
-1.70209183461e-07
3.36611949462e-07
-1.53439559651e-07
3.43671674072e-07
-1.30234459564e-07
3.51589488864e-07
-1.20858251329e-07
3.7978612247e-07
-1.33686383913e-07
4.28542503876e-07
-1.58558758313e-07
4.90333998317e-07
-1.88037467442e-07
5.49484039578e-07
-2.15308449645e-07
5.94809159005e-07
-2.33324151508e-07
6.35888909392e-07
-2.46851498734e-07
6.82969200485e-07
-2.58254404299e-07
7.33127047751e-07
-2.62193899124e-07
7.8348233591e-07
-2.60228229822e-07
8.33230446374e-07
-2.56783229846e-07
8.82782431233e-07
-2.54556655316e-07
9.33033789584e-07
-2.5407868046e-07
9.8296381853e-07
-2.53753077385e-07
1.03418898926e-06
-2.54687902563e-07
1.08424721967e-06
-2.53365955806e-07
1.13492592597e-06
-2.53405887289e-07
1.18259056881e-06
-2.51128829226e-07
1.23496071962e-06
-2.54034989324e-07
1.29451521691e-06
-2.61708986748e-07
1.35116592972e-06
-2.7060544091e-07
1.41301748503e-06
-2.85410700928e-07
1.47995525304e-06
-2.9778103731e-07
1.54157480008e-06
-2.97800780736e-07
1.59895218216e-06
-2.90400337356e-07
1.65254278478e-06
-2.79702935659e-07
1.70361949015e-06
-2.65578791075e-07
1.75405606345e-06
-2.47510181552e-07
1.80300828914e-06
-2.28692158521e-07
1.84819788776e-06
-2.1260564062e-07
1.88892644487e-06
-1.98880351068e-07
1.92571197472e-06
-1.8534703879e-07
1.95897849642e-06
-1.70713057645e-07
1.98887444082e-06
-1.54606181978e-07
2.0153272163e-06
-1.37001818569e-07
2.03819992147e-06
-1.17872327037e-07
2.05732595405e-06
-9.73139698853e-08
2.07198826923e-06
-7.57547247241e-08
2.08080959427e-06
-5.32603074315e-08
2.08362192243e-06
-2.88317953775e-08
2.08277564234e-06
-2.41558403521e-09
2.07868316576e-06
2.31125109457e-08
2.06854980485e-06
4.67016446972e-08
2.04919744521e-06
7.15726929603e-08
2.0163649423e-06
1.019817734e-07
1.96333083425e-06
1.43678228807e-07
1.88038559195e-06
2.06847839713e-07
1.75875420849e-06
3.06398005805e-07
1.61209778787e-06
4.52700246728e-07
1.49184629319e-06
6.23412780545e-07
1.388228561e-06
7.72488532595e-07
1.27840406364e-06
7.61788745075e-07
1.1387629426e-06
6.26699547465e-07
9.93086941027e-07
5.34340683609e-07
8.70887561157e-07
4.89678128505e-07
7.73345681108e-07
4.92378761041e-07
6.82522570758e-07
5.37249160657e-07
5.83144801397e-07
5.66393312862e-07
4.87498782174e-07
5.27353135176e-07
4.00449680689e-07
4.72141070587e-07
3.14906650319e-07
4.43738932808e-07
2.3047663733e-07
4.25113552423e-07
1.54609874993e-07
3.97730870883e-07
1.10044072114e-07
3.19559347398e-07
6.76853366195e-08
2.71296385739e-07
2.62284200509e-08
3.23092579336e-07
3.27260344621e-07
-7.96454963429e-11
-1.42159627255e-07
2.88761128524e-08
-1.62832925876e-07
4.53350114041e-08
-2.15479125479e-07
5.68192978951e-08
-1.97763642675e-07
5.52716945559e-08
-1.18323294549e-07
1.07723852349e-07
-1.4773691685e-07
1.57189739441e-07
-2.07211508984e-07
1.82283613603e-07
-2.15225806967e-07
2.12936766299e-07
-2.13393477159e-07
2.45424754862e-07
-2.07478316733e-07
2.68950900468e-07
-1.94384376658e-07
2.67279263213e-07
-1.52211557561e-07
2.76489877795e-07
-1.39894206437e-07
3.09540586898e-07
-1.54419412604e-07
3.61452617712e-07
-1.86170564029e-07
4.27154908359e-07
-2.24870098523e-07
4.88146127149e-07
-2.49612502253e-07
5.31662613686e-07
-2.59349945715e-07
5.70867611694e-07
-2.73022660915e-07
6.18319656023e-07
-2.94785455363e-07
6.67421901927e-07
-3.07822957423e-07
7.15571117711e-07
-3.1079032922e-07
7.64617411314e-07
-3.09697296591e-07
8.147546056e-07
-3.07324622183e-07
8.64587075629e-07
-3.04768806809e-07
9.1191985551e-07
-3.0177658947e-07
9.63104252853e-07
-3.0528373522e-07
1.01323455783e-06
-3.05151122747e-07
1.06431156287e-06
-3.04768050612e-07
1.10971610197e-06
-2.99123693321e-07
1.15999883906e-06
-3.01721981937e-07
1.21502334007e-06
-3.09376533265e-07
1.27266303366e-06
-3.19679766063e-07
1.34439271627e-06
-3.42683347699e-07
1.41683800741e-06
-3.58211034611e-07
1.48073569865e-06
-3.62028245587e-07
1.53948275574e-06
-3.56889298165e-07
1.59571833568e-06
-3.46973735267e-07
1.64987881466e-06
-3.34199054251e-07
1.70230856394e-06
-3.18345718076e-07
1.75361621663e-06
-2.99154497633e-07
1.80315169785e-06
-2.78563280311e-07
1.84927247916e-06
-2.59058545965e-07
1.89109480888e-06
-2.41034480986e-07
1.92873594565e-06
-2.23321592865e-07
1.96252369772e-06
-2.04841133854e-07
1.99262033214e-06
-1.85051482776e-07
2.01896477093e-06
-1.6370668653e-07
2.04137449376e-06
-1.40654325204e-07
2.05954930205e-06
-1.15874902331e-07
2.07288432389e-06
-8.94915246143e-08
2.08068177915e-06
-6.14838057829e-08
2.08309030406e-06
-3.17042303464e-08
2.08092114611e-06
-7.59885939314e-10
2.07315783682e-06
3.02879395064e-08
2.05632154176e-06
6.28710420098e-08
2.02553931633e-06
1.01588581192e-07
1.97432407389e-06
1.52323031978e-07
1.89498478618e-06
2.22034996276e-07
1.78282816536e-06
3.1792311575e-07
1.6436471261e-06
4.44430896446e-07
1.50091534374e-06
5.94269662682e-07
1.39602156302e-06
7.27120805748e-07
1.28999053676e-06
8.77329042163e-07
1.16160131224e-06
8.89182960857e-07
1.04712503449e-06
7.40386627452e-07
9.15843981551e-07
6.64915574379e-07
7.88691583025e-07
6.16127094989e-07
6.83872801439e-07
5.96431265847e-07
5.86113660759e-07
6.34117393514e-07
4.89047060625e-07
6.62534742004e-07
4.10710586315e-07
6.04876533675e-07
3.28409489063e-07
5.53689417535e-07
2.44343544783e-07
5.27041292573e-07
1.6742177227e-07
5.01264059787e-07
1.17493718614e-07
4.46981460353e-07
7.75024061853e-08
3.58995783699e-07
4.10220171626e-08
3.0723039548e-07
1.73051943375e-08
3.46323304559e-07
3.4421519166e-07
9.81867110807e-09
-1.52392550966e-07
4.09579609291e-08
-1.94666553399e-07
5.2313728167e-08
-2.27597251968e-07
4.06885150155e-08
-1.86848803669e-07
6.11825691745e-08
-1.39490745929e-07
1.16317061448e-07
-2.03800001528e-07
1.42226496703e-07
-2.34108096294e-07
1.63194243506e-07
-2.3707605004e-07
1.85422330342e-07
-2.36449418618e-07
2.1708119495e-07
-2.39825045823e-07
2.18444990411e-07
-1.96279369198e-07
2.22983695623e-07
-1.5721553749e-07
2.53588162136e-07
-1.71019943286e-07
2.95913193796e-07
-1.97337063064e-07
3.57574254532e-07
-2.4848328652e-07
4.18963949587e-07
-2.86888973278e-07
4.60487689364e-07
-2.91697430566e-07
4.97478834178e-07
-2.96859874934e-07
5.46961600073e-07
-3.23013075597e-07
5.97963045146e-07
-3.46276929362e-07
6.45703363455e-07
-3.5602931065e-07
6.93671445017e-07
-3.59198986087e-07
7.43037259899e-07
-3.59489792748e-07
7.91143806253e-07
-3.55830276503e-07
8.38026577661e-07
-3.52025697523e-07
8.86335508657e-07
-3.50447623863e-07
9.34817664279e-07
-3.54114274308e-07
9.86110793504e-07
-3.56779763051e-07
1.03354547483e-06
-3.52523027043e-07
1.08016765256e-06
-3.46061798716e-07
1.1378393147e-06
-3.59720904799e-07
1.19879303588e-06
-3.70659194532e-07
1.26912736209e-06
-3.9035879008e-07
1.34161550233e-06
-4.15528511023e-07
1.41275141756e-06
-4.29703219022e-07
1.47586989758e-06
-4.25495153015e-07
1.53445553742e-06
-4.15816542681e-07
1.59132195781e-06
-4.04177067815e-07
1.64684766377e-06
-3.90060637605e-07
1.7008508416e-06
-3.7268416008e-07
1.75333885034e-06
-3.5197718384e-07
1.8037437521e-06
-3.29300077203e-07
1.85085223681e-06
-3.06496655736e-07
1.89379424398e-06
-2.84304520491e-07
1.93240678872e-06
-2.62264452606e-07
1.96682715965e-06
-2.39595982002e-07
1.99711762538e-06
-2.15683697222e-07
2.02316637444e-06
-1.90104906409e-07
2.04475426856e-06
-1.62600384981e-07
2.06158896128e-06
-1.33076663528e-07
2.07326614458e-06
-1.01550407466e-07
2.07943171131e-06
-6.80570262607e-08
2.08000843123e-06
-3.2723031653e-08
2.07448395681e-06
4.25758486778e-09
2.06039950733e-06
4.3803832048e-08
2.03298810949e-06
8.9634478346e-08
1.98623167766e-06
1.47606639914e-07
1.91457463275e-06
2.23145386001e-07
1.8160497586e-06
3.1964015366e-07
1.69584742481e-06
4.37142925251e-07
1.57091203673e-06
5.68341142465e-07
1.46384086736e-06
7.00282368282e-07
1.35510928509e-06
8.34774480053e-07
1.24417294059e-06
9.87231688692e-07
1.0777051603e-06
1.05473078119e-06
9.48165455171e-07
8.69203493447e-07
8.42866540961e-07
7.69542243259e-07
7.2333903026e-07
7.34970782262e-07
6.02667479337e-07
7.1636794871e-07
4.93515944039e-07
7.42480245805e-07
4.14556059986e-07
7.40733745461e-07
3.42025323068e-07
6.76712763839e-07
2.57433975009e-07
6.37593133181e-07
1.77764514364e-07
6.06010044137e-07
1.15087232626e-07
5.63268951562e-07
8.34152748968e-08
4.78053740075e-07
4.25265803555e-08
3.9937709474e-07
1.01530633056e-08
3.39156549315e-07
4.98855770751e-09
3.50839559489e-07
3.4898206451e-07
1.82063208945e-08
-1.71407252218e-07
4.23968071811e-08
-2.19576837e-07
4.64501425999e-08
-2.32399793616e-07
2.65553702772e-08
-1.67516714011e-07
6.4073384816e-08
-1.77722173234e-07
1.03838337966e-07
-2.44502396884e-07
1.23003541736e-07
-2.5412400911e-07
1.43420528939e-07
-2.58299431023e-07
1.51350409587e-07
-2.45055928116e-07
1.69592521579e-07
-2.58726261186e-07
1.65421372248e-07
-1.92585084706e-07
1.96701568026e-07
-1.8902654789e-07
2.31806290404e-07
-2.06714061382e-07
2.85000201218e-07
-2.5117452403e-07
3.45030953323e-07
-3.09196537238e-07
3.87159661688e-07
-3.29647094031e-07
4.20032486732e-07
-3.25116772388e-07
4.68430878514e-07
-3.45785968867e-07
5.22094403805e-07
-3.77196049604e-07
5.70770647142e-07
-3.95446901273e-07
6.17767508462e-07
-4.03491610419e-07
6.65395703216e-07
-4.07278317207e-07
7.15920210422e-07
-4.10433586411e-07
7.65949327496e-07
-4.06246145539e-07
8.10246381422e-07
-3.96704576033e-07
8.6186578795e-07
-4.02425031123e-07
9.08774439099e-07
-4.0137027338e-07
9.54348345449e-07
-4.02689129157e-07
1.00111583989e-06
-3.99615297474e-07
1.06816349026e-06
-4.13443866444e-07
1.1279391591e-06
-4.19833907749e-07
1.18772996829e-06
-4.30799796552e-07
1.26159449619e-06
-4.64578689633e-07
1.33880914251e-06
-4.93104639697e-07
1.40480130055e-06
-4.96052291553e-07
1.46688218721e-06
-4.8792478596e-07
1.52715704932e-06
-4.76433066866e-07
1.58595071323e-06
-4.63307686959e-07
1.64334999191e-06
-4.47794553395e-07
1.69917545376e-06
-4.28843208521e-07
1.7531713901e-06
-4.06305167942e-07
1.80478375649e-06
-3.81241944578e-07
1.85308575415e-06
-3.55125070366e-07
1.89726275833e-06
-3.28806674979e-07
1.93694799417e-06
-3.02275194004e-07
1.97204543938e-06
-2.75021778832e-07
2.00244338656e-06
-2.46413591789e-07
2.02793146151e-06
-2.15928827549e-07
2.04827357911e-06
-1.83281760377e-07
2.06324644074e-06
-1.48395266117e-07
2.07260843335e-06
-1.11272670955e-07
2.07607652968e-06
-7.1908853206e-08
2.07306772169e-06
-3.01484418546e-08
2.0618578562e-06
1.49732798872e-08
2.0386279443e-06
6.64911986183e-08
1.99782674277e-06
1.29810227234e-07
1.93479206815e-06
2.09937878798e-07
1.84933211783e-06
3.07847412374e-07
1.745893125e-06
4.22249932965e-07
1.63175833784e-06
5.50382562972e-07
1.52128586037e-06
6.77870062576e-07
1.42400683843e-06
7.96592634268e-07
1.33607149702e-06
9.21734948478e-07
1.26900606451e-06
1.05332253683e-06
1.12690099004e-06
1.19593519016e-06
8.9246313408e-07
1.1029033432e-06
7.43507400745e-07
9.17860591282e-07
6.19608724507e-07
8.58223293848e-07
5.00258319242e-07
8.35049429212e-07
4.10418990316e-07
8.31646541625e-07
3.46564318468e-07
8.03943580147e-07
2.67640070171e-07
7.55017237772e-07
1.86028670709e-07
7.18571287555e-07
1.14869781668e-07
6.76535027866e-07
6.79490561669e-08
6.09590584425e-07
3.29457698364e-08
5.12510995128e-07
-2.19347280932e-09
4.33990388629e-07
-2.91655569368e-08
3.65583873487e-07
-1.96590682171e-08
3.40928214623e-07
3.28977100251e-07
2.17933278467e-08
-1.93651554673e-07
3.57837784124e-08
-2.34273870269e-07
2.94894888622e-08
-2.26717057705e-07
3.11593907927e-08
-1.69768546835e-07
7.0881486579e-08
-2.18195848093e-07
8.55154671555e-08
-2.59945342501e-07
1.01938427112e-07
-2.71284576541e-07
1.21005306702e-07
-2.78044035726e-07
1.25190983834e-07
-2.49887079909e-07
1.34863577215e-07
-2.69012890844e-07
1.47746173041e-07
-2.06004543516e-07
1.76627319114e-07
-2.18481712558e-07
2.13696572188e-07
-2.44423377178e-07
2.70808527474e-07
-3.08993143115e-07
3.20937644269e-07
-3.59999878425e-07
3.50610035817e-07
-3.59913878858e-07
3.87876346399e-07
-3.62938734305e-07
4.38814645452e-07
-3.97272046914e-07
4.90147258143e-07
-4.29055752029e-07
5.38649091981e-07
-4.44452245715e-07
5.86162748537e-07
-4.51493195488e-07
6.32233172169e-07
-4.5379611157e-07
6.7905807642e-07
-4.57663213292e-07
7.27257653268e-07
-4.54836367232e-07
7.71315550824e-07
-4.41123216987e-07
8.20533719225e-07
-4.52003317046e-07
8.72762320165e-07
-4.5394914721e-07
9.28283779709e-07
-4.58545879196e-07
9.86773328159e-07
-4.58435800694e-07
1.04381971466e-06
-4.70833125678e-07
1.10658854011e-06
-4.829596742e-07
1.18602131304e-06
-5.10599036888e-07
1.26136646925e-06
-5.40295535401e-07
1.32805317996e-06
-5.60157203993e-07
1.3924533167e-06
-5.60808203281e-07
1.4559076409e-06
-5.51727337022e-07
1.51839797096e-06
-5.39265830647e-07
1.57954642369e-06
-5.24794224816e-07
1.63918782889e-06
-5.07770815266e-07
1.69714559727e-06
-4.87133349892e-07
1.75305079765e-06
-4.6253992054e-07
1.80629927875e-06
-4.34816654137e-07
1.85610639058e-06
-4.05255686133e-07
1.90172641201e-06
-3.74747833481e-07
1.94262436428e-06
-3.4349338264e-07
1.97842967564e-06
-3.11146652671e-07
2.00880229992e-06
-2.77105191315e-07
2.03340543333e-06
-2.40849183559e-07
2.05197958197e-06
-2.0217291548e-07
2.06437222842e-06
-1.61108469575e-07
2.07043999405e-06
-1.17677426978e-07
2.0698064902e-06
-7.16465303291e-08
2.0613266676e-06
-2.20997257953e-08
2.04228671252e-06
3.3555141611e-08
2.00799943834e-06
1.00238793829e-07
1.95342081541e-06
1.83816415689e-07
1.87800723445e-06
2.84763014316e-07
1.78894626013e-06
3.96223784966e-07
1.69113001211e-06
5.19310557232e-07
1.57981856535e-06
6.60861829009e-07
1.46667124834e-06
7.90134540727e-07
1.37360210168e-06
8.8875740362e-07
1.30528155265e-06
9.89145602224e-07
1.25509235331e-06
1.10260919901e-06
1.2068069338e-06
1.2433360995e-06
9.72072920189e-07
1.33682483936e-06
6.63818956074e-07
1.22540366039e-06
5.2284866343e-07
9.98574149479e-07
4.18342639236e-07
9.38951704849e-07
3.40405009985e-07
9.08996059862e-07
2.69904542284e-07
8.73886457023e-07
1.86276016351e-07
8.38074005466e-07
1.16220626372e-07
7.88039977326e-07
5.43449985406e-08
7.37840079916e-07
8.19519891304e-09
6.55177220212e-07
-3.72231672788e-08
5.57379136816e-07
-6.74238090106e-08
4.63679888553e-07
-7.75315565946e-08
3.7524833935e-07
-4.99456948784e-08
3.12713549138e-07
2.78856277831e-07
2.24160997329e-08
-2.16996965136e-07
3.29081452316e-08
-2.45545574013e-07
1.90580862013e-08
-2.13519963028e-07
3.21748209983e-08
-1.83472048304e-07
6.24204250961e-08
-2.49182535534e-07
6.65978582086e-08
-2.64798750283e-07
7.82812460955e-08
-2.83685091457e-07
8.79231265326e-08
-2.88289066747e-07
1.03830846973e-07
-2.66355955926e-07
9.74076432e-08
-2.63182745227e-07
1.2185892395e-07
-2.31007993476e-07
1.54342520246e-07
-2.5157817446e-07
1.92012959172e-07
-2.82736306238e-07
2.41748183322e-07
-3.59432145178e-07
2.7905248152e-07
-3.97971300911e-07
3.0302174474e-07
-3.84463036976e-07
3.48208242134e-07
-4.08692914506e-07
4.01149112636e-07
-4.50775695595e-07
4.51629224913e-07
-4.80076876259e-07
5.01408730074e-07
-4.94746160979e-07
5.50912991423e-07
-5.01468208695e-07
5.98845033203e-07
-5.02167414716e-07
6.41909659574e-07
-5.01161169035e-07
6.87721669973e-07
-5.01033469321e-07
7.38737449419e-07
-4.92499438211e-07
7.83738746179e-07
-4.97374627866e-07
8.32660524969e-07
-5.0320856968e-07
8.79565137414e-07
-5.05783178741e-07
9.46730457887e-07
-5.25947331039e-07
1.01595089874e-06
-5.40403530806e-07
1.09008067327e-06
-5.57458299646e-07
1.16465962033e-06
-5.85558350236e-07
1.24418461414e-06
-6.20202556767e-07
1.31333846261e-06
-6.29678558888e-07
1.37835274679e-06
-6.26179695547e-07
1.44340584798e-06
-6.17130881628e-07
1.50828641537e-06
-6.04491260577e-07
1.57207584756e-06
-5.88923013644e-07
1.63430174088e-06
-5.70331695395e-07
1.6947249988e-06
-5.47887575614e-07
1.75293708168e-06
-5.21079477908e-07
1.80828961304e-06
-4.90493405162e-07
1.86002503394e-06
-4.57311459475e-07
1.9074029114e-06
-4.2244232835e-07
1.94973691428e-06
-3.86139931609e-07
1.98635308757e-06
-3.4807086817e-07
2.01659665003e-06
-3.07650964389e-07
2.03994851853e-06
-2.64497708484e-07
2.05612237204e-06
-2.18639188291e-07
2.06502158575e-06
-1.70309127626e-07
2.06656211625e-06
-1.19539127536e-07
2.06025413608e-06
-6.57094093309e-08
2.04456873375e-06
-6.84511532293e-09
2.01625724212e-06
6.13967094881e-08
1.97080901282e-06
1.45236421596e-07
1.90442917257e-06
2.49726402119e-07
1.82169329465e-06
3.66902641414e-07
1.73784326635e-06
4.79602638666e-07
1.65080357678e-06
6.05750741113e-07
1.52658530897e-06
7.84326670089e-07
1.38963534417e-06
9.26184648769e-07
1.295041334e-06
9.82422378168e-07
1.238464445e-06
1.04481108903e-06
1.20912563493e-06
1.13105671588e-06
1.2060079206e-06
1.24557259037e-06
1.14041767119e-06
1.40150747596e-06
8.08413896268e-07
1.55657007864e-06
4.42586235049e-07
1.36373756893e-06
3.33068518917e-07
1.04790898483e-06
2.61853907111e-07
9.79700320544e-07
1.77132330358e-07
9.58093421583e-07
9.35779620725e-08
9.21111301822e-07
5.36063655372e-08
8.27492918054e-07
-2.94077031004e-09
7.93849163219e-07
-6.62197009825e-08
7.17914787281e-07
-1.2359723122e-07
6.14237275934e-07
-1.48985682561e-07
4.8850549836e-07
-1.31107784466e-07
3.56835685558e-07
-7.73464494019e-08
2.58651080702e-07
2.01217457898e-07
1.78246305081e-08
-2.35214603977e-07
2.51331881691e-08
-2.53382442087e-07
1.59648550863e-08