/*--------------------------------*- C++ -*----------------------------------*\
| =========                 |                                                 |
| \\      /  F ield         | OpenFOAM: The Open Source CFD Toolbox           |
|  \\    /   O peration     | Version:  v1806                                 |
|   \\  /    A nd           | Web:      www.OpenFOAM.com                      |
|    \\/     M anipulation  |                                                 |
\*---------------------------------------------------------------------------*/
FoamFile
{
    version     2.0;
    format      ascii;
    class       surfaceScalarField;
    location    "116";
    object      phi;
}
// * * * * * * * * * * * * * * * * * * * * * * * * * * * * * * * * * * * * * //

dimensions      [0 3 -1 0 0 0 0];
oriented        oriented;


internalField   nonuniform List<scalar> 
12640
(
-1.67774701071e-07
1.66868399231e-07
-3.27782253857e-07
1.5914693244e-07
-4.7459165454e-07
1.46115199359e-07
-6.00561400023e-07
1.25335313226e-07
-6.8698482817e-07
8.58559259487e-08
-7.28131145379e-07
4.06460648661e-08
-7.46458602734e-07
1.7878806963e-08
-7.97641760167e-07
5.0772624371e-08
-8.85440077008e-07
8.73849372244e-08
-9.65304808229e-07
7.94777588765e-08
-1.038550945e-06
7.28991692511e-08
-1.12546692132e-06
8.65840233449e-08
-1.20259917169e-06
7.68114514255e-08
-1.25901283564e-06
5.61142345119e-08
-1.30487184453e-06
4.55930035791e-08
-1.36369709057e-06
5.85955302053e-08
-1.42577213869e-06
6.18569276662e-08
-1.46988357824e-06
4.39047838944e-08
-1.49039184319e-06
2.02883583545e-08
-1.49643342147e-06
5.80020443302e-09
-1.52074274217e-06
2.4049128705e-08
-1.57318320568e-06
5.21731182211e-08
-1.63771709906e-06
6.42638633479e-08
-1.70558135929e-06
6.76057041741e-08
-1.76794713277e-06
6.21212199482e-08
-1.82166866442e-06
5.34854393936e-08
-1.87390565513e-06
5.20037436409e-08
-1.92046291301e-06
4.63291867263e-08
-1.95662122826e-06
3.59317811198e-08
-1.98426171411e-06
2.74220891e-08
-2.01320811649e-06
2.87261518872e-08
-2.03979413877e-06
2.63712924188e-08
-2.05458765747e-06
1.45819993862e-08
-2.06995505545e-06
1.51473682234e-08
-2.08228981406e-06
1.20961311791e-08
-2.08967366439e-06
7.13705167301e-09
-2.10329030607e-06
1.3352420663e-08
-2.11534914481e-06
1.17740377038e-08
-2.1209798755e-06
5.32124949617e-09
-2.13767528753e-06
1.63569256785e-08
-2.20539958706e-06
6.73725490942e-08
-2.28482252912e-06
7.90958097887e-08
-2.3130943435e-06
2.7956751044e-08
-2.3130396398e-06
-3.79628996596e-10
-2.3012837191e-06
-1.20895020935e-08
-2.27642572389e-06
-2.52062548016e-08
-2.23985557706e-06
-3.69348978004e-08
-2.18948900124e-06
-5.07482713974e-08
-2.13089251697e-06
-5.89914674069e-08
-2.08999020202e-06
-4.13092560586e-08
-2.09101954931e-06
5.87901653437e-10
-2.08984346911e-06
-1.62411334275e-09
-1.99523025203e-06
-9.50887128869e-08
-1.84864319726e-06
-1.47141817554e-07
-1.67703535547e-06
-1.72160957882e-07
-1.45178211119e-06
-2.25795810303e-07
-1.24491849891e-06
-2.07477278311e-07
-1.08209078932e-06
-1.6354826612e-07
-8.99325680429e-07
-1.83575775967e-07
-6.92142223512e-07
-2.08086258123e-07
-4.77980514116e-07
-2.15142210705e-07
-2.4391175166e-07
-2.35130181165e-07
7.13887253944e-08
-3.16440774395e-07
3.03225587522e-07
-2.32645964555e-07
4.51066463904e-07
-1.48345834804e-07
5.53855457543e-07
-1.03156807183e-07
6.33481714005e-07
-7.99580489916e-08
7.04454814086e-07
-7.13360197421e-08
7.67316700221e-07
-6.32823533785e-08
8.16131418661e-07
-4.92956611747e-08
8.43759430983e-07
-2.81372244659e-08
8.43433718553e-07
-1.66736150609e-10
8.10609478855e-07
3.23470113232e-08
7.34610681086e-07
7.55372436832e-08
6.42404327226e-07
9.17845834357e-08
5.3916786125e-07
1.02860332026e-07
4.5356853359e-07
8.51933439956e-08
3.32883597997e-07
1.20353068861e-07
2.06235565874e-07
1.26004574585e-07
2.05807102153e-07
-8.15826033323e-08
2.47848983746e-07
-1.89402334315e-07
2.66342596618e-07
-2.95086865459e-07
2.51252709621e-07
-4.10939640497e-07
2.4072710273e-07
-5.76508546544e-07
2.50958711562e-07
-7.16076766827e-07
1.79721354083e-07
-7.95909030702e-07
9.7234937397e-08
-8.61924226384e-07
1.16304078111e-07
-9.30651620776e-07
1.55662324466e-07
-1.01139268899e-06
1.59797232733e-07
-1.09039768412e-06
1.51528622983e-07
-1.15032702929e-06
1.46165049601e-07
-1.2043278715e-06
1.30507470809e-07
-1.25922151975e-06
1.10729970697e-07
-1.31286612905e-06
9.89941053601e-08
-1.37551776884e-06
1.21007131184e-07
-1.42262517145e-06
1.08761552553e-07
-1.41646675717e-06
3.75293425766e-08
-1.40330773361e-06
6.91464452066e-09
-1.41940760422e-06
2.16563148658e-08
-1.46720479013e-06
7.15761793654e-08
-1.55554542361e-06
1.40220578973e-07
-1.64690279624e-06
1.55348314292e-07
-1.70614813551e-06
1.26581777503e-07
-1.76064232373e-06
1.16369568898e-07
-1.82790220182e-06
1.20497094529e-07
-1.88233476693e-06
1.06203260057e-07
-1.92207409254e-06
8.58300729982e-08
-1.95529598007e-06
6.89306421172e-08
-1.98298420379e-06
5.48804263537e-08
-2.0014170574e-06
4.69463146235e-08
-2.01397750799e-06
3.87220137512e-08
-2.01534977125e-06
1.57427865123e-08
-2.01970528245e-06
1.92763528097e-08
-2.04403932362e-06
3.62093162524e-08
-2.05002836001e-06
1.28604744958e-08
-2.05524444734e-06
1.8289586907e-08
-2.0887185085e-06
4.49580713327e-08
-2.13410961603e-06
5.04010661323e-08
-2.15728675865e-06
3.91809086581e-08
-2.06183890286e-06
-2.84104910917e-08
-1.9218033381e-06
-6.12386527904e-08
-1.87645032318e-06
-1.76804755431e-08
-1.8832243041e-06
6.09081022952e-09
-1.90623795836e-06
1.06127611958e-08
-1.94126762341e-06
9.48576360174e-09
-1.97454798081e-06
-4.00592173687e-09
-2.00427485524e-06
-2.14006734773e-08
-2.02011076875e-06
-4.35538663182e-08
-1.98178619801e-06
-8.0054567529e-08
-1.86544129577e-06
-1.16170134045e-07
-1.7485750639e-06
-1.18908774947e-07
-1.78479705891e-06
-5.9337502707e-08
-1.81148383192e-06
-1.21020147116e-07
-1.72761008116e-06
-2.56606672042e-07
-1.65588863274e-06
-2.98163327509e-07
-1.55392504751e-06
-3.1021386458e-07
-1.37745069958e-06
-3.40899741561e-07
-1.17082311392e-06
-3.91194452786e-07
-9.20766578401e-07
-4.59237038534e-07
-5.92400857797e-07
-5.44627711871e-07
-2.69064514491e-07
-5.59547565758e-07
5.49742617355e-08
-6.41636238972e-07
2.88617942872e-07
-4.67075657248e-07
4.32085290338e-07
-2.92311694432e-07
5.24309846657e-07
-1.95731775093e-07
6.11201360856e-07
-1.67176088315e-07
6.98704916793e-07
-1.59197020871e-07
7.71821717031e-07
-1.36813642019e-07
8.22652739023e-07
-1.0058656293e-07
8.41985313666e-07
-4.7949116449e-08
8.28307964877e-07
1.30520770646e-08
8.02271476306e-07
5.79323472309e-08
7.74946132211e-07
1.0240210239e-07
7.20208581411e-07
1.46066122057e-07
6.46495492554e-07
1.76130138551e-07
5.39165183574e-07
1.92099180484e-07
4.15565724094e-07
2.43384877234e-07
2.2546662393e-07
3.15534647584e-07
4.3075436917e-07
-1.1258461565e-07
3.60016501916e-07
-1.58389373172e-07
3.1159627869e-07
-3.05179530911e-07
3.97492413054e-07
-4.89514976376e-07
4.24539296301e-07
-6.51822263895e-07
4.12789449489e-07
-7.22674752982e-07
2.50176627931e-07
-7.52791541036e-07
1.26912086912e-07
-8.25136768318e-07
1.88149203848e-07
-9.13133733989e-07
2.4317010921e-07
-1.00139657681e-06
2.47620698509e-07
-1.08290701076e-06
2.32656535916e-07
-1.14813397667e-06
2.11074274685e-07
-1.20276197592e-06
1.84863082213e-07
-1.25739432705e-06
1.6511510747e-07
-1.28407846908e-06
1.25448678288e-07
-1.20656775158e-06
4.32889779416e-08
-1.0860714942e-06
-1.19218667352e-08
-1.05370563915e-06
4.98116279068e-09
-1.10876617724e-06
6.17657377341e-08
-1.26719826485e-06
1.79834869304e-07
-1.45597676717e-06
2.60065463198e-07
-1.56110493102e-06
2.45061956652e-07
-1.62240166903e-06
2.16371061902e-07
-1.70465804428e-06
2.08578041333e-07
-1.78130567105e-06
1.92764211053e-07
-1.83296946029e-06
1.71921177087e-07
-1.87411156191e-06
1.4710927961e-07
-1.91126665529e-06
1.2275813898e-07
-1.94026259279e-06
9.77005817416e-08
-1.96582133066e-06
8.02247298506e-08
-1.97601285796e-06
5.69317320715e-08
-1.97833788804e-06
4.08403883731e-08
-1.98957264137e-06
2.67788247975e-08
-1.95719884726e-06
-1.33109164254e-08
-1.93822760598e-06
1.69942409735e-08
-1.9871978238e-06
6.1570519061e-08
-1.99825093997e-06
2.90570988794e-08
-2.00853106897e-06
5.49420745609e-08
-2.09242663904e-06
1.33976964086e-07
-2.18325837671e-06
1.29677884148e-07
-2.2599386488e-06
4.79265342832e-08
-2.31078522561e-06
-1.07314217463e-08
-2.32030919259e-06
-8.5021589803e-09
-2.31544382586e-06
8.75212922459e-10
-2.30509568989e-06
-9.96667764038e-11
-2.28697474642e-06
-9.0095446165e-09
-2.26494283012e-06
-2.64290763824e-08
-2.23785749052e-06
-4.88892946149e-08
-2.20527915678e-06
-7.65512512138e-08
-2.17456433391e-06
-1.11200780515e-07
-2.14639528925e-06
-1.44795531139e-07
-2.09778716812e-06
-1.68003462493e-07
-1.96557942121e-06
-1.92065708533e-07
-1.82336889444e-06
-2.63769253859e-07
-1.75650923218e-06
-3.24049521512e-07
-1.68507789481e-06
-3.70268281313e-07
-1.55249432249e-06
-4.4356705893e-07
-1.36909349537e-06
-5.25158930191e-07
-1.15012933911e-06
-6.11097734914e-07
-9.02922619858e-07
-7.07460080011e-07
-6.47419400617e-07
-8.01198660921e-07
-3.23267037457e-07
-8.84850261393e-07
-1.8938558475e-08
-9.47049637233e-07
2.17816325857e-07
-7.04516893877e-07
3.83025134284e-07
-4.57954789077e-07
5.15111246823e-07
-3.28157884679e-07
6.18198303181e-07
-2.70578807611e-07
6.94203943432e-07
-2.35527819835e-07
7.52654369094e-07
-1.95625011199e-07
7.93885176502e-07
-1.42214977361e-07
8.25150695831e-07
-7.96243748777e-08
8.58468249682e-07
-2.06944879742e-08
8.74806286214e-07
4.11466736517e-08
8.45415903671e-07
1.31337241037e-07
7.66955543766e-07
2.24083117264e-07
6.62093474972e-07
2.8054862165e-07
5.4883810722e-07
3.04874048978e-07
4.33250155823e-07
3.58593630007e-07
1.97652925914e-07
5.50379540868e-07
6.28220165e-07
-7.80808283346e-08
4.37546753474e-07
-9.19786735799e-08
3.25143714485e-07
-2.77465959462e-07
5.82452167239e-07
-4.16895169183e-07
5.63476180213e-07
-3.90249645633e-07
3.8579720755e-07
-3.04763808726e-07
1.64518909833e-07
-4.33415823979e-07
2.5527961382e-07
-6.81569768968e-07
4.35810535369e-07
-8.58709951884e-07
4.1981306601e-07
-9.73401782135e-07
3.61881841454e-07
-1.07037164276e-06
3.29274854973e-07
-1.1466558154e-06
2.8707360952e-07
-1.18147277749e-06
2.19441567217e-07
-1.1238821578e-06
1.07325010543e-07
-1.00832680326e-06
9.70673601821e-09
-9.53744463652e-07
-1.14904897465e-08
-9.91243186672e-07
2.53723629892e-08
-1.11593314346e-06
1.29437758839e-07
-1.31189491645e-06
2.57454604258e-07
-1.45276854691e-06
3.20419011216e-07
-1.511626831e-06
3.18637880258e-07
-1.57887696628e-06
3.12027955993e-07
-1.65787131682e-06
2.95092390641e-07
-1.72060818349e-06
2.71055606301e-07
-1.77274591109e-06
2.44660021645e-07
-1.81647348522e-06
2.15414072376e-07
-1.85878354243e-06
1.89196455227e-07
-1.89297656382e-06
1.56726684755e-07
-1.92392551309e-06
1.28436855943e-07
-1.93865478334e-06
9.47497136856e-08
-1.95437051181e-06
7.24483822356e-08
-1.94639495901e-06
3.26803390257e-08
-1.90787536484e-06
-1.19436096449e-08
-1.93888328064e-06
1.74640299863e-08
-1.95234010461e-06
3.02003972666e-08
-1.9609410471e-06
6.98955136197e-08
-2.07565709209e-06
1.43466279239e-07
-2.18668876821e-06
1.65648396449e-07
-2.21884286188e-06
1.65807244303e-07
-2.22702471134e-06
1.3752916602e-07
-2.25682191968e-06
7.73863755322e-08
-2.29451534823e-06
2.66188474097e-08
-2.31171916033e-06
8.35894825357e-09
-2.3129772639e-06
1.78411049711e-09
-2.30529030893e-06
-8.14220202379e-09
-2.29052606557e-06
-2.41418242542e-08
-2.27088592115e-06
-4.64489115646e-08
-2.24636352677e-06
-7.380708728e-08
-2.21697279752e-06
-1.06350648499e-07
-2.18407968398e-06
-1.44520697517e-07
-2.14366916519e-06
-1.85652950902e-07
-2.08364110577e-06
-2.28505083251e-07
-1.99614580366e-06
-2.8006284422e-07
-1.91109317903e-06
-3.49363973908e-07
-1.81879452217e-06
-4.16938719713e-07
-1.69792493813e-06
-4.91795814128e-07
-1.54662947967e-06
-5.95596893362e-07
-1.35664058901e-06
-7.15955064276e-07
-1.12842560182e-06
-8.4018929741e-07
-8.74950699356e-07
-9.61859756231e-07
-6.06876424641e-07
-1.07022509097e-06
-3.34784685865e-07
-1.15791279506e-06
-1.17349337207e-07
-1.16531382179e-06
1.58948540182e-07
-9.81447269694e-07
3.71140512059e-07
-6.70592148279e-07
5.01650626873e-07
-4.58987493909e-07
6.04088093871e-07
-3.73291716049e-07
6.93872390947e-07
-3.25597693765e-07
7.71377200608e-07
-2.73433932163e-07
8.41199955028e-07
-2.12377955604e-07
9.03288203853e-07
-1.42105747731e-07
9.32176898093e-07
-4.99983835984e-08
8.92704873588e-07
8.02068068888e-08
8.11409291236e-07
2.1223690802e-07
7.20237368542e-07
3.14842158993e-07
5.96286635274e-07
4.04063174957e-07
4.40699604561e-07
4.60118218957e-07
3.08757688634e-07
4.901119525e-07
1.62857737515e-07
6.96044094992e-07
7.90785306695e-07
-6.02386061146e-09
4.43394207196e-07
-8.54696715588e-08
4.04285823353e-07
-2.39832681821e-07
7.3640293926e-07
-3.14857656258e-07
6.38175286881e-07
-2.60920457386e-07
3.3163272664e-07
-3.22436429935e-07
2.25821311771e-07
-5.22721417509e-07
4.55188230927e-07
-6.90445834075e-07
6.03071085164e-07
-8.11906708017e-07
5.4082163188e-07
-9.2694584821e-07
4.76542498206e-07
-1.03148256893e-06
4.33510330949e-07
-1.05272912777e-06
3.08086857694e-07
-9.72190235409e-07
1.38726076158e-07
-9.08749078831e-07
4.37071296097e-08
-9.34805423844e-07
3.55523927861e-08
-1.02763962522e-06
8.11066971477e-08
-1.18315896425e-06
1.80620186092e-07
-1.34486797356e-06
2.90847487864e-07
-1.41983624102e-06
3.32131142359e-07
-1.44679711739e-06
3.47097828873e-07
-1.51117077861e-06
3.82728480665e-07
-1.58804606401e-06
3.88623479323e-07
-1.65506368769e-06
3.61845489005e-07
-1.70960175987e-06
3.25348780944e-07
-1.7566857106e-06
2.91508834063e-07
-1.8037614314e-06
2.62271322562e-07
-1.83529564943e-06
2.20509594619e-07
-1.86990685905e-06
1.91130801709e-07
-1.88748062627e-06
1.45813463468e-07
-1.90542572184e-06
1.12503087972e-07
-1.89526880453e-06
6.21102442375e-08
-1.90020873139e-06
3.74286485347e-08
-1.95507873084e-06
4.27129134418e-08
-1.94575844245e-06
7.89408233629e-09
-1.98558647693e-06
6.97490506418e-08
-2.08851234092e-06
1.72513703943e-07
-2.1577107896e-06
2.12349026667e-07
-2.20222620796e-06
2.09848993209e-07
-2.22437507165e-06
1.87638430415e-07
-2.23873573396e-06
1.51566821241e-07
-2.26358812881e-06
1.01907580402e-07
-2.29264465458e-06
5.53399830785e-08
-2.31024603282e-06
2.56207074639e-08
-2.31472764457e-06
5.92301704272e-09
-2.30981559303e-06
-1.34039501414e-08
-2.29794040491e-06
-3.6375126165e-08
-2.28062462656e-06
-6.4135223328e-08
-2.25811360288e-06
-9.67013262276e-08
-2.23007089164e-06
-1.347916029e-07
-2.19567407559e-06
-1.79330879646e-07
-2.15144093812e-06
-2.30319149542e-07
-2.09200769564e-06
-2.88394181781e-07
-2.01677004396e-06
-3.55786839865e-07
-1.93381159857e-06
-4.32842820273e-07
-1.8351405517e-06
-5.16177945416e-07
-1.70850422337e-06
-6.19053661089e-07
-1.54920210074e-06
-7.55583810701e-07
-1.35003159261e-06
-9.15878483725e-07
-1.11244010824e-06
-1.07859188137e-06
-8.53580426506e-07
-1.22154813691e-06
-5.92843160598e-07
-1.3317894989e-06
-3.61962290983e-07
-1.38954376063e-06
-1.99821824508e-07
-1.32812592067e-06
1.25705225529e-07
-1.30755334917e-06
3.56683764887e-07
-9.01969137096e-07
5.06833289983e-07
-6.09427636953e-07
6.20105908023e-07
-4.86821204731e-07
7.15737995164e-07
-4.21460788974e-07
8.03152805911e-07
-3.61108367985e-07
8.91980425701e-07
-3.01519531596e-07
9.56718148652e-07
-2.07201987374e-07
9.42832772623e-07
-3.64933909558e-08
8.7791854683e-07
1.44759093865e-07
8.03413308286e-07
2.86363891905e-07
7.02876675441e-07
4.14969223843e-07
5.63233662195e-07
5.43314046235e-07
4.36433790035e-07
5.86553353073e-07
2.99960304572e-07
6.26396495442e-07
1.37843603462e-07
8.57650575481e-07
9.28538053867e-07
-7.90812724596e-10
4.43920978146e-07
-1.19114326307e-07
5.22369696765e-07
-1.93197949503e-07
8.10156252075e-07
-2.20929003257e-07
6.65619451236e-07
-1.99143842056e-07
3.09679938224e-07
-3.79495887614e-07
4.05896872912e-07
-5.9520582566e-07
6.70480588571e-07
-6.84919627503e-07
6.92350939285e-07
-7.75536056056e-07
6.3107783313e-07
-8.49513124487e-07
5.5019990064e-07
-8.54895592875e-07
4.3863811343e-07
-7.64497095123e-07
2.1753497819e-07
-7.41125739275e-07
1.15196547266e-07
-8.02385216422e-07
1.04772591256e-07
-9.16350651983e-07
1.49280460391e-07
-1.09756402646e-06
2.6202856477e-07
-1.2781745153e-06
3.6091624954e-07
-1.34355280876e-06
3.55937267487e-07
-1.36128557433e-06
3.49589084203e-07
-1.4388472346e-06
4.24375598603e-07
-1.52176187135e-06
4.65358953522e-07
-1.58288960397e-06
4.49482004944e-07
-1.63905343397e-06
4.17757189063e-07
-1.69703338822e-06
3.830891671e-07
-1.74711277093e-06
3.41369066949e-07
-1.76168090448e-06
2.7662725001e-07
-1.79763831926e-06
2.5626866445e-07
-1.81637753238e-06
2.09678111974e-07
-1.83633488038e-06
1.65580275242e-07
-1.81677210348e-06
9.27637193198e-08
-1.80805904183e-06
5.3220290285e-08
-1.82470821979e-06
5.38802903699e-08
-1.83173646161e-06
4.95198903863e-08
-1.94227595638e-06
1.1816878958e-07
-2.06375270932e-06
1.90917355491e-07
-2.13809773941e-06
2.46544661458e-07
-2.18027257707e-06
2.54215171268e-07
-2.20752903231e-06
2.36799717074e-07
-2.22774963073e-06
2.07551853882e-07
-2.24684698538e-06
1.70349662967e-07
-2.27031037407e-06
1.25047962615e-07
-2.29486275971e-06
7.95625939383e-08
-2.31193071896e-06
4.23557314065e-08
-2.31859151469e-06
1.22473760758e-08
-2.31630643216e-06
-1.60302333454e-08
-2.30693302446e-06
-4.60977262531e-08
-2.29167706687e-06
-7.97501456021e-08
-2.27059165531e-06
-1.18157844367e-07
-2.24301780979e-06
-1.62749393063e-07
-2.20780692402e-06
-2.14941049184e-07
-2.16288836357e-06
-2.75653501938e-07
-2.10614898502e-06
-3.45571444041e-07
-2.03732645428e-06
-4.25072108057e-07
-1.95616726543e-06
-5.14499250143e-07
-1.85464858093e-06
-6.18228032517e-07
-1.72374062009e-06
-7.50535654412e-07
-1.5590603163e-06
-9.20890738236e-07
-1.35746184978e-06
-1.11817233898e-06
-1.11974694556e-06
-1.31705710154e-06
-8.63347710875e-07
-1.47872665039e-06
-6.22707908791e-07
-1.57314917023e-06
-4.20687040533e-07
-1.59219083594e-06
-2.22507690292e-07
-1.52683725881e-06
6.29281724688e-08
-1.59347487848e-06
3.0828202971e-07
-1.14767121465e-06
4.75268963296e-07
-7.76671129403e-07
6.22525344789e-07
-6.34285765795e-07
7.51276334522e-07
-5.5044200904e-07
8.69489387971e-07
-4.79558564598e-07
9.68929415012e-07
-4.01249231007e-07
9.92145820239e-07
-2.30775508333e-07
9.48997983794e-07
6.31139004611e-09
8.96633742839e-07
1.96765578698e-07
8.26951519439e-07
3.55658292634e-07
7.20894994207e-07
5.20615703853e-07
5.93642373008e-07
6.7016939092e-07
4.54742175697e-07
7.25181683757e-07
3.09128749866e-07
7.71599498267e-07
1.55909386295e-07
1.01070660288e-06
1.08414851642e-06
-4.18052182759e-08
4.85592124435e-07
-1.95770861797e-07
6.76084119506e-07
-2.57297953188e-07
8.71422551966e-07
-1.98333120997e-07
6.06416456073e-07
-2.50204616159e-07
3.61338452062e-07
-4.79708796431e-07
6.35046324621e-07
-6.01833257448e-07
7.92187756572e-07
-6.6865856809e-07
7.58839763855e-07
-7.1102076537e-07
6.7310978583e-07
-7.80309286394e-07
6.19253897105e-07
-7.2969454162e-07
3.87835360366e-07
-6.81476276479e-07
1.69170364084e-07
-7.34632189696e-07
1.68168467416e-07
-8.20470295461e-07
1.90379733265e-07
-9.83136212366e-07
3.11658873456e-07
-1.17399918428e-06
4.52576140414e-07
-1.23908986365e-06
4.25719420918e-07
-1.24932100258e-06
3.65903336794e-07
-1.34202707914e-06
4.42012798411e-07
-1.443215261e-06
5.25272733856e-07
-1.51321474264e-06
5.35083622033e-07
-1.57314038892e-06
5.0914771796e-07
-1.62955015465e-06
4.73918157732e-07
-1.66699860054e-06
4.2031681929e-07
-1.68535434034e-06
3.59516509112e-07
-1.71064327804e-06
3.0172091196e-07
-1.71654689349e-06
2.61978203216e-07
-1.74250206083e-06
2.35449765899e-07
-1.74049446117e-06
1.63400769027e-07
-1.72204611852e-06
7.4148341764e-08
-1.74793844443e-06
7.89181017938e-08
-1.79222597418e-06
9.79658673725e-08
-1.86933075233e-06
1.26384004825e-07
-1.97548298896e-06
2.24035398637e-07
-2.09738563928e-06
3.12511369262e-07
-2.15545616034e-06
3.0430994123e-07
-2.18562192427e-06
2.84082214136e-07
-2.20948887955e-06
2.60369963663e-07
-2.23227226951e-06
2.30034513621e-07
-2.25453999492e-06
1.92309860225e-07
-2.27782126349e-06
1.48014370844e-07
-2.30028787456e-06
1.01709079472e-07
-2.31690459543e-06
5.86483293169e-08
-2.32499044732e-06
2.00058132911e-08
-2.32484575172e-06
-1.65072875631e-08
-2.31761431822e-06
-5.36679649477e-08
-2.30396765475e-06
-9.37444912649e-08
-2.28372506111e-06
-1.38757778527e-07
-2.25627407013e-06
-1.90569616383e-07
-2.22088681297e-06
-2.50709072597e-07
-2.17666300435e-06
-3.20273835832e-07
-2.12268581238e-06
-3.99961885726e-07
-2.0577849207e-06
-4.90410762947e-07
-1.97856965896e-06
-5.94175354264e-07
-1.87769016225e-06
-7.19594532434e-07
-1.74823101644e-06
-8.80516060066e-07
-1.58614443517e-06
-1.08356859374e-06
-1.38767844743e-06
-1.31731930744e-06
-1.1540843055e-06
-1.55141249033e-06
-9.0837330273e-07
-1.72517446213e-06
-7.0730576222e-07
-1.77488822e-06
-5.4230614345e-07
-1.75774673772e-06
-2.99388854699e-07
-1.77023136546e-06
-1.06765519179e-07
-1.78652300895e-06
2.43199253898e-07
-1.49794852817e-06
4.63762656171e-07
-9.97447450741e-07
6.62971221057e-07
-8.33733009927e-07
8.40559465229e-07
-7.28248292355e-07
9.76496405081e-07
-6.15763502161e-07
1.03908590457e-06
-4.64166883759e-07
1.02416614775e-06
-2.16189815651e-07
9.93519024933e-07
3.66005753202e-08
9.55128923788e-07
2.34776595867e-07
8.85195532707e-07
4.25178698558e-07
7.77336123859e-07
6.28056948261e-07
6.64540402904e-07
7.82607059297e-07
5.03815491003e-07
8.85523011252e-07
3.30096986931e-07
9.45102582571e-07
1.82022366451e-07
1.15819111567e-06
1.26608050483e-06
-8.2466843355e-08
5.67786979193e-07
-2.30396628381e-07
8.23764962209e-07
-2.42397823872e-07
8.8315056508e-07
-1.3963899098e-07
5.03492744501e-07
-2.95432405384e-07
5.16890111548e-07
-5.01230977832e-07
8.40462960306e-07
-5.74252806109e-07
8.64878716611e-07
-6.4792814391e-07
8.32193071601e-07
-6.26120654239e-07
6.5109442512e-07
-6.31348923489e-07
6.24245137738e-07
-5.74998455943e-07
3.31351460519e-07
-6.57872199718e-07
2.51870513493e-07
-7.31749320424e-07
2.41835660468e-07
-8.62052781595e-07
3.20431099345e-07
-1.04517750609e-06
4.94464171236e-07
-1.13061383896e-06
5.37703084775e-07
-1.13850639857e-06
4.33359705959e-07
-1.23081249987e-06
4.57944048128e-07
-1.34936204461e-06
5.60268401913e-07
-1.42744362077e-06
6.03066423698e-07
-1.48657988511e-06
5.93949710592e-07
-1.54340465916e-06
5.65715660633e-07
-1.60780054298e-06
5.38088056143e-07
-1.6649211792e-06
4.77225893064e-07
-1.66859255085e-06
3.6299146676e-07
-1.69951512234e-06
3.32458537403e-07
-1.70815797058e-06
2.70438716459e-07
-1.67494813365e-06
2.02063277336e-07
-1.67256143859e-06
1.60848147554e-07
-1.76720062053e-06
1.68603968532e-07
-1.81472277757e-06
1.26241812769e-07
-1.80608564115e-06
8.91008783529e-08
-1.9154867489e-06
2.35525374979e-07
-2.05578190389e-06
3.6403242478e-07
-2.11531349828e-06
3.71743559487e-07
-2.15505181563e-06
3.43754447741e-07
-2.18528192981e-06
3.14022298484e-07
-2.21173441643e-06
2.86532535136e-07
-2.23749316607e-06
2.55499646894e-07
-2.26247764097e-06
2.16994361476e-07
-2.2863797744e-06
1.71610279342e-07
-2.30804805281e-06
1.23066061745e-07
-2.32472157336e-06
7.50071591678e-08
-2.33411186865e-06
2.9078041044e-08
-2.33577670969e-06
-1.51644370431e-08
-2.33021558145e-06
-5.95566743335e-08
-2.31761111123e-06
-1.06683158604e-07
-2.29762301733e-06
-1.59089090619e-07
-2.26992134932e-06
-2.18622527844e-07
-2.23445152479e-06
-2.86542842653e-07
-2.19117814465e-06
-3.63921300393e-07
-2.13966123667e-06
-4.51870571414e-07
-2.07815034698e-06
-5.52329346014e-07
-2.00253405621e-06
-6.70216989195e-07
-1.90697853479e-06
-8.1558722136e-07
-1.78687497276e-06
-1.00110060845e-06
-1.63824262417e-06
-1.23277236679e-06
-1.45245467065e-06
-1.50381316347e-06
-1.21940923686e-06
-1.78523324533e-06
-9.79262165929e-07
-1.96609512041e-06
-8.0676460706e-07
-1.94801966865e-06
-6.43594412921e-07
-1.92140121375e-06
-4.56258886346e-07
-1.95796635302e-06
-2.72944417042e-07
-1.97020400415e-06
9.89388267935e-08
-1.87015335186e-06
4.6593474868e-07
-1.36473324688e-06
7.17596386197e-07
-1.08562962807e-06
9.22115466112e-07
-9.33075196586e-07
1.05297947948e-06
-7.46932298037e-07
1.09270670818e-06
-5.04207806294e-07
1.08634653307e-06
-2.10191083278e-07
1.07682814281e-06
4.5749628165e-08
1.04493341373e-06
2.6626850783e-07
9.7738637289e-07
4.92315735606e-07
8.80927985403e-07
7.24117593018e-07
7.57971033938e-07
9.0516148831e-07
5.84250734035e-07
1.05889962188e-06
3.65379552971e-07
1.16346510505e-06
1.91003956051e-07
1.33238117523e-06
1.45666179772e-06
-1.14762926692e-07
6.82372403599e-07
-2.31945629033e-07
9.40683683828e-07
-1.89656169979e-07
8.40670380387e-07
-1.8820616813e-07
5.01869008595e-07
-3.84728840961e-07
7.13142700305e-07
-4.69998433171e-07
9.25409819461e-07
-5.36434036879e-07
9.31033341409e-07
-5.98999694519e-07
8.94528145239e-07
-5.98651672597e-07
6.50530247448e-07
-6.05343916769e-07
6.3074243786e-07
-6.02473938154e-07
3.28319435778e-07
-6.69887864112e-07
3.19102913288e-07
-7.58992944115e-07
3.30707013e-07
-9.19066972249e-07
4.80205187835e-07
-1.08254778088e-06
6.57640224035e-07
-1.10914022706e-06
5.6402631764e-07
-1.13825781447e-06
4.62223923265e-07
-1.23719869879e-06
5.5660188508e-07
-1.33606080202e-06
6.58835709195e-07
-1.40678259357e-06
6.73501396956e-07
-1.46156656595e-06
6.48456842205e-07
-1.49959167952e-06
6.03507933727e-07
-1.52960918997e-06
5.67892439049e-07
-1.55989808969e-06
5.07329804898e-07
-1.58488387945e-06
3.87810191753e-07
-1.60038771539e-06
3.47780337051e-07
-1.64720918443e-06
3.17093559916e-07
-1.70183067619e-06
2.56511017091e-07
-1.74565204881e-06
2.04504880021e-07
-1.76675313171e-06
1.89520645594e-07
-1.81574080972e-06
1.75016919895e-07
-1.94820134266e-06
2.21304950932e-07
-2.02891170448e-06
3.1594514998e-07
-2.07945763696e-06
4.1428256407e-07
-2.1186997178e-06
4.10698195609e-07
-2.15378010114e-06
3.78551801429e-07
-2.18588790422e-06
3.45847559919e-07
-2.21492660264e-06
3.15286920125e-07
-2.24273272152e-06
2.83017281094e-07
-2.2699324446e-06
2.43900828959e-07
-2.29552167015e-06
1.96901768261e-07
-2.31787722339e-06
1.45120687391e-07
-2.3352591305e-06
9.20852558733e-08
-2.3461198491e-06
3.96322231352e-08
-2.34951239829e-06
-1.2082072495e-08
-2.34512646596e-06
-6.42571604383e-08
-2.33284995472e-06
-1.1928097824e-07
-2.3124549391e-06
-1.79810730296e-07
-2.28395685582e-06
-2.47457924987e-07
-2.24794828719e-06
-3.22893064871e-07
-2.20523360719e-06
-4.06990929799e-07
-2.15590259462e-06
-5.01566048218e-07
-2.09835123197e-06
-6.10256920622e-07
-2.02912024484e-06
-7.39818845237e-07
-1.94448935408e-06
-9.00602461234e-07
-1.84192312179e-06
-1.10412748725e-06
-1.71654443282e-06
-1.35878342829e-06
-1.55197503482e-06
-1.6691693276e-06
-1.32338144459e-06
-2.01468293992e-06
-1.1118538835e-06
-2.1784102401e-06
-9.93712745229e-07
-2.06674741308e-06
-8.35041290242e-07
-2.08050481816e-06
-6.14985331944e-07
-2.17838788067e-06
-3.58704536243e-07
-2.22681973339e-06
-7.78535355204e-08
-2.15139893092e-06
3.95040562188e-07
-1.83797256024e-06
8.17863901167e-07
-1.50886957779e-06
1.04041328812e-06
-1.15593952634e-06
1.15617170524e-06
-8.63034524743e-07
1.18250419586e-06
-5.3091095006e-07
1.19062233172e-06
-2.18649813479e-07
1.19196240686e-06
4.40383440419e-08
1.16053592834e-06
2.9732285139e-07
1.09685006223e-06
5.55613249731e-07
1.00825350252e-06
8.12326217493e-07
8.64892328732e-07
1.04814195943e-06
6.69584111654e-07
1.25377710651e-06
4.17001488208e-07
1.41574830839e-06
1.93875292972e-07
1.55473493998e-06
1.65045857459e-06
-1.42779131003e-07
8.24825362825e-07
-2.45767112736e-07
1.04337148573e-06
-1.74531611623e-07
7.69224070645e-07
-2.38281869237e-07
5.65436996867e-07
-4.15771353006e-07
8.90362601362e-07
-4.26771542656e-07
9.36175917924e-07
-4.88700725807e-07
9.92685904797e-07
-4.91313607493e-07
8.96949987003e-07
-5.38987109649e-07
6.98027693886e-07
-5.1373194569e-07
6.05308266408e-07
-5.83257153673e-07
3.97684497437e-07
-6.70590199985e-07
4.06222464665e-07
-7.73649315777e-07
4.33535841299e-07
-9.26208697161e-07
6.32476076983e-07
-1.00740822044e-06
7.38537167435e-07
-1.00595507806e-06
5.62341363663e-07
-1.09936977206e-06
5.55385354039e-07
-1.21384382507e-06
6.70788144849e-07
-1.30345858042e-06
7.48155242595e-07
-1.37999801584e-06
7.49756332757e-07
-1.44380559816e-06
7.12021972696e-07
-1.49832514721e-06
6.57792666097e-07
-1.51370281776e-06
5.83063032612e-07
-1.51738100085e-06
5.10833700669e-07
-1.58000056585e-06
4.50262755654e-07
-1.59030998675e-06
3.57920850995e-07
-1.55825924136e-06
2.84886741116e-07
-1.5627587575e-06
2.60857980222e-07
-1.62805180132e-06
2.69623564214e-07
-1.73491217353e-06
2.96192702814e-07
-1.82538034191e-06
2.65262876292e-07
-1.90943277964e-06
3.05096656899e-07
-2.03128002178e-06
4.3749089659e-07
-2.08419501222e-06
4.66910303697e-07
-2.11907081467e-06
4.45297086532e-07
-2.15434463807e-06
4.13549908904e-07
-2.18856638994e-06
3.79791662321e-07
-2.21977690958e-06
3.46217200488e-07
-2.24889288617e-06
3.11850280333e-07
-2.2775206672e-06
2.72242564277e-07
-2.30501161698e-06
2.24104209452e-07
-2.32922370931e-06
1.69041937522e-07
-2.3483038029e-06
1.10872794066e-07
-2.360977141e-06
5.20107560018e-08
-2.36620120286e-06
-7.15581976961e-09
-2.36298250695e-06
-6.77783727188e-08
-2.35055331806e-06
-1.32015938152e-07
-2.32880822152e-06
-2.01870218817e-07
-2.29844364763e-06
-2.78137759941e-07
-2.26085996161e-06
-3.60805199805e-07
-2.21777726826e-06
-4.50405434676e-07
-2.1702740668e-06
-5.49411694686e-07
-2.11759359845e-06
-6.63279568748e-07
-2.0575264831e-06
-8.00218633952e-07
-1.98857663983e-06
-9.69908919443e-07
-1.91058198619e-06
-1.18259760471e-06
-1.81939950644e-06
-1.45065570759e-06
-1.69155099932e-06
-1.79787183623e-06
-1.50348359292e-06
-2.20374165551e-06
-1.41819884799e-06
-2.26448751496e-06
-1.34439164462e-06
-2.14105778198e-06
-1.12210015746e-06
-2.30316435259e-06
-7.94238639481e-07
-2.50657570851e-06
-4.16706340719e-07
-2.60474389724e-06
-4.47750612851e-08
-2.52373509868e-06
4.29329105337e-07
-2.31264398178e-06
8.86046760039e-07
-1.96605314211e-06
1.15796501136e-06
-1.42831554075e-06
1.26236641282e-06
-9.6780820359e-07
1.29898380383e-06
-5.67792242182e-07
1.32106387062e-06
-2.41072014802e-07
1.32338503541e-06
4.14076318638e-08
1.29218825388e-06