/*--------------------------------*- C++ -*----------------------------------*\
| =========                 |                                                 |
| \\      /  F ield         | OpenFOAM: The Open Source CFD Toolbox           |
|  \\    /   O peration     | Version:  v1806                                 |
|   \\  /    A nd           | Web:      www.OpenFOAM.com                      |
|    \\/     M anipulation  |                                                 |
\*---------------------------------------------------------------------------*/
FoamFile
{
    version     2.0;
    format      ascii;
    class       volVectorField;
    location    "116";
    object      U;
}
// * * * * * * * * * * * * * * * * * * * * * * * * * * * * * * * * * * * * * //

dimensions      [0 1 -1 0 0 0 0];


internalField   nonuniform List<vector> 
6400
(
(-7.52015331066e-05 -0.000102224002712 0)
(-0.000210113147903 -8.24552839898e-05 0)
(-0.000310160524833 -7.05121954421e-05 0)
(-0.000431835705724 -6.52531132695e-05 0)
(-0.000516933919805 -3.76065255997e-05 0)
(-0.00057425102684 -1.30840276826e-05 0)
(-0.000587958606315 -4.40558055581e-06 0)
(-0.000592283806496 -1.78807464922e-05 0)
(-0.000673970193037 -3.37820096628e-05 0)
(-0.00076495574622 -3.14021713892e-05 0)
(-0.00077234782932 -2.75549556609e-05 0)
(-0.000858917006422 -3.4630792938e-05 0)
(-0.000931258843234 -3.14292236779e-05 0)
(-0.000988097485825 -2.25887433054e-05 0)
(-0.00101881518213 -1.77319046897e-05 0)
(-0.00105410221676 -2.25169213483e-05 0)
(-0.00111068445565 -2.41176374079e-05 0)
(-0.00115318717213 -1.91544505184e-05 0)
(-0.00117232634972 -9.81004791577e-06 0)
(-0.00118048968988 -2.2481158473e-06 0)
(-0.00119827593162 -9.14878025672e-06 0)
(-0.00123493402741 -1.97365069725e-05 0)
(-0.00128501054348 -2.43690673604e-05 0)
(-0.00133163184573 -2.70350242015e-05 0)
(-0.00137911518759 -2.53454782431e-05 0)
(-0.00142271716622 -2.07882562163e-05 0)
(-0.00146890727804 -2.05065493052e-05 0)
(-0.00151229369593 -1.87024045235e-05 0)
(-0.00154515037828 -1.44551577131e-05 0)
(-0.001569329896 -1.09583180191e-05 0)
(-0.00158394067446 -1.18360364353e-05 0)
(-0.00160568039996 -1.11213129123e-05 0)
(-0.00162737269799 -6.40994524252e-06 0)
(-0.00163880379049 -6.40706287789e-06 0)
(-0.00164424305475 -4.30619535312e-06 0)
(-0.00166297092974 -3.00187474974e-06 0)
(-0.00168394481508 -5.71651734004e-06 0)
(-0.00165995067556 -3.84230608131e-06 0)
(-0.0016718789781 -7.07317649814e-07 0)
(-0.00170261064982 -6.65880572524e-06 0)
(-0.00174377404082 -3.33125308302e-05 0)
(-0.0017874046086 -4.35487813649e-05 0)
(-0.00182319994609 -1.56999706796e-05 0)
(-0.00183708313311 3.71599134809e-07 0)
(-0.00183243798882 6.8020463621e-06 0)
(-0.00182056205916 1.35873149553e-05 0)
(-0.00179846281254 1.89163302787e-05 0)
(-0.00176344734146 2.49786307856e-05 0)
(-0.00171922592613 2.74440695202e-05 0)
(-0.0016735917638 1.6710731387e-05 0)
(-0.00163782701832 -4.71942000323e-06 0)
(-0.00167172200534 -3.10457443562e-06 0)
(-0.00162329054227 4.98739532703e-05 0)
(-0.00154777996457 6.6643869266e-05 0)
(-0.0014294527198 7.41702431758e-05 0)
(-0.00122298429774 9.45750277573e-05 0)
(-0.00103905508252 7.61481236354e-05 0)
(-0.000911159428187 5.63391326861e-05 0)
(-0.000806723669708 6.49008103632e-05 0)
(-0.000614619592355 6.92233836e-05 0)
(-0.000451852847635 7.01838558248e-05 0)
(-0.000273802981569 9.59120588436e-05 0)
(-4.41008545397e-05 0.000129089897383 0)
(0.000210192133397 9.36832268909e-05 0)
(0.000343463994469 5.93052895187e-05 0)
(0.000427703966857 4.34514519834e-05 0)
(0.000495756573846 3.35756640562e-05 0)
(0.000562278800029 2.84435359065e-05 0)
(0.000627818707053 2.50730074278e-05 0)
(0.000676523919007 1.93174869692e-05 0)
(0.000712817001 1.11135221763e-05 0)
(0.000716231155665 -1.34627770352e-07 0)
(0.000688192876512 -1.5134112905e-05 0)
(0.000672100752725 -3.52436520014e-05 0)
(0.000551112331086 -3.85655848517e-05 0)
(0.000515706610332 -4.22903690936e-05 0)
(0.000360741862212 -2.93433633045e-05 0)
(0.00038837263216 -4.94114624658e-05 0)
(0.000172443317291 -3.94182707099e-05 0)
(0.000129780061141 -7.63325595154e-05 0)
(-2.67743057619e-05 -0.000137651868303 0)
(-0.000115602345217 -0.000158890567278 0)
(-0.000203614541955 -0.000150229682038 0)
(-0.000257012555619 -0.00011942221728 0)
(-0.000387350005561 -0.000119231078148 0)
(-0.000527603314722 -8.39574877002e-05 0)
(-0.000613162823241 -4.49371961616e-05 0)
(-0.000664151828431 -6.66580862439e-05 0)
(-0.000716179985077 -9.7689766004e-05 0)
(-0.000777126312647 -9.5010593369e-05 0)
(-0.00083557855204 -9.00838898748e-05 0)
(-0.000888123011596 -9.40470868481e-05 0)
(-0.000935948590819 -8.33737920684e-05 0)
(-0.000979221462172 -6.61647817427e-05 0)
(-0.00102526535659 -5.74732837947e-05 0)
(-0.00107012440209 -7.6097041654e-05 0)
(-0.00111494203857 -8.06614299112e-05 0)
(-0.0011423428575 -3.78377519477e-05 0)
(-0.00109342348373 -9.77644251956e-06 0)
(-0.0011138091175 -6.82044736101e-06 0)
(-0.00114947050206 -3.2183344126e-05 0)
(-0.00120427956566 -7.27982414377e-05 0)
(-0.00128461114474 -8.85088583867e-05 0)
(-0.00134936215893 -7.77644229716e-05 0)
(-0.0013605806758 -6.98322181928e-05 0)
(-0.00142549072093 -6.92104906947e-05 0)
(-0.00148007136487 -6.37619691154e-05 0)
(-0.00151496681001 -5.3217660526e-05 0)
(-0.00154296361524 -4.21672724925e-05 0)
(-0.00156699195771 -3.30513467773e-05 0)
(-0.0015886980822 -3.09421940317e-05 0)
(-0.00158372908999 -2.69120306191e-05 0)
(-0.00160255976253 -1.21940096788e-05 0)
(-0.00160591601894 -1.55164921406e-05 0)
(-0.00159574175703 -2.08734705245e-05 0)
(-0.00164839760452 -6.61154664241e-06 0)
(-0.00164075531003 -1.28897744371e-05 0)
(-0.00162488097193 -2.34049168626e-05 0)
(-0.00165854674682 -2.00315465811e-05 0)
(-0.00172698260419 -1.98206567336e-05 0)
(-0.00177581900865 -1.57077231484e-05 0)
(-0.00153108286921 -7.75656250851e-06 0)
(-0.00147650424592 -4.47617949617e-06 0)
(-0.0014940076803 -2.44978745922e-06 0)
(-0.0014993784733 3.59499593941e-07 0)
(-0.00152560153605 5.77566462911e-06 0)
(-0.00156190278669 1.56270502686e-05 0)
(-0.00157550668262 2.80233754791e-05 0)
(-0.00160560252083 4.05926270643e-05 0)
(-0.00161093005855 4.80474110606e-05 0)
(-0.00155166540865 4.35920272305e-05 0)
(-0.00141848381793 4.28545705942e-05 0)
(-0.00129452869312 5.3627734251e-05 0)
(-0.00154504724928 0.000109466564806 0)
(-0.00139343927457 0.000178248251343 0)
(-0.00129084993269 0.000214889488283 0)
(-0.0012970319183 0.000220812489311 0)
(-0.0011676685363 0.000212157087338 0)
(-0.00100445174718 0.000239869902506 0)
(-0.000827868364497 0.000283803948833 0)
(-0.000620548511233 0.000324814503779 0)
(-0.000292095509042 0.000296345198705 0)
(-6.32729112611e-05 0.000381594268585 0)
(0.000197056805157 0.000292324904341 0)
(0.000335256163614 0.000188418354097 0)
(0.000405340122444 0.000120635136719 0)
(0.000464890337253 9.69014832365e-05 0)
(0.000554808764162 9.38062815297e-05 0)
(0.000624816881388 8.23137958704e-05 0)
(0.000685414641878 6.15243190019e-05 0)
(0.000714732450672 2.92861254978e-05 0)
(0.000711772441257 -1.00111267433e-05 0)
(0.00066749222001 -4.13212167484e-05 0)
(0.000667455010491 -7.65170000622e-05 0)
(0.000623048168831 -0.000101880222742 0)
(0.000567190000664 -0.000118546039329 0)
(0.000490529779257 -0.000119378110746 0)
(0.000405383792044 -0.000149864824792 0)
(0.000257317124666 -0.000179083078059 0)
(0.000120946807279 -0.000306438609558 0)
(-4.22303377843e-05 -0.000237231354616 0)
(-0.00011439161326 -0.000266871919576 0)
(-0.000175417421045 -0.000255489937895 -9.81288394856e-29)
(-0.000319470715857 -0.000273136453042 9.71445450198e-29)
(-0.000463808027698 -0.000283000296396 9.20786787633e-29)
(-0.00053969854666 -0.000227164416473 -8.56719845182e-29)
(-0.000586437714766 -0.000108987858577 8.79842864077e-29)
(-0.000640481097946 -0.000122043236193 -8.97508263257e-29)
(-0.000697309049803 -0.000154801637308 0)
(-0.000763867707568 -0.00016106740669 0)
(-0.000830236195051 -0.000152396121229 0)
(-0.000885408679245 -0.000141559259855 0)
(-0.000933560012422 -0.000125400578586 0)
(-0.000974923910273 -0.000113760903165 0)
(-0.00101519417896 -0.000101428816269 0)
(-0.00105390846077 -7.28176853588e-05 0)
(-0.00086917667659 -3.23226850464e-05 0)
(-0.000821008015966 -1.02506945918e-05 0)
(-0.00084113366008 -1.8749477635e-05 0)
(-0.000905752468207 -6.53203618163e-05 0)
(-0.00111403568475 -0.00012817239022 0)
(-0.00124402441469 -0.000157361350289 0)
(-0.00125263811727 -0.000146761610506 0)
(-0.00132005034946 -0.000131952003835 0)
(-0.00139232242627 -0.0001241209369 0)
(-0.00143652426049 -0.000118096637762 0)
(-0.00147213324798 -0.000101744606333 0)
(-0.0015067072398 -8.34330468201e-05 0)
(-0.00153473065927 -6.68338730402e-05 0)
(-0.00155013379844 -5.42398623017e-05 -2.12388117786e-28)
(-0.00158008751348 -4.18828533744e-05 2.07156503694e-28)
(-0.00155708714715 -3.22607708988e-05 0)
(-0.0015586196431 -1.877232002e-05 0)
(-0.00161479092978 -1.19970991507e-06 0)
(-0.00150467292183 -2.10718606911e-05 0)
(-0.00154659450807 -3.01233468314e-05 0)
(-0.00164664886556 -1.53800294936e-05 0)
(-0.00154322775278 -3.57174791657e-05 0)
(-0.00160872366837 -7.13584212228e-05 0)
(-0.00172213321803 -6.773977064e-05 0)
(-0.00179635145503 -3.51822823341e-06 0)
(-0.00181910421947 3.74859599037e-05 0)
(-0.00183355353332 1.32802101125e-05 0)
(-0.00183956597102 -3.6476400241e-06 0)
(-0.00183557415169 -6.19403180991e-06 0)
(-0.00182514916763 -2.77088638676e-06 0)
(-0.00180976208651 9.97401475534e-06 0)
(-0.00179015816984 2.63571081363e-05 0)
(-0.00176694801463 4.70560029805e-05 0)
(-0.0017414957983 7.80125846535e-05 0)
(-0.00171623161152 0.000109981497891 0)
(-0.0016858249823 0.00012225190653 0)
(-0.00163014945248 0.000100298986909 0)
(-0.0015126951616 0.00015012688361 0)
(-0.00137621046338 0.000227777227153 0)
(-0.0013699842256 0.000270732274342 0)
(-0.00129651848792 0.000304641179014 0)
(-0.00116130627111 0.000351443962731 0)
(-0.000997154291536 0.000407436658925 0)
(-0.000811641382627 0.000475322641666 0)
(-0.000602147630328 0.000549460363483 0)
(-0.000371629375583 0.000625805787639 0)
(-0.000108533061097 0.000686556751827 0)
(0.000136734537706 0.000471652564273 0)
(0.000272845999792 0.000286067856038 0)
(0.000383691928022 0.00021061510086 0)
(0.000480494710855 0.000182386102017 0)
(0.000552130539297 0.000162563621958 0)
(0.000613599726922 0.000134826608969 0)
(0.00066175519112 9.49082478956e-05 0)
(0.000687959100813 4.54462954114e-05 0)
(0.000701967997177 -3.4096692118e-06 0)
(0.000729031968968 -4.57072660842e-05 0)
(0.00072933906111 -0.000103114010068 0)
(0.000672429138957 -0.000162555462767 0)
(0.000591725769007 -0.000194972797446 0)
(0.000499940455884 -0.000212905598123 0)
(0.000404072536116 -0.00028208180308 0)
(0.00028720325003 -0.000419587448941 0)
(7.65840654273e-05 -0.000439415873374 0)
(-4.37274493162e-05 -0.000365951743196 0)
(-4.7931114497e-05 -0.000233178203102 0)
(-0.000147102896794 -0.000397635651943 0)
(-0.00029277374827 -0.000417418802282 0)
(-0.000390421592401 -0.00034707062929 0)
(-0.000194628458845 -0.000115612177891 0)
(-0.000238548656364 -0.000115494293334 0)
(-0.000483962306989 -0.000237544802283 0)
(-0.000645881088028 -0.000269727961356 0)
(-0.000731338317947 -0.000243863575377 0)
(-0.000815523200728 -0.00022381697348 0)
(-0.000880505106665 -0.000199756594711 0)
(-0.000929864382225 -0.000171576451674 0)
(-0.00095181791682 -0.000119222001073 0)
(-0.000836738472165 -4.79071094545e-05 0)
(-0.000760705371965 -3.73470803669e-06 0)
(-0.000751455244909 3.56363558546e-06 0)
(-0.000804917052287 -3.98691963036e-05 0)
(-0.000952747785765 -0.000116883907026 0)
(-0.00114443552225 -0.000214363766751 0)
(-0.00118449451123 -0.000239812644043 0)
(-0.001229593671 -0.000220970228876 0)
(-0.00129341800297 -0.000204856236974 0)
(-0.00134613582097 -0.000193430887966 0)
(-0.00138886834644 -0.000175786845358 0)
(-0.00142585342112 -0.000154797097395 0)
(-0.00145551914156 -0.000134046234147 0)
(-0.00149902014953 -0.000112395882002 0)
(-0.0015107837246 -9.01557308148e-05 0)
(-0.00155288621111 -7.09677277741e-05 0)
(-0.00152870967048 -5.16315890129e-05 0)
(-0.00157627578418 -2.99489409642e-05 0)
(-0.00150215586229 -4.03695230518e-06 0)
(-0.00150632382778 -1.04489914463e-06 0)
(-0.00160111341475 -1.75250456e-05 0)
(-0.00150644513419 -4.92960012092e-05 0)
(-0.00159557419548 -6.46227083625e-05 0)
(-0.0017211562245 -8.79773403167e-05 0)
(-0.00175627823379 -0.000125310224749 0)
(-0.00177007627126 -0.000110776607865 0)
(-0.00179013072495 -5.29436242171e-05 0)
(-0.00181199759625 -8.5002550849e-06 0)
(-0.00182857070393 -4.88657388246e-07 0)
(-0.0018362654518 -1.23614988921e-06 0)
(-0.00183468041433 3.12205081453e-06 0)
(-0.00182652384316 1.32169543999e-05 2.27363164448e-28)
(-0.00181347768814 2.91149829104e-05 -2.28892710408e-28)
(-0.001796252201 4.91416004129e-05 0)
(-0.00177514882866 7.33509684774e-05 0)
(-0.00175039991749 0.000102271007895 0)
(-0.00172122691949 0.000131849385092 0)
(-0.00168201246439 0.000158966871126 0)
(-0.00162415262468 0.00019267273875 0)
(-0.00154919642885 0.00025081597516 0)
(-0.00147227778668 0.000302330156289 0)
(-0.00139321531413 0.000348296205773 0)
(-0.00129274537845 0.000420944918583 0)
(-0.00115694266682 0.000504757999874 4.15545214355e-28)
(-0.000986895537241 0.000591871979579 -4.61277378114e-28)
(-0.000790722968999 0.000682154451421 0)
(-0.000576674204547 0.000767207373598 0)
(-0.00035793216238 0.000839285996113 0)
(-0.000161607924392 0.000862023293621 0)
(6.16116752656e-05 0.000680034908239 0)
(0.000261152149 0.000457102528036 0)
(0.000373389926183 0.000314566881436 0)
(0.000462097821018 0.000257527088974 0)
(0.000545080188305 0.000227075267244 0)
(0.000615437157035 0.000189438718448 0)
(0.000684547570027 0.000140663788642 0)
(0.000740663914756 8.45044202857e-05 0)
(0.000782704805703 2.49375318279e-05 0)
(0.000781279925146 -5.6030675332e-05 0)
(0.000698632851293 -0.000148943319514 0)
(0.000629859476648 -0.000227152404756 0)
(0.00055882074717 -0.000291428643271 0)
(0.000448940330026 -0.000334518200028 0)
(0.000278586795576 -0.000339485075111 0)
(0.000207635953363 -0.000491413884216 0)
(7.1099702675e-05 -0.00059683182099 0)
(-1.45634783689e-06 -0.000353529585195 0)
(-2.06387829591e-05 -0.000285321653255 0)
(-0.000140477619628 -0.000542410552761 0)
(-0.000247690315628 -0.000495191764948 0)
(-0.00023516775164 -0.000290865328169 0)
(-0.000176393373645 -0.000151836893425 0)
(-0.000308254450729 -0.000266253310801 0)
(-0.000530874968569 -0.000427511776434 0)
(-0.000606254900881 -0.000387357507647 0)
(-0.000699367614185 -0.000336670178662 0)
(-0.000785279034796 -0.000310057784468 0)
(-0.000851472884393 -0.000261049036735 0)
(-0.000820707360051 -0.000149473403444 0)
(-0.000707739562069 -4.96735753525e-05 0)
(-0.000720417905822 -1.08337031644e-05 0)
(-0.00076828283787 -1.90751942738e-05 0)
(-0.000865082622311 -7.23176499909e-05 0)
(-0.00101182649144 -0.000169912338043 0)
(-0.00113087359819 -0.000255472510959 0)
(-0.00112876758751 -0.000267362009506 0)
(-0.00117286146834 -0.000274823517436 0)
(-0.00124401840917 -0.000279958679134 0)
(-0.00129404614239 -0.000263243228123 0)
(-0.0013400311715 -0.000238531825003 0)
(-0.00137869138804 -0.000213330411631 0)
(-0.00140856216265 -0.00019097186113 0)
(-0.00145556836204 -0.000165860389472 0)
(-0.00145779643616 -0.000137754153812 0)
(-0.00151844851145 -0.000112167658821 0)
(-0.00148099298669 -8.2298373711e-05 0)
(-0.00155935352569 -5.65058331482e-05 -2.00523149603e-28)
(-0.00144703769077 -2.62018341789e-05 1.77376026551e-28)
(-0.00152936562723 -1.17680542483e-05 0)
(-0.00159041252111 -7.74395547009e-06 0)
(-0.00151161670113 -3.49076119783e-05 0)
(-0.00164081930155 -9.41762238739e-05 0)
(-0.00169588395847 -0.000146713712793 0)
(-0.00173896747591 -0.000153870296963 0)
(-0.00176213004291 -0.00014203379129 0)
(-0.00177528906481 -0.000115571085394 0)
(-0.00179349433384 -7.24642684339e-05 0)
(-0.00181374698068 -3.39353974951e-05 0)
(-0.0018293288297 -1.44168608222e-05 0)
(-0.00183731010855 -3.72327366405e-06 0)
(-0.00183732838844 8.01533465746e-06 0)
(-0.00183131613023 2.36592104666e-05 0)
(-0.00182045688796 4.37632904018e-05 0)
(-0.00180523580886 6.78741756971e-05 0)
(-0.0017855841367 9.63412301697e-05 0)
(-0.00176093544649 0.000129718590359 0)
(-0.00172987498427 0.00016712217754 0)
(-0.00168883758919 0.000208481604772 0)
(-0.00163415102398 0.000257123794059 0)
(-0.00156692270705 0.000315952624759 0)
(-0.00149197522061 0.00037715419937 0)
(-0.00140681475912 0.000450336083825 0)
(-0.00129922885055 0.000549033409164 0)
(-0.00115780493134 0.00066450928694 0)
(-0.000979949522022 0.00078121832416 0)
(-0.000776212431784 0.000888639627786 0)
(-0.000563534091756 0.00097856292083 0)
(-0.000362957918393 0.00104475814509 0)
(-0.000208892304465 0.00103781887239 0)
(5.49281003647e-06 0.000914431966071 0)
(0.000244327708609 0.000653960704119 0)
(0.000374682762854 0.000444592265623 0)
(0.000473278097059 0.000353084879384 0)
(0.000557244631335 0.000303540559452 0)
(0.000631547932211 0.000256002523083 0)
(0.000711958723193 0.000204165047043 0)
(0.000797746259746 0.00013925684211 0)
(0.000827069788242 3.03889357875e-05 0)
(0.00074791186094 -0.00010333657092 0)
(0.000688486188334 -0.000215114043308 0)
(0.000629759158018 -0.000312601221637 0)
(0.000546727715622 -0.000404947449223 0)
(0.000410090275431 -0.000438901677473 0)
(0.000280343618172 -0.00046247351765 0)
(0.000194368990382 -0.00064547671942 0)
(5.52573447283e-05 -0.000704244859259 0)
(2.54774590122e-06 -0.000325178053001 0)
(-2.97103812309e-05 -0.000350635219781 0)
(-0.000145501514626 -0.000617580460878 0)
(-0.000192893067073 -0.000479349113356 0)
(-0.00013329066077 -0.000215701571764 0)
(-0.00017913296956 -0.000220963458883 0)
(-0.000425470996376 -0.000471197452649 0)
(-0.000523583569477 -0.000520296984335 0)
(-0.000581557147011 -0.000468662010665 0)
(-0.000657922793999 -0.000422843386552 0)
(-0.000730404470684 -0.000353311601149 0)
(-0.000626258874266 -0.000203758259879 0)
(-0.000555446609799 -8.56825450144e-05 0)
(-0.000604722414769 -5.35257221582e-05 0)
(-0.000665646956472 -6.67254170407e-05 0)
(-0.000796228412058 -0.000127175097541 0)
(-0.00096200377984 -0.000217748517431 0)
(-0.00108082401129 -0.000276392253605 0)
(-0.00104790649711 -0.000267251286564 0)
(-0.00110659562599 -0.000300023162618 0)
(-0.00119300694844 -0.000339807426843 0)
(-0.00124080948131 -0.000335042332682 0)
(-0.00128455862856 -0.000310697316184 0)
(-0.00132188708922 -0.000282183894318 0)
(-0.00137481837482 -0.000255728180247 0)
(-0.00140552386795 -0.000218482383153 0)
(-0.0013826088359 -0.000188047688444 0)
(-0.0014780944479 -0.000165304477173 0)
(-0.00140474432323 -0.000121445428932 0)
(-0.00152389431039 -8.6954059284e-05 0)
(-0.00136008508063 -4.26620278537e-05 0)
(-0.00150756157508 -3.65081543933e-05 0)
(-0.00137809758672 -3.46292963151e-05 0)
(-0.00149457810545 -4.62726950295e-05 0)
(-0.00162152760089 -0.000101065335489 0)
(-0.00168548237923 -0.0001700904465 0)
(-0.00171976389149 -0.00018854293808 0)
(-0.00174498170906 -0.00017983056764 0)
(-0.00176306123388 -0.000158634303823 0)
(-0.00177967466784 -0.00012925078047 0)
(-0.00179793882782 -9.17237293607e-05 0)
(-0.0018167149959 -5.51928374127e-05 0)
(-0.00183182196541 -2.83065533755e-05 0)
(-0.00184019132458 -8.24236579267e-06 0)
(-0.00184183455694 1.08586165002e-05 0)
(-0.00183766116585 3.21200535465e-05 0)
(-0.00182877153837 5.67565402245e-05 0)
(-0.00181523193274 8.52885238587e-05 0)
(-0.00179644566716 0.000118616791248 0)
(-0.00177168519516 0.000157729380623 0)
(-0.00173987751546 0.000203095393348 0)
(-0.001699059037 0.000255283220871 0)
(-0.00164753995186 0.00031516121942 0)
(-0.00158537802837 0.000382843746521 0)
(-0.00151250817076 0.000459255362331 0)
(-0.00142421340485 0.000555565511605 0)
(-0.0013107552432 0.000680968667685 0)
(-0.00116485138108 0.000826699917854 0)
(-0.000987912631811 0.000973663272245 0)
(-0.000784305697958 0.00109407622591 0)
(-0.000583169364403 0.00117774389321 0)
(-0.000407771149734 0.00119579527518 0)
(-0.000225725959697 0.0010679555518 0)
(-4.47543167971e-05 0.00120793317763 0)
(0.00019419399428 0.000829040584374 0)
(0.000337913958069 0.000567531265332 0)
(0.000463152106387 0.000453712285963 0)
(0.000573868011548 0.000389374768644 0)
(0.000666397468617 0.000335363290726 0)
(0.000779725512542 0.0002855538133 0)
(0.000866526750857 0.000178827892839 0)
(0.000815810571 6.47134323097e-07 0)
(0.000750152970336 -0.0001528992121 0)
(0.000718379194745 -0.000278553851762 0)
(0.000649761851533 -0.000400542601389 0)
(0.000566145530239 -0.000520060673594 0)
(0.000415517130969 -0.000536737817742 0)
(0.00029773554921 -0.000577383643509 0)
(0.00020425158114 -0.000773170052725 0)
(6.25539286628e-05 -0.000815445744258 0)
(-1.12181091043e-05 -0.00035290589564 0)
(-7.98880807122e-05 -0.000471151529242 0)
(-0.000199915884795 -0.000673285595113 0)
(-0.000211107200819 -0.000602574120166 0)
(-0.000124368050957 -0.000265938664743 0)
(-0.000275891649641 -0.000412817410474 0)
(-0.000468869866333 -0.000601718872866 0)
(-0.000504569650181 -0.000579069034002 0)
(-0.000562500851235 -0.000525267483158 0)
(-0.000581189388645 -0.000459296654729 0)
(-0.0006832360617 -0.000365281370027 4.02297121646e-28)
(-0.000477910435061 -0.00013772620129 -2.07448224275e-28)
(-0.000562624707108 -0.000110132368621 0)
(-0.000594897296824 -0.000114634747172 0)
(-0.000702581297629 -0.000175022741837 0)
(-0.000881730852862 -0.000287693938722 0)
(-0.0010124686218 -0.00033717082969 0)
(-0.000948103348763 -0.00027986163351 0)
(-0.00101462761141 -0.000306124083492 0)
(-0.00113171584626 -0.000380490738316 0)
(-0.00117924565601 -0.000399871670736 0)
(-0.00123085746459 -0.000383549002431 0)
(-0.0012767552167 -0.00035598719095 0)
(-0.00131778896701 -0.000321411758319 0)
(-0.00133578821495 -0.000277491755992 0)
(-0.00132510775346 -0.000228946020216 0)
(-0.00140614878671 -0.000207987172542 0)
(-0.00131202730916 -0.000173939553305 0)
(-0.00146575164846 -0.000137574978554 0)
(-0.0012911039211 -5.94117127702e-05 0)
(-0.0014427490017 -5.04654933529e-05 0)
(-0.00134063288546 -5.9564063587e-05 1.64077275727e-28)
(-0.00146986612024 -6.86042393961e-05 -1.8262428844e-28)
(-0.00149173082563 -0.000131473684035 0)
(-0.00166831240809 -0.000204334280511 0)
(-0.00170320892574 -0.000222871795655 0)
(-0.00172497451911 -0.00021638380439 0)
(-0.00174465832229 -0.000199380887655 0)
(-0.00176517094902 -0.000175538489424 0)
(-0.00178471250249 -0.00014577003864 0)
(-0.00180319543205 -0.000110292924378 0)
(-0.00182138856329 -7.3860339357e-05 0)
(-0.00183625073893 -4.1786724977e-05 0)
(-0.00184519535294 -1.42407840743e-05 0)
(-0.00184810442113 1.1695764113e-05 0)
(-0.00184565470156 3.86017803601e-05 0)
(-0.0018384601307 6.8138177518e-05 0)
(-0.00182609856341 0.000101642714506 0)
(-0.0018077288001 0.000140498726687 0)
(-0.00178286778866 0.000185944538036 0)
(-0.00175104419455 0.000238837528016 0)
(-0.00171129715126 0.00029972186309 0)
(-0.00166272803365 0.000368939158812 0)
(-0.00160445987353 0.000447721761504 0)
(-0.00153410011384 0.000541483853263 0)
(-0.00144604307434 0.000661484670321 0)
(-0.00133245903954 0.000813500099455 0)
(-0.00118817868837 0.000986922055182 0)
(-0.00101329150634 0.00115723780904 0)
(-0.000819828754597 0.00129017466309 0)
(-0.000636221360219 0.0013487117793 0)
(-0.000482351315187 0.00134740384353 0)
(-0.000321272172199 0.00138909696715 0)
(-0.000156235938601 0.00138490216667 0)
(0.00010268534947 0.00100917836347 0)
(0.000301162225755 0.000701346404665 0)
(0.000474309076474 0.0005985045704 0)
(0.000630111020308 0.000524825097473 0)
(0.000757079199884 0.000453822056055 0)
(0.000868188276855 0.000359147514516 0)
(0.000893400970309 0.000175086737461 0)
(0.000826777304648 -3.24215663651e-05 0)
(0.000808126273602 -0.000194193310292 0)
(0.000769439848355 -0.000340157245126 0)
(0.000704219723891 -0.000493756132363 0)
(0.000595583968411 -0.000607066472366 0)
(0.000475020128791 -0.000667479044484 0)
(0.000324382895849 -0.00070158526488 0)
(0.000218948323414 -0.000892610792109 0)
(7.59885062428e-05 -0.000964000690475 0)
(-2.43980787514e-05 -0.000413168316312 0)
(-0.00012293505508 -0.00059928602802 0)
(-0.000230976260191 -0.000689750145041 0)
(-0.00012255337951 -0.000360670401332 0)
(-0.000129959326457 -0.000335586690426 0)
(-0.000350657981598 -0.000620189520682 0)
(-0.000434006837345 -0.0006612830591 0)
(-0.000492985517136 -0.000636763690526 0)
(-0.00050708837701 -0.000547026014127 0)
(-0.00056139254786 -0.000484139640924 0)
(-0.00041652205049 -0.000244738300041 0)
(-0.000483627574878 -0.000164447939763 0)
(-0.000549084709889 -0.000161666676128 0)
(-0.000593798756748 -0.000194337844532 0)
(-0.000777850109269 -0.000321466694688 0)
(-0.000934769854677 -0.000406389560339 0)
(-0.000865476783613 -0.000330737567385 0)
(-0.000911555476081 -0.000319748570611 0)
(-0.00104305545858 -0.000401732156969 0)
(-0.00112357485983 -0.000452442719579 0)
(-0.0011609779301 -0.000449309689122 0)
(-0.00120106529875 -0.000428179854733 0)
(-0.00126021866828 -0.000405441357215 0)
(-0.00129698670866 -0.000362761044529 0)
(-0.00135130882051 -0.000296000611137 0)
(-0.00129035831171 -0.000249864573571 0)
(-0.00139992294373 -0.000219437636671 0)
(-0.00134749869311 -0.000171948868263 0)
(-0.00129833947643 -0.000123311620177 0)
(-0.00132612250955 -9.21391157458e-05 0)
(-0.00149453361579 -8.58525803287e-05 0)
(-0.00141133545777 -7.12942278292e-05 0)
(-0.00140146336597 -0.00013636755596 0)
(-0.00164164508543 -0.000240606593994 0)
(-0.00167274012777 -0.000277722461035 0)
(-0.00170285912896 -0.000260458194526 0)
(-0.00172524842888 -0.000239684528362 0)
(-0.00174535788007 -0.000219199472666 0)
(-0.00176773985709 -0.000194892045444 0)
(-0.00178987024732 -0.000164670211043 0)
(-0.00180954616681 -0.000129104948508 0)
(-0.00182740788529 -9.14412861323e-05 0)
(-0.00184235583939 -5.51332691841e-05 0)
(-0.00185221246587 -2.13573318491e-05 0)
(-0.0018564125966 1.08901679886e-05 2.2010206147e-28)
(-0.00185549281676 4.3451135384e-05 -2.1957045742e-28)
(-0.0018495796005 7.83238322938e-05 0)
(-0.0018378462161 0.000117402478012 0)
(-0.00181943457614 0.000162235151582 0)
(-0.00179433812426 0.000214002050354 0)
(-0.00176268720065 0.000273612046517 0)
(-0.00172424068076 0.000341790788849 0)
(-0.00167860623065 0.000419582809294 0)
(-0.00162444263332 0.000510102264619 0)
(-0.00155834225027 0.000620873587106 0)
(-0.00147491664291 0.000762282239212 0)
(-0.00136822188894 0.000938324452721 0)
(-0.00123342827168 0.00113930089571 0)
(-0.00106788934444 0.00133885873037 0)
(-0.000879712806849 0.00147521375035 0)
(-0.000704914671215 0.00149790375724 0)
(-0.000567843216592 0.00150175798821 0)
(-0.000427738911998 0.0015198696184 0)
(-0.000284312977602 0.00151763614573 0)
(-4.49740990284e-05 0.00144382366529 0)
(0.000257888510606 0.000903420912734 0)
(0.000490127328961 0.000778662996531 0)
(0.000691181283355 0.000680160098072 0)
(0.000831461670255 0.000559631504306 0)
(0.000920833556138 0.000395140050643 0)
(0.000920263771415 0.000162707353095 0)
(0.000892679269252 -5.03965630822e-05 0)
(0.000890439443047 -0.000227220139277 0)
(0.00084725645687 -0.000402582440831 0)
(0.000780735727656 -0.000581356863977 0)
(0.000662384298153 -0.000705554082907 0)
(0.000551724064938 -0.000812512795859 0)
(0.000375068335664 -0.000869612724383 0)
(0.000227765617108 -0.00102509557565 0)
(8.03516109137e-05 -0.00113846520665 0)
(-3.62039922499e-05 -0.000493677182985 0)
(-0.000149642227064 -0.000713452919239 0)
(-0.000192063569929 -0.000695552841556 0)
(-0.000118284454659 -0.000395016056366 0)
(-0.000197419963625 -0.000462425272337 0)
(-0.000381715600046 -0.000726822268217 0)
(-0.000396166490598 -0.000715117062554 0)
(-0.000481580067788 -0.000688080406303 0)
(-0.000420003990156 -0.000517107587123 0)
(-0.000578947415995 -0.00054194915519 0)
(-0.000407680149008 -0.000261789914607 0)
(-0.00050270215445 -0.000226733874728 0)
(-0.000545762563006 -0.00022672870817 0)
(-0.000651465255013 -0.00031685390862 0)
(-0.000833740902357 -0.000467354344031 0)
(-0.000919411945113 -0.00046188920084 0)
(-0.000841396307368 -0.000355957886493 0)
(-0.000934578647602 -0.000403638671144 0)
(-0.00104221630516 -0.000487808495805 0)
(-0.00109988157186 -0.000510434966396 0)
(-0.00115003690117 -0.000495992775814 0)
(-0.00117262251924 -0.000464934911139 0)
(-0.00122047537529 -0.000438284322924 0)
(-0.00122654378595 -0.000388613610791 0)
(-0.00121159039063 -0.000295858601254 0)
(-0.00133499542407 -0.000270616553243 0)
(-0.0011904454243 -0.000226104940549 0)
(-0.00143710106328 -0.000192020488577 0)
(-0.00126534493809 -0.000144330263546 0)
(-0.00149442741547 -0.000150821904271 0)
(-0.00131337108199 -0.000110708962479 0)
(-0.00153166525731 -0.000124782464802 0)
(-0.0015823301964 -0.000225038839687 2.129584332e-28)
(-0.00165203341338 -0.00031410293707 -2.30049227458e-28)
(-0.00167549665391 -0.000313856734652 0)
(-0.00170035016111 -0.00028933786404 0)
(-0.00172574607272 -0.000264365359644 0)
(-0.00174787097375 -0.000241308709457 0)
(-0.00177095629404 -0.000216269207777 0)
(-0.00179435325601 -0.000185520497783 0)
(-0.00181587413504 -0.000148870125991 0)
(-0.00183474921955 -0.000109028759277 0)
(-0.00185024587749 -6.8817865931e-05 0)
(-0.0018611762277 -2.96299316969e-05 0)
(-0.00186701645323 8.60196422315e-06 0)
(-0.00186751540176 4.70719090804e-05 0)
(-0.00186228543105 8.78204270767e-05 0)
(-0.00185051763874 0.000133029315456 0)
(-0.00183161166463 0.000184157317795 0)
(-0.00180589975351 0.000242024384904 0)
(-0.00177413433308 0.000307460784707 0)
(-0.00173689498154 0.000381672836527 0)
(-0.00169442634493 0.000466932804941 0)
(-0.00164540475611 0.00056802332692 0)
(-0.00158624421691 0.000693154124358 0)
(-0.00151220090069 0.000851549752592 0)
(-0.00141842324124 0.00104727822341 0)
(-0.00129981249504 0.00127516215066 0)
(-0.00115361434262 0.00150774092376 0)
(-0.000987879615746 0.00164968750157 0)
(-0.000840955876015 0.00163427618554 0)
(-0.000720199712487 0.00162612224317 0)
(-0.000569574801105 0.00167142226456 0)
(-0.000379385154897 0.00170420222045 0)
(-0.000175399021795 0.00164648994362 0)
(0.000171973729674 0.00131913325022 0)
(0.000498069478737 0.000935295470623 0)
(0.000782198224484 0.000872564725429 0)