/*--------------------------------*- C++ -*----------------------------------*\
| =========                 |                                                 |
| \\      /  F ield         | OpenFOAM: The Open Source CFD Toolbox           |
|  \\    /   O peration     | Version:  v1806                                 |
|   \\  /    A nd           | Web:      www.OpenFOAM.com                      |
|    \\/     M anipulation  |                                                 |
\*---------------------------------------------------------------------------*/
FoamFile
{
    version     2.0;
    format      ascii;
    class       volVectorField;
    location    "364";
    object      U;
}
// * * * * * * * * * * * * * * * * * * * * * * * * * * * * * * * * * * * * * //

dimensions      [0 1 -1 0 0 0 0];


internalField   nonuniform List<vector> 
6400
(
(-8.63137979846e-05 -0.00011572400176 0)
(-0.000235708724505 -8.92217481708e-05 0)
(-0.00034531502849 -7.29986837362e-05 0)
(-0.000469732616538 -6.49331176651e-05 0)
(-0.000558276403148 -3.8981907992e-05 0)
(-0.000620162409337 -1.80738795624e-05 0)
(-0.000646380450145 -1.04800119287e-05 0)
(-0.000664607996582 -2.15432218384e-05 0)
(-0.000744518528735 -3.43153600667e-05 0)
(-0.000826581454233 -3.19705009728e-05 0)
(-0.000850085652405 -2.83096246866e-05 0)
(-0.000925744854819 -3.19116156962e-05 0)
(-0.000991385122759 -2.84936549965e-05 0)
(-0.0010429747566 -2.16608316679e-05 0)
(-0.00107672959198 -1.82776858286e-05 0)
(-0.0011130854111 -2.16027062716e-05 0)
(-0.00116281095241 -2.2442013059e-05 0)
(-0.00120270831881 -1.83514714522e-05 0)
(-0.00122660407372 -1.19764619356e-05 0)
(-0.00124510994299 -8.03455999766e-06 0)
(-0.00127299433351 -1.38013654998e-05 0)
(-0.00131361196552 -2.10965623028e-05 0)
(-0.00136049147433 -2.32764713323e-05 0)
(-0.00140279750424 -2.32462124275e-05 0)
(-0.00144288529278 -2.1038092001e-05 0)
(-0.00148024615442 -1.77428455257e-05 0)
(-0.00151759717324 -1.65488026644e-05 0)
(-0.00155109386263 -1.4614623176e-05 0)
(-0.00157715163388 -1.15652270665e-05 0)
(-0.00159680723269 -9.11708122456e-06 0)
(-0.00161020795259 -8.81737611162e-06 0)
(-0.00162555265469 -7.70330820417e-06 0)
(-0.001640667788 -4.91227502889e-06 0)
(-0.00164982454335 -4.61466596421e-06 0)
(-0.00165645740872 -3.89137572568e-06 0)
(-0.00167036312812 -3.21078212648e-06 0)
(-0.00168153978891 -4.19487501284e-06 0)
(-0.00167357173664 -3.24944128369e-06 0)
(-0.00168116791722 -1.02792949732e-06 0)
(-0.00169766046561 -1.28047453942e-06 0)
(-0.00170790177664 -8.03298748189e-06 0)
(-0.0017095248787 -9.28443223147e-06 0)
(-0.00170830204277 9.52087602682e-07 0)
(-0.00170096394728 7.82880541184e-06 0)
(-0.00168501247935 1.0767741015e-05 0)
(-0.00166381757856 1.40207876158e-05 0)
(-0.00163643942345 1.7119273086e-05 0)
(-0.00160125513227 2.10213365244e-05 0)
(-0.00155870755921 2.44074352126e-05 0)
(-0.00150957032675 2.35043544525e-05 0)
(-0.0014595461134 1.88302818893e-05 0)
(-0.00142325662811 2.24438517823e-05 0)
(-0.00136074799847 4.22035668382e-05 0)
(-0.00128246547427 5.20758193252e-05 0)
(-0.00117893768585 5.90799160314e-05 0)
(-0.00103464129552 7.07648176239e-05 0)
(-0.000887086313554 6.84153905414e-05 0)
(-0.000757790358394 6.5445468123e-05 0)
(-0.000625827086225 7.52223427625e-05 0)
(-0.000444330588804 8.04204753155e-05 0)
(-0.000265681822269 8.48497259087e-05 0)
(-7.7305910526e-05 0.000103259048675 0)
(0.000182966243971 0.000127803457854 0)
(0.000408480399065 8.46819481836e-05 0)
(0.000500994745584 4.63004523088e-05 0)
(0.000557802644225 3.07250698058e-05 0)
(0.000602330267934 1.9257101861e-05 0)
(0.000643735502785 1.25533037949e-05 0)
(0.000679209393454 7.54484307397e-06 0)
(0.000692049352896 9.24200615238e-07 0)
(0.000691381351694 -6.31657369633e-06 0)
(0.000662546062344 -1.42183388896e-05 0)
(0.000613592429096 -2.42282803721e-05 0)
(0.000581343715039 -3.81660265361e-05 0)
(0.000466007984217 -3.73349409977e-05 0)
(0.00042757776321 -3.82756186029e-05 0)
(0.000295503647245 -2.594423382e-05 0)
(0.000314126625249 -4.13976087665e-05 0)
(0.0001387924989 -3.20928670312e-05 0)
(0.000103880746841 -6.21398850484e-05 0)
(-3.1785416514e-05 -0.000159596527943 0)
(-0.000136172769167 -0.000180590860016 0)
(-0.000238411145799 -0.000165802308953 0)
(-0.000302758286416 -0.000132278836947 0)
(-0.000445312141946 -0.000130404516927 0)
(-0.000582693049344 -9.1673153547e-05 0)
(-0.0006627248393 -5.45622719418e-05 0)
(-0.000714419742768 -7.34471690179e-05 0)
(-0.00076886636715 -9.89200671577e-05 0)
(-0.000830825621433 -9.62175300861e-05 0)
(-0.000889665354244 -8.98038379122e-05 0)
(-0.000943026902517 -8.89893536648e-05 0)
(-0.000992179381373 -7.84765430616e-05 0)
(-0.00103600403875 -6.40631188082e-05 0)
(-0.001079797378 -5.71531617339e-05 0)
(-0.00112194939108 -7.03592291489e-05 0)
(-0.00116483810634 -7.3995711312e-05 0)
(-0.0011961604252 -4.53314673436e-05 0)
(-0.00117883858186 -2.49953344733e-05 0)
(-0.00120623363618 -2.4604925912e-05 0)
(-0.0012480260212 -4.44709920293e-05 0)
(-0.00129941526502 -7.10822214278e-05 0)
(-0.00136172538306 -7.74805876799e-05 0)
(-0.00141206237087 -6.7532670195e-05 0)
(-0.00143421439029 -5.98601745093e-05 0)
(-0.00148132161599 -5.64359561092e-05 0)
(-0.00152273564906 -5.07084114406e-05 0)
(-0.00155221615431 -4.2521090549e-05 0)
(-0.00157615111328 -3.43428831968e-05 0)
(-0.00159669252759 -2.76921366755e-05 0)
(-0.00161342473836 -2.47065402583e-05 0)
(-0.00161735208646 -2.05900413404e-05 0)
(-0.00163169536342 -1.19320088858e-05 0)
(-0.00163801394201 -1.26544966762e-05 0)
(-0.00163893953861 -1.52490485007e-05 0)
(-0.00166675043221 -9.21694696618e-06 0)
(-0.00166878202436 -1.09688260046e-05 0)
(-0.00166252740775 -1.42556857896e-05 0)
(-0.00167958046241 -1.06118039737e-05 0)
(-0.00171224850558 -5.24304655473e-06 0)
(-0.00172571699269 3.41790327657e-06 0)
(-0.00163491731465 1.11587855705e-05 0)
(-0.00159457832774 1.5299826592e-05 0)
(-0.00159456709724 1.85294472448e-05 0)
(-0.00158436405515 2.2513832905e-05 0)
(-0.00157854588723 2.85255874565e-05 0)
(-0.00157196056498 3.72357764893e-05 0)
(-0.00155214683642 4.78092433182e-05 0)
(-0.00153388559292 5.96277923767e-05 0)
(-0.00150232887512 7.03950709339e-05 0)
(-0.00144362398525 7.72622446026e-05 0)
(-0.00134709202824 8.34667011346e-05 0)
(-0.00125518576151 9.50952052348e-05 0)
(-0.0012825111549 0.000129079815524 0)
(-0.00116491520257 0.000164950358229 0)
(-0.00105018732964 0.000189698451676 0)
(-0.000965650812085 0.000204632749713 0)
(-0.000831281841259 0.000217021265628 0)
(-0.000672478995695 0.000244274567272 0)
(-0.000498869798204 0.000279292716142 0)
(-0.000300672432307 0.000315708594019 0)
(-6.2690658494e-05 0.000301721340479 0)
(0.000192903912551 0.000370966296452 0)
(0.000404240888852 0.000262048203229 0)
(0.000502376981906 0.000144287802184 0)
(0.000533267020573 7.80133105388e-05 0)
(0.000564374611874 5.57029306417e-05 0)
(0.000632293951043 4.73887703537e-05 0)
(0.000671113942596 2.92961990302e-05 0)
(0.000695842379292 4.14564804433e-06 0)
(0.000687063458585 -2.44881631335e-05 0)
(0.000651996730713 -5.13755599791e-05 0)
(0.000588386818946 -6.69442721011e-05 0)
(0.000570618582833 -8.83516787331e-05 0)
(0.000520169269712 -0.000101642973213 0)
(0.000464843785996 -0.000108946822201 0)
(0.000396306363635 -0.00010483801704 0)
(0.000323754311932 -0.000125152662429 0)
(0.000204654760805 -0.000145772961118 0)
(9.57745105357e-05 -0.000246517993292 0)
(-4.86076684532e-05 -0.0002757284516 0)
(-0.000133211695148 -0.000303138746318 0)
(-0.000204762011871 -0.000283816272905 -9.87978000848e-29)
(-0.0003557711904 -0.000292230945017 9.43178157746e-29)
(-0.000499334977953 -0.000292060179114 8.56040301835e-29)
(-0.00058363642804 -0.000233962579747 -7.87903681015e-29)
(-0.000640526247728 -0.000119114936664 8.00127923008e-29)
(-0.000694787510828 -0.000128490348838 -7.92178048649e-29)
(-0.000752654375639 -0.000159044841852 0)
(-0.000819257404996 -0.000162637644101 0)
(-0.000884686162492 -0.000152168828027 0)
(-0.000940862047453 -0.000138961338438 0)
(-0.000990170087124 -0.000122123998625 0)
(-0.00103251152772 -0.000109604426699 0)
(-0.0010749811892 -0.000100335346208 0)
(-0.00111544502645 -8.24279789408e-05 0)
(-0.000996158696411 -5.23489239615e-05 0)
(-0.000960004633658 -3.47852734371e-05 0)
(-0.000990424201902 -4.46817414804e-05 0)
(-0.00106262724506 -8.36522517935e-05 0)
(-0.00123228270877 -0.000127250349994 0)
(-0.00132323747511 -0.000139353544899 0)
(-0.00134574669979 -0.00012767420604 0)
(-0.00139716457659 -0.00011302912677 0)
(-0.00144999831297 -0.000103008475058 0)
(-0.00148694013176 -9.51246247183e-05 0)
(-0.00151884245364 -8.24910399893e-05 0)
(-0.00154868172306 -6.87613983319e-05 0)
(-0.00157327243733 -5.63216486353e-05 0)
(-0.00159083673566 -4.64198850182e-05 -1.64872320735e-28)
(-0.00161171549319 -3.72936965309e-05 1.60070558502e-28)
(-0.00160669450751 -2.95083402758e-05 0)
(-0.0016150219622 -1.98535667736e-05 0)
(-0.00164528337907 -1.10763740005e-05 0)
(-0.00160183857107 -2.06886346803e-05 0)
(-0.00162929787822 -2.51143307855e-05 0)
(-0.00167612822178 -1.72432580574e-05 0)
(-0.00163744615383 -2.28743392662e-05 0)
(-0.00166447152449 -3.22287249739e-05 0)
(-0.00170875908845 -2.09760313728e-05 0)
(-0.00172763462813 1.32198788242e-05 0)
(-0.00172337233201 3.649016209e-05 0)
(-0.00171528012599 3.41998292493e-05 0)
(-0.00170528520147 3.17449321028e-05 0)
(-0.00168948900967 3.63093696293e-05 0)
(-0.00166846211092 4.47395973202e-05 0)
(-0.00164265820863 5.79888959179e-05 0)
(-0.00161188413946 7.39436743535e-05 0)
(-0.00157604017315 9.27338383113e-05 0)
(-0.0015346010261 0.000116374810742 0)
(-0.00148709966324 0.000141620117628 0)
(-0.00143145318691 0.000160075943764 0)
(-0.00136297000736 0.000169694698084 0)
(-0.00126707795752 0.000205027352783 0)
(-0.00115268839468 0.000253065589004 0)
(-0.00106974834968 0.000291241943207 0)
(-0.000957708360666 0.000326204347279 0)
(-0.00081259269048 0.000367212391769 0)
(-0.000644759875963 0.00041510084302 0)
(-0.000457554422572 0.000468906210526 0)
(-0.000253449068096 0.000521513836615 0)
(-3.64292434308e-05 0.000577530318159 0)
(0.000198911503015 0.000604614062353 0)
(0.000352189211714 0.000396670025376 0)
(0.00042971082494 0.000213595827821 0)
(0.000514427574971 0.000139685374872 0)
(0.000586712529875 0.000108146951455 0)
(0.000625967064912 8.18930232895e-05 0)
(0.000652102327585 4.53534896377e-05 0)
(0.00066167541704 1.29242924234e-06 0)
(0.000648890125497 -4.03788017469e-05 0)
(0.000629124314123 -7.12235567907e-05 0)
(0.000627158217483 -9.42676703308e-05 0)
(0.000608858119263 -0.000128703982459 0)
(0.000549809980258 -0.000163857856302 0)
(0.000475515662867 -0.000179502514179 0)
(0.000395706916774 -0.000185884898455 0)
(0.000316225826589 -0.000233610455503 0)
(0.000222663600418 -0.000335896536917 0)
(5.93026131456e-05 -0.000348990497841 0)
(-4.94477887534e-05 -0.000416361508016 0)
(-6.09221218481e-05 -0.000276135367579 0)
(-0.000169232440526 -0.000432876684498 0)
(-0.000314215712103 -0.000438264452811 0)
(-0.000429056277567 -0.000368993430863 0)
(-0.00023778977597 -0.000136501051021 0)
(-0.00029675812013 -0.000136440986547 0)
(-0.00056687953745 -0.00025426378849 0)
(-0.000706632527676 -0.000269791673127 0)
(-0.000792135793074 -0.000243458203386 0)
(-0.000871865602159 -0.000221933711764 0)
(-0.000936451626964 -0.000196837972916 0)
(-0.000988760726076 -0.000169888454491 0)
(-0.0010201923253 -0.000128135439372 0)
(-0.000950516986426 -7.25204160587e-05 0)
(-0.000892070146796 -3.64326729501e-05 0)
(-0.000889816824214 -3.25717962184e-05 0)
(-0.000948492485016 -7.21789064107e-05 0)
(-0.00108783960131 -0.000138430512327 0)
(-0.00122994562427 -0.000204744818822 0)
(-0.0012696986799 -0.000215611410478 0)
(-0.00131319436844 -0.00019493169742 0)
(-0.00136509413809 -0.000176129467096 0)
(-0.00140938650865 -0.00016154377248 0)
(-0.00144773927485 -0.000145282096342 0)
(-0.00148168875875 -0.000128340866677 0)
(-0.00151131662199 -0.000111944587805 0)
(-0.00154551695287 -9.50035342132e-05 0)
(-0.00156411994956 -7.82451716354e-05 0)
(-0.00159276422936 -6.34643624769e-05 0)
(-0.0015911380807 -4.98151126328e-05 0)
(-0.00161706216621 -3.49034567247e-05 0)
(-0.00158860347444 -1.85110878115e-05 0)
(-0.00160070354991 -1.61515704195e-05 0)
(-0.00164857553113 -2.59375158482e-05 0)
(-0.00161395250274 -3.98723844751e-05 0)
(-0.00165792444986 -4.25525796499e-05 0)
(-0.00170659144151 -4.43645844327e-05 0)
(-0.0017173765235 -4.93942823253e-05 0)
(-0.00172134032127 -3.21737851493e-05 0)
(-0.00172507387041 2.57467280143e-06 0)
(-0.00172422465466 2.97833384564e-05 0)
(-0.00171897545184 4.02368203997e-05 0)
(-0.00170931764473 4.61545423972e-05 0)
(-0.00169403151016 5.54348143428e-05 0)
(-0.00167364710617 6.88560643976e-05 1.54237998843e-28)
(-0.00164855634949 8.63544750215e-05 -1.55392191202e-28)
(-0.00161860669762 0.000107256777747 0)
(-0.00158347252787 0.000131698904287 0)
(-0.00154246530336 0.000159821722831 0)
(-0.00149426043875 0.000189645481478 0)
(-0.0014359187421 0.000219535777245 0)
(-0.00136395175473 0.000254804136394 0)
(-0.0012766274622 0.000303575009824 0)
(-0.0011784862252 0.000353379971222 0)
(-0.00107026189838 0.00040335706655 0)
(-0.000941921927383 0.00046440522834 0)
(-0.000786677878657 0.000532603310524 3.01374346768e-28)
(-0.000605811047431 0.000605002910439 -3.46956037068e-28)
(-0.000404454640741 0.000677388387929 0)
(-0.000192506519089 0.000736834865553 0)
(1.28346366043e-05 0.000765575509737 0)
(0.000177047146829 0.000719015692068 0)
(0.000320915840688 0.000537941831941 0)
(0.000460411702632 0.000339648138753 0)
(0.000518636594447 0.000211733711369 0)
(0.000569896861075 0.000151153871331 0)
(0.000615058593879 0.000108659746616 0)
(0.000644329449772 5.93900750256e-05 0)
(0.000669935923905 3.47177497241e-06 0)
(0.000679214308828 -4.5231858805e-05 0)
(0.000677936020162 -8.18028012078e-05 0)
(0.000650203732193 -0.000126758123516 0)
(0.000567790015678 -0.000177861099418 0)
(0.000502412752614 -0.000224346741943 0)
(0.000437840963953 -0.000264027715572 0)
(0.000346096512998 -0.000285997370607 0)
(0.000213028164864 -0.000277512301605 0)
(0.000157602261997 -0.000390498458572 0)
(5.38096424846e-05 -0.000468911695546 0)
(-4.32531550626e-06 -0.000412677166704 0)
(-2.99462945171e-05 -0.000337131046057 0)
(-0.000155529274654 -0.000573706060961 0)
(-0.000268125697834 -0.000527670430382 0)
(-0.000279655512616 -0.000334871738229 0)
(-0.000218406390744 -0.000181784815868 0)
(-0.000374456257864 -0.000302717687594 0)
(-0.000584784205813 -0.000434286269316 0)
(-0.000663644755573 -0.000386393484978 0)
(-0.000759942692124 -0.000335287906061 0)
(-0.000845692222325 -0.000306187484904 0)
(-0.000916108333585 -0.0002623746665 0)
(-0.000915658065758 -0.000171941408206 0)
(-0.000828645851101 -8.25867557919e-05 0)
(-0.000844058101776 -4.89240290777e-05 0)
(-0.000896048809592 -5.94604171356e-05 0)
(-0.000991090365126 -0.000109588660086 0)
(-0.00111496591915 -0.000188301365611 0)
(-0.00120303292191 -0.000246636207755 0)
(-0.00121938936439 -0.000253963073327 0)
(-0.00126264087264 -0.000252692550623 0)
(-0.00131981521807 -0.000245505591657 0)
(-0.00136477595829 -0.000225849832287 0)
(-0.00140649626643 -0.000202808531006 0)
(-0.00144295882782 -0.000180889943157 0)
(-0.00147369141117 -0.00016165865883 0)
(-0.00151128342481 -0.000141547149587 0)
(-0.00152773620146 -0.000120387705188 0)
(-0.0015678773523 -9.97162173309e-05 0)
(-0.00156253846239 -7.822754498e-05 0)
(-0.00160464075014 -5.89798265186e-05 -1.57360660438e-28)
(-0.00155456921963 -3.93563982447e-05 1.46569888278e-28)
(-0.00160321200984 -2.94864182053e-05 0)
(-0.00164087334336 -2.65441142207e-05 0)
(-0.00161592488577 -3.98539877091e-05 0)
(-0.0016742109155 -6.3655688311e-05 0)
(-0.00169919521842 -7.74790518135e-05 0)
(-0.00171558355862 -6.97686020362e-05 0)
(-0.00172347798195 -5.38736562575e-05 0)
(-0.00172657076601 -3.05239849269e-05 0)
(-0.00172917228867 5.13435777117e-07 0)
(-0.0017292242042 2.81420176893e-05 0)
(-0.00172490542615 4.57981097158e-05 0)
(-0.0017155988017 5.89507714125e-05 0)
(-0.00170092629737 7.35712137095e-05 0)
(-0.00168137439917 9.16607630294e-05 0)
(-0.00165720380266 0.000113640745109 0)
(-0.00162821918273 0.000139465667485 0)
(-0.00159388394043 0.000169459088579 0)
(-0.00155323411462 0.000203931169946 0)
(-0.00150463806785 0.000242493047488 0)
(-0.00144542789388 0.000285419062522 0)
(-0.00137286438478 0.000335360418792 0)
(-0.00128562411698 0.000393936666479 0)
(-0.00118440004454 0.000457846164148 0)
(-0.00106690061979 0.00053084371289 0)
(-0.000925936873579 0.000617218906076 0)
(-0.000756817261635 0.000712283711206 0)
(-0.000561590813405 0.000807325350419 0)
(-0.000349811949958 0.000889597789378 0)
(-0.000138408760195 0.00094006770673 0)
(5.06176251758e-05 0.00093685277472 0)
(0.000182007354888 0.000842862722969 0)
(0.000334465305945 0.000695155259949 0)
(0.000493655860184 0.000478458660443 0)
(0.000557773789619 0.000286731567601 0)
(0.000600330350545 0.000192568768705 0)
(0.000628401878394 0.000134502812145 0)
(0.000648663984973 7.7447884431e-05 0)
(0.000674613262408 1.78513908356e-05 0)
(0.000701566063012 -4.10882572506e-05 0)
(0.00068740450409 -0.000109332770021 0)
(0.000602448973391 -0.000179125396181 0)
(0.000541985779003 -0.000242124101114 0)
(0.000485494848799 -0.000301857338429 0)
(0.000413844894011 -0.000358634720958 0)
(0.00030696036484 -0.000366804065941 0)
(0.000208457987917 -0.000372505176753 0)
(0.000142963010581 -0.000507647178249 0)
(4.05476429138e-05 -0.000548624200347 0)
(1.39739035699e-06 -0.000383787149598 0)
(-3.82567726662e-05 -0.000411587732299 0)
(-0.000158352129474 -0.000654906434572 0)
(-0.000219391351748 -0.000535336337695 0)
(-0.000162537279594 -0.000258257614069 0)
(-0.000221535620331 -0.000263726572145 0)
(-0.000479401101667 -0.000503938896581 0)
(-0.000565567485066 -0.000528155049544 0)
(-0.000635274305549 -0.000474925861 0)
(-0.000720643724944 -0.000427115101042 0)
(-0.000803548692148 -0.000363444206589 0)
(-0.000738303098899 -0.000235715930761 0)
(-0.000670285754473 -0.000121274482463 0)
(-0.000724163075133 -9.16781617359e-05 0)
(-0.000791675273184 -0.000107691466085 0)
(-0.000922348487199 -0.000164639651869 0)
(-0.0010627352939 -0.000234740731944 0)
(-0.00115375486499 -0.000272946200464 0)
(-0.00115333582558 -0.000270592446761 0)
(-0.00120671538141 -0.000289843056036 0)
(-0.00127300335756 -0.000306482850953 0)
(-0.00131770722342 -0.000294354863621 0)
(-0.00135938585707 -0.000269965692111 0)
(-0.00139720934709 -0.000243756387397 0)
(-0.00144148429724 -0.000218894135742 0)
(-0.00147259094615 -0.000190465718175 0)
(-0.00147678038543 -0.000167666013742 0)
(-0.00153723052057 -0.000146937952572 0)
(-0.00151597366525 -0.000116262938932 0)
(-0.00158281297555 -8.80795940759e-05 0)
(-0.0015066341627 -5.81489951209e-05 0)
(-0.00158749329939 -5.2084450003e-05 0)
(-0.00152723900369 -4.78450609379e-05 0)
(-0.00160309792993 -5.40964635695e-05 0)
(-0.00167118076968 -7.58717407821e-05 0)
(-0.00169854277061 -9.82239473688e-05 0)
(-0.00171282221873 -9.56961927326e-05 0)
(-0.0017229356749 -7.98656598958e-05 0)
(-0.00172923230422 -5.8232893913e-05 0)
(-0.00173317345224 -3.18756588658e-05 0)
(-0.00173569809345 -1.40837544429e-06 0)
(-0.00173586150656 2.7578796748e-05 0)
(-0.00173204891619 5.08299802112e-05 0)
(-0.00172325221177 7.05121008718e-05 0)
(-0.00170940270953 9.06255315895e-05 0)
(-0.00169082800038 0.000113450690708 0)
(-0.00166778031432 0.000139963722194 0)
(-0.00163995419144 0.000170714140648 0)
(-0.00160659187698 0.000206422875615 0)
(-0.00156657345976 0.000247873807903 0)
(-0.00151820335414 0.000295704147808 0)
(-0.00145903904257 0.000350888133313 0)
(-0.00138649718803 0.00041488127875 0)
(-0.00129849694996 0.000488345610928 0)
(-0.00119296668219 0.000571952819828 0)
(-0.00106571039361 0.000670013693615 0)
(-0.000911138455583 0.000783693694297 0)
(-0.000727878990575 0.000904569842301 0)
(-0.000521959119795 0.00101762896054 0)
(-0.000305105056276 0.00110069721436 0)
(-9.76803575113e-05 0.00113099013781 0)
(7.85915624087e-05 0.00107730053572 0)
(0.000203479630863 0.000913860484345 0)
(0.000385196957705 0.000871452463194 0)
(0.000492535033253 0.000582847938597 0)
(0.000554019530895 0.000349086600351 0)
(0.000611969252439 0.000226609923318 0)
(0.000647412551656 0.000155248498327 0)
(0.000666469061258 9.58114840323e-05 0)
(0.000706597223242 3.32488292748e-05 0)
(0.000725491171759 -5.54503422022e-05 0)
(0.000652068528555 -0.000154529696408 0)
(0.000581633463268 -0.000233189137863 0)
(0.000542347326661 -0.000304795261389 0)
(0.000480878059616 -0.000377549955832 0)
(0.000413833174021 -0.00044851768654 0)
(0.000302351684961 -0.000439840018516 0)
(0.000215021476726 -0.000459410303 0)
(0.000145606434226 -0.000601490236382 0)
(4.4521147539e-05 -0.000628883628236 0)
(-1.38912225683e-05 -0.000417053934412 0)
(-9.06245659431e-05 -0.000541338628457 0)
(-0.000208841084704 -0.000714573073231 0)
(-0.000232869182882 -0.000657586612071 0)
(-0.000153671518165 -0.000323291042257 0)
(-0.000324887840828 -0.000474059025207 0)
(-0.000501271153695 -0.000622865314402 0)
(-0.000544818933412 -0.000593879156761 0)
(-0.000613001281368 -0.000542490435277 0)
(-0.000653938320932 -0.000485227534843 0)
(-0.000765733320093 -0.000394886264586 3.66170871237e-28)
(-0.000582995695926 -0.000179228841602 -2.11618692547e-28)
(-0.00066994363644 -0.000151347684401 0)
(-0.000711455711311 -0.000159000901363 0)
(-0.000828290902519 -0.000217982855425 0)
(-0.000986745614152 -0.000306890451212 0)
(-0.00108771179712 -0.000334102032589 0)
(-0.00106684984699 -0.000296011461543 0)
(-0.00113095032865 -0.00031249925621 0)
(-0.00121919392009 -0.000353825168597 0)
(-0.00126360076839 -0.000358563375553 0)
(-0.00131099681796 -0.000339820640116 0)
(-0.00135535605049 -0.000313440429779 0)
(-0.00139601845086 -0.000282659895282 0)
(-0.00142184623776 -0.000247513803054 0)
(-0.0014336934083 -0.000211820496184 0)
(-0.00148969254901 -0.00019072706054 0)
(-0.00145252931333 -0.000165795960318 0)
(-0.00154564330939 -0.000134751052055 0)
(-0.00145945431128 -8.09246907647e-05 0)
(-0.00155284323663 -7.01231816608e-05 0)
(-0.00150166838092 -7.18315671998e-05 1.41153774928e-28)
(-0.00158223790276 -7.67087481971e-05 -1.48606735243e-28)
(-0.00161146048625 -0.000104589783075 0)
(-0.00169355791558 -0.000127058439973 0)
(-0.0017119204354 -0.000123114182216 0)
(-0.00172129318638 -0.000107947291555 0)
(-0.00172945714399 -8.73675774663e-05 0)
(-0.00173657198041 -6.27461579979e-05 0)
(-0.00174152189053 -3.44026221219e-05 0)
(-0.00174412648141 -3.13406285576e-06 0)
(-0.0017442990816 2.78413089153e-05 0)
(-0.00174075524657 5.57241751409e-05 0)
(-0.00173248720402 8.11243733729e-05 0)
(-0.00171944857678 0.000106529579461 0)
(-0.0017019576288 0.000134058113914 0)
(-0.00168016263077 0.000165105131331 0)
(-0.00165363596845 0.000200790957606 0)
(-0.00162152948733 0.000242323902009 0)
(-0.00158271958627 0.000291027419209 0)
(-0.00153553902811 0.000348277726916 0)
(-0.00147755026978 0.000415546922685 0)
(-0.00140582091673 0.000494334334251 0)
(-0.00131700939288 0.000586195416917 0)
(-0.00120693191765 0.000693851793545 0)
(-0.00107038361642 0.00082050092956 0)
(-0.000903478146919 0.000962732086507 0)
(-0.000708052568564 0.00110650717853 0)
(-0.00049235125796 0.00123121631845 0)
(-0.000268674858419 0.00131284435366 0)
(-5.55215436328e-05 0.00131878737879 0)
(0.000123474951247 0.00123448979074 0)
(0.000284137673376 0.00112503332287 0)
(0.000416146440149 0.000968349558914 0)
(0.00051022033589 0.000667486791563 0)
(0.000556888578004 0.000409647448686 0)
(0.000647283673416 0.000283820209842 0)
(0.000703526278966 0.000194241142846 0)
(0.000730271599451 0.000118539430134 0)
(0.000749572458008 2.79046567113e-05 0)
(0.000716421781931 -9.5883813181e-05 0)
(0.000633159448431 -0.000202077059589 0)
(0.000595918348095 -0.00028474191698 0)
(0.00055275366881 -0.000362567162455 0)
(0.000499849964039 -0.000451047758849 0)
(0.000422318856457 -0.000510158097656 0)
(0.000336147214878 -0.000536588614888 0)
(0.000227543535361 -0.000551060647117 0)
(0.000151355920008 -0.00068645238265 0)
(5.24913071139e-05 -0.00073438963761 0)
(-2.91425701497e-05 -0.000487049342172 0)
(-0.00013139284594 -0.000669206601884 0)
(-0.00023552663622 -0.000741318628381 0)
(-0.000145168747083 -0.00043143214842 0)
(-0.00016194138336 -0.00040552475322 0)
(-0.000386622715609 -0.000670690873166 0)
(-0.000464794354833 -0.000689079909519 0)
(-0.000529888784892 -0.000659106378611 0)
(-0.000565168409444 -0.000585063222742 0)
(-0.000633606718655 -0.000525386227353 0)
(-0.000507809793557 -0.000294871777412 0)
(-0.000581871998482 -0.000214268577547 0)
(-0.000654069346478 -0.000210966106404 0)
(-0.000711266680136 -0.000245500743311 0)
(-0.000892614830209 -0.000356169972643 0)
(-0.00101435165889 -0.000408763979149 0)
(-0.000984894712014 -0.000352141658928 0)
(-0.0010376307445 -0.000341884577642 0)
(-0.00114530122369 -0.000390913688627 0)
(-0.0012111048731 -0.000414881661095 0)
(-0.00125132853688 -0.000405265624505 0)
(-0.00129291705396 -0.000383712441592 0)
(-0.00134410885973 -0.000359628212345 0)
(-0.00138373353799 -0.000323909877499 0)
(-0.00143099456811 -0.000273553869336 0)
(-0.00141347140774 -0.000238409709589 0)
(-0.00148961977316 -0.00021078607372 0)
(-0.0014738211744 -0.00017427912021 0)
(-0.00144822505437 -0.000136712537412 0)
(-0.00147909790049 -0.000110149442556 0)
(-0.00158567229061 -9.95699653568e-05 0)
(-0.00154762222544 -8.72197168094e-05 0)
(-0.00155461068044 -0.000121800498957 0)
(-0.00168000891902 -0.0001619419985 0)
(-0.00170113281848 -0.000165407759751 0)
(-0.00171747197215 -0.000143024334901 0)
(-0.00172893179037 -0.000119003774335 0)
(-0.0017375945726 -9.49338845304e-05 0)
(-0.00174538780003 -6.82184371316e-05 0)
(-0.00175128723805 -3.79199001906e-05 0)
(-0.00175430367781 -4.92005676818e-06 0)
(-0.00175441955874 2.8537813432e-05 0)
(-0.00175104182615 6.05354877084e-05 0)
(-0.00174331035526 9.10024515063e-05 0)
(-0.00173108091871 0.000121372966516 1.493805531e-28)
(-0.00171467161884 0.000153456964178 -1.48951428851e-28)
(-0.00169415493354 0.000188948692996 0)
(-0.00166906234065 0.000229458099526 0)
(-0.00163860714297 0.000276654475922 0)
(-0.00160180752608 0.000332407262141 0)
(-0.00155704841334 0.000398826716416 0)
(-0.00150175488828 0.000478238399718 0)
(-0.00143236413223 0.000573199075824 0)
(-0.00134407674681 0.000686757448452 0)
(-0.0012308679108 0.00082230847379 0)
(-0.00108683047743 0.000980208786257 0)
(-0.000909530140813 0.00115148472443 0)
(-0.000702521954851 0.00131753717551 0)
(-0.000472895122054 0.00145651385381 0)
(-0.000229905256203 0.00153946752777 0)
(4.52698079971e-06 0.00152674320538 0)
(0.000203199344907 0.00141955305111 0)
(0.000361696193412 0.00125361891721 0)
(0.000463746125043 0.00104329821523 0)
(0.000612763143387 0.000828934461612 0)
(0.000616061254862 0.000475936596662 0)
(0.000689405890252 0.000342974000802 0)
(0.000756538888481 0.00023241468409 0)
(0.000771017327159 0.00012183771916 0)
(0.000761146634757 -5.75561975713e-06 0)
(0.000705131517634 -0.000144121421016 0)
(0.000645171736646 -0.000247313578783 0)
(0.00061575926952 -0.000329100631842 0)
(0.000576213240207 -0.000413323068773 0)
(0.000533750266601 -0.00051044171098 0)
(0.000457295947686 -0.000577760677709 0)
(0.000379905233845 -0.000641375206973 0)
(0.000255653329588 -0.000672792287244 0)
(0.000152691860789 -0.000778538440634 0)
(5.35476493621e-05 -0.000854480062573 0)
(-4.17367940648e-05 -0.000577269136323 0)
(-0.000152566905122 -0.000775743535846 0)
(-0.000199043059332 -0.000760339030097 0)
(-0.000139937753063 -0.000472975325436 0)
(-0.000230184888165 -0.00054364705861 0)
(-0.000404064311843 -0.000768052688326 0)
(-0.000429734384572 -0.000750242886727 0)
(-0.000516014648975 -0.000719653808993 0)
(-0.000485949431078 -0.000579174738085 0)
(-0.000643146780295 -0.000588484664637 0)
(-0.000494464840247 -0.000321764127838 0)
(-0.000593830312514 -0.000283670683173 0)
(-0.000648026070657 -0.000284795849337 0)
(-0.000766288529123 -0.000370441133344 0)
(-0.000922959127105 -0.000482789906702 0)
(-0.000998203610416 -0.000467510649092 0)
(-0.00096499492114 -0.000389217888938 0)
(-0.00104902723082 -0.000417116762024 0)
(-0.0011380140188 -0.000464507447736 0)
(-0.00119377768816 -0.000470094132127 0)
(-0.0012436325929 -0.000451919054401 0)
(-0.00127747659809 -0.000423721530185 0)
(-0.00132336287069 -0.000397173560497 0)
(-0.00134127261037 -0.000358432525504 0)
(-0.00135292610804 -0.000291868159885 0)
(-0.00143915488453 -0.000262228955741 0)
(-0.00136255428428 -0.000228101983802 0)
(-0.00152101921756 -0.000196590704433 0)
(-0.00143248564019 -0.00015902940573 0)
(-0.00157134694436 -0.000154125359605 0)
(-0.00148240208459 -0.000123479042381 0)
(-0.00161637780362 -0.000127118894603 0)
(-0.001654364834 -0.000171231705421 1.61236428918e-28)
(-0.0016893188303 -0.000203680306931 -1.65491758036e-28)
(-0.00170811047929 -0.00018844193575 0)
(-0.00172403448909 -0.000159931473215 0)
(-0.00173765024647 -0.000131319416215 0)
(-0.00174762822815 -0.00010371087523 0)
(-0.0017558270285 -7.46023880839e-05 0)
(-0.00176220304684 -4.22340512654e-05 0)
(-0.00176581258954 -6.97918301752e-06 0)
(-0.00176620442388 2.93788741793e-05 0)
(-0.00176297524138 6.52557883539e-05 0)
(-0.00175566871557 0.000100288437851 0)
(-0.00174423316555 0.000135289243453 0)
(-0.00172882460076 0.000171737120997 0)
(-0.00170947463758 0.000211454565013 0)
(-0.00168589718467 0.000256426180131 0)
(-0.00165758132021 0.000308744788515 0)
(-0.00162377622487 0.00037082984754 0)
(-0.00158302359051 0.000445707851709 0)
(-0.00153264012259 0.000537080770258 0)
(-0.00146834785491 0.000649356929689 0)
(-0.00138376122763 0.000787351961823 0)
(-0.0012707479675 0.000954213090364 0)
(-0.00112198568176 0.00114651249777 0)
(-0.000934601846419 0.00134960412983 0)
(-0.00071094192449 0.00154257095693 0)
(-0.000455695046196 0.00170473260451 0)
(-0.000181645672454 0.00179677379976 0)
(7.20121486886e-05 0.00175855356421 0)
(0.000271584984563 0.00159892291742 0)
(0.000431200828193 0.00139048421433 0)
(0.000566026586566 0.00115696619398 0)
(0.000688984221506 0.000888124482308 0)
(0.000793463198116 0.000582537800022 0)
(0.000758071060362 0.000358654471869 0)
(0.000825221042749 0.000263434810039 0)