/*--------------------------------*- C++ -*----------------------------------*\
| =========                 |                                                 |
| \\      /  F ield         | OpenFOAM: The Open Source CFD Toolbox           |
|  \\    /   O peration     | Version:  v1806                                 |
|   \\  /    A nd           | Web:      www.OpenFOAM.com                      |
|    \\/     M anipulation  |                                                 |
\*---------------------------------------------------------------------------*/
FoamFile
{
    version     2.0;
    format      ascii;
    class       volScalarField;
    location    "136";
    object      alphak;
}
// * * * * * * * * * * * * * * * * * * * * * * * * * * * * * * * * * * * * * //

dimensions      [0 0 -1 0 0 0 0];


internalField   nonuniform List<scalar> 
6400
(
0.825112769213
1.22662150346
1.869904908
2.11287979621
2.36347258262
2.66354642338
3.22340262664
3.88878047763
3.95781890344
4.20290178131
5.30391556734
5.72048686708
6.01130804549
6.44824915042
7.17552940162
7.91564162819
8.41934768011
8.91752159181
9.38759530642
9.57873120689
9.4486318674
9.31071677841
9.42353376877
9.87432374524
10.4192274169
10.8600191231
11.0997587648
11.2951642591
11.598971029
12.0201360499
12.508458607
12.760795037
12.7268282221
12.6067577458
12.4002878067
11.9551966664
11.6937810214
11.9653711054
11.6641821285
10.9711338859
10.7142394024
11.0951099169
11.5422387609
11.7482013153
11.8010612386
11.731725643
11.6242703853
11.5524256187
11.5133448279
11.4996558194
11.3169655656
10.4263609037
9.67949125126
8.88201639937
8.64320385431
9.28224792343
9.34040383209
8.15470664092
6.67515370085
6.26268647331
5.51206051154
4.6515387651
3.78494169449
5.55259735449
9.63832920277
14.5840560105
17.5752304589
17.2761486444
15.2518906681
13.5343426237
12.5393032298
12.5864003917
12.9928717352
12.789219198
14.7359552321
14.1411172499
15.9812098723
9.87672283141
12.8691647157
4.81088104292
3.07159865733
2.36835274154
2.88717253682
4.06973053106
3.68097189175
3.20487859136
3.15174228144
3.37749906259
3.75566542778
4.26699745277
4.93861155533
5.60871547601
6.16948777443
6.70441619063
7.22846882121
7.85293211701
8.50593148002
9.19749881586
10.3051414254
10.2614977975
9.82430694561
9.55531795355
9.48982937193
9.84597780892
10.7197993616
10.9950295135
11.1564483741
11.4432848913
11.7940970831
12.1775032883
12.5899584304
13.0951912142
13.0741190404
12.9916226823
12.9073235266
12.163827658
12.1020836557
12.3667697263
11.865576429
10.7592283136
10.4060289514
13.0404394781
14.4957848778
14.5272281897
14.441372805
14.0336065451
13.4476006109
13.0115724069
12.3359128181
11.8079874734
11.8583926226
12.6472296722
12.6224439908
9.10478803128
9.20608015115
9.03821143069
7.35508703128
6.30667782501
5.50596081866
4.71547188274
4.13601133027
4.96337476395
3.94047512688
5.70496329629
9.67571055677
15.4891301135
19.2088583843
18.0161577157
15.8272041187
13.8399826916
13.0064792893
13.272827267
14.2280326736
13.5846017619
13.3681678773
12.7997217912
11.573850129
9.72290937622
8.17118897641
4.2551372457
3.01217082992
2.53310052828
3.01083224278
3.04297894113
3.23014188832
3.4983005221
3.40538859184
3.33590961264
3.69075886213
4.25409288592
4.91072393287
5.59999959571
6.21720629577
6.76962642127
7.16503166915
7.72650517797
11.1105765194
13.2993899413
13.4847516099
12.3573187647
9.71824882779
8.945402134
9.73936981928
10.1609408074
10.4575364363
10.9145465916
11.3058182952
11.6013932861
11.9308558719
12.3567319283
12.6848819739
13.4055416223
13.4766800754
12.8184774899
13.6902888511
12.9952846895
11.9233582024
12.8950028291
12.2750295576
11.0315734131
10.617346283
11.1010819035
11.6479555498
11.9002813565
11.9736335394
11.9441406553
11.8426196664
11.6875393309
11.4776399365
11.2354611072
10.9597721525
10.5722221718
10.0290076335
9.81670207421
9.79801668485
8.47636128345
7.23768133083
6.34463366383
5.59786678317
4.95109011219
4.50340245066
4.03847474232
3.80107612754
6.37596591792
11.6030316006
16.3141935072
18.6264377999
18.7340107303
17.1096592901
15.3676610039
14.5708379457
14.3671734011
13.6291515906
12.9684350032
12.8771636574
12.4806602669
11.4651399694
9.83029413185
7.3911295274
7.57137277991
2.74959461807
5.28050134315
3.06616536064
2.9760062163
3.58791222361
11.6611306648
9.95964318266
4.22640078461
3.72199209605
4.29139737092
4.93388978011
5.62364801265
6.22094379021
6.89654902866
9.02056267309
11.4243878106
13.0744417015
13.112923383
11.1042037451
9.12994781037
9.05058735483
9.22909159642
9.48733118404
9.97665426233
10.549044338
11.0927980139
11.5516437959
11.7831563264
12.2214483656
12.4368401624
13.206502711
13.3016156835
14.1632050958
13.7796980029
12.6051729581
13.3126823761
12.3959515089
11.3400088945
11.1048633371
10.9918400591
11.0022807094
11.2968997892
11.6710971852
11.9127172396
12.0163409992
12.0135594535
11.9293323994
11.7830011801
11.5834120868
11.3413656025
11.0550432249
10.7082791945
10.3058763588
9.89269352927
9.31297986696
8.39600181768
7.35532353131
6.46784206977
5.77518506045
5.24987520015
4.87897865565
4.61498920488
4.79041045004
6.8263183103
10.7478687923
16.5619241011
20.1527489693
20.3456449589
18.6559921866
16.2704082155
14.5942857397
13.7088177471
13.7846454965
15.0977378656
14.9762972908
13.6092750381
13.4281974018
16.6940553476
13.0868100489
11.0959111524
5.19597206095
7.25005797472
3.44512093244
3.76989799247
6.05405711856
11.5379330938
7.57503098743
4.26235692209
4.19015289329
4.50912718091
5.08945592595
5.82288507091
7.35229663951
10.1350814718
11.086177968
11.1838779998
10.6150185571
9.51370149032
8.82762397577
9.1999395315
9.20534682606
9.15371207525
9.53086422326
10.0828979376
10.7104600852
11.3338436264
11.6823701855
12.2689048361
12.3200060552
13.1761236035
13.1198520204
14.7966136526
13.9526961973
12.9005914724
13.2267600829
11.9561547955
11.4488928833
11.2339872346
11.1742104516
11.1774244503
11.242352796
11.4496588369
11.7275822512
11.9482387427
12.0669420284
12.0831083758
12.0137227034
11.87886921
11.6934372104
11.4660358549
11.1943569216
10.8727461048
10.4984396233
10.0430561576
9.38877135975
8.48060900434
7.50200078603
6.67478629554
6.07440100235
5.67674869016
5.44914550306
5.43290033829
5.98295749254
7.23009252045
10.4819112525
15.9191636349
20.1440145656
21.5352546313
20.3261354473
17.5271588612
15.002597916
14.6055005062
16.7678860263
17.5735227548
16.4803809238
15.5132610521
18.1121464434
21.0962359944
16.3862018252
15.4861912261
9.55479612847
8.65423163814
4.25806665319
5.14339953824
11.7875578571
11.1885632605
5.26393950792
4.66415449865
4.70842023995
4.83144937794
5.44171682377
8.57097810871
12.1663750602
12.4100008368
11.7461203613
10.1199530705
8.81741240324
8.44468774567
9.34616604275
9.23808740272
8.92120143165
9.17338970831
9.67919896722
10.3236138412
10.8197514194
11.4744320364
12.4672390457
12.2855321716
13.5178847265
13.0343322064
15.2643479098
14.223380125
15.5928411446
13.6886638897
11.8733161383
11.2988527259
11.2387016618
11.2717344886
11.3155966753
11.3589532635
11.445364943
11.6147767097
11.8340663021
12.029705294
12.1486908998
12.1756310061
12.117536341
11.9958922548
11.8310364955
11.6304010407
11.3881657997
11.092530049
10.7205330315
10.219447088
9.51894953176
8.64012518831
7.74952099397
7.00856228319
6.46579216398
6.15711757485
6.07340757823
6.46848178167
7.97450302327
7.25938293155
11.6431734072
17.465703375
21.2495870182
22.6582568864
21.6898135701
18.2903857449
16.090271134
17.8563606433
20.0061749999
19.4231315913
18.3669098125
18.3766444862
22.8676607291
24.4146420915
19.3649595187
19.1457984407
11.6009298807
8.15213087601
5.18199453909
4.94575594232
11.6320475039
7.49073042414
5.05073585457
5.12017489806
5.18353891572
5.88990905546
6.17170884847
12.1825580646
12.5939541024
12.4481612987
10.5097240482
8.50793872491
8.06608536087
9.57336384664
9.42982005392
8.72073922689
8.91755373009
9.27761975806
9.78110227159
10.4204250559
11.3288495513
12.3177881813
12.3816772721
14.0916004045
13.300974221
15.77195184
14.5292184873
15.9940144092
14.4046761345
13.3221269554
11.3169181134
11.0507482734
11.2284205937
11.3862705604
11.4648380289
11.528193977
11.6321562787
11.786763369
11.9735203704
12.1474650771
12.2613593793
12.2921113654
12.2436218724
12.1400367455
12.0039839184
11.8392343384
11.6322989598
11.3591539235
10.9811079035
10.4474930357
9.733010903
8.90103200975
8.0938597708
7.41952732256
6.90559599257
6.57889532704
6.62847312059
7.16088630691
7.51393754854
8.14318606179
12.4996923636
19.685445249
22.3790515494
22.8111597342
21.7201117919
19.4389561515
19.2459470101
21.8154286647
22.2072355091
21.300162947
20.63971929
22.5053398161
25.1612775161
26.5818620296
21.9210755129
20.7408806893
11.1432140067
7.36200143119
6.19287845549
11.5829133182
11.5629433722
5.77592941379
5.56273937904
5.62524522118
5.8745465109
6.3882489297
12.0199950769
12.8617296028
12.6956734778
11.9250864687
8.78356977243
7.70061107261
9.54970823493
9.84241327932
8.7932312808
8.52184527373
8.97203975764
9.54157593604
10.0207138699
10.7606654736
11.3572687033
12.8944792957
12.5332494538
13.9518271401
15.6997049525
15.738582166
13.8874026586
14.9995449824
14.8179636309
11.7622512453
11.1590409772
11.1433474102
11.3204955208
11.5037894642
11.6129338015
11.6957350617
11.8128820024
11.9684745441
12.1397949972
12.2961681504
12.4015336059
12.4328423485
12.3955039924
12.3163258979
12.2170966527
12.0950670864
11.9269868068
11.6758005824
11.2934525586
10.7431019481
10.0384603987
9.2611105487
8.51150139162
7.82572059093
7.19459057261
6.78056052012
6.9553626923
7.59978259672
8.40308703271
9.47664033525
10.6663136909
19.3718913124
23.7756590034
23.9444556323
23.3977372033
22.547539339
23.5294528964
24.9186337559
24.178562661
23.41494271
23.5115815436
25.6967984472
26.2481583088
26.7764301558
23.7971344265
21.5646135505
10.1601679989
6.85717702973
6.83512122833
12.4620149334
10.1103508254
5.97607961479
6.11736217429
6.28064704765
8.06640284413
6.2876571582
12.7930500057
13.2543585047
12.6578069917
10.2394914145
7.92451766
7.80926013501
9.69942181885
9.32424537566
8.5404906826
8.54746480755
8.94356112816
9.69450658244
10.3495329721
11.7138602462
12.9879967241
12.6381644531
15.2539662732
13.4014416404
16.1078529368
14.1448564081
16.2587288817
13.5435066961
12.3909690463
11.4994827758
11.2570064797
11.2996819532
11.4414795784
11.6187086129
11.7585952732
11.8718734477
12.0028135721
12.161194426
12.3272415916
12.4722591198
12.5668675392
12.5978675604
12.5766286716
12.5294676431
12.4735796996
12.39964175
12.2741293508
12.0472043847
11.6663478133
11.1130068862
10.4307839056
9.69783631166
8.94699360014
8.11092798765
7.16249259875
6.57315657954
7.08467473693
8.41358548641
9.76589827586
10.8693888013
11.8292348229
15.3413778242
23.6509686355
25.3153182151
25.5431620894
26.444637309
27.6885581654
27.3682691008
26.2895567017
25.9755952105
26.7909395982
27.7898243041
27.4733837104
26.7454827341
25.6000164986
24.0986550652
9.2372196106
6.93183568823
8.06001117218
12.4343238338
7.34224120293
6.99989908169
6.66713497494
6.92005731997
10.8769328232
9.31196672977
13.6180489725
13.4256474991
12.6010381836
9.09776105922
7.72587719072
9.81777674121
9.98561364657
8.91269345212
8.45713050698
8.74057783954
9.05807818632
9.75047052881
10.2497739447
11.9034266079
14.5292025947
12.3959454151
15.1085237422
16.206089186
16.3350456174
16.5716301034
14.4849382266
14.3742347892
11.7247874426
11.3226616989
11.3904279648
11.4624966134
11.574421516
11.7333304073
11.8958648519
12.0493507854
12.206539727
12.3720950348
12.5350881213
12.6725630477
12.7593400343
12.7899262047
12.7876529518
12.7805345339
12.775836366
12.7548492813
12.6755878014
12.4767674693
12.1033632204
11.556330869
10.8991042923
10.1793726668
9.30932194617
8.06037857612
6.51530263889
5.97634240591
7.5104181893
9.6870450463
11.3851850239
12.6537071432
13.6668082442
13.822759262
15.1328627948
26.9942317808
29.8717575436
31.2436553069
31.3111733359
29.9129594039
28.9076868959
29.0116475887
29.9103920726
29.9754883883
29.4906366691
28.9902983552
29.1660513685
29.2445857055
8.75916583449
7.49320907676
11.8627460259
12.3015674028
6.90514019539
7.66864341584
7.17337433992
8.01464196324
9.96232041349
13.1633459582
14.2721448842
13.5334218068
12.6457801033
8.70186740904
7.77146092741
10.4538652151
9.94051050737
8.74794783771
8.45331171948
8.89230152955
9.56848957183
10.0550723052
10.4393943777
11.4174632251
14.6317285575
15.8113921775
14.155008554
16.3900652848
13.9985313986
16.6294210642
16.5503339173
14.1532063024
11.5254874383
11.4181310858
11.5606646613
11.6377764899
11.7295360239
11.86712129
12.0300967348
12.2218215055
12.4209944822
12.6021997177
12.7647859246
12.8970242328
12.9782482269
13.0124065475
13.0336016452
13.0706783615
13.1219313611
13.158784698
13.1301776723
12.9635796436
12.6041775718
12.0715561849
11.4308972368
10.6490066819
9.37105638331
7.18890730385
5.27740524389
5.82842714168
8.84500316027
11.6754552199
13.5245477864
14.7746094706
15.5209099907
15.6077827696
15.2296611602
17.1825113567
31.4415939386
36.8675473114
35.7138728032
33.347972497
32.3940319786
32.6029534115
33.0188809801
32.9595618903
32.9057187288
33.1148360969
33.4877212805
34.057602215
8.68874522397
8.17206146608
13.3926938369
12.6580972238
10.3049580379
8.76782690514
7.85381815933
9.59057909174
8.97906082286
14.0818230092
14.7254537164
13.6871763969
12.431388299
8.96232941476
8.55414619176
10.990391054
9.80127260322
8.70477578127
8.55121313894
8.92271546792
9.78647474969
10.4712482428
12.5736644667
11.5546567838
13.9631047163
16.185776266
13.679274881
16.7171194879
17.1419520575
14.9588756774
14.8934232017
12.271170953
11.8877375966
11.7396327241
11.7740656749
11.8463337296
11.9231147971
12.0390975915
12.1711625238
12.3694067873
12.6280024851
12.859325164
13.0256351996
13.1472213847
13.2252525683
13.2690780628
13.3183087706
13.4010996391
13.5090777286
13.6054787757
13.6278300143
13.4978340877
13.1688620922
12.6588578982
11.9915158951
10.8927875895
8.50696336417
5.45565809783
4.37936906074
6.81853319266
11.2395798309
14.391461441
16.2349989601
17.4793947581
18.1354108306
18.0461973301
17.5679471405
16.6432345916
27.4156048696
37.8278204113
40.7244104098
37.9709518242
37.0275705632
37.0970750564
37.2069991167
36.962170254
37.3664845231
37.7489874463
37.3590078323
37.4096282437
9.00811872719
8.68922540302
12.9469698692
12.8953764716
12.8089070304
9.60122403375
8.67239140156
12.7765810104
8.9592127059
14.9183530816
15.0673167024
13.8597300178
12.2451103587
9.30228768703
12.0002172085
12.1089455388
9.78505500966
8.80328719679
8.78084800844
9.08546242647
9.75285576946
10.3965735636
14.206998015
15.2759540073
13.0933332182
16.294906723
17.0475304404
16.0725544647
17.1219659593
17.0288823997
15.5617377695
12.175805752
12.0872586533
12.0625997981
12.0330218976
12.0642315095
12.1068434793
12.2433290942
12.3931324198
12.5443403377
12.806045772
13.1036409676
13.315737518
13.4352725091
13.5061314741
13.5633954304
13.6456830756
13.773748978
13.9332243227
14.0807027975
14.1474152719
14.063648752
13.7947851448
13.2984335396
12.4620046928
10.5082945154
6.59977098694
3.45164877466
4.09191285066
9.08267354751
14.5414890245
17.8680620681
19.6221207623
20.9781566676
21.3084043766
20.3874378923
19.3599887776
18.5370615483
23.5930658212
34.9717857094
42.0761252552
43.2835632591
41.4364890699
41.6427224998
41.5821860129
41.6839813667
42.2436047286
42.3900919387
41.9882077289
41.9577980962
9.38090616595
9.20106305215
8.95791667013
13.079839802
13.1386682703
10.0440147827
9.44049420949
13.5544290132
9.29236829437
15.7396261766
15.350575737
14.0383109569
12.1915637529
9.41507257439
13.2203286012
12.3690183514
9.93018646443
9.05482979218
9.07250962313
9.43231735901
9.84254546616
10.3246300269
14.8656120807
16.2196206731
13.2703984981
16.4362006276
17.5581211935
14.8578727518
16.7383610791
16.2184904327
12.8376263339
12.5428582151
12.5008891943
12.4035097106
12.30052287
12.3509121431
12.3744665118
12.405255182
12.5894136209
12.7952838349
13.030534645
13.3386008121
13.6031879795
13.7534798416
13.8303352375
13.9033325888
14.0182979411
14.1827867436
14.3859401251
14.574379012
14.6551240407
14.6361372715
14.4764774442
13.9922337308
12.7034598715
8.90356975225
3.50412420026
0.426937430479
5.81705838471
13.049107941
18.9819710183
22.308936836
22.4150542474
21.0792572476
18.0610376194
15.6689662257
14.197766309
13.0331085412
10.7989917109
13.9099751815
41.7073091434
45.404685203
46.5994875477
45.7065586938
45.0494584211
46.5578636878
47.0593133258
47.0770930797
47.8692306844
48.2221908159
9.91539174238
9.95591388841
13.6434284658
13.5260423955
13.3459004996
10.3794552913
10.3509300046
14.1169100898
10.0812123433
16.4079643403
15.590879761
14.2158575333
12.1854147935
9.64923091387
13.3655082086
12.2282172638
10.0886047111
9.34696359014
9.35887192761
9.6758224157
10.0694403949
10.4557543077
13.9236067338
16.9673637219
17.0915100769
15.3800677652
17.7062055076
18.2950996864
14.3224027329
13.1953203026
12.6434275927
12.6990716723
12.7179452228
12.6740206007
12.6531520828
12.6203168529
12.6359395085
12.701414679
12.7778868863
13.0163457201
13.3039474588
13.613434479
13.8967801724
14.0842658003
14.1971349253
14.2907576561
14.4286278988
14.6492476236
14.8998015998
15.0605649739
15.1066816171
15.1801450053
15.1767858732
14.5907146252
12.1783476044
6.26741996846
0
1.52212255129
9.86737996556
18.4784196831
23.2454774908
20.5778056506
13.9842064882
3.36631599672
3.01491983916
5.2061839201
7.55585038784
9.16332386987
10.1016460961
10.0735438458
6.44696424587
30.8919562521
49.7863079011
51.1847152227
48.547234899
49.9779504611
52.1913367309
53.6726555246
55.7289855844
55.9157872889
10.3760595107
10.5486611093
15.1362939809
13.8958079146
13.029643202
10.7531181178
11.2790897152
14.4859954795
14.4971696668
17.1776307798
15.8455015211
14.4475857865
12.1977760786
10.0391647484
13.5072382334
12.0490056026
10.2797524516
9.65857145594
9.61944833718
9.87124698049
10.2584874826
10.7923224197
13.0708116518
17.1887688359
18.4844506027
14.4371595418
17.2917365223
18.0942693002
17.2724388033
14.0269950772
12.8314961384
12.8992908438
13.0204947211
13.0826340407
12.8952226101
12.9043253777
12.8737249845
12.9591789245
13.048809831
13.2483619898
13.5790050232
13.9283945907
14.203233449
14.3964786447
14.5720901105
14.7947768808
15.0321714737
15.2897259284
15.4361034532
15.5159388028
15.6134961737
15.7234134799
15.9760765134
15.3920491596
10.2604139387
0.0447321653194
0.00452171692907
6.75408446143
15.6209319383
19.6422587009
12.6307142756
0.0990364609482
0.00698112558332
0
0
0
0
0
0
0
0
9.70955515949e-07
0.000327483194442
0.04898450563
26.6397354572
55.9141706234
57.2467925216
60.1463114087
65.3015567664
64.4239225428
10.7290873329
10.930904384
17.4439873091
14.1058743779
12.3381162581
11.1029448632
11.9076834574
14.1678859732
16.0450046137
18.0628226115
16.2254236052
14.7762470311
12.4101151263
10.7692933803
13.8622148946
12.0443106438
10.5791760511
10.0396487037
9.92123206323
10.1003838232
10.4259314436
10.9361394515
12.6763380732
17.0385397956
19.4180889622
18.3950241714
16.5241329161
17.3967391305
16.5741822146
13.1282412668
13.2965854353
13.438473681
13.6971553303
13.5389592167
13.3728738882
13.1717733001
13.2148786876
13.2085746051
13.3302061189
13.5254454493
13.8286349583
14.2262058796
14.640850111
14.8650205395
15.090898773
15.4319377658
15.8158930431
16.1195826831
16.2566671192
16.3935826806
16.5658994103
16.7502666307
16.7194954028
15.9768623895
10.4659016978
0
0.821912680167
9.85253269988
8.31980124022
0.0307600310325
0
0
0
0
0
0
0
0
0
0
0
0
0
1.25107607139e-05
0.000124321615657
0.0027253991814
0.132150837616
54.7235703688
69.3215736599
61.7137932123
10.9833319576
11.1712099115
19.6252762392
14.2076994934
11.9946615792
11.4489822335
12.7021124799
12.8987262053
17.0026655831
18.6784713296
16.6034775212
15.11915749
12.8479161004
12.9973429465
14.3460469869
12.3013050431
11.0979624233
10.6546702434
10.3329301012
10.4235089832
10.6533713451
11.0966960614
12.5395361784
16.9034664687
19.7623833454
20.0500716076
15.2141700758
15.4550230272
13.9613604096
13.2234628886
13.4536455525
13.9942382057
14.1892959878
13.9732234442
13.7905487374
13.8789396339
13.5662262433
13.5350062055
13.605722485
13.7570118986
14.1938513566
14.6457256308
15.0625981917
15.2450473655
15.6498121666
17.8149511411
20.7464916243
21.666614201
19.7539929093
19.598521169
19.9307464364
20.5284320629
20.9131485672
20.6515795776
19.596761765
0.00221961878485
1.69365656927
0.0365988000089
0
0
0
0
0
0
0
0
0
0
0
0
0
0
0
0
0
0
0.000193287330721
0.00130890987844
0.241373833633
61.5401466516
11.2437967472
11.404934953
19.2716757936
13.0422998516
11.8501563602
11.7283393705
13.5925910516
12.4481090474
17.7785081618
19.279253876
16.9838098408
15.4527331929
13.1562662502
15.5782103897
15.0662692306
12.7706975989
11.7173911464
11.8023654704
10.9745217636
10.9235873936
10.9918076426
11.2657987802
12.5815773776
16.7532593951
19.5916285496
21.1646553314
19.1198338635
17.6187520915
16.0513368067
13.6039398167
13.8002683992
14.9097081087
14.4026414512
14.342375675
14.8514537373
14.3262828479
14.0443849218
13.9867171417
14.049172102
14.1804753709
14.3975750812
14.9368268471
15.622789785
16.9686616298
19.0079054535
21.7779953543
23.7848006391
23.7301734725
24.0733804084
25.7611907899
28.2025541745
31.9603406848
33.8457634818
34.3531101776
30.7190805476
29.354632584
0
0
0
0
0
0
0
0
0
0
0
0
0
0
0
0
0
0
0
0
0
0
0.000594742000682
99.9970253852
11.6168107742
11.7695798509
18.6754748247
12.1858736487
11.9397011222
11.9317625925
14.3103066034
12.6518474348
18.3781566741
19.8644868898
17.3732857655
15.8141959251
13.4310342083
16.1339008977
15.711727201
13.3128033331
12.3158153928
12.5825286495
11.769796547
11.6590840055
11.5747693686
11.4217232874
12.811455685
16.7185376514
19.2732193525
21.5300589042
20.3849306494
17.7323921966
14.0860959268
14.154300481
14.5348266608
15.5928819606
15.8114562883
15.7946560802
15.6537087715
14.8113191428
14.5586167415
14.5568709717
14.5959496884
14.7449138875
14.9385548903
15.5680457065
16.9261630965
19.6431991771
21.3796722285
21.6048782342
22.7153135656
23.8038528459
27.9071538963
32.6955219511
39.6522343741
44.5382000264
45.1033302225
45.3554503962
41.3588950386
15.468170559
0.0519213980642
0
0
0
0
0
0
0
0
0
0
0
0
0
0
0
0
0
0
0
0
0
9.99483935031e-05
0.000132240853683
12.2617773169
12.4199792277
17.9774829975
12.1150943942
12.3858411252
12.2498043757
13.8773736579
13.2998487821
18.708796389
20.3991866657
17.8022832895
16.2362872618
13.8639202646
16.6665141651
16.3221357176
14.0086647611
13.0148242256
13.3667641465
12.5207199221
12.5516345617
12.5121055165
11.775242761
13.2750823186
16.8377687502
19.1155040593
21.6239054922
20.7990907258
17.9178179261
14.2007917943
14.2652608423
15.4323808774
15.1683797676
15.1316018794
15.5202625304
16.6324863312
15.7822666796
15.4659484504
15.1353867535
15.123174785
15.4110291377
15.7586142685
16.4297897013
19.5688573564
22.4624984995
22.4232725029
22.5527353976
24.28208559
29.7135192542
36.6524572316
42.7970310536
47.5913684431
43.9971818852
34.130395608
0.875972868745
0.00549625997951
0.0111404735601
0.00171076103004
0
0
0
0
0
0
0
0
0
0
0
0
0
0
0
0
0
0
0
0
0
7.38747909398e-06
3.35443718398e-05
13.307825547
13.3876484999
17.8588977242
12.8585727019
13.5420322624
12.9531854343
13.7364982187
14.7771227923
18.3689458203
20.7063339828
18.3065988264
16.7447640411
14.4295310491
17.2741337317
16.9669202411
14.9073126684
13.9585442369
14.3539133757
13.2678759824
13.5684421794
13.8511257494
12.4508054354
13.7368984532
17.0962701447
19.1306002203
21.373828487
20.955553498
18.1694068468
17.1300173862
15.2282478515
15.9616136287
16.629412159
17.5838240673
15.9444504608
16.2073611647
16.9835709435
16.3206559953
16.3023238468
16.0423158389
16.0816086346
16.5327323294
19.3101213263
23.7184871945
24.614990811
23.9367013673
25.5951529484
32.1859608781
41.0063786704
46.9927266346
45.7346822274
36.708923649
8.86528110181
0.0624866919093
0
0
0
0
0
0
0
0
0
0
0
0
0
0
0
0
0
0
0
0
0
0
0
0
0
0
0
14.8621337254
14.579182191
18.2497736489
14.8467347431
15.6530532191
14.0879548004
14.418512949
17.0058453523
18.2243013819
21.1302928591
18.9574979566
17.3570231555
15.1133186588
17.9139147318
17.6058218527
15.9259835177
15.5388771401
15.7114091702
14.0944005356
14.734933347
15.5612292939
13.5602085444
13.978731631
17.4009269359
19.3120629187
21.0885787215
21.1077931996
18.0394710779
18.3154932103
16.9877587533
17.2675264285
15.531248141
16.2161666987
17.6630139029
17.0859405033
17.2589538638
17.2309266384
17.1120687247
17.2317013288
17.1965888431
18.9488282598
24.2765587004
27.1997722692
27.1347747561
27.7970268529
32.9266180032
42.2973054497
48.0264733538
37.1154874487
19.8846137996
13.0487035853
0.069875703661
0
0
0
0
0
0
0
0
0
0
0
0
0
0
0
0
0
0
0
0
0
0
0
0
0
0
0
0
16.5611688499
15.6759339646
18.7438050912
17.6843368189
17.3149016674
15.4833673802
15.1970910056
18.0530313016
16.6284547559
21.3993244586
19.7441986683
18.0667201266
15.9093559264
18.5707677906
18.1962296321
16.7520605089
18.021885922
17.3737632527
15.0568257045
16.1179473476
16.9395105034
15.0445605428
13.7053455539
17.2577366019
19.3915856126
20.8241388365
21.0917581531
17.9867030792
18.4947788534
18.3169501669
18.3657389463
16.1537950371
16.7579720415
16.9081360437
18.0251261487
18.5113598041
18.4337704368
18.1941658548
18.1485455599
19.2013908952
24.2284549804
29.1189090198
30.8208713854
31.4187687937
34.2193808639
40.7938340364
43.4947594262
26.741084072
22.4182146251
17.8647169402
0.119169576757
0
0
0
0
0
0
0
0
0
0
0
0
0
0
0
0
0
0
0
0
0
0
0
0
0
0
0
0
0
17.2532655031
16.4370065889
18.9949154586
18.5692624715
18.2196388605
16.8518267271
16.2578199193
19.3791290175
17.5013668043
21.7997000333
20.5342607974
18.8304177887
16.808105331
19.2648043296
18.819496923
17.4557375528
18.8741552716
18.3231242565
16.0253325693
17.5405387455
17.4994065841
15.5661529798
14.8791243814
15.0549117384
18.8483964179
20.2266879768
20.7860895975
17.894749911
18.4383286793
18.6920540763
19.1717358806
18.4748063754
16.3112867868
16.6858510358
18.1152454152
19.3254431116
19.7525666298
19.9087115249
19.8765685838
24.0040629576
29.9164614827
33.5137607422
34.6720041959
35.9478939768
39.4542712016
37.7419861536
21.9654701756
24.4614321159
22.0049890576
0.318558000607
0
0
0
0
0
0
0
0
0
0
0
0
0
0
0
0
0
0
0
0
0
0
0
0
0
0
0
0
0
0
17.1149431647
16.9588651341
19.1587565055
18.6129420166
18.8050147958
17.9342063936
17.2006397533
20.6716617786
19.2166753583
22.3436170794
21.3776144335
19.6294603393
17.7992532814
20.0089828666
19.5216159994
18.3297165738
19.5448774082
19.1562195565
17.1062371994
18.4553822038
16.4198353593
16.1382036876
15.8163436241
16.2685706299
17.2471859299
18.0131217554
19.8406729939
17.7759343655
17.600528937
18.5547148884
19.4890802373
19.7897136879
17.9992263807
17.3567679303
17.8485717425
18.9759031966
20.381431068
21.6726099162
23.4401560999
29.5033821961
34.6455010127
37.1716745023
37.475625926
37.5868051898
32.2275998146
23.7468303388
24.5255908843
23.1297406514
0.870324203147
0
0
0
0
0
0
0
0
0
0
0
0
0
0
0
0
0
0
0
0
0
0
0
0
0
0
0
0
0
0
0
17.2488193056
17.3413309064
19.3514727694
17.1119046937
18.9973029114
18.4862478414
17.8294492774
21.1170588245
19.9125733083
22.9448617909
22.2889314757
20.4455178895
18.8983439023
20.7910008957
20.2743919807
19.3506395976
20.2439372938
20.1032141831
18.303226115
19.7519122326
17.7012690601
17.9681150178
17.0179471619
17.4685071123
19.3595743458
19.9485190089
19.4172568814
17.6277352824
16.813764291
18.4607894026
19.4580792507
19.908650751
19.7942490349
18.3888109603
19.8329674117
19.7523998338
20.9499653961
23.4687578057
27.9073477394
34.394589683
38.4774112334
39.6495239523
37.1337699897
29.0034910702
26.2416385528
26.4533486937
27.0737586143
7.421969814
0
0
0
0
0
0
0
0
0
0
0
0
0
0
0
0
0
0
0
0
0
0
0
0
0
0
0
0
0
0
0
0
17.9093920435
17.9859570274
19.4994137725
17.4464139954
19.1364818513
18.7255978634
18.2727526689
21.1302831551
20.4231855558
23.3648881557
23.222697486
21.2324727883
20.1067163402
21.5734009879
21.0095879931
20.3551997655
20.8977526878
21.1526342186
19.5582584327
21.0255373228
19.4827590525
20.2254490494
19.8504686693
18.1044030923
19.7856618978
20.9149862082
21.027343186
17.515032321
15.881716113
18.348217952
19.5641703611
19.0312491173
19.0273014173
18.6087616088
19.6770927272
20.089519564
21.6946879463
25.4145962347
32.272469742
38.9039650822
41.7280098597
40.2905428629
30.0907058606
27.024077592
27.8915469319
27.5792237344
23.6236808691
0.209722519835
0
0
0
0
0
0
0
0
0
0
0
0
0
0
0
0
0
0
0
0
0
0
0
0
0
0
0
0
0
0
0
0
18.7589474038
20.2173731621
19.7592517035
18.4512274585
19.5882524271
19.0205120716
18.7038259736
21.1272457192
20.9152820591
23.3942921611
24.1703830342
21.9657203967
21.1823030076
22.1570142119
21.7345626285
21.0696265261
20.840562674
22.1287995184
20.949477121
22.1234942294
21.6239063738
21.4041093966
21.1071696401
20.6408661492
19.5630112043
20.5156282775
21.9471610417
16.4277681773
15.3381160267
17.3742766926
19.5285511798
19.8232973239
20.3385391029
18.5619743704
19.3548328678
20.3317891251
22.0596540491
27.2047555529
36.3302322086
43.0004047504
44.4270854473
35.9876654868
28.9633919804
30.2974302472
30.0032338024
26.1632756235
0.894706937177
0
0
0
0
0
0
0
0
0
0
0
0
0
0
0
0
0
0
0
0
0
0
0
0
0
0
0
0
0
0
0
0
0
19.377619237
20.8659501487
20.3831286113
19.3439963816
20.242101722
19.5390590201
19.2118287277
21.2248482158
21.4181319729
23.1256360383
25.0349852118
22.7301564927
21.772200056
22.631321947
22.5957050807
21.7188781979
20.7865319903
22.8049951374
22.484499443
23.0688018477
22.8842445186
22.9375043683
21.0457166359
21.0413896135
20.4656527405
22.3543919565
23.2541835679
19.2946797119
14.8768049384
16.1633897462
18.8865458533
20.1644842699
20.168574397
19.1881558578
18.8217005259
20.4472698707
22.00105401
28.6146278788
39.9932529129
47.0613284992
43.8145717463
29.9012503187
30.8305542156
32.8210680885
31.6694487683
10.3363308315
0.0347359416869
0
0
0
0
0
0
0
0
0
0
0
0
0
0
0
0
0
0
0
0
0
0
0
0
0
0
0
0
0
0
0
0
0
19.8508403456
21.1876134488
20.9520516662
19.9418838112
20.9081017133
20.2440066215
19.8128419464
21.5149181817
21.9991500033
22.4379209444
25.6091021452
23.6079496393
22.1902182039
22.3828050641