/*--------------------------------*- C++ -*----------------------------------*\
| =========                 |                                                 |
| \\      /  F ield         | OpenFOAM: The Open Source CFD Toolbox           |
|  \\    /   O peration     | Version:  v1806                                 |
|   \\  /    A nd           | Web:      www.OpenFOAM.com                      |
|    \\/     M anipulation  |                                                 |
\*---------------------------------------------------------------------------*/
FoamFile
{
    version     2.0;
    format      ascii;
    class       volScalarField;
    location    "136";
    object      p;
}
// * * * * * * * * * * * * * * * * * * * * * * * * * * * * * * * * * * * * * //

dimensions      [0 2 -2 0 0 0 0];


internalField   nonuniform List<scalar> 
6400
(
0.148354846856
0.148356807682
0.148362314358
0.148372702009
0.14838728866
0.148405774238
0.14842830998
0.148456045891
0.148488780145
0.148526148691
0.148573291527
0.148632820799
0.148701009755
0.148778073616
0.148865991071
0.148966851232
0.149080909564
0.149207301489
0.149344986706
0.149489756482
0.149635093093
0.149780236074
0.149929983731
0.150090433382
0.150266214266
0.150457219887
0.150659896608
0.150871979898
0.151093742658
0.151326472127
0.15157136683
0.151827340845
0.15208853686
0.152349373958
0.152608655747
0.152862127709
0.153108018798
0.15335604424
0.153605747296
0.153843998931
0.154072349247
0.154308967062
0.154563758691
0.154828255124
0.155094728596
0.155359040567
0.155617923984
0.155870325264
0.156115584294
0.156353372339
0.156584615733
0.15680434646
0.157007546352
0.15718600312
0.157341738295
0.157487547703
0.157619989839
0.157726248881
0.157803829057
0.157860562205
0.157900310155
0.157923655971
0.157933403745
0.157928842978
0.157905522187
0.157849755153
0.15775665521
0.157641659031
0.157524298333
0.157412216582
0.157304767627
0.157197961726
0.157089079813
0.156984401953
0.15688378543
0.156791285458
0.156710096211
0.156654747513
0.156618023299
0.156602370963
0.148351847035
0.148353875023
0.148358680649
0.148368844412
0.148384903608
0.148404900815
0.148427997309
0.148454237921
0.148485226218
0.148522724139
0.14856956268
0.148627705246
0.148696155927
0.148774363558
0.148862784269
0.148962353541
0.149075786486
0.149202975159
0.149342635718
0.149489189995
0.149632900049
0.149775624959
0.14992427141
0.150083834128
0.150259720539
0.150451715277
0.150654383072
0.150866905673
0.151089776536
0.151323434912
0.151567982314
0.151824138289
0.152086831625
0.152347731758
0.152607666628
0.152861556545
0.153106747615
0.153355275395
0.153605895305
0.15384280069
0.154064677588
0.154298443385
0.154560269828
0.154829116055
0.155097299905
0.155363386945
0.155623593375
0.155877536596
0.156123472324
0.156358505307
0.156584057626
0.156804037408
0.157018989237
0.157199909022
0.157356769148
0.157508293247
0.157636963617
0.157737313201
0.15781443706
0.157871211449
0.157909682821
0.157934697034
0.157945655286
0.157941732512
0.157919488832
0.157865159402
0.157770937672
0.157653478863
0.157533424725
0.157418378844
0.157307964298
0.157197765304
0.157084276724
0.156973559292
0.156870251868
0.156777016083
0.156699015281
0.156642998347
0.156606073077
0.156593418663
0.148343669626
0.148347142014
0.148351211683
0.148360487445
0.148376115793
0.14839896128
0.148424827636
0.148450387439
0.148479443759
0.148515892138
0.148562093724
0.148619542441
0.148688092737
0.148766991774
0.148855698762
0.148951922255
0.149063590005
0.149198460854
0.149342392584
0.149488034717
0.149627335836
0.149763081082
0.149909327684
0.150071738582
0.150248057563
0.15043886997
0.150642857799
0.150857528342
0.151082098097
0.151317238135
0.151562557322
0.151819530616
0.152085503919
0.152345433053
0.152603120861
0.152861143312
0.153105300213
0.153350233382
0.153601287345
0.153840289113
0.154070055874
0.154308423704
0.154564244882
0.154829468037
0.155096887897
0.15536292157
0.155624721479
0.155880615861
0.156128953388
0.156368267666
0.15659840372
0.156818638256
0.157024567282
0.157209688859
0.157380100885
0.15753291168
0.157657982959
0.157757613724
0.157834976885
0.157892335017
0.157932559069
0.157958688177
0.157969862853
0.157969423593
0.157949823982
0.157894932102
0.157801335731
0.15768192745
0.157555055843
0.157432054606
0.157313337143
0.157194375737
0.157074852863
0.156959630159
0.156851499578
0.156755387094
0.156677432148
0.15662026139
0.156583691347
0.156570016371
0.148332809372
0.148336201068
0.148339088021
0.148347577436
0.148361313548
0.148384050844
0.14841867377
0.148444078184
0.148470817726
0.148505394964
0.148550676951
0.148607750155
0.148676593918
0.148755035466
0.148844422693
0.148948039882
0.149066597844
0.149199391036
0.149336197256
0.149469042111
0.149601968944
0.149740890173
0.149889197559
0.150051136768
0.15022826344
0.150420622956
0.15062680723
0.150843913311
0.151071079979
0.151307972437
0.151556045813
0.151814735829
0.152081918096
0.152348744066
0.15260224239
0.152853684087
0.153104000757
0.1533462435
0.153587345684
0.153827459791
0.154066127039
0.154310798525
0.154566884802
0.154831235277
0.155098817062
0.155365905129
0.155629612499
0.155887883809
0.156139009371
0.156381561233
0.156614518437
0.15683636532
0.157044292583
0.157235410362
0.157409571342
0.157562255008
0.15768854067
0.157789434914
0.1578679443
0.157926780235
0.157968600518
0.157995454924
0.158009205505
0.158014857787
0.157999993366
0.157948312949
0.157852561649
0.15772597788
0.157587784997
0.157452220964
0.1573227556
0.15719577817
0.157068887047
0.156941470289
0.156820512035
0.156719427934
0.156641284975
0.156577327248
0.156532288439
0.156513482003
0.148316098526
0.148316165959
0.148319769664
0.148328484469
0.148343756355
0.148365040808
0.148395856841
0.148424821164
0.148453919724
0.148489444267
0.1485342159
0.148591217549
0.148661048839
0.148746031093
0.148844644573
0.148950673349
0.149064589804
0.149185229722
0.149309886888
0.149439154653
0.149573450089
0.149712852511
0.149861743276
0.150024700819
0.150203060457
0.150397412117
0.150605685357
0.150826008069
0.151056186488
0.151296862489
0.151547195546
0.151811228352
0.152085702018
0.152346885712
0.152599812031
0.152847653777
0.153088723685
0.153329583256
0.153571839964
0.153815271381
0.154060181438
0.154310176512
0.154568366204
0.154833549322
0.155102315833
0.155371247048
0.155637427145
0.155898605548
0.15615301772
0.156399207239
0.156635814718
0.156861137035
0.157072965184
0.157268998092
0.157446762727
0.157601656231
0.157730312482
0.157833789577
0.157915064949
0.157976900603
0.158021726503
0.158051686283
0.158069891142
0.158082351556
0.15806936217
0.1580209138
0.157925870517
0.157791774564
0.157638141353
0.157484986438
0.15734101819
0.157201062843
0.157055459213
0.156905828229
0.156770922191
0.15666160979
0.156571142531
0.156486906503
0.156432180459
0.156411864628
0.148284303915
0.14828360491
0.148290744411
0.148299458981
0.148316211672
0.148339558182
0.148367320692
0.14839728115
0.148429592324
0.148467009345
0.14851068843
0.148568933664
0.148648475857
0.148742150904
0.148841234404
0.148942573168
0.149047275062
0.149158829267
0.14927974471
0.14940788753
0.149539431174
0.149677816737
0.149827716377
0.149992456567
0.150172762974
0.150368265157
0.150580214167
0.150803581078
0.151038524906
0.151282874311
0.151539576194
0.151807080636
0.152079950042
0.152348686584
0.152593872624
0.152829978939
0.153067713878
0.15330938355
0.153554324327
0.153801799927
0.15405206101
0.154307089485
0.154568633842
0.154836136515
0.155107192397
0.155378792039
0.155648083873
0.155912749517
0.156171035083
0.156421511665
0.156662738073
0.156892977397
0.157110081348
0.15731138544
0.157493371257
0.15765183136
0.15778455869
0.157892746002
0.157979004785
0.158045887478
0.158095735591
0.158131992666
0.158159772807
0.15817526554
0.158167017474
0.158119755568
0.158023218415
0.157881073663
0.157709674741
0.157534673604
0.157369708097
0.157203988633
0.157026293587
0.156851425832
0.15669863898
0.156570993736
0.156453818122
0.156347657578
0.156282816091
0.156254402882
0.148235344001
0.148238700937
0.148251972029
0.148265348558
0.148279091172
0.148302246263
0.148332138004
0.14836300003
0.148397911518
0.148437511067
0.148485159819
0.148546598868
0.14863444732
0.148728984505
0.148824685417
0.148918203578
0.149016328518
0.149126706876
0.149247650269
0.149370404975
0.149498528707
0.149637202062
0.149787999924
0.14995352626
0.150135718748
0.150336681539
0.15054915235
0.150777431508
0.151017354369
0.15127082597
0.151533338573
0.151800894838
0.152075282427
0.152334685936
0.152574709708
0.152805945286
0.153043028515
0.153286691479
0.153534966391
0.153786628259
0.154041901314
0.154301979781
0.154567763825
0.154838805737
0.155113232447
0.155388373559
0.155661496434
0.155930339107
0.156193244316
0.156448867338
0.156695762025
0.156932103248
0.157155498642
0.157362796615
0.157550153157
0.157714030766
0.157853085363
0.157968463252
0.158062110468
0.158135814804
0.158192528643
0.158238340323
0.158275881117
0.158295437517
0.158304319314
0.158261068386
0.158156924554
0.158000500105
0.157807780327
0.157604768654
0.15740493037
0.157197587321
0.1569808922
0.156777124096
0.156597134594
0.156436168997
0.156282259707
0.156155003082
0.156079148352
0.156041739682
0.148178159843
0.148185189064
0.148201277172
0.148222076865
0.148237415714
0.148260414179
0.148289550508
0.14832194139
0.148360340755
0.148398111059
0.148452689695
0.148526295402
0.148612951883
0.148705725707
0.148794673939
0.148880809468
0.148978771985
0.149091805087
0.149207881537
0.149325598277
0.149451340691
0.149590191931
0.14974222942
0.149910458492
0.150096017995
0.15029975123
0.150518058068
0.150744659536
0.150995169452
0.151261968583
0.151524122586
0.151786698756
0.152059353773
0.152310439543
0.15254302164
0.152776354478
0.153015593092
0.153261714497
0.153513411482
0.153769392842
0.154029680438
0.154295027145
0.154565814742
0.154841459396
0.155120297101
0.15539989008
0.155677666117
0.155951516003
0.156219938146
0.156481685394
0.156735299239
0.156978797515
0.157209450469
0.157423755903
0.157617997502
0.157789449074
0.157937375539
0.158062418135
0.158165015254
0.158245799388
0.158309594997
0.158365156791
0.158413126755
0.158449175872
0.158473466802
0.15845393729
0.158343789804
0.158163424042
0.157938349657
0.157693169215
0.157442113456
0.157181253265
0.156921080255
0.156679363804
0.156458451021
0.156249734849
0.156058712141
0.15590857301
0.155821562345
0.155780334894
0.148115973121
0.148125502719
0.1481421965
0.148159049713
0.148179884887
0.148210132361
0.148238474789
0.148271825256
0.148316008399
0.148358291616
0.148410261864
0.148492408498
0.148581915924
0.148670084886
0.148753198608
0.14883914403
0.14893695943
0.149047945276
0.14915966028
0.149274833259
0.14939893819
0.149536514916
0.14968809681
0.149857697777
0.150053519548
0.150258170567
0.15048263843
0.150719919615
0.150971615249
0.151237573961
0.151506978303
0.151778327865
0.152030359926
0.152271392842
0.152505881208
0.152742684401
0.152985070917
0.15323408284
0.153489290547
0.15374974815
0.154015291852
0.154286292513
0.154562787173
0.154844010675
0.155128292929
0.155413311718
0.155696692517
0.155976546125
0.156251533804
0.156520473177
0.15678185652
0.157033504736
0.157272377839
0.157494840325
0.157697612874
0.157878805549
0.158037877486
0.158174022697
0.158284971741
0.158370847394
0.158442628686
0.15851566805
0.158587189513
0.158645028719
0.158678379062
0.158683198274
0.158598670703
0.158383020482
0.158109125555
0.157803466993
0.157482688066
0.157158043551
0.156846363701
0.156554106618
0.156276439014
0.156011050858
0.155780829578
0.155606467356
0.155503918263
0.155459224452
0.148048046871
0.148059684989
0.148079213769
0.148095989497
0.148117804322
0.148149102769
0.148178203915
0.148211652681
0.148254143989
0.148310348653
0.148367102558
0.14844922919
0.148539660886
0.148623333024
0.148700906626
0.14878971299
0.148891995182
0.14899759131
0.149104130145
0.149217415879
0.149341642458
0.149478964982
0.149630478731
0.149798278973
0.150001688307
0.150216394598
0.150434242528
0.150683053171
0.150940326192
0.151212354581
0.151483387315
0.151749639926
0.151996855899
0.152229028601
0.152464531113
0.15270511272
0.152951128762
0.153203471378
0.153462342841
0.153727382372
0.153998476817
0.154275658719
0.154558607844
0.154846351264
0.155137141663
0.15542868976
0.155718799001
0.15600583496
0.156288606013
0.156565912393
0.156836124579
0.157096849386
0.15734482317
0.157576509
0.157789283982
0.157981965069
0.158153363255
0.158299162802
0.158412530801
0.158499959035
0.158589243132
0.158699715804
0.158812839086
0.158901240297
0.15894608933
0.158941161417
0.158868338423
0.158679467673
0.158330746837
0.157935961217
0.157527262204
0.157128914808
0.156753688789
0.156396449949
0.156046606488
0.155714080553
0.155433870737
0.155225770572
0.155095280905
0.155037004612
0.147971565518
0.147983107706
0.148003961619
0.148025560063
0.148054039898
0.148079690349
0.148108640751
0.148143834029
0.148179519468
0.148241892178
0.148310688915
0.148393417075
0.14848418864
0.148566739112
0.148643251884
0.148732138021
0.14883634441
0.14893852909
0.149041358248
0.149151918322
0.149276295965
0.14941533911
0.149571759374
0.149739468466
0.149935585669
0.150168180736
0.150395827856
0.150643389863
0.15090147823
0.151162875313
0.151444780373
0.151710746436
0.15195100069
0.152181353225
0.152419215239
0.152663494213
0.152913414839
0.153169566792
0.153432390826
0.15370208007
0.153978943829
0.154262859178
0.154553073
0.154848326375
0.155146755851
0.155446091872
0.155744307141
0.15603997532
0.156331963973
0.156618946485
0.156899065224
0.157169663852
0.15742737798
0.157669023984
0.157892774745
0.15809768988
0.158279585238
0.158425127447
0.15852922535
0.158625272174
0.158758112467
0.158939194542
0.159118637285
0.159251784196
0.159307242881
0.159270537268
0.159149556223
0.158960859206
0.158611150666
0.158101013043
0.157577771326
0.157090252344
0.156638425704
0.156203652198
0.155765161025
0.155340062518
0.154984456932
0.154721590039
0.154548948995
0.154467846703
0.147884648293
0.147893747357
0.147909006353
0.147937092054
0.147975223788
0.147999499771
0.148028578374
0.148067930851
0.148102272798
0.148161051295
0.148239091743
0.14832437416
0.148414446256
0.148497387544
0.148579521219
0.148670282926
0.148772537635
0.148871234074
0.148971683107
0.149079696314
0.14920118153
0.149337981396
0.149504185641
0.149685423478
0.14987528872
0.150108058096
0.150345163237
0.150586788739
0.150860323074
0.151128525638
0.151398082328
0.151651855164
0.151889374791
0.152126914197
0.152368988996
0.152617208655
0.15287138318
0.153131886983
0.153399191076
0.153673683728
0.15395634905
0.15424746787
0.154545852764
0.154849693343
0.155156995206
0.155465587948
0.155773608875
0.156079728433
0.156382705635
0.156680907274
0.156972040514
0.157253084791
0.157520754229
0.157772542303
0.15800733052
0.158222514501
0.158403726987
0.158529405302
0.158622365108
0.158753128834
0.158976836031
0.159275320919
0.159553327668
0.159752503466
0.159820296731
0.159738636229
0.159524821293
0.159239458146
0.158851812153
0.158272822755
0.157630732219
0.157035439763
0.156495759408
0.155980744151
0.155429688887
0.154855463653
0.154382402642
0.154047348139
0.153833163386
0.153737538158
0.147786962247
0.147793516536
0.147800498419
0.147832545306
0.147870505917
0.147900836172
0.147933012661
0.147977084817
0.148017179914
0.148074283217
0.148156249554
0.148242869256
0.148331351666
0.148411403487
0.148500780721
0.148600244043
0.148699784465
0.148795463325
0.148894493174
0.149001470122
0.149119816168
0.14925078495
0.149415167756
0.149620362253
0.149817334921
0.150034877657
0.150287734064
0.150536355331
0.15079760298
0.151071269102
0.151339840309
0.151587643787
0.151823000656
0.152065514589
0.152312797781
0.152565665202
0.152824377661
0.153089445821
0.153361930102
0.153642020409
0.153930683445
0.154229103759
0.154536357242
0.154849992261
0.155167599586
0.15548717471
0.155807099933
0.156126002779
0.156442259907
0.156753607038
0.157056982757
0.157348777467
0.15762607494
0.157887133097
0.158130851628
0.158347157982
0.158505414436
0.158596623184
0.158686515173
0.15890367479
0.159291783302
0.159770034959
0.160189431096
0.160500980584
0.160591434676
0.160425478232
0.160053677422
0.159573886426
0.159041691626
0.158379399607
0.157648112902
0.156947642241
0.156317576109
0.155755164732
0.155063219063
0.154213423371
0.153557131354
0.153155008357
0.152911045668
0.152825586208
0.147679434626
0.147687079094
0.147699146036
0.147720531824
0.147753389365
0.147787561871
0.147823706818
0.147869936126
0.147920009288
0.147977809452
0.14806226625
0.148149772496
0.148237557077
0.148316029475
0.148405292433
0.148512776307
0.148614028806
0.148709804428
0.148808654375
0.148915627849
0.149032822846
0.149159640665
0.14931908604
0.149535179168
0.149748116614
0.149962794712
0.150221096992
0.150477954996
0.150733004172
0.151004974372
0.151260385012
0.151503452079
0.151747801813
0.151996810884
0.152249765889
0.152507853383
0.152772079089
0.153042215957
0.153319622509
0.153605832282
0.153901480075
0.154207643398
0.154524141457
0.154848532395
0.155177999494
0.155510629593
0.155845082987
0.156179767931
0.156512319921
0.156839443158
0.157156632263
0.15745943693
0.157745309539
0.158013131627
0.158260679263
0.158457089844
0.158561599363
0.158607112292
0.158692409112
0.159141589718
0.159777511749
0.160529852202
0.161127304053
0.161634476634
0.161657606859
0.161274366978
0.160631428584
0.15985646577
0.159099749058
0.158372402882
0.157558459002
0.156782895077
0.156094501971
0.155620540444
0.154784524823
0.153315093591
0.152374448086
0.151981744369
0.151709633445
0.151690261591
0.147558906864
0.147567407234
0.147588489993
0.147600474172
0.147627009659
0.147662266107
0.14770160571
0.147751561688
0.147814048006
0.147871723226
0.147957007749
0.148045443845
0.148133566509
0.148213539494
0.148303498097
0.148413833219
0.148516954877
0.148614404668
0.148714211973
0.148821396007
0.148938486223
0.14906475242
0.149216666905
0.149427736996
0.14966683184
0.149890142145
0.150134705554
0.150412216046
0.150676814234
0.150924760024
0.151170263993
0.151414927323
0.15166496614
0.151920065074
0.152179346572
0.152443421433
0.152713048221
0.152989159653
0.15327238467
0.153564472873
0.153867500517
0.154182318001
0.154508717715
0.154844594153
0.155187293549
0.155535260484
0.155887401648
0.156241838656
0.156595016765
0.15694144624
0.157274731799
0.157589512039
0.157882362006
0.158150792769
0.158388877853
0.158509747524
0.158535100505
0.158584538255
0.15883311117
0.159667773829
0.160560364884
0.161647719623
0.162013076341
0.162112436554
0.162179158685
0.161930941856
0.161226149511
0.160224037109
0.159136236527
0.158069099645
0.157291110431
0.156539165049
0.155536761844
0.155746614839
0.154831872894
0.151949080585
0.150608697251
0.150491240898
0.150089080382
0.150327256493
0.147422812414
0.147430301316
0.147448852124
0.147462854565
0.147486679889
0.14752349712
0.147564283318
0.147613349969
0.147687914021
0.147753866104
0.147839121875
0.147929122475
0.14801884313
0.148102829456
0.148195180297
0.148306091418
0.14841037513
0.148510168601
0.14861161663
0.148719419779
0.148836292989
0.148963304542
0.149111189598
0.149314224405
0.149568368278
0.149807958324
0.150043340193
0.150313074788
0.150588825136
0.150839384152
0.151077852827
0.151321463753
0.151575355587
0.151836466673
0.152101980091
0.152371731199
0.152647248562
0.152929164194
0.153218858875
0.153517570574
0.153828005148
0.154151980672
0.154489187945
0.154837269455
0.15519395123
0.15555932357
0.155933558667
0.156313750871
0.156692750849
0.157062351049
0.157416336039
0.157746905412
0.158046078755
0.1583069569
0.158521925017
0.158480870054
0.158490668196
0.15859305502
0.159343051655
0.160702640337
0.160856587441
0.161240819593
0.16174910149
0.161923455334
0.161825019242
0.161409399535
0.160663363969
0.159726860875
0.158753875764
0.157825483396
0.157010784777
0.156340797945
0.156379012917
0.158057813845
0.158015597063
0.148498793489
0.146578912614
0.148550608207
0.147754171317
0.148926868312
0.147273490889
0.147279920395
0.14729854695
0.147312299093
0.147335725958
0.147372851655
0.147414555779
0.147459991077
0.147535169906
0.147615273625
0.147705448245
0.147798514136
0.14789125598
0.147982899201
0.148078012761
0.148189115474
0.148294516557
0.148397383856
0.148500999765
0.148609947508
0.148726930398
0.1488537578
0.14899897676
0.149193160645
0.149446005742
0.149713639873
0.149956941342
0.150212638103
0.150481185164
0.150729300705
0.150967044857
0.151216818754
0.151476795364
0.151744107155
0.152016289473
0.152292684065
0.152574053629
0.152862176415
0.153158241515
0.153464158984
0.153782324068
0.154115161436
0.154463687192
0.15482539827
0.155197246041
0.155581790264
0.155982297466
0.156394536605
0.156805964263
0.157205833749
0.157589999945
0.157946220056
0.158250152422
0.158462275763
0.158533663464
0.158427379473
0.158440498455
0.158794627081
0.159508019336
0.16020059039
0.160862123296
0.16109516328
0.161349923595
0.16140304022
0.161195016909
0.160730699497
0.160022152697
0.159138936091
0.158176362442
0.157221839588
0.156318721197
0.155544779454
0.155029298246
0.154570262028
0.151450235958
0.14846305185
0.150122625125
0.150972441527
0.142700791507
0.147864441784
0.147113008213
0.147117925962
0.147132280239
0.147147427831
0.147174908627
0.147211902402
0.147255862667
0.1472996464
0.147373166507
0.147461651139
0.147556157655
0.147651733747
0.147745926316
0.147847810789
0.147949214502
0.148060254587
0.148167346293
0.148274956991
0.148381594773
0.148492327151
0.148609977047
0.148736282967
0.14887929003
0.149066625472
0.149315387583
0.149600061051
0.149861698328
0.150111670091
0.150365814264
0.150607227048
0.150846808755
0.151101371556
0.151367083525
0.151640166765
0.151919220839
0.152203741932
0.15249274043
0.152787020201
0.153090080477
0.153403082832
0.153729077778
0.154071785755
0.154432285823
0.154807997002
0.15519299872
0.155596127215
0.156034478188
0.15649920394
0.156952279469
0.157389420696
0.157820857903
0.158230618674
0.158572629032
0.158757700051
0.158510894731
0.158315831376
0.158263833999
0.158585589811
0.159453614591
0.159939617905
0.160350783536
0.160546474837
0.160637132501
0.160555223833
0.160241507466
0.159692345106
0.158926599682
0.157992381537
0.156958130681
0.155892487657
0.154822287452
0.153736805646
0.152616742272
0.151319330268
0.149333312088
0.147596999774
0.147050846383
0.145044966576
0.146700457928
0.154378079469
0.146943630176
0.146947360437
0.14695676303
0.146973737708
0.14700485001
0.147041118665
0.147086490044
0.147133096764
0.1472024076
0.147295054796
0.14739219811
0.147489262647
0.147582852085
0.147689176865
0.147802538908
0.147916101573
0.148025442479
0.148138558704
0.14825092709
0.14836493969
0.148484570062
0.148610085359
0.148751232055
0.148932751083
0.149172322697
0.149453307318
0.149736111715
0.149994969445
0.150244334683
0.150482148692
0.150718490306
0.150976038638
0.15124746613
0.151523025317
0.151810445764
0.152103973343
0.15239947754
0.15270135167
0.153012449903
0.153334511298
0.153668927221
0.154019917353
0.154390983044
0.154784557411
0.15520151556
0.155646972289
0.15612767974
0.156625397806
0.157120575534
0.157629227906
0.158160585881
0.158722734202
0.159253739415
0.159671695067
0.159371930372
0.157883636121
0.157838051482
0.158400105402
0.159089505466
0.159479192513
0.159710435442
0.15978787686
0.159710586543
0.159456390655
0.158995822211
0.15832367746
0.157455200985
0.156422588165
0.155268541951
0.154032626646
0.152740303122
0.151327187096
0.149739132956
0.147952239711
0.145822688651
0.143500261209
0.14173586865
0.140656317641
0.142632523714
0.13407097437
0.146765798926
0.146769107864
0.146776874718
0.14679699112
0.146827789131
0.146861498953
0.146903972406
0.146955707174
0.147020623908
0.147114824618
0.147213870262
0.147312412755
0.147406745899
0.147512795817
0.147636016675
0.147755483638
0.147868806429
0.147986231753
0.148105023156
0.148224786796
0.148349131248
0.148474620247
0.148613956667
0.148791273052
0.149021982372
0.149296015223
0.149586452048
0.149857760488
0.150099322262
0.150333459217
0.150576597058
0.150833763492
0.151108739426
0.151392189325
0.151688527292
0.151990041493
0.152292896697
0.152603130515
0.152923029541
0.15325466219
0.153599458524
0.153961246924
0.154349740384
0.154777000081
0.15524149029
0.155723695519
0.156227595057
0.156757624908
0.15732740209
0.157961628561
0.158688678535
0.159583664202
0.160570760669
0.162273902662
0.162005769584
0.15843618286
0.157343697211
0.158171993849
0.158753510382
0.158912478995
0.158907553287
0.158783162161
0.158509890621
0.158065773813
0.157433121869
0.156605000531
0.155587780033
0.154398393866
0.15305870585
0.151586377839
0.14998836778
0.148196240288
0.146089125766
0.143609287866
0.140660907087
0.137223412019
0.133522571469
0.129063959946
0.123757326924
0.116342060786
0.146576931095
0.146580134836
0.146588312159
0.146613111152
0.146642799714
0.146673553056
0.146710931013
0.146766155717
0.146825480443
0.146919521609
0.147020563641
0.147120820876
0.147217084233
0.14732469376
0.147452963536
0.147578613406
0.147697571766
0.147819838733
0.147943334072
0.148069229352
0.148200819325
0.148328446884
0.148465750145
0.14863997096
0.148863140799
0.149129110052
0.149420583882
0.149698033356
0.149948122506
0.150178373152
0.150425590377
0.150687020487
0.150959927201
0.151240842112
0.151541814485
0.15185704608
0.15217133631
0.152491949919
0.152820486666
0.153161619282
0.153518888412
0.153896204116
0.154313445052
0.154787185258
0.155287005823
0.155791797383
0.15632348401
0.156919523378
0.157619027086
0.158423332231
0.159363709013
0.160587633224
0.161134450755
0.161274349334
0.161355072477
0.16038873189
0.158666591006
0.158366450814
0.158372286987
0.158213898033
0.157942607804
0.157577493517
0.157082789718
0.156428787346
0.155597096214
0.15457747971
0.15336756719
0.151970557912
0.150390123697
0.148622828913
0.146648355059
0.144422216127
0.141758740864
0.138464494006
0.134398598487
0.129271524015
0.122502012439
0.112288385343
0.0944900281452
0.0532401586053
0.146371604709
0.146374520837
0.146384834548
0.146415507841
0.146444558965
0.146473145756
0.1465078345
0.146562930212
0.146616524419
0.146708262309
0.14681123825
0.146913303212
0.147011717494
0.147120951916
0.14725215963
0.147383447298
0.147510276773
0.147638122226
0.14776529978
0.147896453824
0.148036443996
0.148169349606
0.14830434734
0.148475669099
0.148693256294
0.148950216819
0.149236393177
0.149508522539
0.149771590292
0.150014504746
0.150259921073
0.150518439269
0.15079745147
0.151087407713
0.151382306915
0.151701319351
0.152029195915
0.152361820676
0.152703749784
0.153055684084
0.153423879138
0.15382624667
0.154290553198
0.154806331612
0.155326222166
0.155855886024
0.156450794857
0.157175472445
0.158046282471
0.158963780418
0.159818699906
0.160462844737
0.160786434102
0.160992091996
0.160776449544
0.159925316498
0.158712668169
0.158058966916
0.157697315164
0.157289473065
0.156781216298
0.156173820131
0.15544265778
0.154559712487
0.153504599505
0.15226279602
0.150823598357
0.149177602302
0.147312155464
0.145204638325
0.142813567418
0.14007019229
0.136818760824
0.132738300129
0.127504160824
0.120668419794
0.111270890088
0.0972233824381
0.0745814057804
0.0378168676753
0.146142234343
0.146144913283
0.146157197555
0.146193555171
0.146221630906
0.14625154257
0.146285330943
0.146337498149
0.146388323804
0.146479420335
0.14658463832
0.146688496482
0.146789038179
0.146899438901
0.147031715605
0.147166326761
0.147303092654
0.147437936325
0.147568974892
0.147704678668
0.147852021578
0.147994374952
0.14812843412
0.148295589477
0.148509532265
0.148758812665
0.149037912667
0.149303087711
0.149563532687
0.149824270605
0.150084593114
0.150343455344
0.15060870168
0.150901180715
0.151209603919
0.151530619172
0.151866880506
0.152210787077
0.152565226652
0.152931353955
0.15331997803
0.153762974271
0.154277438293
0.154819554111
0.155365622928
0.155953100809
0.156660552718
0.157539946718
0.158503685337
0.159253790043
0.159930301013
0.160173959557
0.160360661619
0.160348916883
0.160011874706
0.159308061198
0.15837403526
0.157557640298
0.156881413135
0.156196553875
0.155433767349
0.154574175455
0.153595150697
0.152469833698
0.151174766173
0.149689970079
0.147996560727
0.14607378279
0.14389462915
0.141419526707
0.138587827864
0.13530628024
0.131437755289
0.126672754089
0.120512378244
0.11240651933
0.101506733841
0.0862739079715
0.0640146753017
0.0338011526852
0.14588221483
0.145886868911
0.145899657615
0.145935070135
0.145965958862
0.146002663065
0.146039367195
0.146091209378
0.14614636296
0.146232356526
0.146339282609
0.146444947147
0.146547686228
0.146659011901
0.146791095944
0.146925370703
0.147067847832
0.147213329373
0.147351111585
0.147492626547
0.147645073679
0.147799537958
0.147941480383
0.148099417333
0.148310451326
0.1485541955
0.148826266425
0.149086517322
0.149340090547
0.14960788396
0.149883376106
0.150156302992
0.150419942029
0.150701663902
0.151008423694
0.151338589411
0.151684796917
0.152041329065
0.15240610152
0.152788664522
0.153213435593
0.153710161394
0.154261924589
0.154831639922
0.155425273448
0.156100430065
0.156912466166
0.157722362409
0.158582141621
0.159468982476
0.159724483207
0.159809838033
0.159806089882
0.159631652047
0.159200212512
0.158495267338
0.157597948764
0.156670647018
0.155772710968
0.154851161869
0.153854945979
0.152758252993
0.151538801629
0.150171527779
0.148631460157
0.146894203854
0.144933958751
0.142720508117
0.140215003825
0.137364034588
0.134091524121
0.130287733739
0.12579338039
0.12038425353
0.11360697254
0.104783082666
0.093104174454
0.077538049983
0.0561978728244
0.029576189109
0.145596202979
0.145604663441
0.14561716657
0.145645247988
0.145682519298
0.145726174045
0.14576867238
0.145824567043
0.145889383567
0.14596914159
0.146074691488
0.146181427201
0.146286476248
0.146398973756
0.146531099894
0.146665741964
0.146807985575
0.146962625911
0.14711028011
0.147259872083
0.147417540642
0.147583583019
0.147743351287
0.14790345886
0.148100080499
0.148337885663
0.148603653862
0.148860271142
0.149106131207
0.149372444495
0.149654137851
0.14994702236
0.150220666258
0.150494922533
0.150792900328
0.151121306633
0.151474671671