/*--------------------------------*- C++ -*----------------------------------*\
| =========                 |                                                 |
| \\      /  F ield         | OpenFOAM: The Open Source CFD Toolbox           |
|  \\    /   O peration     | Version:  v1806                                 |
|   \\  /    A nd           | Web:      www.OpenFOAM.com                      |
|    \\/     M anipulation  |                                                 |
\*---------------------------------------------------------------------------*/
FoamFile
{
    version     2.0;
    format      ascii;
    class       volScalarField;
    location    "696";
    object      alphak;
}
// * * * * * * * * * * * * * * * * * * * * * * * * * * * * * * * * * * * * * //

dimensions      [0 0 -1 0 0 0 0];


internalField   nonuniform List<scalar> 
6400
(
0.894710786585
1.43774694376
2.28372388984
2.85762656529
3.4053959959
3.95230766485
4.63807032985
5.40447423428
5.86977129459
6.57506870371
7.84579231805
8.75339316132
9.52015733744
10.3745020176
11.4170667263
12.5126258542
13.5027633369
14.4348219837
15.2217401998
15.7003406561
15.9668180042
16.372886042
17.1202683481
18.1853421984
19.3458823021
20.3976965435
21.2793233751
22.1004319513
22.9611094972
23.876585428
24.7916605121
25.5171475233
25.9760760468
26.2863391554
26.4915085365
26.5929013347
26.8629992703
27.3492664711
27.528573188
27.4927540344
27.8221842543
28.6419929545
29.460491041
29.9218357591
30.0701272582
29.9997641325
29.7770393518
29.445524123
29.0183627056
28.5155200536
27.8549879496
26.8223301833
25.4373673535
23.7768667977
22.2784691845
20.9786626433
19.2199158827
16.7429301751
14.1486417725
11.9964975172
9.81273150135
7.5260463921
5.35238119522
5.38098032638
8.74280477
13.4493201596
16.3199635695
15.9459994239
13.9071507848
12.2992168259
11.4766342501
11.7643413631
12.4025182453
12.3486443116
14.5061013584
13.9832626314
15.920176507
9.8188595703
12.8591688176
4.8039950059
3.16115495048
2.54119011936
3.17239214096
4.44222255932
4.4086894777
4.37060844936
4.63739159783
5.12706213845
5.81518284482
6.68608022208
7.72900285375
8.77048012248
9.69675657956
10.5854384898
11.4938653951
12.5288404145
13.617925328
14.6565766066
15.7142650419
16.026249163
16.1107854841
16.4934740002
17.2179311168
18.2709976526
19.5516340224
20.5484969397
21.4011334496
22.2590809743
23.1343054852
24.0200920111
24.9069523201
25.7185350354
26.1718104125
26.4759143065
26.7125206837
26.730947241
27.0462871856
27.5570897677
27.691767107
27.5253770867
27.8262937395
29.1577559516
30.2615332677
30.6317015382
30.7222524776
30.5769418899
30.259691936
29.8626034053
29.2810801671
28.6190258697
28.0238088017
27.4880247766
26.2946805727
24.0003340265
22.6132321033
21.1036196764
18.8101118469
16.3970797127
14.0298086307
11.6848113713
9.50720888897
7.85007989359
5.75547445703
5.89010674813
8.97118941726
14.5301659095
18.1560280436
16.7827546699
14.5655143447
12.6317359483
11.9834279434
12.4881145367
13.6938980383
13.1651072646
13.0815169197
12.6131290484
11.4654235658
9.66046844091
8.14252829868
4.22480891909
3.27743685071
2.89964030514
3.42222728225
3.74767320745
4.33838784569
4.81229288033
4.82725557478
5.02412993972
5.71476594757
6.66073583687
7.71334511242
8.77445028367
9.74549328685
10.6364503302
11.4000754377
12.3412724719
14.9122051672
16.9139378889
17.4089594583
16.958373962
15.9168511097
16.1796702647
17.3347932586
18.4378913961
19.4826335513
20.5422632421
21.4967372201
22.356957708
23.2119418858
24.0931663446
24.9474745042
25.8457096913
26.2941357549
26.3776307675
26.9135085032
26.9492423675
26.9661511091
27.6552041096
27.8391331592
27.7370664639
28.0525293806
28.8530313944
29.6486330499
30.1117675531
30.2850681169
30.2562725585
30.0673590779
29.7385253522
29.272850126
28.6916284905
27.9942983465
27.067976217
25.7864120516
24.3960122581
22.9784037094
21.0042201778
18.7238247314
16.3819517077
14.0442050186
11.779145874
9.70319976741
7.7253058131
6.38171401714
7.33453113224
11.4114628039
15.5803901257
17.6010528781
17.6265856544
16.0102373323
14.3503389773
13.7103618525
13.6763530087
13.0591055854
12.5166436161
12.5605373029
12.2843601187
11.3560004127
9.75974401268
7.3267769614
7.5269826852
3.33467295335
5.55263824824
3.78322020742
3.93521058666
4.65302046709
11.9239266197
10.3365109001
5.55255058025
5.67884152449
6.65391306532
7.73516322891
8.81715321065
9.76346725271
10.6642875262
12.3455073781
14.4222499519
16.1235252686
16.6533824441
15.8309817434
15.2746863321
15.7212925519
16.420121807
17.3229601964
18.4215560144
19.5644152542
20.6549070407
21.6357641945
22.4763596153
23.3487476341
24.1630243793
25.1358984633
25.8404558824
26.554308966
26.6268179105
26.5019738668
27.0251343051
27.1337209342
27.2668203456
27.6150673152
27.9345111237
28.3649851172
29.0222878349
29.6940976482
30.1527018996
30.36460412
30.3718784059
30.2105443931
29.902206976
29.4560795244
28.8788363972
28.153357817
27.2180489503
26.0315652647
24.6517836285
23.0349912087
21.0495861163
18.7866990012
16.4449830841
14.1421208672
11.9739286391
10.0568728768
8.57005640116
8.06643920924
8.86522601101
11.1162434905
16.0508881744
19.3464283371
19.4230462227
17.7151122639
15.3373503663
13.7432214867
12.9924167268
13.2205964269
14.706396042
14.6948315407
13.4153084403
13.3177574852
16.6445152803
13.0309632768
11.0356711537
5.76593717757
7.63828145986
4.60453187918
4.92450140461
6.69949660915
11.8205501765
8.37848952559
6.06211195821
6.2057067637
6.8730217324
7.87582384615
8.97020537501
10.4023139494
12.6346525592
13.6986411982
14.1836910757
14.3680009535
14.3889577537
14.6620790731
15.3200523484
15.8482612565
16.474770382
17.4160594556
18.520994659
19.6770439803
20.7955059842
21.7497812338
22.7047724841
23.4577642147
24.4398687902
25.1783739013
26.406613406
26.4926111473
26.2989518058
26.5926409715
26.6048936643
26.902844776
27.3281474405
27.759006718
28.1675741974
28.6331315985
29.2146731223
29.8034422396
30.2462673309
30.4833920278
30.5227761132
30.3893551027
30.104483142
29.6797001379
29.1150768519
28.3903587247
27.4667001465
26.3174073922
24.9319204844
23.2444768573
21.2091358894
18.9459079672
16.6443626731
14.4495878317
12.4964715022
10.9527093035
10.0516499515
10.0535271622
10.2854619555
11.5988631178
15.7233375449
19.4975639854
20.7721519537
19.5534168276
16.7565496719
14.2550199928
13.9453951428
16.2667815751
17.1776463609
16.1746841882
15.2932744186
17.9977025798
21.0384935534
16.3252190208
15.4375326674
10.0494757933
9.22853627813
5.74011296127
6.25708061433
12.1087414715
11.6004384803
6.88721698838
6.68215266527
6.84625153508
7.22767726684
8.11235762987
10.681206428
13.8251830334
14.3283732833
14.0853152742
13.3728056124
13.2410938778
13.7642205697
14.7713169057
15.2856347352
15.7534194559
16.5468281269
17.5567927032
18.6892346526
19.779973286
20.9066418664
22.0884688386
22.8084314624
23.9316357983
24.4944270715
25.9390560443
26.2133532822
27.0525041261
26.4950275314
26.0822568564
26.3670673157
26.9110313327
27.4583338348
27.952120021
28.4111829964
28.8968776131
29.439604071
29.9753015402
30.400370816
30.6517497922
30.7174945978
30.6112006993
30.3526695352
29.9545747265
29.4143245094
28.7111630849
27.8119428907
26.6812666048
25.2759020394
23.5429011556
21.4990735797
19.2907969452
17.1098265903
15.1206390284
13.4851596283
12.3639836178
11.9551037485
12.3296521714
11.5801050606
13.5838161006
17.7853982626
20.9214341092
22.1151605122
21.1183286933
17.6972926545
15.4523275069
17.2555503961
19.4851549552
18.9807760625
18.0167432499
18.1259485779
22.7573245619
24.3663200403
19.3338409421
19.1376459115
12.183371652
9.14797538939
6.97558159798
6.53824977277
12.0759571801
8.60388902856
7.1665411331
7.29607753907
7.44494585434
8.15485497653
8.69679645614
13.4918152936
14.2463008704
14.3532399301
13.1826663218
12.4276010515
12.8712890437
14.2226497131
14.7244563619
15.0103643913
15.7654155723
16.656443183
17.6694880958
18.7990614051
20.0569979703
21.2599953536
22.1149413918
23.5399406124
24.0224649571
25.568746498
25.7102909095
26.8011624073
26.5668926204
26.2812394069
25.9372533926
26.3327559452
27.0004053483
27.6278096064
28.1665186417
28.6623392441
29.1675123712
29.6945043352
30.2000827983
30.6115820021
30.8718907982
30.9593124352
30.8801330644
30.6527460092
30.2899103946
29.7869718296
29.1206157169
28.2536892732
27.1392064464
25.7263766667
23.9916766196
22.0019767025
19.9257444999
17.9524437916
16.2291774629
14.8710151982
14.019315248
13.7092115503
13.4582885797
13.4669015875
15.4089005512
20.5722339193
22.4829356206
22.5780291234
21.3884679287
19.0346507305
18.676448207
21.1886283917
21.6054527062
20.7872866909
20.2312306489
22.2669909418
25.0709405795
26.5691918321
21.9625751648
20.8230394825
11.9328695991
8.87295930928
8.14106461124
12.2800407394
12.2149544376
7.74541112521
7.8406153226
8.00356770997
8.10142087137
8.69141820746
13.2222248447
14.1864078164
14.339796993
13.9494937181
12.1098233686
12.0553921741
13.6213205945
14.3424076545
14.383982371
14.8884221858
15.8003445831
16.8195257884
17.8650479314
19.0455652896
20.1536754751
21.5842270767
22.1974899138
23.5596692655
25.1384491596
25.7111268236
25.4378449711
26.3244755645
26.6184675561
25.8182340359
25.9385851178
26.4819789057
27.1559568158
27.8120179169
28.3931552971
28.9257939791
29.4528475007
29.980194922
30.4729649902
30.8770439616
31.1444745737
31.2515308901
31.2014642643
31.0118128331
30.694441438
30.2419853287
29.6267299088
28.8044995833
27.7215865368
26.3365578488
24.6635436097
22.8092837268
20.9439991111
19.207864257
17.666896568
16.4081757845
15.6060807189
15.2714761511
15.2298684374
15.5661043296
15.6156942205
21.0436627229
24.4985697592
24.2138775973
23.4317671501
22.3197686614
22.9650122126
24.2060580911
23.4690891473
22.7984309091
23.061369235
25.4877502321
26.2227478838
26.8514456927
23.9709658356
21.8293184957
11.2572684354
8.85837875376
8.81889770699
13.2771584506
11.2699901182
8.41868240468
8.57305080857
8.86838750775
9.99580298537
8.82847136651
13.9934934706
14.7254424632
14.3930426288
12.7996089674
11.7990983184
12.1922354522
13.6881457015
14.0803560633
14.2794230161
14.9066341346
15.8002089221
16.8893313125
18.0302367925
19.588601742
20.9064610326
21.5566923539
23.4598829053
23.4829990795
25.3069954184
25.2373278628
26.451106555
25.7432226584
25.6184311068
25.7485538495
26.114168353
26.685199438
27.3459890618
28.0131449384
28.6325952093
29.2061533171
29.7601624567
30.2978350755
30.7906595325
31.1947886048
31.4703456688
31.5976795407
31.5811490816
31.43748751
31.1766909598
30.788774486
30.2416433219
29.48547746
28.4674503804
27.1670689065
25.6365699015
24.001857225
22.3863421888
20.8068529886
19.248165185
17.9373266327
17.2468397604
17.2336473687
17.5180422824
17.7087331177
17.5688357491
18.6393776829
24.9446051029
26.3337922504
26.0179504944
26.3420189424
27.105047653
26.5317829954
25.4059794634
25.2135384127
26.306920728
27.6257325718
27.5622569054
27.0071821714
26.0169406471
24.6584654295
10.7878350921
9.34538356213
9.97046523919
13.3677828082
9.44224923299
9.44327977438
9.3117337035
9.58791013562
12.5561676635
11.3414209371
14.8287284014
15.0131068166
14.4890299619
12.183746408
11.8556437454
13.4110661679
13.9087426095
13.8518716948
14.2455794499
15.0484956547
15.9249848351
16.9593394938
17.9612011302
19.7302711675
21.8590816509
21.5101420808
23.4077673649
24.7632951477
25.5341550254
26.2626269147
25.8129356105
25.9524353731
25.3631509803
25.675676244
26.2831802656
26.910615192
27.5639586936
28.2340151341
28.8849093776
29.502925194
30.0929483599
30.6505428884
31.1524301914
31.5636111855
31.8515458144
32.0023167491
32.0249520315
31.9368192956
31.7451255568
31.4375666198
30.9802345126
30.3223481817
29.420126341
28.2804925851
26.9840392267
25.6331954028
24.2196985006
22.5835073764
20.8429717489
19.6270985539
19.3989584569
19.9207436706
20.4128882143
20.4877984634
20.1132625755
18.7478213959
18.2584265617
28.2758436832
30.7699929971
31.3219556307
30.7164491561
28.8797310725
27.7225267195
28.0128702333
29.3404071899
29.8587590341
29.758419745
29.5628202273
29.9620433692
30.1787862855
10.8355530898
10.2238323784
13.3233980351
13.5844808105
9.62392046611
10.2211607426
10.0493314117
10.5023367793
12.1360970471
14.7671765339
15.6857335519
15.311277593
14.7639317864
12.2523259088
12.0244341262
13.9068554541
14.0246628197
13.8394108919
14.2684669427
15.1729403732
16.2636168212
17.3113672949
18.130497356
19.3657376819
22.0195651846
23.2781875151
23.083608814
24.8696461718
24.5391223799
26.2777817726
26.7405026106
25.9227966352
25.3485837443
25.7874941226
26.480489955
27.1462059311
27.8060408376
28.4802326773
29.1531284579
29.8146290111
30.4508208457
31.0395875213
31.5591214778
31.9839069318
32.289854325
32.4704478734
32.5400409399
32.5169559228
32.4068537012
32.1973294852
31.8566852515
31.3401527144
30.6217444032
29.7363186747
28.7628990405
27.6946914659
26.2988918397
24.4206389001
22.7099773977
22.0081181269
22.5845542442
23.7262767056
24.3722734127
24.3241814604
23.5694015287
21.884118207
19.4218307899
19.6121116281
32.3748602415
37.1072153639
35.1774397139
31.9651355465
30.6262329966
31.126430138
32.2060988194
32.8774907063
33.4595611943
34.140048479
34.8255434411
35.5389406166
11.2488249952
11.1242498015
14.9832745632
14.348830826
12.5262566165
11.4651140479
11.0174290704
11.9501239303
11.6800428916
15.7394191815
16.3699402266
15.6885973766
14.9034309223
12.9158892454
12.7846912911
14.3591120529
14.0678804097
13.9342193127
14.3819068735
15.2095486429
16.3951372083
17.7610232826
19.4699415022
19.4823521042
21.5295561228
23.6344667029
23.0005131218
25.1030318042
26.0532955111
25.5585040022
25.9294248319
25.3956956983
25.6289389059
26.105161201
26.7340676321
27.4042710076
28.0764150562
28.759859493
29.444855868
30.1382068172
30.8281632884
31.466174729
32.0135794687
32.4569936829
32.7877500829
33.0072817772
33.1333790282
33.1846740276
33.1674233564
33.0732868283
32.8787727919
32.5564596911
32.1082035078
31.5802601198
30.9740455663
30.0382703308
28.4780798403
26.6707499446
25.4678089434
25.6187877329
27.272657202
29.3158983635
30.2264177993
30.2174286038
29.3795727056
27.4277146105
24.2721756458
19.8543102836
27.8623507243
38.2070907988
40.3126001623
36.1046889446
34.4823583708
34.9351590361
35.9874612277
36.9211808827
38.3614874284
39.396207946
39.4491772844
39.7258364847
11.8901910667
11.7985004173
14.7664136475
14.8789449116
14.910029505
12.6413600929
12.1155954623
14.7573010641
12.1066104806
16.6049430024
16.8934106516
16.0746961236
15.0386297431
13.5633593326
15.279080259
15.4031912895
14.2858304393
14.1664391157
14.6299187861
15.3428664576
16.3471110622
17.7516102851
20.6895014165
21.6592815244
21.0483700184
23.6801341019
24.7055946468
24.6936697881
26.0103585714
26.5336097505
26.2399361854
25.4390030186
25.8303791262
26.4293079026
27.0427439316
27.6960986461
28.3663357028
29.0708277018
29.7839608505
30.4942354527
31.2208181175
31.9176649364
32.5139188377
32.9869172832
33.3490949021
33.6177951327
33.8116081345
33.9457354187
34.0286625099
34.0621745134
34.0420668529
33.9754572769
33.8971184955
33.8139791812
33.5004006656
32.402099581
31.124460745
30.8181237915
30.2794038031
31.2185676613
33.4655319559
34.0563254668
33.0713530002
31.8206073061
29.3465901608
26.1522947244
22.8494854265
16.2239612847
15.6967530312
31.0345381846
38.5074864779
37.087403941
32.5234466535
34.7043373707
37.9259569328
41.1708805552
43.8545816836
44.9036208756
44.9786091851
45.2243741013
12.587776344
12.5246764347
12.1746001377
15.2326692289
15.4764177156
13.453096811
13.1008582658
15.7746926945
12.8055477294
17.5049711489
17.3694160405
16.4750401155
15.2775500354
13.9054326234
16.427757772
16.0160689427
14.7566834954
14.5782651009
14.9837672518
15.6459845478
16.4225122868
17.6312235871
21.1724293447
22.725100355
21.390278846
23.6851624485
25.2062779695
24.2543196267
25.63059419
26.130656883
25.4207299524
25.7781547061
26.2649304996
26.8051240396
27.3842833448
28.038618993
28.7087184508
29.3968379531
30.1409903946
30.8994422557
31.6564913076
32.3963403458
33.0486147046
33.5695376033
33.9774629175
34.3081496432
34.5807543599
34.8016896272
34.9850572052
35.1500908376
35.3231669223
35.577405654
35.9730751513
36.3752147117
36.0495822954
34.5737127877
34.975680355
30.6113349982
26.3099308794
21.972060486
7.20394539548
0.00156738100099
5.42865819389e-06
5.53873987105e-07
4.3953180614e-08
1.23807241909e-08
1.45730439219e-07
1.48900523364e-06
1.68198864712e-05
4.39319907134e-05
0.0729524947348
18.2455705825
46.0490356997
46.8865608542
42.0366654004
42.5816881346
47.0614030922
50.0889814535
51.7678986476
52.1935000561
13.4647057701
13.5600966621
15.8830676186
15.9064516289
15.9607671148
14.1472007527
14.1597650375
16.6587614475
13.8462848436
18.2930158297
17.828835095
16.9009441746
15.5990079812
14.3183155962
16.7312564426
16.2590912497
15.2229247128
15.0515890591
15.3798568586
15.9677959187
16.6715760278
17.6339233924
20.6183704496
23.5291778157
23.7258102742
23.100002255
25.4060507881
26.2936253346
24.6298829805
24.7763621261
25.3627070671
26.0108152722
26.6192734873
27.1909037542
27.7820040423
28.4099034987
29.0841888174
29.7914181566
30.5265984891
31.3243330487
32.1381816372
32.921906833
33.6210826255
34.1964184838
34.6698527926
35.0808540335
35.4440058225
35.7570222783
36.0283046367
36.299318659
36.6729797956
37.3084586442
38.2595994989
39.076585655
38.3617882545
34.4125359106
23.0146644046
1.84092213771e-09
2.02482344761e-12
3.79582011904e-14
6.43417522398e-16
1.86156653209e-18
5.29016572724e-21
9.15717674488e-26
7.16277081856e-26
1.73895604393e-25
1.17219386093e-24
5.49049060019e-24
2.02818996839e-23
1.28888302933e-22
1.00916664019e-22
8.75506927735e-21
4.98309730071e-18
5.00907609147e-16
3.80104259223e-14
8.75288260466e-12
1.47338557521e-07
50.732870495
57.2225688045
57.3713607451
14.2921835598
14.4848191787
17.5136959435
16.6161036756
16.1305455602
14.8428743752
15.1826852745
17.4174120679
17.3921241053
19.275489168
18.3556282553
17.4228040329
16.0091103425
14.8735105936
17.0539290949
16.4360135619
15.6654661861
15.5315585438
15.7850365453
16.2883739132
16.9541606987
17.8603739671
20.1297498045
23.7815134293
25.070910144
22.8806388324
24.9135653049
26.3747628036
26.2888402084
25.1812616511
25.4373224753
26.2249090469
26.9730412713
27.6186733667
28.1766602853
28.8117697637
29.4837819012
30.2123507446
30.9707748365
31.7858335903
32.653140784
33.4986191592
34.240496924
34.8571696561
35.4075232261
35.9482891721
36.4431106275
36.8286383563
37.1068890908
37.4449292166
38.0440915374
39.0681672176
40.5932612888
41.8544395715
31.965437141
2.96255404647
1.01801277034e-15
4.12246044259e-18
1.19214882637e-19
1.73555016071e-21
1.41009782992e-24
2.35288336107e-27
1.65855827938e-28
0
0
0
0
0
0
0
0
2.30677172422e-32
7.78026346919e-30
1.16376157976e-27
6.75177200146e-25
9.4305684872e-22
5.10689386287e-17
7.75543483344e-13
6.04643405633e-06
61.8801755062
14.9694360074
15.1838672215
19.6416798092
17.1729833409
16.0602252139
15.4575692094
15.9221675231
17.5214692504
18.9814041558
20.4008976592
19.0392310727
18.0808147939
16.669786265
15.7161354737
17.5823904015
16.7627938398
16.1828034305
16.0581615969
16.2293537186
16.6462279347
17.2390889763
18.0774622928
19.9302382074
23.6515491957
26.0518974963
25.3576608006
24.4132163769
25.7412007438
26.0759439547
25.2328045587
25.870666244
26.6799690053
27.4737141371
28.0975440448
28.6759111188
29.2524381519
29.9367094171
30.6646434642
31.453948527
32.2984423613
33.1991935574
34.1097018375
34.9340819945
35.5940769526
36.2149579976
36.9014420194
37.5468287757
37.9739028407
38.2139170295
38.5899858774
39.3802628197
40.6469672268
42.4385678866
32.694182011
6.74139345066e-12
1.47384912658e-18
4.83358340892e-22
1.95450150144e-23
2.66490396023e-25
7.30789090297e-28
0
0
0
0
0
0
0
0
0
0
0
0
0
2.97227510317e-31
2.95360171497e-30
6.47493491265e-29
3.13960640356e-27
1.74349547827e-23
1.45122218571e-14
2.79746500931e-19
15.4966571979
15.7016321139
21.6796203202
17.6028405462
16.2280350296
16.0247807514
16.7291273873
16.9551493799
19.9281397385
21.2083369658
19.6996463495
18.752705534
17.5245882762
17.5670138472
18.3207353678
17.3297121281
16.893542071
16.7773786047
16.7817947247
17.0905797376
17.5769964807
18.3351684736
19.9149216425
23.5002856676
26.4570300464
26.9841347814
24.2951355784
24.7416893746
24.9328872174
25.3403178324
26.1730969513
27.1562419129
27.9588002617
28.6219355265
29.2223091251
29.86167287
30.4560232303
31.1819679359
31.9810848579
32.8391733853
33.8106551952
34.7998310067
35.6883959795
36.3412218588
36.9797247172
38.2060975767
39.7660756899
40.3462096165
39.7384362225
39.9282220385
40.8146050364
42.1092884088
31.6232892131
7.79934597483e-13
1.17546360583e-17
5.27331455184e-29
5.32874968164e-26
8.69505096929e-28
0
0
0
0
0
0
0
0
0
0
0
0
0
0
0
0
0
0
4.59207184914e-30
3.10967520916e-29
5.73449890591e-27
96.9681478516
15.9506786788
16.1216728599
21.5376236662
17.0971757914
16.4640203155
16.5149119682
17.642372689
17.0001915958
20.7331056359
21.9568325181
20.3245362603
19.3741038185
18.1919538414
19.7457092309
19.339273589
18.0982343899
17.7106861135
17.8422706816
17.5553768754
17.7035367153
18.0141167124
18.6383254954
20.0394965555
23.3379796695
26.3223466818
28.0711825989
26.8702872167
26.0134870293
25.8017379914
25.5748359955
26.4559240303
27.7562786655
28.4115259516
29.1552582982
29.9875716804
30.4718772716
31.0669221007
31.8001045015
32.6197111535
33.4893973476
34.4330723725
35.4849183252
36.5114560693
37.5126105415
38.6416699323
40.199435746
41.4992160067
41.6248439961
41.572840037
42.1332939954
43.3496109552
35.2320384203
3.54683822536e-12
3.23755502044e-17
4.25519131262e-21
5.77936540311e-23
0
0
0
0
0
0
0
0
0
0
0
0
0
0
0
0
0
0
0
0
0
0
1.4129731052e-29
1.02843759242e-18
16.4655201305
16.6126588303
21.1995517566
16.8140339261
16.777034383
16.9150281391
18.4295320226
17.4892735718
21.4408610016
22.6915176707
20.9433171247
19.9929147696
18.7499840585
20.5179302268
20.2823772376
18.9333674397
18.5152745614
18.7473156867
18.4783670863
18.5352315454
18.648445834
18.9969557878
20.3243279884
23.309433301
26.0383886533
28.3814326438
28.0555199949
26.5815337906
25.3429359789
26.0616077529
26.9444202069
28.2099268543
29.2203854112
30.0938591822
30.8191754295
31.192526413
31.7624860716
32.508336654
33.3468895408
34.2540602165
35.2146244457
36.3496947147
37.6809441484
39.2342577247
40.3508795659
40.9640529007
41.8281017074
42.4698648376
43.7158437835
45.3913443904
40.998563915
3.23185936366e-11
4.29129224397e-17
7.40011346101e-21
1.51780137951e-23
3.67488910508e-25
1.23353553246e-27
0
0
0
0
0
0
0
0
0
0
0
0
0
0
0
0
0
0
0
0
0
2.37454882563e-30
3.14174498267e-30
17.2191181487
17.3659655037
20.9084894229
17.124085744
17.3457615763
17.4111083649
18.4745214904
18.2232671307
21.9615889259
23.3915895039
21.5939727527
20.6579709985
19.4209880795
21.2177729157
21.1291522034
19.8499925413
19.373395794
19.6270950656
19.3803211485
19.510758001
19.5495439397
19.5136596087
20.8024719713
23.478650064
25.9020032526
28.4581140304
28.6093375308
27.3562530337
25.8633463564
26.2897235978
27.5316310777
28.3941075507
29.289629748
30.3598464404
31.7341851186
32.2247480382
32.710725674
33.3266188293
34.1296427872
35.1121567847
36.1846569747
37.4545173411
39.4026088415
41.1465209997
41.5951737447
42.0840221954
43.4559356001
46.4033308539
49.6508376889
44.7036174113
9.23352285441e-12
1.53385026491e-18
6.34743108151e-23
2.08111433697e-26
1.30578763923e-28
2.64672572334e-28
4.06438308054e-29
0
0
0
0
0
0
0
0
0
0
0
0
0
0
0
0
0
0
0
0
0
1.75509872567e-31
7.96938759764e-31
18.3514006784
18.4604265859
21.2328811781
18.0743562888
18.5054331405
18.2755043994
18.8177611453
19.5315984237
22.0494649282
23.9264903768
22.3052654098
21.3912993857
20.1958766431
22.0130391955
22.0022417119
20.9232466505
20.4089777285
20.6477988664
20.2906660017
20.5813679834
20.7550344469
20.2510808045
21.3592071211
23.8489266743
25.9635577769
28.3219415442
28.859747722
28.0352175567
27.8081772062
27.1472929675
27.9254201325
29.15827912
30.6107776309
30.9595394729
32.0230975623
33.2492069093
33.7764520498
34.4526655324
35.1589298075
36.0586767254
37.2696527576
39.2585200851
41.8330495753
42.8542100574
42.9211860517
44.2676413526
48.6895393808
56.0330939608
50.7506365618
6.22496264044
2.32386594835e-20
2.16964572763e-25
1.48454312961e-27
0
0
0
0
0
0
0
0
0
0
0
0
0
0
0
0
0
0
0
0
0
0
0
0
0
0
0
19.9279860073
19.8138110631
22.0788359604
19.9517414201
20.4461516779
19.5455832598
19.7756425239
21.4153565404
22.302921636
24.5645668279
23.1288003383
22.2028056949
21.0498076851
22.845595256
22.8711781017
22.103058582
21.9084670367
21.9751974934
21.2946638715
21.7442252944
22.2527091597
21.2932994315
21.8077346165
24.3111367472
26.2308732322
28.2101599852
29.0336808838
28.2198081935
28.995200408
28.7234638446
28.9729232208
28.9334606571
30.3991737604
32.1556986294
32.983229175
34.0039878833
34.8416801197
35.5522882303
36.3931909215
37.3154392705
38.9402421632
41.977106426
44.2210998133
44.7480240732
45.5166224284
49.1102121042
56.8752630194
54.0107783697
27.2859631204
2.07385823244e-22
3.62554191205e-25
1.66008941468e-27
0
0
0
0
0
0
0
0
0
0
0
0
0
0
0
0
0
0
0
0
0
0
0
0
0
0
0
0
21.5930653647
21.086835472
22.988190953
22.4266302361
22.157105547
21.0101653937
20.8275805198
22.5585985876
21.6244390688
25.0689676515
24.0466999119
23.0844033161
21.9726355059
23.6887243074
23.6792562467
23.0930878659
23.9564179303
23.5682657681
22.4184401222
23.0194422977
23.5967586826
22.6216367581
22.0137264735
24.3291134047
26.4248020458
28.1365340472
29.1065312644
28.3171000091
29.4044528837
30.0120520812
30.3534482718
29.7227309326
30.6293577656
32.1249523525
33.9059649787
35.2243997922
36.133804943
36.8169561787
37.6397194632
38.9586505978
41.7808847
45.054003606
46.8189620283
47.8027650431
50.2090239494
55.4289163133
51.6758124068
29.4126018108
5.58404293736e-22
8.08408027838e-25
2.83120086899e-27
0
0
0
0
0
0
0
0
0
0
0
0
0
0
0
0
0
0
0
0
0
0
0
0
0
0
0
0
0
22.4299870161
21.9785137156
23.5733525655
23.4884163296
23.2335850984
22.3900705662
22.0250141534
23.9357413201
22.6823161667
25.7060754726
24.9752550856
24.0070996484
22.9593149196
24.5582416165
24.4931868337
23.9223424311
24.9431344268
24.693976169
23.5050662381
24.2668374212
24.3625155601
23.4638402572
23.0285479586
23.263650513
25.9328916985
27.6487908555
28.9004495874
28.291584778
29.4869381478
30.5756849873
31.4937868416
31.5142145016
31.0381308681
32.2075307295
34.1588756719
36.1082616588
37.539352011
38.4780532134
39.2974492126
41.6650758348
45.3152008887
48.2447099069
49.814530682
51.7042148921
55.6529594785
51.5851589986
24.4941499391
2.94996867701e-21
2.65733264869e-24
7.5682209561e-27
0
0
0
0
0
0
0
0
0
0
0
0
0
0
0
0
0
0
0
0
0
0
0
0
0
0
0
0
0
0
22.5424378431
22.5331946268
23.9293823463
23.7267945166
23.9170168371
23.4590427805
23.0664648887
25.2901647805
24.3586277366
26.5158349865
25.9590462743
24.9570230352
24.0052003352
25.4694511018
25.3719615006
24.8742584624
25.7682887919
25.6748686866
24.633239267
25.3055556111
24.2768589048
24.2399422287
24.0753481557
24.33760541
25.156068305
26.2105385656
28.0640592274
28.067595301
29.0858799312
30.6195808022
31.9666920693
32.8762364563
32.5670698075
33.0146100883
34.3934223752
36.3244878581
38.4605173117
40.2080094858
41.7514825306
45.1622928942
48.8499698376
51.2794889898
52.526380166
54.3292264909
49.7458734849
31.5476487643
30.6300384696
9.23039300326e-24
2.06769437914e-26
0
0
0
0
0
0
0
0
0
0
0
0
0
0
0
0
0
0
0
0
0
0
0
0
0
0
0
0
0
0
0
22.8002848111
22.9220143685
24.2306561668
22.9113148648
24.2162708739
24.0532536663
23.7671648496
25.9235784904
25.2259694989
27.3332868457
26.9716408399
25.9030605667
25.1158601105
26.4095428002
26.2900031808
25.95673386
26.6890532497
26.7654677822
25.8866014094
26.7211077501
25.6320596452
25.853919301
25.3448766383
25.6505443067
26.92643834
27.5613815355
27.6988635245
27.7718558094
28.6371115563
30.5485323935
31.9577698263
33.1353762631
33.8674769928
34.1194301798
35.6849443118
37.0650719852
39.2112333549
41.8093851681
44.7890846243
48.8689129578
52.1680733013
53.8100257274
53.2406210634
49.7044698941
45.2900036301
28.7678659314
7.74546472031e-23
1.76329294429e-25
0
0
0
0
0
0
0
0
0
0
0
0
0
0
0
0
0
0
0
0
0
0
0
0
0
0
0
0
0
0
0
0
23.4948722207
23.5807102453
24.5509632385
23.3192862216
24.4771214544
24.385579433
24.2567409189
26.1518818465
25.8267095126
27.9406109981
27.9520086494
26.7852126511
26.2761790108
27.331068273
27.1646226491
27.0025786493
27.577541553
27.9369392868
27.1863395108
28.1572383016
27.404804443
27.8855130673
27.7114022761
26.6886803037
27.732588384
28.6732980188
28.854037388
27.5883036444
28.123956465
30.4280003247
32.0773314015
32.825127819
33.7133213816
34.4542464651
36.0740941409
37.7273339339
40.0709641063
43.4278163763
48.007602135
52.6505789795
55.2466636471
55.4167821043
52.7712271423
47.2988308382
29.7979229954
27.4166191953
1.22873184353e-24
4.98253494356e-27
0
0
0
0
0
0
0
0
0
0
0
0
0
0
0
0
0
0
0
0
0
0
0
0
0
0
0
0
0
0
0
0
24.3696887928
25.3555168802
25.0159523297
24.2583982653
25.0034226638
24.7676098738
24.7196037423
26.3411646959
26.3651092203
28.2057344104
28.8884163643
27.5631539907
27.2979961594
28.0857493641
27.9775533371
27.7969917881
27.9392888288
28.9965350757
28.5367180423
29.4120307185
29.3162224689
29.2417513351
29.1412358299
28.7976545201
28.1600360854
28.8834838161
29.782340836
27.1553402771
27.6077819753
29.7542093992
32.0952442479
33.313769638
34.3312719112
34.4497443203
35.9269312078
37.9539333544
40.5867822178
44.9246314902
51.2077600325
56.2611229471
57.7700126467
53.8306749192
51.5209866874
49.9953253491
33.8089755793
8.32845589596e-24
2.12562226615e-26
0
0
0
0
0
0
0
0
0
0
0
0
0
0
0
0
0
0
0
0
0
0
0
0
0
0
0
0
0
0
0
0
0
25.0201608358
26.04574769
25.6929662028
25.0962781042
25.6694853247
25.3066717676
25.2374056129
26.5964157895
26.8765731048
28.2063866719
29.708975367
28.290343568
27.9176920097
28.6975855861
28.8312743377
28.5028572849
28.2242056721
29.7536297335
29.8985452649
30.5035025188
30.6493021926
30.8564802007
29.8175626969
29.8390755827
29.4066775335
30.4560937758
31.0900001708
28.7554042154
27.1492655466
28.7408968437
31.3580283008
33.4138369924
34.5657533288
34.9496928868
35.5502057725
37.657501107
40.4967961873
46.0528722258
54.2401999706
59.8888764521