/*--------------------------------*- C++ -*----------------------------------*\
| =========                 |                                                 |
| \\      /  F ield         | OpenFOAM: The Open Source CFD Toolbox           |
|  \\    /   O peration     | Version:  v1806                                 |
|   \\  /    A nd           | Web:      www.OpenFOAM.com                      |
|    \\/     M anipulation  |                                                 |
\*---------------------------------------------------------------------------*/
FoamFile
{
    version     2.0;
    format      ascii;
    class       volScalarField;
    location    "826";
    object      p;
}
// * * * * * * * * * * * * * * * * * * * * * * * * * * * * * * * * * * * * * //

dimensions      [0 2 -2 0 0 0 0];


internalField   nonuniform List<scalar> 
6400
(
0.143735114562
0.143738458668
0.143748049688
0.143766917915
0.143795215541
0.143832976895
0.143880165871
0.143937884989
0.144007367234
0.144090613844
0.144194014039
0.144321004117
0.144469099601
0.14463821465
0.144830308067
0.145048084888
0.145293492485
0.145566695158
0.145865522905
0.146184537373
0.146518417175
0.146869059041
0.147244353906
0.147652399578
0.148098114541
0.148581400526
0.149098844036
0.149647769248
0.150227620269
0.150838876164
0.151481788863
0.152154257318
0.152850267828
0.153563660046
0.154291439652
0.155031035747
0.155782888449
0.156552222771
0.157337425456
0.158129951705
0.158930254111
0.159749211331
0.160592042893
0.161450626509
0.162313592424
0.163172597313
0.164021203409
0.164854222446
0.165666865815
0.166454851686
0.16721443934
0.167939769386
0.168621489219
0.169248706746
0.16981850758
0.170333705678
0.170789699945
0.171177455733
0.171494786505
0.171748382083
0.171944873358
0.172088702948
0.172185325681
0.172251283859
0.172307175217
0.172366967739
0.172427520594
0.17247499276
0.17250345397
0.172516312963
0.172517986824
0.172511420512
0.172498344211
0.172481368536
0.172461632503
0.172441220584
0.172421782498
0.172407882299
0.172398331605
0.172394180321
0.143730300296
0.143733872293
0.143742644823
0.143761065213
0.14379084315
0.143830042107
0.14387769783
0.143933662859
0.144001096164
0.144084076623
0.144187118731
0.144313117346
0.144461502427
0.144631535854
0.144823763087
0.145040175972
0.145284784992
0.145558612254
0.145858662622
0.14617810676
0.146510091348
0.146858728767
0.147233507227
0.147641663702
0.148087884323
0.148571913351
0.149089737049
0.149639296201
0.150220095449
0.150832108278
0.151475212203
0.152148174416
0.152845150309
0.153558721551
0.154286643658
0.155026572886
0.155778510323
0.156548465804
0.157334938987
0.158128593145
0.158928891443
0.159748745294
0.160594607223
0.161455541118
0.162319849511
0.163180328203
0.164030529675
0.164865441486
0.165679922935
0.166468648705
0.167227835262
0.167954311196
0.1686400098
0.169269316928
0.169840733199
0.170358244364
0.17081301406
0.171198235213
0.171514912645
0.171767423318
0.171961286052
0.172103972225
0.172200810498
0.172267961357
0.172325381238
0.172385753086
0.172446092392
0.172490952223
0.172516324627
0.172526658888
0.17252615952
0.172517572587
0.172502238492
0.172482519323
0.17246090529
0.17243924968
0.172419839345
0.172405203131
0.172395294069
0.172391848513
0.143716660192
0.143722510766
0.143730575311
0.143747573269
0.143776366723
0.14381972208
0.143870934162
0.143925321217
0.143989698298
0.144070959059
0.14417314771
0.144298611134
0.14444730426
0.14461816128
0.144810426034
0.145023521451
0.145265718233
0.145543829796
0.145846708931
0.146164694533
0.14649265548
0.146836491836
0.14721047517
0.147620883806
0.148068118413
0.148552203769
0.149071260101
0.149622623299
0.150205032447
0.15081838525
0.15146240428
0.15213652207
0.15283551852
0.153549030212
0.154276062337
0.155017582446
0.15577015032
0.156539965914
0.157328023639
0.158125115494
0.158931336804
0.159755864959
0.160602600493
0.16146418903
0.162330427771
0.163193454715
0.164046899042
0.164885297138
0.165703419704
0.166496319573
0.167259702225
0.167988364435
0.168673564663
0.169306242139
0.16988414816
0.170403509363
0.170856595374
0.171240039518
0.171554988482
0.171805339352
0.171997096453
0.172136829544
0.17223315036
0.172304152597
0.172367624265
0.17242977106
0.172484633622
0.172522878322
0.172543022686
0.172548661358
0.172543690203
0.172530217931
0.172510072939
0.172486082902
0.172460898719
0.172436689348
0.172415835664
0.172399890007
0.172389567001
0.172385632148
0.143696868932
0.143702932129
0.14371002312
0.143725770607
0.143751251121
0.143794570297
0.143858334589
0.143912998332
0.143972793657
0.14405106118
0.144151810768
0.144276977993
0.144426371244
0.144597338739
0.144789457407
0.145006340014
0.145252234489
0.145527503279
0.145822162969
0.146129551633
0.146453833743
0.146801223253
0.147177746124
0.147589010807
0.148037463801
0.148523064179
0.149044020906
0.149597620563
0.150182349477
0.150797613275
0.151443687619
0.152119473454
0.152820189188
0.153536499115
0.154261740219
0.155001250713
0.155757235607
0.156528429524
0.157316262118
0.158117934658
0.158932240858
0.159763450599
0.160613694969
0.161477812298
0.162347302965
0.163214394548
0.164072517057
0.164915941482
0.165739347716
0.166537699258
0.167306072668
0.168038574951
0.168727536331
0.169365690542
0.169948190448
0.170469087216
0.170921899882
0.171303974672
0.171616678289
0.171864111315
0.17205257952
0.172190406903
0.172290378352
0.17236954814
0.172437753128
0.172496169959
0.172544455772
0.172574815032
0.172586340358
0.172583756265
0.172571069977
0.172550068402
0.172522847429
0.172491829026
0.172459965362
0.172431694476
0.172408744382
0.172389441474
0.172375847964
0.172370193282
0.143665701542
0.143667334556
0.143676028882
0.143692312039
0.143720635763
0.143761792405
0.143820809099
0.143880138199
0.143943508846
0.144022325708
0.144121949223
0.144247045154
0.144397739071
0.144574051169
0.144773352408
0.144990748051
0.145229592436
0.145491962979
0.145776109705
0.146080788432
0.146406423895
0.146755458167
0.147133769183
0.147546837769
0.147996999347
0.148484530082
0.149007611427
0.149564027178
0.150151768958
0.150770097142
0.151418389485
0.15209759504
0.152802133187
0.153517022054
0.15424164149
0.154980622357
0.15573592065
0.156510092043
0.157302466936
0.158110470977
0.158933000359
0.159771836786
0.160627588539
0.161496202236
0.162370554864
0.163243231929
0.164107544684
0.164957554832
0.165787817134
0.166593127635
0.167368143199
0.168106715227
0.168801734325
0.169446220945
0.170033701614
0.170557107232
0.171010470996
0.171391682373
0.171702448584
0.171947469527
0.172134313238
0.172273735116
0.172380185286
0.17246606695
0.172533428648
0.172588112399
0.172629471779
0.172649617276
0.172648722538
0.172633309281
0.172608661918
0.172576844927
0.172539112285
0.172497224258
0.172456715339
0.172422215873
0.172392922875
0.172365838317
0.172348328456
0.172341833662
0.143609528001
0.14361008254
0.143623926106
0.143641111128
0.143672687211
0.143716426842
0.143772122304
0.143832390284
0.143900949778
0.143982289695
0.144080648897
0.144206401061
0.14436598728
0.144551107748
0.144749710013
0.144960873656
0.145189839498
0.145443171185
0.145722379015
0.146024897723
0.146348967545
0.146698480794
0.147078812378
0.147494293732
0.147946789484
0.148436182747
0.148962094949
0.149521586604
0.150113421628
0.150735636447
0.151388285596
0.152069735056
0.152774564652
0.153492975692
0.154215481253
0.154951694618
0.155709035789
0.156488081702
0.157286663042
0.158102241865
0.158933578858
0.15978103362
0.160644125924
0.161519268356
0.162400287191
0.16328019517
0.164152296086
0.165010508236
0.165849264224
0.166663202383
0.16744672853
0.16819357208
0.168896725162
0.169548828288
0.170142258197
0.170669425744
0.171124808938
0.171506801669
0.171817644204
0.172063015826
0.172251935252
0.172396563801
0.172510543082
0.172597718567
0.172662626251
0.172711882414
0.172744697735
0.172751722905
0.172733710962
0.172699826457
0.172658493828
0.172611619971
0.172558478002
0.17250208623
0.172449574765
0.172404386488
0.172363565644
0.172327531839
0.172305972798
0.172296793404
0.14352419808
0.143531057916
0.14355316011
0.143578180867
0.143606300371
0.143651003644
0.143708783905
0.143771850496
0.143844433287
0.143928997648
0.144031792413
0.144161803642
0.14432938766
0.144513843061
0.144707895018
0.14491112261
0.145133831652
0.145384576823
0.145661578329
0.145959269243
0.146280791974
0.146631134057
0.147013308148
0.147430813373
0.147886037725
0.148379427639
0.148906978258
0.149470091582
0.150066865055
0.150696082646
0.151352997071
0.152035107082
0.152740998307
0.153456238707
0.154178888213
0.154916652599
0.15567796291
0.156463012499
0.157268937989
0.158093068014
0.158933976296
0.159791141105
0.16066329662
0.161546973382
0.16243658004
0.163325504319
0.16420711743
0.165075270298
0.16592430983
0.166748758063
0.167542857781
0.168300189621
0.169013527404
0.169674931247
0.170276052707
0.170809224596
0.171269465372
0.171655745344
0.171970849446
0.172221100307
0.172416237456
0.172568074915
0.172685955199
0.172772353953
0.17283900647
0.172881720462
0.172897779529
0.172883689799
0.172842388639
0.172785024676
0.17272204793
0.172654885193
0.172581161372
0.172505960499
0.172435772424
0.172372977336
0.172316121946
0.172271593551
0.172246308166
0.17223455138
0.143422870214
0.143435793772
0.143460954993
0.143496159227
0.143527371058
0.14357439299
0.1436309864
0.143697521917
0.143775217353
0.143858300194
0.143970144028
0.144113446644
0.144279652249
0.144460767144
0.144648237381
0.14484454867
0.145066351373
0.145317489352
0.145589795269
0.145882707705
0.146202265255
0.146552953299
0.146936774704
0.147357334547
0.147816214769
0.148312971749
0.148844743131
0.149408596454
0.150012625403
0.150651259843
0.151310575917
0.151990831385
0.152695441728
0.153409568145
0.154132489065
0.154875544716
0.155643107696
0.156435102934
0.157249184176
0.158082770222
0.1589341729
0.159802249384
0.160685155569
0.161579350625
0.162479547961
0.163379415915
0.164272434472
0.165152455203
0.166013781473
0.166850851516
0.167657775678
0.168427937272
0.16915376547
0.169826824338
0.170438492211
0.170981458868
0.171451424372
0.171847655961
0.17217252485
0.172431825281
0.17263503858
0.172792292963
0.172911458755
0.172999344476
0.17306312308
0.173102526894
0.173095793814
0.173051058649
0.172978980015
0.172891783576
0.172801017426
0.172707315214
0.172608338961
0.172507820963
0.172410655537
0.172321884736
0.172247858755
0.172195737623
0.172168404503
0.172156655653
0.143310655921
0.143327109154
0.143352824683
0.143383990328
0.143422985794
0.143478995527
0.143536653086
0.143605540438
0.143692028154
0.143781279002
0.143891790868
0.144044419141
0.144213846127
0.144389668174
0.144571440538
0.14476768099
0.144989108412
0.145237414066
0.145505360084
0.145795617374
0.146113849906
0.146464107354
0.146848112161
0.147270838586
0.147737261938
0.148236399996
0.148772870913
0.149344559216
0.149950867298
0.15059161202
0.151256997558
0.151942944745
0.15263917219
0.153350239925
0.15407861245
0.154829013008
0.155604160739
0.15640413154
0.157227232896
0.158071190637
0.158934133319
0.159814430756
0.160709779632
0.161616478713
0.162529352173
0.163442250346
0.164348781428
0.165242847789
0.166118734937
0.166970809668
0.167793064335
0.168578690662
0.169319841947
0.170007894272
0.170634485835
0.17119306986
0.171679866324
0.172093205981
0.172432920345
0.172703691665
0.172916288273
0.173079602484
0.173200647995
0.17328454664
0.173335180204
0.173363483897
0.173347125452
0.173263086828
0.173150052762
0.173023903557
0.172896431296
0.172770433339
0.172642439176
0.172507272687
0.172368217613
0.172244086862
0.17215305321
0.172096814242
0.172069662563
0.172060223054
0.143185649034
0.143204277085
0.1432341886
0.143264543184
0.143306784862
0.143363551747
0.143424133635
0.143493767647
0.143581406643
0.143688361657
0.143804748351
0.143958219089
0.144129041164
0.144301708868
0.14447823025
0.144677530713
0.144902357858
0.145145969113
0.145408685803
0.145696708418
0.146014793743
0.146365827926
0.14675048488
0.147172443105
0.147645464353
0.148153363316
0.148687929517
0.149266555707
0.149878599637
0.150524123001
0.151193372667
0.151878427514
0.152574686777
0.153284627273
0.154018124148
0.154776803406
0.155560747498
0.156369814566
0.157202896872
0.158058176445
0.158933778903
0.159827707648
0.160737243071
0.161658464904
0.162586198721
0.163514406493
0.164436822874
0.165347426922
0.166240491358
0.167110305739
0.167950769769
0.168754984649
0.169515089218
0.170222771234
0.170870522723
0.171452776938
0.171965406763
0.172403294108
0.172761365685
0.17304621793
0.173275087566
0.173450361267
0.173572909597
0.173643383002
0.173667274338
0.173657049539
0.173619170207
0.173528731515
0.173362241912
0.173180564814
0.173006242163
0.172846653348
0.172689431477
0.172506680531
0.172299362523
0.17212506938
0.172018129181
0.171964518011
0.171940803981
0.171935623115
0.143042390218
0.143060143078
0.143092835243
0.143128642514
0.143179831613
0.143231812899
0.143293726968
0.143366477376
0.143447189765
0.143564219854
0.143695788655
0.143850642979
0.144022352232
0.144196334311
0.144372663553
0.144573221221
0.144799895093
0.145040821917
0.145299762349
0.14558473676
0.145902048223
0.146255383928
0.146645516068
0.147067952048
0.147537168272
0.148057781651
0.148601223548
0.14918041521
0.149794887615
0.150437019113
0.151113471219
0.151802477295
0.152498335894
0.153211539925
0.153951642436
0.154719008262
0.155512576438
0.156331846069
0.157175981807
0.1580435958
0.158933016239
0.159842051349
0.16076758859
0.161705426778
0.162650328887
0.163596348094
0.164537352855
0.165467389416
0.166380685352
0.16727143719
0.16813351139
0.168960128559
0.169743861351
0.170477370086
0.171154525893
0.171770398113
0.172318691429
0.172788580711
0.173169093184
0.173475217915
0.173740844342
0.17394055695
0.174063372266
0.174107138222
0.174082211377
0.174005912088
0.173902135482
0.173794929302
0.173613920886
0.173362638915
0.173126109423
0.172938700066
0.172766464213
0.172519456521
0.172187544779
0.171930973155
0.171815249055
0.171781828236
0.171770585672
0.171777459675
0.142876625929
0.142890875573
0.142917537614
0.142962801214
0.14302519603
0.143078464992
0.143142381289
0.143222402713
0.143302305697
0.143416744801
0.143560193384
0.1437194715
0.143891614854
0.14406868208
0.144252835773
0.144456821284
0.144682802681
0.144921307311
0.14517824436
0.145460466958
0.145774339896
0.146126150656
0.146526109685
0.146960606409
0.14742553567
0.147946812794
0.148499422037
0.14907793292
0.149701910367
0.150350134193
0.151020736768
0.151707743745
0.15240743727
0.153129729658
0.153878643793
0.154655350763
0.155459308066
0.156289863592
0.157146247354
0.158027326895
0.158931748446
0.159857392072
0.160800823509
0.161757469988
0.162721995697
0.163688586581
0.164651276652
0.165604142464
0.166541287658
0.167456780044
0.168344545879
0.16919825971
0.170011572502
0.170778837995
0.171495314058
0.172155047469
0.172748837955
0.173263760739
0.173674771359
0.174011651044
0.174368246941
0.174618453774
0.174742825148
0.174743068191
0.174642640112
0.17446810775
0.174250933222
0.174066132756
0.173859362409
0.173546809536
0.173240380158
0.173051526482
0.172927182417
0.17260141106
0.171987640072
0.171575256541
0.171494062466
0.17153820189
0.17155709773
0.171599736704
0.142687914813
0.142699233595
0.14271687782
0.142767373643
0.142831470703
0.142893502193
0.142962306786
0.143050548872
0.14313906168
0.143253367567
0.143402452835
0.143565173578
0.143737586798
0.143914045272
0.144108629104
0.144323567069
0.144549814556
0.144786617144
0.145042970859
0.145324180836
0.145634597816
0.145980391661
0.146381916444
0.146837651421
0.147310141261
0.147821622468
0.148385857303
0.148971557751
0.149589127891
0.150242069974
0.150916034644
0.151603135448
0.152307133093
0.153038487529
0.153797771852
0.154585134738
0.155400462132
0.15624333206
0.157113245362
0.158009194559
0.158929957781
0.159873685448
0.160836897237
0.161814648355
0.162801429514
0.16379163576
0.164779561563
0.165759266354
0.166724582426
0.167669364886
0.168587735109
0.169474316576
0.170324653998
0.171135244651
0.171901160678
0.172611927829
0.173264948079
0.173868535945
0.174324046453
0.174704096541
0.175349057368
0.175659254579
0.175739350085
0.175631615675
0.175381808868
0.175037306574
0.174629946457
0.174283656236
0.174010479741
0.1736600228
0.173232452277
0.173107726492
0.173270478728
0.172853962352
0.17165914503
0.170926588661
0.171003884477
0.171267287479
0.171300082239
0.17143644766
0.14247738236
0.142490415701
0.142513449957
0.142553069919
0.142611834296
0.142679846964
0.142754898662
0.142848040113
0.142950152404
0.143068340592
0.143222214322
0.143388271617
0.143562580735
0.143739338173
0.143937851735
0.144163236639
0.144394629958
0.144633962192
0.144891772483
0.145173781492
0.1454831398
0.14582379489
0.146221192906
0.146689818294
0.14717929789
0.147689604826
0.148257798878
0.148853204065
0.149468383156
0.150119408784
0.15079072305
0.151480226883
0.152195285107
0.152937764242
0.153708322222
0.154507482145
0.155335491642
0.156191899617
0.157076444397
0.157988669599
0.158927450626
0.159890956938
0.160875827007
0.161876972351
0.162888768871
0.163905926843
0.164923148701
0.16593441734
0.166933048185
0.167912535203
0.168867365154
0.169793842629
0.170690338816
0.171555206506
0.172378390727
0.173142121128
0.173904206289
0.17472194833
0.175075469083
0.17499326851
0.17518691856
0.175415433511
0.175492474566
0.175398885115
0.175179330914
0.174876125917
0.174528080351
0.174186375427
0.173870369262
0.173555739074
0.173354797123
0.173491490236
0.174221615345
0.174203685356
0.170664837745
0.168959944894
0.17003328509
0.171046093783
0.170977812762
0.171375100625
0.142240084787
0.142254913093
0.142288654192
0.142318477952
0.142370834355
0.142440880705
0.142521136608
0.142620681064
0.142739018396
0.142860835375
0.143018524691
0.143188436793
0.143366410885
0.143547029288
0.143748858121
0.143979896753
0.144217010703
0.14446160732
0.144723025346
0.145007165823
0.145317649452
0.14565716919
0.146046570796
0.146514409308
0.147029592988
0.147549762372
0.148107924122
0.148718719656
0.149344560408
0.149983098271
0.150650088639
0.151345953087
0.152071404763
0.152825964048
0.153609256864
0.154421596052
0.155263426324
0.15613482948
0.157035539363
0.157965356128
0.158923761431
0.159909006595
0.160917637016
0.161944490901
0.1629840621
0.164031687312
0.16508275576
0.166131139038
0.167169190238
0.168189630931
0.169187670297
0.170162461599
0.171115948851
0.172046055823
0.172927948301
0.173721244878
0.174401460922
0.174608704625
0.174832271558
0.175008774112
0.175125843951
0.175281465847
0.17533990358
0.17524808941
0.175030474837
0.174723072268
0.174360875882
0.17398265192
0.173618619502
0.173279399508
0.173004554002
0.172842855455
0.1726982989
0.171498271414
0.170026888432
0.170082913799
0.171510446886
0.172493600502
0.170038912033
0.17154861064
0.141971322549
0.141985843325
0.14201917852
0.142051609833
0.142102046746
0.142174327143
0.142257880084
0.142359121565
0.142493145298
0.142627654842
0.14278912491
0.142963946386
0.143147576473
0.143335145128
0.143542252279
0.14377696031
0.144018904076
0.144269688572
0.144536085799
0.144823509781
0.145136001751
0.145476912977
0.145861263402
0.146322704703
0.146855503207
0.147395875169
0.147948646524
0.148554281553
0.149191506217
0.149837063941
0.150501822573
0.151201249045
0.151935985052
0.152702953853
0.153499946971
0.154326577689
0.155183561426
0.156071248675
0.156989724812
0.157938853116
0.158918518838
0.159927471525
0.160962212279
0.162017248308
0.163087216542
0.164168756345
0.165258762753
0.166350823645
0.167435135154
0.168503296544
0.16955216177
0.170585059644
0.171608404516
0.172625316733
0.173563644129
0.173947556238
0.174204068647
0.174460828075
0.174678759464
0.174841334691
0.174933881609
0.175003933193
0.174992458077
0.174856849673
0.174605646893
0.174266095505
0.173867821703
0.173440895549
0.173009955345
0.172590480085
0.172178167338
0.171768038043
0.171305637692
0.170583116292
0.169962320015
0.169991936482
0.170666623248
0.170844009651
0.171864867832
0.173466325301
0.141672931125
0.141686851995
0.141722046735
0.141755819621
0.14180763498
0.141881344785
0.141967859063
0.142067578795
0.142206119349
0.142358783348
0.142529331818
0.142711012227
0.142902452205
0.143101327631
0.143315009503
0.14355368236
0.143800555028
0.144058265315
0.14433058685
0.144622397109
0.144937731039
0.14528048996
0.145662357606
0.14611553693
0.14665144656
0.147221599805
0.147786739563
0.148381255909
0.149015208448
0.14966520022
0.15033551874
0.151043275236
0.15178832689
0.152567869849
0.153379386097
0.15422173168
0.15509512745
0.156000504646
0.156938247711
0.157908499436
0.158911292355
0.159945871638
0.161009162315
0.16209523441
0.163198374884
0.164316992579
0.165450800478
0.166593363569
0.167731595799
0.168855305696
0.169962847318
0.171062794286
0.17217127066
0.173219500649
0.173460459002
0.173720076059
0.174007460283
0.174250248631
0.174434217403
0.174555753992
0.174608110284
0.174599080213
0.174505867832
0.174304203501
0.173995368086
0.173597445391
0.173133371063
0.172626371041
0.172096126598
0.171557543052
0.170988189918
0.170380097319
0.169747917295
0.169069152158
0.168480128588
0.168351693988
0.168897911063
0.169987348308
0.172065715159
0.17437956432
0.141347764853
0.141360115383
0.141391145865
0.141429712275
0.141487877546
0.141563526028
0.141654860543
0.141755146859
0.141894570584
0.142059103675
0.142238319564
0.142426687109
0.142624781152
0.142838734463
0.14306312995
0.143306431101
0.143559251529
0.143825655022
0.144105399749
0.144402876718
0.144722125756
0.145067215405
0.145448284402
0.145894809699
0.146427019746
0.147017680352
0.147607149039
0.148200829995
0.148826097491
0.149474965327
0.150152585448
0.150869724086
0.151626039198
0.152418579015
0.153245624626
0.154105420412
0.154997122382
0.155921634091
0.156880376933
0.157873501248
0.158901357722
0.159963903187
0.161058486168
0.162178604156
0.16331700112
0.164474622759
0.165658295081
0.16686132574
0.168061084042
0.169247932949
0.17042008403
0.171599333126
0.172708299172
0.172988458346
0.173249198122
0.173499935963
0.173748442871
0.173947911542
0.174079779625
0.174137725986
0.174115950606
0.174012495954
0.173817420034
0.173518735071
0.173116407101
0.172622067172
0.172052277753
0.171423903537
0.170750772934
0.170041735427
0.169282932993
0.168445548912
0.167545044987
0.166623684159
0.165805487301
0.165368239768
0.165569453784
0.166536972716
0.168789416282
0.170804221321
0.140999726666
0.141010773696
0.141036027677
0.141079967156
0.14114371905
0.141221194432
0.141316707859
0.141422141725
0.141560076061
0.141731814581
0.14191756062
0.142111495159
0.142313513468
0.142537991301
0.142779234714
0.143030484294
0.143290578692
0.143567097407
0.14385734009
0.144162857068
0.144487969211
0.144836149666
0.145217997365
0.145659950805
0.146183382298
0.146776392531
0.147391761153
0.148002063032
0.148627468661
0.149275988921
0.14995586086
0.15068070984
0.151448368008
0.152253339615
0.15309724801
0.153976239923
0.154887366379
0.155832981494
0.156814769381
0.157833215028
0.158888442057
0.159980827175
0.161108732066
0.162266607777
0.163447877565
0.164653649307
0.16588969497
0.167147638076
0.168413436881
0.16968249215
0.170929168369
0.172121020794
0.172440564024
0.172722985576
0.172982863024
0.173211317399
0.173402773232
0.173534092119
0.173587783536
0.173555661742
0.173432756519
0.17321568762
0.172899142518
0.172477472267
0.171950793299
0.171326114989
0.170613923248
0.169824510765
0.168964979022
0.168036129296
0.167032433914
0.165892105168
0.164604595564
0.163228675901
0.161834304933
0.160537215587
0.159417035229
0.158326436786
0.156771433846
0.153678083439
0.140630579945
0.14064152984
0.140665392997
0.140714233164
0.14077884564
0.140855760349
0.140950655964
0.141063004844
0.141199368545
0.141375944451
0.141567436859
0.14176692975
0.141973955033
0.14220344309
0.142459625183
0.142723018883
0.142992889043
0.143279521925
0.143581624237
0.143898482369
0.144232944282
0.144585918185
0.144969979954
0.145410301131
0.145925961917
0.146514608232
0.147144051243
0.14777436287
0.148404211383
0.149054879277
0.149743251425
0.150474569281
0.15125162314
0.152070771448
0.152932522523
0.153831700646
0.154764236654
0.155732908322
0.156739704599
0.157785629529
0.158870991451
0.159996440824
0.161162467614
0.162366581587
0.16359940692
0.164852137918
0.166130596277
0.167440916293
0.168788112091
0.170183070199
0.171479578794
0.171827697961
0.17212398668
0.17240693675
0.172643402711
0.17282318889
0.172939992409
0.17298033814
0.172931268396
0.17278522365
0.172537866472
0.172186102223
0.171726641064
0.171156495957
0.170475361245
0.169686296029
0.168793860292
0.16780140104
0.166708480484
0.165508202802
0.164190130102
0.162667908585
0.160866447129
0.158798003679
0.156437138711
0.153693934299
0.150371835576
0.146143787899
0.140884650937
0.139459449116
0.140237027005
0.14024856215
0.140273697977
0.140327683555
0.140392540538
0.140468048937
0.140559667436
0.140676781644
0.140809804117
0.140989518327
0.141186913558
0.141392261863
0.14160558522
0.141841433427
0.142107878952
0.142383883097
0.142665685912
0.142963333637
0.143276636413
0.143606144715
0.143953594744
0.14431425459
0.144701765099
0.145142944329
0.145653355012
0.146235509099
0.146869457243
0.147514828682
0.148160602881
0.148818115758
0.149514197273
0.15025444506
0.151039082786
0.151867624561
0.152744928869
0.153667454845
0.154625292972
0.15561984664
0.156653622474
0.15772900591
0.158847653693
0.160011028854
0.16122356862
0.162482034051
0.163763802115
0.165056111218
0.166374541428
0.167747937653
0.169219840774
0.170821432568
0.17118895498
0.17147753811
0.171771643637
0.172024025243
0.172207521052
0.172313489213
0.172335229431
0.172263610155
0.172090004974
0.171808691631
0.171416178639
0.170909895244
0.170287307733
0.169545906899
0.168683921376
0.167700346522
0.1665935592
0.165359008076
0.163986427565
0.162456356988
0.160735656226
0.158764739273
0.156369402169
0.153416801679
0.149772029974
0.14506026342
0.138472726871
0.128204702874
0.109075132631
0.062875535085
0.13981109694
0.139823158782
0.13985179129
0.139911638109
0.139977677296
0.140052479016
0.140143121694
0.140262098002
0.140391117794
0.140571377322
0.140774385538
0.140985647848
0.141205457917
0.141447964752
0.141722790172
0.14201092229
0.142307198591
0.14261729603
0.142941445857
0.143283350977
0.143646331846
0.144018612323
0.144410500513
0.144854111373
0.145362751505
0.14593823985
0.146569881484
0.147220048406
0.147885405695
0.148563792034
0.149267718323
0.150012609063
0.150807943516
0.151651359149
0.152539561414
0.153480479574
0.154465675857
0.155489495313
0.156554422503
0.157662299929
0.158816830349
0.160025648835
0.161296672564
0.162612716871
0.163939155005
0.165271639146
0.166642684708
0.168105204561
0.169560788572
0.170616858372
0.170888722284
0.171122171403
0.171366742248
0.171556351912
0.171658726519
0.171665419873
0.171570321745
0.171366973987
0.171049875933
0.1706151572
0.170060144947
0.169382506705
0.168579543708
0.167647861565
0.166583277479
0.165380329441
0.164030905223
0.162522015708
0.160832810334
0.158930652483
0.156765268307
0.154267647795
0.151224354349
0.147331371045
0.142318456492
0.135610463539
0.125992224883
0.111051049276
0.0858895549016
0.0440500672598
0.139341529728
0.139354046463
0.139386132651
0.139452323981
0.13951949353
0.139597373162
0.139689196562
0.139808456249
0.139937150732
0.140119126926
0.140327903912
0.140545045412
0.140771220404
0.141019951695
0.14130149674
0.141599478283
0.141912646378
0.142237693323
0.142573584669
0.142927690873
0.143306798923
0.143696020525
0.144094515652
0.144540009673
0.145050121766
0.145621567465
0.14624951616
0.146899512094
0.147573676531
0.148276985937
0.149003850562
0.149758013195
0.150552439809
0.151406172255
0.152314338583
0.153273906863
0.154284085742
0.155338585541
0.15643714033
0.157582008621
0.158779525666
0.160045967059
0.161382554276
0.162754796993
0.164134788979
0.165537038897
0.167018749279
0.168549998893
0.16979521342
0.170230624183
0.170480692238
0.170695904436
0.170876781158
0.170977623373
0.170975299407
0.170861361902
0.170630658419
0.170279032171
0.169803313522
0.169201138119
0.168470427169
0.167608695716
0.166612394861
0.165476377817
0.16419337253
0.162753118914
0.161140835317
0.15933484949
0.157303231125
0.154998993129
0.152352919988
0.149261937798
0.145576648373
0.140901184807
0.134721822366
0.126474909834
0.115061408259
0.0985951984485
0.073747525132
0.0394690889199
0.138819367229
0.138834350284
0.138868186675
0.138934873087
0.139007065413
0.139094190845
0.139192011958
0.139315352035
0.139451507802
0.139631128044
0.139845121744
0.140068280125
0.140300958971
0.140555777288
0.140842989511
0.141147012594
0.141473616753
0.141817666912
0.142168699415
0.142537098333
0.142931394673
0.143341822818
0.143755777699
0.144201076325
0.144712601087
0.145283173162
0.145908525336
0.146558656806
0.14723493536
0.147954041607
0.14870690486
0.149483598807
0.150286461157
0.151141795527
0.152060368067
0.153041475702
0.15407889986
0.155165924713
0.156299844958
0.157485610037
0.158738830922
0.16007492316
0.161478128954
0.162913675396
0.164376220429
0.165901368998
0.167454975841
0.168739167064
0.169344587048
0.169684712686
0.169968956287
0.170165529787
0.170267601526
0.170263410415
0.170139345328
0.169888378842
0.169507511381
0.168995070498
0.168349850596
0.167570636877
0.166655631272
0.165601809115
0.164404269655
0.163055578873
0.16154499704
0.159857367857
0.15797141286
0.155857205034
0.153472550293
0.150757800056
0.147628247953
0.143962593032
0.139586965761
0.134220663709
0.127277677277
0.118022106691
0.105613409992
0.0887003056978
0.0648404499017
0.0346452735675
0.138250414461
0.138269484506
0.138303892828
0.138364424967
0.138444946734
0.138542099072
0.138649213803
0.138781371179
0.138931808332
0.139108672153
0.139324896295
0.139553418599
0.139792881341
0.140054244416
0.140347709794
0.140658484407
0.140992943871
0.141354225845
0.141723974972
0.142110616647
0.142520643512
0.142952097736
0.14339283522
0.14384975589
0.144356504388
0.144925168714
0.145548138869
0.146199364144
0.146876093787
0.147601960888
0.148372205952
0.149177866231
0.150002683136
0.150863731789
0.151786975419
0.152781051974