/*--------------------------------*- C++ -*----------------------------------*\
| =========                 |                                                 |
| \\      /  F ield         | OpenFOAM: The Open Source CFD Toolbox           |
|  \\    /   O peration     | Version:  v1806                                 |
|   \\  /    A nd           | Web:      www.OpenFOAM.com                      |
|    \\/     M anipulation  |                                                 |
\*---------------------------------------------------------------------------*/
FoamFile
{
    version     2.0;
    format      ascii;
    class       surfaceScalarField;
    location    "826";
    object      phia;
}
// * * * * * * * * * * * * * * * * * * * * * * * * * * * * * * * * * * * * * //

dimensions      [0 3 -1 0 0 0 0];
oriented        oriented;


internalField   nonuniform List<scalar> 
12640
(
4.82070607249e-08
-4.78579568036e-08
9.10828598772e-08
-4.26678923863e-08
1.28244413445e-07
-3.70237155195e-08
1.60014093098e-07
-3.16820166448e-08
1.85220174292e-07
-2.51149412121e-08
2.0381335774e-07
-1.84852899359e-08
2.20222102527e-07
-1.63091510319e-08
2.431878453e-07
-2.28771008547e-08
2.72917042805e-07
-2.96578534739e-08
3.02900314159e-07
-2.99256936325e-08
3.32403367873e-07
-2.94611710688e-08
3.63798057031e-07
-3.13569079501e-08
3.95200169681e-07
-3.13687044213e-08
4.25830813202e-07
-3.05966451774e-08
4.57448375524e-07
-3.15850177061e-08
4.92942008307e-07
-3.5453644512e-08
5.30658084516e-07
-3.76787605564e-08
5.67673448215e-07
-3.69772434735e-08
6.03755082442e-07
-3.60543333475e-08
6.41615147072e-07
-3.78358318937e-08
6.85484017488e-07
-4.38483092612e-08
7.34793132325e-07
-4.92836658553e-08
7.85618934478e-07
-5.08005883025e-08
8.36094910151e-07
-5.0444543624e-08
8.85797117128e-07
-4.96709047761e-08
9.35114963823e-07
-4.9280049316e-08
9.8485098827e-07
-4.96978381376e-08
1.03469192387e-06
-4.97955826895e-08
1.084187112e-06
-4.94495631903e-08
1.13359942982e-06
-4.93598145271e-08
1.18375061006e-06
-5.00987401032e-08
1.23424246015e-06
-5.04320510981e-08
1.28466893321e-06
-5.03647377042e-08
1.33659856253e-06
-5.18614375555e-08
1.38987478745e-06
-5.32083884078e-08
1.44378089729e-06
-5.38308327268e-08
1.49827294948e-06
-5.44169651363e-08
1.55195036022e-06
-5.35973206117e-08
1.60379615716e-06
-5.17648362289e-08
1.65398238009e-06
-5.00972539579e-08
1.70352733579e-06
-4.94546595705e-08
1.75026650642e-06
-4.66434635717e-08
1.79129498557e-06
-4.09329641175e-08
1.82822537467e-06
-3.68294404561e-08
1.86268680768e-06
-3.43595066343e-08
1.89434819435e-06
-3.15528879765e-08
1.9227967848e-06
-2.83382988937e-08
1.94728037089e-06
-2.43664757578e-08
1.96770775454e-06
-2.03080356927e-08
1.98610782027e-06
-1.82735497598e-08
2.00499164059e-06
-1.87548667272e-08
2.02128100734e-06
-1.61519765225e-08
2.02791044307e-06
-6.48541838182e-09
2.02711007169e-06
9.57282537115e-10
2.01824120146e-06
9.03398789153e-09
1.99891542803e-06
1.95039839031e-08
1.98026479518e-06
1.88432743868e-08
1.96711295731e-06
1.33700205008e-08
1.94989890112e-06
1.7460974867e-08
1.9290865736e-06
2.10972504454e-08
1.9156314509e-06
1.37882600314e-08
1.89590681091e-06
2.0142291957e-08
1.83405242223e-06
6.2385855503e-08
1.70638224938e-06
1.28220350279e-07
1.56715665398e-06
1.39629364677e-07
1.46033642187e-06
1.07114980795e-07
1.36031506409e-06
1.00276204563e-07
1.25791096282e-06
1.02673225585e-07
1.14713892518e-06
1.1107525857e-07
1.0221839494e-06
1.2529176508e-07
8.90207990093e-07
1.32318308678e-07
7.61216815982e-07
1.29306704876e-07
6.39120311077e-07
1.2238638148e-07
5.11223048379e-07
1.28170810406e-07
4.02138961042e-07
1.09329427356e-07
3.08008755675e-07
9.43509896594e-08
2.41414284623e-07
6.68236629662e-08
1.67704676659e-07
7.39352614748e-08
1.01568183366e-07
6.6451319826e-08
1.01822723015e-07
2.57768233401e-08
-7.35889030985e-08
5.95189022613e-08
-7.62893822293e-08
9.24094198288e-08
-6.98404781253e-08
1.26076492762e-07
-6.5282637241e-08
1.66938176971e-07
-6.58888796472e-08
1.98836746364e-07
-5.02924546179e-08
2.21240916264e-07
-3.86107994722e-08
2.45740524815e-07
-4.73000061343e-08
2.73281051126e-07
-5.71300901857e-08
3.03196446702e-07
-5.97960435695e-08
3.33506461401e-07
-5.97273752944e-08
3.62312551024e-07
-6.01329888216e-08
3.9131636691e-07
-6.033306227e-08
4.21687199324e-07
-6.09319118083e-08
4.54050066612e-07
-6.38990644677e-08
4.90413548616e-07
-7.17801044866e-08
5.27073771047e-07
-7.42965188391e-08
5.59186018032e-07
-6.9066402145e-08
5.92320255304e-07
-6.91625900479e-08
6.32303542411e-07
-7.78054293045e-08
6.79570380973e-07
-9.10916124255e-08
7.31892946303e-07
-1.01589043455e-07
7.84084911018e-07
-1.02960912003e-07
8.33282103125e-07
-9.96169841117e-08
8.82108081918e-07
-9.84588677709e-08
9.32430793096e-07
-9.95710422262e-08
9.82432123169e-07
-9.96537905301e-08
1.03184023888e-06
-9.91642114828e-08
1.08138325482e-06
-9.89397811739e-08
1.13117771703e-06
-9.91069155375e-08
1.18096526516e-06
-9.98257252449e-08
1.23073659615e-06
-1.00146786734e-07
1.28048204092e-06
-1.0004188319e-07
1.33224406914e-06
-1.03559241325e-07
1.38694418083e-06
-1.07832003301e-07
1.44142193903e-06
-1.08237979995e-07
1.49562552822e-06
-1.08539037402e-07
1.55082745603e-06
-1.08721979226e-07
1.60610352726e-06
-1.06951836561e-07
1.65784514567e-06
-1.01751971331e-07
1.6990719302e-06
-9.05830327733e-08
1.7327995666e-06
-8.02772195356e-08
1.76898947807e-06
-7.70202591337e-08
1.80746138252e-06
-7.52019905947e-08
1.84474623682e-06
-7.1535256394e-08
1.88001802267e-06
-6.67172038683e-08
1.91222967164e-06
-6.0432332779e-08
1.9413276261e-06
-5.33475369932e-08
1.96675607848e-06
-4.5609549759e-08
1.98506621502e-06
-3.64567399815e-08
1.99333416583e-06
-2.68862522101e-08
1.99845350055e-06
-2.11336928687e-08
2.01293847414e-06
-2.08200728976e-08
2.0235121063e-06
-9.45926667512e-09
2.0196556295e-06
1.30607692864e-08
2.01478909888e-06
2.45497446291e-08
2.00844364867e-06
2.53902864652e-08
1.99519855426e-06
2.68370645006e-08
1.98092121356e-06
3.19942672248e-08
1.96336051386e-06
3.89485189953e-08
1.92584341732e-06
5.16556566122e-08
1.88165595343e-06
6.47552913616e-08
1.81091858868e-06
1.33645863984e-07
1.68458766703e-06
2.55053839576e-07
1.52228325973e-06
3.02323879547e-07
1.36555790093e-06
2.6411819689e-07
1.27019342767e-06
1.9589106866e-07
1.20123372278e-06
1.71897898306e-07
1.1122226694e-06
2.00384983359e-07
9.93638431029e-07
2.44199728634e-07
8.54926401938e-07
2.71352636808e-07
7.15658647249e-07
2.68868739794e-07
6.001358831e-07
2.38185769754e-07
5.13553425804e-07
2.15027505116e-07
4.29529708754e-07
1.93618503529e-07
3.51854927023e-07
1.72288882346e-07
2.70802861966e-07
1.48135264139e-07
1.98651781924e-07
1.46383185321e-07
1.039527354e-07
1.61514230634e-07
2.06034290524e-07
3.14876271084e-08
-1.04849749595e-07
4.83516617926e-08
-9.30598873715e-08
8.61083594583e-08
-1.07514208677e-07
1.2938660899e-07
-1.08469081473e-07
1.69994863958e-07
-1.06401136014e-07
1.92355658422e-07
-7.25839216119e-08
2.07632436947e-07
-5.38339334419e-08
2.34157953483e-07
-7.3768583623e-08
2.64561376236e-07
-8.74870441918e-08
2.95296803837e-07
-9.04925229414e-08
3.25795342838e-07
-9.01926640814e-08
3.54859926192e-07
-8.9156337816e-08
3.835689759e-07
-8.89940717776e-08
4.14209586517e-07
-9.15197955056e-08
4.44473745666e-07
-9.41158022897e-08
4.63832311799e-07
-9.10976780576e-08
4.76010985965e-07
-8.64511228401e-08
5.0114214479e-07
-9.41785018669e-08
5.46733909441e-07
-1.14741752774e-07
6.09871412646e-07
-1.40926278711e-07
6.74714804684e-07
-1.55916105118e-07
7.27810448981e-07
-1.54658249473e-07
7.7596071709e-07
-1.5108563783e-07
8.26283893167e-07
-1.49907908304e-07
8.76965078126e-07
-1.49108103337e-07
9.26183570265e-07
-1.48750820936e-07
9.75246694463e-07
-1.4867816246e-07
1.02484251371e-06
-1.48713891109e-07
1.07461432058e-06
-1.4866467401e-07
1.12477998702e-06
-1.49217946522e-07
1.17429796383e-06
-1.4928791843e-07
1.22409650183e-06
-1.49883660301e-07
1.27529302308e-06
-1.51173994197e-07
1.32511708036e-06
-1.53312977947e-07
1.37815901383e-06
-1.6080487086e-07
1.43687583173e-06
-1.66878914001e-07
1.49267801643e-06
-1.64264322549e-07
1.54654893888e-06
-1.62510378153e-07
1.60278776626e-06
-1.63106083379e-07
1.65665153898e-06
-1.55522937005e-07
1.70607523884e-06
-1.39912129885e-07
1.75147774313e-06
-1.25579961681e-07
1.79225925846e-06
-1.17701747571e-07
1.82962242261e-06
-1.12459557973e-07
1.86438368368e-06
-1.06189259444e-07
1.89620114665e-06
-9.84212557175e-08
1.92513740852e-06
-8.92529661059e-08
1.95096828824e-06
-7.90566006118e-08
1.97334234002e-06
-6.7859082052e-08
1.99256705048e-06
-5.55502534387e-08
2.00922589667e-06
-4.34103956251e-08
2.02165074587e-06
-3.34161308488e-08
2.02412131674e-06
-2.31422829364e-08
2.02046822147e-06
-5.64849157078e-09
2.02034950643e-06
1.33447705545e-08
2.01963241616e-06
2.54460603225e-08
2.01147043915e-06
3.37476704532e-08
1.99684019623e-06
4.16864099188e-08
1.97827031518e-06
5.08117330397e-08
1.95455527573e-06
6.29525871593e-08
1.92418501414e-06
8.23655405196e-08
1.85728426157e-06
1.3206508225e-07
1.71428277671e-06
2.77105453938e-07
1.51997345569e-06
4.49786229908e-07
1.37095618785e-06
4.51663085897e-07
1.3031218866e-06
3.32215895709e-07
1.22377632668e-06
2.75478204949e-07
1.121752034e-06
2.74167390797e-07
1.00980491064e-06
3.12596061393e-07
8.85676780216e-07
3.68608231798e-07
7.66613133067e-07
3.9069600419e-07
6.73915321283e-07
3.61842715182e-07
5.93740436114e-07
3.18634880393e-07
5.12333995229e-07
2.96705767561e-07
4.1789226085e-07
2.88321306013e-07
3.23427327445e-07
2.67010239578e-07
2.43827498632e-07
2.28000872607e-07
1.84433283437e-07
2.06034533576e-07
7.94593917653e-08
2.66849136675e-07
2.85619374876e-07
2.1375837134e-08
-1.26230251927e-07
2.94690237658e-08
-1.01091670799e-07
7.003672922e-08
-1.47992954049e-07
1.04938437593e-07
-1.43274683139e-07
1.11195951969e-07
-1.12595979302e-07
1.02279879131e-07
-6.36438279833e-08
1.42307300505e-07
-9.38406159715e-08
2.03665214578e-07
-1.3510092691e-07
2.47310985911e-07
-1.31100069197e-07
2.81595983309e-07
-1.24746027841e-07
3.13910019474e-07
-1.22465620882e-07
3.44240731564e-07
-1.19433523187e-07
3.71294552129e-07
-1.15990051524e-07
3.87792665519e-07
-1.07963369184e-07
3.96131696519e-07
-1.02413753431e-07
4.1236347129e-07
-1.0730731839e-07
4.48945274636e-07
-1.230186734e-07
5.05290974032e-07
-1.50513528567e-07
5.69962345391e-07
-1.79397704367e-07
6.2472929481e-07
-1.9567385751e-07
6.69939020784e-07
-2.01101834728e-07
7.17727132172e-07
-2.02421969393e-07
7.67720700557e-07
-2.01050305275e-07
8.16971588306e-07
-1.99128774252e-07
8.65871043707e-07
-1.97972356457e-07
9.14783172381e-07
-1.97626546197e-07
9.64420058321e-07
-1.98272912522e-07
1.01434454918e-06
-1.98594914972e-07
1.06472213355e-06
-1.98992421419e-07
1.11456360718e-06
-1.99006489579e-07
1.16536914206e-06
-2.00034976984e-07
1.21447227567e-06
-1.9892529199e-07
1.26313193851e-06
-1.99769193315e-07
1.31966966059e-06
-2.09784255003e-07
1.37670551886e-06
-2.17768939543e-07
1.43313594959e-06
-2.23236087832e-07
1.49541496242e-06
-2.26464705977e-07
1.55549618569e-06
-2.22509520166e-07
1.60778771775e-06
-2.1530938989e-07
1.65644308148e-06
-2.04087341173e-07
1.70457707547e-06
-1.87950302795e-07
1.75094003372e-06
-1.71845033369e-07
1.79324298786e-06
-1.59902109608e-07
1.83146262227e-06
-1.50574036289e-07
1.86639257332e-06
-1.41009009345e-07
1.89826180114e-06
-1.30177331701e-07
1.92713806767e-06
-1.18011080843e-07
1.95289373896e-06
-1.04691112889e-07
1.97540812437e-06
-9.02471536906e-08
1.99477786713e-06
-7.47901003261e-08
2.01062004817e-06
-5.91165417989e-08
2.0211201221e-06
-4.37751826386e-08
2.02499035781e-06
-2.68644817088e-08
2.02580151456e-06
-6.30596875416e-09
2.02534551378e-06
1.39629195705e-08
2.02074515897e-06
3.02189563042e-08
2.01026843013e-06
4.44125327095e-08
1.99318993576e-06
5.89738443061e-08
1.96807869037e-06
7.61606704584e-08
1.93022255651e-06
1.01082790495e-07
1.86592996847e-06
1.46977320014e-07
1.7532783564e-06
2.4507529125e-07
1.61509679877e-06
4.15648602396e-07
1.49018236021e-06
5.75037123169e-07
1.35023226103e-06
5.91919780247e-07
1.21775916383e-06
4.64935419472e-07
1.11489490648e-06
3.78560127811e-07
1.02539322284e-06
3.63886616004e-07
9.38487509063e-07
3.99728992537e-07
8.44734760483e-07
4.62609148534e-07
7.41255281644e-07
4.94437798557e-07
6.36921912298e-07
4.66439700753e-07
5.32174604674e-07
4.23626152059e-07
4.30130167042e-07
3.98960440924e-07
3.36365270787e-07
3.82299032143e-07
2.4083630458e-07
3.62762547264e-07
1.58757509741e-07
3.10269458544e-07
1.06513642237e-07
2.58466735956e-07
5.47377174327e-08
3.18793352234e-07
3.40492901719e-07
3.48762945627e-09
-1.29582552097e-07
2.42481387956e-08
-1.21794812411e-07
5.52810282803e-08
-1.78931215366e-07
8.02994966889e-08
-1.68188204406e-07
7.74184984146e-08
-1.09676190736e-07
1.01036342958e-07
-8.7256212623e-08
1.50976042172e-07
-1.43774409595e-07
1.88743448895e-07
-1.72842549232e-07
2.24434947112e-07
-1.66767685446e-07
2.60314807342e-07
-1.60585377046e-07
2.95805572798e-07
-1.57898609564e-07
3.2065925688e-07
-1.44230037333e-07
3.29316898861e-07
-1.2459474775e-07
3.38708870615e-07
-1.17321022508e-07
3.66510097268e-07
-1.3019799935e-07
4.12968203452e-07
-1.53754337928e-07
4.70910879526e-07
-1.80951667359e-07
5.26359467119e-07
-2.05948911694e-07
5.69957663998e-07
-2.22977978719e-07
6.10282544706e-07
-2.35976520798e-07
6.56000909445e-07
-2.46795980316e-07
7.04591057882e-07
-2.50985214308e-07
7.53573962457e-07
-2.50004571294e-07
8.0222472458e-07
-2.47746984272e-07
8.50881279402e-07
-2.4659439723e-07
9.00316180227e-07
-2.47022398682e-07
9.49719124597e-07
-2.47636039398e-07
1.00036280205e-06
-2.49193012231e-07
1.05020382552e-06
-2.48783217815e-07
1.10064470801e-06
-2.49391954914e-07
1.14878537423e-06
-2.48117738749e-07
1.20099454208e-06
-2.51074495645e-07
1.25925866211e-06
-2.57970752424e-07
1.31532140271e-06
-2.6578069092e-07
1.37539674302e-06
-2.77774851879e-07
1.43923216167e-06
-2.86996561847e-07
1.49850215997e-06
-2.85655517303e-07
1.55400424219e-06
-2.77927321113e-07
1.60606783933e-06
-2.67285324323e-07
1.6556759518e-06
-2.53603312469e-07
1.70429533824e-06
-2.36474386128e-07
1.75119714566e-06
-2.18647334091e-07
1.79451288628e-06
-2.03115140826e-07
1.83366983845e-06
-1.89623774769e-07
1.86911685576e-06
-1.7634521693e-07
1.90123297472e-06
-1.6217822469e-07
1.93016429886e-06
-1.46823883408e-07
1.95587526615e-06
-1.30279391325e-07
1.97828190496e-06
-1.125276971e-07
1.99726580329e-06
-9.36430179627e-08
2.01223955757e-06
-7.39550491149e-08
2.02205999579e-06
-5.34548322871e-08
2.02657280811e-06
-3.12323172992e-08
2.02764606588e-06
-7.22922063882e-09
2.02568067962e-06
1.60839496075e-08
2.01854400246e-06
3.75195184476e-08
2.00385112452e-06
5.92832864512e-08
1.97855449109e-06
8.44666958518e-08
1.93754067138e-06
1.17396026221e-07
1.87220461347e-06
1.666700627e-07
1.77224174518e-06
2.47217056634e-07
1.64422795184e-06
3.73372805857e-07
1.53046410633e-06
5.29694807659e-07
1.43592070061e-06
6.69874100122e-07
1.33840692323e-06
6.89698516857e-07
1.20907064192e-06
5.94494961243e-07
1.06841840269e-06
5.19411928458e-07
9.48191323462e-07
4.84298730869e-07
8.51261491718e-07
4.96855718773e-07
7.59516138126e-07
5.54562711775e-07
6.54906609798e-07
5.99278049595e-07
5.49124990919e-07
5.72426862974e-07
4.50559763882e-07
5.22345928902e-07
3.53545572748e-07
4.96130803414e-07
2.58015516868e-07
4.77987903911e-07
1.72503888348e-07
4.48430642107e-07
1.22696689134e-07
3.60213877615e-07
7.54313549664e-08
3.05840416619e-07
2.93360849024e-08
3.65099198392e-07
3.69875406272e-07
6.44570185798e-10
-1.30270194954e-07
2.74993581355e-08
-1.48604815189e-07
4.32253987197e-08
-1.94569250046e-07
5.47152492926e-08
-1.79622667134e-07
5.42288620868e-08
-1.09169971293e-07
1.03078659552e-07
-1.36101793446e-07
1.48705940302e-07
-1.89386383185e-07
1.72696532798e-07
-1.96818161694e-07
2.02079472268e-07
-1.96108292544e-07
2.33180108205e-07
-1.91636418926e-07
2.56397695132e-07
-1.8105970142e-07
2.56886580026e-07
-1.44668446989e-07
2.66990921405e-07
-1.34670778307e-07
2.98995707738e-07
-1.49313472598e-07
3.48246700731e-07
-1.7944497508e-07
4.09572873212e-07
-2.15077203411e-07
4.66538318091e-07
-2.37906699522e-07
5.0851284569e-07
-2.47905559381e-07
5.46994903754e-07
-2.61438881595e-07
5.92695901766e-07
-2.81654117512e-07
6.40069916256e-07
-2.94144347022e-07
6.86938847327e-07
-2.97826514217e-07
7.3483542799e-07
-2.97871002307e-07
7.83872169255e-07
-2.96751941748e-07
8.32849576771e-07
-2.95535989858e-07
8.80012603216e-07
-2.9414756711e-07
9.30610111938e-07
-2.98190977182e-07
9.80597483217e-07
-2.99134149103e-07
1.03146416451e-06
-2.99599720526e-07
1.07783250338e-06
-2.9570628022e-07
1.12842520499e-06
-2.98653371332e-07
1.18316272792e-06
-3.05753400245e-07
1.24027867514e-06
-3.15026198552e-07
1.30887520227e-06
-3.34312436448e-07
1.37774058147e-06
-3.4656976351e-07
1.43932494644e-06
-3.48505097924e-07
1.49643923211e-06
-3.4268906548e-07
1.55121908229e-06
-3.32622432851e-07
1.6039449602e-06
-3.1992237583e-07
1.65483681256e-06
-3.04402915893e-07
1.70434653049e-06
-2.85888040156e-07
1.75189562625e-06
-2.66096650158e-07
1.79610063902e-06
-2.47215974694e-07
1.83622559056e-06
-2.29640399879e-07
1.87239096323e-06
-2.12397973223e-07
1.90491095726e-06
-1.94581914688e-07
1.93396481136e-06
-1.75757547918e-07
1.95955343434e-06
-1.55744334542e-07
1.98157945819e-06
-1.34425860949e-07
1.99983620311e-06
-1.11768226205e-07
2.01383502954e-06
-8.78178277403e-08
2.02297772922e-06
-6.24586815215e-08
2.02734678991e-06
-3.54595606738e-08
2.02756888517e-06
-7.30715397469e-09
2.02284266842e-06
2.09572664443e-08
2.01042740639e-06
5.00900691299e-08
1.98653059263e-06
8.33451149117e-08
1.94596673603e-06
1.25211911856e-07
1.88187231985e-06
1.81691374036e-07
1.78824238982e-06
2.60519347457e-07
1.66678414602e-06
3.68906161073e-07
1.5368802251e-06
5.03508055526e-07
1.43688588792e-06
6.29918234333e-07
1.33764684595e-06
7.69333632585e-07
1.22119493122e-06
8.06367671506e-07
1.11463271159e-06
7.01249015309e-07
9.90331498419e-07
6.43884602808e-07
8.67731120027e-07
6.07076749035e-07
7.65492716739e-07
5.99260517638e-07
6.66646507438e-07
6.53605326273e-07
5.61093009121e-07
7.049966156e-07
4.70614957616e-07
6.63038344036e-07
3.74457872869e-07
6.18631366563e-07
2.77014978471e-07
5.93680076427e-07
1.88600913866e-07
5.66517207137e-07
1.31715610239e-07
5.05428360917e-07
8.65354580031e-08
4.05492735797e-07
4.56858439871e-08
3.46824959013e-07
1.93496921643e-08
3.91508562325e-07
3.89334958426e-07
9.30871185287e-09
-1.39492569687e-07
3.76955640893e-08
-1.7693331653e-07
4.88419309553e-08
-2.05619588774e-07
3.97613098877e-08
-1.70488233018e-07
5.92011034181e-08
-1.28603808418e-07
1.09555310273e-07
-1.86451181694e-07
1.33693124998e-07
-2.13515727389e-07
1.53818435138e-07
-2.16904206123e-07
1.75470680255e-07
-2.17727824405e-07
2.05788271419e-07
-2.21888554952e-07
2.08975691918e-07
-1.84194884638e-07
2.14670888888e-07
-1.50333432888e-07
2.44241285865e-07
-1.64230919611e-07
2.84672044473e-07
-1.89748284695e-07
3.42290565522e-07
-2.37065618269e-07
3.99413284151e-07
-2.72190547384e-07
4.39529490482e-07
-2.78006834353e-07
4.7600904516e-07
-2.84367026524e-07
5.23305566887e-07
-3.087150175e-07
5.72058734443e-07
-3.30383509976e-07
6.18284609388e-07
-3.40343658138e-07
6.6501082999e-07
-3.44523804644e-07
7.13229288482e-07
-3.46060189736e-07
7.60626189724e-07
-3.44115468092e-07
8.07284920416e-07
-3.42158125401e-07
8.55394688983e-07
-3.42218724047e-07
9.03966356219e-07
-3.4672049545e-07
9.55108632122e-07
-3.50231014486e-07
1.00325567386e-06
-3.47696966423e-07
1.05091031065e-06
-3.43308059138e-07
1.10796080902e-06
-3.55648989834e-07
1.16798099818e-06
-3.65716443994e-07
1.2358754426e-06
-3.82860704223e-07
1.30531598864e-06
-4.03687548301e-07
1.37336006724e-06
-4.14541886505e-07
1.4346473051e-06
-4.09715116009e-07
1.49192757415e-06
-3.99887937825e-07
1.54748860144e-06
-3.8809805122e-07
1.60158330508e-06
-3.73927992226e-07
1.65399776296e-06
-3.56724412396e-07
1.70468434035e-06
-3.36477778338e-07
1.75312222371e-06
-3.14433358045e-07
1.79826709811e-06
-2.92255331616e-07
1.83938324948e-06
-2.70646558806e-07
1.87635821934e-06
-2.49258895831e-07
1.90935705904e-06
-2.27462597293e-07
1.93850106359e-06
-2.0477965242e-07
1.96378129558e-06
-1.80898459892e-07
1.98510582183e-06
-1.55620821658e-07
2.00230778487e-06
-1.2883655446e-07
2.01508719672e-06
-1.00461911697e-07
2.02313078722e-06
-7.03647758942e-08
2.02629379544e-06
-3.84847926338e-08
2.02404143586e-06
-4.91718056984e-09
2.01422700034e-06
3.09125724561e-08
1.99287531994e-06
7.158725503e-08
1.95498922858e-06
1.21388574033e-07
1.89555088969e-06
1.84818562173e-07
1.81160857848e-06
2.65814484857e-07
1.70559678012e-06
3.66722604248e-07
1.59117735204e-06
4.83520685737e-07
1.48924831655e-06
6.05627579916e-07
1.38648719395e-06
7.32859203845e-07
1.27999481463e-06
8.76020592779e-07
1.13200781744e-06
9.54542630111e-07
1.01439221479e-06
8.19031785811e-07
9.19387720037e-07
7.39070792099e-07
8.08725624221e-07
7.17908068436e-07
6.92490607282e-07
7.15688274187e-07
5.80165305779e-07
7.66067372569e-07
4.90334264142e-07
7.94977230032e-07
4.02204356807e-07
7.51285911559e-07
2.9875080217e-07
7.22164369535e-07
2.03552686936e-07
6.88973041908e-07
1.30141944349e-07
6.40015994621e-07
9.36762308871e-08
5.41985083102e-07
4.72757103639e-08
4.51985269686e-07
1.08208648423e-08
3.83344610976e-07
5.55384402137e-09
3.96972040712e-07
3.94904655555e-07
1.67620536414e-08
-1.56311504473e-07
3.84618097246e-08
-1.98585806558e-07
4.29190532493e-08
-2.10047700762e-07
2.60587675287e-08
-1.53606297163e-07
6.07168974845e-08
-1.63254788003e-07
9.68746911005e-08
-2.22603822691e-07
1.15003607089e-07
-2.31614630177e-07
1.34435708046e-07
-2.36306616644e-07
1.4303551645e-07
-2.26260294474e-07
1.60906878171e-07
-2.39719136868e-07
1.5878158043e-07
-1.82035520493e-07
1.88694500205e-07
-1.80236774183e-07
2.22332630476e-07
-1.97872105602e-07
2.72328488088e-07
-2.39748908155e-07
3.28036163555e-07
-2.92772321428e-07
3.68248189409e-07
-3.12391026959e-07
4.00909593407e-07
-3.10650885357e-07
4.47171358879e-07
-3.30610312412e-07
4.98089541388e-07
-3.59612437061e-07
5.44936791529e-07
-3.77206238344e-07
5.90557847091e-07
-3.85938047281e-07
6.36998107133e-07
-3.9093766189e-07
6.86256448255e-07
-3.95287165369e-07
7.35344964972e-07
-3.93168939616e-07
7.79934084436e-07
-3.86712248421e-07
8.31044916245e-07
-3.93289705471e-07
8.7848118738e-07
-3.94114350545e-07
9.25038649824e-07
-3.96742932847e-07
9.72871925981e-07
-3.95482572656e-07
1.03790481321e-06
-4.08290227098e-07
1.09718556746e-06
-4.14875565713e-07
1.15668243711e-06
-4.25157790768e-07
1.2276706683e-06
-4.53788315644e-07
1.3012819984e-06
-4.77231793204e-07
1.3655932949e-06
-4.78780356029e-07
1.42641149797e-06
-4.70455565674e-07
1.4854617107e-06
-4.58856180418e-07
1.5429592709e-06
-4.45509709697e-07
1.59891289938e-06
-4.29791881602e-07
1.65311246432e-06
-4.10830342695e-07
1.70528567678e-06
-3.88553212847e-07
1.75491256155e-06
-3.63958026882e-07
1.80117350345e-06
-3.38409403931e-07
1.84337053933e-06
-3.12732236931e-07
1.88121787454e-06
-2.86990381065e-07
1.91469484219e-06
-2.6081939978e-07
1.94380324321e-06
-2.33763123427e-07
1.96849332086e-06
-2.05459297221e-07
1.9887119632e-06
-1.75705241095e-07
2.00440571632e-06
-1.44394978625e-07
2.0154586682e-06
-1.11377759484e-07
2.02161701458e-06
-7.63875291676e-08
2.02224180683e-06
-3.8977165755e-08
2.01557093799e-06
1.8855220873e-09
1.99797048968e-06
4.86515924802e-08
1.96442616506e-06
1.05279279692e-07
1.91079685478e-06
1.75165757267e-07
1.83641091525e-06
2.59367631077e-07
1.7441749114e-06
3.58215561771e-07
1.6395456737e-06
4.71523534722e-07
1.53557360471e-06
5.87661045307e-07
1.44179078006e-06
6.99565804011e-07
1.3556604534e-06
8.1914113912e-07
1.28690586308e-06
9.44924314919e-07
1.16054584336e-06
1.08106236289e-06
9.55031355996e-07
1.02471319519e-06
8.21255403585e-07
8.73005835892e-07
7.10251470067e-07
8.29101717759e-07
5.9845391919e-07
8.27623332996e-07
5.06858090288e-07
8.57823054717e-07
4.30709490949e-07
8.7121236459e-07
3.28850440606e-07
8.53219519429e-07
2.19710533351e-07
8.31411651152e-07
1.31307296703e-07
7.77464738918e-07
7.60777379811e-08
6.95335893668e-07
3.62801411647e-08
5.81882977703e-07
-3.40088167729e-09
4.91773118923e-07
-3.36722977555e-08
4.13768757228e-07
-2.25139325826e-08
3.85851362703e-07
3.72551706731e-07
1.96960848857e-08
-1.75910631877e-07
3.22648095783e-08
-2.11102425218e-07
2.74610205589e-08
-2.05181208541e-07
2.95076124844e-08
-1.55640049543e-07
6.53984354133e-08
-1.99135039914e-07
7.90464141863e-08
-2.36227769091e-07
9.45271730297e-08
-2.47056497194e-07
1.12630717087e-07
-2.54362169756e-07
1.17568886303e-07
-2.31162324494e-07
1.27724872361e-07
-2.49826075897e-07
1.40628730721e-07
-1.94927892217e-07
1.68110846304e-07
-2.07718244932e-07
2.03335276266e-07
-2.33110410757e-07
2.56426422463e-07
-2.92849339019e-07
3.03062609761e-07
-3.393976984e-07
3.32454660693e-07
-3.41765510605e-07
3.68804713384e-07
-3.46984338613e-07
4.17171391003e-07
-3.78959832321e-07
4.66130559014e-07
-4.08550777665e-07
5.12934156856e-07
-4.23987500839e-07
5.590957314e-07
-4.32077385412e-07
6.04226233286e-07
-4.36039271313e-07
6.50391217114e-07
-4.4141777835e-07
6.98160704611e-07
-4.40904614777e-07
7.42542026964e-07
-4.31055712208e-07
7.91763882628e-07
-4.4247210526e-07
8.43858268198e-07
-4.46167975927e-07
8.99075434009e-07
-4.51914702993e-07
9.57049803224e-07
-4.53408965542e-07
1.0141115677e-06
-4.65302828683e-07
1.07626211201e-06
-4.76975742821e-07
1.15246388297e-06
-5.01304164467e-07
1.2251553801e-06
-5.26418524321e-07
1.29054755399e-06
-5.42556287608e-07
1.35394313907e-06
-5.4210221151e-07
1.41636244146e-06
-5.32796493683e-07
1.47770258206e-06
-5.20113930119e-07
1.53757807851e-06
-5.05299009601e-07
1.59577928742e-06
-4.87902923401e-07
1.65208909565e-06
-4.67045810399e-07
1.70613082937e-06
-4.42496115205e-07
1.75733169099e-06
-4.15055338584e-07
1.80497801877e-06
-3.8594746037e-07
1.84841664489e-06
-3.56057698357e-07
1.88721528485e-06
-3.2567087467e-07
1.92113027288e-06
-2.94610613537e-07
1.94999898092e-06
-2.62502511149e-07
1.97371801891e-06
-2.29042513268e-07
1.99228998408e-06
-1.94139880587e-07
2.00581745098e-06
-1.57783397655e-07
2.01435028126e-06
-1.1977360994e-07
2.01757910709e-06
-7.94858382697e-08
2.01425417673e-06
-3.55231191779e-08
2.00136307387e-06
1.49139122876e-08
1.97387028867e-06
7.62878545881e-08
1.92658453608e-06
1.52708583618e-07
1.8592226e-06
2.42691114869e-07
1.7782294555e-06
3.40513237063e-07
1.68765495267e-06
4.48954445557e-07
1.58252200799e-06
5.76808251538e-07
1.4748118719e-06
6.95508980335e-07
1.38527284869e-06
7.89226474873e-07
1.31806369837e-06
8.86455489701e-07
1.26730296228e-06
9.95793932244e-07
1.21973201237e-06
1.12875760038e-06
1.01625331222e-06
1.22833958842e-06
7.44714077627e-07
1.144731336e-06
6.21619778414e-07
9.52361871069e-07
5.31220975686e-07
9.18208140394e-07
4.56028991795e-07
9.33108731009e-07
3.69590541114e-07
9.57770032014e-07
2.4983148697e-07
9.73118053212e-07
1.34617930887e-07
9.46751106176e-07
5.62569909729e-08
8.55966360902e-07
5.67718089829e-09
7.46078033171e-07
-4.39829988977e-08
6.31714859356e-07
-7.7448980842e-08
5.25395977801e-07
-8.85391779918e-08
4.24972319305e-07
-5.67187586469e-08
3.54343673529e-07
3.15867515436e-07
1.99559661681e-08
-1.95945770452e-07
2.93293487908e-08
-2.20466781056e-07
1.76234454044e-08
-1.93460906443e-07
2.96951817212e-08
-1.67686710903e-07
5.67297166253e-08
-2.26138752917e-07
6.09643381902e-08
-2.40417626115e-07
7.1877849367e-08
-2.57939873097e-07
8.14601823975e-08
-2.63894345054e-07
9.63999930552e-08
-2.46071683138e-07
9.17418031775e-08
-2.45150023438e-07
1.14919614101e-07
-2.18100014236e-07
1.4551837246e-07
-2.38331605201e-07
1.80896671008e-07
-2.68495873748e-07
2.268846839e-07
-3.38837533639e-07
2.62276455383e-07
-3.74781324535e-07
2.86542623692e-07
-3.66015247647e-07
3.29588464243e-07
-3.90014754651e-07
3.79636379351e-07
-4.28991085596e-07
4.27870811379e-07
-4.56766530658e-07
4.75822489225e-07
-4.71918583936e-07
5.23818989629e-07
-4.80046451881e-07
5.70535396128e-07
-4.82725849957e-07
6.13412760955e-07
-4.8426502356e-07
6.59288533523e-07
-4.8674485091e-07
7.09755277036e-07
-4.81486018135e-07
7.55586703513e-07
-4.88265846758e-07
8.05282130067e-07
-4.95820017882e-07
8.5341088654e-07
-4.99998395501e-07
9.19143418141e-07
-5.19096224196e-07
9.86912265804e-07
-5.33024363833e-07
1.05911176166e-06
-5.49126100527e-07
1.13177517681e-06
-5.73913880791e-07
1.20835856201e-06
-6.02940577998e-07
1.27630724627e-06
-6.10436066825e-07
1.3406554715e-06
-6.06376300131e-07
1.40488589926e-06
-5.96948448964e-07
1.46873475272e-06
-5.83880348076e-07
1.53131873222e-06
-5.67796430921e-07
1.59214361895e-06
-5.48637100971e-07
1.65092159858e-06
-5.25728638833e-07
1.70722727551e-06
-4.98702035691e-07
1.76043494742e-06
-4.68158505767e-07
1.80983608931e-06
-4.35238945984e-07
1.85476408866e-06
-4.00870554104e-07
1.8946453746e-06
-3.65430611124e-07
1.92898200262e-06
-3.28818867308e-07
1.95737439426e-06
-2.90758464845e-07
1.97962722984e-06
-2.51154272852e-07
1.99582895161e-06
-2.10197289403e-07
2.00627998816e-06
-1.68089437518e-07
2.01123463792e-06
-1.24596090108e-07
2.01038194735e-06
-7.84965316604e-08
2.00195686136e-06
-2.69698187309e-08
1.98187075964e-06
3.51372592166e-08
1.94392345281e-06
1.14387433846e-07
1.88320450043e-06
2.13583559724e-07
1.80569365875e-06
3.20340862094e-07
1.72628702184e-06
4.20095889677e-07
1.64247148525e-06
5.32908297292e-07
1.52102739556e-06
6.98388837495e-07
1.38974053783e-06
8.26870236389e-07
1.30128906281e-06
8.77709981828e-07
1.24858337976e-06
9.39179202571e-07
1.22123326607e-06
1.02315888132e-06
1.21522336964e-06
1.13480702533e-06
1.16021495125e-06
1.28345393349e-06
8.70598813289e-07
1.43449415553e-06
5.49080384505e-07
1.2740620773e-06
4.65642887079e-07
1.00175527057e-06
4.10423241976e-07
9.88457512209e-07
3.05307408842e-07
1.06297095144e-06
1.62500295383e-07
1.11600985896e-06
3.6713713228e-08
1.07266084725e-06
-2.51615950687e-08
9.17992896453e-07
-8.26747383622e-08
8.03784286214e-07
-1.41810543941e-07
6.91041994007e-07
-1.69487446906e-07
5.53336480938e-07
-1.48664565027e-07
4.0441497875e-07
-8.76051446906e-08
2.93339342943e-07
2.28469981835e-07
1.55633143257e-08
-2.11390008976e-07
2.21043365476e-08
-2.26940090969e-07
1.41783696612e-08
-1.85495469037e-07