/*--------------------------------*- C++ -*----------------------------------*\
| =========                 |                                                 |
| \\      /  F ield         | OpenFOAM: The Open Source CFD Toolbox           |
|  \\    /   O peration     | Version:  v1806                                 |
|   \\  /    A nd           | Web:      www.OpenFOAM.com                      |
|    \\/     M anipulation  |                                                 |
\*---------------------------------------------------------------------------*/
FoamFile
{
    version     2.0;
    format      ascii;
    class       volScalarField;
    location    "330";
    object      alpha;
}
// * * * * * * * * * * * * * * * * * * * * * * * * * * * * * * * * * * * * * //

dimensions      [0 0 -1 0 0 0 0];


internalField   nonuniform List<scalar> 
6400
(
0.846960414632
1.2944835629
2.00408330813
2.3612057328
2.71274171103
3.09427094791
3.68490486815
4.36893018892
4.57316716711
4.98248094832
6.11850801657
6.71105791844
7.16788795591
7.74700752443
8.5683002558
9.41699804294
10.0845269793
10.7201016407
11.2725140566
11.5235526988
11.4885641355
11.504798563
11.8136054823
12.4541624961
13.1929400247
13.8227151264
14.2647330108
14.65650826
15.1252461273
15.6833458264
16.2769973029
16.6580453106
16.7578177143
16.7388967203
16.6181771754
16.3160847615
16.2011809267
16.4610981535
16.2783009123
15.7866147026
15.7384631943
16.302323073
16.90495368
17.1952218328
17.2548656396
17.1552621358
16.9711736875
16.7640620377
16.5429232505
16.3222652292
15.9607111521
15.1071182699
14.1255962102
12.9885931091
12.2568622502
12.1288185304
11.5273478969
9.91082388155
8.09475779142
7.15782072102
6.02222350745
4.82060757471
3.58164969025
5.17742882587
9.27835669225
14.2542375551
17.275000103
17.0101069508
15.0345408688
13.3868272321
12.4669966434
12.5827588645
13.0351140004
12.8628312841
14.8029598801
14.2115204794
16.0200297407
9.92576244717
12.8796578885
4.81859885899
3.09892569215
2.42166506794
2.97542418358
4.18228587037
3.90725601283
3.58448106181
3.64548420505
3.9596862477
4.44040923032
5.07157681373
5.86717787803
6.66004385915
7.33877953604
7.98624310435
8.63524901638
9.39343538328
10.1865842979
10.9753948956
11.9975722828
12.0412295149
11.7478872186
11.6820830655
11.8906927102
12.4818110262
13.4470053583
13.968522132
14.357083812
14.813476752
15.3128561168
15.8342799551
16.3756737518
16.9236936116
17.0254989965
17.0188345863
16.9699930768
16.4810186542
16.4764947496
16.7513228734
16.4472642041
15.6839642843
15.5763962195
17.418012756
18.6687318596
18.8076031775
18.7647242375
18.4648803791
18.0114639771
17.6100587832
17.0172069867
16.4704315597
16.2595589485
16.4935309209
15.9807167391
13.2127551119
12.7216652691
12.1024071914
10.3133759786
8.78017659911
7.43942074449
6.13764335697
5.04646468012
5.23095827815
3.90089384565
5.43742500408
9.35433197078
15.2051780437
18.9610121701
17.7807127872
15.6365862018
13.7096147944
12.9485788749
13.2783854691
14.2749432372
13.6640726182
13.4601032185
12.8913474268
11.6520815092
9.78460836833
8.20490703848
4.29296876388
3.09333097439
2.64834546946
3.14149433811
3.27607063487
3.60903714678
3.9417204532
3.8736683474
3.89397097907
4.36144669431
5.05447107118
5.84564291072
6.65784199724
7.38944243292
8.04907466089
8.55765004146
9.23497787187
12.2307847076
14.3237510038
14.5792938125
13.6433962874
11.5835932449
11.2044003267
12.0744302698
12.7270510649
13.2838500397
13.9289137843
14.485851665
14.9471090554
15.4241962807
15.9613840024
16.44360818
17.1448985423
17.2833920439
16.8777928884
17.4513373375
16.9800303401
16.3313516284
17.0262471823
16.7032901652
15.9335780621
15.8202965073
16.4172450533
17.0482789847
17.3590024992
17.4425252229
17.3870107025
17.2295713621
16.9913296725
16.6737721076
16.3031239842
15.8844843629
15.3170637918
14.4945021353
13.802517906
13.2484578433
11.7945403016
10.2272283852
8.8413382597
7.57140290414
6.42654303922
5.53442610702
4.7017365604
4.18295176452
6.37647031148
11.4402060166
16.09881028
18.4057410414
18.5469228205
16.9680039732
15.2809081281
14.5441247547
14.3955377019
13.7076090134
13.0809751216
12.9966643581
12.5926105783
11.5605656073
9.91351208133
7.48211714477
7.64297655096
2.93511942291
5.3609954112
3.30403250317
3.30775930138
3.94505131292
11.735792679
10.0637427066
4.63292893991
4.36791412947
5.07449507235
5.8703418883
6.69212085457
7.40024952098
8.13130117311
10.0285931742
12.2850155118
13.9295412915
14.1058389621
12.4879458552
11.0586426032
11.1409355346
11.4751417878
11.9474930786
12.6324637701
13.378198241
14.0823174529
14.6857700388
15.1058664041
15.6416403945
16.0453002318
16.7988217656
17.0967028139
17.7696869161
17.4730467341
16.6939242746
17.1671794197
16.6357164542
16.0833216059
16.044753436
16.0454318002
16.1780936702
16.5924554239
17.065671159
17.370240352
17.4919738523
17.4714435349
17.3403559364
17.1205355357
16.8220536303
16.4559498382
16.0155086275
15.4618068707
14.7746232088
14.0160072259
13.0837552392
11.8150903481
10.3800991534
9.0297045512
7.84549609713
6.86238113192
6.11514422079
5.59014453513
5.60079248122
7.19904076747
10.7291307596
16.430084368
20.0099355933
20.2260768243
18.5749125875
16.2339633534
14.6156098795
13.7922465038
13.9059541273
15.2165060513
15.0951247145
13.7278194718
13.5319185976
16.7621877499
13.1911422797
11.230738272
5.37025690145
7.36597270977
3.84647284164
4.16525347415
6.25019501596
11.6174245972
7.81269831794
4.86812635642
4.86580904948
5.29824678063
6.02260133997
6.87016266991
8.31615847272
10.8676457682
11.8437908948
12.0517265477
11.7210669209
11.019638152
10.6970735645
11.1201711168
11.2854104119
11.4672596682
12.020612819
12.7409827521
13.5229949031
14.2819405894
14.8195533289
15.4695585589
15.7585963016
16.5561549369
16.795168345
18.1505224906
17.6372706964
16.8695277003
17.0250710115
16.2782978335
16.0574535005
16.0608792827
16.1453671417
16.2529210608
16.4324839084
16.7581744743
17.1353015059
17.4208058438
17.564520762
17.5722307145
17.4657946719
17.2670201225
16.9903096612
16.641719235
16.2123688525
15.6822773283
15.0388567704
14.2661782237
13.2701533106
12.0022531978
10.6308246415
9.37302597147
8.33500329984
7.55071756134
7.03203424444
6.83017813483
7.21485624181
8.05230314994
10.7263108475
15.8972755468
20.075549838
21.4913251458
20.3229514006
17.5724615015
15.1091055047
14.7482933998
16.8958478542
17.7021981246
16.6174035288
15.655563661
18.2353881677
21.2042962597
16.5604322222
15.68184468
9.70361996077
8.82821356049
4.77178442655
5.50397290124
11.8803553826
11.3064015528
5.79991283833
5.36015425831
5.43225454028
5.63299159083
6.32105919334
9.1982322753
12.6337071198
12.9525543585
12.4084687541
11.0732546856
10.1938963444
10.1585591041
11.0277430665
11.124693532
11.0941361601
11.5155843272
12.1712768028
12.9535570018
13.6379773252
14.4194281946
15.3923857541
15.5454225732
16.603340042
16.5331158597
18.2807187603
17.7671697668
18.7679061941
17.3457101686
16.0730726229
15.8162736128
15.9516041439
16.1367399047
16.3031622796
16.458934457
16.6597386292
16.9434515254
17.2612546949
17.5243352365
17.6762231312
17.7043163784
17.6198210411
17.4443541656
17.1956561391
16.8779578527
16.4806227939
15.9842810776
15.362540899
14.5693731907
13.5445936449
12.3158387453
11.0548214691
9.94157632182
9.05987192076
8.45375253279
8.13705090501
8.29369375048
9.34661719587
8.68785976902
12.2227087326
17.6227653692
21.2980659582
22.7147991191
21.7923135027
18.4605235345
16.3017375026
18.0228310276
20.149378361
19.5824590593
18.5376088436
18.5682904705
23.0349718814
24.5804906999
19.6252414424
19.424029815
11.7762267057
8.46524281474
5.80704831463
5.47957614515
11.7583135723
7.83437862439
5.78783626753
5.87264871458
5.9511756857
6.62853792714
6.98618606806
12.5487777666
13.069399997
12.9878553374
11.2821414399
9.72532924635
9.62300118839
10.9911521582
11.056792493
10.7255789581
11.1032362675
11.6291788515
12.2838627092
13.0631446037
14.044891953
15.0311627378
15.3756377194
16.8435387459
16.5614132198
18.5038189846
17.7968507518
18.9850042403
17.8962001942
17.0223706193
15.7211651959
15.6644135862
15.9805095844
16.2669706549
16.4737697939
16.6585598032
16.8773659967
17.1439410581
17.4283625526
17.6728953296
17.8269228008
17.8690510746
17.8053189756
17.6580707995
17.4464301217
17.1720241444
16.8192686298
16.3608055565
15.7568284091
14.9595715844
13.9499153232
12.8036621494
11.6844760599
10.7279880358
9.97629865471
9.43705852762
9.23198937832
9.45786218403
9.62275420567
10.0292808757
13.4449940099
20.0542488354
22.6116787432
23.0382779592
21.9962996812
19.7647796803
19.5215421872
22.0070088557
22.3984803404
21.5088932314
20.8736013879
22.759547507
25.4239740055
26.8323777138
22.2882495453
21.1564885747
11.3827376009
7.85849162874
6.86647911149
11.7891653243
11.7511029925
6.43925563674
6.35554522303
6.45062044655
6.61197370973
7.13431210159
12.3620593756
13.2396663202
13.1690763646
12.5008267741
9.79790756451
9.11667670436
10.7903783752
11.2036204703
10.5601476828
10.5700558617
11.1557964975
11.8532121602
12.5142146374
13.3706187369
14.1191680469
15.5072099075
15.5033462806
16.7960195159
18.3982550876
18.5695210047
17.3284944472
18.221938587
18.118866225
16.0155936975
15.6326502562
15.7800544589
16.0932320084
16.4046656562
16.6474341757
16.8598972022
17.0953596162
17.361013167
17.629836534
17.8610155588
18.0141639378
18.0672154512
18.0257215287
17.9132154905
17.7482223201
17.5280068949
17.229965213
16.8166936206
16.240786394
15.4674444507
14.5172234769
13.4915265383
12.5221772359
11.6694587547
10.9105971425
10.3104835758
10.1229637778
10.3816050004
10.8830719308
11.7095102655
12.4974874522
20.047442654
24.2722045487
24.4170467939
23.8778282742
22.9974569725
23.8593152029
25.1778759428
24.4489280639
23.7018868605
23.8390391762
26.0539303851
26.6530557975
27.1780179006
24.3115592872
22.1875502229
10.4988597513
7.53994193969
7.507062541
12.7036209954
10.4639568262
6.8272619658
6.967937988
7.17850544472
8.67640793705
7.12462576782
13.1355102889
13.6861909184
13.1609392457
10.9988679238
9.17643360363
9.24317325212
10.9088860044
10.8026606132
10.3860612293
10.599282145
11.1469684477
11.9710734472
12.7697462713
14.1470787188
15.3493652989
15.3772674199
17.5870971441
16.4991720391
18.7052239286
17.5174662404
19.0965539683
17.1754114524
16.3580751255
15.8435863626
15.7675036459
15.9518617838
16.2372674593
16.5484452711
16.823748482
17.0703130293
17.3248402162
17.5955852343
17.8603138732
18.0847214898
18.2360344426
18.29935439
18.2842384659
18.2141062416
18.104586233
17.948459412
17.7157843336
17.3599293566
16.8319196767
16.1166338783
15.2662860084
14.3821141313
13.5279475175
12.6495496859
11.6838318248
10.9180112924
10.8894653885
11.6437456275
12.6382831966
13.490524935
14.1048390849
16.7439084763
24.4052105918
26.1461901589
26.2849548741
27.0260996329
28.1187275233
27.7522730079
26.6763603148
26.3750960217
27.2355583189
28.299157092
28.0590447503
27.3925680098
26.3536988142
24.9775651119
9.73080629451
7.77599926935
8.68848509214
12.7077240595
8.03432021921
7.83312571246
7.58227674934
7.83048217532
11.392783539
9.9450499043
13.9640105896
13.8949659698
13.1513430883
10.0528285927
9.09591769419
10.9163240464
11.1732188878
10.4735545729
10.3338374078
10.7782772469
11.2750888651
12.0408624356
12.6922366145
14.3295551444
16.6664140434
15.2395129659
17.4964468187
18.6391610118
18.9552558161
19.3072563921
17.8409135866
17.6797901871
15.8895725221
15.6981454369
15.909674246
16.1366422053
16.4000165888
16.7004384044
16.9998034331
17.2861452697
17.5697667189
17.8522510148
18.1182180765
18.3407531658
18.4930830682
18.5675073948
18.5822262674
18.56224724
18.5173438586
18.4345704642
18.2787057342
17.9967060829
17.5424294226
16.9222609671
16.2066338345
15.4603056817
14.6142358825
13.4530269487
12.088327569
11.3529783807
11.9460485135
13.4240894689
14.7913562113
15.7766698625
16.3974567726
16.1351204312
16.9922525467
27.9576314629
30.8346096067
31.9916591791
31.9153159317
30.4803072252
29.4558054635
29.5589518569
30.5041887149
30.6726405467
30.3108319647
29.9444802427
30.2390820508
30.4002897957
9.44254451027
8.4558989807
12.3186853781
12.6908646592
7.84081650928
8.52934221505
8.17312063081
8.83026439081
10.6493688846
13.6489627513
14.6874707775
14.0649215852
13.2717826417
9.84418302879
9.19289459022
11.4983815713
11.2005061218
10.3824423971
10.3501385729
10.929027473
11.7130456632
12.3854221006
12.886647741
13.9009418162
16.8171686228
17.9543689234
16.8429190694
18.7999851292
17.2284323848
19.3516568236
19.3975886406
17.536369412
15.7786976086
15.7908885142
16.085391395
16.3315859318
16.5842877351
16.872179256
17.1792104649
17.5029879883
17.8279810427
18.1317773868
18.4040088388
18.6282345994
18.7845687746
18.8740347597
18.9231990411
18.958322666
18.9841741618
18.9829056707
18.9155993463
18.7263229106
18.3770163465
17.8938265126
17.3398272062
16.6706453193
15.551974091
13.7760037344
12.2832246301
12.1630420701
13.8117611504
16.0240027065
17.6552967467
18.6963004213
19.0885379555
18.677685438
17.7682171841
19.2995789931
32.5422188226
37.7821795824
36.5578998985
34.160871382
33.1545874687
33.3251728494
33.7896095233
33.8741634783
34.0199868045
34.4441154109
34.9994927079
35.6467567216
9.55365502134
9.20958785157
13.8917158412
13.1910744525
11.0247270775
9.67270258222
8.96095022398
10.3424804798
9.86013608918
14.5827514928
15.2185924818
14.2919978431
13.1787780688
10.27560001
9.95793656194
11.9979183693
11.1358666493
10.4045686857
10.4608939701
10.9706674941
11.8966676185
12.8345529763
14.6799821625
14.0490881331
16.2305269518
18.3466278499
16.5646355683
19.1112625124
19.6725744742
18.1076885175
18.0866529332
16.3317730063
16.0946876422
16.1164574374
16.3135261869
16.5533931696
16.8003300133
17.0775289862
17.3713164912
17.7101477395
18.0873957724
18.43738848
18.7226954656
18.9476331486
19.1111682945
19.2214823627
19.3097346678
19.4020554453
19.5001141231
19.5836049588
19.6119231506
19.5350969311
19.3325885699
19.0332684195
18.6308269661
17.8023859121
15.9462548737
13.751707623
12.8020392344
13.8501951782
16.8217597556
19.5684021502
21.3697948976
22.6189056319
22.9870438464
22.3410088486
21.0471210345
19.3837092339
28.7866725016
38.9663473766
41.8212507557
39.1292492447
38.0820439582
37.997339816
38.1026963678
38.0873944111
38.832311422
39.5533841012
39.486984731
39.6970870381
9.99257573732
9.77346077903
13.5139339087
13.5275969224
13.4809974286
10.6390052415
9.88342672773
13.3832048483
10.0114046887
15.4240566302
15.6194571707
14.5333988193
13.1024057984
10.7410594112
13.0042291013
13.0887380472
11.2126551527
10.5637432741
10.7026191747
11.1254038126
11.8620427467
12.7904278124
16.1595735091
17.1284720111
15.5389915772
18.4437048204
19.2341922808
18.5650758609
19.6441353587
19.6949125084
18.5836788582
16.2989410954
16.2839597815
16.4388080848
16.5922477804
16.7975693158
17.0210857211
17.3119578947
17.6224686863
17.942958619
18.3356383819
18.7432452533
19.0713980428
19.3058187756
19.476493475
19.6123328477
19.7442867282
19.8927099377
20.0564801664
20.2160293279
20.3371364108
20.3934561061
20.3892845231
20.3086493486
19.9435066954
18.4862120113
15.7091755721
13.7907282954
14.1690651171
17.085999741
21.195819438
24.2898090474
26.1972601177
27.8514327789
27.6547199072
26.156778054
24.2109400068
21.8320963573
25.2042948356
36.3312189052
43.571987309
44.9753688824
43.0399036981
42.7502021251
42.5083395812
42.9484026197
44.1178864984
44.795081799
44.8380831833
45.0805561789
10.4900300129
10.3624144677
10.0575678684
13.7609050163
13.8901057511
11.226287404
10.7280150402
14.2435232724
10.4852580086
16.266311695
15.964532361
14.7841230993
13.1509316054
10.9394532321
14.1940429229
13.4857216494
11.4928275651
10.8834871648
11.0216777282
11.4541022794
11.9533536388
12.6997487606
16.7517939003
18.1548546102
15.8183791151
18.5451306119
19.7676951612
17.7060978244
19.2631370764
19.0516431406
16.7868256157
16.6541644354
16.7215643247
16.7991439716
16.8932521545
17.0999059982
17.3068687136
17.5331935181
17.8679692624
18.2322467577
18.6224712316
19.0514726605
19.428153663
19.6960057009
19.8860174386
20.0525492865
20.2293943999
20.424632763
20.6388312515
20.8534746942
21.0397250371
21.2456538422
21.4978502962
21.654048128
21.0057146945
18.1693781972
15.1248716878
15.3054839271
18.512942149
23.2273937277
27.0041643052
27.4826199364
25.2243065844
22.334984602
18.3115669338
16.094498485
16.2469524836
16.6207227897
15.7085370573
16.7764155959
42.2275428173
46.0643117052
47.0389755904
44.8771582897
43.522120845
46.7165080664
49.4162582424
50.2865065334
51.4368153742
52.1379318214
11.1590527505
11.2265186415
14.3489726254
14.2826983034
14.1949525572
11.7058880665
11.6872564021
14.9258805202
11.3714847845
16.9680459911
16.2752283748
15.0444294994
13.2646385774
11.2406692731
14.3911021791
13.4914389889
11.7774117811
11.2480740864
11.3511127306
11.7318025866
12.1965144618
12.7744438005
15.9703315559
18.9470983986
19.0324516202
17.6959822525
19.9637592043
20.5840803348
17.4750065699
16.8034124781
16.6601646677
16.8476774313
17.0128646976
17.1274047063
17.2594577489
17.4079169032
17.6065002206
17.8492862262
18.1221244923
18.5133281859
18.9501815539
19.3954612099
19.7981377174
20.1046242986
20.3372206431
20.5445655599
20.7637686498
21.0081109148
21.2504485469
21.4482529699
21.6432796649
21.9979984266
22.5381048484
22.8320504773
21.1363327732
16.9397911695
16.1009963641
17.7592481629
20.779940195
22.2211484727
16.094508006
0.104020780394
0.00029560435143
5.11685537309e-09
4.00241945419e-09
9.71695406219e-09
6.5499952908e-08
3.06798122513e-07
1.133313796e-06
7.20203206475e-06
5.6390303355e-06
0.000489216540443
0.278445954557
25.8334513848
47.3160604712
48.1345704731
51.7592709066
56.6920390249
59.3159024311
59.7550992307
11.7655884834
11.9486915978
15.892041755
14.775858853
14.061433237
12.2090440403
12.6389758511
15.4431311418
15.4319654887
17.8098747272
16.620260238
15.3766349208
13.430239982
11.6923807356
14.5952382203
13.4510248864
12.0717474813
11.625122846
11.6684742052
11.9782340788
12.4283637346
13.0628656671
15.2832455081
19.1907833986
20.4361004072
17.0944708903
19.5162420206
20.5177153427
19.8610112125
17.4166848738
16.7859722295
17.0557857352
17.3404623436
17.5366454445
17.570633981
17.7347533535
17.9051329264
18.1601656872
18.4417071691
18.8142750694
19.2895847871
19.7776902483
20.1904567158
20.5113097995
20.8031510655
21.1257959172
21.4415671035
21.7051892624
21.8421175755
21.9411475396
22.1329015736
22.5264422596
23.3369150298
23.4620070106
19.055907889
15.0503630853
11.0317564945
0.230355211586
0.0066614998243
9.69792263765e-05
7.87935720649e-08
1.314746259e-10
9.26770671774e-12
0
0
0
0
0
0
0
0
1.28897995751e-15
4.34746254719e-13
6.50287731503e-11
3.77276116931e-08
5.26962145423e-05
2.85363469878
59.278219579
55.6019988627
64.0377125189
12.2474735664
12.4550571345
18.1291544258
15.1132993625
13.6155222118
12.6627379978
13.2978093113
15.2805269261
16.998093718
18.7843422403
17.1077397551
15.8246769296
13.8255814903
12.4610384387
15.009488975
13.5770803237
12.4605169007
12.0613406707
12.0253856208
12.2584024939
12.6446889564
13.2413569914
14.9818077829
19.0477513833
21.4097790388
20.4391768515
18.8629861339
19.8389392278
19.3713373902
17.0107468815
17.2460687064
17.5672950529
17.9255704392
18.0002917286
18.0461585314
18.0754528365
18.273512728
18.4807382769
18.7826648691
19.1586406988
19.6276080368
20.1607245321
20.6686261097
21.0147570844
21.3559091747
21.7986760479
22.2364790368
22.4971147216
22.5280068632
22.5297631246
22.6148901068
22.7821718668
23.0031833293
22.1106942054
15.1797706401
0.0823558726948
2.70091404002e-05
1.09213808884e-06
1.48909740716e-08
4.08350978414e-11
0
0
0
0
0
0
0
0
0
0
0
0
0
1.66085052802e-14
1.65041619555e-13
3.61806989438e-12
1.75435206101e-10
9.74231955382e-07
63.4893686474
0.0156316998816
12.6126837724
12.8068048242
20.25856576
15.3400914681
13.4838781357
13.0949463775
14.0833293018
14.2903459548
17.9465743944
19.469558829
17.5876586959
16.2888546605
14.4370782657
14.5141039921
15.5877816018
13.9559987023
13.0572037446
12.7129664578
12.4909348304
12.6282793345
12.9155912299
13.4437323731
14.9032681613
18.9109023372
21.7935810473
22.1101905814
18.0985711515
18.3106294312
17.4602893289
17.1100065405
17.4822894591
18.0840111027
18.4133103516
18.4796178394
18.5233868112
18.7055039206
18.6868324712
18.8691227588
19.1429574403
19.4929004973
20.0442134126
20.6323708468
21.1640689481
21.4627820388
21.8578641339
23.414926678
25.6156454242
26.2538082692
24.6889674633
24.2946073031
24.1812570652
23.8826101442
22.9960614356
20.6926546843
0.656826600044
2.9466273995e-12
2.97760349068e-09
4.85862832083e-11
0
0
0
0
0
0
0
0
0
0
0
0
0
0
0
0
0
0
2.56596199566e-13
1.73762708156e-12
3.20432840341e-10
78.0423574874
12.9544079411
13.1175433553
19.9759532365
14.4438939889
13.501875164
13.4586971536
14.9769902372
14.0456572241
18.7280500933
20.124211578
18.0581344209
16.729643631
14.8906546474
16.9272301007
16.4286110226
14.5443888474
13.7550296401
13.8100745874
13.1840577523
13.170996192
13.2895926081
13.6688518836
14.9817733074
18.7570659993
21.6388434158
23.2286470279
21.4298420449
20.0797449334
18.9666463563
17.4245170632
17.800551284
18.8467298545
18.7551854047
18.9270633426
19.4091050058
19.2206070849
19.2064497729
19.3720849366
19.6417217598
19.9709603184
20.3909633351
21.0295869604
21.7436598592
22.7577316785
24.2145013393
26.3433261428
27.9652498996
27.829849835
27.8072351716
28.7138844238
29.941534549
31.1444961429
30.1624786096
1.80908387635
0.000237771958958
3.22939894465e-06
0
0
0
0
0
0
0
0
0
0
0
0
0
0
0
0
0
0
0
0
0
0
7.89542369529e-13
0.0574671273391
13.3913847369
13.539028412
19.4725598369
13.8389673671
13.6860266487
13.741945539
15.7213529279
14.3705829752
19.364461462
20.7649446982
18.5352612102
17.1911072895
15.2799902519
17.5671949094
17.19766636
15.2085806368
14.4350698999
14.6371592201
14.0302192538
13.9433982028
13.8856783011
13.9107043059
15.2302491812
18.7241557864
21.3379092157
23.5783136495
22.6705925661
20.3769132747
17.7194905236
17.9603162833
18.4175276654
19.4143268057
19.8597363185
20.1110203909
20.2231353173
19.8131810112
19.7883994758
19.9765052787
20.2353173829
20.5787098642
20.9755696161
21.6865178076
22.879683872
24.8966048441
26.2405379821
26.5106645621
27.384802399
28.2068455556
31.2915464143
34.9076935213
39.9562631862
42.0704993973
2.39789210013
0.000413504198721
8.48118405969e-07
2.05345780547e-08
6.89276082905e-11
0
0
0
0
0
0
0
0
0
0
0
0
0
0
0
0
0
0
0
0
0
1.32685250658e-13
1.75554705815e-13
14.0896687121
14.2407307428
18.9309870024
13.9469649219
14.1844185944
14.1353734932
15.4941269187
15.0521112988
19.7651752483
21.3634063225
19.05301957
17.7122543263
15.8139000945
18.1660270987
17.907414604
15.9998803638
15.1981931836
15.454566109
14.8421272905
14.8681697569
14.7984369758
14.3290005139
15.6885715497
18.8609006568
21.1913533755
23.6745868381
23.1478167156
20.8297999179
18.0241483052
18.1204103453
19.1730768877
19.3065607811
19.5518590628
20.0999716995
21.1717471682
20.8121320805
20.6907906246
20.6487968567
20.8482210175
21.2848028407
21.8023260253
22.6091136611
25.0036479427
27.2823231105
27.3265632988
27.4569356414
28.9604995577
33.5573136708
39.6427519651
44.64789758
45.6359195102
0.0857086216436
3.54682319012e-06
1.16288692179e-09
7.29649179441e-12
1.47893975576e-11
2.2710995958e-12
0
0
0
0
0
0
0
0
0
0
0
0
0
0
0
0
0
0
0
0
0
9.80715628293e-15
4.45314149604e-14
15.1825989093
15.2753737195
18.9967581013
14.7960199499
15.3449861846
14.913899618
15.5741830922
16.4518255411
19.5927578875
21.7599937367
19.6442106526
18.3163750486
16.4706127843
18.8504529487
18.6497037093
16.9781694835
16.1798199184
16.4497459294
15.656408952
15.9043647699
16.07489891
15.0214939996
16.1806068341
19.15996527
21.2238547078
23.4735935427
23.3425301368
21.2758156491
20.4669654358
19.0203809042
19.6301195252
20.4266982434
21.4544345926
20.6026572543
21.0805704485
21.897097892
21.6382166423
21.7589333393
21.781252244
22.0416789702
22.6860224957
24.8828391155
28.3661779232
29.2244665753
28.7081116953
30.1445556121
35.9706187845
44.1879118691
49.9637480673
42.2963733732
0.00129853188329
1.21235657107e-08
8.29534331484e-11
0
0
0
0
0
0
0
0
0
0
0
0
0
0
0
0
0
0
0
0
0
0
0
0
0
0
0
16.7587585605
16.5540312582
19.5900719906
16.7462167579
17.391020992
16.1195598297
16.3889356165
18.5349956548
19.6126475138
22.2728722782
20.3719366427
19.0173300372
17.2304852618
19.5704046453
19.3862253112
18.0726417611
17.7245109216
17.7914429347
16.5574987055
17.0633298562
17.695371269
16.0924656058
16.5046311273
19.5249463619
21.4358557966
23.2573944368
23.5043305414
21.2762972294
21.651983981
20.6958329839
20.8158813413
19.755757461
20.6634944786
22.0728018395
21.9950971601
22.3918773231
22.5953712632
22.6833797147
22.9499902586
23.1883279762
24.6630872002
28.8201500703
31.4171759218
31.4737728121
32.0987466172
36.7548753976
45.589384736
51.3171690833
28.5208242654
1.15883234924e-05
2.02588353702e-08
9.27626240921e-11
0
0
0
0
0
0
0
0
0
0
0
0
0
0
0
0
0
0
0
0
0
0
0
0
0
0
0
0
18.4572336143
17.7474497797
20.2763121137
19.4366909893
19.0947708585
17.562608202
17.3081064845
19.6341716025
18.4132689346
22.6382967054
21.2213286284
19.8080526645
18.0863700954
20.3074310521
20.0685058764
18.9712149282
20.0216713907
19.4319437
17.5924951382
18.3951207491
19.0671451616
17.511517227
16.4496856537
19.4398241594
21.5651737771
23.0713615763
23.5271760087
21.2877062966
21.928231392
21.9998281515
22.0570501901
20.457046857
21.0157052289
21.6715093112
22.9195899388
23.6086272718
23.8124730444
23.8145059495
23.9926751309
24.9639929455
28.805940435
33.0069796835
34.6681054014
35.3163859675
38.0044785371
44.3016919625
46.8520278514
11.5026049243
3.12025648337e-05
4.51722957429e-08
1.58202094187e-10
0
0
0
0
0
0
0
0
0
0
0
0
0
0
0
0
0
0
0
0
0
0
0
0
0
0
0
0
0
19.2329931148
18.5868958122
20.6888081353
20.4207981278
20.098926654
18.9577161573
18.4538145053
21.0034165747
19.383138548
23.1378220547
22.0779619739
20.650821847
19.0315496377
21.0816219454
20.7769117885
19.729506555
20.938192501
20.4717576326
18.6218802009
19.7437518477
19.7237595851
18.2001408552
17.5580978107
17.7330609404
21.0390661362
22.5315033335
23.2750572105
21.2305767366
21.9355145672
22.4634773052
23.0241235848
22.5097275216
20.9952043969
21.5807767567
23.0612797947
24.4313844722
25.145935405
25.463789188
25.6410489091
28.7574267015
33.6965024897
37.0250574134
38.2444072017
39.6393087194
43.162651371
41.7378115022
16.3409226005
0.000164838612336
1.48486670295e-07
4.22897724297e-10
0
0
0
0
0
0
0
0
0
0
0
0
0
0
0
0
0
0
0
0
0
0
0
0
0
0
0
0
0
0
19.2334722617
19.1454058168
20.9570760144
20.5699992745
20.7520560835
20.0579986835
19.4678696941
22.3469570336
21.1059290899
23.8060832032
22.9944901791
21.5304044111
20.0589577959
21.9072481513
21.5637282683
20.6431825648
21.6840227133
21.3838818501
19.7382655091
20.7267509465
19.1036344965
18.8769247829
18.5660120183
18.8953517211
19.7913471783
20.6559171744
22.392588015
21.0811241961
21.3175666076
22.4237775393
23.4180578494
23.8621224181
22.5985684563
22.3040363579
23.028529486
24.3275853392
25.8746317488
27.175816204
28.6389753916
33.480387791
38.0821645314
40.5328041758
41.0617332994
41.5634951415
37.4891328564
25.7851746648
0.00111800829921
5.15776721912e-07
1.15538810581e-09
0
0
0
0
0
0
0
0
0
0
0
0
0
0
0
0
0
0
0
0
0
0
0
0
0
0
0
0
0
0
0
19.4571550959
19.5582892837
21.2248790567
19.420497789
21.0169181624
20.6564620979
20.1584514065
22.8988749575
21.9072947577
24.5216535784
23.9702209096
22.4242474063
21.1805174585
22.7721337625
22.4007970143
21.7002561578
22.4911856965
22.4087152292
20.9748105835
22.0959160428
20.4320592459
20.6150631758
19.7991321731
20.1432222334
21.7625806634
22.3504601253
22.0082727667
20.881271421
20.7144105651
22.3582937671
23.4086888799
24.0511174166
24.155365882
23.3684142014
24.6470194011
25.0551237249
26.4838711884
28.8343670496
32.4866536065
38.0076616184
41.8142281665
43.0721293764
41.1437108614
35.4427722676
30.1734981315
0.0423077602572
4.32801767131e-06
9.85294401068e-09
0
0
0
0
0
0
0
0
0
0
0
0
0
0
0
0
0
0
0
0
0
0
0
0
0
0
0
0
0
0
0
0
20.176491833
20.2498166448
21.4892516416
19.8278040164
21.2419443638
20.9712237024
20.6568981761
23.0370827272
22.4892842481
25.0493963938
24.9519635747
23.2799764374
22.3905332798
23.6363223366
23.2145546725
22.7346427128
23.2619209248
23.5286638582
22.2620830654
23.4558142363
22.2175586216
22.785769565
22.4414876476
20.9602784136
22.3419233766
23.3921093983
23.4526461285
20.7566761297
20.0162132785
22.2602266589
23.5510878945
23.473835966
23.7087278028
23.6471086008
24.7585978609
25.5402216941
27.2491133083
30.5979615394
36.4258804286
42.3399260585
45.0553266998
43.9367155398
36.0365738611
33.1723537113
19.5167700156
4.92098748582e-05
6.8659187333e-08
2.78414531114e-10
0
0
0
0
0
0
0
0
0
0
0
0
0
0
0
0
0
0
0
0
0
0
0
0
0
0
0
0
0
0
0
0
21.0896326572
22.3075056685
21.8946601285
20.849770689
21.7712259405
21.3486767387
21.143844599
23.157473901
23.0366599696
25.2138932349
25.9288814675
24.0657851345
23.4715493191
24.3262327931
24.0053142394
23.5032603946
23.4091912433
24.5609854437
23.6502850226
24.6374444051
24.2679427329
24.0518923646
23.7966045431
23.3331045049
22.4202016206
23.2740940965
24.4172786222
20.029171562
19.5153838306
21.4577719037
23.5766893495
24.1561072808
24.7134619348
23.6533736567
24.540524945
25.7705470469
27.6560841081
32.2356458732
40.203990346
46.342850907
47.7087093036
40.7875022773
36.3260205468
31.7743344625
0.0037118230071
4.65378199941e-07
1.18775710208e-09
0
0
0
0
0
0
0
0
0
0
0
0
0
0
0
0
0
0
0
0
0
0
0
0
0
0
0
0
0
0
0
0
0
21.7819020355
23.0313543987
22.6013118802
21.7734698553
22.4850785522
21.9292180423
21.7071028115
23.3732239289
23.5826577569
25.1038203184
26.8147907437
24.8544159563
24.1105110984
24.9018215167
24.9034451305
24.210112521
23.5326879078
25.2903327814
25.1271322717
25.6659368669
25.5822630579
25.6484490358
24.0867635877
24.0384993007
23.4931788694
25.0132348591
25.7775548298
22.3609357844
19.1134366003
20.3886378001
22.9329657844
24.4424179949
24.81569771
24.2870874892
24.1454865864
25.7255547813
27.5962180848
33.5157828483
43.686974185
50.2960549012
47.516614437
36.5500292037
35.8898836625
21.8506115461
1.59559253474e-05
1.37218678478e-08
4.61132687382e-11
0
0
0
0
0
0
0
0
0
0
0
0
0
0
0
0
0
0
0
0