/*--------------------------------*- C++ -*----------------------------------*\
| =========                 |                                                 |
| \\      /  F ield         | OpenFOAM: The Open Source CFD Toolbox           |
|  \\    /   O peration     | Version:  v1806                                 |
|   \\  /    A nd           | Web:      www.OpenFOAM.com                      |
|    \\/     M anipulation  |                                                 |
\*---------------------------------------------------------------------------*/
FoamFile
{
    version     2.0;
    format      ascii;
    class       volScalarField;
    location    "531";
    object      p;
}
// * * * * * * * * * * * * * * * * * * * * * * * * * * * * * * * * * * * * * //

dimensions      [0 2 -2 0 0 0 0];


internalField   nonuniform List<scalar> 
6400
(
0.152119782216
0.152122423857
0.152129940769
0.152144563911
0.152166102565
0.152194445553
0.152229603108
0.152272614403
0.152324130563
0.15238521714
0.15246144416
0.152555750586
0.152665417528
0.152790430792
0.152932617862
0.153094289521
0.153276761994
0.153479827507
0.153701641408
0.153937216772
0.154180934346
0.154433726196
0.154702243144
0.154993698052
0.155312757676
0.155659325185
0.156030038945
0.156422404798
0.156836108304
0.157271837573
0.157730115565
0.15820919282
0.158703211714
0.159206246488
0.159715768369
0.160228717231
0.160745031506
0.161271231284
0.16180611592
0.162340041222
0.16287409524
0.163421807461
0.163990264273
0.164571393591
0.165154622276
0.165732962605
0.166301110181
0.166855223745
0.167391859541
0.167908087766
0.168401697312
0.168867857379
0.169298763125
0.169684375686
0.170023822186
0.170323868667
0.170581871385
0.1707894234
0.170945616779
0.171059556737
0.171138569678
0.171188046515
0.171212931506
0.171222631539
0.171222398276
0.171207030503
0.171172245458
0.171124663355
0.17107454855
0.171026884857
0.170982353131
0.170939805354
0.170898460434
0.170860846194
0.170826946989
0.170797616085
0.170773507401
0.170757897697
0.170748015724
0.170743865617
0.152115891725
0.152118688373
0.152125474914
0.152139764444
0.15216271133
0.152192418017
0.152228020949
0.152269449663
0.152319129968
0.152380077956
0.15245596712
0.152549205807
0.15265910658
0.152785011635
0.152927383999
0.153087742174
0.153269496209
0.15347321673
0.153696402656
0.153932707583
0.154174549632
0.154425157028
0.154692922822
0.154984176206
0.155303581322
0.155650880404
0.15602183346
0.156414728339
0.156829354848
0.157265811644
0.157724092606
0.158203535267
0.15869857526
0.159201671841
0.159711340675
0.16022453703
0.160740594452
0.161267239103
0.161803243828
0.16233771724
0.162870316915
0.163418139554
0.163990480101
0.164574541222
0.165159229238
0.165739174096
0.166308953635
0.166865052531
0.167403524006
0.167919955343
0.168412171157
0.168879509678
0.169316348984
0.169704284468
0.170045254
0.170348446886
0.170604477
0.170808209796
0.170963376735
0.171075866986
0.171151598148
0.171200105963
0.171224620102
0.171234392808
0.171234426178
0.171218984066
0.171182123066
0.17113136918
0.171078290816
0.171028054275
0.170981457743
0.170937091854
0.170893914701
0.170854523508
0.170820345509
0.170791636556
0.170769239598
0.170754172978
0.170744634269
0.170741479623
0.152105009245
0.152109659397
0.152115750312
0.152128867055
0.152151063634
0.152184258994
0.152222937443
0.152263131092
0.152310269938
0.152369776973
0.152444887787
0.152537525064
0.152647590275
0.152774168206
0.152916575475
0.153073631628
0.153253128254
0.15346181166
0.153688128857
0.153923194031
0.154160907282
0.154406027626
0.154672449674
0.154965914656
0.155286064487
0.15563302495
0.156005102831
0.156399747564
0.15681586663
0.157253555002
0.157712572373
0.158192971785
0.158690200111
0.159192832636
0.159701071255
0.160216190442
0.16073223309
0.161257651288
0.1617947361
0.162332267042
0.162871326647
0.163423924097
0.163995703229
0.164579354259
0.165165467337
0.165747586379
0.166320573252
0.166880250309
0.167422585805
0.167943805815
0.168441029024
0.168910677152
0.169345318275
0.169736804418
0.170086075335
0.170390808323
0.170643972176
0.170845146549
0.170997889843
0.17110757631
0.171181313416
0.171226810277
0.171249442788
0.171260789739
0.17126197584
0.171243805879
0.171203117158
0.171147130624
0.171087129961
0.171030466583
0.170978411893
0.170929632675
0.170884393035
0.170844460542
0.170809931122
0.170781760544
0.170760982261
0.170747033437
0.170738444925
0.170735420978
0.152089655582
0.152094383047
0.152099443677
0.15211150248
0.152131039057
0.152164092771
0.152213333029
0.152253581233
0.152297119994
0.15235411297
0.152427958749
0.152520218006
0.152630728277
0.152757121135
0.152899450328
0.153061035733
0.153244904007
0.153451015749
0.15366944232
0.153893303476
0.154126546702
0.154374968213
0.154643609893
0.154937431382
0.155258507496
0.155606791212
0.155980630448
0.15637734715
0.156795620009
0.15723497243
0.157695990578
0.158177854039
0.158676516491
0.159182616182
0.159688059529
0.160199656074
0.160719387832
0.161244915074
0.161779340195
0.162320642874
0.162868107465
0.163427382333
0.164001910413
0.164587300748
0.165176121486
0.165761946037
0.166339476982
0.166904229435
0.167452078082
0.16797916062
0.168481818854
0.168955554349
0.169394136912
0.169791828536
0.170145750598
0.170451221057
0.170703461409
0.170902518421
0.171052208063
0.17115844044
0.171228721435
0.171270987499
0.171293545246
0.171307473769
0.171308647293
0.171286525222
0.171237735743
0.171171089303
0.171099527938
0.171032524299
0.170972993125
0.170919971766
0.170872389949
0.170829219627
0.170792372017
0.170765213127
0.170747072723
0.170733846012
0.170724935351
0.170721358194
0.152065659673
0.152066517745
0.152072749946
0.152085125941
0.152106840033
0.152137978914
0.152182885994
0.152227247019
0.152273657069
0.152331221243
0.152404103138
0.152496206385
0.15260767233
0.152739300919
0.152888991295
0.153051506661
0.153229099602
0.153422682471
0.153630275198
0.153851089839
0.154085418888
0.154334927882
0.154604780152
0.154899927623
0.155222317556
0.155572265698
0.155947947912
0.156347267049
0.156768252956
0.157210510149
0.157673463807
0.158158964934
0.158661986076
0.159165256125
0.159669468684
0.160179269187
0.160695910989
0.16122310731
0.161761025148
0.162307833251
0.162863089745
0.163429514988
0.164008794132
0.164597923971
0.165191018787
0.165782026386
0.166365564354
0.166936944688
0.167491923125
0.168026467656
0.168536431313
0.169016946887
0.169462285484
0.169866937188
0.170225929723
0.170533552353
0.170785813665
0.170983338469
0.17113046325
0.171233813815
0.171301515551
0.171342194217
0.171364716922
0.171377512986
0.171372669672
0.171344302545
0.171286346575
0.171205671137
0.171117390608
0.171035389893
0.170965664918
0.170906016514
0.170851230048
0.170801694006
0.170763924064
0.170738854744
0.170721984195
0.170707819837
0.170699682963
0.170697193477
0.152021678608
0.15202156863
0.152032069468
0.152044912695
0.152068924483
0.152102138077
0.152143982161
0.15218910209
0.152239652069
0.152299244029
0.152370792206
0.152463494107
0.152583430294
0.152723218955
0.152872371215
0.153029198738
0.153197329282
0.153382045339
0.153584935223
0.153803600257
0.154035811514
0.154285093895
0.154556332712
0.154853346201
0.155177598057
0.155528889231
0.155907203188
0.156309229972
0.15673403655
0.157179748188
0.157647199223
0.158134788049
0.158637239562
0.159144544513
0.159644623844
0.160148890768
0.160665846142
0.161196606876
0.161739588941
0.162292941912
0.162856127858
0.163430336113
0.164016079352
0.164610923066
0.165210024468
0.165807798638
0.16639890321
0.166978545831
0.167542397059
0.168086286598
0.168605786504
0.169095811969
0.169550578232
0.169963952613
0.17032952547
0.170641110194
0.170895321457
0.171093339358
0.171239995063
0.171342446399
0.171409067607
0.171448730698
0.171469928919
0.171474950599
0.171461881617
0.171421614833
0.171348837325
0.17124987247
0.171139997317
0.171038353352
0.17095400486
0.170880809055
0.170813008307
0.170758335402
0.170721497332
0.170698794509
0.170682297356
0.170669958304
0.170664281191
0.170662194815
0.151954597096
0.151959636117
0.151977122129
0.151996187124
0.152016845677
0.152050416464
0.15209418458
0.152141103213
0.152194776091
0.15225684588
0.152332242502
0.152428279523
0.152555551181
0.152694882408
0.152839743336
0.15298884249
0.153150710056
0.15333308303
0.153534112992
0.153747681455
0.153976844329
0.154226402248
0.154498784461
0.154797043833
0.155123341005
0.155478470743
0.155857670939
0.15626314215
0.156692403804
0.157145253175
0.157616719022
0.158104348076
0.158607408862
0.159109200186
0.15960764224
0.160111370809
0.160630654126
0.161166009974
0.161714999322
0.162275590502
0.162847109835
0.163429873757
0.164023600446
0.164626021531
0.165232931115
0.165839167171
0.166439519161
0.167029205015
0.167603888753
0.168159339103
0.168690960834
0.169193423848
0.169660517855
0.170085237617
0.170460192515
0.17077904344
0.171038881382
0.171241220286
0.171390835984
0.171494458682
0.171560040737
0.171596410016
0.171610767997
0.171603560505
0.171584687103
0.171529132275
0.171431300337
0.171305264573
0.171167667115
0.171039534499
0.170930319527
0.170833756679
0.170751587996
0.170694489509
0.170660339431
0.170641151607
0.170627663788
0.170620952156
0.170619867706
0.170619142635
0.151875477208
0.151885424493
0.151905550066
0.151933122154
0.151955887513
0.151990775087
0.152033310615
0.152082643852
0.152140344239
0.152200541111
0.152283524348
0.15239126094
0.152516934555
0.15265319669
0.152791472302
0.152933562988
0.153094466763
0.153277428096
0.153473603616
0.153682130363
0.153908883174
0.15415825484
0.15443163055
0.154732281784
0.155061576172
0.155419326002
0.155802638172
0.156207535619
0.156644398474
0.157106939546
0.15757967911
0.15806373502
0.158564524904
0.159063003109
0.159559105367
0.160066737768
0.160590712954
0.161131390286
0.161686928977
0.162255378406
0.162835835388
0.163428048248
0.164031194864
0.164642970276
0.165259515126
0.165876006428
0.166487433595
0.167089138026
0.167676871806
0.168246424606
0.168793106223
0.169311317799
0.169794297838
0.170234233295
0.170623123406
0.170954642109
0.171226028989
0.171438267745
0.171594435559
0.171699393007
0.171760452368
0.171786853091
0.171786484133
0.171765679247
0.171733291595
0.171670296721
0.171542813491
0.171376991887
0.171198672975
0.171029639144
0.170881276706
0.170754002242
0.170659387309
0.170602523026
0.170574829943
0.170563663683
0.17056113409
0.170563908553
0.170569836578
0.17057268189
0.151788499258
0.151801436716
0.151821939006
0.15184545205
0.151874566579
0.151917225649
0.15195988532
0.152010652676
0.152075339528
0.152140422317
0.152221165768
0.152337006242
0.152465159707
0.152596112734
0.152728701735
0.152870294438
0.153030411555
0.153210407588
0.153402012579
0.15360759221
0.153832499397
0.154080686066
0.154353449393
0.154655383458
0.154992155414
0.155351107768
0.155738871265
0.156151815216
0.15658985022
0.157053075408
0.157531379377
0.158021250162
0.158509562227
0.159002296459
0.159502349064
0.160015706826
0.160545515056
0.161092303124
0.161654964391
0.162231893126
0.162822030492
0.163424690447
0.1640386539
0.164661503409
0.165289532903
0.165918173077
0.166542669413
0.167158590969
0.167761867963
0.168348395582
0.16891348206
0.169451337383
0.169954769182
0.170415440689
0.170825097265
0.171177352155
0.171468696794
0.171697689124
0.17186286821
0.17196672326
0.172017939488
0.172028716499
0.172009236525
0.171966440171
0.171905373424
0.171827487808
0.171688111208
0.171469055827
0.171229642085
0.170997697667
0.170792006379
0.170628690517
0.170523296294
0.170471484209
0.170458346361
0.17046710849
0.170485603346
0.170503327333
0.170517858031
0.170525328693
0.151692323762
0.151707247864
0.151731127096
0.151753830885
0.151785156616
0.151828279484
0.151872693117
0.151923557126
0.151987944424
0.152068063328
0.152153310712
0.152269147965
0.152397925432
0.152525014494
0.152652052211
0.152796014407
0.152959005872
0.153133833408
0.153319931587
0.153522956881
0.153747213376
0.153995241642
0.154267741127
0.15456784691
0.154910638622
0.155277980427
0.155661586035
0.156081900389
0.156524772066
0.156992409616
0.157473136134
0.157959915187
0.15844629567
0.158934945611
0.159438197428
0.159957933861
0.160494497605
0.161048236623
0.161618667352
0.162204697055
0.162805311078
0.16341950294
0.164045695593
0.164681311508
0.165322704328
0.165965505481
0.16660524826
0.167237818158
0.167859410781
0.16846612336
0.169053410572
0.169615536436
0.170145247689
0.170634214397
0.171074267876
0.171458570033
0.171780871515
0.172034235947
0.172209207545
0.172309164609
0.172347327335
0.172338949265
0.172293814013
0.172218218069
0.172118030486
0.171994034036
0.171831873486
0.171588387001
0.171254282514
0.170924313581
0.170641053839
0.17043627917
0.170322182361
0.17028482625
0.170302829497
0.170351745998
0.170404523557
0.170442595916
0.170466622783
0.170477839523
0.151582817581
0.151597057303
0.151622937503
0.151650226089
0.151689097009
0.15172715429
0.151771973941
0.15182488752
0.151882172709
0.151969983272
0.15206778858
0.152184055353
0.152312834667
0.152439940709
0.152565861432
0.152710007146
0.152874032863
0.153045477225
0.15322736331
0.15342695462
0.153650027417
0.153899385636
0.154176310533
0.154475809979
0.154812988046
0.155193393009
0.155585041468
0.15600445296
0.156448581845
0.156909723466
0.157397644793
0.157886366723
0.158369619579
0.158859239963
0.159367029069
0.159893275734
0.160437140778
0.160998641203
0.161577581088
0.162173352638
0.16278522904
0.163412064206
0.164051928299
0.164702018312
0.165358695024
0.166017789072
0.16667516342
0.167327066291
0.167970017251
0.168600430047
0.169214145723
0.169805905859
0.170369104866
0.170896249284
0.171379700207
0.171811093145
0.172177221947
0.172463907632
0.172651889066
0.172750943935
0.172777337232
0.172745890178
0.172664910703
0.172544359392
0.172400675392
0.172216823699
0.171969897395
0.171667857756
0.17126567926
0.170784725412
0.170394485887
0.170138982547
0.170021564791
0.170018110164
0.170097701775
0.170219673656
0.170327364764
0.170389064066
0.170421273775
0.170433110777
0.151456802915
0.151467973854
0.151488175274
0.151523202271
0.151571692057
0.151609780313
0.151655491449
0.151713780588
0.151769530927
0.151853849517
0.151961224663
0.152080297673
0.152208350571
0.15233694813
0.152468876458
0.152614832166
0.152776987356
0.15294505374
0.153124165429
0.153320432296
0.153539570131
0.15378639863
0.154071963296
0.154382677695
0.154713915591
0.155093739179
0.155493744285
0.155909832099
0.156364002
0.15683027964
0.157309019246
0.157792219142
0.158276478913
0.158773606972
0.159287994517
0.159821138194
0.160372799319
0.160942846634
0.161531161121
0.162137404823
0.162761281516
0.163401836621
0.164056847112
0.164723152889
0.165397085539
0.166074734991
0.166752343932
0.167426526609
0.168094129936
0.168751989064
0.169396632149
0.17002393269
0.170629064469
0.171206722888
0.1717502355
0.172247118237
0.172669571915
0.17300847759
0.173224664784
0.173336640731
0.173356587962
0.173293268656
0.173157619495
0.172971655288
0.172796532128
0.172574343726
0.172190733868
0.171719475301
0.171158098656
0.170518600469
0.169988879484
0.16966968942
0.169560966338
0.169628328334
0.169825140207
0.170083102952
0.170282635541
0.170360924807
0.17039164544
0.170395786534
0.15131395364
0.151322395488
0.151334260326
0.151373551574
0.151422667497
0.151467676529
0.151516915096
0.151581182157
0.151643502022
0.151726476674
0.151837704782
0.151958483246
0.152085349633
0.152211860516
0.152351769489
0.152506187337
0.152666844829
0.152831999573
0.153009412444
0.153203781824
0.15341877666
0.153658840987
0.153943943902
0.154274795617
0.154612110063
0.154979690325
0.155391092169
0.155812759876
0.156257610806
0.15672770396
0.157207505314
0.157687951766
0.158173474744
0.158677291211
0.159199510064
0.159740554211
0.160300651574
0.160879898729
0.161478531727
0.162096302111
0.162733048157
0.163388262305
0.164059792131
0.16474409321
0.165437336515
0.166135933866
0.166836606586
0.16753629234
0.16823205665
0.168921178454
0.169601196488
0.170269996099
0.170926188006
0.171568637199
0.172191726702
0.172774632595
0.173260912122
0.173710788695
0.17400517595
0.17416470737
0.174188086943
0.174074178992
0.173848598928
0.173538154821
0.173409578378
0.173292655813
0.172678491754
0.171787358707
0.170910955893
0.170044984904
0.169364954426
0.168962720356
0.168886644182
0.169072480828
0.169470193333
0.169987383094
0.170346590874
0.170386942772
0.170385903771
0.170361108954
0.151155255767
0.151164981471
0.151181541479
0.151210597152
0.151254382719
0.151303912701
0.151357726551
0.151424954769
0.151498253288
0.151583036757
0.151697048449
0.151819246519
0.151946134738
0.152071366256
0.15221262558
0.152374921275
0.15253840664
0.15270416212
0.152881396134
0.153075177967
0.153288029396
0.153522311107
0.153801869228
0.154143168872
0.154495614188
0.154859977689
0.155274222737
0.155703953154
0.156143557122
0.156610066614
0.157083514233
0.157563009631
0.158057651448
0.158569967889
0.159100576291
0.159650311338
0.160219851465
0.160809138617
0.161418671753
0.162048937154
0.162699819512
0.163370839731
0.164060132819
0.164764077802
0.165478702211
0.166200779708
0.166927597005
0.167656295048
0.168383878403
0.169107930133
0.169827229139
0.170542672186
0.171258350607
0.171979725765
0.17270148935
0.173395178782
0.173959384497
0.17475470113
0.175144573908
0.175337600763
0.175298955808
0.174972025711
0.174402012191
0.17368578255
0.173468386703
0.173477395687
0.173271333493
0.172023276347
0.170397516252
0.169158130367
0.168185879935
0.167624867745
0.167661862154
0.16811153283
0.16888666585
0.169979059624
0.17068949933
0.170513206893
0.1704101763
0.170300583469
0.150976768191
0.150987788712
0.151013496044
0.151033220344
0.15107075902
0.151121479096
0.151178952074
0.151250588351
0.15133707845
0.151423080282
0.151538698032
0.151662579911
0.151790845747
0.151917899204
0.152060210359
0.152225694873
0.152392194396
0.152560583838
0.152739151344
0.152933073645
0.153145337917
0.153377431415
0.153647931828
0.153985770369
0.154361530116
0.154733316528
0.155135212615
0.155580020452
0.156028249381
0.156477657003
0.156943718428
0.157426643177
0.157928747961
0.158449935162
0.158989939275
0.159549344606
0.160128949063
0.160729348816
0.161350906705
0.161994378009
0.162660447645
0.163348690956
0.16405718491
0.164782319019
0.165520249625
0.166268348742
0.167024615384
0.16778621807
0.168549471431
0.169311639232
0.170072969882
0.170838394566
0.171618864898
0.172428530466
0.173267432819
0.174186461264
0.174418360232
0.174636411163
0.174893137237
0.175039215904
0.174988243073
0.17473650762
0.174330000898
0.173852048446
0.173466207603
0.173178223312
0.172477128769
0.171269592606
0.170001459352
0.168954958186
0.168201287376
0.167868317977
0.16800658281
0.168582518274
0.1695919965
0.171139082746
0.172008198887
0.170620572639
0.170305363472
0.170134854575
0.150774791003
0.150785216454
0.150809649062
0.150831280053
0.150866478348
0.150918588647
0.150977964973
0.151049748774
0.151148683292
0.151243919432
0.151360918821
0.151487275687
0.151618505902
0.151749964804
0.151894977297
0.152061562672
0.152230096128
0.152401707036
0.152582474255
0.152777178435
0.152989161774
0.15322088887
0.153485284208
0.153814777612
0.154204583128
0.154593319089
0.154986769899
0.155423880943
0.15588166814
0.156335149704
0.156795711531
0.157279105541
0.157787132648
0.158317081182
0.158866891887
0.159436456598
0.16002695016
0.16063914087
0.161273812993
0.161931680617
0.162613894581
0.163320656742
0.164049996288
0.164797950417
0.165560771354
0.166337174244
0.16712663365
0.167925779391
0.168728366887
0.169530743037
0.170335694715
0.171151366178
0.171992366822
0.172874539931
0.173778913212
0.174031185246
0.174282063612
0.174503469003
0.174711628256
0.174825417554
0.174764666301
0.174516684312
0.174110646199
0.173604154118
0.173076149345
0.172528625252
0.171794504227
0.170831068355
0.169785730034
0.16882173531
0.168058541966
0.167625974836
0.16760222831
0.167998683749
0.168756837838
0.169739710532
0.170159176396
0.170967481617
0.171248995286
0.169549592487
0.150551227914
0.150560867917
0.150586209053
0.150608297918
0.150643932721
0.15069648369
0.150757321585
0.150826359004
0.150927297505
0.151036962979
0.151159982721
0.151290379292
0.151426294535
0.151565855617
0.151714272898
0.151881909621
0.15205235999
0.152227685699
0.152411198196
0.15260732561
0.152819402805
0.15305051651
0.153310768479
0.153630330801
0.154019649486
0.154434340954
0.154835962694
0.155259318346
0.155710568596
0.156164969072
0.156627455226
0.157116403939
0.157631395008
0.158169980769
0.158729998079
0.15931068608
0.159912680767
0.160537470814
0.161186059124
0.161859500013
0.162559014058
0.163285338371
0.164037126489
0.164809931182
0.165599386603
0.166405966408
0.16723195004
0.168073122349
0.16891864067
0.169763387287
0.17061364825
0.171479193579
0.172377582953
0.173272075903
0.173568145453
0.173843568375
0.174076065349
0.174264802986
0.174399964404
0.174431811605
0.174309462676
0.174020750809
0.173585806455
0.173042272175
0.172429069522
0.171747023251
0.170935969004
0.169972147429
0.168935461982
0.167958180113
0.167131029027
0.166550909979
0.166313480869
0.166436036543
0.166862754881
0.167508017293
0.168184588863
0.169185395347
0.169814187441
0.17214827266
0.150308419012
0.150316536039
0.150337739933
0.150363026816
0.150403464274
0.150456624712
0.150520413218
0.150588602632
0.150688628638
0.150806947029
0.150935464199
0.151069544504
0.151208884177
0.151359501876
0.151514701656
0.151683657161
0.151856674167
0.152037130361
0.152224378232
0.152422710245
0.15263547302
0.15286588817
0.153122944826
0.153434009885
0.153817218647
0.15424778823
0.154669117793
0.155087661626
0.155526677803
0.155976046502
0.156441942005
0.156936561249
0.157458795771
0.158005927426
0.158576657084
0.159169722869
0.159784669724
0.160422780706
0.161086346217
0.161776282818
0.162494175707
0.163241628829
0.164017704475
0.164817379424
0.165633932551
0.16647066582
0.167338684094
0.168231690273
0.169122841544
0.170009069068
0.170904855823
0.171822158455
0.172728776458
0.173046362376
0.173331546748
0.173582185108
0.173780257535
0.173913162631
0.173964777424
0.173905085323
0.173703420632
0.173349021724
0.172852509675
0.172236271298
0.171522340962
0.170716323035
0.169803234081
0.168784856878
0.16771345013
0.166674940033
0.165727751766
0.164926716691
0.164353465497
0.164043436691
0.163978886441
0.164145003888
0.164537808082
0.165460626936
0.167739514026
0.17001544211
0.150049451929
0.150056294825
0.150072170193
0.150101219827
0.150145751364
0.150199288035
0.150265359459
0.150336831506
0.150433680999
0.150556430442
0.150688540928
0.150825218842
0.150965501674
0.151122386762
0.151289858643
0.151462860158
0.151639281524
0.151825746946
0.152019239199
0.152221507992
0.152436313997
0.152666138207
0.152920805183
0.153224734048
0.153596876965
0.154025296568
0.154467295569
0.154896667429
0.155331671493
0.155777224949
0.156241260677
0.156739478897
0.15726871988
0.157822879647
0.158405183486
0.159011743489
0.159639827414
0.160292616952
0.160972500892
0.161680751349
0.162418432423
0.163187571972
0.16398857564
0.164818199479
0.165671388752
0.166550544752
0.167462123023
0.168392456778
0.169324180679
0.170262606192
0.171211075167
0.172178868392
0.172500104971
0.172776265505
0.173028569442
0.173235071745
0.173371302119
0.173422040217
0.173373069886
0.173205105155
0.172899334959
0.172447879372
0.171856316143
0.171138467023
0.170308818172
0.169375349017
0.168339431544
0.167210955877
0.166023399801
0.164827657688
0.163672945033
0.162562202662
0.161527097067
0.160606413821
0.159771111385
0.158969394732
0.15814811176
0.157312673398
0.156337788288
0.154060132993
0.149775491521
0.149782048535
0.14979634356
0.149829179
0.149873668362
0.149925563494
0.149989714481
0.150066107341
0.150159658017
0.150284594323
0.150419533604
0.150558719777
0.150700865631
0.150859007721
0.151036931342
0.151217433209
0.151399153302
0.151591055654
0.151791613167
0.152000378728
0.152219960943
0.152450179569
0.152703050615
0.153001822438
0.153363365699
0.153783744413
0.154233832883
0.154676790053
0.155109931056
0.155553183724
0.156022132396
0.156521866651
0.157055698324
0.157618944633
0.158213364624
0.158833574154
0.159475992092
0.160144582881
0.16084187902
0.161569638821
0.162329021345
0.163122213473
0.163952793337
0.164822561406
0.16572363884
0.166643156555
0.167584240661
0.168546505574
0.169532708447
0.170543312283
0.171610445621
0.171937947211
0.172198583479
0.172440957281
0.172644751329
0.172779592566
0.172826682145
0.172773176912
0.172607123203
0.172315404407
0.171886381516
0.171314825895
0.17060361793
0.169761141016
0.168796967664
0.167718376034
0.16653067675
0.165243393852
0.163876393165
0.162456647761
0.161010925904
0.159496298359
0.157873222201
0.156138609122
0.154200298877
0.151875537715
0.148902757371
0.14502109956
0.140276564775
0.139695318556
0.149483769668
0.149490569936
0.149505535831
0.149542583808
0.149586446503
0.149636065627
0.14969609776
0.149775500465
0.149864246439
0.149989837323
0.150127664171
0.15026952707
0.150414599515
0.150575361445
0.150759185799
0.150947374806
0.151136054788
0.151333876597
0.151540311766
0.151756245608
0.151983354569
0.152216081805
0.152467492414
0.152762627737
0.153115259673
0.153525565895
0.153975293073
0.154426628338
0.154869571696
0.155312861247
0.155784803009
0.156288596279
0.156824051375
0.157389814108
0.157992999286
0.158630078421
0.159290209885
0.15997663994
0.160692199305
0.16144024239
0.162223495899
0.163044909084
0.163913899143
0.164832615217
0.165775775912
0.166726068955
0.167697767778
0.168714262836
0.169793317903
0.170977427239
0.171332761763
0.171591392057
0.171827513334
0.172024911316
0.172152375933
0.172190934685
0.172127486573
0.171951177498
0.171652419533
0.171222274966
0.170653462061
0.169942493079
0.1690905479
0.168102146303
0.166982712659
0.165736594358
0.164366892282
0.162877438111
0.161274213547
0.159561875366
0.157736339555
0.155748962779
0.153458818889
0.150748001859
0.147426784935
0.143060408489
0.136800127907
0.126855137192
0.108101118517
0.0624623322948
0.149167772264
0.14917477206
0.149192323216
0.149234148932
0.149278141467
0.149326157037
0.149384235083
0.14946375924
0.149547224946
0.14967129041
0.149811687774
0.149956179452
0.150104237251
0.150267724262
0.150455513633
0.150650750882
0.150848445445
0.151053047152
0.151264567535
0.151486962434
0.151723199393
0.151961466631
0.152211515697
0.152503724486
0.152849847067
0.153249343196
0.153692227601
0.154141633844
0.154597164018
0.155054047761
0.155526955448
0.156029249973
0.156569955093
0.157144913274
0.157750326236
0.158397434539
0.159076742963
0.159783348266
0.160520749709
0.161290997221
0.162099048376
0.162956125662
0.163876439744
0.164844651241
0.165821217097
0.16680308033
0.167833761953
0.168955150533
0.170211589918
0.17063129198
0.170916558361
0.171169043691
0.171371343243
0.171495421209
0.171525464275
0.171450073506
0.171259416794
0.170945293381
0.170500870458
0.169920244948
0.169198725497
0.168333664595
0.167324761059
0.166173251893
0.164880402858
0.163446087825
0.161868040798
0.160141647122
0.158258830842
0.156203892359
0.153944792952
0.151426152632
0.148444599493
0.144718371384
0.139954066153
0.133529651348
0.124204645484
0.109575931881
0.0847965439468
0.0434921185846
0.148818486533
0.148825654565
0.148845749536
0.148892486234
0.148936468311
0.148986153177
0.149044105513
0.149121961965
0.149203352983
0.149327023762
0.149470039082
0.149617020285
0.149767865343
0.149933556125
0.150123595477
0.150323613481
0.150532198124
0.150745220968
0.150962208935
0.151190420093
0.151435397914
0.15168344418
0.151933580586
0.152221763806
0.152563609201
0.15295396808
0.153388102176
0.1538311771
0.154287369443
0.154761451847
0.155249405198
0.155753677344
0.156285717987
0.156864303427
0.157483037002
0.158139413555
0.158834094938
0.159561017138
0.160321189498
0.161117199718
0.161957054544
0.162862580766
0.163839796827
0.164851290989
0.165868542223
0.166913275852
0.168053591938
0.169315140029
0.169821203217
0.170141648914
0.170437954824
0.170665441431
0.170800490065
0.170831427249
0.170748894971
0.17054515545
0.170214089173
0.169750760594
0.169150973463
0.16841098378
0.167527520844
0.16649800198
0.165320480507
0.163993006388
0.162512509169
0.160873532304
0.159067002159
0.157078777564
0.154887065315
0.152457343398
0.149733423252
0.146624344691
0.142972528212
0.138395189107
0.132406672377
0.124405506421
0.113267603498
0.0971154053041
0.0726664221647
0.0389150675199
0.148428554074
0.148437674255
0.148458895624
0.148505222818
0.148552490813
0.148609054478
0.148670815796
0.148750067511
0.148836297123
0.148955876079
0.149100826792
0.149250280508
0.149403909141
0.149571533906
0.149762674303
0.149963853361
0.150179545721
0.150404247036
0.150629540468
0.150864881157
0.151116846866
0.151377811283
0.151635984892
0.151916893192
0.152254220226
0.152637654664
0.153063199838
0.153500197334
0.153950851451
0.154432308818
0.154936880523
0.155455510702
0.155987645554
0.156559256821
0.157179965685
0.157848907393
0.158560416423
0.159308615932
0.160091569358
0.160916071675
0.161801121966
0.162767013512
0.163798822448
0.164859850506
0.165949910311
0.16711077787
0.168410736734
0.169056357906
0.169365660401
0.169662783614
0.169910229166
0.170063630335
0.170105627267
0.170025341773
0.169815101705
0.169470577834
0.168989185431
0.168368850426
0.167607487943
0.166702763802
0.165651974405
0.164451962786
0.163098864718
0.161587497331
0.15991037676
0.158056445677
0.156009504004
0.15374606443
0.151231997089
0.148417037296
0.145226126168
0.141546284969
0.137210655676
0.131916933244
0.12509426001
0.116037677524
0.103891507973
0.0872930712788
0.063827712853
0.0341334168021
0.148002773329
0.148015211115
0.148036559481
0.148076838746
0.148130301323
0.148194208128
0.148262547464
0.14834741553
0.148444102562
0.148558898015
0.148703133353
0.148854392669
0.149010916859
0.149180713581
0.149373256262
0.149575965114
0.14979331831
0.15002807804
0.150264547498
0.150509691003
0.150768676501
0.151042212977
0.15131795351
0.151602082418
0.151927133671
0.152302145336
0.152718960976
0.153150214673
0.153593453737
0.154073226588
0.154585390347
0.155123153045
0.155667349855
0.156235222569
0.156850903285