/*--------------------------------*- C++ -*----------------------------------*\
| =========                 |                                                 |
| \\      /  F ield         | OpenFOAM: The Open Source CFD Toolbox           |
|  \\    /   O peration     | Version:  v1806                                 |
|   \\  /    A nd           | Web:      www.OpenFOAM.com                      |
|    \\/     M anipulation  |                                                 |
\*---------------------------------------------------------------------------*/
FoamFile
{
    version     2.0;
    format      ascii;
    class       volScalarField;
    location    "458";
    object      p;
}
// * * * * * * * * * * * * * * * * * * * * * * * * * * * * * * * * * * * * * //

dimensions      [0 2 -2 0 0 0 0];


internalField   nonuniform List<scalar> 
6400
(
0.154897428915
0.154899815558
0.154906585441
0.154919682961
0.154938806917
0.154963801827
0.154994699418
0.155032511447
0.15507767663
0.155130916963
0.155197471091
0.155280073839
0.155375924842
0.155485037431
0.155609167791
0.15575045005
0.155909930412
0.15608725579
0.156280739608
0.156485670167
0.156696436367
0.156913587591
0.15714314296
0.157391779266
0.157663907493
0.157959382771
0.158274902917
0.158608060864
0.158958581938
0.159327136506
0.159714242896
0.160118255154
0.160533524265
0.160954385381
0.16137853862
0.161802819146
0.162226861902
0.162657238589
0.163092888819
0.163524213329
0.16395233942
0.164390700872
0.164846399872
0.165311796616
0.165777343666
0.166237021252
0.166686293704
0.167122091591
0.167541733121
0.167942992969
0.16832435288
0.168681710687
0.169008684933
0.169296821324
0.169545903161
0.169762969975
0.16994613448
0.170088427058
0.170189872977
0.17025880542
0.170301618352
0.170322993749
0.170329148466
0.170322912285
0.170300862994
0.170251003009
0.170171812827
0.170079751096
0.169992312901
0.16991505364
0.169846756068
0.169784109539
0.169724875614
0.169671725708
0.169624055058
0.169582732268
0.169548495852
0.169526121579
0.169511821997
0.169505806983
0.154893886919
0.154896403867
0.154902479536
0.154915284934
0.154935782806
0.154962115769
0.154993461537
0.155029774351
0.155073201879
0.155126365752
0.155192608598
0.155274139768
0.15537022744
0.155480245817
0.155604617623
0.155744661129
0.155903494223
0.156081506066
0.156276436694
0.15648225856
0.156691263285
0.156906272656
0.157135056605
0.157383423638
0.157655885964
0.157952143046
0.158267911477
0.158601623233
0.158953118377
0.159322465137
0.159709601628
0.160114019091
0.160530407284
0.16095140635
0.161375825438
0.161800423888
0.162224201485
0.162655035069
0.163091761065
0.16352341539
0.163949611874
0.164387824124
0.164847611945
0.165316025579
0.165783006671
0.166244227563
0.166694991803
0.167132597362
0.16755384655
0.167955041325
0.168334774924
0.168693221633
0.169026204146
0.169316399698
0.169566712827
0.169786747179
0.16996795936
0.17010659923
0.170206845579
0.170274304908
0.170314469617
0.1703348508
0.17033966145
0.170332539316
0.170309865427
0.170259530411
0.170177475414
0.170082315028
0.169992392736
0.169912947295
0.169842945638
0.169778740486
0.169717761941
0.16966273761
0.169614990449
0.169574592525
0.169542686539
0.169520913291
0.169506997083
0.169502346409
0.154884030381
0.154888242971
0.154893638754
0.154905375429
0.154925218891
0.154954783361
0.154989030178
0.155024271355
0.155065386822
0.155117250364
0.155182782269
0.155263731738
0.155359979559
0.155470666586
0.155595141682
0.155732019352
0.155888793505
0.156072072783
0.156270275231
0.156475027821
0.156680029561
0.156889513822
0.15711687335
0.157367507486
0.157640715212
0.157936619089
0.158253596875
0.158589156934
0.158942236023
0.159312930643
0.159700918441
0.16010639406
0.160525180424
0.160945818463
0.161368914647
0.161795724054
0.162219436513
0.162648883254
0.16308661266
0.163521096195
0.163953670565
0.16439649666
0.164855246797
0.165322938079
0.165791081371
0.16625415757
0.166707823354
0.167148680111
0.167573458754
0.167979144161
0.168363614421
0.16872417159
0.169054627329
0.169348041629
0.169606311912
0.169827654835
0.170006120793
0.170142403821
0.170240308342
0.170304926592
0.17034259134
0.170360123176
0.170361925066
0.170354061135
0.170329451092
0.170274374247
0.170189633345
0.170090629029
0.169994087702
0.169908479686
0.169833369224
0.16976524609
0.169703183161
0.169648558707
0.16960091088
0.169561382129
0.169531516578
0.169510940107
0.169498110171
0.169493495884
0.154870294834
0.154874543927
0.154878909809
0.154889679622
0.154907127587
0.15493655221
0.154980615738
0.155015862789
0.1550537863
0.155103368419
0.15516776062
0.155248365309
0.155345035339
0.155455519374
0.155580076857
0.155721864225
0.155883349415
0.156064307998
0.156255035675
0.156448711133
0.156649138102
0.156861871215
0.157091430706
0.157342385965
0.157616580359
0.15791392105
0.158232802119
0.158570568427
0.158925954296
0.159298456463
0.159688681615
0.160095816476
0.16051621292
0.160940847451
0.161361246279
0.161784439599
0.162212094568
0.162641398761
0.163075829888
0.163513725925
0.163954481407
0.164403704356
0.16486486709
0.16533399768
0.165804505807
0.166270869366
0.166728612868
0.167174040655
0.167603804151
0.168014818079
0.168404227578
0.168768480344
0.169102532279
0.169401802998
0.169664333813
0.169886281005
0.170064042616
0.170198497266
0.170293570229
0.170354725421
0.170388505164
0.17040145481
0.170399726639
0.170389850727
0.170362503463
0.170303852506
0.170210958848
0.170101530089
0.16999406575
0.169899043968
0.169817921997
0.169747589861
0.169685043765
0.169627791896
0.169577827974
0.169539682479
0.169512935426
0.169492553599
0.169478517898
0.169472772629
0.154848891676
0.154849517516
0.154854909745
0.154865949045
0.154885358389
0.154913047993
0.15495302481
0.154992148627
0.155032720132
0.155082937363
0.155146504275
0.155227000634
0.155324605858
0.155440395565
0.155572457315
0.155715472413
0.155871226589
0.156040171864
0.156220276713
0.156410998918
0.156612594176
0.156826371393
0.157057102714
0.157309410652
0.157585006871
0.157884168855
0.158205056486
0.158545626612
0.158903896971
0.159279570201
0.159671978325
0.160083177131
0.16050845432
0.160930278233
0.161349785688
0.161771219017
0.162195310105
0.162626004516
0.163063667517
0.163506737708
0.163954899369
0.164410852028
0.164876356404
0.165348832956
0.165823161341
0.166294157662
0.166757279166
0.167208648552
0.167644822432
0.168062580373
0.168458637489
0.168829117224
0.169169428964
0.169475192671
0.169742475943
0.16996663648
0.170144766987
0.170278112097
0.170370891424
0.170428891567
0.170458757238
0.170467131285
0.170460184356
0.170444064288
0.170408230188
0.170342098189
0.170239656616
0.170116691025
0.169993872532
0.169886082302
0.169797770802
0.169723682963
0.16965532239
0.169592022559
0.169541597332
0.169505782039
0.1694794525
0.169455982453
0.169441588821
0.169436673863
0.15480935454
0.15480907698
0.154818420263
0.15482980341
0.154851232388
0.15488090368
0.154917941027
0.154957823941
0.155002196336
0.15505433508
0.15511666064
0.155197862495
0.155303907006
0.155427723373
0.155559489371
0.155697237227
0.155843953927
0.15600438962
0.156180199157
0.156369086819
0.156568632452
0.156782169304
0.157014298178
0.157268535095
0.157546113272
0.157846759547
0.158170570202
0.158514062271
0.158876435699
0.159255780574
0.159653187461
0.160066938208
0.160491917773
0.160918418475
0.161333727208
0.161749253608
0.162173447572
0.162607484258
0.163049948811
0.163499202703
0.163954829337
0.164418052784
0.164889512439
0.165367185517
0.165846929464
0.166323990994
0.166793876108
0.167252629596
0.167696758077
0.168122949681
0.168527696343
0.168906942454
0.169256043499
0.169570040831
0.169843704165
0.170072024562
0.170252587759
0.170386909855
0.170479290714
0.170535463756
0.170561740432
0.17056470479
0.170549960451
0.170520759685
0.170473014782
0.170391372469
0.170272117493
0.170131912532
0.16999083699
0.169868155446
0.169769920765
0.169685329029
0.169605459174
0.169538318763
0.169489434786
0.169455249485
0.169426699406
0.169402370942
0.169388852088
0.16938317929
0.154748920959
0.154753363568
0.154769239545
0.154786281262
0.154804521134
0.154834387919
0.15487332572
0.154914737121
0.154961996875
0.155016450797
0.155082505942
0.155166904592
0.155280241581
0.155403891847
0.1555317051
0.155662031543
0.15580272268
0.155961189786
0.156135608189
0.156319647714
0.156516299137
0.15673022111
0.156963555303
0.157219095096
0.157498833457
0.157803660434
0.158128562947
0.15847590741
0.158842989426
0.159229954962
0.159631904259
0.160046124855
0.160472254618
0.160893222519
0.161306810537
0.161721592719
0.162147996427
0.162586465359
0.163034681773
0.163490787458
0.163954238032
0.164425433247
0.164904260306
0.165388852581
0.165875654135
0.166360300633
0.166838433201
0.167306136233
0.167759954567
0.168196570936
0.168612368933
0.169003099194
0.169363735673
0.1696885391
0.169971425282
0.170207278336
0.170393994716
0.170533024021
0.170628073422
0.170683759099
0.170705403806
0.170699311292
0.170671232112
0.170622716136
0.170560664904
0.170457957527
0.170311280883
0.170146780309
0.169984337028
0.169842540098
0.169725397022
0.169621448135
0.169530544032
0.169463219543
0.169417228237
0.169384178315
0.169354419923
0.16933213009
0.169320803004
0.16931484362
0.154677812101
0.154686726468
0.154705139878
0.154730128644
0.154750241213
0.154781071329
0.1548188758
0.154862423119
0.154913433215
0.154966059814
0.155039301995
0.155135065804
0.155246946494
0.155367902363
0.155489361779
0.155612912136
0.155752888853
0.155912353307
0.156082208456
0.156261496511
0.156455963208
0.156669895039
0.156904381127
0.157162465607
0.157445392633
0.157753078383
0.158082531816
0.158429536779
0.158804836211
0.159202158078
0.159605526509
0.160016583226
0.160441006565
0.160858591606
0.161269601963
0.161688344694
0.162119389278
0.162563051408
0.163017576979
0.163481152525
0.163953006927
0.164433008964
0.16492053691
0.165413678988
0.16590918786
0.166403009127
0.166890985887
0.167369358434
0.167834812677
0.168284116329
0.1687136276
0.169118890148
0.169494403657
0.169833715828
0.17013023553
0.170378872109
0.1705775111
0.170726656595
0.170827931377
0.1708832569
0.170896672555
0.170874719023
0.170823751245
0.170749803046
0.170662689799
0.170542078377
0.170362807471
0.170163091027
0.169969421987
0.169797270587
0.169649917267
0.169522672132
0.169425140967
0.16936098358
0.169320837376
0.169291553604
0.169266789584
0.169248429497
0.169240382812
0.169236354622
0.154599836907
0.154611546804
0.154630341329
0.15465139574
0.154677395444
0.154715594045
0.154753304735
0.154798097907
0.154855576564
0.154912803786
0.154983785693
0.15508743274
0.155201771117
0.155317721315
0.155433731515
0.155556888242
0.15569629358
0.155853133266
0.156018727505
0.156195368523
0.156388232957
0.156601168122
0.156835260737
0.157094809153
0.157385644468
0.157694759139
0.158029168974
0.158384808433
0.158761725677
0.159159928453
0.159569442399
0.159987088883
0.160398806582
0.160810681643
0.161225795442
0.161650304759
0.16208716762
0.162536843241
0.162998275461
0.16346995877
0.163950955782
0.164440719112
0.164938249847
0.165441515364
0.165947389402
0.166452045043
0.166951584136
0.167442510289
0.167921749791
0.168386254913
0.168832458593
0.169255794763
0.169650385292
0.170009317586
0.170325793222
0.170594723038
0.170813321516
0.170979378037
0.171090197704
0.171143873884
0.171144679656
0.171101201307
0.171020912943
0.170910006736
0.170776492725
0.170623473269
0.170421567625
0.170177158368
0.169937551806
0.169719148487
0.169529742128
0.169379038854
0.169279231136
0.169223863876
0.169196956959
0.169180991367
0.169167626986
0.169154957471
0.169149386703
0.169147572329
0.154513853912
0.154527504184
0.154549433756
0.154569805887
0.154597677603
0.154636370374
0.154675548806
0.154720385404
0.15477725483
0.154848706261
0.154924031641
0.155027652153
0.155142626683
0.155254726486
0.155365399268
0.155490984095
0.155633474905
0.155785385749
0.155945826647
0.156120249355
0.156312750434
0.156525689791
0.156759757745
0.157017782443
0.157314998419
0.157632857422
0.157963280871
0.158327135563
0.158709417003
0.159112654761
0.159524974537
0.159939781484
0.160349847251
0.160757694544
0.16117622938
0.161607200958
0.162050827405
0.162507392004
0.162976414149
0.163456858718
0.163947808574
0.164448393713
0.164957259704
0.165472199962
0.165990115339
0.166507350474
0.167020294726
0.16752580858
0.168021159281
0.16850359497
0.168969803275
0.169415326213
0.169834240056
0.17021954551
0.170564494772
0.170863755588
0.171112680102
0.171303077827
0.171426390382
0.171478200566
0.171465268365
0.171397468248
0.171279938655
0.171117267443
0.17091781497
0.170695673941
0.170458669569
0.170184113475
0.169875479123
0.169588300473
0.169346741495
0.169173225034
0.169076277064
0.169040865154
0.169043277694
0.169057127073
0.169060443083
0.169050712774
0.16904411805
0.169041560424
0.15441618533
0.154429271626
0.154452986478
0.154477752588
0.154512711111
0.154546378788
0.154585792523
0.154632500577
0.154682505227
0.154761023942
0.154848279257
0.154952290051
0.155067282236
0.155179191893
0.155288768574
0.155414565203
0.155558235366
0.155706949489
0.155863511001
0.15603487768
0.156226592938
0.156441047511
0.156679679462
0.156937473092
0.157229329777
0.157560982024
0.157899928882
0.158263350023
0.158647324434
0.159044272085
0.159464734024
0.159881786471
0.160288779627
0.160697854965
0.161121223778
0.16155888308
0.162009894936
0.162474219957
0.162951627947
0.163441523496
0.163943246089
0.164455763407
0.164977349686
0.16550554539
0.166037214189
0.166568858737
0.167097188342
0.167619465719
0.168133373115
0.168636610817
0.169126375735
0.169598764567
0.170048368348
0.17046864011
0.170853025043
0.171195054066
0.171486115882
0.171707401949
0.171850822784
0.171909243272
0.171888734408
0.171795551367
0.171630374321
0.171398676488
0.171114214721
0.170793029226
0.170460247632
0.170127633919
0.169770770896
0.169380517539
0.169072562623
0.168873536166
0.168788825099
0.168795714836
0.168859309501
0.16892973329
0.168953701488
0.168931795741
0.16891821684
0.168911277636
0.154304059514
0.154314288608
0.154332531257
0.154364477173
0.154408631577
0.154442020458
0.154482089541
0.154533699371
0.154582187531
0.1546572458
0.154753577111
0.154860161402
0.154974384574
0.155087518945
0.155202782084
0.155330317105
0.155472194506
0.155617681165
0.155771717706
0.155940130243
0.156128373496
0.156340589303
0.156587974937
0.156857277409
0.157143683573
0.157475310772
0.157822982105
0.158183332541
0.158578476803
0.15898133127
0.159392959485
0.159804409299
0.160212502105
0.160629612883
0.161059920316
0.16150475589
0.161963759967
0.162436725455
0.162923470048
0.163423620814
0.163936912574
0.164462472908
0.164998235491
0.165541327615
0.1660885183
0.166636500397
0.167182326449
0.167723656032
0.168258607884
0.168785483582
0.169302398051
0.169806690528
0.170294477194
0.170760404216
0.171197620565
0.171595281064
0.171939498477
0.172199075797
0.172388851505
0.172480536719
0.172468753265
0.172348020749
0.172119415824
0.171795098076
0.171399754142
0.170949400181
0.170468603504
0.170013472351
0.169543596944
0.169049957765
0.168656664101
0.168423928351
0.168366634997
0.168458663367
0.16864539504
0.168828907268
0.168874582051
0.168792299752
0.168767237872
0.168754995957
0.154177161623
0.154184782729
0.154194991565
0.154230959058
0.154275510299
0.154315327167
0.15435862167
0.154415672304
0.154470252206
0.154543876773
0.154643834284
0.154751894346
0.154864814719
0.154975731484
0.155098521012
0.155234188453
0.155374416447
0.155517098564
0.155669610358
0.155836433328
0.156020991376
0.156226978417
0.15647392553
0.156763613564
0.157056434578
0.157376125649
0.157736069085
0.158102640029
0.158488877571
0.158896356458
0.159309490889
0.159718421438
0.160128046658
0.160552291189
0.160990812897
0.161443899579
0.161911634688
0.16239400172
0.16289115371
0.163402740044
0.163928568657
0.164468181205
0.165019522961
0.16557924316
0.166143833856
0.166710192321
0.167275761833
0.167838515551
0.168396899551
0.168949933506
0.169497147302
0.170038290775
0.170572852677
0.171097510425
0.17160279305
0.172063438702
0.172472032563
0.172779924513
0.173091753025
0.173285063446
0.17331234405
0.173154586709
0.172835384124
0.172384115775
0.171847248415
0.171221354628
0.170519021518
0.169843557292
0.169190584141
0.168534602365
0.168052174624
0.167757541919
0.167752072383
0.167993889137
0.16841871491
0.16884390405
0.168902861653
0.168595071161
0.168578338926
0.168566024343
0.154036439483
0.154045240458
0.154060006781
0.15408601989
0.154125421121
0.154169404437
0.154216895303
0.154276523319
0.154341402179
0.154416459448
0.154518926871
0.154628145853
0.154740856926
0.154850403065
0.154974181969
0.155117372479
0.155260098742
0.155403268483
0.155555646813
0.155722070779
0.155904845229
0.156105675578
0.156347577993
0.156647715066
0.156955651437
0.157272737394
0.157636397678
0.158011353433
0.158393003246
0.158797989232
0.159204674271
0.15961281542
0.160032252494
0.160465501726
0.160912892547
0.16137512484
0.161852736751
0.162345477732
0.162853736372
0.16337788823
0.163917697474
0.164472651155
0.165040915406
0.165618940071
0.166202895511
0.16678983019
0.167377560103
0.167964158464
0.168548075793
0.169128946873
0.169708321716
0.170290222244
0.170881000531
0.171480711675
0.17207157931
0.172583145507
0.173095795336
0.173473508007
0.174162403573
0.174578280527
0.174621244667
0.174287472688
0.173694548133
0.172979256259
0.172261800414
0.171541822516
0.170690559172
0.169696967589
0.168708905339
0.167855004107
0.167064926953
0.166557370537
0.166645431611
0.167181151362
0.168082014995
0.169175709758
0.169198564908
0.168210528179
0.168341015686
0.168335244734
0.153878264984
0.153888213127
0.153911714918
0.153928674973
0.153962009529
0.154007066528
0.15405790318
0.154121525055
0.154198844349
0.154274680262
0.154378415801
0.154488991483
0.154602724735
0.154713865996
0.154838508252
0.154984618694
0.155129981184
0.155275485049
0.15542908335
0.155595690185
0.155778064136
0.155977206463
0.156210769663
0.156507530024
0.156838883775
0.15716378086
0.1575156794
0.157906801018
0.158297589353
0.158685484312
0.159085322118
0.159497523857
0.159924995744
0.160367613755
0.160824946915
0.161297413261
0.161785616563
0.162289975872
0.162810665468
0.163348272434
0.163903336836
0.164475290174
0.165062124468
0.165660154295
0.166265424808
0.166875232839
0.167487751869
0.16810078699
0.168711928654
0.169320663059
0.169931187669
0.170554525371
0.171210830744
0.171906685779
0.172610025521
0.173132581348
0.173845490199
0.1737039024
0.173892616112
0.174184639608
0.174204752834
0.173897745076
0.173366740847
0.172704419819
0.171967361155
0.171168338937
0.170290309313
0.169369032356
0.168469557446
0.167659341263
0.167028276928
0.166778799393
0.167022250578
0.167761344702
0.169084648896
0.170795478121
0.171090216471
0.166366161474
0.167937251606
0.16807329506
0.153699324533
0.153708603273
0.153730598901
0.153749353921
0.153780316951
0.153826674202
0.153879174483
0.153942635678
0.154031699115
0.1541160614
0.154220725579
0.154333372434
0.154449583699
0.154564764167
0.154691836558
0.154838802194
0.15498587676
0.155134263552
0.155289844224
0.15545716954
0.155639323964
0.155838412528
0.156066564572
0.156355534807
0.156700979227
0.157042584473
0.157386648905
0.157770871173
0.158171812343
0.158564176942
0.158959142731
0.15937253764
0.159806579486
0.160258571921
0.160726315727
0.161209563435
0.161709325215
0.162226129385
0.162760557958
0.163313086185
0.163884655768
0.164475241822
0.165082646094
0.165702646127
0.166331067018
0.166966061875
0.167606649358
0.16824944467
0.168888659925
0.169522262603
0.170158032584
0.17081502131
0.171542882609
0.17236627758
0.173320095464
0.173289166759
0.173506080591
0.173768005402
0.173836636034
0.173945200156
0.173898527337
0.173595598196
0.173078402259
0.172413213815
0.171649178371
0.170815242998
0.169926335067
0.169011449116
0.168128655553
0.167333144594
0.166707826405
0.166391895463
0.166479062644
0.16698090508
0.167803250204
0.16853387776
0.167951269474
0.168577291188
0.169578580355
0.167835291805
0.153501539296
0.153509996631
0.153532675029
0.15355167577
0.153582850073
0.153629510514
0.153683221638
0.153743759659
0.153834345912
0.153932347107
0.154042414165
0.154158595587
0.154278870307
0.154401604409
0.154531668737
0.154679358043
0.154828016305
0.154979769905
0.155137815251
0.155306414873
0.155488650503
0.155687271566
0.155911775418
0.15619152775
0.156536624529
0.156904133496
0.157256526863
0.157627848295
0.158022950597
0.15841637593
0.158813636418
0.159233532769
0.159675415184
0.160136803605
0.160615470636
0.161110599184
0.161622662266
0.162152922401
0.162702122944
0.163271076327
0.163860690495
0.164471385698
0.165101500661
0.165746154172
0.166400139363
0.167062616122
0.167734578668
0.168410744922
0.16907879054
0.169732070135
0.170379564218
0.171038909655
0.171813505331
0.172720309274
0.173007795211
0.173257678697
0.173377742977
0.173507316269
0.173525179414
0.173493213432
0.173335351899
0.172978466381
0.172430897656
0.171735713268
0.170932654963
0.170051076145
0.169115316979
0.16815799641
0.167228134984
0.166386364403
0.165682959388
0.165207761876
0.165051797619
0.165214694029
0.165596560936
0.166044210493
0.166366522662
0.167358603946
0.168206571986
0.170655643336
0.153287114438
0.153294094671
0.153312724857
0.153334419955
0.153370006902
0.153417011121
0.153473315844
0.153532766314
0.153622190045
0.153728258673
0.1538431931
0.15396250662
0.154085556501
0.154218592962
0.154354852426
0.154503401282
0.154654221431
0.154810710537
0.154972110129
0.15514266678
0.155325494021
0.155523454808
0.155745082882
0.156017050661
0.156356795772
0.156740229648
0.157111919831
0.157478778488
0.1578622203
0.158251139854
0.158652417083
0.159078756213
0.159528733883
0.159999453981
0.160489622071
0.160998076169
0.161524113561
0.162068718127
0.162634049317
0.163220693432
0.163829925444
0.164462957623
0.165118379947
0.165790531983
0.166471559218
0.167163324344
0.167874850522
0.168596097601
0.169293788743
0.169958936452
0.170599131404
0.171186354844
0.172000752544
0.1724152774
0.172767810296
0.172967198867
0.173060120927
0.173105325373
0.173058965183
0.172915172554
0.172644246204
0.172207999252
0.171603885833
0.170856900687
0.16999740711
0.169053007989
0.168050598923
0.167022148046
0.166008256176
0.165057858983
0.164194068566
0.163466254187
0.162950890579
0.162660937836
0.162556397634
0.162614521405
0.162868955083
0.163782133672
0.166302105001
0.168742483403
0.153058848639
0.153064603563
0.153078142598
0.153103070673
0.153142411729
0.153189470356
0.153247680122
0.153310060874
0.153396073369
0.153506138232
0.153624136
0.153745531142
0.153869004053
0.154007528808
0.154155280557
0.154307241008
0.154460939656
0.154622942357
0.15479009823
0.154964193416
0.155148855358
0.155346125956
0.155565505343
0.155830864661
0.156160372775
0.156541743276
0.156933910949
0.157311399106
0.157691329163
0.158077223113
0.158477273201
0.158908087961
0.159365962273
0.159844340263
0.160347076077
0.160870102655
0.161410310069
0.161970890832
0.162554031295
0.163160693526
0.163791514466
0.164448087895
0.165130366841
0.165834862139
0.166556144278
0.167294591472
0.168051880512
0.168806911238
0.169532902176
0.170222842694
0.170841134523
0.171161005314
0.171689414554
0.172093901068
0.172398264674
0.172555387634
0.172601654296
0.172559506657
0.172412424307
0.172149496322
0.1717568617
0.171215866855
0.170522947972
0.169692521697
0.168746726457
0.167708759853
0.166602444862
0.165454319734
0.164294694663
0.163156417327
0.162058276329
0.160997666143
0.160006223413
0.159100489783
0.158238604242
0.157372586238
0.156487734648
0.155697559455
0.154988425515
0.152979840877
0.152817743589
0.152823176612
0.152835129192
0.152863558318
0.152902703199
0.152947912186
0.153003962514
0.153070943546
0.153153395228
0.153265223752
0.153385541747
0.153508924687
0.153633753628
0.15377294739
0.153930383962
0.154089028749
0.154247353956
0.154414163793
0.154587786732
0.154767818329
0.154956892757
0.155154308594
0.155371839044
0.155632337264
0.155951949516
0.156325900334
0.156726156092
0.157116925301
0.157494521661
0.157878520158
0.158284520441
0.158717608943
0.159181048118
0.15966963218
0.160185538045
0.160723183446
0.161278890792
0.161856811471
0.162459207522
0.163087531621
0.163742544673
0.164426059771
0.165141694495
0.165892271486
0.166669309941
0.167455129762
0.168247777885
0.16904105498
0.169834505818
0.170632131396
0.171502313548
0.171375370919
0.171398832409
0.17175937782
0.171986712185
0.172048344605
0.171998898979
0.171847478945
0.171581647365
0.171192179505
0.170671115924
0.170009394714
0.169204996216
0.168266521428
0.167209114357
0.166050043674
0.164807200885
0.163499109661
0.162144296359
0.160758238367
0.159350818552
0.157865723569
0.156268923669
0.154546403345
0.152594596095
0.150236811181
0.14724422112
0.143429536551
0.138911985238
0.138621845401
0.152561195294
0.152566775374
0.152579255813
0.152611764753
0.152650128485
0.152692918135
0.152744709101
0.152814480766
0.152891944447
0.153004025374
0.153126704859
0.153252223201
0.153379421103
0.153520660699
0.15368331343
0.153848795612
0.154013297635
0.154185326189
0.154364121925
0.154550626404
0.154746671885
0.15494619772
0.155162015684
0.155418934914
0.155730105794
0.156094699834
0.15649502216
0.156893797969
0.157280994567
0.157664951103
0.158074815366
0.158512889496
0.158978561919
0.159470312311
0.159995995586
0.160551891249
0.161126725502
0.161724224427
0.162346963216
0.162998191601
0.163680380077
0.164396212654
0.165156702754
0.165965870848
0.166794247724
0.167619057923
0.168453320127
0.169318227855
0.170218393372
0.171263957373
0.17135427247
0.171424466888
0.171343883658
0.171433411771
0.171491102487
0.17142832716
0.171254837382
0.170972342575
0.170570913113
0.170042538192
0.169381697578
0.168583633722
0.167647200064
0.166577051905
0.165382131177
0.164072921311
0.162659610201
0.161150888982
0.159552191048
0.157862110461
0.156070604826
0.154095979846
0.151806523522
0.149104870813
0.145783196723
0.141408900547
0.135159239883
0.125297817985
0.106782560051
0.0616896620213
0.152283232826
0.152288893024
0.152303698168
0.152340881913
0.152379143163
0.152420165597
0.152469817465
0.152539462377
0.152611511162
0.15272174146
0.152846488369
0.15297408345
0.153103695686
0.153247034648
0.153412969461
0.153584647385
0.153757287662
0.153935278897
0.154118377576
0.154310573008
0.154514993938
0.154719497335
0.154933525925
0.155187350702
0.155492196312
0.155846526803
0.156240525604
0.156637034107
0.157036720201
0.157434244174
0.157845211557
0.158282391288
0.158754482448
0.159256654946
0.159784973381
0.160351972024
0.160947619621
0.161567135406
0.162214239854
0.162890714356
0.163601507064
0.164359203281
0.165181521364
0.166051808557
0.166923784477
0.167792878126
0.168710775559
0.169709837618
0.170843008862
0.171067260417
0.171186773726
0.171134771469
0.17103418113
0.170973750757
0.170875630137
0.170674207349
0.170359489699
0.169930100397
0.169379433865
0.168700972331
0.167890114196
0.166943398591
0.165859214327
0.164638715799
0.163285089093
0.161801691622
0.160190114513
0.158448173973
0.156567075094
0.154526763365
0.152288090046
0.149784277494
0.146801194127
0.143079843089
0.138327137863
0.131917890023
0.122631036183
0.108110274227
0.0835909518735
0.042792218682
0.151975536402
0.151981264053
0.15199834953
0.152040233313
0.152078192773
0.152120590348
0.152169817331
0.152237409332
0.152307072677
0.152416602588
0.152543462132
0.15267298039
0.152804800883
0.152949702336
0.15311719521
0.153292825295
0.153475387249
0.153660799915
0.153848467217
0.154045642646
0.154257852409
0.15447135762
0.154684878335
0.154934380428
0.15523487711
0.155580339401
0.155966012869
0.156356244757
0.156756167292
0.157170863756
0.15759704325
0.158036562446
0.158500114982
0.159006889503
0.159550026231
0.160127202334
0.16073965025
0.161381367781
0.162053776104
0.162759445498
0.163507292692
0.164323244042
0.165215927452
0.166141916287
0.167069235538
0.168021817564
0.169102587908
0.170390191111
0.170649526525
0.170750254964
0.170787757859
0.170723871521
0.170580220043
0.170388325897
0.170130186309
0.169772875343
0.169303090765
0.168716501009
0.168007885299
0.167171715751
0.166203442188
0.165099245826
0.163855973136
0.162471224362
0.160942688557
0.159266634892
0.15743592075
0.155437504296
0.153248947521
0.150833134714
0.148129970741
0.145046812033
0.141393964672
0.136795382929
0.130821850004
0.12286200682
0.111793549569
0.0957746689809
0.0715891880099
0.0382837523304
0.151631278759
0.151638836552
0.151656840214
0.151698097082
0.151738942093
0.15178770317
0.151840206007
0.151908558497
0.151982508828
0.152087623167
0.152215902177
0.152347282032
0.152481271455
0.15262742679
0.152795297991
0.152971321291
0.153159989722
0.153355946008
0.153550869789
0.153754200626
0.153972286614
0.15419768052
0.154418474783
0.154660030486
0.154955957163
0.155294527615
0.155671802075
0.156056120236
0.15645030993
0.156872242294
0.157314770714
0.157768786599
0.158232806529
0.158733031659
0.159278894511
0.159869917567
0.160500595082
0.161165458083
0.161862963622
0.162600869527
0.163401821311
0.164291273432
0.165253025674
0.166244598316
0.167265749044
0.168334047666
0.169691062148
0.170075522134
0.170231013176
0.170307606674
0.170304643924
0.17018332111
0.169950582624
0.169629298385
0.16921908272
0.168704878887
0.168076718087
0.167329994949
0.166460493864
0.165463465906
0.164334120054
0.163067550217
0.161658456008
0.160100809348
0.158387080127
0.156506814861
0.154444600295
0.152177308477
0.149670233335
0.146871468278
0.143703628415
0.140051528471
0.135748424407
0.130455527449
0.123622571801
0.114610006081
0.10255407033
0.0861092923456
0.0628990700884
0.0336035377807
0.151255003177
0.151265766386
0.151283764247
0.151318890109
0.151365492685
0.151420980162
0.1514793883
0.151552556517
0.151636088115
0.151735965768
0.151863015075
0.151995559058
0.152131769717
0.152279348472
0.15244781412
0.152624564363
0.152813917664
0.153018824261
0.153223734416
0.153435627901
0.153659527986
0.153896379833
0.154133696425
0.154377543055
0.154660486912
0.154990671269
0.155359362231
0.155738028031
0.156124590896
0.156544711629
0.156994446919
0.157467657288
0.157943700663
0.15844018207
0.158981494976