/*--------------------------------*- C++ -*----------------------------------*\
| =========                 |                                                 |
| \\      /  F ield         | OpenFOAM: The Open Source CFD Toolbox           |
|  \\    /   O peration     | Version:  v1806                                 |
|   \\  /    A nd           | Web:      www.OpenFOAM.com                      |
|    \\/     M anipulation  |                                                 |
\*---------------------------------------------------------------------------*/
FoamFile
{
    version     2.0;
    format      ascii;
    class       volScalarField;
    location    "912";
    object      alpha;
}
// * * * * * * * * * * * * * * * * * * * * * * * * * * * * * * * * * * * * * //

dimensions      [0 0 -1 0 0 0 0];


internalField   nonuniform List<scalar> 
6400
(
0.911321549804
1.48660977575
2.37839717351
3.02152637841
3.63414798696
4.23857150395
4.96588345242
5.77384725277
6.33074309635
7.13849814629
8.47611618621
9.49630991591
10.3796063694
11.3446309862
12.4893009258
13.6984980775
14.8263951203
15.8949868072
16.808563955
17.4219779949
17.8535249219
18.4533742064
19.4083546969
20.678114899
22.0436600435
23.3049184501
24.4044567942
25.4435062863
26.5150282949
27.6343027809
28.7459832395
29.675809911
30.3474031309
30.8664988918
31.2842309669
31.6209714011
32.1161883938
32.7870819285
33.1832814929
33.3856530955
33.9133461759
34.8763587334
35.8192828015
36.3966443123
36.6374066531
36.635861601
36.4555884144
36.134740934
35.6860586663
35.1277918672
34.3908204831
33.2871739478
31.7833365431
29.9694358909
28.2284925915
26.558011044
24.4157573994
21.6340728474
18.7330913244
16.1290103215
13.5029797388
10.7756742052
8.32602923114
7.63925340139
10.0104018318
14.2216402345
16.8384609589
16.2762545502
14.0701921186
12.3151563306
11.3861439938
11.6207522587
12.2516095754
12.1983727806
14.4075532122
13.8986926301
15.8805892906
9.77350074394
12.8502374405
4.79751692591
3.18340261765
2.5835710833
3.24233123627
4.53719903115
4.58620524496
4.6381367729
4.97247574553
5.52623551364
6.29158431972
7.2516451048
8.38811853089
9.52658760992
10.5534790923
11.5446855712
12.5646269093
13.7207552184
14.9412181591
16.1046331622
17.2410207115
17.7006317594
17.9733530795
18.5635780664
19.5107382338
20.7744428612
22.2356415232
23.4529191363
24.5290027481
25.5983831613
26.6808876709
27.7734227245
28.8627133303
29.8610294655
30.5261077182
31.0367917277
31.4789322784
31.7554893618
32.2850550237
32.9808501152
33.348919126
33.4531861998
33.9589559136
35.2894111718
36.439285153
36.9430571396
37.1380385073
37.085922412
36.843418448
36.4797175368
35.919431196
35.2390709027
34.5485363259
33.8079493663
32.4370201585
30.1911363296
28.5272734576
26.7024775959
24.1831572697
21.4574869579
18.7175248054
15.9836086921
13.3688124926
11.0292902852
8.67546049552
8.12967436509
10.3374177922
15.2708703995
18.6026644509
17.0801952997
14.711003377
12.6478541564
11.9012624685
12.354730868
13.5566495405
13.0181743863
12.952679963
12.5076952687
11.3886117312
9.60614896398
8.1145733013
4.19371862866
3.34250307113
2.98598730543
3.51859957727
3.90356135239
4.57328380645
5.09793243657
5.14989326449
5.41074613815
6.18310636728
7.22110643492
8.37023414782
9.52768023493
10.5958821055
11.585861931
12.4622278296
13.5231258621
16.0364781957
18.0558153334
18.6850123106
18.4579755274
17.7798462347
18.2895572511
19.6086257818
20.9168316521
22.1809096809
23.4471039576
24.6087503524
25.6800280114
26.7435770674
27.8285338981
28.8919069684
29.9612872536
30.6158715143
30.9482865138
31.6212927557
31.9191312213
32.2253989443
33.0539644776
33.4791567084
33.6529754151
34.1734001886
35.1084358764
36.0210618967
36.5977035088
36.8633252017
36.9012027821
36.7537482703
36.4403500355
35.9643422894
35.3437798489
34.5734483986
33.5411643829
32.1263271774
30.5311363516
28.8399546533
26.651704991
24.1118663958
21.4338223941
18.7106275893
16.0216540104
13.452664988
10.9846423233
9.20081084917
9.42194477157
12.5969601998
16.3069852575
18.0660833691
17.8903374689
16.1372088406
14.3732594731
13.6512135792
13.5597385257
12.9012420228
12.3446431751
12.4082875612
12.1648546775
11.2694191936
9.69057823696
7.25396276718
7.47218346424
3.4693476861
5.6229036405
3.93951193835
4.13307548953
4.88401125275
11.9976849676
10.447006605
5.8876301452
6.13291844542
7.20332408517
8.38565624902
9.56546732916
10.6081193622
11.5924022307
13.2630198854
15.3266125445
17.086198725
17.7817143945
17.2655415257
17.0125137628
17.6342841108
18.5115169185
19.6114506474
20.9073618651
22.2484196039
23.5386962644
24.7223146407
25.7786924267
26.8522496788
27.8838325767
29.0352396946
29.9565861223
30.8158043806
31.121950129
31.2895477883
31.9749604867
32.3673774877
32.7833247827
33.3449941886
33.8603668062
34.4704100436
35.2782716086
36.0803244692
36.652932337
36.9555427761
37.0280183816
36.9066168682
36.6124346507
36.1541517377
35.5363999997
34.7384727886
33.694496645
32.3592573105
30.7835857412
28.9379329425
26.7069986297
24.1580476312
21.4674040733
18.7548846929
16.1163893126
13.6666204179
11.6418876097
10.6560831904
11.0150333697
12.6415716547
16.8085653821
19.7635067379
19.6610479959
17.835994725
15.3743185392
13.6944896299
12.865294612
13.0541988796
14.5544349446
14.5576251834
13.2960846354
13.2276965722
16.5911661009
12.9540700784
10.9395727552
5.90397961945
7.73644087704
4.84035337286
5.16431512851
6.8602695932
11.9005045279
8.59061366332
6.46280467309
6.66217220091
7.41427125832
8.51609319068
9.70505476707
11.1695063902
13.3408159793
14.4610154002
15.0750230499
15.4683513482
15.7522471607
16.2468870099
17.0446991099
17.746550166
18.5688781465
19.6966857393
20.9913796809
22.3391698252
23.6508794926
24.8156835966
25.9626471316
26.9431596391
28.0966262878
29.0706175362
30.397487799
30.7619166097
30.8526476482
31.3361156615
31.658843183
32.2130588316
32.8643622863
33.4999672599
34.098142453
34.7401908975
35.479131257
36.2049156851
36.7633470506
37.0911038819
37.1951872953
37.1007023006
36.8285746569
36.3894002262
35.7813853971
34.9810498542
33.944915405
32.6421817328
31.0617641783
29.1470462677
26.8547407969
24.2845463797
21.6055933868
18.9567714454
16.4763978902
14.3625542241
12.9413645823
12.5375364611
12.5213427112
13.3473519519
16.6894990903
20.0022526575
21.0315144982
19.6836559292
16.8106005932
14.2308257833
13.8393905562
16.1309603773
17.0306098998
16.0287470338
15.1567071927
17.8955228992
20.9599656194
16.2072108665
15.3117155911
10.1718818459
9.36940320118
6.03857169756
6.50641302545
12.1951990755
11.7133176652
7.24938835999
7.11341161657
7.31941425204
7.77030506595
8.73205222252
11.2451288211
14.3098377829
14.8942659948
14.7854973041
14.3140753517
14.4445030131
15.1729094509
16.2930106971
16.9905606233
17.6623087578
18.633171811
19.8196264387
21.1326707476
22.4213120786
23.7365137285
25.0837035067
26.0517266197
27.3181136057
28.1457379113
29.6501735697
30.2352406281
31.1817914234
30.9889220391
30.9300294152
31.4774527261
32.2477735478
33.0077173415
33.7024308098
34.35099845
35.0135273408
35.7169061183
36.3935114099
36.9361864402
37.2792020486
37.4098515023
37.3418413094
37.094319412
36.6786233395
36.0903754834
35.3061183428
34.2890050699
33.0009171847
31.3992418974
29.4336874239
27.1144666438
24.5675958878
21.9674549951
19.4786621668
17.2867814463
15.6231099414
14.7698125705
14.7247720206
13.9745938244
15.3787021479
18.8391245181
21.5296547316
22.4373500745
21.2829375851
17.7941147688
15.4785478467
17.1880781106
19.3611256419
18.8248472148
17.8505776015
17.9533901526
22.630810809
24.2589258466
19.1788361743
18.9814188401
12.3262549683
9.37635710024
7.32995735956
6.87381996284
12.1970467978
8.87244068205
7.6011546347
7.75458833589
7.93822662377
8.68008170049
9.28869045548
13.8683087741
14.7096796469
14.9090597525
13.9522018253
13.4731287872
14.1089033313
15.5257883535
16.2130228788
16.7299770976
17.6596694536
18.7243107753
19.9143342414
21.2229873602
22.6461057115
24.0102914678
25.096293414
26.6327856357
27.4101604512
28.9873572535
29.4605799115
30.6648091385
30.784008338
30.8074221892
30.8291219169
31.4703460937
32.3509095202
33.1867605901
33.9282423125
34.6160984107
35.299677581
35.989535743
36.6385444817
37.1696202562
37.522919011
37.6758150853
37.6341695783
37.4151948855
37.0300707192
36.4726864472
35.7178862831
34.7260840949
33.4484542587
31.8332251491
29.8532436594
27.5629633904
25.112338755
22.683606343
20.4460422756
18.5732978842
17.2729788392
16.6150608963
16.1482615852
16.0389213551
17.4643364149
21.7182683614
23.2106593945
23.0175882723
21.6496203649
19.213993754
18.7540594207
21.1454239546
21.481557942
20.6177210663
20.0249042232
22.0611951036
24.8962701415
26.4277926972
21.77680951
20.6275010031
12.1221011223
9.19404661017
8.52649535522
12.4557765584
12.3866274801
8.16036244365
8.30563419892
8.49638701546
8.59802093413
9.22286607308
13.5555769117
14.5514475725
14.7947869351
14.5301569085
12.9929558347
13.1446472296
14.7395656668
15.6040872737
15.893298723
16.5980703728
17.6707083757
18.8521866317
20.0785075595
21.4304743991
22.7207635179
24.2698964813
25.1435796625
26.6390295085
28.3185516525
29.1203640721
29.2206708991
30.2481743374
30.795679353
30.4571864526
30.8487765721
31.6219897256
32.5140226408
33.3816834126
34.1687596643
34.8971190356
35.6054822894
36.2978402276
36.9362043043
37.4619912072
37.824062462
37.9972077034
37.9833966433
37.7983154136
37.4521685065
36.9367196787
36.2234453745
35.2669208911
34.0118916877
32.4135851279
30.4777467841
28.2970296329
26.0312285284
23.8339284188
21.8211360574
20.1408702263
18.9883413705
18.3774200574
18.1487415562
18.3485644786
18.3323860666
22.5456576619
25.3801443584
24.794752646
23.8182247887
22.5873999419
23.0854911277
24.1886755548
23.3561556688
22.6070362047
22.8016161738
25.2299034557
25.9889549506
26.6594711565
23.7592681165
21.5995167399
11.5095383154
9.25620672257
9.2195065693
13.4799061706
11.5471431077
8.90402027153
9.07327465807
9.39802485306
10.4497331941
9.39219203842
14.3198890406
15.1107756558
14.8634021187
13.4847039091
12.7490680417
13.2666714316
14.7747157062
15.3576286816
15.784792766
16.5926169542
17.6499391807
18.8877396239
20.1984885047
21.88868987
23.3328561358
24.2325839531
26.1706543669
26.5760751043
28.4304225242
28.7554344775
30.025787207
29.7639625851
29.9704656693
30.4040860064
31.0228865492
31.8251874875
32.7107289431
33.5951685234
34.4245592271
35.1978239055
35.937188242
36.643129115
37.284132988
37.8124156588
38.1847056464
38.3787367672
38.3963865782
38.25195116
37.9538707139
37.4919349915
36.8343774816
35.9314357783
34.7291280717
33.2020604603
31.3923694896
29.4153278581
27.3973606538
25.3919530725
23.4503879247
21.8349293633
20.8708021955
20.5794708674
20.645894348
20.682325168
20.4716568288
21.0056731631
26.0841642867
27.1351736475
26.5812047894
26.6926344554
27.2719532148
26.5668557756
25.3249391099
24.996207626
25.9842319938
27.2862900553
27.259527107
26.7516694296
25.7814924375
24.4295536486
11.1226696651
9.80119479919
10.3666499028
13.5995070723
9.8826019517
9.93814125083
9.84555416118
10.1412823588
12.9644405041
11.8216297067
15.1523689992
15.4203411906
14.9921819816
12.9563855231
12.8247019095
14.3566811051
14.9649907604
15.1362837312
15.7338517584
16.7017572153
17.7484246399
18.9302768822
20.1006470051
21.9858709425
24.1527417093
24.1734254258
26.0936490842
27.6070344064
28.6153383658
29.5716211594
29.5184996127
29.9023862964
29.7527013793
30.3417025127
31.1871639338
32.0507297493
32.9359333535
33.8300774416
34.6961301778
35.5181824352
36.2980643352
37.0283500428
37.682244569
38.2208562344
38.6081092748
38.8264371223
38.8806991227
38.7849352705
38.5451547707
38.1497094492
37.5663437541
36.7461980758
35.6458543845
34.2680313377
32.6853432942
30.9965890138
29.2094895363
27.2196847791
25.2135981213
23.8339507144
23.3983945131
23.5717624423
23.7616410287
23.5868199444
23.0149726837
21.5358487436
20.6167127342
29.2440490541
31.4397091607
31.7479831327
30.9606008451
29.0237089604
27.7211204634
27.7780357326
28.9219245334
29.3850961935
29.3557286945
29.2619349467
29.73206509
29.9947367719
11.2548222838
10.7247851165
13.6450003495
13.8807286322
10.1517392172
10.7404688032
10.6185658098
11.0426243426
12.6358513478
15.1602386262
16.0459300989
15.7573298404
15.3137365245
13.0909613496
12.9973766196
14.8125024517
15.0848957269
15.122968109
15.73461795
16.7931222028
18.038009671
19.2525953436
20.2271319669
21.6004100561
24.2726930302
25.6603123256
25.8079305726
27.6666946722
27.7713295068
29.5523515841
30.2674846521
29.8864622679
29.7464269627
30.443438056
31.3748153695
32.2842773611
33.1841874375
34.0906369751
34.9862220527
35.8572682611
36.688128084
37.4550492549
38.1319468126
38.6888400377
39.0977935279
39.3473991466
39.4460107779
39.4075271367
39.2365375721
38.9223384659
38.4368400079
37.7402939103
36.8106095437
35.6823556374
34.4330885174
33.061835963
31.3588243331
29.210127701
27.3265500778
26.6965149407
27.1881854424
27.7888162099
27.9817624062
27.5476503897
26.4837726428
24.57822808
22.0117960541
21.7484629218
33.2213142839
37.5449957341
35.5087976109
32.3196929162
30.8408876147
30.9156075876
31.5975561714
32.125433148
32.8951903678
33.8193559892
34.6282086981
35.4214529011
11.7370969443
11.658643996
15.3241811979
14.7098798085
12.9869328023
12.0087265353
11.6260696368
12.475023838
12.2652168705
16.1399841808
16.7712829733
16.1787074708
15.520499071
13.8062031746
13.7472270128
15.2387685546
15.1400302715
15.2157266724
15.8240156563
16.7998626511
18.1303647634
19.6709257923
21.4212848619
21.6608425199
23.7646827348
25.9617267071
25.7284088866
27.8336509046
29.0093985065
28.934693489
29.570731445
29.4865037104
29.997691513
30.7339679311
31.6150778585
32.5366948278
33.4578419198
34.3831141897
35.3015166704
36.2132619177
37.1031250652
37.924336346
38.6362105176
39.2189001061
39.6582762101
39.949719938
40.1032183563
40.1315192484
40.039496715
39.8216007767
39.460938304
38.9394630515
38.2684763885
37.5028662527
36.6577616242
35.5132644828
33.7618448605
31.6669389321
30.2909818209
31.1891143253
33.5771723498
34.332996304
34.4834014489
33.8913353922
32.5801504517
30.196046607
26.6758755635
21.8162934752
28.6003291145
38.6808332141
40.6394171853
36.8272648848
35.144765234
34.9361176958
35.1185813035
35.6458748065
37.5220157594
39.0732536214
39.2998056696
39.7039837333
12.41924103
12.3559813452
15.1504100203
15.2856848659
15.3454295218
13.2260104603
12.7585255671
15.2139571424
12.7526840865
17.0086995515
17.3260415279
16.6053472871
15.7149679409
14.4927083813
16.0981421875
16.2595547002
15.3838369679
15.4482829864
16.0493373141
16.8986145407
18.0479797944
19.6405876369
22.5366423806
23.5670677465
23.2883114861
25.947974622
27.1379794317
27.4203041585
28.9292596455
29.7270705489
29.8151239297
29.525026763
30.1785570447
31.032156413
31.9078052445
32.8218441779
33.7514080385
34.7055785096
35.660864567
36.6031486041
37.5403544588
38.4264961883
39.1939966713
39.8156833669
40.2955723232
40.6422497641
40.8646076613
40.9702524507
40.9653828499
40.8556122323
40.6468716083
40.36014102
40.046339791
39.7354224576
39.2592555982
38.2034948438
36.947079278
35.9286998925
34.5416095475
37.1584957903
36.4821174395
34.6025677401
32.0045965321
29.0454233329
24.7258249902
19.4368579473
16.0597626692
1.37846698845
0.0582000479023
27.8593095071
36.9304991433
36.5503605567
32.141818894
31.6643786509
33.8231830188
36.4724973686
41.5666902407
44.5164410062
44.8932093506
45.2683729911
13.1501664985
13.1019306821
12.7528137267
15.6686918203
15.9449517683
14.0769936516
13.7665049827
16.2626795471
13.4917640002
17.9202212136
17.8336238398
17.043374418
16.0005646704
14.8608585702
17.2249830984
16.918553114
15.8911341
15.8662807039
16.3890512895
17.1676981096
18.084661246
19.4748784388
22.9551667344
24.5982115086
23.5888090334
25.870944615
27.5779659141
27.0354078869
28.5068606381
29.3537940158
29.1843434113
29.8282081842
30.5738494202
31.3796064356
32.231603024
33.1526349962
34.0918807452
35.0462852153
36.0414308829
37.0402796681
38.0223461846
38.9637352028
39.7964827398
40.4769101264
41.0153839057
41.4355823158
41.743892487
41.9366689641
42.0232616697
42.0276563133
41.9912394135
42.0004760222
42.1334909672
42.2891090838
41.9602850975
41.2286330631
41.6570909226
34.3004583952
26.6451861284
8.74987801983
1.00900858821e-09
2.04906916065e-13
7.0969956136e-16
7.24090763606e-17
5.74608897595e-18
1.61855733292e-18
1.90516376416e-17
1.94660692096e-16
2.19889807469e-15
5.74331877702e-15
9.53722847603e-12
2.50347580507e-09
2.2844612268e-06
0.00118331760613
2.99084656389
39.9613047737
43.2733774832
48.2007273875
51.6454692439
51.9744167852
14.0558189326
14.1571311143
16.321897882
16.3732169234
16.463049417
14.8026167448
14.8339393746
17.1797025829
14.5499672548
18.7274159041
18.327325483
17.5064599322
16.3648457086
15.2846628318
17.5422769374
17.207525939
16.3861916393
16.3480195162
16.7790024139
17.4722044973
18.2998161988
19.4204516982
22.4216366188
25.3605027124
25.6494705891
25.2950927619
27.7215477624
28.8048200194
27.6570055426
28.1698944723
29.1009312332
30.0282854778
30.9022166674
31.7426905038
32.606570866
33.5130820086
34.4656086173
35.4474423405
36.4521634963
37.5016254686
38.5516064018
39.5522036508
40.4466399725
41.1962248511
41.8173175614
42.337606204
42.7544181556
43.0488352445
43.2234771482
43.3268496895
43.4760688983
43.8362634655
44.4520468765
44.8683839124
44.1062403827
42.1365734735
27.3464020462
2.40667506954e-19
2.64709300397e-22
4.96235308481e-24
8.41152854183e-26
2.43366390751e-28
6.91594158639e-31
1.19713639854e-35
9.36403642759e-36
2.2733727148e-35
1.53243294976e-34
7.17783037987e-34
2.65149412527e-33
1.68498308033e-32
1.31930413797e-32
1.14456806892e-30
6.51450476751e-28
6.5484673707e-26
4.96918053057e-24
1.14428220074e-21
1.92618702283e-17
40.1313527718
55.7725768487
51.7089529805
14.9090625013
15.1047709533
17.9578516816
17.118595681
16.68649665
15.5201890901
15.8590244427
17.9771380697
17.9602439092
19.7351449505
18.8938898136
18.0663905103
16.8183202202
15.8431459273
17.8775053687
17.418104587
16.8422217893
16.8294662746
17.1796552938
17.7811879076
18.5593026029
19.5927774339
21.9332909744
25.5674758174
26.9273234117
25.1012376064
27.1553300067
28.8705920527
29.0982822469
28.488889152
29.120145216
30.1965876531
31.2177514988
32.1365461568
32.9848930697
33.9030182775
34.8646324497
35.8772987811
36.916909759
38.0005637402
39.1176689295
40.195316245
41.1523661505
41.9652086177
42.686524265
43.3613390987
43.9388674979
44.3362371951
44.5472385414
44.7264286689
45.0935931887
45.832478931
46.9169905658
46.981120019
38.7788512577
15.7022366277
1.3308688644e-25
5.38937664398e-28
1.5585204832e-29
2.26892013419e-31
1.84344966219e-34
3.07597242199e-37
2.16826707691e-38
0
0
0
0
0
0
0
0
3.01568973835e-42
1.0171297168e-39
1.52140925655e-37
8.82672928871e-35
1.23287745879e-31
6.67634653895e-27
1.01388381859e-22
7.90462660257e-16
61.6113411271
15.6001380547
15.8174674303
20.0450377145
17.7040076918
16.6729119209
16.1446079081
16.5985854649
18.1247200498
19.5299859115
20.8762422143
19.6104983962
18.760145762
17.5175425088
16.6787009934
18.4163519242
17.7714587068
17.3641972679
17.3493455008
17.6145844898
18.1244747541
18.8234088587
19.7777888518
21.7086825549
25.3940540566
27.8587681791
27.308494181
26.6224832959
28.1883393783
28.9037349803
28.586963502
29.4934073555
30.5816345801
31.6506213846
32.5742157055
33.4511803693
34.331300793
35.3101459451
36.3384210491
37.4200586461
38.5483913844
39.7186750821
40.8788064997
41.932171877
42.8132142055
43.6381904299
44.5001606812
45.2795152873
45.7814534024
46.0145120943
46.2528062979
46.8360493041
47.9950503705
49.216907524
37.3104710177
0.160483742324
1.92679303298e-28
6.31904220635e-32
2.55515968901e-33
3.48388331719e-35
9.55375487472e-38
0
0
0
0
0
0
0
0
0
0
0
0
0
3.88571588341e-41
3.86130378204e-40
8.46481451441e-39
4.10447150634e-37
2.27930720994e-33
1.89721237154e-24
3.65718308119e-29
16.1262618927
16.3360803984
22.0431317171
18.1469763655
16.8667966018
16.7071823302
17.3848848186
17.6203900408
20.4506670763
21.6879045203
20.2920913277
19.4613571109
18.3987411352
18.4627705288
19.1731631034
18.3623589422
18.0750562689
18.0547325815
18.1542530168
18.5500270272
19.1367886703
20.0048157644
21.6563434619
25.1822550558
28.2104416747
28.8743990752
26.5989296006
27.2450889844
27.8574409617
28.629922834
29.7449379851
30.989377469
32.0796533271
33.0577637976
33.9668047352
34.8996935292
35.81942597
36.8588331861
37.9663023635
39.1264620045
40.3779783469
41.6351594943
42.7779769272
43.6879777961
44.5673225796
45.9121127612
47.4949977464
48.2196361411
47.9146580662
48.0256195795
48.7319600701
50.0605155761
36.7737459563
1.01962441169e-22
1.53670755397e-27
6.89391170098e-39
6.96638317717e-36
1.13672175306e-37
0
0
0
0
0
0
0
0
0
0
0
0
0
0
0
0
0
0
6.00330921688e-40
4.06534184524e-39
7.49682741626e-37
95.3846671216
16.5603878901
16.7371795723
21.9084679095
17.6747649556
17.1019226321
17.1821091485
18.2669927163
17.6855853853
21.2343468638
22.4297548525
20.9242877685
20.0989495066
19.0821093727
20.5598433592
20.2028061165
19.1477332324
18.8904590967
19.0836070467
18.9108826211
19.1408279981
19.5455635501
20.2789398767
21.7373281471
24.9569566128
28.0196538768
29.9010988541
28.9541154919
28.3439351263
28.5190857255
28.7709230852
29.9456580436
31.4856527742
32.4920480409
33.5540659997
34.6606817429
35.4852176637
36.4122046502
37.4700935291
38.6111931763
39.8000235562
41.0557915585
42.3935526953
43.6811816433
44.8869961722
46.1726582208
47.8509574581
49.3768698344
49.9505676509
50.2734924983
50.5247977571
50.8452839277
40.2565635949
4.63685397542e-22
4.23252173156e-27
5.56289841837e-31
7.55548230341e-33
0
0
0
0
0
0
0
0
0
0
0
0
0
0
0
0
0
0
0
0
0
0
1.84720856822e-39
1.34449744699e-28
17.0383193727
17.1905708607
21.5708096206
17.3951056113
17.3913719955
17.5597272027
19.0210478305
18.1607985106
21.9272117114
23.1527209193
21.5380615918
20.7165597994
19.6371293219
21.3219440529
21.1427585752
19.9811291636
19.6842007953
19.9673521032
19.8104126749
19.9428059407
20.1427126436
20.6130167253
21.9753150104
24.8646026989
27.6647104449
30.1284889039
30.0687545234
28.9326210103
28.1619541705
29.1623877299
30.3195125109
31.8361049644
33.1687800909
34.3807889151
35.4415348102
36.1842264218
37.0882265346
38.1628685137
39.3361285076
40.5759457777
41.8667628781
43.2971178172
44.8535721877
46.5119786967
47.8263388268
48.8665464087
50.2319124212
51.5268411438
53.423099514
54.5248107344
44.5483573569
4.22507568324e-21
5.61009390246e-27
9.67431930638e-31
1.98425270997e-33
4.804257503e-35
1.61262616846e-37
0
0
0
0
0
0
0
0
0
0
0
0
0
0
0
0
0
0
0
0
0
3.10429612584e-40
4.10726731444e-40
17.7404282001
17.8918986234
21.2801997941
17.6745677424
17.9180415545
18.0230148248
19.0619575368
18.8570285593
22.4375380407
23.8356233669
22.1713878404
21.3657559876
20.2860848369
21.9955934843
21.968811251
20.8720110474
20.5111864037
20.812351481
20.6830450344
20.878993882
20.9904784602
21.0969369624
22.4043456998
24.9778119588
27.4518555864
30.1174485427
30.5736358745
29.7324293685
28.6634609117
29.310578538
30.7717021705
31.9863335737
33.2337148862
34.6305404052
36.2855647393
37.1679887913
37.9994803987
38.9678832518
40.1172147383
41.4349363707
42.840064956
44.4044259582
46.4424678454
48.2536386132
49.0647689902
50.0341830376
51.9736905822
55.5270193192
61.2870605833
49.0927427555
1.2071172812e-21
2.00523374528e-28
8.2981261546e-33
2.72068323209e-36
1.70708282174e-38
3.46011853722e-38
5.31345092367e-39
0
0
0
0
0
0
0
0
0
0
0
0
0
0
0
0
0
0
0
0
0
2.29447637199e-41
1.04185429997e-40
18.8085654789
18.9241593979
21.5877680307
18.5675967564
19.0160009008
18.8400673466
19.3850720427
20.1036715104
22.5317759851
24.3533117622
22.8529400657
22.0701426168
21.0264511913
22.7621113181
22.8135682491
21.903434326
21.4955069074
21.7829802595
21.5576240883
21.8984019325
22.1227668737
21.7835497868
22.9185342726
25.3039642386
27.4430526342
29.9112396697
30.7591292132
30.3995555277
30.4528178559
30.0760341215
31.0462262138
32.5699936288
34.3429675267
35.1713541323
36.5858777847
38.1236936755
39.0367323426
40.0530077597
41.1247055214
42.3822365868
43.920297377
46.0509344496
48.570166553
49.8013969133
50.2413321143
51.7718482355
55.9232423325
62.1715118854
55.570393493
33.2698263904
3.03803736632e-30
2.83642212534e-35
1.94077352133e-37
0
0
0
0
0
0
0
0
0
0
0
0
0
0
0
0
0
0
0
0
0
0
0
0
0
0
0
20.3078490357
20.2070431137
22.3991612984
20.3599331228
20.8735732754
20.0458285109
20.2949695471
21.9048997309
22.7682088725
24.9602939764
23.6322476038
22.8391358715
21.8326106406
23.5605750297
23.6507073066
23.0328027694
22.9194806891
23.0477040058
22.5215540148
22.9965353701
23.5270221844
22.7498015533
23.3192066273
25.7216079111
27.6460419479
29.7325200161
30.8409874526
30.53256829
31.5699369043
31.561023024
31.9653976235
32.3091197379
34.1316130117
36.2164183194
37.4770045621
38.8683688239
40.0717782363
41.141324697
42.3301136122
43.6141491885
45.4673568812
48.402719498
50.6766012648
51.4825728922
52.4247162418
55.760350788
62.7091105334
58.7730776027
34.2058489774
2.71119717859e-32
4.73974491075e-35
2.17026876133e-37
0
0
0
0
0
0
0
0
0
0
0
0
0
0
0
0
0
0
0
0
0
0
0
0
0
0
0
0
21.8856821329
21.4000656287
23.2578931772
22.7337119943
22.5000460706
21.4215450632
21.2752876713
22.9778050074
22.0839396847
25.4288684003
24.4916112689
23.6632065029
22.6917995875
24.3585265901
24.4195387613
23.9680685064
24.8491997987
24.5560931105
23.5858421514
24.1822416577
24.7779007277
23.9677096265
23.4653547302
25.6537653779
27.748972288
29.5718740909
30.8098374987
30.5243529971
31.8998096647
32.7628514697
33.2952390452
33.0018721968
34.1990762457
36.1336130572
38.305345935
40.0203179482
41.3267437294
42.3905264441
43.5756303822
45.1756762366
47.9360149102
51.0677427256
52.9583786183
54.1345227194
56.5029952431
61.3198613175
60.1753186953
33.2923195086
7.30013325893e-32
1.05684830812e-34
3.70128665884e-37
0
0
0
0
0
0
0
0
0
0
0
0
0
0
0
0
0
0
0
0
0
0
0
0
0
0
0
0
0
22.6325238838
22.1970754494
23.7737535229
23.7114399138
23.4822258764
22.6933522642
22.3699313702
24.257669798
23.0614713611
26.022531619
25.3559999908
24.5147990017
23.5973003724
25.1663945405
25.1734447473
24.7255061853
25.7574122808
25.5953248442
24.5722280164
25.3036112628
25.4442181304
24.6972925441
24.3242961474
24.5337856607
27.0883873174
28.9084866287
30.4440480315
30.3342997388
31.8398903598
33.2131964773
34.366472884
34.6491425477
34.5549758917
36.097747598
38.4493375281
40.8260296529
42.6913038557
44.0173591774
45.1952154775
47.5835996715
51.0082737312
53.875743466
55.5901374146
57.5518300576
61.2363134654
57.9221855165
35.1496419206
24.6937524603
3.47398518714e-34
9.89408966448e-37
0
0
0
0
0
0
0
0
0
0
0
0
0
0
0
0
0
0
0
0
0
0
0
0
0
0
0
0
0
0
22.6389912922
22.6394046231
24.0378424876
23.8509642242
24.056811947
23.6450807562
23.2963676431
25.5108715764
24.6285648692
26.7620250171
26.2591675372
25.3765727895
24.5436375924
25.9992575863
25.9725278782
25.583585902
26.488396137
26.4678902642
25.5652374069
26.2207605472
25.2976416388
25.3338518195
25.2110273314
25.4327766553
26.193209501
27.2970574667
29.3521937836
29.847318799
31.2538879809
33.0676336995
34.6734759507
35.8761745616
35.946551673
36.7710689301
38.5780450288
40.979228674
43.5771803409
45.7105986066
47.4968091261
50.7001507633
54.1874607823
56.6567537449
58.1606964124
60.1724593278
55.964899821
37.6468842769
39.7752921674
1.20670810937e-33
2.70313904742e-36
0
0
0
0
0
0
0
0
0
0
0
0
0
0
0
0
0
0
0
0
0
0
0
0
0
0
0
0
0
0
0
22.7656617671
22.8978917557
24.2233011418
22.9166858128
24.2392939642
24.114006118
23.8693453654
26.0371553889
25.3753065328
27.4781613956
27.1662314824
26.2130183316
25.5354392149
26.8443555108
26.7945346546
26.5607001241
27.3144744081
27.4467565525
26.6860909517
27.5147121529
26.5203078439
26.7959204499
26.3491348601
26.6345501199
27.8059990017
28.4067874293
28.7061169929
29.2388279936
30.5465342367
32.7250841542
34.39290814
35.9037761202
37.0035281378
37.7068549036
39.6426297149
41.5731812239
44.25539648
47.2475656037
50.3030258188
54.1064020166
57.3119247143
59.1869463376
59.2501255561
57.2274620835
57.2679929499
35.0265128003
1.01258040536e-32
2.30518884118e-35
0
0
0
0
0
0
0
0
0
0
0
0
0
0
0
0
0
0
0
0
0
0
0
0
0
0
0
0
0
0
0
0
23.3066249023
23.404907286
24.4027125438
23.1733718515
24.3686980031
24.3070385748
24.2141724825
26.1380898701
25.8387841757
27.9647516659
28.0189893878
26.9636046484
26.5577200078
27.6485718776
27.5514609649
27.4877039871
28.0956967057
28.4952633232
27.8517493463
28.8370466749
28.1720886904
28.6757661224
28.5441224669
27.5522605043
28.4927636992
29.342480923
29.5557839087
28.6913218405
29.7155306756
32.2718121356
34.1829577728
35.2936908289
36.5631315771
37.7443585949
39.8300607868
42.0707298271
44.9965431167
48.7622222285
53.289029917
57.6685378805
60.2858776241
60.9611736178
59.4365300866
54.7358859674
35.3638247193
47.7516231359
1.60634620792e-34
6.51376958654e-37
0
0
0
0
0
0
0
0
0
0
0
0
0
0
0
0
0
0
0
0
0
0
0
0
0
0
0
0
0
0
0
0
24.0094954691
25.0289311286
24.6992940896
23.9428218699
24.7359886833
24.5266823598
24.5126366743
26.1784543085
26.2292266469
28.0902669383
28.8087227369
27.5872399988
27.4230822001
28.2564697615
28.211596844
28.1390035255
28.3332378164
29.4100564419
29.0470490792
29.9559627658
29.9201838379
29.8854466145
29.7969229365
29.4326448352
28.7249842998
29.3085029908
30.1651823631
27.8276227178
28.7098025728
31.1626796761
33.8020791294
35.3492514462
36.6903176245
37.2748482902
39.2606563435
41.9513692871
45.3080283722
50.122450152
56.2959249801
61.1840781548
62.9391690653
60.1224000827
58.7233257689
61.7973653159
41.9027538578
1.08879603118e-33
2.77886935597e-36
0
0
0
0
0
0
0
0
0
0
0
0
0
0
0
0
0
0
0
0
0
0
0
0
0
0
0
0
0
0
0
0
0
24.4670188435
25.5359147087
25.1871012641
24.5881078997
25.2152829456
24.8769342987
24.8421306518
26.2592581278
26.5779003521
27.9262861196
29.4625742715
28.1325395555
27.8670576552
28.6881408472
28.8691919972
28.6600591424
28.4569743663
30.0066238964
30.2286744191
30.8871654714
31.0725798278
31.3164428032
30.2977024151
30.3066206465
29.7616029646
30.5935586536
31.120634352
28.8763219557
27.5744220123
29.4906561147
32.425167828
34.8723928084
36.4205003969
37.186400159
38.2121812227
40.9811092382
44.7595381982
51.0090751955
59.1489755178