/*--------------------------------*- C++ -*----------------------------------*\
| =========                 |                                                 |
| \\      /  F ield         | OpenFOAM: The Open Source CFD Toolbox           |
|  \\    /   O peration     | Version:  v1806                                 |
|   \\  /    A nd           | Web:      www.OpenFOAM.com                      |
|    \\/     M anipulation  |                                                 |
\*---------------------------------------------------------------------------*/
FoamFile
{
    version     2.0;
    format      ascii;
    class       volScalarField;
    location    "912";
    object      pa;
}
// * * * * * * * * * * * * * * * * * * * * * * * * * * * * * * * * * * * * * //

dimensions      [0 2 -2 0 0 0 0];


internalField   nonuniform List<scalar> 
6400
(
-0.120214624822
-0.120215378308
-0.120217507371
-0.120221707512
-0.120228071081
-0.120236671557
-0.120247593162
-0.120261251118
-0.120278167785
-0.120299061545
-0.120325741827
-0.120359423323
-0.120399922383
-0.120447681981
-0.120503803103
-0.120569734534
-0.120646815723
-0.120735843194
-0.120836915533
-0.120949070565
-0.121071349381
-0.121205208982
-0.12135427646
-0.121522480273
-0.121712780849
-0.121926293079
-0.122162812741
-0.122422391288
-0.122705980174
-0.123015036678
-0.123350946026
-0.123713926628
-0.124102106812
-0.124513355786
-0.124947012071
-0.125402489077
-0.125880800841
-0.126385554404
-0.126916281628
-0.127468241687
-0.128042040846
-0.128645004623
-0.129280949569
-0.129944750801
-0.130628580377
-0.131326275234
-0.132032793102
-0.132743786253
-0.133455014054
-0.134162489287
-0.134862486498
-0.135549319222
-0.136213842009
-0.136845136565
-0.137438963304
-0.137995763263
-0.138509088101
-0.138967650949
-0.139365849572
-0.139706693248
-0.139993258273
-0.140225681766
-0.14040504187
-0.140550861022
-0.14070020707
-0.14089147792
-0.141129053482
-0.141366899469
-0.141566932516
-0.141725917447
-0.141854187217
-0.141963684511
-0.14206211081
-0.142147031863
-0.142220714183
-0.142283178038
-0.142333661844
-0.142366073198
-0.142386455495
-0.142395027654
-0.120213618973
-0.120214422112
-0.120216359269
-0.120220430794
-0.120227070422
-0.120235926735
-0.12024684078
-0.120259958753
-0.120276257064
-0.120296916006
-0.120323292911
-0.120356464091
-0.120396707916
-0.12044431583
-0.12050001685
-0.120565067441
-0.120641447903
-0.12073014924
-0.120831022134
-0.120942743154
-0.121063850699
-0.121196524459
-0.121344903821
-0.121512551567
-0.121702359678
-0.121915440186
-0.122151375772
-0.122410450542
-0.122693664544
-0.123002263865
-0.123337479624
-0.123699949483
-0.124087889561
-0.12449854893
-0.124931735045
-0.125386953898
-0.125864948807
-0.126369791873
-0.126901107703
-0.127453677435
-0.128027416633
-0.128630791141
-0.129268526567
-0.129933834827
-0.130618627496
-0.131317460168
-0.132025282622
-0.132737846764
-0.133450656776
-0.134158894532
-0.134858730064
-0.135546586651
-0.136214537543
-0.136847998423
-0.137443615543
-0.138002766231
-0.138515415795
-0.138972225716
-0.139370643148
-0.139711385701
-0.13999624488
-0.14022875649
-0.140410488719
-0.140560247336
-0.140713050636
-0.140905831886
-0.141146391388
-0.141384125381
-0.141582863845
-0.141741386659
-0.141869437759
-0.141979250592
-0.142078639321
-0.14216477367
-0.142237111459
-0.142296864572
-0.142343058293
-0.142373948459
-0.142393495914
-0.142399953163
-0.12021074639
-0.120211999418
-0.120213733389
-0.120217413598
-0.120223715111
-0.12023331823
-0.120244761817
-0.120257190525
-0.120272446385
-0.120292308025
-0.120318002573
-0.120350450748
-0.12039004764
-0.120437019075
-0.120491785705
-0.120554846679
-0.120629243854
-0.12071785342
-0.12081834331
-0.120928589258
-0.121047518369
-0.121177544544
-0.121324413011
-0.121491522412
-0.121680238207
-0.121891777693
-0.122126575513
-0.122384729908
-0.12266694115
-0.122974430961
-0.123308389268
-0.123669768002
-0.124057172143
-0.124466355731
-0.124897760731
-0.125352870526
-0.125830440556
-0.126334515729
-0.126866292619
-0.127420687375
-0.127997857929
-0.128603926438
-0.129242056399
-0.129907742805
-0.130593902487
-0.131294682685
-0.132005061181
-0.132720470509
-0.133436344253
-0.134148135089
-0.134851608994
-0.135541582112
-0.136209644631
-0.136846607334
-0.137448485605
-0.138010143077
-0.138522319852
-0.13897876174
-0.139377198684
-0.139717922439
-0.140003136367
-0.140235298123
-0.140420192262
-0.140578756341
-0.140744510027
-0.140946583137
-0.141180862446
-0.141412071659
-0.141612174439
-0.141773569272
-0.141904403773
-0.142015644412
-0.142111899668
-0.142193265084
-0.142262730649
-0.142319275384
-0.142360944045
-0.142388947483
-0.142406243919
-0.142412343289
-0.120206571939
-0.120207831368
-0.120209287605
-0.120212583351
-0.120217969452
-0.120227197874
-0.12024083136
-0.120253004324
-0.120266824614
-0.120285417651
-0.120310048797
-0.120341545057
-0.120380239453
-0.120425955367
-0.120479057855
-0.120541283486
-0.120614755433
-0.120700799585
-0.120797399318
-0.120902964334
-0.121019190625
-0.121148682129
-0.12129450234
-0.121459825649
-0.121646749803
-0.121856483018
-0.122089559244
-0.122346129016
-0.122626776347
-0.122932558702
-0.123264898559
-0.123624645184
-0.124010498783
-0.124418923026
-0.124847597311
-0.12530011613
-0.125778450124
-0.126282431426
-0.126813397084
-0.127370005137
-0.127951756903
-0.128561760351
-0.129201953205
-0.129869220836
-0.130557669874
-0.131261515028
-0.131975580263
-0.132695094768
-0.133415409459
-0.134131902969
-0.134839851546
-0.13553351608
-0.136205343339
-0.136847644976
-0.137454465736
-0.13801871062
-0.13853206756
-0.138989054936
-0.139387690115
-0.139728440597
-0.140013782753
-0.140248491552
-0.140443979507
-0.140619946746
-0.140797513049
-0.140998130227
-0.141230286048
-0.141461829184
-0.141664201227
-0.141828218249
-0.141958424441
-0.142064100686
-0.142153674815
-0.142234228351
-0.142303778852
-0.142355577935
-0.142390460611
-0.142416206023
-0.142433776604
-0.14244092169
-0.12020005383
-0.120200328086
-0.120202001104
-0.120205204637
-0.120210838357
-0.120218855813
-0.120230903545
-0.120243789066
-0.120257845766
-0.120275774355
-0.120299165965
-0.120329499082
-0.120366996877
-0.120412010684
-0.120464664732
-0.120524782524
-0.120594366919
-0.120674888607
-0.120766428736
-0.120868923586
-0.120983124955
-0.121110692246
-0.121254526764
-0.121417650023
-0.121602124566
-0.12180935303
-0.122039937608
-0.122294244384
-0.122572772833
-0.122876394614
-0.123206335087
-0.123564252319
-0.123948955639
-0.124353924892
-0.124779865891
-0.12523015374
-0.125706648468
-0.126211113461
-0.126743634708
-0.127303154136
-0.127889357915
-0.12850378481
-0.129147300318
-0.129817475679
-0.130509363441
-0.131217432442
-0.131936398948
-0.132661314848
-0.133387412529
-0.134109927014
-0.134823793019
-0.135523061624
-0.136200662324
-0.136849238652
-0.137461534986
-0.138029396552
-0.138544974188
-0.139003356128
-0.139402916386
-0.139744737967
-0.140032811119
-0.140275341572
-0.140486858331
-0.140681251075
-0.140869004341
-0.14107232687
-0.141302092156
-0.141532696174
-0.14173685622
-0.141901486545
-0.142027137856
-0.142126492541
-0.142216725829
-0.142300707344
-0.142366353315
-0.142411073251
-0.142442114494
-0.142469247384
-0.142484990838
-0.142489803812
-0.120188485276
-0.120188449082
-0.120190977948
-0.12019407299
-0.120199795305
-0.120207517464
-0.120218508085
-0.120230939983
-0.120245298554
-0.120262805325
-0.120284660395
-0.120313486787
-0.120350605049
-0.120395083271
-0.120445157065
-0.120501651059
-0.120566640542
-0.120642290184
-0.120729397626
-0.120828088769
-0.120938781644
-0.121063371474
-0.121204515159
-0.121364861072
-0.121546315888
-0.12175011388
-0.121977460706
-0.122228777084
-0.122504600671
-0.122805597509
-0.123132848545
-0.123487638164
-0.123868600262
-0.124272110157
-0.124694232133
-0.125140825642
-0.125616374132
-0.126121793833
-0.126656445747
-0.127219351949
-0.127810177864
-0.128429556732
-0.12907757474
-0.129752058958
-0.130448702614
-0.131162263572
-0.131887421677
-0.132619081927
-0.133352345436
-0.134082296248
-0.134803656049
-0.135510380993
-0.136195526303
-0.136851503774
-0.137470131706
-0.138042766172
-0.138561951236
-0.139023293779
-0.139425758622
-0.13977158204
-0.140066799509
-0.140322166752
-0.14055256966
-0.140762052829
-0.140960339162
-0.141172505512
-0.14140606525
-0.141634596384
-0.141835856785
-0.141995351676
-0.142114871255
-0.142215576918
-0.142313147705
-0.142395346525
-0.142453436792
-0.1424914595
-0.142521549818
-0.142545210044
-0.142556252171
-0.142560351213
-0.120171248749
-0.120172352194
-0.120176226382
-0.12018045907
-0.120184682384
-0.120192072102
-0.120202905881
-0.120214960614
-0.120229082978
-0.120245993445
-0.120267401824
-0.120294458266
-0.120330229501
-0.120371899343
-0.120418463933
-0.120470868301
-0.120531753109
-0.120603333072
-0.120686092826
-0.12077980177
-0.120886045722
-0.121006997431
-0.121144593329
-0.121301203519
-0.121478838545
-0.121679023711
-0.12190165134
-0.122149053297
-0.12242172244
-0.122720161069
-0.123043715692
-0.123393899845
-0.123770825752
-0.12416902652
-0.124588282551
-0.125032813927
-0.12550780941
-0.12601427311
-0.126551298273
-0.127117879633
-0.127713600329
-0.128338526119
-0.128992170647
-0.129672381742
-0.130375222615
-0.131095685801
-0.131828450639
-0.132568309586
-0.133310236492
-0.134049179138
-0.134779708914
-0.135495674482
-0.136190007047
-0.136854712364
-0.137481024258
-0.138060192904
-0.13858522274
-0.139052350968
-0.13946137417
-0.139815736708
-0.140123134301
-0.140395279288
-0.140642386475
-0.140868058009
-0.141084142723
-0.141308389712
-0.141545323185
-0.141767898755
-0.14195948706
-0.142111733115
-0.142233100066
-0.142344568834
-0.142445872718
-0.142520755139
-0.142569867119
-0.142601748123
-0.142628158913
-0.142642586245
-0.142645301958
-0.142646906669
-0.120151178024
-0.120153351595
-0.120157496713
-0.120163051664
-0.120166945936
-0.120174403115
-0.120184103812
-0.120195694752
-0.120209543423
-0.12022441117
-0.120245583093
-0.120272115664
-0.120304833759
-0.120342786996
-0.12038544476
-0.120433478443
-0.120490559986
-0.120558077436
-0.120635589039
-0.120723830204
-0.120825010374
-0.120941347829
-0.121074496938
-0.121226930211
-0.121400179108
-0.121595265454
-0.121813529076
-0.122054305647
-0.12232352802
-0.122619284622
-0.122938555786
-0.123281476753
-0.123652585981
-0.124046095322
-0.124461766154
-0.124905441317
-0.125380491281
-0.125887973658
-0.126427401631
-0.126997881157
-0.127598860603
-0.128230003187
-0.128890394648
-0.129577773748
-0.130288363089
-0.131017298307
-0.131759260883
-0.132508948447
-0.133261207363
-0.134010849198
-0.134752308685
-0.135479293328
-0.136184517574
-0.136859651743
-0.137495717285
-0.138084207151
-0.138618669714
-0.139095855827
-0.139516019674
-0.139883149038
-0.140205414883
-0.140494225177
-0.140759550989
-0.141008873231
-0.141245152042
-0.141482271494
-0.141717232404
-0.141931810582
-0.142114129007
-0.142264500749
-0.142396233004
-0.142518733579
-0.142616897807
-0.142682079016
-0.142720332074
-0.142743634316
-0.142756059498
-0.14275590846
-0.142745943979
-0.142740380078
-0.120129499289
-0.12013213736
-0.120135922853
-0.120139842566
-0.120144531496
-0.120153007526
-0.120161747964
-0.120172452111
-0.120186360619
-0.120200459235
-0.120218206686
-0.120243649271
-0.120273974477
-0.120307759748
-0.120346428338
-0.1203910885
-0.120443450142
-0.12050565365
-0.120577540745
-0.120660247536
-0.120755855338
-0.120866480465
-0.120993688361
-0.121140526301
-0.121309890612
-0.121498372676
-0.121710975786
-0.121947631194
-0.12220969987
-0.122499563316
-0.122814325403
-0.123153500312
-0.123514604437
-0.123901556137
-0.124315140075
-0.124758225817
-0.125233403235
-0.12574191716
-0.126283776293
-0.126858353504
-0.127465021061
-0.128103126843
-0.12877141344
-0.129467449416
-0.130187463886
-0.130926634464
-0.131679619068
-0.132441011784
-0.133205504048
-0.133967741281
-0.134722011418
-0.135461885668
-0.136179936875
-0.136867786181
-0.137516703692
-0.138118736575
-0.138667653281
-0.139159816903
-0.139595077608
-0.139977692043
-0.140315987258
-0.140622471412
-0.140909232686
-0.14118277131
-0.141443265863
-0.1416952992
-0.141934022189
-0.142136312634
-0.142310261432
-0.142462888579
-0.142610017442
-0.142740027582
-0.142832622522
-0.142886340196
-0.142909595997
-0.142914503244
-0.142902245626
-0.14287904756
-0.142852377139
-0.142836123829
-0.120106009917
-0.120108809838
-0.12011278255
-0.120115633466
-0.120120278971
-0.120127822221
-0.120135647611
-0.120144890166
-0.12015682648
-0.120172196222
-0.120187592394
-0.120209921952
-0.120237277965
-0.120267365973
-0.120301400029
-0.120342446198
-0.120390533391
-0.120446616118
-0.120511958265
-0.1205885435
-0.120678317262
-0.120782905737
-0.120903405604
-0.121042124002
-0.121205847287
-0.12138988544
-0.121592146711
-0.121823110472
-0.122078314114
-0.122362455832
-0.12267108606
-0.123003008896
-0.123357709487
-0.123737744301
-0.124148007402
-0.124590122883
-0.125065366556
-0.125574927769
-0.126119259931
-0.126698116683
-0.127310929686
-0.127956817523
-0.12863421319
-0.129340475319
-0.130071747513
-0.130823163335
-0.131589302369
-0.132364608914
-0.133143553262
-0.133920547408
-0.134689707996
-0.135444540748
-0.136177731774
-0.136881354871
-0.13754754724
-0.138169066988
-0.138738493151
-0.139249666732
-0.139702412606
-0.140104007229
-0.140461526412
-0.14078721154
-0.141095792644
-0.141392147814
-0.141676605885
-0.141945220441
-0.142185623054
-0.142391893606
-0.142557190623
-0.142709240274
-0.142876248871
-0.143015245259
-0.143104181087
-0.143144196253
-0.143143697245
-0.14311622547
-0.143068877677
-0.143011879454
-0.142961950896
-0.142932077449
-0.120079978761
-0.120082369701
-0.120086134063
-0.12008900834
-0.120094434346
-0.120099704412
-0.120106097912
-0.120113862063
-0.12012194163
-0.120136336156
-0.120150947705
-0.120170248175
-0.120194244216
-0.12022131542
-0.120251270842
-0.120287194683
-0.120330233394
-0.120380281052
-0.120438786476
-0.120508194536
-0.120591127376
-0.120689557221
-0.120804529995
-0.120934298361
-0.121086763124
-0.121266205068
-0.121461654797
-0.121682704119
-0.121929904979
-0.122202081387
-0.122505068999
-0.122830688648
-0.12317863637
-0.12355316613
-0.123959789964
-0.124400158745
-0.124875091448
-0.125385636756
-0.125932497397
-0.126515804611
-0.12713521295
-0.127789745181
-0.128477546319
-0.129195725132
-0.129940284773
-0.130706262877
-0.131488097891
-0.132279985629
-0.13307604781
-0.133870346653
-0.134656784529
-0.135428940432
-0.13618002441
-0.136903329557
-0.137592686711
-0.13824167446
-0.138837927723
-0.139369381996
-0.139841973255
-0.140273766104
-0.140658492114
-0.141000540175
-0.141326771172
-0.141641804644
-0.14194513038
-0.142228035153
-0.142478589489
-0.142692266593
-0.142851014546
-0.142991862207
-0.143201590489
-0.143362908494
-0.143452400063
-0.143473032614
-0.143430788691
-0.143355389858
-0.143261521435
-0.143154132877
-0.143067762005
-0.143016829947
-0.120050833197
-0.120052336705
-0.120054372997
-0.120058051429
-0.120064063339
-0.120067845296
-0.120072836235
-0.120079492834
-0.120084723065
-0.120095167625
-0.120108137141
-0.120124458663
-0.120144608726
-0.12016848696
-0.120195784625
-0.120226283416
-0.120263024834
-0.120306468849
-0.120357897265
-0.120419369416
-0.120493631802
-0.120583790738
-0.120693834261
-0.120818291598
-0.120957507599
-0.1211258454
-0.121315002408
-0.121523522582
-0.121763714146
-0.122027617141
-0.122317744111
-0.122633827167
-0.12297528829
-0.123345895898
-0.123748991271
-0.124186948758
-0.124661062192
-0.125172429208
-0.125721893709
-0.1263098449
-0.126936261885
-0.127600296658
-0.128299881714
-0.129031817989
-0.129791936848
-0.130575177247
-0.131375781505
-0.132187547437
-0.133004036856
-0.13381876216
-0.134625330161
-0.135417536962
-0.136189628016
-0.136937093092
-0.137656625968
-0.138343995234
-0.138973898193
-0.139522525893
-0.140018652734
-0.140512658046
-0.140940627888
-0.141279577151
-0.141612139608
-0.141939972772
-0.142263288343
-0.14256647555
-0.142830992387
-0.143050634018
-0.143239187789
-0.143262682752
-0.143590704813
-0.143804346592
-0.14390383783
-0.143895323685
-0.143780598995
-0.143638587873
-0.143489131457
-0.143296055761
-0.143150444247
-0.143061820163
-0.12001889773
-0.120019544382
-0.120019445257
-0.120023028993
-0.120027603536
-0.120031017977
-0.120034957673
-0.120040090237
-0.120043935943
-0.120050774097
-0.120060334929
-0.120072939139
-0.120088694481
-0.120107856598
-0.120131775602
-0.120157774227
-0.120188433075
-0.120224941759
-0.120268926755
-0.120322147945
-0.120386750564
-0.120466010522
-0.120566861741
-0.12068773477
-0.12081775121
-0.120970180862
-0.121151099996
-0.121348682606
-0.121573401588
-0.121828132241
-0.12210871792
-0.122415528546
-0.12274897689
-0.123114274533
-0.123513490553
-0.123948659741
-0.124421484362
-0.124933352472
-0.125485446608
-0.126078360091
-0.126712258974
-0.127386593935
-0.128099338926
-0.128847023612
-0.129625263513
-0.130428931532
-0.131252060615
-0.132087861194
-0.13292900904
-0.133768153499
-0.13459839837
-0.135413867697
-0.136210128079
-0.136985598491
-0.137740999634
-0.138485090985
-0.139164229813
-0.139716098551
-0.140232677216
-0.14090557894
-0.141459049183
-0.14169232105
-0.142022487661
-0.142368817136
-0.142724369184
-0.143044127789
-0.143351323945
-0.143220658549
-0.143177585366
-0.143350775933
-0.144262094235
-0.144590840248
-0.144668976869
-0.144592823003
-0.144260987435
-0.1439475754
-0.143756420358
-0.143410381714
-0.14318146841
-0.143022219867
-0.119984716728
-0.119985182816
-0.11998527243
-0.119986090726
-0.119987953609
-0.119990378443
-0.11999304562
-0.119995794147
-0.119998883887
-0.120002271818
-0.120007836241
-0.120016183792
-0.120027197058
-0.120040933419
-0.120058649176
-0.1200799206
-0.12010520143
-0.120135007179
-0.12017124155
-0.120215832828
-0.120270610743
-0.120338089934
-0.120425914199
-0.120539027804
-0.120663707561
-0.120800325564
-0.120968090101
-0.121157220653
-0.121365274806
-0.12160488546
-0.121873512454
-0.122170438298
-0.122497393603
-0.12285690696
-0.123251376596
-0.123683122545
-0.124154255816
-0.124666337361
-0.125220841135
-0.125818914612
-0.126460930216
-0.127146473314
-0.1278737262
-0.128639192343
-0.129438377467
-0.130266178612
-0.131116454039
-0.131981599491
-0.132852941541
-0.133721781951
-0.134580378961
-0.135423163109
-0.136246312065
-0.137049466389
-0.137834881564
-0.138682616559
-0.13947076507
-0.139957237204
-0.140373954953
-0.141299964548
-0.141288436174
-0.141222463341
-0.141278076756
-0.141348134605
-0.141445265507
-0.141565108772
-0.141807871647
-0.142314052452
-0.142617328093
-0.142474007077
-0.142728431372
-0.143090825524
-0.143375352465
-0.143499564856
-0.143664303254
-0.144181713748
-0.144347121495
-0.143463219097
-0.143118945507
-0.142809376707
-0.119948169124
-0.11994854902
-0.119949221734
-0.119947051987
-0.119946330697
-0.119947040166
-0.119948002835
-0.119948569341
-0.119950740638
-0.119949850928
-0.119950950692
-0.119954708285
-0.119960773556
-0.119969169481
-0.119980065135
-0.119994896368
-0.120013812331
-0.12003650832
-0.120064534911
-0.120099858311
-0.120144450042
-0.120200305796
-0.120273106496
-0.120373131309
-0.120491885929
-0.120615616506
-0.12076433492
-0.120944120785
-0.121142028313
-0.121362364643
-0.121615381594
-0.121900570209
-0.122218800524
-0.122571426203
-0.122960343996
-0.123387982246
-0.123856767617
-0.124368771608
-0.124925622006
-0.125528839255
-0.12617942542
-0.126877193554
-0.127620418819
-0.128405717774
-0.129228808236
-0.130084967476
-0.130968044233
-0.13186936689
-0.132778257445
-0.133683950504
-0.134577379277
-0.13545387012
-0.136306985028
-0.137128537368
-0.137893830995
-0.138967248128
-0.140077744842
-0.140000143035
-0.139996836641
-0.140284946079
-0.14060300478
-0.140599151759
-0.140463470814
-0.140243019091
-0.139983604184
-0.139706020395
-0.139518841825
-0.139561331937
-0.139652014376
-0.139638722017
-0.139861206575
-0.140270593215
-0.140766348797
-0.141276581636
-0.141814751127
-0.142208229407
-0.142461828138
-0.142945485975
-0.14309324214
-0.142358755702
-0.119908929681
-0.119908831776
-0.119908254501
-0.119904960776
-0.119902304362
-0.11990119982
-0.119899861473
-0.119897610628
-0.11989763089
-0.119893007367
-0.119889750232
-0.119888807403
-0.119889878739
-0.119892926585
-0.119896878246
-0.119904092154
-0.119915362879
-0.119929993146
-0.119949008188
-0.11997425037
-0.120007719811
-0.120051532902
-0.120109629507
-0.120192770173
-0.120300208705
-0.120415967521
-0.120543240745
-0.120702563229
-0.120890013578
-0.12109783506
-0.121334270232
-0.12160512674
-0.121912133813
-0.122256037112
-0.122638169435
-0.123060667418
-0.123526342351
-0.124037644657
-0.124596663271
-0.125205118301
-0.125864551976
-0.126575405529
-0.127336162309
-0.128143417646
-0.128993321001
-0.129882333087
-0.130805039928
-0.131751423859
-0.132707554403
-0.133659712073
-0.134596992271
-0.135518854247
-0.136409419171
-0.137216570177
-0.137619019219
-0.139243608408
-0.139420349497
-0.139538934934
-0.139609780185
-0.139691972511
-0.139856201345
-0.139751911925
-0.139429831727
-0.138933886303
-0.138333694806
-0.137678472918
-0.137054641724
-0.136528417049
-0.136086120798
-0.135771390183
-0.135710107582
-0.135885811771
-0.136267365399
-0.136813342889
-0.137568656958
-0.13857297905
-0.139718611237
-0.140589736631
-0.140821903829
-0.140729185803
-0.119867942838
-0.119867303129
-0.119865659714
-0.119860904512
-0.119856765582
-0.119853517074
-0.119849413196
-0.119843473453
-0.119839298965
-0.119831748279
-0.119824297117
-0.119818533445
-0.119814541333
-0.119812360757
-0.119808644027
-0.119807654442
-0.119810381506
-0.11981600812
-0.119825008936
-0.11983920032
-0.1198604347
-0.119890985459
-0.119934102391
-0.119998576565
-0.120089016079
-0.120196312705
-0.120306894452
-0.120442231923
-0.120608599821
-0.120802324994
-0.12102402702
-0.121280701518
-0.121574797924
-0.121908086859
-0.122282045707
-0.122698418486
-0.123159951449
-0.123669814497
-0.124230503281
-0.124844135742
-0.125512669319
-0.126237202916
-0.127016842031
-0.127848214006
-0.12872779367
-0.129654285567
-0.130624431763
-0.131626734817
-0.132642764772
-0.133654961127
-0.134646967539
-0.13564349354
-0.136645046094
-0.137601555337
-0.137786201612
-0.138042508357
-0.138536257917
-0.138947602483
-0.139107439142
-0.139036912383
-0.138816658494
-0.138329510512
-0.137641395386
-0.136778285808
-0.135804756482
-0.134780498911
-0.13377520548
-0.132826485112
-0.131962507634
-0.131276195435
-0.130876343934
-0.130763051153
-0.130906720284
-0.131302246164
-0.132061307648
-0.133358542179
-0.135042419285
-0.136496885032
-0.137972330466
-0.140772520849
-0.119826118739
-0.119824809687
-0.119821325452
-0.119815521938
-0.119810415477
-0.119804869853
-0.119797894274
-0.119788467793
-0.119779713167
-0.119767641922
-0.119755264979
-0.119744084237
-0.119734350621
-0.119726361465
-0.119714572781
-0.119705050819
-0.119698584375
-0.119694552921
-0.119692614842
-0.119694765967
-0.119702612576
-0.119718527054
-0.119745556531
-0.119790290241
-0.119859423909
-0.119951683657
-0.120052405431
-0.120166533834
-0.120308378934
-0.120480390705
-0.120683787095
-0.120924118905
-0.121203235654
-0.121523997685
-0.121888303486
-0.122297300189
-0.122753907897
-0.123261522544
-0.123823364075
-0.124441852055
-0.12511941353
-0.125858120036
-0.126657875237
-0.127515508601
-0.128426832735
-0.129393228572
-0.130418198914
-0.131491428567
-0.132585394174
-0.133675298283
-0.134716604786
-0.135804445368
-0.13696039815
-0.137200513502
-0.137389361175
-0.137571720527
-0.13805209144
-0.13833179824
-0.138244899597
-0.137840201287
-0.137161056387
-0.136198617476
-0.135041250435
-0.133727149355
-0.132316075722
-0.130866419991
-0.129440128964
-0.128077579478
-0.126820101976
-0.125748413953
-0.124961445169
-0.124503172724
-0.12433419346
-0.124485415517
-0.125146551181
-0.126563980189
-0.128518188206
-0.130186947171
-0.133158314082
-0.144401356122
-0.119784651848
-0.119782621303
-0.119777173965
-0.119770527326
-0.11976411775
-0.119756033246
-0.119745889852
-0.119733319051
-0.119719412708
-0.119701783624
-0.119683542071
-0.119666075181
-0.119649508698
-0.119633494954
-0.119614008795
-0.119595774978
-0.119579476907
-0.119564798159
-0.11955132467
-0.11954067878
-0.119534103879
-0.119533912881
-0.119543549476
-0.119567360819
-0.11961213932
-0.119682065012
-0.119769145066
-0.11986536011
-0.119983645417
-0.120132318945
-0.120313190642
-0.1205330348
-0.120794847766
-0.121100342067
-0.121452872425
-0.121853060168
-0.122303442065
-0.12280800801
-0.123370463541
-0.123993743212
-0.124680340339
-0.125433061837
-0.126253025381
-0.127138061014
-0.128084710031
-0.129096667055
-0.130182090163
-0.13133378401
-0.132528544494
-0.133741494096
-0.134772790765
-0.135903362414
-0.136258105181
-0.136624610157
-0.137073019232
-0.137381863294
-0.137601567429
-0.13743864451
-0.136871087525
-0.135964554379
-0.134757510539
-0.133279773663
-0.131611599394
-0.129799470309
-0.127898536104
-0.125959072573
-0.124030594677
-0.12214902944
-0.120348179691
-0.118680166994
-0.117225236414
-0.116056219154
-0.115135606234
-0.114493683439
-0.114322058252
-0.114962639969
-0.116323244791
-0.117057363397
-0.116924865636
-0.121979848762
-0.119744341682
-0.119741716847
-0.119734984126
-0.11972733524
-0.119718813995
-0.119707717302
-0.11969375796
-0.119677835827
-0.119658438473
-0.119634730024
-0.119609991711
-0.119585559797
-0.119561390397
-0.119536028186
-0.119508131104
-0.119480490807
-0.119453532708
-0.119426872291
-0.11940083247
-0.119376535082
-0.119354617407
-0.119336930349
-0.119327667255
-0.119329369241
-0.119348096818
-0.119390312622
-0.119453788518
-0.119531641152
-0.119627728774
-0.119751972879
-0.119909160816
-0.120103987342
-0.120343952331
-0.120631408703
-0.120970405853
-0.121360682325
-0.121803638905
-0.122303975
-0.122866117366
-0.123493723115
-0.124189542976
-0.124956469315
-0.125797241191
-0.126711348375
-0.127696061031
-0.12875392322
-0.129897945232
-0.131137873277
-0.132467713639
-0.133921827296
-0.134744227994
-0.135159558332
-0.135590590306
-0.136334960967
-0.136801878365
-0.136908333557
-0.136693704196
-0.135979251417
-0.134831213682
-0.133327720936
-0.131523476038
-0.129465731904
-0.127216785073
-0.124815578366
-0.12230209591
-0.119709512674
-0.117069097837
-0.114405982843
-0.111744865073
-0.109120379582
-0.106593565856
-0.104232884381
-0.101972850778
-0.0996784985565
-0.0974317729508
-0.0956576456682
-0.0943090951798
-0.089690232383
-0.0739164697144
-0.0553597336371
-0.119705665671
-0.119702477849
-0.119694773547
-0.11968593463
-0.119674928245
-0.119660469955
-0.119642521259
-0.119622664346
-0.119597174764
-0.119567140369
-0.119535501369
-0.119503602126
-0.11947141247
-0.119436701821
-0.119398717865
-0.119360567602
-0.119321990481
-0.119282120594
-0.119241746123
-0.119202377183
-0.119163829522
-0.119127166466
-0.11909703398
-0.119075301362
-0.119066806244
-0.119078506619
-0.119113395494
-0.119168638905
-0.119244893614
-0.119340684908
-0.119469303654
-0.119636906035
-0.119850952514
-0.120113735593
-0.12043351881
-0.1208126458
-0.121247850807
-0.121743560207
-0.122304473533
-0.122935369888
-0.123640236604
-0.124422202679
-0.125284808612
-0.126227612221
-0.127245745284
-0.12834354647
-0.129543178003
-0.130885183488
-0.132436952808
-0.134957686249
-0.134302728141
-0.1345686395
-0.135317019801
-0.136132022685
-0.136260776818
-0.135931342287
-0.135132892174
-0.133789516614
-0.131996021204
-0.129833880704
-0.127367265369
-0.124647313354
-0.12172079924
-0.118616692032
-0.115362525243
-0.111981808075
-0.108498225752
-0.104933034831
-0.101303666845
-0.0976201451084
-0.0938842792105
-0.0900744952737
-0.0860752276426
-0.0815143743439
-0.0762404559221
-0.0706059965896
-0.0640469076107
-0.0497730329232
-0.0118718764021
0.0435956545565
-0.119668521155
-0.119664789839
-0.119656350888
-0.119646123521
-0.119632431259
-0.119614474321
-0.119592808478
-0.119568085424
-0.11953624018
-0.119499939631
-0.11946093543
-0.119421000101
-0.1193801873
-0.119335640558
-0.119286634033
-0.119236904043
-0.11918583597
-0.119131311207
-0.119074901694
-0.119018668407
-0.11896151933
-0.118904128431
-0.118850659935
-0.118803871929
-0.118766856021
-0.118745865338
-0.118747911513
-0.118772944492
-0.118824870676
-0.118894897346
-0.118991485913
-0.119124750677
-0.119308703564
-0.119547020858
-0.119841422689
-0.120201915625
-0.120627258933
-0.121117803873
-0.1216781049
-0.122312294856
-0.123025491348
-0.12382315007
-0.124708235847
-0.125677000373
-0.126721086172
-0.127847262989
-0.12907805824
-0.13042468706
-0.131550851552
-0.132642777983
-0.133337507026
-0.133632677108
-0.135126384125
-0.135576165958
-0.135245242841
-0.134330236454
-0.132842960148
-0.130798887729
-0.128303128438
-0.125437821674
-0.122269699775
-0.118851283789
-0.115226193917
-0.111426474265
-0.107482244372
-0.103418829322
-0.0992551322274
-0.0949965865982
-0.0906275061581
-0.0860980395048
-0.0813060934102
-0.0760838493396
-0.0701940561986
-0.0632029384365
-0.0547988268447
-0.0450953252476
-0.0323647679095
-0.00707638517821
0.0478372901769
0.117949605771
-0.119632964947
-0.119628653932
-0.119619434668
-0.119607565472
-0.119590831526
-0.119569524976
-0.119544160879
-0.119513828651
-0.119476032198
-0.119433768565
-0.119387018186
-0.119338479024
-0.119288402879
-0.119233311004
-0.119172454597
-0.119110037445
-0.119045406266
-0.118974496203
-0.11890072661
-0.118825909881
-0.118747439373
-0.118667668229
-0.118588680423
-0.118514226081
-0.118447172223
-0.118391900436
-0.118357322762
-0.118345777843
-0.118363078107
-0.11840569652
-0.118472078359
-0.118568612409
-0.118712085411
-0.118917553159
-0.119187258585
-0.119524880611
-0.119935199931
-0.120417931389
-0.120976625592
-0.121615372262
-0.122338546754
-0.123152046323
-0.124057612854
-0.125047451388
-0.126115692915
-0.127282728866
-0.128600282037
-0.130094675509
-0.130485085301
-0.13016003949
-0.130712731576
-0.132803786668
-0.134494840929
-0.134468157168
-0.133610971088
-0.132009621684
-0.129779266475
-0.126994663256
-0.123774113205
-0.120205291687
-0.116361148177
-0.112300960782
-0.108074221648
-0.103719345614
-0.0992654096211
-0.094725591254
-0.0900906296698
-0.0853213723778
-0.0803447793253
-0.0750446185553
-0.0692313635787