/*--------------------------------*- C++ -*----------------------------------*\
| =========                 |                                                 |
| \\      /  F ield         | OpenFOAM: The Open Source CFD Toolbox           |
|  \\    /   O peration     | Version:  v1806                                 |
|   \\  /    A nd           | Web:      www.OpenFOAM.com                      |
|    \\/     M anipulation  |                                                 |
\*---------------------------------------------------------------------------*/
FoamFile
{
    version     2.0;
    format      ascii;
    class       volVectorField;
    location    "564";
    object      Ua;
}
// * * * * * * * * * * * * * * * * * * * * * * * * * * * * * * * * * * * * * //

dimensions      [0 1 -1 0 0 0 0];


internalField   nonuniform List<vector> 
6400
(
(4.94252642264e-05 6.58164707719e-05 0)
(0.000134272103561 4.99421325585e-05 0)
(0.000196049073889 4.07284831506e-05 0)
(0.000263431473847 3.68212460122e-05 0)
(0.00031393809919 2.52995056558e-05 0)
(0.000351715181431 1.62699127009e-05 0)
(0.000374195014936 1.30482314673e-05 0)
(0.000393872775445 1.85748366909e-05 0)
(0.000442058664076 2.56995577871e-05 0)
(0.000492152160736 2.55957026971e-05 0)
(0.00051838333031 2.37624152225e-05 0)
(0.000566034958394 2.57172459847e-05 0)
(0.000611513186418 2.5032409238e-05 0)
(0.000651694132794 2.28489830185e-05 0)
(0.000685710982486 2.21572228335e-05 0)
(0.000722297369668 2.45425219617e-05 0)
(0.000766206200017 2.57693531391e-05 0)
(0.000807218924737 2.45944866774e-05 0)
(0.000842425424058 2.25801230217e-05 0)
(0.000877803683738 2.22659816487e-05 0)
(0.000920874791401 2.67050813086e-05 0)
(0.000971765118523 3.13605925826e-05 0)
(0.00102581634682 3.27986366616e-05 0)
(0.00107750103769 3.27274345702e-05 0)
(0.001127915149 3.1804139915e-05 0)
(0.00117789506425 3.06859491948e-05 0)
(0.00122891710114 3.06728461475e-05 0)
(0.00127900008861 3.03935657523e-05 0)
(0.00132640156755 2.95270120556e-05 0)
(0.00137145978367 2.88879546797e-05 0)
(0.00141422230136 2.92379414215e-05 0)
(0.00145880750754 2.929810937e-05 0)
(0.00150506005902 2.88391117932e-05 0)
(0.00155008821675 2.98394863135e-05 0)
(0.00159577253433 3.0663882247e-05 0)
(0.00164740295606 3.14428076411e-05 0)
(0.00169786823394 3.26439699571e-05 0)
(0.00173818153784 3.22059219487e-05 0)
(0.00178723198716 3.1169353076e-05 0)
(0.00184277690316 3.12556190197e-05 0)
(0.00189219450633 3.39106124849e-05 0)
(0.0019319922603 3.35486496811e-05 0)
(0.00196863064918 2.77115752138e-05 0)
(0.00200313859081 2.36236010085e-05 0)
(0.00203287865183 2.18904479358e-05 0)
(0.00205901273879 1.99812529294e-05 0)
(0.0020811067742 1.79757412315e-05 0)
(0.00209792878802 1.52799745017e-05 0)
(0.0021096666096 1.27277654186e-05 0)
(0.00211647388623 1.30625908612e-05 0)
(0.00212242852912 1.67740317049e-05 0)
(0.00213696946524 1.6046087734e-05 0)
(0.00213837387843 4.24552441258e-06 0)
(0.00213401044125 -1.83074982274e-06 0)
(0.00211155686701 -7.28934239097e-06 0)
(0.00205113303994 -1.86230235888e-05 0)
(0.00198714903351 -1.61129811234e-05 0)
(0.00195697749905 -6.88394297872e-06 0)
(0.00194465675818 -1.0421097863e-05 0)
(0.00187404952697 -1.3343865092e-05 0)
(0.00183372834157 3.00709742981e-06 0)
(0.00177538996581 -5.39948429902e-06 0)
(0.00193198304403 -5.88899633231e-05 0)
(0.00167494640175 -9.64618084588e-05 0)
(0.00134068260844 -7.4379892669e-05 0)
(0.00120837058442 -4.93601175074e-05 0)
(0.00112998957853 -4.77191161481e-05 0)
(0.00106950273529 -4.7127734815e-05 0)
(0.00100597861491 -4.83027477697e-05 0)
(0.000914290795072 -5.13252769201e-05 0)
(0.000817063595029 -5.26196521145e-05 0)
(0.000704616053271 -5.13289744337e-05 0)
(0.000595906327431 -5.13389243194e-05 0)
(0.00052165190735 -5.55545258105e-05 0)
(0.00038777585238 -4.4552557699e-05 0)
(0.000335523464562 -3.93016094798e-05 0)
(0.000219977431835 -2.43017667119e-05 0)
(0.000225311285849 -3.33096961856e-05 0)
(9.65952596693e-05 -2.34410410282e-05 0)
(7.2002494133e-05 -4.33035352969e-05 0)
(1.89955619804e-05 9.22470166743e-05 0)
(8.13198982198e-05 0.000102858517353 0)
(0.000141339586912 9.29935609113e-05 0)
(0.000180786211006 7.51708257166e-05 0)
(0.00026057399409 7.43209035387e-05 0)
(0.000333198446482 5.42340361568e-05 0)
(0.000377880573799 3.74390515223e-05 0)
(0.000411801462257 4.88330272513e-05 0)
(0.000449069866078 6.26828651577e-05 0)
(0.000490758426348 6.29419023981e-05 0)
(0.000531578173709 6.07554212983e-05 0)
(0.000570647408407 6.09568832843e-05 0)
(0.000608858934865 5.77519739733e-05 0)
(0.000645698703592 5.32844594465e-05 0)
(0.000683909911057 5.26673866862e-05 0)
(0.000723255591993 6.15075021354e-05 0)
(0.000764439674205 6.62405339593e-05 0)
(0.000801823914351 5.61670829534e-05 0)
(0.000819239675864 4.86207545178e-05 0)
(0.000859015612592 5.17358605733e-05 0)
(0.00090951774828 6.44653049942e-05 0)
(0.000965077892285 7.88486035385e-05 0)
(0.0010249442616 8.22188475323e-05 0)
(0.00107943090915 7.75344723871e-05 0)
(0.0011220214837 7.39212407942e-05 0)
(0.00117585549314 7.3190798718e-05 0)
(0.00122874354215 7.18497169905e-05 0)
(0.0012770002215 6.93620404468e-05 0)
(0.00132343199038 6.683780388e-05 0)
(0.00136920481923 6.5125434069e-05 0)
(0.00141371648055 6.51444592938e-05 0)
(0.00145317538818 6.45125970482e-05 0)
(0.00149913002943 6.22894014851e-05 0)
(0.00154328218339 6.53476883098e-05 0)
(0.00158669302896 6.94928048739e-05 0)
(0.00164504086822 6.89510069648e-05 0)
(0.00169194058529 7.05644101675e-05 0)
(0.00173273521899 7.20905498081e-05 0)
(0.00178665165338 7.01194823948e-05 0)
(0.00185099341577 6.64433236775e-05 0)
(0.00190236890549 5.92328340195e-05 0)
(0.00189781936436 5.02847851358e-05 0)
(0.00191129556362 4.50698008937e-05 0)
(0.00195000127736 4.24784314574e-05 0)
(0.00198251792937 3.96172885062e-05 0)
(0.00201594847008 3.55492997748e-05 0)
(0.00204820221736 2.98113160783e-05 0)
(0.0020721956397 2.26871602826e-05 0)
(0.00209704911722 1.51068966273e-05 0)
(0.00211452219552 8.49869996547e-06 0)
(0.00211435104008 4.3731409246e-06 0)
(0.0020854575342 4.7092529078e-07 0)
(0.00206351590868 -5.05942924265e-06 0)
(0.00213266946861 -1.95981354151e-05 0)
(0.00209751514352 -4.70275156371e-05 0)
(0.00205911753625 -6.53509810926e-05 0)
(0.0020645498739 -6.09514396692e-05 0)
(0.00204464536706 -5.13611112583e-05 0)
(0.0020125194884 -5.89961477281e-05 0)
(0.00198619748708 -6.91497682618e-05 0)
(0.00197679844421 -7.57832822579e-05 0)
(0.00174489020351 -8.58459682292e-05 0)
(0.00189525346809 -0.000208668516602 0)
(0.00164465180686 -0.000303581655619 0)
(0.00135575745997 -0.000262791465101 0)
(0.00114110849638 -0.000180061585509 0)
(0.00103186043237 -0.000129415016724 0)
(0.00101944869372 -0.00011758343322 0)
(0.000963226259625 -0.000129508097864 0)
(0.000894776223921 -0.000150566062433 0)
(0.000790379810963 -0.000162154583896 0)
(0.000674936966838 -0.000158718594183 0)
(0.00055378300424 -0.000139264365122 0)
(0.000496250292514 -0.000135714690151 0)
(0.000420916013003 -0.000126101461774 0)
(0.000353721615945 -0.000114570862142 0)
(0.000285732966957 -9.72871466452e-05 0)
(0.000223757632214 -9.94346030979e-05 0)
(0.000137761118574 -0.000105142828872 0)
(6.30884839549e-05 -0.000169891108361 0)
(2.70121529695e-05 0.000159749315072 0)
(7.72233517986e-05 0.000171826738011 0)
(0.000119350414284 0.000160653419008 7.22124776752e-29)
(0.000201009577491 0.00016241094657 -6.7007100114e-29)
(0.000277488486412 0.000160778711201 -5.90400776181e-29)
(0.000326449291208 0.00013199594895 5.38277982973e-29)
(0.000363011453748 7.90798605613e-05 -5.40226516636e-29)
(0.000397921196646 8.65641443122e-05 5.24060029226e-29)
(0.000436826174949 0.000104662455092 0)
(0.000480498733252 0.000108366465959 0)
(0.000524097745219 0.00010495728943 0)
(0.000564250422343 0.000100394919887 0)
(0.000602076568949 9.50961372104e-05 0)
(0.000637984469493 9.27167054067e-05 0)
(0.000676193083964 9.42422494817e-05 0)
(0.000715831102706 9.29750659899e-05 0)
(0.000683444439743 7.98668203813e-05 0)
(0.000683094816444 7.25038100244e-05 0)
(0.000722725330198 8.22775564237e-05 0)
(0.000788709590526 0.000108367035675 0)
(0.000901081287619 0.000136674822848 0)
(0.000972312425379 0.000144591055146 0)
(0.00101378489929 0.000138858469692 0)
(0.00106758286832 0.0001322457699 0)
(0.00112338986083 0.000128621992566 0)
(0.00117303949199 0.000126557684612 0)
(0.00122139989091 0.000122944306663 0)
(0.00126985908745 0.000118953619011 0)
(0.00131683938032 0.000115568015064 0)
(0.00136167862307 0.000113302701763 9.96653995592e-29)
(0.00140831654334 0.000111586701308 -9.64902906048e-29)
(0.00144361285572 0.000109879937386 0)
(0.00148736406616 0.000108794390725 0)
(0.00154354213221 0.00011024555307 0)
(0.00156669225679 0.000118314248995 0)
(0.0016256986614 0.000124875459047 0)
(0.00169455478104 0.000123521023122 0)
(0.00172127234358 0.000124456127626 0)
(0.0017788804572 0.000128720867329 0)
(0.00184693223366 0.000121875787124 0)
(0.00189917217559 0.000100235245245 0)
(0.00193611531448 8.2329287067e-05 0)
(0.0019701930667 7.91425684842e-05 0)
(0.00200398389266 7.85663427446e-05 0)
(0.00203398787017 7.45106595339e-05 0)
(0.00205997368989 6.80698870037e-05 0)
(0.00208228961331 5.88166060771e-05 0)
(0.00210090009893 4.80442175426e-05 0)
(0.00211598514634 3.57804783512e-05 0)
(0.00212708422508 2.07578877826e-05 0)
(0.00213370616949 5.29296532771e-06 0)
(0.00213592699172 -3.16195790982e-06 0)
(0.00213405431512 -2.93807918209e-06 0)
(0.00211422989623 -2.32111478386e-05 0)
(0.00207824831524 -5.6779273335e-05 0)
(0.00207548020593 -7.09524654637e-05 0)
(0.00206542962314 -7.2517900311e-05 0)
(0.00203754784262 -7.60483122919e-05 0)
(0.00200232898562 -8.49181682763e-05 0)
(0.00196506688916 -0.00010242454485 0)
(0.00190685706175 -0.000146467542784 0)
(0.0018400906226 -0.000207390889043 0)
(0.00179912179449 -0.000405744938169 0)
(0.00146849859177 -0.000513261799269 0)
(0.00114958711398 -0.000391276597143 0)
(0.0010638633852 -0.000280938125083 0)
(0.00102379581577 -0.000216043935409 0)
(0.000953549965604 -0.000191649343087 0)
(0.000883970202466 -0.000210508190908 0)
(0.000802547122739 -0.000240757775599 0)
(0.000703323399252 -0.000251439505953 0)
(0.000612379122818 -0.000237278736873 0)
(0.000555424422145 -0.000219152195823 0)
(0.000497971210643 -0.000213154442608 0)
(0.000420161996434 -0.000207233612461 0)
(0.000339871783775 -0.000190481040685 0)
(0.000264796400728 -0.00017052781101 0)
(0.000202085335414 -0.000182061183344 0)
(0.000139084154491 -0.000235255490305 0)
(3.55259547698e-05 -0.00023328212841 0)
(2.5477845664e-05 0.000234844820567 0)
(3.7197801627e-05 0.000161637200014 0)
(9.56977541529e-05 0.000240034904873 0)
(0.000171002383128 0.000239954775905 0)
(0.000239066372677 0.000207166224651 0)
(0.000144542904212 8.66351695432e-05 0)
(0.000183163750653 9.08162356226e-05 0)
(0.000334786893882 0.00016109472048 0)
(0.000408007725748 0.000169431268241 0)
(0.000460773109134 0.000158787363521 0)
(0.000510410674725 0.000150587185166 0)
(0.000554053803608 0.000141039489109 0)
(0.000593091555898 0.000132729709321 0)
(0.000624423908756 0.000120757194801 0)
(0.000613014945051 0.000100513759928 0)
(0.000601377197368 8.60315414995e-05 0)
(0.000618377169306 8.75525822095e-05 0)
(0.000671907832424 0.000113977563241 0)
(0.000769729420145 0.000158150956869 0)
(0.000862796191665 0.000198528466374 0)
(0.00091016597014 0.000207479978985 0)
(0.000959443543927 0.000199574419797 0)
(0.00101323275271 0.000191790797638 0)
(0.0010645840473 0.00018587273341 0)
(0.00111410834607 0.000179989053276 0)
(0.00116237229186 0.000174647531299 0)
(0.00120984375205 0.000170176678015 0)
(0.00126024934383 0.000165970237554 0)
(0.00130507394655 0.000161441986082 0)
(0.00135467517057 0.000158332703249 0)
(0.00139196219161 0.000154854380457 0)
(0.00144134271484 0.000152070555929 0)
(0.00146782093758 0.000147522520367 0)
(0.0015174399607 0.000153858418633 0)
(0.00158556055297 0.000167720870506 0)
(0.00161575641029 0.00017707368675 0)
(0.00168306139337 0.000180571014625 0)
(0.0017520479521 0.000181805551498 0)
(0.0018023302556 0.000182224173836 0)
(0.00184900023349 0.000170132282545 0)
(0.00189401049306 0.000146591156292 0)
(0.00193432480076 0.000125507772311 0)
(0.00197121981596 0.000114688181329 0)
(0.00200530413596 0.000108326710648 0)
(0.00203533275553 0.000100636993678 0)
(0.00206131473729 9.05391712365e-05 -8.87296948984e-29)
(0.00208354218378 7.80731318617e-05 8.93398730746e-29)
(0.00210201700952 6.3730583755e-05 0)
(0.00211671237398 4.75880681369e-05 0)
(0.00212733173156 2.97131839958e-05 0)
(0.00213329339689 1.20383407519e-05 0)
(0.00213342951784 -3.2194454432e-06 0)
(0.00212615893553 -1.9981150919e-05 0)
(0.0021096933815 -4.58171985479e-05 0)
(0.00208986020291 -7.05522327572e-05 0)
(0.00207269304326 -8.56533751082e-05 0)
(0.00205101101217 -9.82083472566e-05 0)
(0.00201798635722 -0.0001121418826 -1.79140646008e-28)
(0.00197307729636 -0.000131753729273 2.09575484807e-28)
(0.00191247497132 -0.000166929331102 0)
(0.00182384864188 -0.000232909568678 0)
(0.00170260033473 -0.000357523060542 0)
(0.00155291197921 -0.000579324676656 0)
(0.00138855868849 -0.000710481070944 0)
(0.00122106527383 -0.000585376514744 0)
(0.00100902469603 -0.000365584412785 0)
(0.000922201315206 -0.000279597585554 0)
(0.000864367970491 -0.000265285244607 0)
(0.000803627118989 -0.000287545036651 0)
(0.000749498014158 -0.000328023133568 0)
(0.000677859166557 -0.000342100148819 0)
(0.000603447337711 -0.00032226495279 0)
(0.000526439808901 -0.000299291492787 0)
(0.000426275585744 -0.000279791835835 0)
(0.000351265183154 -0.000274965604458 0)
(0.000281250517021 -0.000272368360209 0)
(0.000203489734652 -0.000249782112134 0)
(0.000118875492024 -0.000205795577088 0)
(8.66308791014e-05 -0.000262939136551 0)
(2.88415751907e-05 -0.000304075440083 0)
(2.04998217356e-06 0.000235723980284 0)
(1.92071045176e-05 0.000196116409034 0)
(8.36273880967e-05 0.000310232639463 0)
(0.000143411935373 0.000290024357737 0)
(0.000159107237708 0.000199374188528 0)
(0.000129886724253 0.000117116894979 0)
(0.000222151052297 0.000188680338196 0)
(0.000329591575279 0.00025619101117 0)
(0.000377507106691 0.000235900131674 0)
(0.00043480180105 0.000214338319658 0)
(0.000488062818073 0.000203084228759 0)
(0.000534644550168 0.000187048580336 0)
(0.000551662836381 0.000152773705568 0)
(0.000524600021446 0.000113182973993 0)
(0.000545962563625 0.00010440619877 0)
(0.000592060139747 0.000118869462442 0)
(0.000663218172844 0.000152924864227 0)
(0.000747247593232 0.000200363616883 0)
(0.00081254369175 0.000236276368313 0)
(0.000848318236839 0.000246873749817 0)
(0.00089625218345 0.000252213685928 0)
(0.000951386339805 0.000252540179373 0)
(0.00100230619016 0.000245396936208 0)
(0.00105240902371 0.000236474922897 0)
(0.00110097126743 0.000228649362419 0)
(0.00114787254243 0.000223003944611 0)
(0.00119864962937 0.00021837814728 0)
(0.00124192140809 0.000212652503308 0)
(0.00129578879386 0.0002082463492 0)
(0.00133131097438 0.000201733869463 0)
(0.00138727060712 0.000198767132917 9.55712540035e-29)
(0.0014019172846 0.000191323810826 -9.07652561226e-29)
(0.00146616030017 0.000196155160263 0)
(0.00152988317821 0.000205927577509 0)
(0.0015661345452 0.000218717791433 0)
(0.00164038049161 0.000236897874469 0)
(0.00169982922428 0.00024475795571 0)
(0.00175304407305 0.000239060516959 0)
(0.00180164238468 0.000228297099059 0)
(0.00184754202826 0.000212324492569 0)
(0.00189213834654 0.000190054358461 0)
(0.00193397798356 0.000168175263093 0)
(0.00197237244257 0.000152363820718 0)
(0.00200703388163 0.000140445432345 0)
(0.00203742819601 0.000128355391331 0)
(0.00206367282958 0.000114407377101 0)
(0.0020859717405 9.82909758082e-05 0)
(0.0021042927463 8.01538975255e-05 0)
(0.00211843707172 6.00174473898e-05 0)
(0.00212799986602 3.8069537215e-05 0)
(0.00213228876196 1.530915107e-05 0)
(0.00213012462039 -7.67123388416e-06 0)
(0.00212030714919 -3.28424319087e-05 0)
(0.00210291527237 -6.15811737559e-05 0)
(0.00208154598119 -8.83949925426e-05 0)
(0.00205812883319 -0.000110562952611 0)
(0.00202710791608 -0.000133145067188 0)
(0.00198135485384 -0.000161442969594 0)
(0.00191526216241 -0.000202238954179 0)
(0.00182164123885 -0.000267312591131 0)
(0.00169438597304 -0.000370715439597 0)
(0.00154588462997 -0.000522716638069 0)
(0.00138884521973 -0.000709960816161 0)
(0.00131562372262 -0.000829152673117 0)
(0.00121195346441 -0.000734686234449 0)
(0.00102068626299 -0.000518851704848 0)
(0.000898443055724 -0.000397665119945 0)
(0.000800845711102 -0.000350581487579 0)
(0.000724588272887 -0.00035460805795 0)
(0.000670208149139 -0.000388412745431 0)
(0.000618669025971 -0.000414913327887 0)
(0.000544670086793 -0.000404469422253 0)
(0.000441054762977 -0.000367564614828 0)
(0.000367836457311 -0.000356784143158 0)
(0.000298049870045 -0.000359056487297 0)
(0.000225940315974 -0.00035426870555 0)
(0.000153070893568 -0.000301636924961 0)
(9.85832546591e-05 -0.000263554406021 0)
(6.29065144146e-05 -0.000328945338327 0)
(1.60329607161e-05 -0.000340713598346 0)
(-1.04757058964e-06 0.000220551660293 0)
(2.21024275704e-05 0.000236546571166 0)
(8.17210828873e-05 0.000352230737717 0)
(0.000116841648664 0.000302873485931 0)
(9.10260772733e-05 0.000158885943031 0)
(0.000127590391256 0.000165826477093 0)
(0.000263485290961 0.000294288577138 0)
(0.000308924188631 0.000307797331539 0)
(0.000352034784023 0.000288339070368 0)
(0.000403986268208 0.000271081072034 0)
(0.000457294277274 0.000245805229992 0)
(0.000443443649778 0.000188497274885 0)
(0.000416227092316 0.000133491928918 0)
(0.000455392695937 0.000129512575745 0)
(0.000508071915986 0.000151437423131 0)
(0.000596429501707 0.000194368235496 0)
(0.000686083410142 0.000237665770474 0)
(0.00075079101608 0.000263832658145 0)
(0.000778552982867 0.00027197292415 0)
(0.000829679048213 0.000290547388663 0)
(0.000887594572303 0.000305494006443 0)
(0.000937359958147 0.000304462634528 0)
(0.000986395379881 0.000296158869615 0)
(0.00103473670913 0.000286508535409 0)
(0.00108644678504 0.000278574436989 0)
(0.00113333579373 0.000269927121486 0)
(0.00117021168872 0.000264181886278 0)
(0.00123208292337 0.000261826633161 0)
(0.00126018256002 0.000250988024781 0)
(0.00132622641686 0.00024571609093 0)
(0.0013291731287 0.000233358166436 0)
(0.00140619566801 0.000241557255179 0)
(0.00142008756004 0.000244275344997 0)
(0.00150492022418 0.000263693764228 0)
(0.00158767810519 0.00028694350563 0)
(0.00164836018244 0.000301150719986 0)
(0.00170112901115 0.000299376352628 0)
(0.00175137492408 0.00028910920561 0)
(0.00179955628762 0.00027480485995 0)
(0.00184616184639 0.000256521883245 0)
(0.00189125820678 0.000233959992176 0)
(0.0019340157923 0.00021073028173 0)
(0.00197348065364 0.000190695646182 0)
(0.00200891091836 0.000173483239662 0)
(0.00203995901714 0.000156620869668 0)
(0.00206667019618 0.000138453396826 0)
(0.00208917323128 0.000118338097672 0)
(0.00210730141403 9.60654985682e-05 0)
(0.00212064345763 7.14826721879e-05 0)
(0.00212865854141 4.4628395347e-05 0)
(0.00213061319855 1.58995266896e-05 0)
(0.00212551510435 -1.45371083015e-05 0)
(0.00211263965523 -4.70847332725e-05 0)
(0.00209244503502 -8.09174459166e-05 0)
(0.00206647187178 -0.000113396736905 0)
(0.00203365587776 -0.000145516567708 0)
(0.00198782885671 -0.000183195574533 0)
(0.00192144984925 -0.000233184328484 0)
(0.00182898507292 -0.000302779839989 0)
(0.00170685576468 -0.000398627920516 0)
(0.00156266941753 -0.000523962594905 0)
(0.00141837821991 -0.000668579423311 0)
(0.00123218371908 -0.000777310483755 0)
(0.00125735676575 -0.000947281666988 0)
(0.00107517869199 -0.00083007579254 0)
(0.000917958491545 -0.00062282233483 0)
(0.000827285145989 -0.000510533013364 0)
(0.000729915731169 -0.000443565637201 0)
(0.000644190812213 -0.000420537891564 0)
(0.00059955604618 -0.000455294290017 0)
(0.00055179327546 -0.000494226734597 0)
(0.000459441911729 -0.000464481616082 0)
(0.000382198139832 -0.000435638333186 0)
(0.000320239740963 -0.000436469350532 0)
(0.000246301059827 -0.00043665235421 0)
(0.000185376972007 -0.000421350218083 0)
(0.000122918646338 -0.000342262489785 0)
(7.8747532563e-05 -0.000309396793718 0)
(4.7169667677e-05 -0.000369325899261 0)
(1.31880235066e-05 -0.000368743493803 0)
(6.92610274044e-06 0.000238361849718 0)
(4.72269814321e-05 0.000303123767334 0)
(0.0001022481672 0.000380991142513 0)
(0.000114883782521 0.000362252019058 0)
(8.28181222083e-05 0.000199780645853 0)
(0.000174757899654 0.000283029595753 0)
(0.000260258396738 0.000353034275156 0)
(0.000288071833369 0.000346013893388 0)
(0.000328241410675 0.000330148693692 0)
(0.000361002436106 0.000311700191968 0)
(0.00042327892112 0.000276824495837 -2.46555708673e-28)
(0.000346565209416 0.00016671653748 1.55657401171e-28)
(0.000398195454778 0.000163108342103 0)
(0.000435690239563 0.000180761892975 0)
(0.00051577401841 0.000229374563825 0)
(0.000613057851751 0.000286993070466 0)
(0.000679875686722 0.000307763744765 0)
(0.000697179420763 0.000297874104488 0)
(0.000752027884066 0.000317642572314 0)
(0.000818891057254 0.000347771092382 0)
(0.000867832487116 0.000357294828229 0)
(0.000918064371463 0.000354506079906 0)
(0.000968326240293 0.00034684494751 0)
(0.0010178069088 0.0003360421182 0)
(0.00106122482755 0.000323215737485 0)
(0.00109999378928 0.000312423811407 0)
(0.00115905148761 0.0003104758703 0)
(0.00117876478919 0.000303378356452 0)
(0.0012559164149 0.000299079500389 0)
(0.00125232802531 0.000273872738399 0)
(0.00133569826456 0.000281834757573 0)
(0.00135294564252 0.000288189107591 -8.90619804413e-29)
(0.00143679552506 0.000308742623434 9.09223589603e-29)
(0.00150334263084 0.000336978638942 0)
(0.00159093081317 0.000359985129488 0)
(0.00164767983957 0.000360549441048 0)
(0.00169791376132 0.000351278797635 0)
(0.00174773577973 0.000338139085338 0)
(0.00179704793601 0.000321958090553 0)
(0.00184493871544 0.000302115745518 0)
(0.0018909113005 0.000278549510486 0)
(0.00193456714747 0.000253509500247 0)
(0.00197499199827 0.000229684508198 0)
(0.00201131949882 0.000207528073128 0)
(0.00204317649788 0.000185747045367 0)
(0.00207052534187 0.000162990894341 0)
(0.0020933059525 0.000138396076776 0)
(0.00211112600034 0.000111407124988 0)
(0.0021233696271 8.16380247824e-05 0)
(0.00212938938724 4.89447624582e-05 0)
(0.0021284480907 1.34547669138e-05 0)
(0.00211970405485 -2.46015593141e-05 0)
(0.00210261058534 -6.47923665121e-05 0)
(0.00207716178735 -0.000106151452592 0)
(0.00204292498121 -0.000148520184106 0)
(0.00199662767498 -0.000195522470887 0)
(0.00193162414385 -0.000253840636667 0)
(0.00184211776285 -0.00032897232003 0)
(0.00172851842333 -0.00042322702463 0)
(0.0016007258533 -0.000535648923791 0)
(0.00147111033047 -0.00066119523291 0)
(0.0013488477837 -0.000789307903516 0)
(0.0012495230363 -0.000915875271583 0)
(0.00118913519729 -0.00104328243454 0)
(0.00102682999065 -0.000958668545206 0)
(0.000801681692728 -0.000703108920728 0)
(0.000745071357222 -0.000604825903005 0)
(0.000668311554317 -0.00054313545985 0)
(0.000588179481582 -0.000509929662956 0)
(0.000532996533206 -0.000530768671787 0)
(0.000475062705156 -0.000547787924585 0)
(0.000399679880672 -0.00051641613125 0)
(0.000343250032297 -0.000511283760138 0)
(0.000273088352915 -0.000512794037874 0)
(0.000205162566965 -0.000508148576169 0)
(0.000149053810424 -0.000457344456477 0)
(0.000103211361038 -0.000396149708287 0)
(5.42007097102e-05 -0.000350543032501 0)
(2.80964693254e-05 -0.000393505814039 0)
(9.67612303399e-06 -0.000398771746151 0)
(1.45456316365e-05 0.000275084107809 0)
(6.43454766427e-05 0.000363316151825 0)
(0.000110732121717 0.000395235347719 0)
(7.25834490027e-05 0.000253227324442 0)
(8.40393362514e-05 0.000245193778163 0)
(0.00019267598298 0.000378396062071 0)
(0.000232993987357 0.000389161370264 0)
(0.000268731576673 0.000382672442761 0)
(0.000293039065637 0.000361167093709 0)
(0.000335849190337 0.000344079873027 0)
(0.000286364071724 0.000225352949806 0)
(0.000327483540499 0.000196367870717 0)
(0.000375546542435 0.000207058841408 0)
(0.000422700132493 0.000241403481198 0)
(0.000530942159114 0.000319808178977 0)
(0.000605171761885 0.000355777508801 0)
(0.000616509798153 0.000335449532581 0)
(0.000663717361082 0.000343703592809 0)
(0.000738538406116 0.000381470209331 0)
(0.000796253713757 0.000403364011418 0)
(0.000843243665836 0.000406710997716 0)
(0.000891117375168 0.000403205387884 0)
(0.000943940556993 0.000398166822335 0)
(0.000992799335709 0.000386271724034 0)
(0.00104456643364 0.000368723903275 0)
(0.00107107672169 0.000357950926295 0)
(0.0011391117229 0.000356984703245 0)
(0.00116865130496 0.000344971239458 0)
(0.00118974263769 0.000329288534925 0)
(0.0012432849377 0.000327274956855 0)
(0.00133579905728 0.000341413966215 0)
(0.00136135701129 0.00034315424189 0)
(0.0014136804448 0.000373857178506 0)
(0.00152451393275 0.000416686584867 0)
(0.00158540006912 0.000426788891315 0)
(0.00163979284937 0.000416991839951 0)
(0.00169209974383 0.000403240924914 0)
(0.00174333556566 0.000388196383515 0)
(0.00179411553141 0.000370614021387 0)
(0.00184360139122 0.000349275490933 0)
(0.00189089549885 0.000324159043512 0)
(0.00193560889816 0.000296877606331 0)
(0.00197709915411 0.000269423731657 0)
(0.00201452144354 0.000242574520562 0)
(0.00204738923682 0.000215804444198 -8.57098919444e-29)
(0.00207552568953 0.000188095725897 8.54884016524e-29)
(0.00209862041453 0.000158433944836 0)
(0.00211601311412 0.000125965910009 0)
(0.00212689530173 9.01047548104e-05 0)
(0.00213052285241 5.05849526035e-05 0)
(0.00212611349787 7.42614845788e-06 0)
(0.00211282564661 -3.90891613381e-05 0)
(0.00208995239425 -8.84568246542e-05 0)
(0.00205663208712 -0.000140552282557 0)
(0.00201069800419 -0.000197303890353 0)
(0.00194760880732 -0.000263739792652 0)
(0.00186186365578 -0.000345223876327 0)
(0.00175325405622 -0.000441577134252 0)
(0.00163257307261 -0.000547851826087 0)
(0.0015147419285 -0.000660278205589 0)
(0.00140540155453 -0.000774576616663 0)
(0.00130806605731 -0.000887919303392 0)
(0.00122736109425 -0.00100212556386 0)
(0.00114628118931 -0.00111666986155 0)
(0.00114140766869 -0.00120910243876 0)
(0.000792988163657 -0.000857560237082 0)
(0.00064256967814 -0.000692249626597 0)
(0.000570883650225 -0.000619360137472 0)
(0.000498520762293 -0.000574049666829 0)
(0.000453931751731 -0.000578278710271 0)
(0.000413059170671 -0.00058288681512 0)
(0.000362047723595 -0.000574203846454 0)
(0.000304465421508 -0.000584770225804 0)
(0.000231901153093 -0.000586860725466 0)
(0.000169023210168 -0.000566498462826 0)
(0.000114944130541 -0.000500077814779 0)
(7.0789773967e-05 -0.000449548713507 0)
(2.34897770219e-05 -0.000398471081706 0)
(-6.02660536865e-07 -0.000406968404289 0)
(-1.5430780686e-06 -0.000416541780577 0)
(1.96452550486e-05 0.000319893712742 0)
(7.00393589863e-05 0.000409230254453 0)
(8.88590660485e-05 0.000406268257701 0)
(6.63203580697e-05 0.000275836825068 0)
(0.000112093604268 0.000316577521771 0)
(0.000190054019325 0.000422077304064 0)
(0.000207125803654 0.000422039489084 0)
(0.000249851370971 0.000415947376442 0)
(0.000246513965864 0.000363685713663 0)
(0.000316077224971 0.000385833781708 0)
(0.000263045036889 0.000250193951736 0)
(0.000316463381898 0.000240742648936 0)
(0.000356855588243 0.000257555044363 0)
(0.00043291490535 0.000324606547381 0)
(0.000522632596661 0.000397214529952 0)
(0.000574075026783 0.000403415038754 0)
(0.000583735711797 0.000377058341803 0)
(0.000645207588395 0.000404765295181 0)
(0.000712416671886 0.000441904098172 0)
(0.000766143654456 0.00045640501555 0)
(0.000817119613453 0.000456983715277 0)
(0.000862440989591 0.000450883451426 0)
(0.000913240043029 0.000445556092996 0)
(0.000952167543739 0.000431563420951 0)
(0.000988261892334 0.000406026745411 0)
(0.00105865216988 0.000404649407346 0)
(0.00105903452072 0.000391118575668 0)
(0.00116489726028 0.000396276842931 0)
(0.00116292681709 0.000379592324895 0)
(0.00126595160432 0.000396166133452 0)
(0.00126775539752 0.000384410463203 0)
(0.00137687739741 0.000413981821092 0)
(0.00144875773027 0.000455546933497 -9.5365223819e-29)
(0.00151650129955 0.000485138426983 9.57200165438e-29)
(0.0015747568837 0.000485266172579 0)
(0.00163018528664 0.000472694412491 0)
(0.0016848787198 0.000457088443948 0)
(0.0017382449074 0.000440264224004 0)
(0.00179072556431 0.000421113054853 0)
(0.00184191661061 0.000398166613674 0)
(0.00189093014984 0.00037114612497 0)
(0.00193714868217 0.00034127350687 0)
(0.00197997931577 0.000310184189195 0)
(0.00201873591944 0.000278771165751 0)
(0.00205289773929 0.000246925220776 0)
(0.0020820203362 0.000213851296687 0)
(0.00210548086685 0.00017843423974 0)
(0.00212238539579 0.000139596414531 0)
(0.00213175590125 9.66075420622e-05 0)
(0.00213269771358 4.91258527404e-05 0)
(0.00212429397275 -2.92208392307e-06 0)
(0.00210554753306 -5.94292513049e-05 0)
(0.00207534780923 -0.000120397491414 0)
(0.0020318434777 -0.000186879915141 0)
(0.00197164047961 -0.000262100150285 0)
(0.00189028609778 -0.000350452217736 0)
(0.00178520001903 -0.000453347319039 0)
(0.00166404547653 -0.000561702960587 0)
(0.00154638586165 -0.000667225377291 0)
(0.0014422682742 -0.000772205354434 0)
(0.00134600727339 -0.000874653154154 0)
(0.00125391987614 -0.000972725512817 0)
(0.00117538587831 -0.00107331930066 0)
(0.0011091614571 -0.00117532710333 0)
(0.00109820436943 -0.00127932304659 0)
(0.000966953810383 -0.00118349821087 0)
(0.000588545808564 -0.000799881060746 0)
(0.000459510971821 -0.000697326312975 0)
(0.000416632369564 -0.000633507791263 0)
(0.000393021469862 -0.000607744089458 0)
(0.000370720498764 -0.000609429301863 0)
(0.000334269191486 -0.000633693543476 0)
(0.000271538423437 -0.000658926614459 0)
(0.000197028171881 -0.000658389923344 0)
(0.000129595208132 -0.000619809053496 0)
(6.9936906133e-05 -0.000557270500204 0)
(1.73026487427e-05 -0.000498950062979 0)
(-2.26351600095e-05 -0.000444228991002 0)
(-3.49869941524e-05 -0.00041230775542 0)
(-1.58532832429e-05 -0.000400754333344 0)
(2.27981665314e-05 0.000372955315176 0)
(7.48624238557e-05 0.000441281140703 0)
(7.77754100024e-05 0.000402886883923 0)
(6.40892537762e-05 0.000296009472516 0)
(0.000135192583713 0.00041299519831 0)
(0.000164764342099 0.000434915104925 0)