/*--------------------------------*- C++ -*----------------------------------*\
| =========                 |                                                 |
| \\      /  F ield         | OpenFOAM: The Open Source CFD Toolbox           |
|  \\    /   O peration     | Version:  v1806                                 |
|   \\  /    A nd           | Web:      www.OpenFOAM.com                      |
|    \\/     M anipulation  |                                                 |
\*---------------------------------------------------------------------------*/
FoamFile
{
    version     2.0;
    format      ascii;
    class       volScalarField;
    location    "93";
    object      p;
}
// * * * * * * * * * * * * * * * * * * * * * * * * * * * * * * * * * * * * * //

dimensions      [0 2 -2 0 0 0 0];


internalField   nonuniform List<scalar> 
6400
(
0.143510587485
0.143512409482
0.143517532454
0.143527147841
0.143540514846
0.143557323588
0.143577758199
0.143602995576
0.14363272494
0.143666343262
0.143708933845
0.143763076898
0.143824858931
0.143894581215
0.143974304284
0.144066165859
0.144170261518
0.144285656834
0.144411607532
0.14454419147
0.144676766596
0.144808281098
0.144943216905
0.145087525934
0.145245963384
0.145418474453
0.145601454042
0.145792710868
0.145992753157
0.146203165604
0.146425487293
0.14665889771
0.146897369049
0.14713523519
0.147371834973
0.147602411975
0.147824463806
0.148049443221
0.148277096321
0.148492066042
0.148695782816
0.148908948336
0.149142600606
0.149387411138
0.149636224648
0.149885097994
0.150130723442
0.150372553025
0.150610410071
0.150844292112
0.151076225338
0.151298363443
0.151505294633
0.151687847035
0.151849778395
0.152009190153
0.152160914105
0.152286521436
0.152382586393
0.152459266607
0.152521204114
0.152568635315
0.152601238406
0.152623126058
0.152644139845
0.152661315312
0.152666231376
0.152653181439
0.152623935391
0.152582841306
0.152532258031
0.152472459427
0.152403720986
0.15233185772
0.152258067529
0.152186961287
0.152122075882
0.152076662748
0.152045897597
0.152032641405
0.143507741416
0.143509614359
0.143514038612
0.143523438989
0.143538267157
0.143556604438
0.14357761394
0.143601365336
0.143629354737
0.143663142236
0.14370541269
0.143758071625
0.143820092335
0.143890985811
0.143971252801
0.14406177905
0.144165207722
0.144281330299
0.144409314835
0.144543901801
0.144674891148
0.144803947484
0.144937713237
0.145080882536
0.145239292685
0.145412837719
0.145595635863
0.145787208984
0.145988333321
0.14619965973
0.146421374255
0.146654775446
0.146894848112
0.147132666958
0.147370099593
0.147601097596
0.147822301137
0.148047942525
0.148276494561
0.148489294087
0.148684006387
0.148892499184
0.149135114013
0.149385088016
0.149636054408
0.149887245763
0.150134656816
0.150378474133
0.150616880089
0.150846366198
0.151069464249
0.151291568755
0.151516032525
0.151701777982
0.15186522076
0.152033386885
0.15217870303
0.15229487182
0.152390071905
0.15246661928
0.152525550464
0.152575243549
0.152611647691
0.152635172633
0.152658415592
0.152678201743
0.152684925447
0.15267119606
0.152639992577
0.152596473693
0.152543096388
0.152479956531
0.152406694525
0.152328760584
0.152251281312
0.152177991102
0.152114431378
0.15206745501
0.15203597681
0.15202502606
0.143500007597
0.14350325997
0.143506937311
0.143515504416
0.143529961842
0.143551001332
0.143574670895
0.14359780975
0.143623961221
0.14365675555
0.143698387178
0.143750291126
0.143812344119
0.1438838611
0.143964386128
0.144051453018
0.144153075487
0.144277400659
0.144409750182
0.144543365342
0.144669926015
0.144791608979
0.144922628812
0.145068832666
0.145227466999
0.145399383626
0.14558342194
0.145777117874
0.145979836278
0.146192548662
0.146414862443
0.146648774359
0.146892407582
0.147128808494
0.147363321601
0.147599524634
0.147819322539
0.148040313364
0.148269354866
0.148484384249
0.148688240391
0.148901589422
0.149135367466
0.149380569436
0.149630092927
0.149880614423
0.150129378792
0.150374910599
0.150615675712
0.150850184515
0.151078523506
0.151299953732
0.151510062049
0.151701993719
0.151884675417
0.152053363176
0.152193016079
0.152308300688
0.152403785143
0.152481604643
0.152544533787
0.152595741779
0.152631947274
0.152661149291
0.152691637242
0.152716396688
0.152724514464
0.152709685344
0.152674884581
0.152626054469
0.152565984253
0.152494397407
0.152413151107
0.152327899019
0.152243489557
0.152165217372
0.152099278545
0.152049451311
0.152017231821
0.152004922094
0.143489875835
0.143493014757
0.143495484061
0.143503331903
0.143516033942
0.143536955667
0.14356890145
0.14359183364
0.143615890152
0.143646913819
0.143687656894
0.143739125689
0.143801361281
0.143872252495
0.14395345198
0.144048311103
0.144157107676
0.144279253617
0.144404708657
0.144525234778
0.14464488413
0.144769631981
0.144902534838
0.145047835408
0.14520706838
0.145380400202
0.145566550923
0.14576256227
0.145967784
0.146181993673
0.146407035357
0.146642477186
0.14688671879
0.147131211768
0.147360835923
0.147588965662
0.147816496963
0.148033940235
0.148249715267
0.148464752414
0.148678273218
0.148898503788
0.149131981022
0.149375631708
0.149624694582
0.149875693148
0.150125879792
0.150373359382
0.150616537881
0.150854044515
0.151084975668
0.151307899246
0.151520234859
0.151719066447
0.151904881418
0.152071787193
0.152212675067
0.152329275903
0.152425937769
0.15250594147
0.152572059615
0.152625991879
0.152668661825
0.152710002196
0.152748147693
0.152777551834
0.152788730471
0.152772615801
0.152731619529
0.152673651101
0.152603310795
0.152520972251
0.15242846691
0.15232905321
0.152229977287
0.152143417733
0.152073630646
0.152014955278
0.151973293408
0.151955753925
0.143474318217
0.143474239978
0.143477360073
0.143485435251
0.143499536383
0.14351894761
0.143547183151
0.14357354497
0.143599864167
0.14363185505
0.143672128956
0.14372347211
0.143786588038
0.14386405735
0.143954488316
0.144051756859
0.14415618882
0.144266360828
0.144379360198
0.144496077321
0.144617030997
0.144741926463
0.144875069103
0.145021103084
0.145181288829
0.145356440775
0.145544433326
0.14574353541
0.14595153958
0.146169470743
0.146396501514
0.14663733701
0.146889709599
0.147126973108
0.147356233855
0.147580137525
0.147795920207
0.148011013512
0.148227269429
0.148444968612
0.148664512119
0.148889853063
0.149124772703
0.149368497274
0.149617996157
0.149870128788
0.150122152697
0.150371974562
0.150617972695
0.150858802514
0.15109319886
0.151319537906
0.151535779214
0.151739691587
0.151928636184
0.152096759455
0.152239476606
0.152358387201
0.152457767746
0.15254143432
0.152612392184
0.152672717413
0.15272629263
0.152782775349
0.152826578007
0.152864081472
0.152882605944
0.152866710861
0.152817272912
0.15274535728
0.152659301636
0.152560284409
0.152447305669
0.152324220471
0.152206809363
0.152106859933
0.152020933856
0.151939947859
0.151886474232
0.151866067352
0.143444520198
0.143443701224
0.143450222329
0.143458195196
0.14347359736
0.143494975373
0.143520216881
0.143547622358
0.143576913605
0.143610719929
0.143649904471
0.143702514017
0.143775209642
0.143861041579
0.143951918654
0.14404465525
0.144139983044
0.144240961944
0.144350267138
0.144465918911
0.144583757829
0.144707246021
0.144841083954
0.144988635848
0.145150511332
0.145326351533
0.145517957192
0.145719793539
0.145932406847
0.146153647147
0.146386929718
0.146631255885
0.146880972163
0.147127040587
0.147347073052
0.147556987643
0.147768068918
0.147982962731
0.148201148533
0.148422163155
0.148646426314
0.14887619912
0.14911370387
0.149358879734
0.149609770692
0.149863692871
0.150118013425
0.15037059791
0.150619886416
0.150864623308
0.151103478611
0.151334764391
0.15155634218
0.151765368993
0.151957789749
0.152128392505
0.152274329748
0.152397329657
0.152501169282
0.152589987111
0.152667663921
0.15273866403
0.152812579049
0.152880720216
0.152934604069
0.15298482968
0.153014626627
0.153000518503
0.152940326554
0.152848461797
0.152739150022
0.152613182495
0.152467649713
0.152313900137
0.152171046034
0.152046052505
0.151929016151
0.151821427725
0.151754203304
0.151724473657
0.143398562009
0.143401596493
0.143414064091
0.143426378185
0.143438776665
0.14345991795
0.143487318184
0.143515420735
0.143547162002
0.143583013337
0.143626089755
0.143681545545
0.143762290033
0.143849017235
0.143936623719
0.144021563337
0.144110217726
0.144210036183
0.144319534168
0.144429482942
0.144543628111
0.144667185187
0.144801575531
0.144949455821
0.145112776702
0.145294164285
0.145485593157
0.145692297233
0.145909504976
0.14613967434
0.14637860915
0.14662248491
0.146873491206
0.147108670684
0.147322437246
0.147525839715
0.14773509191
0.147951010062
0.148171630645
0.148395860275
0.148624172559
0.148858056864
0.149098799622
0.149346445148
0.149599603532
0.14985597575
0.150113101983
0.150368968662
0.150622191852
0.150871665233
0.1511160601
0.15135351403
0.151581419699
0.151796145028
0.151993085597
0.15216785636
0.152318750475
0.152447418885
0.152557036578
0.152651751796
0.15273830055
0.152826438546
0.152919424942
0.153001590286
0.153090136594
0.15315872769
0.15319961471
0.153183213015
0.153107935652
0.152990194873
0.152847504209
0.152681666204
0.152492167947
0.152298632679
0.152117618131
0.151950166839
0.151789073227
0.151653124275
0.151569798748
0.151528851235
0.143345011657
0.143351459842
0.143366784237
0.143386243119
0.143400074232
0.143420853532
0.143447617441
0.143477006883
0.14351205504
0.143545992131
0.143595667711
0.143662874712
0.143742330956
0.143827385639
0.143908237495
0.143985696605
0.144074151596
0.144176742747
0.144281098385
0.144385830771
0.144497307759
0.144620875682
0.144756269779
0.14490658825
0.145072908399
0.145256386695
0.145453687856
0.145657452046
0.145885514315
0.1461291871
0.14636696772
0.146604453005
0.14685372708
0.147078489953
0.147283089539
0.147487837127
0.147698163632
0.147915386834
0.148138278799
0.14836562038
0.148597691331
0.148835583705
0.149080048094
0.149330961748
0.149587155972
0.149846614907
0.150107114886
0.150366895586
0.150624833629
0.150879991963
0.15113102309
0.151375784063
0.151611051442
0.151832490558
0.152035386424
0.152216174178
0.152373774246
0.152509155327
0.152623850744
0.152722500881
0.15281769953
0.152923222985
0.153039278573
0.153159651004
0.153284987818
0.153394611686
0.153452829771
0.153430588711
0.153333962197
0.153181695387
0.152993481564
0.152772495389
0.152525856162
0.152277041186
0.15203883652
0.151810322599
0.151599823588
0.151431633206
0.151330404832
0.151282370884
0.143286884754
0.143295689515
0.143311654196
0.14332715869
0.143346348761
0.143374254794
0.143400013956
0.143430254223
0.143470709917
0.143508949419
0.143555674079
0.143631208708
0.143713375065
0.143793947139
0.143868892471
0.143946155984
0.144034157755
0.14413463334
0.144234450578
0.144336463994
0.144446010702
0.144567897564
0.144702517526
0.144853775611
0.145030638017
0.145214218254
0.14541744249
0.145631885792
0.145860054106
0.146101944653
0.14634668857
0.146593496694
0.146818779917
0.147032113364
0.147237507259
0.14744467528
0.147656961602
0.147875703126
0.148100674198
0.148331030716
0.148566839199
0.148808807484
0.149057359495
0.149312187566
0.149572114143
0.149835285928
0.150099789231
0.150364227399
0.150627770132
0.150889631666
0.151148421708
0.15140165614
0.151645468482
0.151874942637
0.152085428751
0.152273969779
0.152439411687
0.152580874735
0.152696769431
0.152794322773
0.152897959224
0.15303003678
0.153187124497
0.15335523004
0.153521670991
0.153692659274
0.153803463617
0.153765973186
0.15363962803
0.153443222421
0.153192433272
0.152896415601
0.152573376659
0.152246753781
0.151927169515
0.151621964065
0.151355809552
0.151151369466
0.151026900805
0.15097088142
0.143223588746
0.143234477795
0.143253113591
0.143268632769
0.143288557962
0.14331766574
0.143343912722
0.14337424447
0.143412625739
0.143464386148
0.14351557959
0.14359091212
0.143673904936
0.143749855354
0.143819218847
0.143899144736
0.143991578976
0.144086342832
0.144180827973
0.144280777472
0.144390305954
0.144511458875
0.14464560513
0.144794457334
0.144978573142
0.145172056409
0.145366736992
0.145593259708
0.145825986955
0.146074058501
0.146319327261
0.146560215631
0.146779237447
0.146981728114
0.147187009521
0.147396695439
0.147611193691
0.147831671387
0.148058578124
0.14829174276
0.148531288826
0.14877754326
0.14903056246
0.149289844499
0.149554154339
0.149821720136
0.15009093189
0.15036084467
0.150630960886
0.150900606343
0.151168310238
0.151431248952
0.151684940507
0.151923966939
0.152143702802
0.152341353692
0.152514402145
0.152657981842
0.152765059522
0.152854132146
0.152974158393
0.153154553437
0.153372097438
0.15359976916
0.153823426038
0.154033548327
0.154187112606
0.154223217056
0.154056297557
0.153798513386
0.153463370407
0.153067592645
0.152638353308
0.152202703446
0.151773948089
0.151374903537
0.151039680453
0.150786657836
0.150623963685
0.150548630873
0.143152480274
0.143163409866
0.143183165397
0.143203515613
0.143229896032
0.143253200522
0.143279144938
0.143311082658
0.143342649314
0.143400084612
0.143462875617
0.143538722921
0.143622027153
0.143696547455
0.143764799666
0.143844308183
0.143938553452
0.144029661161
0.144120284439
0.144217283655
0.144326941098
0.144449471337
0.144588185315
0.144736327935
0.144911798881
0.145123615674
0.145327464764
0.145551642844
0.145784428298
0.146019230597
0.146275868459
0.146514847402
0.146726032143
0.14692532319
0.147131756692
0.147343716675
0.147560524722
0.147783024236
0.148011884198
0.148247564163
0.148490708845
0.148741451882
0.148999345109
0.149263608861
0.14953292868
0.149805617348
0.150080379171
0.150356706776
0.15063441926
0.150912939951
0.151190715739
0.151464608917
0.151729623525
0.151979899562
0.152210561186
0.152418068444
0.152595788922
0.152728724499
0.152808999511
0.15289342189
0.153055260065
0.15331544923
0.153613701543
0.153913602176
0.15419600926
0.15443651262
0.154613968837
0.154721294357
0.154610656946
0.154296486488
0.153841952311
0.153306948662
0.152724426722
0.152137436311
0.15156525179
0.151044308638
0.150614498999
0.150287885084
0.150069226564
0.149961730319
0.143071940793
0.143080600089
0.143094781108
0.143121309419
0.143157272211
0.143178830678
0.143204744622
0.143240427258
0.143270618187
0.143324321427
0.143396027216
0.143474227005
0.143556768765
0.143631327527
0.143704988868
0.143785931615
0.14387788011
0.143965235847
0.144053264114
0.144147496375
0.144254045177
0.144374003076
0.144522234227
0.144683741085
0.144851756269
0.145062869924
0.145275899703
0.145492078594
0.145740939928
0.145981883286
0.146224589582
0.146448654076
0.146655789255
0.14686155417
0.147070731002
0.14728506315
0.147504387736
0.147729301179
0.147960452887
0.148198432875
0.148444732428
0.148700014542
0.148963277308
0.149233084665
0.149508041863
0.149786661286
0.150067965707
0.15035179972
0.150638211369
0.150926700535
0.151215614668
0.151501591108
0.15177947699
0.152043069132
0.152286516871
0.152503283653
0.152672528126
0.152766586567
0.152826457308
0.152921909061
0.153172811016
0.15354508767
0.153942238591
0.154325349121
0.154677100788
0.154961598883
0.15515732849
0.155268311021
0.155258186406
0.154966695432
0.154390834019
0.15365196091
0.152835709857
0.152040704339
0.151275521929
0.150585552928
0.150027370736
0.149602811972
0.149323915096
0.149187164109
0.142981602508
0.142987792842
0.142993754634
0.143024168313
0.143059704333
0.143087078263
0.143115985413
0.14315595405
0.143191614973
0.143243451699
0.143318875373
0.143398180551
0.143478986636
0.143550394627
0.143630805363
0.143720011853
0.14380875935
0.143892869401
0.143979199491
0.144072188454
0.144175316301
0.144289229676
0.144434570775
0.144620033023
0.144794399172
0.144988674712
0.145217373831
0.14543940458
0.145674051938
0.145920139828
0.14616011126
0.146377576888
0.146580707318
0.146790261909
0.147003053415
0.147220277572
0.147442165981
0.147669402413
0.147903401303
0.148144342741
0.148393546464
0.14865285294
0.148921636048
0.149197651376
0.149479005356
0.14976447082
0.150053483167
0.150346115475
0.150642465758
0.150941980245
0.151242848866
0.151541748301
0.151834114993
0.152113429601
0.152370940621
0.152590519711
0.152722864471
0.152771635223
0.152825842803
0.1529722179
0.1533639552
0.15388443846
0.15439710348
0.154877039288
0.155325299744
0.15566249317
0.155874326395
0.155977057885
0.156052775261
0.155843351778
0.155153323507
0.154161787614
0.152956453845
0.151893641378
0.150873011285
0.149937719707
0.149216200163
0.148678016359
0.148347132735
0.148189370182
0.142882473685
0.142889677389
0.142900788096
0.142920529228
0.142951003754
0.142981984614
0.143014693968
0.143056498386
0.143101804451
0.143153918483
0.14323157642
0.143311506576
0.143391325279
0.143460970086
0.143540486355
0.143637436215
0.143727447111
0.14381129119
0.143897060009
0.14398973899
0.144091423595
0.14420104574
0.144340745427
0.144536192125
0.14472613365
0.144916098857
0.145149421614
0.145379042546
0.145605582699
0.145849330624
0.14607397424
0.146285466628
0.146496540177
0.146711079112
0.14692787447
0.147148368725
0.147373733291
0.147603617673
0.147839685209
0.148083852431
0.148336784776
0.148600052172
0.148874016974
0.149156490453
0.149445042247
0.149738495947
0.150036653075
0.1503396301
0.150647280587
0.150958859704
0.151272129703
0.151584266697
0.151892683672
0.152191046506
0.152465995693
0.152676131787
0.152724626672
0.152756972902
0.152827665438
0.153092963185
0.153681489265
0.154405056902
0.155037567023
0.15561686835
0.156159852522
0.156475635895
0.156635511822
0.156677377842
0.156657562165
0.156555428342
0.156262871252
0.154909016808
0.153033472745
0.151681331421
0.150340378104
0.148996697814
0.148103591497
0.147443256321
0.147065121429
0.146893903204
0.142771524262
0.142779474955
0.1427995184
0.142809889836
0.142834079873
0.142866062828
0.142901797679
0.142947080088
0.143004454138
0.143055933537
0.143134096318
0.14321464672
0.143294441216
0.143365337616
0.1434450864
0.143544506544
0.143635876926
0.143720869056
0.143807097724
0.143899527773
0.144000685191
0.144109513833
0.144241321649
0.144430698362
0.144646106432
0.144843482545
0.145061916578
0.145312225272
0.145547648052
0.14576506454
0.145978766534
0.146189834567
0.146404978426
0.146623702127
0.146844872159
0.14706925119
0.147297573078
0.147530933553
0.147769862208
0.148016445751
0.14827311922
0.148540914075
0.148820080857
0.149108906887
0.149405146206
0.149707892465
0.150016915471
0.150332180663
0.150652989933
0.15097750138
0.151302879999
0.151627826297
0.15195263626
0.152271154745
0.152554509861
0.152691808496
0.152713350275
0.152737124129
0.15284809297
0.153356309919
0.15420420923
0.155240774104
0.155693904759
0.155819655522
0.156077706048
0.156380227934
0.156578623432
0.156667995336
0.156683554582
0.156633041756
0.156653497311
0.15627929957
0.152472366592
0.151231834734
0.149690044483
0.147598728859
0.14661480476
0.145779202824
0.1453670543
0.145216361261
0.142646468504
0.142653336813
0.14267056817
0.142682965624
0.142704375417
0.142737922684
0.142774934635
0.142819084055
0.142888217657
0.142947407302
0.143025162142
0.143106958792
0.143187889944
0.143262528715
0.143344207953
0.143443788861
0.143535841344
0.143622613401
0.143709913936
0.143802443096
0.143902834551
0.144011971615
0.144139598482
0.144320154947
0.144549251881
0.144761949435
0.144969419436
0.145210475345
0.145456698214
0.1456753899
0.14588117268
0.14608971345
0.146307010509
0.146529724344
0.146754934455
0.146982502265
0.147214140514
0.147450306849
0.147692588726
0.147942114214
0.148202012817
0.148474381414
0.148759176397
0.149054231914
0.149357734994
0.149670563185
0.149993351915
0.15032460644
0.150660332038
0.150997149747
0.1513345688
0.151672172094
0.152012798258
0.152358513909
0.152672785189
0.152684892815
0.152681200721
0.152725117434
0.15302956844
0.153873660366
0.154654645987
0.155070521772
0.155472192958
0.155769575333
0.155986348203
0.156229983333
0.156400246027
0.156456933645
0.156408823911
0.156240662551
0.155793468693
0.154435925945
0.153462935405
0.15302830424
0.149972538986
0.144351148134
0.144273439866
0.143492131149
0.143115329406
0.14310927537
0.142509690419
0.142515454845
0.142532587592
0.142544557321
0.142565385992
0.142599209907
0.142636927945
0.142677248046
0.142746518216
0.142819502077
0.142901783103
0.142986321981
0.143069746795
0.143151711782
0.143235597359
0.143334896271
0.14342757853
0.14351686896
0.143605724026
0.143698820071
0.143798748723
0.143907105529
0.144031796878
0.144202877646
0.144429312351
0.144668926475
0.14488229429
0.145108145093
0.145345620712
0.145560685084
0.145764242118
0.145978066801
0.146199887984
0.146426823745
0.146656610269
0.146888410369
0.147122952827
0.147362213426
0.147607294599
0.14786010857
0.148123221158
0.148399141815
0.148689294312
0.148991351252
0.14930251591
0.149626650154
0.149966116209
0.150316427654
0.150668105663
0.151017929791
0.151368145213
0.151718387167
0.152065373422
0.152399346556
0.152685085714
0.15268066945
0.152651650776
0.15272755827
0.153352488026
0.15386401716
0.154366804006
0.154840838004
0.155228905632
0.155523958341
0.155728619554
0.155893982102
0.15598078068
0.155950465382
0.155786917477
0.155461921647
0.154801167509
0.153602798057
0.152198977556
0.150056525894
0.147246976281
0.146760249749
0.146253051658
0.140418288878
0.139763796624
0.140596551217
0.142363240338
0.142367523615
0.142380347191
0.142393295779
0.142417975395
0.142451512258
0.14249121637
0.14252971399
0.142597094982
0.142678111461
0.142764299899
0.142850975913
0.142935283506
0.143026952722
0.143116572654
0.143215273383
0.143309135107
0.14340263177
0.143493806816
0.143588049947
0.143688038564
0.143795238302
0.143917308736
0.144080957317
0.144302481338
0.144557481788
0.144788035338
0.145007011693
0.145228686329
0.145435736879
0.145639031413
0.145856005696
0.146081474703
0.14631222438
0.146546724342
0.146784086326
0.14702349444
0.147265642617
0.147514043691
0.147769635672
0.14803552736
0.14831573645
0.148611182547
0.148919572327
0.149234027335
0.14956427304
0.149927111322
0.150312151154
0.150685621311
0.151047521634
0.151413251324
0.151780400156
0.152138589025
0.152455832473
0.152674710748
0.152665850993
0.152604433999
0.152629283649
0.153060331644
0.153671023743
0.154118485048
0.154523049589
0.154853934343
0.155093825226
0.155236297817
0.155293153602
0.155248822059
0.155073086503
0.154736621604
0.154196773805
0.153376770603
0.152104170475
0.150366221261
0.14824850513
0.145978172139
0.144217136882
0.141366932235
0.14098385477
0.140580411171
0.139924456124
0.142209192742
0.14221231117
0.142220288955
0.14223459836
0.142262819748
0.142295371665
0.142336209146
0.142377387901
0.142440289236
0.142525195401
0.142613624557
0.142701418079
0.142784680924
0.142879930775
0.142981000841
0.143081646953
0.143177173225
0.143275540795
0.143371750747
0.143468547183
0.143569866349
0.143675534508
0.143795207812
0.143952358835
0.144163936039
0.144413562625
0.144664021358
0.144889673612
0.145105103232
0.145307695424
0.145506387555
0.145724555602
0.14595403059
0.146184706371
0.146425148387
0.146668695807
0.146911760742
0.147158359196
0.147411112546
0.147671601803
0.147940636405
0.148222687346
0.148521055794
0.148837966963
0.149172237898
0.149525817977
0.149906839543
0.150300213891
0.150690104722
0.151082658086
0.151485582534
0.151902504506
0.152321668705
0.152696273933
0.152954764893
0.15262507053
0.152487094499
0.152500591462
0.152881367032
0.153396884684
0.153787560415
0.154087183427
0.154308864631
0.154437654139
0.154459591188
0.154368836486
0.154151659074
0.153782315461
0.153228707266
0.152448830024
0.151390975566
0.149931518936
0.147977621663
0.145609043887
0.142934075186
0.140246839835
0.137507495248
0.135771270352
0.134087008118
0.128487590925
0.14204792232
0.1420505988
0.142056911348
0.14207412631
0.142102003551
0.142131805718
0.142169490438
0.142215790702
0.142274007623
0.142360162357
0.142450111686
0.142538978734
0.142622592838
0.142716908899
0.142827308079
0.142933130844
0.143031955283
0.143133800895
0.14323571686
0.143337451338
0.143442730446
0.143547556396
0.143664726506
0.143816856621
0.144018715904
0.144260043487
0.144515762792
0.144752166395
0.144957626818
0.145155539782
0.145359911085
0.145575031652
0.145806347207
0.146043110401
0.146290236623
0.146539335311
0.146786783138
0.147038437238
0.147296315457
0.147562154661
0.147836701754
0.148123052209
0.148430788899
0.148768393511
0.149132598612
0.149504952418
0.149890290646
0.150291532723
0.150711415905
0.151157875332
0.151635706743
0.15215198412
0.152699134719
0.153292128349
0.154172030093
0.153493040248
0.152504249825
0.15228316146
0.152727500815
0.153109557361
0.153343617579
0.15349427646
0.153563089408
0.153530847923
0.153381047146
0.153099006791
0.152666374195
0.152057257112
0.151238190778
0.150166778074
0.148790211295
0.147054796595
0.144801507801
0.141944255687
0.138576961322
0.134817760169
0.130528247713
0.125531020467
0.120203240166
0.115895647687
0.141876878007
0.141879363246
0.141886062331
0.141907945024
0.14193458553
0.141961269519
0.141993660239
0.142043526533
0.142095945168
0.142181662125
0.142273224125
0.142363428514
0.142448563646
0.14254392459
0.142658825132
0.14277007862
0.142873774486
0.142979634927
0.143085366224
0.143192309068
0.143303880458
0.143409977006
0.143524178441
0.14367232362
0.14386572667
0.144097881005
0.144353181021
0.144594059366
0.144807530448
0.14499857993
0.145205195922
0.145422790071
0.145649550124
0.145880732254
0.146130066114
0.146391275494
0.146647190583
0.146906211277
0.147168941627
0.147439968615
0.147722192101
0.148018302929
0.148344551919
0.1487138245
0.149098774589
0.149481624763
0.149877833766
0.150311121159
0.15079798613
0.15132347923
0.151890833431
0.152464724108
0.153060203179
0.153448460982
0.153668023364
0.153623169733
0.153047165015
0.152567715999
0.152615589873
0.152724708636
0.15275738633
0.152719421741
0.152594457504
0.152359105654
0.151993767332
0.151478329788
0.150789493086
0.149898468801
0.148769044975
0.147355776719
0.145602210035
0.143442717324
0.140770508386
0.137351105731
0.133029019975
0.127660261768
0.120626319319
0.11045707449
0.0933803095241
0.0541388585516
0.141690964696
0.141693050814
0.141701778139
0.141729709059
0.141755432963
0.141779804805
0.141809354537
0.141858987656
0.141905604463
0.141988841959
0.142082028243
0.142173665803
0.14226059218
0.14235707563
0.142474370449
0.142590518622
0.142701291338
0.142811777176
0.142920244321
0.143031482965
0.143150202883
0.143260556287
0.143371337389
0.143515647833
0.143702453818
0.143924524338
0.144173277158
0.144406833163
0.144632206347
0.144833687345
0.145035945541
0.14524845508
0.145479524753
0.145718473537
0.145958373888
0.14622055899
0.146487438829
0.14675542598
0.147028432188
0.147306240373
0.147594845212
0.14790911332
0.148269278353
0.148666547026
0.149061502656
0.14945677846
0.149890154614
0.150399335265
0.15098281284
0.151570435357
0.152151874587
0.152566339429
0.152894553231
0.153162195025
0.15340949663
0.153412895708
0.152970269991
0.15251041816
0.152301603645
0.152171660228
0.151994668769
0.151740977367
0.151389796492
0.150917103254
0.150300237681
0.149515280563
0.148534679636
0.147325385522
0.145846486526
0.144046535891
0.141860496065
0.139205420697
0.13597994224
0.131932034058
0.126643791067
0.11968704368
0.110206399369
0.0963010314496
0.0740775573662
0.0383255020933
0.141482892661
0.141484650232
0.141495231946
0.141528992779
0.14155341733
0.141578995032
0.141607474555
0.14165385785
0.141697555982
0.141780160112
0.141875352062
0.141968464187
0.142057180277
0.142154367509
0.142272222179
0.142390995817
0.142510851039
0.142627218043
0.142738543992
0.142853327227
0.142977866181
0.143096372949
0.143204976937
0.143344279301
0.143526354018
0.143739612653
0.143979938848
0.144204910665
0.14442481627
0.144642632447
0.144857287633
0.145067819156
0.145282890792
0.145522737399
0.145774989883
0.146035933256
0.146308627955
0.146584519417
0.146866761537
0.147155541164
0.147459926752
0.147803362812
0.148199699456
0.148613378669
0.149024280366
0.149456904372
0.149961186598
0.150565998977
0.151207619874
0.151680463641
0.152099236375
0.152468593231
0.152681559061
0.152882327018
0.152998386136
0.152912068631
0.152572719799
0.152148190685
0.15177783817
0.151426705425
0.151023310318
0.150533220102
0.149933321351
0.149198978659
0.148305138548
0.147224813802
0.14592668794
0.144373098418
0.142517465876
0.140300854083
0.137647356599
0.134457190302
0.130594204105
0.125873024581
0.119842526715
0.111807873086
0.100913202044
0.0857731501175
0.0637661433169
0.0340383248124
0.141246351616
0.141250075162
0.141261003033
0.141293722338
0.141320789987
0.141353056494
0.141384221101
0.141429802131
0.141477722392
0.141555153697
0.141651886716
0.141746475884
0.141837086644
0.141934756226
0.142051910496
0.142169777788
0.142294359688
0.142420211062
0.142537276752
0.142656723605
0.142784755735
0.142913732648
0.143029207253
0.143157918665
0.143336337476
0.143542829199
0.1437746555
0.143993232031
0.144204100262
0.144426840237
0.144654215599
0.144877639352
0.145088324814
0.145314619554
0.145563459286
0.145831440256
0.146111193211
0.146396934735
0.14668597085
0.14698790899
0.147319363576
0.147702648877
0.148124996418
0.148556922524
0.149000586053
0.149493721946
0.150069798121
0.150640806359
0.151180312282
0.151673981059
0.152112205657
0.152286462619
0.15243071617
0.15252771015
0.152527226242
0.152362251455
0.152007256214
0.151528957242
0.151006752249
0.150446628588
0.149813813407
0.149079210159
0.148219448945
0.147210110148
0.146024955789
0.144634699795
0.143004849722
0.14109352496
0.138848683804
0.136204240258
0.133074591944
0.129346467059
0.124865951534
0.119416220345
0.112695324508
0.104082575215
0.092644184178
0.0772401698929
0.0560795313669
0.0296211576108
0.140985877172
0.140993518796
0.141004090254
0.141029286059
0.141062770257
0.141101815901
0.141138534668
0.141187736846
0.141245009095
0.141316029935
0.141411257113
0.14150664005
0.141599249614
0.141697667392
0.141814355257
0.141932057883
0.142055465375
0.142189562047
0.14231542618
0.142441467798
0.142573201785
0.142712454948
0.142844217746
0.142973846325
0.143136578991
0.143335867815
0.143560002784
0.143773396787
0.143974466135
0.14419385761
0.144425295641
0.144666283207
0.144884247544
0.145101197311
0.14533830028
0.145601928658
0.145886458975
0.146184122672