/*--------------------------------*- C++ -*----------------------------------*\
| =========                 |                                                 |
| \\      /  F ield         | OpenFOAM: The Open Source CFD Toolbox           |
|  \\    /   O peration     | Version:  v1806                                 |
|   \\  /    A nd           | Web:      www.OpenFOAM.com                      |
|    \\/     M anipulation  |                                                 |
\*---------------------------------------------------------------------------*/
FoamFile
{
    version     2.0;
    format      ascii;
    class       volScalarField;
    location    "758";
    object      alphak;
}
// * * * * * * * * * * * * * * * * * * * * * * * * * * * * * * * * * * * * * //

dimensions      [0 0 -1 0 0 0 0];


internalField   nonuniform List<scalar> 
6400
(
0.900461377225
1.45470475092
2.31659090368
2.91466848905
3.48490225591
4.05148787175
4.75091996772
5.5306358896
6.02678447886
6.76647220395
8.05841536029
9.00331374151
9.80821814944
10.6981526457
11.772699699
12.9037480391
13.9373266051
14.9118180007
15.7370755464
16.2559946478
16.5724296495
17.0378895159
17.8491927978
18.9769342988
20.19998865
21.3154107063
22.2631460709
23.1500250636
24.073718488
25.0495475613
26.02228594
26.8079233543
27.3295701739
27.7009877245
27.9683847525
28.1398539476
28.4769764838
29.0165331143
29.2606592031
29.2975199778
29.6872441203
30.5499821345
31.4058169625
31.9018480299
32.0772045365
32.0266237116
31.8155140969
31.4855887701
31.0499147945
30.5280071162
29.8425349514
28.7886516144
27.3655989504
25.655631827
24.0783731976
22.6555572543
20.7696165703
18.1937879155
15.5018506819
13.1998702165
10.8717796299
8.43597119023
6.17373578924
5.93788335677
8.99993855795
13.5794996742
16.3821672229
15.9564569534
13.8728159518
12.231427136
11.388985983
11.6751702773
12.3239642913
12.2780253452
14.4627060532
13.9477887961
15.9040995275
9.80093066038
12.8556864761
4.80148528471
3.16882301691
2.5558157551
3.1965070587
4.47480431963
4.46983098959
4.46312979647
4.75311103568
5.26422979608
5.97803268758
6.87852887669
7.95229500123
9.02545522896
9.98424685784
10.9056379941
11.8493906005
12.9224775186
14.0527338994
15.1297175775
16.2087873699
16.5654273588
16.7078104063
17.1547769988
17.9486918548
19.0666962564
20.4012217786
21.4656233091
22.3863142181
23.3077390741
24.2447046007
25.1917909397
26.1383233562
27.0037953881
27.5194057506
27.8837254044
28.1799382989
28.2764823689
28.654797294
29.2190945834
29.4244659043
29.3421828645
29.7057097794
31.0277395336
32.1407422051
32.5516079187
32.6733000168
32.5565980125
32.2627851047
31.8756455534
31.3011181345
30.6332182708
30.0062568473
29.4010916839
28.1480156063
25.8786021499
24.4004438775
22.788526682
20.4259120957
17.9124271791
15.4242124146
12.9531722794
10.6344633959
8.73702883708
6.56297390745
6.45698148381
9.26815111579
14.6627847159
18.2121754288
16.791066451
14.532096723
12.5656270134
11.9002027781
12.4036030504
13.6222468743
13.0962682473
13.0251400529
12.5691940417
11.4345848207
9.63924023134
8.13172973107
4.21287796919
3.29993644322
2.92960612089
3.45563699479
3.80196145122
4.42036345115
4.91161886337
4.93885159638
5.15718823031
5.87507566642
6.85173020999
7.93633002781
9.02898676671
10.0314456979
10.9539503932
11.7532279221
12.7319633129
15.2777194308
17.2811705287
17.8168580745
17.4364742263
16.513808994
16.8552372182
18.0594084
19.2256924923
20.3380605973
21.4603204677
22.4771578411
23.4006958722
24.3178006677
25.2591367872
26.1753802677
27.1219851383
27.6304841034
27.7889238345
28.3599269724
28.4749777563
28.5814740285
29.3074561048
29.5652576093
29.5496655917
29.9279169143
30.768020789
31.5980593302
32.0948742003
32.2952008189
32.2855147931
32.1080049012
31.7826120577
31.3125084222
30.7179616996
29.9969639739
29.0366533665
27.7122180167
26.254720342
24.7474222904
22.7070734596
20.3447317099
17.8944161393
15.4316308114
13.0288217518
10.7910471876
8.65061360146
7.16980258688
7.88510907336
11.6877406147
15.7221874973
17.6642254712
17.6343740526
15.9823433909
14.2980721456
13.643126987
13.601359132
12.9777255759
12.4369309715
12.4942258294
12.2347756074
11.3215150558
9.73295148569
7.29906461115
7.50625852259
3.38164047152
5.57680291479
3.83782936649
4.00457193551
4.73357887622
11.9489242919
10.3737109698
5.6669366365
5.83437633418
6.84152710188
7.9565831401
9.07082668954
10.0483905075
10.9753539036
12.6487811547
14.7171655811
16.4345914468
17.0163473797
16.2934751982
15.8363700503
16.3368532885
17.0903462412
18.0540051311
19.2129876645
20.4160267368
21.5667739453
22.6084105223
23.5139672074
24.4457250663
25.3249191414
26.3486799604
27.1177206432
27.8700552477
28.0113486241
27.9764270687
28.5433833974
28.7395923425
28.9607671628
29.3730285336
29.7507874882
30.2348749245
30.9369765385
31.6475022781
32.1399022538
32.3783371324
32.4042831218
32.2539027963
31.9486462079
31.4975555333
30.9066450726
30.1575986127
29.1872165342
27.9526698943
26.5096081897
24.819451657
22.7559423106
20.4016528019
17.9474647411
15.5117300638
13.1904498718
11.0999732052
9.44218980921
8.8009498737
9.47259308524
11.5114483962
16.2125901963
19.4106981014
19.4357290711
17.6953872541
15.2935979309
13.6778279296
12.9101229098
13.134517894
14.6348955817
14.6341271414
13.3650564614
13.2815653035
16.6239004194
13.0020238473
10.9999286432
5.81390792718
7.67217435106
4.6875542038
5.00865970102
6.75493749542
11.8476629246
8.45076333169
6.20029624303
6.36252965023
7.05844626787
8.09446159545
9.22010792888
10.6609386208
12.8691805541
13.949787624
14.4753944203
14.7270732415
14.8339293592
15.1783740834
15.8782710387
16.4599533429
17.1473606078
18.1457955445
19.3085337451
20.5225578838
21.6989741687
22.7168005891
23.7281817724
24.549916511
25.580381902
26.3901196705
27.6408357013
27.8118117745
27.704421511
28.0509175761
28.1598709262
28.5356141661
29.0287396983
29.5204710796
29.9851896412
30.5032230626
31.1316697944
31.7612381898
32.2383107386
32.5019531694
32.5598890791
32.4371540035
32.1549674304
31.7245463701
31.1453267865
30.3959443578
29.4359118197
28.2371064844
26.7888798066
25.0286352119
22.9112303602
20.5496634898
18.1265540036
15.785136626
13.6626270645
11.9396827405
10.8852404316
10.7806131008
10.9462925035
12.0864926265
15.9575222201
19.5952138149
20.8006677699
19.5463411107
16.7265636572
14.2004910051
13.8696796754
16.1920144872
17.1055348475
16.1079163977
15.2345999775
17.9567006853
21.008566502
16.2815423683
15.3916286766
10.0919882488
9.27746572887
5.84553770916
6.34420673576
12.1383063859
11.6389025802
7.0128728797
6.83163894028
7.00945932331
7.41415563669
8.32454776873
10.8715535168
13.9867354431
14.5160034746
14.3158649665
13.6823187005
13.6371430042
14.2267331908
15.2667643954
15.8383878805
16.3704387542
17.2183682743
18.2821055765
19.4692173202
20.620197916
21.8032299311
23.0324839876
23.8287690744
24.9905461967
25.6350798423
27.0883294551
27.4597006705
28.3230071637
27.8793271424
27.5770880925
27.9415058798
28.5529040736
29.163231449
29.7164171909
30.2315284906
30.769688332
31.3602185902
31.9378433975
32.3977316069
32.6759530902
32.7603564556
32.6646018295
32.4082646812
32.0035414686
31.4472059774
30.7175578553
29.7801645301
28.5987127155
27.1302282886
25.3226982872
23.1907536079
20.8740919677
18.5591078365
16.4115697825
14.6035287516
13.3217018228
12.7913437868
13.0484808698
12.3183007356
14.1141883415
18.0690121658
21.0650536551
22.1738884334
21.1323016851
17.6884645517
15.4167516977
17.1940584852
19.4108671767
18.8996971062
17.9377058478
18.0516080533
22.7072415014
24.3260977656
19.2777649427
19.0820648756
12.2331862226
9.22813995658
7.10143547902
6.65649416575
12.1173742668
8.69695691234
7.31869433453
7.45566770226
7.61577586907
8.3354300721
8.90030036125
13.6186131793
14.4021769992
14.5382701526
13.4377163435
12.7745914053
13.2811779294
14.6496664943
15.2101287091
15.5702244649
16.3792351188
17.3236200158
18.3906875964
19.5745298027
20.8813312134
22.1309053433
23.0566150804
24.5094029395
25.0845114013
26.6296193975
26.8753123413
27.9928749264
27.868864725
27.6767507803
27.4478086874
27.9166721214
28.6469194886
29.3357078234
29.9342832126
30.4868708592
31.0448700681
31.6202156904
32.1683936912
32.6152651995
32.902839353
33.0091447708
32.9403362761
32.7143845439
32.3434656359
31.8223773546
31.1271323223
30.2197266285
29.0525682095
27.5746109643
25.7612689387
23.6756125465
21.4806126187
19.3645768148
17.4838396975
15.9745129926
14.9989566055
14.5993447674
14.2982348239
14.2858998051
16.0488607677
20.9067623954
22.6813893895
22.6863180484
21.4429905467
19.0607658234
18.6625758163
21.1339088222
21.5227426785
20.6915579699
20.1299416251
22.1788371132
25.0029580149
26.5171959098
21.8971408641
20.7556637387
11.9992638117
8.98689039541
8.27845988248
12.3410908569
12.2741355379
7.89137963175
8.00391159816
8.1759107138
8.27365945101
8.87494705677
13.3354229051
14.3106074369
14.4936752513
14.14370384
12.4054966619
12.4196986636
13.9909567558
14.7570181137
14.8791878441
15.4470591471
16.4082216869
17.4768673061
18.5779110891
19.8101456852
20.9733742706
22.4354967571
23.1296153282
24.5274672764
26.130756251
26.7713780755
26.6159439091
27.5384367647
27.9068365726
27.2543132934
27.4558251329
28.0670023932
28.8050548327
29.5233009144
30.1651531496
30.7556050567
31.3362589917
31.9124687287
32.4483855339
32.88843848
33.1836504489
33.3098360694
33.2698185142
33.0804698761
32.7530194842
32.2797182099
31.6324934531
30.7666931894
29.6281202917
28.1743948066
26.4172812265
24.4596820664
22.4697225768
20.5935849917
18.9148245712
17.5399465227
16.6473997353
16.2452309148
16.1616314206
16.4702543083
16.5080495735
21.5119517967
24.7685617958
24.3878249048
23.5437782995
22.387880555
22.9726368706
24.1570466919
23.37753878
22.6779549569
22.929495591
25.377078547
26.1326894396
26.7822641158
23.8986737213
21.7533047663
11.3465826594
9.0009523759
8.96202265878
13.3479421053
11.3670340062
8.5908309832
8.74929071589
9.05448709951
10.1530348928
9.02483939674
14.1051432728
14.8577483252
14.5529972492
13.0310244852
12.1199542343
12.5535704373
14.0490985959
14.5029532525
14.7757665323
15.4596110471
16.4037466046
17.5376323773
18.7302921206
20.3266459475
21.6799099034
22.4083222634
24.3129994976
24.459435708
26.2821258745
26.3387031809
27.5586338291
26.9928019883
26.9689668684
27.1911968037
27.6317088427
28.270643099
28.9974523719
29.7283994927
30.4096130406
31.0420541804
31.6507782646
32.2381779701
32.7748236343
33.2156233821
33.5196286971
33.6663543497
33.6593277515
33.5144116221
33.2409750443
32.8288210675
32.2458150503
31.4420574082
30.3643809206
28.9909902299
27.371593835
25.6300827207
23.8926198492
22.1889023902
20.5249550446
19.1378702551
18.3828265774
18.3012198446
18.5324975009
18.6883590832
18.5407232765
19.4266175034
25.3169594144
26.6059432355
26.2105321386
26.4570162255
27.1432845869
26.5014440311
25.3059787924
25.0529544598
26.1323498545
27.4773671494
27.4459010983
26.9170315304
25.9396042799
24.5865265805
10.907772137
9.5103210825
10.1125027016
13.4491813568
9.59917582864
9.61928923223
9.50065237772
9.78279666922
12.697578352
11.5084553055
14.9401885419
15.15368296
14.660837
12.4470527977
12.1852116696
13.7286660386
14.2614999659
14.2795198314
14.7386562645
15.5929069894
16.5224819471
17.6015281856
18.6551430627
20.4568402069
22.5901533123
22.3614783698
24.2562161738
25.6563109584
26.4982336087
27.293384582
26.9685992221
27.1781888405
26.7282252219
27.1229112839
27.8000000623
28.4967064833
29.2180907242
29.953858666
30.6679004967
31.3459033024
31.9918444006
32.60038529
33.1471643308
33.5959774061
33.9131942056
34.0837394508
34.1152518683
34.0239281097
33.8164526961
33.4805416527
32.9826017914
32.2723014716
31.3060036793
30.0897101991
28.7026378869
27.248173436
25.7250931868
23.9907921324
22.18409529
20.9376892901
20.6698977202
21.1048349402
21.516038588
21.523518698
21.0983809505
19.7141740922
19.0923817965
28.6225211963
31.0257883593
31.4964911071
30.8172199351
28.9037728893
27.6207961319
27.7831045054
29.0878583143
29.6466471925
29.60506622
29.4591147683
29.8897548398
30.1242302685
10.9875647528
10.406652212
13.4388305978
13.6900888275
9.81422298444
10.4065831383
10.2520663571
10.6926016839
12.3109057969
14.9039539575
15.8108164126
15.4658945343
14.9524929255
12.540209818
12.3576573414
14.2127523441
14.3813576158
14.2694779606
14.7568481796
15.7090319154
16.8470672504
17.9467877736
18.8139506327
20.0900566612
22.741343606
24.0356899051
23.9504947928
25.7502811311
25.5597479117
27.2997512201
27.8363493942
27.1552127389
26.7181897632
27.2327293135
27.9952110331
28.7323894631
29.4625966552
30.2048144333
30.9429627816
31.6658733463
32.3592096437
33.0004377949
33.5664087546
34.0302327732
34.3666675548
34.5676621189
34.6455966548
34.617278796
34.4878781209
34.2453007177
33.858670456
33.2845201334
32.4980135097
31.5343054976
30.4734468036
29.3135908374
27.8320889281
25.8842293639
24.1334738874
23.4710937889
24.0544308857
25.0642278449
25.5798262273
25.4184492451
24.5737458999
22.836830891
20.3800904013
20.4276270034
32.7104327726
37.3381516212
35.3927891076
32.1281125163
30.5549729225
30.75011595
31.7803739245
32.5448137076
33.2541917278
34.0318310561
34.7652077788
35.5056860571
11.4279013959
11.3207535438
15.1067864035
14.479560758
12.6926336577
11.6604912977
11.2360791639
12.1355946563
11.8868429016
15.8798291888
16.510595443
15.85937477
15.1163234853
13.2232990179
13.1160223792
14.6580860969
14.4312824677
14.3663871018
14.8651697567
15.738902943
16.9684043973
18.3891326748
20.1061786353
20.1929158569
22.2508980029
24.3778973303
23.8738900312
25.9656604373
26.9819806234
26.6196360342
27.0674823123
26.6757457277
26.9906549677
27.5431910715
28.245818539
28.9895404027
29.734559295
30.4887447377
31.2421187846
31.9993656152
32.7477302182
33.4394713964
34.0353909425
34.5200526659
34.8831373991
35.1242251006
35.2585988162
35.3029448073
35.2629569908
35.1309071637
34.8849390778
34.5000228321
33.9804751618
33.375094514
32.6907088725
31.6919784883
30.0887249453
28.2094905029
26.9488524399
27.314855104
29.2890568961
31.0511148452
31.7022783159
31.5089285097
30.5233942674
28.4659377447
25.2617781926
20.8118916288
28.3264063025
38.5645485454
40.7612986533
36.6462829533
34.4966447051
34.3062108818
35.2675844679
36.3820571175
38.0814659285
39.2865063658
39.4004575828
39.7165115789
12.0864148551
12.0052226384
14.9068990379
15.0280008894
15.0684919033
12.8539630418
12.3489343251
14.9193359267
12.3374996412
16.7476104074
17.0463989759
16.2607486863
15.273357961
13.8861509864
15.5600195801
15.695548441
14.6602997939
14.6014009673
15.1086009994
15.8640872984
16.912612412
18.3766079483
21.2933894637
22.2795028332
21.7779357078
24.4086310281
25.4813913291
25.5604008018
26.9305148109
27.5346121403
27.3578133329
26.7202189518
27.1876482328
27.8608671646
28.5509963343
29.2804397186
30.0264546274
30.8036790828
31.5874978147
32.3657184389
33.1537665529
33.9058448396
34.5524490041
35.0695828834
35.4670647863
35.7595656687
35.9626529454
36.0891421689
36.1467589581
36.1382709939
36.0620569436
35.9285033659
35.7760482804
35.6163835094
35.2399814233
34.1532805058
32.9237728326
32.4395111096
31.5569696922
33.012638689
34.5081117445
34.3603160002
32.9001279554
31.1983663983
28.3033400129
24.7429443006
21.3366681503
14.035424159
13.5639987762
30.5144926181
38.1964816081
37.0120357521
32.6285866922
31.6995742178
35.2690646211
39.7729517496
43.3394841431
44.7785993043
44.937813631
45.2212996179
12.7992626772
12.7415613769
12.3909209221
15.3938720767
15.649017519
13.6830946784
13.3452453071
15.9503699634
13.0541878406
17.6531726129
17.5352523414
16.6759969858
15.5305037202
14.2399024555
16.7029016704
16.3268134122
15.1462007051
15.0181624031
15.460913958
16.1592513297
16.979181943
18.2457408206
21.758652982
23.3379961822
22.1121934583
24.3923425785
25.9668574494
25.1464865661
26.5418777114
27.1465122803
26.6092198575
27.0504920377
27.612309078
28.2299473981
28.8888634818
29.6206349587
30.3691508465
31.1350092566
31.9520520018
32.7804989732
33.6032125019
34.401780728
35.1069225492
35.6751842324
36.1225463762
36.4810837755
36.7660687048
36.9809292175
37.1384369968
37.2593486673
37.374154057
37.5583141461
37.8748932128
38.1901235575
37.8237145401
36.567228635
37.0902187936
31.7509891763
26.4327823799
19.6537059781
0.0112343618773
2.28144584016e-06
7.9018372982e-09
8.06206980342e-10
6.39772978047e-11
1.80211140021e-11
2.12122071233e-10
2.1673637706e-09
2.4482662478e-08
6.39464542443e-08
0.000106188071399
0.0278738491169
21.1639722343
42.163777748
43.2518055867
42.2055266186
45.8017825935
49.7086580427
51.7140468505
52.1082711432
13.6906001953
13.7881143243
16.0480938704
16.0810595279
16.1483652498
14.3924312604
14.4106134738
16.8499105219
14.1050848079
18.4497390002
18.0089319582
17.1173618259
15.8699141644
14.6600533289
17.014407304
16.5893389713
15.6257898634
15.4978178879
15.8586216568
16.4792922261
17.2213114428
18.2341407948
21.2177530893
24.1329611055
24.3571808192
23.8187274316
26.1539559534
27.0972726128
25.6001669042
25.8580169678
26.5476309463
27.276687162
27.961950764
28.6115205732
29.281616999
29.9903825928
30.7453975138
31.5323014507
32.3459098419
33.2165580909
34.0989170227
34.9457182905
35.7019767892
36.3289633296
36.8471822185
37.2927166251
37.6749405783
37.9866215308
38.2350553732
38.464842408
38.783041353
39.3482606557
40.2094203596
40.8888739139
40.0513184306
36.681184293
24.2997961023
2.67960639467e-12
2.9472891586e-15
5.52511355894e-17
9.36544611065e-19
2.70965592804e-21
7.70025066309e-24
1.33289881522e-28
1.04259740789e-28
2.53118675685e-28
1.70621999769e-27
7.9918392097e-27
2.95218939334e-26
1.87607022407e-25
1.46892110587e-25
1.2743689231e-23
7.25328851164e-21
7.29110267684e-19
5.53271527781e-17
1.27405063576e-14
2.14462813407e-10
48.8941384442
56.7796317568
55.959077316
14.5322657036
14.725825638
17.6836123708
16.8074378889
16.3419829229
15.1004608211
15.4377308695
17.6267202543
17.6032369187
19.4440071923
18.5525128127
17.6557883969
16.2993163078
15.2206744625
17.345291632
16.7823869729
16.0773362952
15.9826508022
16.2667378272
16.8006771653
17.5011502275
18.4473455869
20.73644689
24.3761631152
25.6847852133
23.6175787981
25.6449966177
27.1799780207
27.1877557738
26.2383887848
26.60883471
27.4805769501
28.3074947724
29.0317384869
29.6741994515
30.3908433763
31.146657966
31.9571770312
32.7969686614
33.6896536698
34.6289880169
35.5416221825
36.3462823718
37.0210115008
37.6231892287
38.2063980763
38.7302991503
39.1259135837
39.3942617536
39.7006671142
40.2531970305
41.2219576537
42.6681213561
43.5817336737
33.7501142466
7.95216762234
1.48179734134e-18
6.00056413982e-21
1.73526601321e-22
2.526229227e-24
2.05250786264e-27
3.42480606382e-30
2.41416151195e-31
0
0
0
0
0
0
0
0
3.35768696385e-35
1.1324783008e-32
1.69394615184e-30
9.82773310173e-28
1.37269312515e-24
7.43348410644e-20
1.12886429836e-15
8.80105846435e-09
61.8182529732
15.2201595506
15.4354621061
19.7989370619
17.3795476799
16.2984568072
15.7238430555
16.181339072
17.7512715311
19.1895306503
20.5792550757
19.2518146449
18.3305361088
16.9787331617
16.0655809663
17.8814155283
17.1231942197
16.6012041694
16.5120926359
16.7131447363
17.1590720432
17.7848095327
18.6594766266
20.5355489364
24.2383397317
26.6551331264
26.0062327141
25.1440767554
26.538923961
26.9887276545
26.3133460989
27.0279369471
27.9179459896
28.7903777185
29.5013356517
30.1661582403
30.8306458154
31.599366257
32.4138746913
33.2871838811
34.2132747698
35.1914740157
36.1736377053
37.0638664231
37.7887675908
38.4712503161
39.2131931434
39.9043675106
40.3627072261
40.6144757713
40.9721557013
41.736517031
43.0263579333
44.8213947226
33.969424519
1.27613137227
2.14530286939e-21
7.03565932877e-25
2.84493005671e-26
3.87897649051e-28
1.06372077309e-30
0
0
0
0
0
0
0
0
0
0
0
0
0
4.3263792694e-34
4.29919868996e-33
9.42477503074e-32
4.56994308634e-30
2.53779425917e-26
2.11236758429e-17
4.07192948266e-22
15.7533937611
15.9598771819
21.8247671886
17.8204172763
16.4831370648
16.295643998
16.9857361518
17.2148055073
20.1313778929
21.3930809845
19.9247098546
19.0176711249
17.8488063102
17.896285202
18.6308163695
17.7032401935
17.3171301211
17.2319869881
17.2671289299
17.6031859577
18.1209147274
18.9134542379
20.5152269713
24.0745001534
27.0499676868
27.6174657669
25.0682890778
25.5706087573
25.8915207574
26.4077188528
27.321210118
28.3779157594
29.2627831234
30.0174515953
30.7069447282
31.4296260488
32.1183282757
32.934206444
33.8216128483
34.7661561669
35.8169550043
36.8822746031
37.8433464227
38.5709467341
39.2804458709
40.5381738248
42.1010124214
42.7324765891
42.2408985626
42.4340447448
43.3024300401
44.6342137623
33.3070947598
1.135255909e-15
1.71097936754e-20
7.67572245711e-32
7.75641263149e-29
1.26563278816e-30
0
0
0
0
0
0
0
0
0
0
0
0
0
0
0
0
0
0
6.68412033279e-33
4.526375888e-32
8.34701241501e-30
97.7037531012
16.2073525199
16.3800214566
21.6906415103
17.3365275096
16.72698622
16.7876101371
17.8936957489
17.2752344701
20.9334610383
22.1444614113
20.5579766395
19.6504258493
18.5284476697
20.0497686055
19.6592253376
18.4831860415
18.1394954272
18.2896877623
18.0412735963
18.2152741989
18.5556263992
19.2143594651
20.6332345329
23.8997040001
26.9053563299
28.6907708859
27.570841019
26.7897523711
26.6969795047
26.6202253636
27.5856059028
28.9506306848
29.709597639
30.5448234995
31.452913669
32.0362628821
32.7268128048
33.5526806774
34.4637790728
35.4242271626
36.4565406106
37.5883441426
38.6868261804
39.7402311746
40.9052873228
42.4897611428
43.8582460482
44.1364021225
44.2112453167
44.6988489804
45.6814409634
36.7662700635
5.16270090671e-15
4.7125149718e-20
6.19376431968e-24
8.41231911664e-26
0
0
0
0
0
0
0
0
0
0
0
0
0
0
0
0
0
0
0
0
0
0
2.05669305107e-32
1.49697148658e-21
16.7169172768
16.8653357517
21.3596179786
17.0653595858
17.0397849284
17.1875390054
18.6757789365
17.7676674212
21.6415077196
22.8809065531
21.1818706181
20.2758299587
19.0931215696
20.8259178282
20.6090759279
19.325424487
18.9477958012
19.1945635434
18.9635205556
19.0443071219
19.1851422233
19.5733408258
20.910971026
23.8593332582
26.6084981516
28.9832289954
28.7398616599
27.3731493511
26.2861133567
27.0854814024
28.0460848503
29.3792094167
30.4814102867
31.4519583844
32.2734203833
32.7551149077
33.4203757943
34.2591722647
35.1924738471
36.1934959487
37.2470104646
38.4627688427
39.8500688831
41.4161670984
42.5764853023
43.3147158646
44.3365716974
45.204657841
46.632300717
48.1309426892
42.0295369696
4.70422449714e-14
6.24631205351e-20
1.07714448891e-23
2.20927881689e-26
5.34908899403e-28
1.79550760629e-30
0
0
0
0
0
0
0
0
0
0
0
0
0
0
0
0
0
0
0
0
0
3.45634184482e-33
4.57305595578e-33
17.4610071618
17.6089037357
21.0784110297
17.3753240052
17.6020856341
17.6804820652
18.7298076252
18.4959887256
22.1653031066
23.5817851421
21.8345111198
20.943692234
19.7654238875
21.5251587665
21.4576353867
20.2424383836
19.8043896579
20.0710705818
19.8642586981
20.0150974556
20.0765446187
20.0884596626
21.3814864287
24.0197740776
26.4581684631
29.0421538438
29.2875736216
28.1652767257
26.8111193343
27.3004492798
28.6001301097
29.5652350806
30.5615161639
31.722930714
33.1716641722
33.7769204197
34.3611454906
35.0774754599
35.9781110454
37.0539608502
38.2185921056
39.5668860666
41.5201571258
43.2578744829
43.7956314378
44.4112483004
45.9496719163
49.1153445228
53.0968382972
45.8892413888
1.34401158958e-14
2.2326392269e-21
9.2391832155e-26
3.02922495806e-29
1.90067620813e-31
3.85251664257e-31
5.91602798941e-32
0
0
0
0
0
0
0
0
0
0
0
0
0
0
0
0
0
0
0
0
0
2.55468369479e-34
1.16000679935e-33
18.580162346
18.6913074299
21.4083515984
18.3160012049
18.7482868844
18.5375902841
19.0777184034
19.7884092247
22.2650243947
24.1188814459
22.5444980102
21.6763722835
20.538259161
22.3196288339
22.3307506323
21.3115861664
20.8328094845
21.0841036151
20.7724977431
21.0782198605
21.2662008232
20.8190853913
21.9338874047
24.3855854496
26.50828421
28.8958558722
29.5285109328
28.8513321169
28.7089637802
28.1392391605
28.9687864465
30.2816042151
31.8205370445
32.3136200697
33.4749406664
34.7849776076
35.4233199339
36.1944323869
37.0043262617
38.0045884452
39.3053192322
41.3183032522
43.8459968201
44.9026825738
45.04236643
46.3830437085
50.6575694335
57.9386760688
52.0883824836
17.3535964658
3.38256894629e-23
3.15808933297e-28
2.16086882861e-30
0
0
0
0
0
0
0
0
0
0
0
0
0
0
0
0
0
0
0
0
0
0
0
0
0
0
0
20.1390944571
20.0309304447
22.2549664891
20.1717319042
20.6668394325
19.7954948796
20.0298513724
21.6475302778
22.5238615856
24.7554440259
23.3625506681
22.4835336351
21.3864576257
23.1503743959
23.1992279238
22.4852255869
22.3164981238
22.3997617143
21.773984731
22.2300824692
22.7420054993
21.847039484
22.3795939331
24.8446109509
26.7669814375
28.7768447779
29.6862591582
29.0343076055
29.8833538105
29.6946525574
29.9869676279
30.0653862424
31.6281766569
33.4700065528
34.4221402013
35.5456185983
36.4852337928
37.2961736038
38.2338332415
39.2583919523
40.9398634238
43.9194225873
46.1491275167
46.73090432
47.4822982263
50.8503414802
58.1085228814
55.0749998895
30.7773159417
3.01866312944e-25
5.27726028856e-28
2.41639019933e-30
0
0
0
0
0
0
0
0
0
0
0
0
0
0
0
0
0
0
0
0
0
0
0
0
0
0
0
0
21.7828576336
21.2879127144
23.1599554969
22.6163348067
22.358499429
21.2406432542
21.0700358089
22.7768581268
21.8629525361
25.2578896583
24.2707462865
23.356728212
22.2991661582
23.9890979429
24.0052273708
23.4687964636
24.3321785628
23.9750999441
22.8909321444
23.4873341671
24.068017825
23.1521387164
22.5856336954
24.852564507
26.9477922521
28.6929502317
29.7426978071
29.116047588
30.2838347883
30.9673209965
31.3633461786
30.8400298002
31.8245533268
33.4418515133
35.3261030321
36.7523250702
37.7719497382
38.5614672474
39.4856680879
40.8799713372
43.6621039444
46.8742306716
48.670108979
49.6987195685
52.0350244799
56.941544929
52.9117453629
30.5631582719
8.12801196562e-25
1.17670121757e-27
4.12103466939e-30
0
0
0
0
0
0
0
0
0
0
0
0
0
0
0
0
0
0
0
0
0
0
0
0
0
0
0
0
0
22.6005445792
22.1590425266
23.7345165252
23.6609292995
23.4153822753
22.595246186
22.245758848
24.1323188065
22.9061481019
25.8911646617
25.1884721086
24.2676122809
23.2710180368
24.8502580339
24.8119576148
24.2876088439
25.3070290531
25.0879364945
23.9615082836
24.7079895477
24.8206636983
23.9800609672
23.5694190265
23.8046132883
26.4282442874
28.1761770873
29.5099398568
29.0621056179
30.3437370425
31.514731531
32.4981967659
32.5966770903
32.2390583727
33.5090593829
35.5628170829
37.6233595933
39.1715155435
40.2154998566
41.1343271687
43.4882517489
47.0498364198
49.9586756155
51.5946838187
53.5693580371
57.5785063146
54.1840374608
27.213907809
7.94509941861
3.86795585339e-27
1.10161385182e-29
0
0
0
0
0
0
0
0
0
0
0
0
0
0
0
0
0
0
0
0
0
0
0
0
0
0
0
0
0
0
22.691252441
22.6869532332
24.0715494162
23.8790402722
24.0742939963
23.6360070046
23.2616347091
25.4639125399
24.5561827912
26.6907209887
26.1574278148
25.2015512147
24.2972345135
25.7491558078
25.67889958
25.22335113
26.1178063896
26.0513396499
25.0652395406
25.7270995763
24.7463108913
24.7358538058
24.5896417637
24.8451195759
25.651953196
26.7268067152
28.6301069112
28.7877279799
29.917720435
31.5279762837
32.9449699566
33.9351494953
33.7417242156
34.2959113604
35.7878603921
37.8395981703
40.0927242673
41.9373258609
43.5362728297
46.8559589433
50.4671211325
52.9122634767
54.2651199762
56.1876817065
51.8839740653
34.0249224424
36.3170546323
1.34355601523e-26
3.00969115807e-29
0
0
0
0
0
0
0
0
0
0
0
0
0
0
0
0
0
0
0
0
0
0
0
0
0
0
0
0
0
0
0
22.9183851384
23.0436232532
24.3459582639
23.0456255652
24.347024194
24.2006831855
23.9330113626
26.0754534931
25.3983195632
27.4891720001
27.1482388431
26.1260695036
25.3828639381
26.6729233745
26.5812935132
26.2868795884
27.0255776375
27.1240294913
26.2953589043
27.1228657909
26.079823218
26.3190796481
25.8392717303
26.1437138985
27.3884256332
28.0223626024
28.2173222075
28.4331963546
29.4290544104
31.4088911635
32.8886045428
34.157125425
34.9909079016
35.3737652576
37.0289571001
38.5554706961
40.8358111335
43.5225835494
46.4923423819
50.4557325244
53.7109300824
55.4273170152
55.0823951298
52.0748235361
49.3322039041
30.7562764175
1.12741307028e-25
2.56661102195e-28
0
0
0
0
0
0
0
0
0
0
0
0
0
0
0
0
0
0
0
0
0
0
0
0
0
0
0
0
0
0
0
0
23.5743170348
23.6640143478
24.633477718
23.4169586687
24.5774058538
24.5004631163
24.388328264
26.27721854
25.9682840241
28.0720428165
28.1001639148
26.9807019522
26.5123694367
27.572532305
27.4349134594
27.3105288102
27.8989058743
28.2750760456
27.571810445
28.542485554
27.8319745493
28.3192524254
28.1657199366
27.1728930351
28.1874344413
29.1097955261
29.3088655331
28.1856545811
28.8680911907
31.2304509438
32.9505707875
33.8058554336
34.7991963708
35.6611063408
37.3954550498
39.197560739
41.6794107147
45.1147009597
49.627961973
54.1505785319
56.7298076283
57.0490246486
54.7680961539
49.610748029
31.4319419057
35.2572462461
1.78851546072e-27
7.25246995675e-30
0
0
0
0
0
0
0
0
0
0
0
0
0
0
0
0
0
0
0
0
0
0
0
0
0
0
0
0
0
0
0
0
24.4048844621
25.3920674319
25.0584065735
24.3115670182
25.0646700051
24.8434606458
24.8113198734
26.433780938
26.4721324206
28.3089237382
29.0020473164
27.7245791757
27.4987508162
28.299056835
28.2177939786
28.0781917944
28.2460320986
29.3091537995
28.8929482207
29.7768097679
29.7099889921
29.6555613761
29.5698992445
29.2338114721
28.6002918341
29.2969678836
30.184029289
27.693395575
28.2694881504
30.4888467964
32.9015272575
34.2148657384
35.3212573635
35.5800053917
37.1827856502
39.3692785293
42.1684978678
46.5829469195
52.759603993
57.7081021696
59.255161808
55.6556731573
53.66578908
53.6712184348
35.8837539657
1.21227200322e-26
3.09400973586e-29
0
0
0
0
0
0
0
0
0
0
0
0
0
0
0
0
0
0
0
0
0
0
0
0
0
0
0
0
0
0
0
0
0
25.0051538706
26.0347004991
25.6867056804
25.0985572051
25.6827952559
25.3349612195
25.2822484332
26.6487724639
26.9442824467
28.2756749754
29.7822419131
28.4092402173
28.0800434092
28.8743949946
29.0294976853
28.7473846929
28.5068349591
30.0379100688
30.2175514941
30.8430740296
31.0131983113
31.2407903478
30.2356034699
30.2650019107
29.8235810179
30.8188100169
31.4341036765
29.1761019477
27.6996744987
29.3707065846
32.0565703265
34.2136199581
35.4795906345
35.981666248
36.7016082919
38.9587453222
42.0089538124
47.6708751731
55.7356056162
61.2990169325
60.4967367418