/*--------------------------------*- C++ -*----------------------------------*\
| =========                 |                                                 |
| \\      /  F ield         | OpenFOAM: The Open Source CFD Toolbox           |
|  \\    /   O peration     | Version:  v1806                                 |
|   \\  /    A nd           | Web:      www.OpenFOAM.com                      |
|    \\/     M anipulation  |                                                 |
\*---------------------------------------------------------------------------*/
FoamFile
{
    version     2.0;
    format      ascii;
    class       surfaceScalarField;
    location    "225";
    object      phia;
}
// * * * * * * * * * * * * * * * * * * * * * * * * * * * * * * * * * * * * * //

dimensions      [0 3 -1 0 0 0 0];
oriented        oriented;


internalField   nonuniform List<scalar> 
12640
(
1.09228784772e-07
-1.09455768023e-07
2.12433274039e-07
-1.03387744383e-07
3.06625978898e-07
-9.43362203694e-08
3.87572504482e-07
-8.1072583606e-08
4.4495312374e-07
-5.75034451564e-08
4.75448967426e-07
-3.06052233363e-08
4.92190381691e-07
-1.68362803644e-08
5.2827209933e-07
-3.61687578293e-08
5.86743005893e-07
-5.85540467715e-08
6.4153643021e-07
-5.48693009998e-08
6.91950020453e-07
-5.04815222391e-08
7.49764590175e-07
-5.78779817274e-08
8.02598284479e-07
-5.28945272229e-08
8.44467763486e-07
-4.19257680217e-08
8.81140802761e-07
-3.67227844183e-08
9.26136936463e-07
-4.50424762426e-08
9.73690984736e-07
-4.75970927168e-08
1.01162358362e-06
-3.79740844708e-08
1.03674777408e-06
-2.51638536974e-08
1.05528348364e-06
-1.85748681654e-08
1.08668705181e-06
-3.14436706357e-08
1.1358758774e-06
-4.92309257607e-08
1.192025308e-06
-5.6190847647e-08
1.2492253505e-06
-5.72405479966e-08
1.30285215727e-06
-5.36648431022e-08
1.35167546327e-06
-4.88610072192e-08
1.39971218538e-06
-4.80721308301e-08
1.4448772099e-06
-4.52002359907e-08
1.48460537976e-06
-3.97590503361e-08
1.5199933991e-06
-3.54176795157e-08
1.55646855996e-06
-3.64995327496e-08
1.59208667772e-06
-3.56410778055e-08
1.62214994547e-06
-3.00849323378e-08
1.65424003727e-06
-3.2108462333e-08
1.68646157967e-06
-3.22301164106e-08
1.71784012402e-06
-3.13868621001e-08
1.75429815301e-06
-3.64570376037e-08
1.78995486568e-06
-3.56439929555e-08
1.8219108342e-06
-3.19323456472e-08
1.85910025578e-06
-3.71604923337e-08
1.92185039186e-06
-6.27137854353e-08
1.98916930739e-06
-6.72809881558e-08
2.0270311205e-06
-3.78189803154e-08
2.04688181897e-06
-1.97988332528e-08
2.05917338459e-06
-1.22294906539e-08
2.06274078145e-06
-3.49564017942e-09
2.05793638874e-06
4.88921394249e-09
2.04244910066e-06
1.55842824917e-08
2.01854617616e-06
2.40141973175e-08
2.00191523919e-06
1.67526777846e-08
2.00911796546e-06
-7.05755519604e-09
2.01467830805e-06
-5.40478222756e-09
1.95932850079e-06
5.55222205683e-08
1.86866386869e-06
9.08705058733e-08
1.75534889761e-06
1.13537236693e-07
1.59805867123e-06
1.57520161985e-07
1.45328338564e-06
1.45054656526e-07
1.34542208245e-06
1.08205005106e-07
1.22359825939e-06
1.22232150354e-07
1.08697968174e-06
1.37100899967e-07
9.70126114811e-07
1.17431490475e-07
8.37527419588e-07
1.3322491844e-07
6.24370716567e-07
2.13828686683e-07
4.50960459113e-07
1.73874458864e-07
3.36475876182e-07
1.14793620275e-07
2.57359263879e-07
7.93505718841e-08
1.90209672664e-07
6.73822138832e-08
1.25479088957e-07
6.49998577983e-08
6.12915380319e-08
6.45093376104e-08
-1.37862273715e-09
6.3036900235e-08
-5.72688632178e-08
5.62859945057e-08
-1.00597673469e-07
4.37276846949e-08
-1.28360089903e-07
2.81528789676e-08
-1.39843724831e-07
1.18693530938e-08
-1.38561592371e-07
-9.18018443743e-10
-1.27526116595e-07
-1.0677806143e-08
-1.14345284414e-07
-1.27725384821e-08
-8.76441148665e-08
-2.62869640417e-08
-5.55054215812e-08
-3.16370341943e-08
-5.50238617417e-08
5.49336271753e-08
-1.64496299771e-07
1.26578006513e-07
-1.75164345888e-07
1.97303171537e-07
-1.65168657176e-07
2.73618504698e-07
-1.57484483954e-07
3.79032757816e-07
-1.63016324436e-07
4.65757656659e-07
-1.17438655152e-07
5.16687944658e-07
-6.78736593604e-08
5.61911731389e-07
-8.14913006948e-08
6.09795386476e-07
-1.0652723139e-07
6.6456398456e-07
-1.0971880164e-07
7.18748260015e-07
-1.04737474109e-07
7.62173369664e-07
-1.01369147946e-07
8.02161069887e-07
-9.29430306898e-08
8.42815613415e-07
-8.26344299185e-08
8.83556892846e-07
-7.75153793551e-08
9.31320627258e-07
-9.28515956223e-08
9.71459378227e-07
-8.77777143748e-08
9.81856763187e-07
-4.84079958672e-08
9.8813612608e-07
-3.14796916126e-08
1.01259926013e-06
-4.30740652318e-08
1.05803183079e-06
-7.69183460438e-08
1.12693578492e-06
-1.18175533394e-07
1.19697619108e-06
-1.26275403749e-07
1.24913666117e-06
-1.09439644337e-07
1.29807658323e-06
-1.02645692995e-07
1.35380544658e-06
-1.04625094565e-07
1.40302378814e-06
-9.73295051693e-08
1.44451351597e-06
-8.67215300236e-08
1.48274676355e-06
-7.80270822213e-08
1.51845568496e-06
-7.11525608337e-08
1.54972940945e-06
-6.78023641396e-08
1.57801715483e-06
-6.39522927099e-08
1.6007631592e-06
-5.28546668031e-08
1.6273665567e-06
-5.87258342621e-08
1.66647954586e-06
-7.13611391808e-08
1.69767959707e-06
-6.25864848363e-08
1.72979399765e-06
-6.85682712304e-08
1.77720500267e-06
-8.30386021428e-08
1.83230282551e-06
-8.70117609285e-08
1.87561160414e-06
-8.0437017854e-08
1.85165641218e-06
-3.87315729404e-08
1.79525828594e-06
-1.08472246925e-08
1.78746852137e-06
-2.99928227254e-08
1.8112468824e-06
-4.35242624145e-08
1.8435853826e-06
-4.45107568126e-08
1.88137812157e-06
-4.12134136016e-08
1.91572724388e-06
-2.93794402655e-08
1.94542749758e-06
-1.40160581258e-08
1.96473885238e-06
4.81070823652e-09
1.94839488601e-06
3.32246821597e-08
1.87830005673e-06
6.31682398895e-08
1.80210739734e-06
7.09369256331e-08
1.82298040583e-06
3.48206866038e-08
1.84010842846e-06
7.39571510213e-08
1.78230592318e-06
1.71568862374e-07
1.73724649908e-06
2.02856052819e-07
1.68176118372e-06
2.00870251352e-07
1.57997202018e-06
2.10394420142e-07
1.46520795696e-06
2.37471231344e-07
1.32342573665e-06
2.79458536353e-07
1.0896007356e-06
3.51855688208e-07
8.56160360809e-07
3.67300756457e-07
6.39226374037e-07
4.31433273518e-07
4.62965029741e-07
3.50606690235e-07
3.3790220748e-07
2.40151021644e-07
2.44742618388e-07
1.72745767648e-07
1.74995104848e-07
1.37361445729e-07
1.1305488811e-07
1.27215174752e-07
5.04993156109e-08
1.27390449553e-07
-1.16984601105e-08
1.25613743069e-07
-6.65938917456e-08
1.11582109388e-07
-1.07917782561e-07
8.54477605664e-08
-1.36964761235e-07
5.75955236859e-08
-1.56592259495e-07
3.19137949829e-08
-1.63540691105e-07
6.45354024607e-09
-1.59877616417e-07
-1.38898803157e-08
-1.42167728228e-07
-3.00258161877e-08
-1.13740664038e-07
-5.41677580372e-08
-6.33130278954e-08
-8.13468502873e-08
-1.17914032198e-07
7.40712065075e-08
-2.38694016896e-07
1.05140456846e-07
-2.06344503257e-07
1.99763430614e-07
-2.59904454073e-07
3.16106083757e-07
-2.73937003182e-07
4.19354394397e-07
-2.66370344891e-07
4.66315878521e-07
-1.64487323508e-07
4.88337122974e-07
-8.99845280604e-08
5.37875151475e-07
-1.31133311037e-07
5.97112039566e-07
-1.65862676172e-07
6.56315641169e-07
-1.69007600266e-07
7.11824761388e-07
-1.603232868e-07
7.58013787259e-07
-1.47624779207e-07
7.98162454381e-07
-1.33151440428e-07
8.39088023644e-07
-1.23615276901e-07
8.65967567631e-07
-1.04443483791e-07
8.3337474643e-07
-6.03010197035e-08
7.72344733717e-07
-2.67814563846e-08
7.62066746486e-07
-3.81618159774e-08
8.09534632249e-07
-7.89812646209e-08
9.21908877462e-07
-1.55487920468e-07
1.0508311253e-06
-2.05884842712e-07
1.12947900179e-06
-1.96869963647e-07
1.18202294739e-06
-1.78862482807e-07
1.24532983873e-06
-1.72789400691e-07
1.30613316916e-06
-1.63488730717e-07
1.35361283897e-06
-1.52144098534e-07
1.39556181714e-06
-1.39314078342e-07
1.43576489124e-06
-1.2696024139e-07
1.47204925263e-06
-1.14342763106e-07
1.50688066137e-06
-1.06015357299e-07
1.53357334597e-06
-9.45239160384e-08
1.55665609748e-06
-8.70597777103e-08
1.58480147233e-06
-8.10249758925e-08
1.59101934514e-06
-6.49647125675e-08
1.60787837613e-06
-8.82261848844e-08
1.66365490051e-06
-1.18365214641e-07
1.70008027431e-06
-1.04986620137e-07
1.73538013507e-06
-1.18324287616e-07
1.80917857417e-06
-1.60788110112e-07
1.88428795778e-06
-1.55524320522e-07
1.9492284545e-06
-1.03643109613e-07
2.0013530498e-06
-6.29376787271e-08
2.03020944242e-06
-5.88033792737e-08
2.04854359783e-06
-6.18058939089e-08
2.06220210805e-06
-5.81043092449e-08
2.06945119024e-06
-4.83894178709e-08
2.07232852413e-06
-3.21698925645e-08
2.06991761387e-06
-1.15086803689e-08
2.06126010946e-06
1.35789956569e-08
2.05051599786e-06
4.40895438039e-08
2.03954653214e-06
7.4276735596e-08
2.01480282361e-06
9.58392374825e-08
1.93405753013e-06
1.15749379754e-07
1.8391116454e-06
1.69107331872e-07
1.79317617608e-06
2.1774423223e-07
1.75009542173e-06
2.46220332407e-07
1.66860227518e-06
2.8270533138e-07
1.55556832165e-06
3.23826306576e-07
1.42277146587e-06
3.70738924338e-07
1.27164482265e-06
4.3112158097e-07
1.12122539465e-06
5.02889253756e-07
9.13150732006e-07
5.76048573058e-07
6.70052893991e-07
6.75170978096e-07
4.50740045143e-07
5.70364548789e-07
3.13205389432e-07
3.77989549348e-07
2.32091919755e-07
2.54106400847e-07
1.60577594043e-07
2.09126492299e-07
9.35901950874e-08
1.94482581648e-07
3.0490103686e-08
1.90820216303e-07
-2.99672359337e-08
1.86448224941e-07
-8.53108799356e-08
1.67330676344e-07
-1.33488772396e-07
1.34050886439e-07
-1.70397048204e-07
9.49525033465e-08
-1.88022885893e-07
4.99919767264e-08
-1.88602042889e-07
7.48963952668e-09
-1.77527441197e-07
-2.44902707964e-08
-1.5713239367e-07
-4.98786634574e-08
-1.27402647289e-07
-8.33723014704e-08
-5.97670390519e-08
-1.48365832516e-07
-1.7736550264e-07
5.06903943554e-08
-2.89477376901e-07
6.16463305448e-08
-2.17377350959e-07
1.77932636241e-07
-3.76302091074e-07
2.67540254069e-07
-3.63649523425e-07
2.55919660828e-07
-2.54823950005e-07
2.05479432648e-07
-1.14082796903e-07
2.90982031152e-07
-1.75548592762e-07
4.49258437221e-07
-2.89511623997e-07
5.6129344686e-07
-2.77998683116e-07
6.36190718762e-07
-2.43994042784e-07
7.00658049696e-07
-2.24866163323e-07
7.532849723e-07
-2.00319858414e-07
7.83507563824e-07
-1.63434592577e-07
7.60305553579e-07
-1.004630981e-07
7.00454137438e-07
-4.46332544461e-08
6.74079720914e-07
-3.39625930333e-08
7.07796558045e-07
-6.05335999714e-08
7.99140158452e-07
-1.29543901726e-07
9.31880243973e-07
-2.11766171356e-07
1.03001460052e-06
-2.53670690873e-07
1.07962167734e-06
-2.55540998765e-07
1.13433414095e-06
-2.5163009187e-07
1.19618726327e-06
-2.40762104587e-07
1.24950694695e-06
-2.26152635441e-07
1.2970998124e-06
-2.1112390152e-07
1.34026455967e-06
-1.95347437687e-07
1.38291226552e-06
-1.82000047847e-07
1.42163703686e-06
-1.65718931235e-07
1.45900029255e-06
-1.51740064269e-07
1.48784105396e-06
-1.34888234522e-07
1.51792411003e-06
-1.24636958332e-07
1.53408301513e-06
-1.03248586775e-07
1.53485683437e-06
-8.18203730629e-08
1.57755483588e-06
-1.07676356402e-07
1.61377348444e-06
-1.24453342415e-07
1.64804433444e-06
-1.52633752293e-07
1.73961646023e-06
-1.96549720093e-07
1.82946111866e-06
-2.08155271243e-07
1.87433471047e-06
-2.05647298723e-07
1.90487538253e-06
-1.86043453939e-07
1.94694974248e-06
-1.45689426635e-07
1.99307558067e-06
-1.09026483127e-07
2.02664690968e-06
-9.23322905721e-08
2.04900084883e-06
-8.41083450785e-08
2.06440151622e-06
-7.34462407713e-08
2.07383816998e-06
-5.77563255171e-08
2.07833139467e-06
-3.65839497606e-08
2.07749646458e-06
-1.05817659782e-08
2.07090581922e-06
2.02724769936e-08
2.05916183709e-06
5.59508114971e-08
2.03971843315e-06
9.38520440898e-08
2.00383585117e-06
1.31872964695e-07
1.94494985e-06
1.7480968251e-07
1.88453630135e-06
2.29727449582e-07
1.82154483733e-06
2.80976065292e-07
1.74018321828e-06
3.27871666469e-07
1.63831341702e-06
3.84909686035e-07
1.51236162836e-06
4.50175878441e-07
1.36241224192e-06
5.21144209062e-07
1.19521050603e-06
5.98845535673e-07
1.0183999955e-06
6.80265481739e-07
8.3083716391e-07
7.64222138036e-07
6.72688071898e-07
8.33909540289e-07
4.80597162041e-07
7.62924005781e-07
3.20585702959e-07
5.38347259816e-07
2.15072495213e-07
3.59888655577e-07
1.35816806777e-07
2.88640516679e-07
6.64947811682e-08
2.64095126185e-07
2.2600219502e-09
2.55397434857e-07
-6.19827851546e-08
2.51092233064e-07
-1.26161193018e-07
2.31961323656e-07
-1.763951961e-07
1.84760858769e-07
-1.98054408611e-07
1.17064741314e-07
-2.01184403375e-07
5.35598283556e-08
-1.97272007585e-07
4.03816024568e-09
-1.7904581091e-07
-4.22035362583e-08
-1.4077947342e-07
-8.77182703722e-08
-1.00968528335e-07
-1.22766372785e-07
-5.39188027359e-08
-1.94938549642e-07
-2.31019532352e-07
4.41317362562e-09
-2.93955192884e-07
5.65628447191e-08
-2.69592687552e-07
1.51665785414e-07
-4.71503861581e-07
2.03216159124e-07
-4.15284438593e-07
1.72632494038e-07
-2.24289781012e-07
2.15391561839e-07
-1.56886057229e-07
3.43850503313e-07
-3.04083652739e-07
4.48032643384e-07
-3.93792010794e-07
5.27363996605e-07
-3.57425062774e-07
6.03253728239e-07
-3.19971299814e-07
6.74270253061e-07
-2.95959510382e-07
6.96961811707e-07
-2.23074749475e-07
6.57140301357e-07
-1.23661587156e-07
6.23773046114e-07
-6.71370062546e-08
6.46588351985e-07
-6.74885688376e-08
7.15393881817e-07
-1.02811103007e-07
8.23904044431e-07
-1.69090924536e-07
9.33426509337e-07
-2.39117257657e-07
9.91174575506e-07
-2.69565064109e-07
1.02201239066e-06
-2.84559237424e-07
1.07408203343e-06
-3.07661796075e-07
1.13402664999e-06
-3.11624857517e-07
1.18929823252e-06
-2.96081731926e-07
1.2379932071e-06
-2.74893951577e-07
1.2826860119e-06
-2.55859395684e-07
1.32742531347e-06
-2.40128539762e-07
1.36437262632e-06
-2.18983130182e-07
1.40348120154e-06
-2.04864135665e-07
1.43316408522e-06
-1.81458532488e-07
1.46361556165e-06
-1.65374512473e-07
1.47678944194e-06
-1.3784220452e-07
1.50147007565e-06
-1.27953674282e-07
1.55555778873e-06
-1.35926536233e-07
1.57809584464e-06
-1.30224433004e-07
1.62957527902e-06
-1.75934648955e-07
1.71751630273e-06
-2.40572461438e-07
1.78451666561e-06
-2.63544938396e-07
1.83641825049e-06
-2.6004988612e-07
1.87560544823e-06
-2.44821963598e-07
1.90986979505e-06
-2.20289203613e-07
1.94981690709e-06
-1.85609711214e-07
1.99203634942e-06
-1.51212470958e-07
2.02669350317e-06
-1.26948352831e-07
2.05188329152e-06
-1.09250873932e-07
2.06972018569e-06
-9.1227735678e-08
2.08156031065e-06
-6.95331426177e-08
2.0880299129e-06
-4.29800024203e-08
2.08881291972e-06
-1.12808511507e-08
2.08313926644e-06
2.60423773351e-08
2.06993829948e-06
6.92606231397e-08
2.0463050845e-06
1.17609588453e-07
2.00770800146e-06
1.70614908985e-07
1.95334328361e-06
2.29345332365e-07
1.8902145196e-06
2.93058753579e-07
1.81534029749e-06
3.56096939933e-07
1.72041326532e-06
4.2307967169e-07
1.60227761656e-06
5.03387906831e-07
1.45782353586e-06
5.95016834346e-07
1.28928704492e-06
6.90136559183e-07
1.10800897263e-06
7.80627244692e-07
9.27902542986e-07
8.60927089333e-07
7.70015727681e-07
9.22675369839e-07
6.65353031206e-07
9.39097873989e-07
4.79421986808e-07
9.4936033323e-07
3.32469034386e-07
6.85688477015e-07
2.17153054882e-07
4.75512993349e-07
1.18886124041e-07
3.87201654063e-07
3.62601154452e-08
3.4703449903e-07
-3.58354596805e-08
3.27849459387e-07
-1.07974880779e-07
3.23654798142e-07
-1.74516027218e-07
2.98982501136e-07
-2.0860734563e-07
2.19321172638e-07
-2.18982849362e-07
1.2788324013e-07
-2.24765603794e-07
5.97948710786e-08
-2.18515330721e-07
-1.71453084536e-09
-1.90634583574e-07
-6.95934852692e-08
-1.53836816428e-07
-1.24060806215e-07
-1.10130584715e-07
-1.66096954702e-07
-5.31537784286e-08
-2.51448715441e-07
-2.83940513967e-07
8.26997056322e-10
-2.94822637133e-07
7.68287130624e-08
-3.45654479349e-07
1.22897507016e-07
-5.17657579375e-07
1.42540487442e-07
-4.34998822488e-07
1.30040185647e-07
-2.11828106686e-07
2.48402406971e-07
-2.75305473518e-07
3.82385721738e-07
-4.38155205243e-07
4.39317695728e-07
-4.50814863532e-07
4.99675510773e-07
-4.1787549948e-07
5.53232862495e-07
-3.73608253504e-07
5.67019749034e-07
-3.09819020576e-07
5.16733609327e-07
-1.72833862431e-07
5.04876278438e-07
-1.11844125114e-07
5.49104659539e-07
-1.11406254248e-07
6.30362114013e-07
-1.48791515415e-07
7.54163262156e-07
-2.26664997283e-07
8.7439226135e-07
-2.89377630302e-07
9.26411294363e-07
-2.91191024955e-07
9.519990137e-07
-2.95205288627e-07
1.01117112563e-06
-3.43785404906e-07
1.07371216421e-06
-3.70256879306e-07
1.12490555445e-06
-3.62870967018e-07
1.17395130069e-06
-3.45177549316e-07
1.22420909447e-06
-3.25198376153e-07
1.27023126467e-06
-3.01927175725e-07
1.29711735772e-06
-2.67054454212e-07
1.33681289363e-06
-2.58718392442e-07
1.36646491575e-06
-2.34553318985e-07
1.39791662749e-06
-2.12945413131e-07
1.40370520379e-06
-1.7119586146e-07
1.41966540252e-06
-1.53831657035e-07
1.45083282749e-06
-1.59141997953e-07
1.47993227753e-06
-1.65037734962e-07
1.57199094412e-06
-2.22288959945e-07
1.6734128563e-06
-2.77358441653e-07
1.74386985884e-06
-3.11030762639e-07
1.79474511328e-06
-3.14420303097e-07
1.8371810662e-06
-3.02482658545e-07
1.87549055845e-06
-2.83123384914e-07
1.91286954216e-06
-2.57652407794e-07
1.95270424085e-06
-2.25420633837e-07
1.99307854084e-06
-1.91555195306e-07
2.02831106973e-06
-1.62143246169e-07
2.05592988011e-06
-1.3682563652e-07
2.07653828604e-06
-1.11785667371e-07
2.09106797868e-06
-8.40046977599e-08
2.09987421782e-06
-5.17195839112e-08
2.1023775449e-06
-1.37077034388e-08
2.0973480365e-06
3.11600147231e-08
2.08308800375e-06
8.3622122687e-08
2.05713989298e-06
1.43676816863e-07
2.01702763182e-06
2.10866440756e-07
1.96230396277e-06
2.8423746542e-07
1.89373401605e-06
3.6183648247e-07
1.80700417934e-06
4.43062609385e-07
1.6963646547e-06
5.34022136907e-07
1.56008071854e-06
6.39993943793e-07
1.39968569672e-06
7.55819132308e-07
1.22065798039e-06
8.69608584598e-07
1.03626144032e-06
9.65530206055e-07
8.64968169319e-07
1.0327429862e-06
7.21404036385e-07
1.06675118033e-06
6.15987770692e-07
1.04502398392e-06
4.70507382873e-07
1.09534213834e-06
3.13951190168e-07
8.42623985889e-07
2.04239175027e-07
5.85524524632e-07
9.7768472025e-08
4.93963947944e-07
-5.53072344684e-11
4.45175671204e-07
-8.73892610318e-08
4.15538447171e-07
-1.67049659011e-07
4.03729682902e-07
-2.18065676644e-07
3.50445040116e-07
-2.36530341767e-07
2.38214485602e-07
-2.52806501144e-07
1.44580454963e-07
-2.62350462926e-07
6.98102564792e-08
-2.52702569888e-07
-1.08558464728e-08
-2.21218947996e-07
-1.00581110106e-07
-1.78206733761e-07
-1.66676487646e-07
-1.28127172635e-07
-2.15750564115e-07
-6.67792562483e-08
-3.12362529828e-07
-3.50475192827e-07
2.69403090877e-08
-3.21806175717e-07
1.22295747794e-07
-4.4107112675e-07
1.60064052043e-07
-5.55508561656e-07
1.23985284018e-07
-3.98984120345e-07
1.60672808725e-07
-2.48563006853e-07
3.05507281999e-07
-4.20214134497e-07
3.79521933817e-07
-5.12255718064e-07
4.23857248404e-07
-4.95240092734e-07
4.55949773878e-07
-4.50045956579e-07
5.07125197745e-07
-4.24864308721e-07
4.79242426185e-07
-2.81993111258e-07
4.53658136097e-07
-1.47292822625e-07
4.93077604005e-07
-1.51306490521e-07
5.55025006474e-07
-1.73398636393e-07
6.67255019234e-07
-2.61078008132e-07
7.93408480878e-07
-3.52884243117e-07
8.44049851879e-07
-3.40079475906e-07
8.64368967119e-07
-3.11564626327e-07
9.32582674309e-07
-3.63475461911e-07
1.00571690588e-06
-4.16978027005e-07
1.06117422737e-06
-4.25771445096e-07
1.11148966857e-06
-4.13240575609e-07
1.16088478781e-06
-3.94623275452e-07
1.20004293104e-06
-3.64406428544e-07
1.22844857278e-06
-3.3037776106e-07
1.26024653424e-06
-2.98894222177e-07
1.28267377044e-06
-2.81184488604e-07
1.31602492784e-06
-2.67939620966e-07
1.33166085456e-06
-2.28615711102e-07
1.33792993737e-06
-1.77495764158e-07
1.37670186729e-06
-1.92628517686e-07
1.4252289794e-06
-2.07687202835e-07
1.4998803269e-06
-2.39698694562e-07
1.59142914622e-06
-3.13843740681e-07
1.68897451879e-06
-3.749109292e-07
1.75008254557e-06
-3.72145585454e-07
1.79450967791e-06
-3.58851709327e-07
1.83525138376e-06
-3.43224669835e-07
1.87536808547e-06
-3.23234257658e-07
1.91521024881e-06
-2.97481623346e-07
1.95569997451e-06
-2.65889637482e-07
1.99565577678e-06
-2.31483461593e-07
2.03163614011e-06
-1.98089602177e-07
2.06146192808e-06
-1.66611688134e-07
2.08494874438e-06
-1.35226696599e-07
2.10247783111e-06
-1.01481329688e-07
2.11394642481e-06
-6.31281814421e-08
2.11841475228e-06
-1.81062349496e-08
2.11434865227e-06
3.53074830012e-08
2.0998777584e-06
9.81899214865e-08
2.07285700652e-06
1.70810904725e-07
2.03127219721e-06
2.52591020396e-07
1.97355885525e-06
3.42124126282e-07
1.89736473251e-06
4.38229097033e-07
1.79804868319e-06
5.4265149255e-07
1.6719821195e-06
6.6035059428e-07
1.52025297664e-06
7.92098941372e-07
1.34817194602e-06
9.28276796608e-07
1.16600576203e-06
1.05224560669e-06
9.9011656215e-07
1.1418998337e-06
8.48554528794e-07
1.17480648243e-06
7.50189350225e-07
1.16560078534e-06
6.26959270598e-07
1.16871872597e-06
5.22412431895e-07
1.20030751409e-06
3.11819671501e-07
1.05353912521e-06
1.79892398292e-07
7.17704417605e-07
6.52821511987e-08
6.08842689698e-07
-4.87098929782e-08
5.59455245432e-07
-1.49822622309e-07
5.16961061313e-07
-2.21345311862e-07
4.75593725826e-07
-2.53474514496e-07
3.82931952323e-07
-2.77425075598e-07
2.625158168e-07
-3.03452591665e-07
1.71024764852e-07
-3.14031102077e-07
8.08354244917e-08
-3.00489503604e-07
-2.39320562528e-08
-2.70168958158e-07
-1.30454381268e-07
-2.1978797207e-07
-2.16620887413e-07
-1.5573317196e-07
-2.79412592787e-07
-8.71145203478e-08
-3.80524207184e-07
-4.37408065058e-07
5.24730947674e-08
-3.74323451793e-07
1.40761335424e-07
-5.29425040017e-07
1.49572677524e-07
-5.64385037018e-07
8.72610835909e-08
-3.36715954146e-07
1.86819530566e-07
-3.48176375865e-07
3.11448911203e-07
-5.44924447181e-07
3.58199471496e-07
-5.59089959722e-07
4.06163083795e-07
-5.43280578672e-07
3.99104713097e-07
-4.43067502359e-07
4.09452769891e-07
-4.35280157265e-07
3.75625851157e-07
-2.48212849488e-07
4.31658264385e-07
-2.03369887705e-07
4.8431496543e-07
-2.04010005368e-07
5.75432875716e-07
-2.64572042484e-07
6.9777511663e-07
-3.83489001449e-07
7.59543631965e-07
-4.14723662919e-07
7.75901398767e-07
-3.56496904652e-07
8.43329538372e-07
-3.79051784424e-07
9.27063540234e-07
-4.47271414907e-07
9.87333103407e-07
-4.77309865149e-07
1.03703136812e-06
-4.75528474181e-07
1.08534100333e-06
-4.61604806269e-07
1.13891440431e-06
-4.48251583027e-07
1.18827915281e-06
-4.1382075076e-07
1.20678250439e-06
-3.48926633184e-07
1.24442151414e-06
-3.36576445006e-07
1.26499367043e-06
-3.01795861377e-07
1.26610234964e-06
-2.6908469694e-07
1.27853344974e-06
-2.41077000229e-07
1.35772906889e-06
-2.56720203162e-07
1.40508621398e-06
-2.40010544757e-07
1.42854521343e-06
-2.31160200157e-07
1.52050733072e-06
-3.31671241405e-07
1.63239074755e-06
-4.25737737711e-07
1.69463758779e-06
-4.37169067726e-07
1.74459835718e-06
-4.2211660467e-07
1.78959444844e-06
-4.03855127289e-07
1.83245033362e-06
-3.86083403229e-07
1.87488710272e-06
-3.65668145698e-07
1.91700765997e-06
-3.3959229201e-07
1.95869209397e-06
-3.07556972203e-07
1.9991194741e-06
-2.71886737333e-07
2.03631089509e-06
-2.3525097047e-07
2.06850061268e-06
-1.98765677586e-07
2.0950652872e-06
-1.61749932117e-07
2.11588598597e-06
-1.22254677156e-07
2.13039696097e-06
-7.75839188443e-08
2.13731411483e-06
-2.49583601958e-08
2.13492162923e-06
3.77784686433e-08
2.12128191072e-06
1.11924023967e-07
2.094219107e-06
1.97989508743e-07
2.05129762867e-06
2.95654870599e-07
1.98952804825e-06
4.04055178495e-07
1.90488074042e-06
5.23112844929e-07
1.79310553968e-06
6.54625400822e-07
1.65347655989e-06
8.00325854496e-07
1.49032599246e-06
9.55531634513e-07
1.31125742157e-06
1.10778368423e-06
1.12533338449e-06
1.23860238103e-06
9.54515363901e-07
1.31320644468e-06
8.31605086197e-07
1.29819024386e-06
7.43240307158e-07
1.25439283557e-06
6.64843191497e-07
1.24750910634e-06
6.06521894816e-07
1.25899178802e-06
4.15093753878e-07
1.24530563225e-06
1.72743101289e-07
9.60311580476e-07
2.24760919966e-08
7.5935175747e-07
-1.04169305094e-07
6.86358160029e-07
-2.05824214973e-07
6.18894444542e-07
-2.65051348188e-07
5.35122508488e-07
-2.98137789045e-07
4.16326656829e-07
-3.3600033255e-07
3.00772350556e-07
-3.67894690021e-07
2.03307522197e-07
-3.79794468092e-07
9.32075562134e-08
-3.681914956e-07
-3.50483309115e-08
-3.38746156988e-07
-1.5943103965e-07
-2.83674643281e-07
-2.71232327566e-07
-1.98185918542e-07
-3.64465857029e-07
-1.0824136007e-07
-4.70082050775e-07
-5.45271504872e-07
7.1467336492e-08
-4.45843401669e-07
1.38384622511e-07
-5.96412269313e-07
1.14790980451e-07
-5.40855449548e-07
1.15633570691e-07
-3.37603496627e-07
2.37109161404e-07
-4.69715425024e-07
2.87717612255e-07
-5.95610587486e-07
3.30430275731e-07
-6.01878082185e-07
3.72269658656e-07
-5.8519397187e-07
3.74410478124e-07
-4.45273174398e-07
3.81035834698e-07
-4.41976700793e-07
3.8456880199e-07
-2.51792743415e-07
4.31640691922e-07
-2.50491652789e-07
4.93562177775e-07
-2.65982709653e-07
6.02469699438e-07
-3.7354455841e-07
7.08673362762e-07
-4.89773715066e-07
7.32926882468e-07
-4.3904843144e-07
7.63047598409e-07
-3.86680466171e-07
8.35739165494e-07
-4.51807353215e-07
9.08040388977e-07
-5.19639009562e-07
9.64481206164e-07
-5.33814790649e-07
1.01242613e-06
-5.2353357848e-07
1.05101270018e-06
-5.00252192832e-07
1.08543822871e-06
-4.8273340043e-07
1.12000618486e-06
-4.48439503289e-07
1.14691155618e-06
-3.75878360173e-07
1.17409434698e-06
-3.63802273041e-07
1.21614420119e-06
-3.4388361597e-07
1.26438356834e-06
-3.17358699972e-07
1.31099650856e-06
-2.87722642601e-07
1.34418077641e-06
-2.89932259163e-07
1.3942789134e-06
-2.90126358699e-07
1.50030593725e-06
-3.37200063347e-07
1.58271912475e-06
-4.14096060476e-07
1.63970401875e-06
-4.82736142452e-07
1.68958125895e-06
-4.87061449386e-07
1.73734683572e-06
-4.69895780713e-07
1.78393282666e-06
-4.50451083109e-07
1.82904224212e-06
-4.31197977971e-07
1.87349818985e-06
-4.10123424047e-07
1.917707396e-06
-3.8379441676e-07
1.96121479759e-06
-3.51050389222e-07
2.00305709299e-06
-3.13708743892e-07
2.04200522112e-06
-2.74172621641e-07
2.07688602903e-06
-2.3361438841e-07
2.10686731879e-06
-1.91693857456e-07
2.13131556053e-06
-1.46658863128e-07
2.14932647736e-06
-9.55427255823e-08
2.15944449152e-06
-3.50125417276e-08
2.15982264495e-06
3.74796780453e-08
2.14838295079e-06
1.23458137383e-07
2.12264690304e-06
2.23842165664e-07
2.07932573055e-06
3.39101385902e-07
2.01397853821e-06
4.6959925503e-07
1.92134052298e-06
6.15885834395e-07
1.79817034546e-06
7.78109019033e-07
1.64626125711e-06
9.52398895531e-07
1.47267384088e-06
1.12952985562e-06
1.28455783358e-06
1.29624323869e-06
1.09053745622e-06
1.43309856814e-06
9.25528192778e-07
1.4786851554e-06
8.25191699556e-07
1.39895809351e-06
7.54971020431e-07
1.32500612833e-06
6.88596189928e-07
1.3142443529e-06
6.22283645895e-07
1.32564509016e-06
5.33851130516e-07
1.33404264978e-06
2.59790241011e-07
1.23467711351e-06
-2.53309219171e-08
1.0447476482e-06
-1.65398193928e-07
8.26692843293e-07
-2.60942243599e-07
7.14729024171e-07
-3.16453062627e-07
5.9094049132e-07
-3.61976055907e-07
4.62246964228e-07
-4.08954863172e-07
3.48105463008e-07
-4.43187781016e-07
2.38068399175e-07
-4.57574294063e-07
1.08094786267e-07
-4.53014081987e-07
-3.90869460876e-08
-4.2542310849e-07
-1.86480803714e-07
-3.65190451249e-07
-3.30990403806e-07
-2.59811795357e-07
-4.69354289241e-07
-1.34412132362e-07
-5.94802335169e-07
-6.79516749679e-07
8.63454461395e-08
-5.32245327782e-07
1.44555357449e-07
-6.5469202614e-07
1.02832329374e-07
-4.99187452896e-07
1.43577308497e-07
-3.78400269043e-07
2.50086960052e-07
-5.76298370836e-07
2.58966698117e-07
-6.04562982854e-07
2.96575758452e-07
-6.39560643745e-07
3.03131568079e-07
-5.91819524167e-07
3.36111234146e-07
-4.78307885635e-07
3.18914929265e-07
-4.24838463447e-07
3.6554370241e-07
-2.98471992338e-07
4.24977090194e-07
-3.0997318145e-07
4.95017168014e-07
-3.36081188328e-07
5.96904821695e-07
-4.75509653392e-07
6.54533689642e-07
-5.47481872752e-07
6.61436927503e-07
-4.46020286397e-07
7.27941140566e-07
-4.5325143903e-07
8.09621588308e-07
-5.3355783886e-07
8.76651898763e-07
-5.86739215711e-07
9.36287936203e-07
-5.93517376561e-07
9.89324677441e-07
-5.76638055001e-07
1.03694518822e-06
-5.47933798462e-07
1.06110709646e-06
-5.06956067494e-07
1.08058160107e-06
-4.6796749882e-07
1.13082028937e-06
-4.26161085713e-07
1.15022376413e-06
-3.83249625625e-07
1.15453330469e-06
-3.48232510599e-07
1.16954427541e-06
-3.32405170736e-07
1.2340617998e-06
-3.52269437359e-07
1.31562043259e-06
-3.71513334647e-07
1.39591553792e-06
-3.70437190402e-07
1.47282372736e-06
-4.14118632168e-07
1.57529476274e-06
-5.16579058127e-07
1.63508276887e-06
-5.42541209216e-07
1.68216171148e-06
-5.34157779044e-07
1.73000813963e-06
-5.17757012881e-07
1.77821569103e-06
-4.98669699425e-07
1.82530471393e-06
-4.78293644065e-07
1.87145762832e-06
-4.56277937033e-07
1.91742062362e-06
-4.2975313653e-07
1.96291016543e-06
-3.96529588189e-07
2.00685498365e-06
-3.57636618797e-07
2.04821059739e-06
-3.15505148155e-07
2.08616907512e-06
-2.71543936572e-07
2.11997716909e-06
-2.25466231375e-07
2.14865940036e-06
-1.75298780286e-07
2.17089692752e-06
-1.17726629181e-07
2.18516091733e-06
-4.92094873143e-08
2.1897171008e-06
3.30029244725e-08
2.18239012634e-06
1.30888352487e-07
2.16018607549e-06
2.46143681339e-07
2.11876816034e-06
3.80683917013e-07
2.05183899713e-06
5.36611144779e-07
1.95283196489e-06
7.15157298399e-07
1.81852624658e-06
9.12480864595e-07
1.65340603937e-06
1.11788770386e-06
1.46507023413e-06
1.3180686826e-06
1.2585204807e-06
1.50324502327e-06
1.05519547176e-06
1.63684146414e-06
9.16868946397e-07
1.61747009992e-06
8.51031360048e-07
1.46516716713e-06
7.86245524561e-07
1.39010769555e-06
7.04759677638e-07
1.39601593707e-06
6.20242214695e-07
1.41049989151e-06
5.4681370093e-07
1.40782959613e-06
3.77813963398e-07
1.40402470329e-06
5.95955956327e-08
1.36332677733e-06
-2.14572210964e-07
1.1011853825e-06
-3.15656677419e-07
8.16132527388e-07
-3.80990874361e-07
6.56628483763e-07
-4.42547374558e-07
5.24171231358e-07
-4.89077776967e-07
3.95169163574e-07
-5.24428667625e-07
2.73829749568e-07
-5.46821225526e-07
1.31000127186e-07
-5.52868604162e-07
-3.24954336531e-08
-5.2840015891e-07
-2.10450232545e-07
-4.60207511036e-07
-3.98588630939e-07
-3.39594667869e-07
-5.89432307176e-07
-1.76867657234e-07
-7.57197288837e-07
-8.55861157631e-07