/*--------------------------------*- C++ -*----------------------------------*\
| =========                 |                                                 |
| \\      /  F ield         | OpenFOAM: The Open Source CFD Toolbox           |
|  \\    /   O peration     | Version:  v1806                                 |
|   \\  /    A nd           | Web:      www.OpenFOAM.com                      |
|    \\/     M anipulation  |                                                 |
\*---------------------------------------------------------------------------*/
FoamFile
{
    version     2.0;
    format      ascii;
    class       volVectorField;
    location    "608";
    object      Ua;
}
// * * * * * * * * * * * * * * * * * * * * * * * * * * * * * * * * * * * * * //

dimensions      [0 1 -1 0 0 0 0];


internalField   nonuniform List<vector> 
6400
(
(3.71439162301e-05 5.1151373969e-05 0)
(0.000100976896291 3.87591918378e-05 0)
(0.000147748291183 3.14768673649e-05 0)
(0.000198483102282 2.84481399213e-05 0)
(0.00023691747031 1.99426739464e-05 0)
(0.000266122555051 1.3345392647e-05 0)
(0.000284517614596 1.11244056636e-05 0)
(0.000301363928985 1.53635199034e-05 0)
(0.000339351713469 2.07746343969e-05 0)
(0.000378990089445 2.08210715853e-05 0)
(0.000401576267062 1.95280291155e-05 0)
(0.000439794845217 2.10583643622e-05 0)
(0.000476865483682 2.07364781363e-05 0)
(0.000510404715512 1.93435176877e-05 0)
(0.000539875510317 1.90690730839e-05 0)
(0.000571677632356 2.10628102738e-05 0)
(0.000609262059749 2.21545037345e-05 0)
(0.00064505339779 2.14560837029e-05 0)
(0.000676908127556 2.02019186719e-05 0)
(0.000709484893851 2.02932678032e-05 0)
(0.000748506868515 2.39549827263e-05 0)
(0.000793804276402 2.76592864207e-05 0)
(0.000841595338047 2.88193580546e-05 0)
(0.000887655398609 2.87967589606e-05 0)
(0.000932826190384 2.81735908741e-05 0)
(0.000977904884066 2.74478306801e-05 0)
(0.00102405586849 2.75759214127e-05 0)
(0.00106975938803 2.75141404106e-05 0)
(0.00111368394359 2.70082153259e-05 0)
(0.00115605790457 2.66700300166e-05 0)
(0.0011969106488 2.70768973489e-05 0)
(0.00123939121566 2.72691771848e-05 0)
(0.00128351384473 2.71071619877e-05 0)
(0.00132707548285 2.80864835455e-05 0)
(0.00137153191025 2.89314116484e-05 0)
(0.00142091684189 2.96983761238e-05 0)
(0.00146944455882 3.07162154106e-05 0)
(0.00151021574764 3.04219816773e-05 0)
(0.00155782463261 2.9647115673e-05 0)
(0.0016106443875 2.96725676949e-05 0)
(0.00165830822954 3.15256266876e-05 0)
(0.00169780873714 3.10958396453e-05 0)
(0.00173462398977 2.66099988275e-05 0)
(0.00177002444627 2.34776599235e-05 0)
(0.00180183003845 2.21712673033e-05 0)
(0.00183078431892 2.07290588881e-05 0)
(0.00185654641844 1.91807623695e-05 0)
(0.00187812684432 1.70757617665e-05 0)
(0.00189564081338 1.50520365161e-05 0)
(0.00190911003607 1.5257545086e-05 0)
(0.00192166742033 1.81179392605e-05 0)
(0.0019404374577 1.76075602987e-05 0)
(0.00194953629268 8.66391136226e-06 0)
(0.0019544837469 3.9514984284e-06 0)
(0.0019444697772 -4.16977898839e-07 0)
(0.00190383553168 -9.33576198034e-06 0)
(0.00186036959726 -7.31675076286e-06 0)
(0.00184460888961 2.37114940681e-07 0)
(0.00184211421001 -2.22210506301e-06 0)
(0.00179361322963 -4.44904059989e-06 0)
(0.00176559469828 8.2905542898e-06 0)
(0.00172692115236 1.79329045923e-06 0)
(0.00185920021663 -4.09031870951e-05 0)
(0.00167709150888 -8.33916778158e-05 0)
(0.00134565233754 -7.13273194278e-05 0)
(0.00120636935371 -4.89961871762e-05 0)
(0.0011261182532 -4.80568165694e-05 0)
(0.00106345468632 -4.78467273946e-05 0)
(0.000997158135289 -4.93262686431e-05 0)
(0.000901943293909 -5.24400140451e-05 0)
(0.000801218000353 -5.35571124331e-05 0)
(0.000686087862806 -5.17514568349e-05 0)
(0.000576462911294 -5.10227937558e-05 0)
(0.000502007200773 -5.43632616094e-05 0)
(0.000370913828358 -4.30201508494e-05 0)
(0.00031982790515 -3.75539874362e-05 0)
(0.000208915124076 -2.3001860132e-05 0)
(0.000213746360841 -3.13496746209e-05 0)
(9.12472411913e-05 -2.18210388014e-05 0)
(6.76642665629e-05 -4.04007055232e-05 0)
(1.42536595305e-05 7.18642890327e-05 0)
(6.12735690949e-05 8.01639182283e-05 0)
(0.000106895021905 7.24085017513e-05 0)
(0.00013739277562 5.8705550372e-05 0)
(0.000197789824609 5.81842824255e-05 0)
(0.000252287660496 4.33270559922e-05 0)
(0.000286407211726 3.15397943726e-05 0)
(0.00031347457981 4.07219152196e-05 0)
(0.000343606878627 5.13292983121e-05 0)
(0.000377215853644 5.17759880159e-05 0)
(0.000410339918485 5.03485682474e-05 0)
(0.000442385416651 5.07400555202e-05 0)
(0.000474108280096 4.88284529419e-05 0)
(0.000505190664995 4.61087269788e-05 0)
(0.000537737747001 4.63124702339e-05 0)
(0.000571630207365 5.35256536534e-05 0)
(0.000607245641133 5.77207067301e-05 0)
(0.000640328319759 5.09049365116e-05 0)
(0.000659073450508 4.58129704793e-05 0)
(0.000695031328549 4.89254016378e-05 0)
(0.000739749762414 5.92056525433e-05 0)
(0.000788490259824 7.04387892243e-05 0)
(0.000840443442834 7.31562355477e-05 0)
(0.000888455855675 6.97502095431e-05 0)
(0.000927810370947 6.71632210889e-05 0)
(0.000975722148422 6.69105462211e-05 0)
(0.00102327350055 6.62827669717e-05 0)
(0.00106761138074 6.47919660899e-05 0)
(0.00111082111004 6.32608045446e-05 0)
(0.00115379115857 6.23478882869e-05 0)
(0.00119599413299 6.27261254444e-05 0)
(0.00123465509462 6.25992451402e-05 0)
(0.00127858829116 6.13833771322e-05 0)
(0.00132157757191 6.42659113143e-05 0)
(0.00136441559527 6.79751776377e-05 0)
(0.00141888231351 6.80227087061e-05 0)
(0.0014648448271 6.94034043603e-05 0)
(0.00150595082457 7.05633204636e-05 0)
(0.0015572542107 6.90599870958e-05 0)
(0.00161682070208 6.61236653833e-05 0)
(0.00166595652266 6.02150224284e-05 0)
(0.00167238098513 5.27183380007e-05 0)
(0.00169155463969 4.82871162228e-05 0)
(0.00173028455894 4.61699123234e-05 0)
(0.00176427778664 4.38893972468e-05 0)
(0.00179870095098 4.06637870068e-05 0)
(0.00183204736446 3.61235767512e-05 0)
(0.00185896172478 3.04599478749e-05 0)
(0.00188643189027 2.443687274e-05 0)
(0.00190819907552 1.91505886719e-05 0)
(0.00191607083673 1.5727053131e-05 0)
(0.00190115563919 1.24480626919e-05 0)
(0.0018924960582 8.04046005654e-06 0)
(0.00195369743654 -3.10535965081e-06 0)
(0.00193371190413 -2.51702609087e-05 0)
(0.00190987458693 -4.01051518511e-05 0)
(0.00192060627212 -3.63501123975e-05 0)
(0.00191224516974 -2.86476442494e-05 0)
(0.00189361926074 -3.48016670681e-05 0)
(0.00187961666577 -4.31104475439e-05 0)
(0.00187415764761 -4.85708529241e-05 0)
(0.00170389971221 -6.03828302268e-05 0)
(0.00182862129568 -0.000164709868336 0)
(0.00164007587928 -0.000272302335726 0)
(0.00135921710349 -0.000254882439317 0)
(0.0011394380768 -0.000179865336714 0)
(0.00102776709612 -0.000131241184596 0)
(0.00101320577533 -0.000120753427405 0)
(0.000953820767541 -0.000133503173106 0)
(0.000881785163473 -0.000154758137834 0)
(0.000773692293571 -0.000165284180101 0)
(0.000655686545805 -0.000159706966415 0)
(0.000533991792038 -0.000138087414382 0)
(0.000476150535874 -0.000132671685646 0)
(0.000402010253987 -0.000121723964824 0)
(0.000336675952801 -0.000109370990795 0)
(0.000271235764692 -9.20291426439e-05 0)
(0.000211889597039 -9.33735458937e-05 0)
(0.000130140938438 -9.80927398301e-05 0)
(5.95732773587e-05 -0.000158423209306 0)
(2.02732783409e-05 0.000124191230296 0)
(5.78248430181e-05 0.000133506765155 0)
(8.9614504536e-05 0.000124963539494 7.25963617688e-29)
(0.000151208897192 0.000125875973236 -6.70491074476e-29)
(0.000208925246177 0.000124269316927 -5.88036045719e-29)
(0.000246119365345 0.000103105195189 5.35212021565e-29)
(0.000274139526627 6.55165873981e-05 -5.35913910909e-29)
(0.000301831193477 7.21149431419e-05 5.1817409964e-29)
(0.000333321408267 8.59761229303e-05 0)
(0.000368387798083 8.89654246873e-05 0)
(0.000403491139739 8.67444257073e-05 0)
(0.000436257357309 8.38149832994e-05 0)
(0.000467582699579 8.06164145659e-05 0)
(0.000497907360855 7.98225010469e-05 0)
(0.000530505427189 8.23802310657e-05 0)
(0.00056462030014 8.29736708776e-05 0)
(0.000545716067664 7.34803607333e-05 0)
(0.000549993965199 6.83209221403e-05 0)
(0.000585420731011 7.67883455309e-05 0)
(0.000641715521679 9.79652706163e-05 0)
(0.000732859290737 0.000120866110678 0)
(0.000792848487284 0.000127459060914 0)
(0.000830925362971 0.000123309219597 0)
(0.00087828117407 0.000118603011236 0)
(0.00092743547735 0.000116290824945 0)
(0.000972259371142 0.000115253022765 0)
(0.00101640257507 0.000113165920173 0)
(0.00106091208733 0.000110827207022 0)
(0.00110458119628 0.000108940594897 0)
(0.00114693335647 0.000107872684203 9.61904469891e-29)
(0.00119078726405 0.000107232810223 -9.30610215992e-29)
(0.00122633995137 0.000106504286763 0)
(0.00126876314304 0.000106512151183 0)
(0.00132093195872 0.000108735603226 0)
(0.0013486905128 0.00011560897728 0)
(0.00140382330696 0.000121350645952 0)
(0.00146636692876 0.0001207362645 0)
(0.00149712266164 0.000121268227462 0)
(0.00155103742914 0.000124414082426 0)
(0.00161308627537 0.000118995834976 0)
(0.00166270900028 0.000101947702578 0)
(0.00170012058829 8.74819480564e-05 0)
(0.00173517956664 8.43901633056e-05 0)
(0.00177016971994 8.36499308837e-05 0)
(0.00180223325298 8.03341643821e-05 0)
(0.00183107924366 7.51574543676e-05 0)
(0.00185698239678 6.78073572868e-05 0)
(0.00187991910484 5.92654391741e-05 0)
(0.00190004761613 4.95519879945e-05 0)
(0.00191695207888 3.76721363694e-05 0)
(0.00193013210629 2.54521860015e-05 0)
(0.0019397812166 1.88417754391e-05 0)
(0.00194658825601 1.88991246749e-05 0)
(0.00193932925025 2.63463800767e-06 0)
(0.00191880863401 -2.4517947713e-05 0)
(0.00192390359422 -3.59210510201e-05 0)
(0.00192404198969 -3.67809401696e-05 0)
(0.00191012564956 -3.92630810236e-05 0)
(0.00189014713014 -4.63796382791e-05 0)
(0.00186802055031 -6.07549379648e-05 0)
(0.00182701922619 -9.61452819188e-05 0)
(0.00178072997992 -0.000149856553198 0)
(0.00174566084203 -0.000328873829209 0)
(0.00146460189477 -0.000463150765808 0)
(0.00115536746784 -0.000378772192241 0)
(0.00106456412056 -0.000280596778323 0)
(0.00102163302169 -0.00021982404512 0)
(0.000947758029847 -0.000197598054576 0)
(0.000873963866128 -0.000217505354551 0)
(0.000788193583617 -0.000247485228235 0)
(0.00068515319177 -0.00025610832951 0)
(0.000591646702698 -0.000238809787894 0)
(0.000533145782448 -0.000217695323815 0)
(0.000475638211896 -0.000208484765748 0)
(0.000399696030933 -0.000199762586497 0)
(0.000322263318024 -0.000181559338031 0)
(0.000250487923475 -0.000161057335167 0)
(0.000190869037423 -0.000170647892098 0)
(0.000131161237274 -0.00021951302365 0)
(3.33156934566e-05 -0.000217253624803 0)
(1.88251169353e-05 0.000181555461214 0)
(2.77550073555e-05 0.00012605705475 0)
(7.1021081354e-05 0.000185637214916 0)
(0.000127507089353 0.000185367529301 0)
(0.000179295591615 0.000161042598108 0)
(0.000110041808564 6.93192093552e-05 0)
(0.000139922670027 7.40670293175e-05 0)
(0.000254603299958 0.000130617370141 0)
(0.000310446371168 0.000137394124668 0)
(0.000352030853872 0.000129725433271 0)
(0.000391434018748 0.000124025685266 0)
(0.00042663867052 0.000117516620424 0)
(0.000458718202111 0.000112516325533 0)
(0.000485492808977 0.000105522743568 0)
(0.000481501374617 9.19271401981e-05 0)
(0.000477064920597 8.19071405372e-05 0)
(0.000494355237938 8.38396923402e-05 0)
(0.000540130857677 0.000105217358297 0)
(0.000619952442714 0.000140925231692 0)
(0.000695645091001 0.000173226732563 0)
(0.00073758484545 0.000181008710558 0)
(0.000781142499333 0.000175793174517 0)
(0.000828306226822 0.000170487594861 0)
(0.000873919300756 0.00016651915858 0)
(0.000918415601057 0.000162698558912 0)
(0.000962210332986 0.000159446049459 0)
(0.00100572508902 0.000156970759921 0)
(0.00105170685338 0.00015479056774 0)
(0.00109386250423 0.000152294364666 0)
(0.00113976904478 0.000150929139686 0)
(0.00117679301618 0.000149132955377 0)
(0.00122292742875 0.000148051006093 0)
(0.00125240324924 0.00014556078216 0)
(0.00130007977412 0.000151892399158 0)
(0.00136187757582 0.00016397634216 0)
(0.00139544680061 0.000171661759382 0)
(0.00145687066218 0.000174686025204 0)
(0.00151942040999 0.000175651983157 0)
(0.0015678320587 0.000175667935905 0)
(0.00161354348459 0.000165993608097 0)
(0.00165776488125 0.000147261635169 0)
(0.00169801842397 0.000130196275327 0)
(0.00173547244772 0.000121159011054 0)
(0.00177074443699 0.000115845298323 0)
(0.0018028188097 0.000109625670758 0)
(0.00183165240584 0.000101554440913 -8.3700514872e-29)
(0.00185747981788 9.16484492389e-05 8.4230407675e-29)
(0.00188031702671 8.0280578358e-05 0)
(0.00190015891446 6.7499638628e-05 0)
(0.00191676377413 5.33479717808e-05 0)
(0.00192966030952 3.93835490581e-05 0)
(0.00193800343364 2.7421345114e-05 0)
(0.00194064959486 1.42465806228e-05 0)
(0.00193601901768 -6.33006548898e-06 0)
(0.00192871603854 -2.62946022839e-05 0)
(0.00192399609731 -3.82168154679e-05 0)
(0.00191621453661 -4.75196089815e-05 0)
(0.00189959802103 -5.80316392984e-05 -1.65938093147e-28)
(0.00187345764714 -7.36618518526e-05 1.9355490368e-28)
(0.00183404157761 -0.000102932406579 0)
(0.0017695306652 -0.000160337721477 0)
(0.00167340367235 -0.000276688204845 0)
(0.00153469022604 -0.000491036019397 0)
(0.00138030501492 -0.000643365065655 0)
(0.00122784982781 -0.000563999370363 0)
(0.00101467524024 -0.000366567397932 0)
(0.000922164935912 -0.00028634702942 0)
(0.0008593205774 -0.000275217905664 0)
(0.00079296505517 -0.000298802673011 0)
(0.000733267473434 -0.000338799368268 0)
(0.000656635820201 -0.000349982852214 0)
(0.000578751482916 -0.000325485301654 0)
(0.000500981038665 -0.000296894743332 0)
(0.000403403234388 -0.000272224546674 0)
(0.000331368651508 -0.000263828726569 0)
(0.000264705390209 -0.000258675064778 0)
(0.000191076675888 -0.000235066008317 0)
(0.000111302950492 -0.000192119071604 0)
(8.10673013016e-05 -0.000244759793784 0)
(2.69427763351e-05 -0.000282842241303 0)
(1.12765676859e-06 0.000182417241275 0)
(1.39995885819e-05 0.000152402989394 0)
(6.14300199689e-05 0.000238522919733 0)
(0.000106116298722 0.000223972090486 0)
(0.000118487652403 0.000156874214881 0)
(9.76266266163e-05 9.42722414371e-05 0)
(0.000168180470569 0.000150595004511 0)
(0.00024876106383 0.000203171411426 0)
(0.000285784419839 0.000189230523604 0)
(0.000330342769943 0.000174031191765 0)
(0.000372415344809 0.000166280905286 0)
(0.000409616354673 0.000155409007606 0)
(0.000425346688615 0.000131915524086 0)
(0.0004086150058 0.000103517894521 0)
(0.000428080646688 9.90051562205e-05 0)
(0.000467333965159 0.000112034305203 0)
(0.000526189198274 0.000139614102403 0)
(0.000594737972027 0.000177208761898 0)
(0.000649216953283 0.00020604758568 0)
(0.000682227370522 0.000215713999895 0)
(0.000724475819357 0.000221304638665 0)
(0.000772355057167 0.000222725201185 0)
(0.000817395729519 0.000218157259905 0)
(0.000862055096104 0.000212175992735 0)
(0.000905817422584 0.000207112988307 0)
(0.000948626453779 0.000203869219139 0)
(0.000994593594012 0.000201647431988 0)
(0.00103538618988 0.000198505722059 0)
(0.00108424186956 0.000196528428519 0)
(0.00111984033449 0.000192693649831 0)
(0.00117070262882 0.00019187854774 9.22430086571e-29)
(0.00119095024183 0.000187076713546 -8.77869520283e-29)
(0.00124914054444 0.0001926908574 0)
(0.00130769774473 0.000202240219949 0)
(0.0013460299984 0.000213298331441 0)
(0.00141267754014 0.000228119241748 0)
(0.0014683054049 0.000234288470197 0)
(0.00151899741597 0.000229745380804 0)
(0.00156615602594 0.000221202023894 0)
(0.0016112499254 0.000208476134872 0)
(0.00165519337709 0.00019059814255 0)
(0.00169679234178 0.000172810580252 0)
(0.00173557811267 0.000159788904897 0)
(0.00177138103769 0.000150008133422 0)
(0.00180376905856 0.00014024202604 0)
(0.00183281898005 0.000129092213272 0)
(0.00185870852479 0.000116288848281 0)
(0.00188143820915 0.000101934716875 0)
(0.00190087864708 8.60370628955e-05 0)
(0.00191673450104 6.87453534331e-05 0)
(0.0019284881058 5.08842228046e-05 0)
(0.00193526398613 3.29422622972e-05 0)
(0.00193616120835 1.32507988602e-05 0)
(0.0019312674602 -9.38956754828e-06 0)
(0.00192365398153 -3.04249460912e-05 0)
(0.00191518339613 -4.72404053492e-05 0)
(0.00190136468641 -6.40024262957e-05 0)
(0.00187606713968 -8.57214223061e-05 0)
(0.00183401260752 -0.000119011493291 0)
(0.00176746383603 -0.000175735666199 0)
(0.00166755958022 -0.00027218118964 0)
(0.00153953835799 -0.000423035704143 0)
(0.00138957768764 -0.000615665673023 0)
(0.00131520344936 -0.000753891944353 0)
(0.00122369349476 -0.000705917584424 0)
(0.00103240469972 -0.000521128036663 0)
(0.000902316167748 -0.000409809136406 0)
(0.000797035839534 -0.00036689253223 0)
(0.000712709154769 -0.000372027633174 0)
(0.000650550623371 -0.000404489245091 0)
(0.000592241073916 -0.000426718942634 0)
(0.000515199373724 -0.000408059549379 0)
(0.000413956908922 -0.000362118582156 0)
(0.000343892621398 -0.000345187401405 0)
(0.000277740521514 -0.000342954928331 0)
(0.000210006537334 -0.000334978282678 0)
(0.000141987764743 -0.000282638390032 0)
(9.14193699334e-05 -0.000245453445073 0)
(5.83130721161e-05 -0.000305697939489 0)
(1.46866959606e-05 -0.000316331658093 0)
(-1.17164232036e-06 0.000170552419215 0)
(1.59846858958e-05 0.000183013519405 0)
(5.95635020545e-05 0.000270133179312 0)
(8.55322380832e-05 0.000234705492006 0)
(6.69206137052e-05 0.000125637690617 0)
(9.4863058353e-05 0.00013210544597 0)
(0.000196641352631 0.000231321266593 0)
(0.000231170488348 0.000242914268249 0)
(0.00026434827793 0.000230334698286 0)
(0.000304654239368 0.000219201345508 0)
(0.000346522109066 0.000201502638515 0)
(0.000339400568125 0.000159542921006 0)
(0.000321089845217 0.000119021802445 0)
(0.000353131824884 0.000118971053623 0)
(0.000396798491378 0.000138855116038 0)
(0.000468150363689 0.000174474177904 0)
(0.000540341358804 0.000209120517948 0)
(0.000593856037158 0.000230658185602 0)
(0.000620671535275 0.000238825882974 0)
(0.000664978555266 0.000255059407838 0)
(0.000714614088014 0.000268190991224 0)
(0.000758494626482 0.000268802367394 0)
(0.000802062181399 0.000263630702533 0)
(0.000845401771508 0.000257331698287 0)
(0.000891470154133 0.000252522050063 0)
(0.000934234528262 0.000247347156511 0)
(0.000970024206457 0.000244416577978 0)
(0.00102458586116 0.000244439797174 0)
(0.00105449262722 0.000237469322598 0)
(0.00111262111658 0.000235380343865 0)
(0.00112412221264 0.000227047557471 0)
(0.00119141150699 0.000235475137919 0)
(0.00121203249008 0.000238977574999 0)
(0.00128701166797 0.000256665621084 0)
(0.00136062672021 0.000276448501489 0)
(0.00141721938573 0.000287873119035 0)
(0.00146765944752 0.00028654439005 0)
(0.00151616090846 0.000278474699343 0)
(0.00156309681559 0.000267159724125 0)
(0.00160878974429 0.000252566420141 0)
(0.00165320859993 0.00023437320792 0)
(0.00169565904943 0.000215453973784 0)
(0.00173541050979 0.000199029461119 0)
(0.00177189863108 0.000184965171556 0)
(0.00180484076829 0.000171332468761 0)
(0.00183427588774 0.000156790061144 0)
(0.00186033003064 0.000140808229485 0)
(0.00188290846117 0.000123209717978 0)
(0.00190172897309 0.000103869264862 0)
(0.00191641156644 8.28280179965e-05 0)
(0.00192643340493 6.04275272076e-05 0)
(0.00193108090238 3.68104336063e-05 0)
(0.00192987553288 1.16143612039e-05 0)
(0.00192334664625 -1.44723308195e-05 0)
(0.0019130054291 -3.9123311491e-05 0)
(0.00189820380784 -6.29771814157e-05 0)
(0.00187374581564 -9.12752994104e-05 0)
(0.00183271730411 -0.000130843506648 0)
(0.0017688756593 -0.000190041760313 0)
(0.001676221566 -0.000278315651283 0)
(0.00155715792481 -0.00040277970778 0)
(0.00142758179012 -0.000556303615368 0)
(0.0012544724093 -0.000687450178687 0)
(0.0012682453076 -0.000864150161329 0)
(0.00109943340804 -0.000800487751328 0)
(0.00093759682198 -0.000629090938 0)
(0.000836602719323 -0.000530361396305 0)
(0.000727742754542 -0.000469231589362 0)
(0.000629832919899 -0.000446991795747 0)
(0.000573510225149 -0.000479542146453 0)
(0.000517560736803 -0.000509989565682 0)
(0.000425711908617 -0.000465959509616 0)
(0.000352185800139 -0.000426306478019 0)
(0.000293847349183 -0.00041984329162 0)
(0.000225170652704 -0.000414658953562 0)
(0.000169360073435 -0.000396150972897 0)
(0.000112418287369 -0.000319143554638 0)
(7.2017801819e-05 -0.00028719693642 0)
(4.31437941753e-05 -0.000342442609271 0)
(1.19932063408e-05 -0.000341566111273 0)
(4.90832751112e-06 0.000183769593155 0)
(3.4525987639e-05 0.000232960403623 0)
(7.42252790565e-05 0.000291139986939 0)
(8.18899443799e-05 0.00027932329067 0)
(5.965855464e-05 0.000157789789679 0)
(0.000128152083272 0.000222221949144 0)
(0.000191776624049 0.000275626333105 0)
(0.000213123904827 0.000272613934349 0)
(0.00024370901281 0.00026334953278 0)
(0.000270097987507 0.000251762108815 0)
(0.000317029528499 0.000228266238471 -2.44404821405e-28)
(0.000262950080903 0.000144839187994 1.56526576106e-28)
(0.000303287041325 0.00014504683536 0)
(0.000334986234993 0.0001617521817 0)
(0.000399513716837 0.000202904475106 0)
(0.000476944543704 0.000249632902025 0)
(0.000531403722656 0.000267266567445 0)
(0.000550048710023 0.000261718295375 0)
(0.000596728207011 0.000279419588009 0)
(0.000652752949457 0.000304719458387 0)
(0.00069581956343 0.00031381346889 0)
(0.000739937830092 0.00031340689801 0)
(0.000784405574866 0.00030908812817 0)
(0.000828555624096 0.000302188110602 0)
(0.00086841257065 0.000293779879673 0)
(0.000905241093495 0.000287364141642 0)
(0.000957441131487 0.000287915550378 0)
(0.000980894473261 0.0002840458177 0)
(0.00104705443163 0.000283157115189 0)
(0.00105330500233 0.000265100557082 0)
(0.00112533916041 0.000273843003696 0)
(0.00114826492861 0.000280289684346 -8.63293176082e-29)
(0.00122197234758 0.000299232274689 8.77092624682e-29)
(0.0012837495321 0.000323446645791 0)
(0.00136083026599 0.000342950801107 0)
(0.00141457362978 0.000343980772461 0)
(0.0014631471719 0.000336834945414 0)
(0.00151145872195 0.000326531047518 0)
(0.00155940243479 0.000313737461416 0)
(0.00160621299642 0.00029786925557 0)
(0.00165144012582 0.000278812717968 0)
(0.00169472443269 0.000258392149104 0)
(0.00173534385756 0.000238882397574 0)
(0.00177261555558 0.000220788651423 0)
(0.00180623610809 0.00020314737308 0)
(0.00183618339013 0.000184892946136 0)
(0.00186243855562 0.000165334473404 0)
(0.00188473574701 0.000144027892632 0)
(0.00190264349966 0.000120672387907 0)
(0.00191571813556 9.51745326927e-05 0)
(0.0019234598273 6.76722518266e-05 0)
(0.00192531673814 3.83803945007e-05 0)
(0.00192102071208 7.69063897257e-06 0)
(0.00191081130296 -2.35141313371e-05 0)
(0.00189461336754 -5.49756197431e-05 0)
(0.00186981432999 -8.98351827886e-05 0)
(0.00183048897524 -0.000134639038631 0)
(0.00177058491909 -0.000196160737286 0)
(0.00168831212273 -0.000279731282326 0)
(0.0015893837363 -0.000388402506228 0)
(0.00148187049422 -0.000520770716808 0)
(0.00137247327033 -0.000665853190932 0)
(0.00127980081096 -0.000812234360291 0)
(0.0012152892901 -0.000960683699291 0)
(0.00106178292407 -0.000929464089731 0)
(0.000832651502466 -0.000717394440994 0)
(0.000761665507704 -0.00063708560011 0)
(0.000667659639899 -0.000584814984186 0)
(0.000568452887534 -0.00055239922837 0)
(0.000496814613414 -0.00056587605164 0)
(0.000432020978481 -0.000564840874799 0)
(0.000359971185754 -0.000514433204579 0)
(0.000307603678438 -0.000496700402686 0)
(0.000243508740186 -0.000489493360919 0)
(0.000182579543594 -0.00047891060328 0)
(0.000133210503902 -0.000426804384963 0)
(9.27111178529e-05 -0.000367404905608 0)
(4.8669288233e-05 -0.00032413108509 0)
(2.51302223222e-05 -0.000363762557465 0)
(8.4788254885e-06 -0.000368572469473 0)
(1.05875492269e-05 0.000211166861658 0)
(4.67072766951e-05 0.000277268519766 0)
(7.96279246228e-05 0.000301385717366 0)
(5.14171468557e-05 0.000196867621322 0)
(5.96972402563e-05 0.000192209265356 0)
(0.00013900109757 0.000293666443349 0)
(0.000169352245506 0.000303208659194 0)
(0.000195981104737 0.000300787978178 0)
(0.000214452951851 0.000288363437827 0)
(0.00024726994153 0.000278605075571 0)
(0.000213256976352 0.000188433122521 0)
(0.000244224929421 0.000170019759271 0)
(0.000282548579035 0.000181395762076 0)
(0.000321754996651 0.000211405601602 0)
(0.000406606906374 0.000276172850322 0)
(0.000466018279092 0.00030611534373 0)
(0.00047981281701 0.000292531287988 0)
(0.000520122633027 0.000301920280647 0)
(0.000581633548664 0.000333893630781 0)
(0.000630982533382 0.000353050504172 0)
(0.000672564102445 0.000357656061498 0)
(0.000714968626442 0.000356897504257 0)
(0.000761296791705 0.000354910547997 0)
(0.000804959501883 0.000347484511062 0)
(0.000850814021406 0.000336080902133 0)
(0.000878657486036 0.000329748668228 0)
(0.000937604874441 0.000331942820194 0)
(0.000968352452968 0.000324536698065 0)
(0.000992545255324 0.000313903993115 0)
(0.00104208228684 0.00031497592708 0)
(0.00112149702436 0.000329592075699 0)
(0.00115099258346 0.000332998027078 0)
(0.00120164072012 0.000359121893213 0)
(0.00129661463311 0.000395482228323 0)
(0.00135392468669 0.000404843761403 0)
(0.00140582440323 0.000397874480246 0)
(0.00145618729044 0.000387343911762 0)
(0.00150580666664 0.000375578537344 0)
(0.00155508095609 0.000361659135384 0)
(0.00160330299414 0.000344558053076 0)
(0.00164971996137 0.000324202239151 0)
(0.00169397889806 0.000301917886255 0)
(0.00173555122881 0.000279421630984 0)
(0.00177375961268 0.000257470201415 0)
(0.0018082094989 0.000235732561674 -8.09382896674e-29)
(0.00183876493745 0.000213439329327 8.07076606587e-29)
(0.00186520624569 0.000189801546886 0)
(0.00188705725283 0.000164153672698 0)
(0.00190374413454 0.000136050828309 0)
(0.00191476231036 0.000105324140337 0)
(0.00191960847077 7.20464051407e-05 0)
(0.00191776875402 3.6532018648e-05 0)
(0.00190890063497 -7.05507140033e-07 0)
(0.00189258902155 -3.94396609437e-05 0)
(0.00186726759399 -8.13227973512e-05 0)
(0.0018290788057 -0.000131160584382 0)
(0.00177272387952 -0.000195181096794 0)
(0.00169689436262 -0.000275923588216 0)
(0.00160959529942 -0.000372695079866 0)
(0.0015221677619 -0.000485925520862 0)
(0.00143647539509 -0.000614918615641 0)
(0.00135245386005 -0.00075380906546 0)
(0.00127562909731 -0.00089617879488 0)
(0.00119162836571 -0.00103759141645 0)
(0.00118143221207 -0.00116421594579 0)
(0.000839890972902 -0.000882034191646 0)
(0.000668818984486 -0.000742425439254 0)
(0.000571659449482 -0.000684189262236 0)
(0.000470789846776 -0.000637886833492 0)
(0.000404272696209 -0.00062501644662 0)
(0.000357716443932 -0.000599396066323 0)
(0.00031185120959 -0.000566935162833 0)
(0.000261322652386 -0.000562268361531 0)
(0.000198517062862 -0.000554330916718 0)
(0.000145172906189 -0.000528587929368 0)
(9.96520629175e-05 -0.000462701683853 0)
(6.17312513806e-05 -0.000414300212208 0)
(1.99327491403e-05 -0.000366827577106 0)
(-1.35538722702e-06 -0.000375108931042 0)
(-1.7667024743e-06 -0.000384123756564 0)
(1.41802276991e-05 0.000244143320557 0)
(4.99622417987e-05 0.000310260002427 0)
(6.20641180137e-05 0.000309351643807 0)
(4.58388449108e-05 0.000213715789 0)
(7.9094682526e-05 0.000245625058411 0)
(0.000135129194075 0.000325569778179 0)
(0.000147882620198 0.000328090042096 0)
(0.000179154876685 0.000326079032915 0)
(0.000177917510853 0.000290468442066 0)
(0.000226534171084 0.000312599817314 0)
(0.00019156085079 0.000209636616353 0)
(0.000231886579006 0.000205395617209 0)
(0.000264571846068 0.000222335820956 0)
(0.000324720314849 0.000278883799364 0)
(0.000395136127309 0.000338240102067 0)
(0.00043699640007 0.000346523351532 0)
(0.000449375238537 0.000329402545488 0)
(0.000500368088674 0.000353912007264 0)
(0.000556433634483 0.000385528711117 0)
(0.000602837482306 0.000399431266231 0)
(0.000647288624736 0.000402291010284 0)
(0.000687881197644 0.000399765805924 0)
(0.000732753419562 0.000397813163205 0)
(0.000769061725737 0.000388704292422 0)
(0.000803309771498 0.000371410891037 0)
(0.000863367847442 0.000373540320128 0)
(0.000872250502163 0.000364753389831 0)
(0.00095961811525 0.000372945158054 0)
(0.000967438719269 0.000361563800283 0)
(0.00105400099857 0.000377982292909 0)
(0.00106563264813 0.000370744821031 0)
(0.00115845883147 0.000398338916326 0)
(0.00122444562735 0.000433640199736 -9.15510774784e-29)
(0.0012870691693 0.000458690738768 9.15712122216e-29)
(0.00134231691036 0.000460389106958 0)
(0.00139525861047 0.000451414190957 0)
(0.00144771693857 0.000439558767492 0)
(0.00149924751116 0.000426437983278 0)
(0.0015500962492 0.000411250301618 0)
(0.00159987516774 0.000392807706658 0)
(0.00164783330031 0.000370851365442 0)
(0.0016934399319 0.00034639671276 0)
(0.00173619478313 0.000320869846764 0)
(0.00177553181973 0.000295122087527 0)
(0.00181102072071 0.000269172801995 0)
(0.00184230562945 0.000242455495802 0)
(0.0018689086579 0.0002141257221 0)
(0.00189016216751 0.000183365255636 0)
(0.00190536093137 0.000149643105063 0)
(0.00191390116784 0.000112753622506 0)
(0.001915183685 7.27409315487e-05 0)
(0.00190859956084 2.98184870835e-05 0)
(0.00189349718056 -1.58478275955e-05 0)
(0.00186862922112 -6.50729171106e-05 0)
(0.00183131957084 -0.000120867085921 0)
(0.00177763267324 -0.000188044959191 0)
(0.00170482140925 -0.000269857329646 0)
(0.00161963334438 -0.000360578744853 0)
(0.00153966689891 -0.000456776838372 0)
(0.00147185706753 -0.000565928830282 0)
(0.00140403531113 -0.000692908974575 0)
(0.00132507832854 -0.000830638199659 0)
(0.00124659548992 -0.000967459406949 0)
(0.00118017835862 -0.00109678031476 0)
(0.00116586382763 -0.00123863706143 0)
(0.00103758121813 -0.00121234602424 0)
(0.000633879266406 -0.000876644788576 0)
(0.000462877175601 -0.000798886723372 0)
(0.00037584171028 -0.000731554818015 0)
(0.000321351640629 -0.000670627578786 0)
(0.000294323507203 -0.000622257257651 0)
(0.000268242745554 -0.000616323818792 0)
(0.000219568303695 -0.000623679435863 0)
(0.000160066827515 -0.000613075206628 0)
(0.000105860967967 -0.000571161324953 0)
(5.6860474884e-05 -0.000510578673217 0)
(1.23597176224e-05 -0.000456432161407 0)
(-2.186032725e-05 -0.00040695569636 0)
(-3.24333142403e-05 -0.000379083021849 0)
(-1.49312109281e-05 -0.000368731868903 0)
(1.61465126296e-05 0.000282538315987 0)
(5.25150660199e-05 0.000332457279381 0)
(5.27513710734e-05 0.00030617066571 0)
(4.30279338085e-05 0.000228522591543 0)
(9.29989483936e-05 0.000316992437719 0)
(0.000114701919383 0.000334915591339 0)