/*--------------------------------*- C++ -*----------------------------------*\
| =========                 |                                                 |
| \\      /  F ield         | OpenFOAM: The Open Source CFD Toolbox           |
|  \\    /   O peration     | Version:  v1806                                 |
|   \\  /    A nd           | Web:      www.OpenFOAM.com                      |
|    \\/     M anipulation  |                                                 |
\*---------------------------------------------------------------------------*/
FoamFile
{
    version     2.0;
    format      ascii;
    class       volScalarField;
    location    "75";
    object      pa;
}
// * * * * * * * * * * * * * * * * * * * * * * * * * * * * * * * * * * * * * //

dimensions      [0 2 -2 0 0 0 0];


internalField   nonuniform List<scalar> 
6400
(
-0.0939442328773
-0.0939521139037
-0.0939739281874
-0.0940144368974
-0.0940698995635
-0.0941386452916
-0.0942216834804
-0.0943247998629
-0.0944461405197
-0.0945812496196
-0.0947535139975
-0.094975295366
-0.0952269403454
-0.0955101369117
-0.095835558781
-0.0962142112373
-0.0966454003892
-0.0971237674391
-0.0976486471408
-0.098204306372
-0.0987581834313
-0.0993024504129
-0.0998556142855
-0.100444750817
-0.101094135397
-0.101803714942
-0.102554592849
-0.103335722875
-0.104151225211
-0.105011423549
-0.105926799718
-0.106895222941
-0.107883707104
-0.108861981261
-0.109831956031
-0.110764578005
-0.11163572696
-0.11251982734
-0.113418974583
-0.114234600297
-0.114965572565
-0.115721861964
-0.116555001915
-0.117417323999
-0.118289652273
-0.119157142351
-0.120006293859
-0.12084236447
-0.121673316623
-0.122494729918
-0.12332906552
-0.12406728586
-0.124704178622
-0.125244212917
-0.125719168029
-0.126239097523
-0.126751090781
-0.127112020206
-0.127365408389
-0.127563502667
-0.127726189943
-0.127870894021
-0.127992840792
-0.128109677015
-0.128295415329
-0.128584012422
-0.128955387725
-0.129330872476
-0.129649941078
-0.129905298071
-0.130110893902
-0.13028361258
-0.130434690273
-0.130562532856
-0.130671548573
-0.130762439534
-0.130835319203
-0.130882128042
-0.130911746586
-0.130923916833
-0.0939320171169
-0.0939401438962
-0.0939587493408
-0.0939984043002
-0.0940607585117
-0.0941370442425
-0.0942230147225
-0.0943193610815
-0.0944327039204
-0.0945691359534
-0.0947400701239
-0.0949544475253
-0.0952072541733
-0.0954965196628
-0.0958250800178
-0.0961968812344
-0.0966244199664
-0.0971056504576
-0.0976406940296
-0.0982080905533
-0.0987553242518
-0.0992880513496
-0.0998361046312
-0.100418151814
-0.101066807068
-0.101783096119
-0.102532396237
-0.103314636149
-0.104136234016
-0.105002001625
-0.105912458012
-0.106879332811
-0.107878608271
-0.108857024875
-0.109835287981
-0.110771554483
-0.111640345388
-0.112531621389
-0.113436725885
-0.114235663927
-0.114899671284
-0.115611700214
-0.116513619878
-0.117411696996
-0.11830359345
-0.119191782382
-0.12006043974
-0.120914238052
-0.121745427605
-0.122531543676
-0.123288838673
-0.124031276777
-0.124785147638
-0.125339687846
-0.125834025574
-0.126424294733
-0.126856284792
-0.127149722291
-0.127387356239
-0.127578729133
-0.127721717499
-0.127861687591
-0.128006647904
-0.128124909443
-0.1283162025
-0.128608417837
-0.128986420486
-0.129362512794
-0.129679288047
-0.129933068961
-0.130137207165
-0.13030908484
-0.130460298551
-0.130588792096
-0.130695378139
-0.130782334652
-0.130849100781
-0.13089369138
-0.130921759422
-0.130931320867
-0.0938987584258
-0.0939127222111
-0.0939276325978
-0.0939637723334
-0.0940248193823
-0.0941123586297
-0.0942097124319
-0.0943035324578
-0.094408846962
-0.0945409014527
-0.0947088269705
-0.0949189876113
-0.0951710612887
-0.0954622088408
-0.0957912257569
-0.0961451459197
-0.096562022191
-0.097085676241
-0.0976423423504
-0.0982043757228
-0.0987314685517
-0.0992262828379
-0.0997575249654
-0.100356774018
-0.10100546856
-0.101709322075
-0.102463946185
-0.103257159266
-0.104086315369
-0.104959260957
-0.105872521989
-0.106839844413
-0.107862188612
-0.108832687697
-0.109790822052
-0.110768729061
-0.111633848606
-0.112495687269
-0.113405186766
-0.114220967451
-0.114940875169
-0.115683721344
-0.116519556268
-0.117397603159
-0.118288897561
-0.119180056587
-0.120059797172
-0.120922229368
-0.12176019184
-0.122565630296
-0.123336402981
-0.124060562392
-0.124717487147
-0.12531724245
-0.12594546402
-0.126513597921
-0.126901534804
-0.127190133591
-0.12742518893
-0.127616598425
-0.127774529281
-0.127918570092
-0.128037631057
-0.128158928464
-0.12837255713
-0.128680805697
-0.12905094403
-0.129418110654
-0.129735725997
-0.12999125752
-0.130196321158
-0.130367174005
-0.130511846025
-0.130632388097
-0.130733827191
-0.130815484363
-0.130875403216
-0.130915741164
-0.130940741659
-0.130949582881
-0.0938557523121
-0.0938690436781
-0.0938782781131
-0.0939116728712
-0.0939651369227
-0.0940514145493
-0.0941830466765
-0.0942756230497
-0.0943729824466
-0.094497515577
-0.0946614331397
-0.0948689171742
-0.0951204878645
-0.0954066856618
-0.0957373279903
-0.0961295842229
-0.0965822186623
-0.0970947154499
-0.097621696677
-0.0981208188622
-0.0986097787667
-0.0991175600019
-0.0996566502353
-0.100247511665
-0.100897143688
-0.101607107814
-0.102372386056
-0.103176920025
-0.104019451761
-0.104898823061
-0.105827940231
-0.106804813948
-0.10782565292
-0.108854082796
-0.109789550386
-0.110717100134
-0.111644865854
-0.112491319131
-0.113301889616
-0.114094914585
-0.114867346384
-0.11565663378
-0.116496788196
-0.117373233067
-0.1182671671
-0.119164490543
-0.120053345452
-0.120925044561
-0.121772010813
-0.122587331738
-0.12336567643
-0.124099631785
-0.124786194231
-0.125431619223
-0.126041597947
-0.12656359521
-0.126957560324
-0.127254477269
-0.127490102042
-0.127684920268
-0.127850438974
-0.127995165855
-0.128121919145
-0.128270756763
-0.128482987022
-0.128779662798
-0.129147403674
-0.129514399611
-0.129832587987
-0.130087894602
-0.130287700369
-0.130446696407
-0.130578824214
-0.130695299872
-0.130794488408
-0.13086835979
-0.130918545113
-0.130955537464
-0.130980594463
-0.130991249789
-0.0937900286886
-0.0937890857369
-0.0938011010414
-0.0938352580956
-0.093893533953
-0.0939716427827
-0.0940868318408
-0.0941948834138
-0.0943020621682
-0.0944308729807
-0.0945925641553
-0.0947985286405
-0.0950524606661
-0.0953682348212
-0.0957408133466
-0.0961439073957
-0.0965788040999
-0.097037534994
-0.097503002104
-0.0979807090222
-0.098474813397
-0.0989806339691
-0.0995179085773
-0.100109901088
-0.100761891379
-0.101480167951
-0.102253050703
-0.103073436408
-0.103929173146
-0.104829315179
-0.105768874236
-0.106775684
-0.107852604155
-0.10883502723
-0.109778045649
-0.110688384847
-0.111535075855
-0.11235781997
-0.113166118742
-0.113970768997
-0.114774354512
-0.11559227776
-0.116442946927
-0.117324522162
-0.118225482189
-0.119132624104
-0.120033189322
-0.120917130619
-0.121776758786
-0.122606263377
-0.123400757954
-0.124155329226
-0.124867678977
-0.125536032
-0.126146345545
-0.126661414069
-0.127060298397
-0.12736364576
-0.127604329302
-0.127803057246
-0.127972395205
-0.128120146807
-0.128260937313
-0.128442322104
-0.128637871143
-0.12892636095
-0.129288808974
-0.129652889027
-0.12996945047
-0.130219399294
-0.130405838275
-0.130549761054
-0.130677465017
-0.130794218203
-0.13088541141
-0.130948237093
-0.130992590896
-0.13103131225
-0.131054599973
-0.131062055575
-0.0936627683073
-0.0936590368534
-0.0936860314044
-0.0937186310633
-0.0937809170937
-0.0938670585481
-0.0939695461566
-0.0940828316044
-0.0942018160678
-0.0943382540488
-0.0944942970659
-0.094704896771
-0.0950006389699
-0.0953516572045
-0.0957257789568
-0.0961090112754
-0.0965028219568
-0.0969166652569
-0.0973635340629
-0.0978363727435
-0.0983127049784
-0.0988082690797
-0.0993460370567
-0.0999434704083
-0.100602390073
-0.10132020906
-0.102111803587
-0.10294458694
-0.10382396714
-0.104740049441
-0.105711966191
-0.106743347448
-0.107800709737
-0.108846224525
-0.109738866703
-0.110560375577
-0.111370076958
-0.112184680441
-0.113002579132
-0.113824584303
-0.114652335357
-0.115494766264
-0.116362048194
-0.11725563457
-0.118168435503
-0.119088684373
-0.120003743338
-0.12090291979
-0.121779417208
-0.12262914879
-0.123448362571
-0.124232310624
-0.124975191943
-0.125666379041
-0.126284684767
-0.126802692745
-0.127211063522
-0.127527941844
-0.127777142173
-0.127978332933
-0.128147300785
-0.128299490963
-0.128477208245
-0.128664349987
-0.1288385337
-0.129129523505
-0.129494693304
-0.129851503053
-0.130156501102
-0.130389172744
-0.130556827229
-0.13069380489
-0.130823949921
-0.130932758881
-0.131010235373
-0.131062395353
-0.131104981537
-0.13113969254
-0.131157080572
-0.131164543791
-0.0934664938447
-0.0934794655085
-0.0935329647632
-0.0935831794866
-0.0936311786243
-0.0937163233315
-0.0938292561844
-0.0939439643568
-0.0940727293219
-0.094216912413
-0.0943897739925
-0.0946093391334
-0.0949387014641
-0.0952934976695
-0.0956528271288
-0.0960002945229
-0.0963616169613
-0.0967682279487
-0.0972166401099
-0.0976597101407
-0.0981157928438
-0.0986097340413
-0.0991474590126
-0.0997427849774
-0.100404874748
-0.101152146405
-0.101938192431
-0.102795787894
-0.103697675423
-0.104657877163
-0.105662796007
-0.106692107904
-0.107760601289
-0.108746616894
-0.109597864488
-0.110373022469
-0.111165926679
-0.111984018938
-0.112815325843
-0.113653607298
-0.114501657384
-0.115366268967
-0.116252896777
-0.117163099995
-0.118091894225
-0.119028700174
-0.11996116502
-0.120879270712
-0.121777985539
-0.12265512388
-0.123507481397
-0.124328765225
-0.125108136954
-0.125827792504
-0.126463923326
-0.126996148832
-0.127421648807
-0.127754540982
-0.12801128295
-0.128207595416
-0.128367506902
-0.128533840021
-0.128726012193
-0.128899179621
-0.129118106294
-0.129404392402
-0.129771960629
-0.130112456983
-0.130392175641
-0.130600994495
-0.130757666524
-0.130897265488
-0.131021858033
-0.131113119311
-0.131174044253
-0.131216088894
-0.131253529275
-0.131277307148
-0.131285895488
-0.131290473165
-0.093238280777
-0.0932657575005
-0.0933328112764
-0.0934137736706
-0.0934673143966
-0.0935502459339
-0.0936608744734
-0.0937791915529
-0.0939214532699
-0.0940552324024
-0.0942545996509
-0.0945238037355
-0.094846060002
-0.0951926684491
-0.0955208997462
-0.0958322595389
-0.0961903619284
-0.0966097185837
-0.0970314067363
-0.0974477927638
-0.0978875914316
-0.0983802188746
-0.0989212846925
-0.0995267435081
-0.100200984656
-0.100952188701
-0.101769634744
-0.1026036189
-0.103563168443
-0.104596533992
-0.105593973398
-0.106585723992
-0.107655036922
-0.108568548256
-0.109361029834
-0.110138732762
-0.1109344005
-0.111757601734
-0.112600317463
-0.113453983211
-0.114320475459
-0.115206074807
-0.116114095732
-0.117044514807
-0.117992771465
-0.118949177215
-0.119902223509
-0.120843645878
-0.121770807408
-0.122683234557
-0.123577560036
-0.124444856655
-0.125268683294
-0.126025156656
-0.12668970497
-0.127247397356
-0.127697902122
-0.128048634045
-0.128304800342
-0.128474453537
-0.128609982511
-0.128768492495
-0.128961972435
-0.129183051215
-0.12945084651
-0.129738721529
-0.13011462125
-0.130436486629
-0.130688451886
-0.130878015895
-0.131030868892
-0.131167256077
-0.131271871429
-0.131339347141
-0.131380182265
-0.1314086764
-0.131428906607
-0.131436686297
-0.131431073201
-0.13142876542
-0.0929917464819
-0.0930292485098
-0.0930992736412
-0.0931614912008
-0.0932393707166
-0.0933548690357
-0.0934587605535
-0.0935796882415
-0.0937429911082
-0.0938947912878
-0.0940763029072
-0.094381126611
-0.0947139949184
-0.0950403024174
-0.0953401344
-0.095650128068
-0.0960011554989
-0.0964093007321
-0.0968073058695
-0.09720838593
-0.0976357042227
-0.0981160253834
-0.0986508300797
-0.0992572589927
-0.0999863111388
-0.100732710551
-0.101576976522
-0.102465800445
-0.10341997877
-0.104440659987
-0.105473365128
-0.106523892794
-0.107448254171
-0.108295344637
-0.109082912896
-0.109870199282
-0.110673827879
-0.111502019791
-0.112353404667
-0.113221481876
-0.114106525888
-0.115013044824
-0.115943515975
-0.116896844254
-0.117867542697
-0.118846121171
-0.119823017865
-0.120792863066
-0.121755459328
-0.122711603252
-0.123657388236
-0.124580592459
-0.125458580916
-0.126261655703
-0.126964842834
-0.127557068809
-0.128038030532
-0.128404914451
-0.128646158739
-0.128760436536
-0.128853385362
-0.129004355549
-0.129226919147
-0.129504416961
-0.129812604266
-0.130181440197
-0.130568433775
-0.130845725879
-0.13106615311
-0.131241132913
-0.131387669541
-0.13150474773
-0.131578405824
-0.131615663015
-0.131630002405
-0.131633187888
-0.131624554825
-0.131608248363
-0.131587408983
-0.131573819181
-0.0927246015107
-0.0927719003328
-0.0928524169961
-0.0929154390054
-0.092995736748
-0.0931173570945
-0.0932207563374
-0.0933414405981
-0.0934910258848
-0.0937016369502
-0.093900208249
-0.094201688437
-0.094536827735
-0.0948408007863
-0.0951135652335
-0.0954321459016
-0.0958023548897
-0.0961802104893
-0.0965506101154
-0.0969391444007
-0.0973650554097
-0.0978368049434
-0.0983656652333
-0.0989549223363
-0.0997157070467
-0.100511128294
-0.101297388244
-0.102252018933
-0.103220796907
-0.10427760278
-0.105308015973
-0.106329278053
-0.107207650476
-0.10798911494
-0.108772524858
-0.109570060167
-0.110381750887
-0.111214992303
-0.112072474664
-0.112952498162
-0.113855685182
-0.114784046553
-0.115738245593
-0.116716260644
-0.117711936826
-0.118715623533
-0.119719639127
-0.120722780646
-0.121728067718
-0.12273696351
-0.123744470121
-0.124734571434
-0.125677661347
-0.126537353865
-0.127287479392
-0.127919654031
-0.128430350631
-0.128799119098
-0.128988817134
-0.129018615855
-0.129072345183
-0.129245609278
-0.129519343798
-0.129857301305
-0.130240967765
-0.130663044548
-0.131049000908
-0.131355802467
-0.131546022821
-0.13170734107
-0.131834069355
-0.131915110092
-0.131948566162
-0.131947061091
-0.131924391018
-0.131887255943
-0.131840056013
-0.13179260188
-0.131751999666
-0.131728899126
-0.0924263215404
-0.0924750027274
-0.0925582901197
-0.092643927447
-0.0927527858387
-0.0928456279996
-0.0929457730363
-0.0930715801993
-0.093188678133
-0.0934202315125
-0.093668096198
-0.0939709809638
-0.0943064729864
-0.0946012019914
-0.0948681860534
-0.0951776011169
-0.0955541157617
-0.0959117934524
-0.0962614908613
-0.096632493102
-0.0970582101327
-0.0975333432657
-0.0980814838618
-0.0986618411446
-0.0993682501615
-0.10025580293
-0.101082629903
-0.10201824026
-0.102984227123
-0.103953070009
-0.105047725525
-0.106046481477
-0.106884243093
-0.107640939631
-0.108428688047
-0.109234861009
-0.110054542719
-0.110893765278
-0.111756225009
-0.112644674656
-0.113564138059
-0.114514940944
-0.115494097074
-0.116498386654
-0.117521043701
-0.118552499723
-0.119587500643
-0.120629180223
-0.121683921782
-0.122754253722
-0.123833798057
-0.124902460083
-0.125922357629
-0.126848882043
-0.12765162136
-0.128321099373
-0.128842459807
-0.129151652552
-0.129191936552
-0.129165806117
-0.129234888616
-0.129483691677
-0.129844812994
-0.130267860916
-0.130720721365
-0.131173560171
-0.131589664906
-0.131950094352
-0.132131113808
-0.132300308707
-0.132385144906
-0.132412860052
-0.132394335013
-0.132340059095
-0.13226546205
-0.132174314449
-0.132077116749
-0.131989568814
-0.131924189632
-0.131887714755
-0.0920904505067
-0.0921300042358
-0.092187060646
-0.0922990742561
-0.0924511099472
-0.0925328308921
-0.0926311325461
-0.0927698213499
-0.0928795917005
-0.0930915083382
-0.0933766953965
-0.0936881317139
-0.0940189875826
-0.0943103640019
-0.0946003765427
-0.0949106679618
-0.0952718588759
-0.0956085329852
-0.0959428522361
-0.0962973345477
-0.0967047791222
-0.0971642593907
-0.097754519549
-0.0983983885203
-0.0990581219665
-0.0999333368637
-0.100804628759
-0.10168268169
-0.102734490072
-0.103731453796
-0.104752899552
-0.105647983325
-0.106460555371
-0.107248296955
-0.108044958385
-0.108858811764
-0.109687261812
-0.110534501086
-0.111403569748
-0.11229672562
-0.11322673317
-0.114199209543
-0.115205930852
-0.116238144715
-0.11728917913
-0.118350991509
-0.119421063605
-0.120506592438
-0.121617153098
-0.122756674877
-0.123917925577
-0.125075323219
-0.126184542606
-0.127190928142
-0.128049874309
-0.128743980756
-0.129226876699
-0.129331766062
-0.12925592714
-0.12921317534
-0.129367815408
-0.129750928083
-0.130236143945
-0.13076868152
-0.131304421911
-0.131796161367
-0.132224542365
-0.132582039392
-0.132834307082
-0.133040251763
-0.13307257674
-0.133019962309
-0.132935520675
-0.132805762726
-0.132661852425
-0.132499034352
-0.132333901803
-0.132191788127
-0.132085427561
-0.132030259052
-0.091715946067
-0.0917444283396
-0.0917637335455
-0.0918922760908
-0.0920394453037
-0.0921460177487
-0.0922574894696
-0.0924110013996
-0.092543746619
-0.0927443353071
-0.0930430842303
-0.093356808178
-0.0936774300865
-0.0939511912825
-0.0942663794267
-0.0946096112627
-0.0949512508743
-0.095269671534
-0.0955920428959
-0.095937442478
-0.0963241056591
-0.0967519170838
-0.0973166750084
-0.0980744379937
-0.0987586045207
-0.0995387619292
-0.100483467662
-0.101379989198
-0.102346278552
-0.103367812831
-0.104357792937
-0.105224094559
-0.106002857227
-0.106808111472
-0.107617093549
-0.108439773099
-0.109274783256
-0.110126285664
-0.111005670578
-0.111909050997
-0.112845275611
-0.113831913703
-0.114865029768
-0.115928154616
-0.117009744425
-0.118104271961
-0.119213424981
-0.12034812268
-0.121520376511
-0.122735280901
-0.123984263935
-0.125237503921
-0.126451542845
-0.127558718423
-0.128476599975
-0.129179500158
-0.129557422322
-0.129429640296
-0.129275163114
-0.129254159942
-0.129552087131
-0.130101318813
-0.130741251487
-0.131417539943
-0.132059901977
-0.132585777741
-0.133012100114
-0.133347125438
-0.133751988424
-0.133984428044
-0.133906663082
-0.133753365587
-0.133592161668
-0.133350605607
-0.133125051593
-0.132865343967
-0.132600037647
-0.132380997709
-0.132215964317
-0.13212887108
-0.091306944976
-0.0913398071665
-0.0913834754058
-0.0914617139107
-0.0915847466181
-0.0917058397823
-0.091833164078
-0.0919921072312
-0.0921662511757
-0.0923635566894
-0.0926683156006
-0.0929813330458
-0.0932939146231
-0.0935565268793
-0.0938580723904
-0.0942339823223
-0.0945774317028
-0.0948903318641
-0.0952048615413
-0.0955441748551
-0.0959195339237
-0.0963237559408
-0.0968524812766
-0.0976481747771
-0.0984055875317
-0.0991497207342
-0.100107485042
-0.101038378812
-0.101947637987
-0.102955276184
-0.103850169715
-0.104680637186
-0.105491507364
-0.106316570051
-0.107139137051
-0.107969945926
-0.108817027819
-0.109674018502
-0.110551969312
-0.111466037285
-0.11241540438
-0.113413395703
-0.114466369462
-0.115558970095
-0.116673641965
-0.117804510707
-0.118956978942
-0.120145236227
-0.121381844651
-0.122676172039
-0.124014838489
-0.125364447805
-0.126701135026
-0.127942965225
-0.128928418608
-0.129641861277
-0.129755413168
-0.12946370239
-0.129277808235
-0.129324709905
-0.129822509955
-0.130582087494
-0.131407816645
-0.132283370055
-0.133055110466
-0.133533470235
-0.133899821765
-0.134196779001
-0.134485689732
-0.134730267237
-0.134896489532
-0.134562140965
-0.1343783675
-0.133947825443
-0.1336604983
-0.133277754784
-0.132852161589
-0.132536673829
-0.132280561642
-0.132150347506
-0.0908519404767
-0.0908877520745
-0.0909706177388
-0.0910054076182
-0.0910988848166
-0.091223262641
-0.0913627389642
-0.0915350071646
-0.0917613238167
-0.0919503375843
-0.0922527095753
-0.0925646508517
-0.0928727750766
-0.0931380606709
-0.093434254733
-0.0938167259486
-0.0941613287879
-0.0944737239317
-0.0947840234347
-0.095115947199
-0.0954828168052
-0.0958787447707
-0.0963642605244
-0.0971204521824
-0.0979913236748
-0.0987584746626
-0.0996346551633
-0.100665002179
-0.101616736803
-0.102476793895
-0.103310764573
-0.104119145629
-0.104941342613
-0.105775167825
-0.106609220145
-0.107450432784
-0.108300313447
-0.109167492643
-0.110049982245
-0.110962712028
-0.111922837592
-0.112935422638
-0.114005858732
-0.115123708636
-0.116271488793
-0.117443123909
-0.118639754737
-0.119881378865
-0.121188207088
-0.122561170451
-0.12397700659
-0.125411710114
-0.126887372024
-0.128310388407
-0.12937484953
-0.129927427047
-0.129791673278
-0.129424768656
-0.129287645885
-0.129485430069
-0.130297658859
-0.131357695587
-0.13217178424
-0.132970279041
-0.133410747175
-0.133716447923
-0.13399302988
-0.134240896451
-0.134476635227
-0.13468354881
-0.134887534542
-0.135349429359
-0.135751045691
-0.134562853371
-0.134277895644
-0.133736822373
-0.133032787417
-0.132633980208
-0.132227557214
-0.132036481772
-0.090341396384
-0.0903718302102
-0.0904388515062
-0.09048237967
-0.0905622288102
-0.0906929862459
-0.0908358600098
-0.0910005734291
-0.0912762108661
-0.0914942475376
-0.0917909051239
-0.0921046367064
-0.0924133488504
-0.0926925257358
-0.0929912750033
-0.0933689292915
-0.0937111720182
-0.0940253935538
-0.0943335521485
-0.0946590587413
-0.0950148410428
-0.0954049739061
-0.0958670171412
-0.0965712013422
-0.097491323415
-0.0983254726955
-0.0991290985493
-0.100097278536
-0.101098031649
-0.101948828317
-0.102743595334
-0.103529889813
-0.104353392788
-0.105193880452
-0.106035215464
-0.106877494993
-0.107732252759
-0.108597255958
-0.109486142051
-0.11039969608
-0.111362319985
-0.112388100972
-0.113477154449
-0.11461311196
-0.1157813421
-0.116989444023
-0.118243876727
-0.119554967372
-0.120924084706
-0.1223367247
-0.123800176278
-0.125316776726
-0.126884056117
-0.128671041552
-0.129668322208
-0.12991338141
-0.129675240523
-0.129396337623
-0.129450505135
-0.130003799705
-0.13104709574
-0.131554610293
-0.131964300233
-0.132577811584
-0.133002657131
-0.133220079704
-0.133323862638
-0.133388400449
-0.133479513559
-0.13362751404
-0.133739360457
-0.13353260905
-0.133322560925
-0.134106023243
-0.135590088946
-0.134909353131
-0.133053227995
-0.132676240345
-0.131947261389
-0.131699084911
-0.0897875699656
-0.0898126592251
-0.0898764308703
-0.0899161522346
-0.0899918956452
-0.0901228751683
-0.0902657059955
-0.0904102436854
-0.090680721881
-0.090957390025
-0.091270712235
-0.0915929602353
-0.0919078879901
-0.092217191086
-0.0925186198373
-0.0928888079008
-0.0932281604085
-0.0935474132513
-0.0938550810636
-0.0941755985558
-0.094521167384
-0.0948987569731
-0.0953420125162
-0.0959914570138
-0.0968833560953
-0.0978335366077
-0.0986424279922
-0.0995245777242
-0.100466620341
-0.101289500131
-0.102058551509
-0.102867242222
-0.103703177922
-0.10455070337
-0.105404566716
-0.106254961065
-0.107105076669
-0.107969739805
-0.108854442411
-0.109769169663
-0.110731450352
-0.11175397901
-0.11285283666
-0.114012525484
-0.115206895446
-0.116456037773
-0.117766766825
-0.119136796045
-0.120537313151
-0.12196593158
-0.123439648071
-0.124979108352
-0.126593678138
-0.12830306506
-0.129902099122
-0.129923885667
-0.129642053348
-0.129523095896
-0.129839233016
-0.130146027209
-0.130508591396
-0.131043068538
-0.13137103199
-0.131599762311
-0.131530002379
-0.13117398976
-0.130593001171
-0.129898121618
-0.129205885329
-0.128613772057
-0.128155086147
-0.127812283837
-0.127783537028
-0.128109660643
-0.128592535486
-0.129051885238
-0.131190469317
-0.133457945877
-0.13131863705
-0.131051155331
-0.0891991528726
-0.0892173668814
-0.0892603931328
-0.0893009928515
-0.0893928876846
-0.0895203304869
-0.0896684996376
-0.0898024628117
-0.090060667152
-0.0903686644982
-0.0906948935947
-0.091022470582
-0.0913356254259
-0.0916828239915
-0.0920033703822
-0.0923648764076
-0.0927033796354
-0.0930354454139
-0.0933451640145
-0.0936626649772
-0.0939999159416
-0.0943626065032
-0.0947863390753
-0.0953899178461
-0.0962449610459
-0.0972485709419
-0.0981327277655
-0.0989714273689
-0.099821054514
-0.100593996637
-0.101335750355
-0.102144874943
-0.102978383699
-0.103832141294
-0.104696030424
-0.105556730199
-0.106414980117
-0.10727568838
-0.108156876756
-0.109062452861
-0.110011703441
-0.11103605447
-0.112134920729
-0.113296224277
-0.114463592841
-0.115703989728
-0.117102131078
-0.118579105151
-0.12001670736
-0.121426016734
-0.122881479708
-0.1243974387
-0.126008121616
-0.127761016511
-0.129847557296
-0.130090408658
-0.129889130767
-0.12979883623
-0.129834893658
-0.129682929609
-0.129770806826
-0.129893076212
-0.129643744348
-0.128933545581
-0.127736222061
-0.12617200224
-0.124377559605
-0.122505714486
-0.120686277225
-0.119037650887
-0.117672132487
-0.116615848232
-0.115896423837
-0.115836497233
-0.116923606092
-0.119084243144
-0.121557129966
-0.123918370604
-0.129053784279
-0.129909255437
-0.0885852502372
-0.0885981783498
-0.0886185903974
-0.0886619683955
-0.0887688717879
-0.0888888139683
-0.0890380559729
-0.0891825740593
-0.0894162777711
-0.0897364974056
-0.0900677739076
-0.0903952629897
-0.0906984637068
-0.0910513720579
-0.0914180872776
-0.091782615813
-0.0921216570828
-0.0924675669525
-0.0927920903899
-0.0931125647089
-0.0934466520729
-0.0937911121112
-0.0941948685677
-0.0947552459885
-0.0955490709364
-0.0965069998487
-0.0974728068992
-0.0983166877185
-0.099116061106
-0.0998607558654
-0.100569383719
-0.101364462865
-0.102205259933
-0.103034846685
-0.103906948029
-0.104775036867
-0.105635700837
-0.106499795691
-0.107380107975
-0.108288670639
-0.109221106714
-0.110214042945
-0.11128435067
-0.112438347517
-0.113637545158
-0.114853089967
-0.116194172934
-0.117622970749
-0.11908518052
-0.120519299803
-0.121959240873
-0.123390931924
-0.124886425438
-0.126536689153
-0.128445677969
-0.130778325309
-0.130554354318
-0.130111389095
-0.129421683296
-0.128759682122
-0.128121307052
-0.127179617431
-0.125679593032
-0.123623680804
-0.121131809668
-0.118430572975
-0.115727355634
-0.113169863483
-0.110798977685
-0.108585231588
-0.106518170796
-0.104631079013
-0.102813567901
-0.101344128746
-0.100897928051
-0.10216272834
-0.105336594319
-0.10945076271
-0.114814710826
-0.13165211643
-0.0879464253603
-0.0879567639833
-0.0879693241016
-0.0880239972279
-0.0881285032426
-0.0882328937076
-0.0883643654234
-0.0885307401426
-0.0887387290598
-0.0890588562812
-0.0893913058367
-0.0897181777865
-0.0900173383193
-0.0903572325668
-0.0907598460859
-0.0911402351029
-0.0914859451021
-0.0918368991638
-0.0921787454066
-0.0925122074058
-0.0928541784807
-0.0931828162262
-0.0935634551352
-0.0940852686226
-0.094816320722
-0.0957136231086
-0.096673257853
-0.0975508016536
-0.0982793724067
-0.0989906246387
-0.099713139955
-0.100457317321
-0.101289645686
-0.102134100818
-0.103021041049
-0.103903456489
-0.104763825881
-0.105627132719
-0.106507649147
-0.107413114235
-0.108344006627
-0.109311237889
-0.110369111944
-0.111507575106
-0.112709937664
-0.113928096427
-0.115224075439
-0.116609645706
-0.118024538059
-0.119413282933
-0.120750274971
-0.121883641614
-0.122986386012
-0.124303442139
-0.125726371376
-0.128857856992
-0.131672808958
-0.130322359431
-0.128173033538
-0.126536381539
-0.124586225315
-0.122233151338
-0.119377481257
-0.116168154764
-0.112798136888
-0.109483108793
-0.106357958909
-0.103444185486
-0.100630439468
-0.0977314482082
-0.094627808609
-0.0913641787388
-0.0879709002531
-0.0845136909852
-0.0814388421281
-0.0795296898006
-0.0794247099344
-0.0792749967399
-0.0728750396254
-0.0577435894895
-0.0872722555791
-0.0872810331883
-0.087294845685
-0.0873703246078
-0.0874668864201
-0.087554318095
-0.0876589556123
-0.0878400382627
-0.0880175669823
-0.0883302028112
-0.0886641356894
-0.0889911465235
-0.0892916013581
-0.089628844323
-0.0900440759787
-0.0904404923667
-0.0907992053237
-0.0911571974106
-0.0915050236723
-0.0918513314263
-0.0922092385217
-0.0925312440876
-0.0928828403444
-0.0933695274117
-0.0940426907201
-0.0948757515179
-0.0958116861706
-0.0966939778716
-0.0974647217928
-0.098101891789
-0.0988070053328
-0.0995437538777
-0.10032382361
-0.101101018885
-0.101975098188
-0.102915779109
-0.103791923704
-0.104668519646
-0.105538937307
-0.106431807682
-0.10736239152
-0.108335582422
-0.109382103039
-0.110537545613
-0.111740215275
-0.112965522347
-0.114249150848
-0.115625979016
-0.117045075857
-0.118352153716
-0.119534094041
-0.120065978045
-0.120891023579
-0.122872212502
-0.124208117806
-0.126516972528
-0.128162047429
-0.126979858659
-0.124823898883
-0.122158735393
-0.118959913395
-0.115374136021
-0.111481962648
-0.107481291489
-0.103516349811
-0.0996756090736
-0.0959475565015
-0.0922340270398
-0.0883712217505
-0.0841808033271
-0.0795492730158
-0.0744956377252
-0.0690897518283
-0.0631766070559
-0.0568135406021
-0.0505410748153
-0.0440033054523
-0.0319824458102
-0.00384577946767
0.0317793324827
-0.0865406888017
-0.086546736104
-0.0865696646421
-0.0866730092182
-0.0867617647132
-0.0868360673855
-0.0869256017787
-0.0871018378183
-0.087249471525
-0.0875472807827
-0.0878827455521
-0.0882104161378
-0.0885130551456
-0.0888478477131
-0.0892657005956
-0.0896749540125
-0.0900558578478
-0.0904218317261
-0.0907693780491
-0.0911229715628
-0.0914967427668
-0.091823848151
-0.0921410783226
-0.0925930747516
-0.0932157500796
-0.0939794108676
-0.0948626473898
-0.0956838273196
-0.0965021559872
-0.0971623017374
-0.0978122377176
-0.0984925232134
-0.0992711242767
-0.100080694301
-0.100866428662
-0.101778469359
-0.102685707961
-0.10358005475
-0.104473865181
-0.105359851752
-0.106280905535
-0.107266016052
-0.108323774306
-0.109479584603
-0.110666256151
-0.111881647536
-0.113188514883
-0.11462419676
-0.116135432697
-0.117356560755
-0.119002512668
-0.120145757838
-0.120529443688
-0.120794856633
-0.121396109772
-0.122065853294
-0.122429458051
-0.121486714209
-0.119251034774
-0.115860514403
-0.111786424772
-0.107340186837
-0.102741478349
-0.0981720559121
-0.0937082258291
-0.0893492202438
-0.0850234823518
-0.0806164053573
-0.0759869045429
-0.0709744275003
-0.0653983773144
-0.0590929104597
-0.0519174058504
-0.0436888736714
-0.034285644714
-0.0238136528829
-0.01049706563
0.013796486714
0.0602568943356
0.111632297775
-0.0857218309099
-0.0857257994044
-0.0857561514674
-0.085885582722
-0.0859644243491
-0.0860421123675
-0.0861245457005
-0.0862800965208
-0.0864109595124
-0.0867038099878
-0.0870428730341
-0.087370948578
-0.0876758380044
-0.088006049376
-0.0884177071964
-0.088829069716
-0.0892396631896
-0.0896167374033
-0.0899640893972
-0.0903199764851
-0.090698869731
-0.0910454053113
-0.0913330512449
-0.091745497356
-0.0923253887359
-0.0930243898347
-0.0938410745119
-0.0945948479259
-0.0953434417804
-0.0960692725423
-0.0967495540133
-0.0973918305831
-0.0980607113557