/*--------------------------------*- C++ -*----------------------------------*\
| =========                 |                                                 |
| \\      /  F ield         | OpenFOAM: The Open Source CFD Toolbox           |
|  \\    /   O peration     | Version:  v1806                                 |
|   \\  /    A nd           | Web:      www.OpenFOAM.com                      |
|    \\/     M anipulation  |                                                 |
\*---------------------------------------------------------------------------*/
FoamFile
{
    version     2.0;
    format      ascii;
    class       surfaceScalarField;
    location    "75";
    object      phi;
}
// * * * * * * * * * * * * * * * * * * * * * * * * * * * * * * * * * * * * * //

dimensions      [0 3 -1 0 0 0 0];
oriented        oriented;


internalField   nonuniform List<scalar> 
12640
(
-2.03293458754e-07
2.07310688101e-07
-4.0240589782e-07
2.02791457684e-07
-5.90541235327e-07
1.91068428813e-07
-7.54982350078e-07
1.67001429792e-07
-8.6620236446e-07
1.13555374995e-07
-9.11771819222e-07
4.81012097552e-08
-9.24493188976e-07
1.51644496727e-08
-9.8850296563e-07
6.62310099342e-08
-1.11049893633e-06
1.24161178177e-07
-1.22141039488e-06
1.12858954013e-07
-1.32521617867e-06
1.0527736087e-07
-1.4581377545e-06
1.34244022665e-07
-1.57876174184e-06
1.21785865043e-07
-1.66599354485e-06
8.83057277609e-08
-1.73544653973e-06
7.05152860105e-08
-1.82934851196e-06
9.51520622029e-08
-1.93106914117e-06
1.02989811898e-07
-2.0033564857e-06
7.3619853504e-08
-2.03389900174e-06
3.1569758296e-08
-2.03458938388e-06
1.46899949672e-09
-2.06365697177e-06
2.96901561625e-08
-2.14310313175e-06
8.00613514151e-08
-2.24882128373e-06
1.06224437901e-07
-2.36991858314e-06
1.21568471074e-07
-2.48498107872e-06
1.15481905841e-07
-2.58583202592e-06
1.01302803428e-07
-2.69119947605e-06
1.0578903126e-07
-2.79005811466e-06
9.93410987074e-08
-2.86928475025e-06
7.96144524173e-08
-2.93105655381e-06
6.22092234589e-08
-3.00213494615e-06
7.1353375311e-08
-3.07253654018e-06
7.06934644076e-08
-3.11344880129e-06
4.14310499696e-08
-3.15651240414e-06
4.35783591563e-08
-3.18450604528e-06
2.82149435758e-08
-3.1953626022e-06
1.14815721077e-08
-3.21640607415e-06
2.15063816442e-08
-3.22606123807e-06
9.40484862494e-09
-3.22298472871e-06
-3.76307406031e-09
-3.28042661511e-06
5.65114543448e-08
-3.57254546056e-06
2.90982723008e-07
-3.92039651446e-06
3.4693346887e-07
-4.08247246954e-06
1.61593804792e-07
-4.15568268002e-06
7.26084431198e-08
-4.17981462549e-06
2.38027236388e-08
-4.14979279747e-06
-3.03677020284e-08
-4.06509784242e-06
-8.49323591317e-08
-3.93010019192e-06
-1.35578039672e-07
-3.79305378118e-06
-1.3751539727e-07
-3.77165865897e-06
-2.18970541973e-08
-3.99064183547e-06
2.17929170831e-07
-4.21917958536e-06
2.28210910421e-07
-4.01480235845e-06
-2.03830311628e-07
-3.62159549989e-06
-3.93042160756e-07
-3.12038752253e-06
-5.00792346576e-07
-2.41686732362e-06
-7.03566738749e-07
-1.87857886333e-06
-5.39160349133e-07
-1.6825592675e-06
-1.97341101753e-07
-1.54388533441e-06
-1.40081297434e-07
-1.41262017506e-06
-1.32978930536e-07
-1.40878746895e-06
-5.98708302818e-09
-1.36980236653e-06
-4.04334938693e-08
-1.07245101173e-06
-2.98499074013e-07
-8.45952588926e-07
-2.2700585059e-07
-6.60391284714e-07
-1.85910227409e-07
-5.06611843332e-07
-1.53980567968e-07
-3.56388279132e-07
-1.50421106817e-07
-1.96694355617e-07
-1.5985408114e-07
-2.76087670082e-08
-1.69222178854e-07
1.43895756888e-07
-1.71572875567e-07
2.99213974684e-07
-1.55373991891e-07
4.18203858468e-07
-1.19048195726e-07
4.8950939246e-07
-7.12909206992e-08
5.08135753138e-07
-1.85638175733e-08
4.88134253958e-07
2.01121279893e-08
4.39037081014e-07
4.91120882626e-08
3.87452556977e-07
5.15956791773e-08
2.93526850997e-07
9.39124571603e-08
1.8538018639e-07
1.08676334476e-07
1.85459951684e-07
-9.58254279698e-08
3.05448568568e-07
-2.22944625732e-07
3.32383755978e-07
-3.49820043626e-07
3.2001287868e-07
-4.92344752023e-07
3.11237012246e-07
-7.07158666965e-07
3.30457819049e-07
-8.98058508123e-07
2.41218888674e-07
-1.01191612471e-06
1.31453837101e-07
-1.1042933864e-06
1.61054304347e-07
-1.19833535771e-06
2.20497277253e-07
-1.31195184711e-06
2.28341152357e-07
-1.42535531467e-06
2.20353011318e-07
-1.50899796946e-06
2.19180962457e-07
-1.58599509802e-06
2.00058527953e-07
-1.66969584111e-06
1.73279241599e-07
-1.75480065093e-06
1.57118290719e-07
-1.85375970252e-06
1.95529482805e-07
-1.91960459305e-06
1.70290558546e-07
-1.89028656295e-06
4.52643325527e-08
-1.85341618843e-06
-4.53030039827e-09
-1.87108906023e-06
1.96950150671e-08
-1.94272250953e-06
1.01905117079e-07
-2.09824284149e-06
2.36006997122e-07
-2.26632630827e-06
2.74893376353e-07
-2.36866419735e-06
2.24301996759e-07
-2.46771593935e-06
2.15052274173e-07
-2.60524462358e-06
2.39188421108e-07
-2.7156944466e-06
2.16814127152e-07
-2.79496878893e-06
1.78982428476e-07
-2.86259861293e-06
1.47809744914e-07
-2.92028885934e-06
1.20212713469e-07
-2.95496642865e-06
1.06503983951e-07
-2.97684686165e-06
9.31340454967e-08
-2.97221933336e-06
3.73346384889e-08
-2.97387581146e-06
4.56397360488e-08
-3.03170504427e-06
8.68666791062e-08
-3.02633363326e-06
6.28511552723e-09
-3.01440364653e-06
9.55356824518e-09
-3.09171624682e-06
8.63552712051e-08
-3.20652851655e-06
1.10451719081e-07
-3.25306417176e-06
1.02199206021e-07
-2.87885885752e-06
-8.35950261076e-08
-2.37956157353e-06
-1.52579548492e-07
-2.24440859285e-06
2.62420230197e-08
-2.25694794904e-06
8.47372657991e-08
-2.32686670924e-06
9.33005857767e-08
-2.44897731687e-06
9.11707532464e-08
-2.5975094998e-06
6.30427712836e-08
-2.77309988874e-06
3.93056413032e-08
-2.92987180267e-06
1.85324664175e-08
-2.90988337573e-06
-4.25148302812e-08
-2.61877732143e-06
-7.33627783162e-08
-2.38793176201e-06
-3.00181449423e-09
-2.92185028148e-06
3.29536216594e-07
-3.44772195659e-06
1.32203503934e-07
-3.50819001144e-06
-4.41090722067e-07
-3.81186926541e-06
-4.01366630903e-07
-4.07448868009e-06
-2.78563511752e-07
-3.98569501805e-06
-2.88226388278e-07
-3.78081407179e-06
-3.47216756366e-07
-3.39149452981e-06
-5.24802021585e-07
-2.49867200569e-06
-9.00408024542e-07
-1.70350115825e-06
-8.36677034847e-07
-1.22172283899e-06
-7.81036095592e-07
-9.26886065207e-07
-5.22137952254e-07
-6.96999915628e-07
-4.15931109917e-07
-5.03371737345e-07
-3.47822755685e-07
-3.40202089093e-07
-3.13724156401e-07
-1.79515511366e-07
-3.20701385557e-07
-7.75700945125e-09
-3.410837788e-07
1.67454702128e-07
-3.46920687368e-07
3.22197989198e-07
-3.10230371208e-07
4.35480746479e-07
-2.32418852024e-07
5.12228142387e-07
-1.48067569133e-07
5.61457536719e-07
-6.77950214808e-08
5.69922133085e-07
1.16727557057e-08
5.45352428411e-07
7.37254679955e-08
4.76907169452e-07
1.20115916829e-07
3.77897564018e-07
1.93131473406e-07
2.09285966196e-07
2.77320230631e-07
3.95399283156e-07
-1.35211707914e-07
4.42633064608e-07
-1.83527088842e-07
3.82876152402e-07
-3.70795618941e-07
5.09444211696e-07
-6.15561994895e-07
5.58319121015e-07
-8.27179132008e-07
5.44287371625e-07
-9.1052062769e-07
3.2634809444e-07
-9.45820281542e-07
1.68616314013e-07
-1.04593802053e-06
2.63228211595e-07
-1.17013723732e-06
3.46668734919e-07
-1.29534574207e-06
3.55307430145e-07
-1.41121251024e-06
3.37671062672e-07
-1.50255106768e-06
3.1200300688e-07
-1.57967818486e-06
2.78758506762e-07
-1.65852767448e-06
2.53747688218e-07
-1.68764297882e-06
1.8782469698e-07
-1.54215106085e-06
5.13819795221e-08
-1.33622217423e-06
-3.49243022411e-08
-1.28190439778e-06
-8.51455386893e-09
-1.35559121116e-06
6.96033657834e-08
-1.60002440604e-06
2.6457612787e-07
-1.91840942825e-06
4.20816514345e-07
-2.10070046929e-06
4.18925370517e-07
-2.20551069356e-06
3.80202048735e-07
-2.36664436808e-06
3.85975364201e-07
-2.52048366469e-06
3.69346447316e-07
-2.61711531611e-06
3.36359482051e-07
-2.69083131036e-06
2.90967582829e-07
-2.75948665674e-06
2.48178115066e-07
-2.81021088701e-06
1.98959474351e-07
-2.8583573596e-06
1.6887754909e-07
-2.86873658462e-06
1.17519112779e-07
-2.85898975409e-06
8.38035086882e-08
-2.88119143445e-06
6.03456603077e-08
-2.78331222226e-06
-5.14862290813e-08
-2.70460548774e-06
8.2189750179e-09
-2.81114397093e-06
1.12802396372e-07
-2.80468758837e-06
2.77812245607e-09
-2.80979870302e-06
9.07955750832e-08
-3.100970336e-06
4.00834755192e-07
-3.4963069079e-06
4.97130777594e-07
-3.87777465055e-06
2.97652763788e-07
-4.13929230055e-06
1.08657573186e-07
-4.23367657989e-06
1.2006889298e-07
-4.29198134708e-06
1.42423803995e-07
-4.3426985589e-06
1.43203540108e-07
-4.38136594054e-06
1.28986895342e-07
-4.4200823164e-06
1.00751460014e-07
-4.45391281637e-06
7.21582718404e-08
-4.47925960591e-06
4.30084534237e-08
-4.52531310232e-06
3.03261904592e-09
-4.57314545487e-06
-2.61094618544e-08
-4.5273994272e-06
-4.95359971613e-08
-4.07650547094e-06
-1.22133166653e-07
-3.6211722991e-06
-3.24057071621e-07
-3.76915435483e-06
-2.94513484814e-07
-4.03761842491e-06
-1.34577574283e-07
-4.07448617236e-06
-2.43465757691e-07
-3.95016757655e-06
-4.1432066176e-07
-3.72915754096e-06
-5.70011525787e-07
-3.42256908596e-06
-8.32894689574e-07
-3.1401162406e-06
-1.18428494978e-06
-2.52335929203e-06
-1.45430827585e-06
-1.64183824885e-06
-1.66267476361e-06
-1.01415377241e-06
-1.15008984268e-06
-7.06286856798e-07
-7.23932070031e-07
-5.1970909215e-07
-5.34489778594e-07
-3.38304089829e-07
-4.95246354081e-07
-1.55669275404e-07
-5.03446582587e-07
2.50177947406e-08
-5.21917661099e-07
2.02606442847e-07
-5.24688808954e-07
3.67137169691e-07
-4.74932753965e-07
5.11322064382e-07
-3.76710858935e-07
6.18894122916e-07
-2.55687802914e-07
6.62398723552e-07
-1.11261743994e-07
6.47960754813e-07
2.62038643341e-08
5.95850784398e-07
1.25963401103e-07
5.17820740927e-07
1.98244381666e-07
4.16822079451e-07
2.94207122735e-07
1.94269538749e-07
5.00828986289e-07
5.89595878832e-07
-9.15993983701e-08
5.36206972117e-07
-1.00908906533e-07
3.93564066119e-07
-3.47646520337e-07
7.58473984693e-07
-5.27129061797e-07
7.40228492089e-07
-4.74863313034e-07
4.93619999781e-07
-3.51268799566e-07
2.03408686169e-07
-5.04326478902e-07
3.22551374984e-07
-8.35691257123e-07
5.96142179051e-07
-1.08682003395e-06
5.99516871882e-07
-1.25020578431e-06
5.20263888747e-07
-1.38854287617e-06
4.77648245516e-07
-1.49316143308e-06
4.1829120358e-07
-1.52696673006e-06
3.14220572918e-07
-1.41517769102e-06
1.43498577222e-07
-1.22654016369e-06
3.05595587614e-10
-1.14492562377e-06
-2.95653825758e-08
-1.1966110292e-06
1.724670022e-08
-1.37437342641e-06
1.69686745111e-07
-1.68976123721e-06
3.85495589569e-07
-1.93219610995e-06
5.07674288402e-07
-2.0321925532e-06
5.2149467793e-07
-2.1489821512e-06
5.36319904557e-07
-2.29641883555e-06
5.28253777565e-07
-2.40932420604e-06
4.99429815875e-07
-2.49922021518e-06
4.59849081271e-07
-2.57126089067e-06
4.08888865924e-07
-2.64562632363e-06
3.65921338841e-07
-2.70170141462e-06
3.04692979944e-07
-2.75792142104e-06
2.55723966953e-07
-2.77431577568e-06
1.85894615239e-07
-2.79920509155e-06
1.42952351183e-07
-2.7719118987e-06
5.74072978238e-08
-2.66006549956e-06
-5.09861068157e-08
-2.73137341043e-06
2.00522204033e-08
-2.74832873589e-06
2.52167287149e-08
-2.75738344207e-06
1.21385988328e-07
-3.1208119658e-06
3.65352699493e-07
-3.53961826423e-06
5.08717693381e-07
-3.71962055698e-06
5.80354893487e-07
-3.77716932299e-06
5.54301136088e-07
-3.89560497615e-06
4.15657638722e-07
-4.06918953089e-06
2.8163828958e-07
-4.18617241928e-06
2.36454794356e-07
-4.26533537218e-06
2.20877916632e-07
-4.32555983425e-06
2.02710142045e-07
-4.37414725443e-06
1.76724672808e-07
-4.41877374811e-06
1.44490093885e-07
-4.45851934177e-06
1.10935733842e-07
-4.49108416685e-06
7.47249904244e-08
-4.51793945663e-06
2.91689251344e-08
-4.51690851779e-06
-2.77114345853e-08
-4.45791871267e-06
-1.09123454406e-07
-4.35787193661e-06
-2.23032213968e-07
-4.34726344587e-06
-3.35840810909e-07
-4.31296780965e-06
-3.30046362732e-07
-4.15108791883e-06
-2.97765197772e-07
-3.97690996217e-06
-4.18988585658e-07
-3.76906838822e-06
-6.23409550265e-07
-3.49526534046e-06
-8.44956074984e-07
-3.19842502358e-06
-1.13095511872e-06
-2.8853689784e-06
-1.49812973545e-06
-2.44630865168e-06
-1.89393537858e-06
-1.90253231733e-06
-2.20724778381e-06
-1.20882866619e-06
-1.84377384203e-06
-8.10968281277e-07
-1.12178472691e-06
-5.44610574566e-07
-8.00892947777e-07
-3.25102653107e-07
-7.14808830012e-07
-1.18850342253e-07
-7.0982025453e-07
8.12773333324e-08
-7.22256738322e-07
2.85777824087e-07
-7.29429837908e-07
4.90011071312e-07
-6.79347940181e-07
6.4565814415e-07
-5.32437155015e-07
7.03369981898e-07
-3.13362509869e-07
6.96695079014e-07
-1.04496387218e-07
6.65224343481e-07
5.78173903035e-08
5.87566626318e-07
2.03802054209e-07
4.52399290886e-07
3.33660264026e-07
3.21467514456e-07
4.25549101495e-07
1.70878654882e-07
6.51254392868e-07
7.61021202257e-07
-1.23181213525e-09
5.38287265786e-07
-9.620319231e-08
4.89735667149e-07
-3.04519927505e-07
9.68760795427e-07
-3.84539503716e-07
8.21969862265e-07
-2.97642977165e-07
4.07694931155e-07
-3.6940186206e-07
2.75783756263e-07
-6.36257620366e-07
5.90478889879e-07
-8.71009929387e-07
8.32416465181e-07
-1.02976587433e-06
7.59833550161e-07
-1.18304858896e-06
6.75114381929e-07
-1.31858451127e-06
6.14901055425e-07
-1.31942038595e-06
4.20625310655e-07
-1.17966759859e-06
1.75724215411e-07
-1.0844233808e-06
4.9157493018e-08
-1.12194933615e-06
3.84604591952e-08
-1.25215836446e-06
1.01168702687e-07
-1.48576195794e-06
2.5141029759e-07
-1.75622855453e-06
4.40773777043e-07
-1.88278849973e-06
5.12788095445e-07
-1.91762703305e-06
5.43221664045e-07
-2.03153584945e-06
6.36110228559e-07
-2.17108107199e-06
6.76562347498e-07
-2.28815234016e-06
6.45985760139e-07
-2.37757075347e-06
5.89537132857e-07
-2.45433181465e-06
5.37202606107e-07
-2.53546364415e-06
4.90706240219e-07
-2.57773294231e-06
4.08638988977e-07
-2.63571751879e-06
3.63259265281e-07
-2.65410343748e-06
2.74782839019e-07
-2.68512755608e-06
2.17596525231e-07
-2.65932562866e-06
1.178897332e-07
-2.66232384948e-06
6.09131556338e-08
-2.79131819398e-06
7.8348767149e-08
-2.75229378881e-06
-1.90639802923e-08
-2.86062775249e-06
1.3300116034e-07
-3.1839778443e-06
4.43934109218e-07
-3.44871387526e-06
6.29332497015e-07
-3.63702673361e-06
6.96523307466e-07
-3.73767501206e-06
6.80613627875e-07
-3.80416483292e-06
6.20404282301e-07
-3.91026026608e-06
5.21236115065e-07
-4.04660999877e-06
4.17380396013e-07
-4.16135198581e-06
3.5049151685e-07
-4.24876896061e-06
3.0757932158e-07
-4.31781087153e-06
2.70979994628e-07
-4.375834531e-06
2.33944410099e-07
-4.42732274153e-06
1.95090127088e-07
-4.47197183191e-06
1.54684812662e-07
-4.50524294625e-06
1.07130984229e-07
-4.52021071796e-06
4.34304675209e-08
-4.50557380861e-06
-4.29851933182e-08
-4.45984445316e-06
-1.55531854804e-07
-4.40374464029e-06
-2.79920868817e-07
-4.36339901306e-06
-3.77080239553e-07
-4.281657001e-06
-4.12744878329e-07
-4.12489973071e-06
-4.55425979401e-07
-3.93478116471e-06
-6.09819952082e-07
-3.69639583077e-06
-8.62518399616e-07
-3.41469992139e-06
-1.12753300229e-06
-3.14247832747e-06
-1.40398240998e-06
-2.86559105539e-06
-1.7759607045e-06
-2.55742788874e-06
-2.20298707785e-06
-2.27107521521e-06
-2.49360350302e-06
-1.3881432758e-06
-2.72680522216e-06
-9.66714416439e-07
-1.54332016615e-06
-6.4226818575e-07
-1.12529769223e-06
-3.42801151121e-07
-1.01435883811e-06
-7.63579976521e-08
-9.76455003137e-07
1.65404297078e-07
-9.64244624892e-07
4.11141185123e-07
-9.75383515141e-07
6.35621846213e-07
-9.03943787111e-07
7.44664096018e-07
-6.41467431991e-07
7.67171551815e-07
-3.35790994368e-07
7.66842250059e-07
-1.04035127962e-07
7.22898773242e-07
1.01973503017e-07
6.11663132589e-07
3.15336248246e-07
4.83588382627e-07
4.61931403211e-07
3.39736937942e-07
5.69409038172e-07
1.61142714001e-07
8.30763401713e-07
9.22028768872e-07
3.23485650579e-09
5.35856292305e-07
-1.43961201903e-07
6.37925389734e-07
-2.36851678655e-07
1.06328683749e-06
-2.60224019522e-07
8.46574028699e-07
-2.24966488058e-07
3.73021720698e-07
-4.48383210925e-07
5.00020767641e-07
-7.49042144701e-07
8.92493474165e-07
-8.70562641224e-07
9.55381862393e-07
-9.80754004212e-07
8.71419235009e-07
-1.0595095822e-06
7.55587677712e-07
-1.0376743913e-06
5.94511732766e-07
-8.93838865448e-07
2.7777702237e-07
-8.618068523e-07
1.44353524882e-07
-9.43079462299e-07
1.30938633743e-07
-1.09726574708e-06
1.93130374824e-07
-1.36263989696e-06
3.67115273281e-07
-1.65406926271e-06
5.43521222441e-07
-1.75049145121e-06
5.3800157767e-07
-1.7609349385e-06
5.23978185084e-07
-1.90110574058e-06
6.84174017839e-07
-2.05333371919e-06
7.89138053202e-07
-2.155889563e-06
7.79890951254e-07
-2.24673572085e-06
7.37588919927e-07
-2.34312307118e-06
6.86600463804e-07
-2.4248429261e-06
6.19667395667e-07
-2.42486939906e-06
4.91287646328e-07
-2.48118139958e-06
4.65593385961e-07
-2.49632487877e-06
3.79060705389e-07
-2.52335546533e-06
3.02409844505e-07
-2.4765413318e-06
1.71419580531e-07
-2.45151951286e-06
9.34624001071e-08
-2.48626600117e-06
9.59478009983e-08
-2.49147094679e-06
8.34750267516e-08
-2.74673958411e-06
2.35746041023e-07
-3.09815425878e-06
4.83650869645e-07
-3.37021884061e-06
7.15342030756e-07
-3.54144478825e-06
8.00107552534e-07
-3.64594592969e-06
8.00739366746e-07
-3.72619009561e-06
7.60632525547e-07
-3.81035518774e-06
7.0423005155e-07
-3.91456042123e-06
6.24919347635e-07
-4.03355777162e-06
5.35696897532e-07
-4.14335240537e-06
4.59548411746e-07
-4.23513257935e-06
3.98588389564e-07
-4.31160514797e-06
3.4666704001e-07
-4.37740817811e-06
2.98916268984e-07
-4.43572777489e-06
2.52540871895e-07
-4.48423028445e-06
2.02291452601e-07
-4.51655717048e-06
1.38603049659e-07
-4.52609606683e-06
5.22012457918e-08
-4.50903073067e-06
-6.0727907054e-08
-4.47001849843e-06
-1.95229169597e-07
-4.41959199549e-06
-3.31103026616e-07
-4.35700425446e-06
-4.40434056893e-07
-4.25077135561e-06
-5.1963771719e-07
-4.0850290082e-06
-6.2162534193e-07
-3.89414641689e-06
-8.01083115432e-07
-3.72087518799e-06
-1.03617486202e-06
-3.55278589844e-06
-1.2961772667e-06
-3.37514435811e-06
-1.58256241754e-06
-3.14045899117e-06
-2.01167173709e-06
-2.75094081919e-06
-2.59308243728e-06
-2.40936208627e-06
-2.83580710725e-06
-1.70012169947e-06
-3.43657314806e-06
-1.07401461862e-06
-2.16915042243e-06
-7.23104245242e-07
-1.47613592625e-06
-3.60145749793e-07
-1.37734740121e-06
-1.72998766959e-08
-1.31946169883e-06
2.95475891425e-07
-1.27724328114e-06
5.85399175451e-07
-1.26547574879e-06
7.72343361553e-07
-1.09094584258e-06
8.37177622262e-07
-7.06247605346e-07
8.79244956874e-07
-3.77750223578e-07
8.85960447475e-07
-1.10580085959e-07
8.23708238226e-07
1.64482976578e-07
6.97919725361e-07
4.41354889877e-07
5.44972221499e-07
6.15124460526e-07
3.80770577186e-07
7.34123986068e-07
1.9445026923e-07
1.01679037428e-06
1.1170601928e-06
-4.86394889874e-08
5.85097144907e-07
-2.50228017805e-07
8.40570142768e-07
-3.21954247532e-07
1.13631208612e-06
-2.30681249683e-07
7.56330225415e-07
-2.86406232703e-07
4.29372777575e-07
-5.9375166795e-07
8.08477270768e-07
-7.68240682267e-07
1.06839688902e-06
-8.48702473939e-07
1.03714170737e-06
-8.81588029842e-07
9.05803274231e-07
-9.49103002993e-07
8.24386371857e-07
-8.59090205416e-07
5.05660519831e-07
-7.89042459895e-07
2.08321906094e-07
-8.55491673794e-07
2.11301362626e-07
-9.66129344185e-07
2.41996828227e-07
-1.19542467161e-06
4.2291609853e-07
-1.49536957329e-06
6.67814769404e-07
-1.58325410657e-06
6.32261155252e-07
-1.57215801742e-06
5.276406942e-07
-1.72937511411e-06
6.8197202938e-07
-1.91422777827e-06
8.69910990117e-07
-2.03490447292e-06
9.1068116499e-07
-2.12938520466e-06
8.75224462466e-07
-2.21619742231e-06
8.25141228828e-07
-2.26186822089e-06
7.33050757675e-07
-2.26798675781e-06
6.26504686169e-07
-2.29526848884e-06
5.19162934503e-07
-2.29233380178e-06
4.63271784845e-07
-2.32768951076e-06
4.14905770887e-07
-2.31439005618e-06
2.89731961396e-07
-2.26514278949e-06
1.22656265367e-07
-2.31892805393e-06
1.47545598574e-07
-2.40668947819e-06
1.83825141354e-07
-2.55547429441e-06
2.31942407102e-07
-2.85550742753e-06
5.35176813284e-07
-3.23540188631e-06
8.63028736669e-07
-3.43388215547e-06
9.13496753379e-07
-3.54115192804e-06
9.07191513399e-07
-3.62519072637e-06
8.84642203568e-07
-3.71371774847e-06
8.48958676861e-07
-3.80859067081e-06
7.98752177997e-07
-3.91320880167e-06
7.29010221655e-07
-4.02497945624e-06
6.46805392158e-07
-4.13119603002e-06
5.65016510473e-07
-4.22506842579e-06
4.91667437353e-07
-4.307079622e-06
4.27842872247e-07
-4.38004796402e-06
3.71004673015e-07
-4.44429854026e-06
3.15873400275e-07
-4.49525557872e-06
2.5232569207e-07
-4.52622584263e-06
1.68692158714e-07
-4.53266152297e-06
5.78243248227e-08
-4.51424251458e-06
-7.98834590555e-08
-4.47534871422e-06
-2.34825735847e-07
-4.41960078165e-06
-3.87534821452e-07
-4.34022547631e-06
-5.20441061125e-07
-4.21935356828e-06
-6.40948343603e-07
-4.05538949436e-06
-7.85769070057e-07
-3.88787853701e-06
-9.68608860215e-07
-3.78686163394e-06
-1.13751562116e-06
-3.82527884004e-06
-1.25875155082e-06
-3.95151047784e-06
-1.45767631684e-06
-4.05130439302e-06
-1.91305402222e-06
-4.0445964083e-06
-2.60103447069e-06
-3.46918861728e-06
-3.41212981756e-06
-2.59780367747e-06
-4.30767856578e-06
-1.27130694881e-06
-3.49543099036e-06
-7.95183130449e-07
-1.95206635233e-06
-3.56393313925e-07
-1.81611334848e-06
7.96734757949e-08
-1.75562771039e-06
4.68721018094e-07
-1.66644184175e-06
7.5489932809e-07
-1.55177286425e-06
8.93716786239e-07
-1.22975897564e-06
9.84469638657e-07
-7.96946892971e-07
1.05744424156e-06
-4.50612119203e-07
1.05836989939e-06
-1.11304025618e-07
9.70720198365e-07
2.52374658791e-07
8.37744716975e-07
5.74626381348e-07
6.50157494234e-07
8.02938409518e-07
4.40128053589e-07
9.44091972639e-07
2.41926671793e-07
1.21608081985e-06
1.35878089875e-06
-9.9655575746e-08
6.85606402167e-07
-3.03806381907e-07
1.04580711695e-06
-3.04638440689e-07
1.13819806226e-06
-1.54455221581e-07
6.06674439918e-07
-3.47177022348e-07
6.22841469953e-07
-6.34200900257e-07
1.09680365686e-06
-7.2641255627e-07
1.16188517925e-06
-8.13130918109e-07
1.12524798243e-06
-7.5167896452e-07
8.45472962761e-07
-7.46899188091e-07
8.20776195321e-07
-6.54033411912e-07
4.1335027058e-07
-7.58014027954e-07
3.12770221663e-07
-8.5003866441e-07
3.03703046235e-07
-1.02166238951e-06
4.14075745385e-07
-1.29454175747e-06
6.9655770748e-07
-1.42108893374e-06
7.95205765624e-07
-1.40357155173e-06
6.15485984959e-07
-1.54475497278e-06
6.69577809404e-07
-1.74965709084e-06
8.87767806925e-07
-1.88270135005e-06
1.00389893961e-06
-1.97778992333e-06
1.00671166731e-06
-2.06570342295e-06
9.6394245343e-07
-2.16754897967e-06
9.27830828423e-07
-2.2494616591e-06
8.15806274173e-07
-2.22420614317e-06
6.01825938307e-07
-2.26638667572e-06
5.62029802493e-07
-2.25886194047e-06
4.56279429174e-07
-2.19011508225e-06
3.46723666584e-07
-2.17352012012e-06
2.73488071439e-07
-2.36130619825e-06
3.10793902629e-07
-2.44891991914e-06
2.35398968761e-07
-2.42889761402e-06
1.63607527504e-07
-2.71614308257e-06
5.18819236382e-07
-3.11241002485e-06
9.31022954248e-07
-3.29512479101e-06
1.04551004157e-06
-3.41428917426e-06
1.03258482859e-06
-3.5085904129e-06
1.0014638265e-06
-3.60011365342e-06
9.76108687242e-07
-3.6990602217e-06
9.47741101773e-07
-3.80267214776e-06
9.02034752272e-07
-3.90896139613e-06
8.34784028953e-07
-4.01693772287e-06
7.54121306539e-07
-4.12173051358e-06
6.69051078658e-07
-4.21804560705e-06
5.87161965959e-07
-4.3050838173e-06
5.14003699342e-07
-4.38417510708e-06
4.49174942217e-07
-4.45308059417e-06
3.83820534611e-07
-4.50533036825e-06
3.03620532845e-07
-4.53477424846e-06
1.97207313845e-07
-4.5390331296e-06
6.12342715974e-08
-4.51911909218e-06
-1.00596505364e-07
-4.47779019054e-06
-2.76890338952e-07
-4.4150671617e-06
-4.5094718199e-07
-4.32420248297e-06
-6.11825501707e-07
-4.19753302715e-06
-7.67874087301e-07
-4.04582983349e-06
-9.37536798699e-07
-3.92047201634e-06
-1.09414725086e-06
-3.93514874148e-06
-1.12370929595e-06
-4.20916075869e-06
-9.86207213653e-07
-4.63795892825e-06
-1.03054525338e-06
-5.00440387407e-06
-1.54819478338e-06
-5.05689489213e-06
-2.54965537904e-06
-4.70771473682e-06
-3.76182327402e-06
-4.11715953787e-06
-4.89841283857e-06
-2.37440328632e-06
-5.23800082084e-06
-1.0159754848e-06
-3.31015136618e-06
-3.31312482748e-07
-2.50052825574e-06
2.08726939665e-07
-2.29549878119e-06
6.34744241633e-07
-2.09247551591e-06
9.02546871431e-07
-1.81956513033e-06
1.06156286186e-06
-1.38878930071e-06
1.21020886508e-06
-9.45547522716e-07
1.30022135927e-06
-5.40504733705e-07
1.28870445163e-06
-9.9620746191e-08
1.18391097224e-06
3.5741398249e-07
1.02576559849e-06
7.32992824685e-07
8.05141336282e-07
1.02380539428e-06
5.25081465147e-07
1.2248124153e-06
2.76088983688e-07
1.46464228764e-06
1.63558592649e-06
-1.425111841e-07
8.28920247726e-07
-3.09332586844e-07
1.21370870715e-06
-2.30483711913e-07
1.06015829063e-06
-2.18486938001e-07
5.95224508382e-07
-4.78601582864e-07
8.83863084527e-07
-5.91780425321e-07
1.21121310107e-06
-6.72325272757e-07
1.24371131918e-06
-7.37845740113e-07
1.19189368771e-06
-7.12818367099e-07
8.21390901873e-07
-7.05229816209e-07
8.14099242671e-07
-6.92180946256e-07
4.00732949041e-07
-7.74552396673e-07
3.95498143785e-07
-8.84981498702e-07
4.14558125997e-07
-1.10772897373e-06
6.37421582055e-07
-1.36275059908e-06
9.5240604377e-07
-1.37642595585e-06
8.09794860275e-07
-1.40298635032e-06
6.42782973797e-07
-1.56183353271e-06
8.2923989844e-07
-1.72882179326e-06
1.05569792758e-06
-1.836517719e-06
1.11258231151e-06
-1.91457962183e-06
1.08564867125e-06
-1.96103081036e-06
1.011264775e-06
-1.99477344335e-06
9.62531142175e-07
-2.02254135804e-06
8.44241625634e-07
-2.04254457874e-06
6.22563928911e-07
-2.07556038953e-06
5.95643081466e-07
-2.15431464969e-06
5.35477584808e-07
-2.25103690297e-06
4.43933750009e-07
-2.33685521443e-06
3.59740127517e-07
-2.37552756593e-06
3.49769564409e-07
-2.4774965098e-06
3.37276885902e-07
-2.75642262103e-06
4.42223185101e-07
-3.00409429375e-06
7.66081137188e-07
-3.17806177163e-06
1.10476020313e-06
-3.2844167113e-06
1.15188641036e-06
-3.37835754182e-06
1.12662988262e-06
-3.47536678326e-06
1.09855495406e-06
-3.5742566283e-06
1.07498078479e-06
-3.67848982369e-06
1.05180913197e-06
-3.7879177854e-06
1.01111865693e-06
-3.89893677395e-06
9.45298740346e-07
-4.00821734315e-06
8.62758711137e-07
-4.11389766225e-06
7.73989657296e-07
-4.21398827525e-06
6.86422511234e-07
-4.30649016462e-06
6.05603722496e-07
-4.38998436146e-06
5.31693229083e-07
-4.46133518604e-06
4.54158093182e-07
-4.51417192481e-06
3.55433180855e-07
-4.54280770186e-06
2.2487855056e-07
-4.54612894727e-06
6.36252911639e-08
-4.52607064385e-06
-1.21476229183e-07
-4.48432580381e-06
-3.19364318734e-07
-4.41900973459e-06
-5.16866106837e-07
-4.32444385669e-06
-7.06847498205e-07
-4.19814318072e-06
-8.94490592205e-07
-4.05244473698e-06
-1.08331876469e-06
-3.95879388381e-06
-1.18869828007e-06
-4.15450688557e-06
-9.29657742397e-07
-4.92122535111e-06
-2.21848010108e-07
-5.83488264174e-06
-1.19106043429e-07
-6.26380835751e-06
-1.12045105715e-06
-6.12837628388e-06
-2.6859570735e-06
-5.77774039489e-06
-4.11304151703e-06
-5.32682737396e-06
-5.34968442895e-06
-4.19924374649e-06
-6.36525017985e-06
-1.87782259509e-06
-5.63113479277e-06
-2.49556100838e-07
-4.12819237035e-06
3.89003557571e-07
-2.93377857249e-06
8.12111975476e-07
-2.51523535344e-06
1.09064624251e-06
-2.09799011408e-06
1.31677547622e-06
-1.61488227837e-06
1.51764015638e-06
-1.14638903964e-06
1.61079709928e-06
-6.33610780814e-07
1.57730298347e-06
-6.59654096551e-08
1.44985539177e-06
4.85063626253e-07
1.24842619211e-06
9.34693630737e-07
9.80275767242e-07
1.29223228057e-06
6.33953786652e-07
1.57101265223e-06
3.05461385182e-07
1.79444958607e-06
1.94078842499e-06
-1.84203242544e-07
1.0141444492e-06
-3.27191750202e-07
1.35780109859e-06
-2.10641018238e-07
9.44332361448e-07
-2.82588094547e-07
6.67802646817e-07
-5.23766562038e-07
1.12605671938e-06
-5.21536217554e-07
1.21004730125e-06
-6.02383781754e-07
1.32574890876e-06
-5.8062410048e-07
1.17104259425e-06
-6.33547448878e-07
8.75072330392e-07
-5.79415218539e-07
7.60487439937e-07
-6.66021110426e-07
4.87692473442e-07
-7.74222277103e-07
5.04085401209e-07
-9.03020518877e-07
5.43795979336e-07
-1.12212815092e-06
8.57282743396e-07
-1.24002475253e-06
1.07123942452e-06
-1.20294015666e-06
7.73386980279e-07
-1.33818113602e-06
7.78751422198e-07
-1.52294393397e-06
1.0148782595e-06
-1.66984276948e-06
1.20357678004e-06
-1.78629867648e-06
1.22996847396e-06
-1.86957281092e-06
1.16989530358e-06
-1.9460679057e-06
1.08880428719e-06
-1.95404596079e-06
9.71309086218e-07
-1.94738820328e-06
8.38390444956e-07
-2.0438429476e-06
7.19624968417e-07
-2.0366996229e-06
5.88956988854e-07
-1.97536814143e-06
4.74783789774e-07
-1.9695998874e-06
4.38613127685e-07
-2.09784607628e-06
4.88335409713e-07
-2.29425852704e-06
5.46295786237e-07
-2.46569575638e-06
5.08575058755e-07
-2.6646183986e-06
6.40780139934e-07
-3.00835063421e-06
1.10945090005e-06
-3.15561536825e-06
1.252059808e-06
-3.24640165959e-06
1.24286147029e-06
-3.34332052797e-06
1.22374076636e-06
-3.44598278049e-06
1.20133421581e-06
-3.54942257035e-06
1.17842554544e-06
-3.65524885944e-06
1.15748819469e-06
-3.7670798136e-06
1.12264834721e-06
-3.88237158939e-06
1.06012541663e-06
-3.9962139478e-06
9.76001422241e-07
-4.10601759886e-06
8.83074020922e-07
-4.21080781496e-06
7.90396912693e-07
-4.30935566967e-06
7.03233437915e-07
-4.39829349892e-06
6.19637910548e-07
-4.47129369962e-06
5.26122470263e-07
-4.52249465789e-06
4.05607737555e-07
-4.54958927553e-06
2.50985916036e-07
-4.55343166214e-06
6.65344924355e-08
-4.5366439143e-06
-1.3907326417e-07
-4.50132455002e-06
-3.55478332593e-07
-4.44392664186e-06
-5.74967589781e-07
-4.35732288797e-06
-7.93959578648e-07
-4.23954296672e-06
-1.01240509253e-06
-4.09708023703e-06
-1.22666467385e-06
-4.05278396075e-06
-1.2345841945e-06
-4.74609998661e-06
-2.39161897598e-07
-6.49111226233e-06
1.51953289899e-06
-7.77636578973e-06
1.16426571512e-06
-7.9309085366e-06
-9.66700768361e-07
-7.42902580775e-06
-3.18824018857e-06
-6.76084577881e-06
-4.781714178e-06
-6.1266021024e-06
-5.98441164421e-06
-5.65148361868e-06
-6.84040829178e-06
-3.92573196397e-06
-7.35633954718e-06
-1.19826667115e-06
-6.85494706868e-06
5.33213751511e-07
-4.66430892568e-06
9.90153838594e-07
-2.97170098205e-06
1.33702189808e-06
-2.44466025061e-06
1.65886510521e-06
-1.93663577684e-06
1.90321752104e-06