/*--------------------------------*- C++ -*----------------------------------*\
| =========                 |                                                 |
| \\      /  F ield         | OpenFOAM: The Open Source CFD Toolbox           |
|  \\    /   O peration     | Version:  v1806                                 |
|   \\  /    A nd           | Web:      www.OpenFOAM.com                      |
|    \\/     M anipulation  |                                                 |
\*---------------------------------------------------------------------------*/
FoamFile
{
    version     2.0;
    format      ascii;
    class       surfaceScalarField;
    location    "498";
    object      phia;
}
// * * * * * * * * * * * * * * * * * * * * * * * * * * * * * * * * * * * * * //

dimensions      [0 3 -1 0 0 0 0];
oriented        oriented;


internalField   nonuniform List<scalar> 
12640
(
1.5680501126e-07
-1.53769858923e-07
2.98816498655e-07
-1.39256106813e-07
4.23212132389e-07
-1.22191932955e-07
5.28449396781e-07
-1.03165545625e-07
6.05913976861e-07
-7.55901994075e-08
6.54241190699e-07
-4.70500302915e-08
6.88838955109e-07
-3.35809740029e-08
7.43512762394e-07
-5.37229742442e-08
8.20363028369e-07
-7.5853821676e-08
8.9396885052e-07
-7.26034845631e-08
9.62657967938e-07
-6.7630785542e-08
1.03587885385e-06
-7.21882624758e-08
1.10386543576e-06
-6.69489080635e-08
1.16232214214e-06
-5.74972105747e-08
1.21746097139e-06
-5.42889800921e-08
1.28092088087e-06
-6.28230339624e-08
1.34747113166e-06
-6.59424621913e-08
1.40614983017e-06
-5.81052991701e-08
1.45508881215e-06
-4.81664889567e-08
1.5019566124e-06
-4.59552748747e-08
1.5631318385e-06
-6.01378940565e-08
1.64002237814e-06
-7.58600858977e-08
1.72103776174e-06
-7.99724488351e-08
1.80012519677e-06
-7.81319440104e-08
1.87472380476e-06
-7.36680589454e-08
1.94488638913e-06
-6.93119841368e-08
2.01341304273e-06
-6.76777408711e-08
2.07898396831e-06
-6.48007538088e-08
2.14004933071e-06
-6.02912448515e-08
2.19765479996e-06
-5.69128302706e-08
2.25536457894e-06
-5.69993412415e-08
2.31178536681e-06
-5.57855004271e-08
2.36455593335e-06
-5.21545671364e-08
2.41913659644e-06
-5.39933075505e-08
2.47518665513e-06
-5.53995657409e-08
2.53141351321e-06
-5.56318137417e-08
2.59034199829e-06
-5.82836351891e-08
2.64815546072e-06
-5.71710196667e-08
2.70197832457e-06
-5.31379230268e-08
2.75462794745e-06
-5.20142091483e-08
2.81404317059e-06
-5.87775239343e-08
2.87132813261e-06
-5.67275105758e-08
2.91154570561e-06
-3.96580714208e-08
2.94036201237e-06
-2.82722072442e-08
2.9642296328e-06
-2.32736171093e-08
2.98234647608e-06
-1.7522715738e-08
2.99432982031e-06
-1.13253084407e-08
2.99824024555e-06
-3.2375346965e-09
2.99469619361e-06
4.28907997184e-09
2.99229299352e-06
3.17573419312e-09
3.001168067e-06
-7.99319484017e-09
3.00820826803e-06
-6.09460709292e-09
2.98192829916e-06
2.73516377204e-08
2.9349121821e-06
4.82479906025e-08
2.86848964623e-06
6.78143876276e-08
2.76894793364e-06
1.01092059387e-07
2.67769546672e-06
9.31222885865e-08
2.61444322378e-06
6.5561910111e-08
2.53827760107e-06
7.902867239e-08
2.45126637073e-06
9.05154926101e-08
2.40780733237e-06
4.79601956102e-08
2.3464868118e-06
6.71722167817e-08
2.1231762809e-06
2.3070746166e-07
1.8489271791e-06
2.79745624123e-07
1.65018609605e-06
2.01892297918e-07
1.52208256601e-06
1.30247531534e-07
1.40862057629e-06
1.15362146113e-07
1.29684374754e-06
1.13871265582e-07
1.18065773934e-06
1.18617593596e-07
1.05423017392e-06
1.29193461399e-07
9.23865883486e-07
1.33268408674e-07
7.97363740776e-07
1.29317552773e-07
6.76601820922e-07
1.23483886657e-07
5.48382865898e-07
1.30893239913e-07
4.36595374003e-07
1.14283206475e-07
3.37843446951e-07
1.01113209898e-07
2.66872116513e-07
7.34075059266e-08
1.86591460987e-07
8.28412714109e-08
1.14377788286e-07
7.59090969822e-08
1.17229439277e-07
8.16796789369e-08
-2.33265914346e-07
1.88460421459e-07
-2.43775572325e-07
2.91792717494e-07
-2.23521724057e-07
3.98874725746e-07
-2.08492395671e-07
5.35185624571e-07
-2.1050642047e-07
6.41270018142e-07
-1.5164744626e-07
7.05072750525e-07
-9.61751188758e-08
7.66410373377e-07
-1.13817581873e-07
8.33449078841e-07
-1.41766323018e-07
9.07253770448e-07
-1.45173100789e-07
9.79416563506e-07
-1.38724191257e-07
1.0414582094e-06
-1.33068549758e-07
1.09943110816e-06
-1.23990208779e-07
1.15711914533e-06
-1.14327781763e-07
1.21517266288e-06
-1.11769559755e-07
1.28134850156e-06
-1.28350225258e-07
1.34331683515e-06
-1.27418794775e-07
1.38171002733e-06
-9.57218061353e-08
1.41715958661e-06
-8.28207712605e-08
1.47044557867e-06
-9.81872489156e-08
1.54376798308e-06
-1.3240678391e-07
1.63434880944e-06
-1.65258712222e-07
1.72332561977e-06
-1.67966593784e-07
1.79825056857e-06
-1.52002344813e-07
1.8693103622e-06
-1.43862974156e-07
1.94369114387e-06
-1.42743803568e-07
2.01300926155e-06
-1.36220364488e-07
2.07650880541e-06
-1.27432896231e-07
2.13706003861e-06
-1.2014396674e-07
2.19544762825e-06
-1.14512891327e-07
2.2505877993e-06
-1.11523171517e-07
2.30322824533e-06
-1.07757687522e-07
2.3521727407e-06
-1.00531637758e-07
2.40448994825e-06
-1.05652338766e-07
2.46510987097e-06
-1.15486166366e-07
2.52237593818e-06
-1.12197293957e-07
2.57925828789e-06
-1.14552375629e-07
2.64335566871e-06
-1.20571197893e-07
2.71045103018e-06
-1.19624171096e-07
2.76798252643e-06
-1.08851946232e-07
2.78773942835e-06
-7.79867911611e-08
2.78542528355e-06
-5.3837718313e-08
2.80292722421e-06
-5.66754629899e-08
2.83612676244e-06
-6.08978346911e-08
2.87122287999e-06
-5.78396793719e-08
2.90592547535e-06
-5.16002451229e-08
2.93568586346e-06
-4.04854078152e-08
2.96040797387e-06
-2.72627124718e-08
2.97768230313e-06
-1.22858356725e-08
2.97397412974e-06
7.68473287944e-09
2.93796893482e-06
2.8828079646e-08
2.89706077403e-06
3.5738264532e-08
2.90779656632e-06
1.76573612853e-08
2.91502518982e-06
4.22531003358e-08
2.8761847728e-06
1.08028979775e-07
2.84732249693e-06
1.31579482801e-07
2.82013208941e-06
1.22296921609e-07
2.76998564022e-06
1.18148776049e-07
2.72319369869e-06
1.28861447435e-07
2.6666099426e-06
1.50929456635e-07
2.49668723493e-06
2.22544344373e-07
2.31508768509e-06
2.54613799378e-07
2.10325831005e-06
4.49509653619e-07
1.84646618585e-06
5.41558383389e-07
1.61535077584e-06
4.35996530026e-07
1.42497588103e-06
3.22650893151e-07
1.31524580724e-06
2.26967436936e-07
1.23845252834e-06
1.92725084704e-07
1.14476822735e-06
2.14707891373e-07
1.0254788741e-06
2.51161812406e-07
8.89276378248e-07
2.72238162378e-07
7.53046193648e-07
2.68205855073e-07
6.3908506611e-07
2.40070816839e-07
5.5226721781e-07
2.20432825273e-07
4.66399115499e-07
2.02871134409e-07
3.85660876994e-07
1.8460376493e-07
2.99440277431e-07
1.62540993333e-07
2.21279863741e-07
1.64263455445e-07
1.1679637002e-07
1.8445252563e-07
2.3709208369e-07
1.05351057613e-07
-3.37220556902e-07
1.57652158035e-07
-2.94136391808e-07
2.84278338841e-07
-3.4817923115e-07
4.3182812419e-07
-3.54396056372e-07
5.66244960174e-07
-3.43471255746e-07
6.35476971417e-07
-2.19659923861e-07
6.71639772977e-07
-1.30934479709e-07
7.38610817754e-07
-1.79156057053e-07
8.17263527647e-07
-2.18845688157e-07
8.95355424639e-07
-2.21877257137e-07
9.69285468877e-07
-2.11363123684e-07
1.03370268568e-06
-1.96509178806e-07
1.09164121429e-06
-1.81198781396e-07
1.150319611e-06
-1.72436546164e-07
1.19891303975e-06
-1.59831228423e-07
1.19684010923e-06
-1.25737253583e-07
1.16589100651e-06
-9.57617417363e-08
1.18046105004e-06
-1.09510591303e-07
1.25796554306e-06
-1.59352959867e-07
1.394914457e-06
-2.34053994589e-07
1.5385708553e-06
-2.74908886943e-07
1.63555807987e-06
-2.61171943683e-07
1.71053488517e-06
-2.41876537712e-07
1.791509836e-06
-2.3201274887e-07
1.87018683607e-06
-2.21579460945e-07
1.93938770108e-06
-2.11078109445e-07
2.00436920776e-06
-2.00325373284e-07
2.06759465422e-06
-1.89870480152e-07
2.12782049205e-06
-1.79575651032e-07
2.18625972664e-06
-1.72259832101e-07
2.23904948057e-06
-1.63632827421e-07
2.28957981179e-06
-1.57650091643e-07
2.34256997047e-06
-1.52921865928e-07
2.38389256569e-06
-1.46385202599e-07
2.43385819671e-06
-1.64758001996e-07
2.50673696502e-06
-1.84418188715e-07
2.56798695471e-06
-1.75102869965e-07
2.62532590196e-06
-1.77235467177e-07
2.69872009242e-06
-1.92327704274e-07
2.76822711283e-06
-1.77742992246e-07
2.82718548619e-06
-1.3633573708e-07
2.87655655535e-06
-1.02652591792e-07
2.91257218192e-06
-9.21142632334e-08
2.94077375419e-06
-8.85452979138e-08
2.96459914912e-06
-8.10689318332e-08
2.98301637255e-06
-6.94191714399e-08
2.99695003141e-06
-5.37647814163e-08
3.00585042425e-06
-3.54864340753e-08
3.00899160165e-06
-1.46843815326e-08
3.00838131542e-06
9.07306144556e-09
3.0062828404e-06
3.17896107288e-08
2.99589911312e-06
4.70701511765e-08
2.95329129942e-06
6.13386151492e-08
2.89803590662e-06
9.87122838953e-08
2.87028965949e-06
1.37168099618e-07
2.84884360511e-06
1.54683662693e-07
2.80613402297e-06
1.67020950379e-07
2.7456577648e-06
1.81081122528e-07
2.67536046882e-06
2.02184391866e-07
2.58725500482e-06
2.42765040646e-07
2.49443925894e-06
3.20003485767e-07
2.30167655296e-06
4.53080727053e-07
1.98599050667e-06
7.71021227351e-07
1.64281469433e-06
8.88941433989e-07
1.42962478632e-06
6.51868815491e-07
1.34981484001e-06
4.04472858546e-07
1.26143868662e-06
3.17193141086e-07
1.15468071658e-06
3.01436971338e-07
1.0419418593e-06
3.29619613875e-07
9.19429443736e-07
3.76074353478e-07
8.02934113523e-07
3.91249231211e-07
7.12398592302e-07
3.61357326094e-07
6.33600735582e-07
3.21592540548e-07
5.51871953631e-07
3.04904739562e-07
4.55500363312e-07
3.01973868372e-07
3.57199668324e-07
2.85739059684e-07
2.71953482831e-07
2.50625723652e-07
2.06448343015e-07
2.3270142809e-07
9.01780754812e-08
3.04958546388e-07
3.28666245564e-07
7.40910555504e-08
-4.09237481669e-07
9.7792910038e-08
-3.16493221932e-07
2.43750103172e-07
-4.92414149123e-07
3.61926500749e-07
-4.71146697661e-07
3.6606542302e-07
-3.46500429672e-07
3.17696472068e-07
-1.70597899846e-07
4.41177575926e-07
-2.53137012572e-07
6.41391719526e-07
-3.77395212194e-07
7.76317823374e-07
-3.51982967286e-07
8.70286514683e-07
-3.14311755536e-07
9.52808128135e-07
-2.92771261656e-07
1.02391428889e-06
-2.66835143726e-07
1.07568926826e-06
-2.32400607296e-07
1.07851842011e-06
-1.74825574509e-07
1.04345279338e-06
-1.24230762432e-07
1.03643724657e-06
-1.17952064949e-07
1.09479445379e-06
-1.53214628139e-07
1.21567665035e-06
-2.29338413565e-07
1.36691549092e-06
-3.09465285318e-07
1.48008977679e-06
-3.46099651801e-07
1.55245182354e-06
-3.46178948902e-07
1.62984989896e-06
-3.37469387923e-07
1.71172821218e-06
-3.2272116697e-07
1.78704484234e-06
-3.06326823855e-07
1.85766015784e-06
-2.91276155581e-07
1.92473331207e-06
-2.77246275765e-07
1.99076485102e-06
-2.6552554046e-07
2.05395424289e-06
-2.52221007211e-07
2.11522698609e-06
-2.40090682799e-07
2.17067610479e-06
-2.26987907821e-07
2.226332307e-06
-2.18624578322e-07
2.27235331352e-06
-2.03062345287e-07
2.31062965244e-06
-1.9054983542e-07
2.37561893835e-06
-2.10667996428e-07
2.43834134855e-06
-2.26784058202e-07
2.49891988154e-06
-2.44254385203e-07
2.58811349892e-06
-2.63562674724e-07
2.67189194663e-06
-2.60295313602e-07
2.72802817251e-06
-2.47805953613e-07
2.7744905351e-06
-2.23551575139e-07
2.82445355051e-06
-1.85680501371e-07
2.87334397242e-06
-1.50933741072e-07
2.91250549465e-06
-1.30701580436e-07
2.94247566177e-06
-1.1793085752e-07
2.9661260528e-06
-1.04136534968e-07
2.98428671007e-06
-8.69606799613e-08
2.99750109593e-06
-6.63364038146e-08
3.00559656065e-06
-4.28842848557e-08
3.00840767835e-06
-1.67570681506e-08
3.00652575176e-06
1.17596388936e-08
2.99876486449e-06
4.04095077899e-08
2.9792971958e-06
6.7485537755e-08
2.94384210269e-06
9.78449184885e-08
2.90627143664e-06
1.37484039451e-07
2.87044681842e-06
1.74387535334e-07
2.82523396799e-06
2.01551412799e-07
2.76598263402e-06
2.2828450397e-07
2.68870806716e-06
2.60804304791e-07
2.58699106291e-06
3.06873186341e-07
2.45136541844e-06
3.81972057013e-07
2.27030213331e-06
5.05328539758e-07
2.02811909573e-06
6.99973368669e-07
1.83229555773e-06
9.71442046304e-07
1.63151452929e-06
1.09352596624e-06
1.41541696197e-06
8.7074867134e-07
1.25399262679e-06
5.67902541721e-07
1.14277811335e-06
4.30173579079e-07
1.05106544288e-06
3.94941318045e-07
9.64903415979e-07
4.17753278876e-07
8.73733403854e-07
4.69486652435e-07
7.75014311826e-07
4.92498901682e-07
6.758171966e-07
4.6321241863e-07
5.7320185713e-07
4.26740729925e-07
4.70274487329e-07
4.10218787255e-07
3.7351364297e-07
4.01201226808e-07
2.7252657983e-07
3.89307440257e-07
1.82508920078e-07
3.43013424801e-07
1.23431555841e-07
2.9397285644e-07
6.37765290916e-08
3.6654204835e-07
3.94096176282e-07
1.26609176814e-08
-4.21259386394e-07
8.63983144661e-08
-3.8912402293e-07
2.03259630903e-07
-6.07968257286e-07
2.84160583031e-07
-5.51052940883e-07
2.63230297285e-07
-3.24721440214e-07
3.30005926436e-07
-2.36337552307e-07
4.93010944306e-07
-4.14471014116e-07
6.19861351233e-07
-5.02425193778e-07
7.2632480301e-07
-4.56698330551e-07
8.26452236301e-07
-4.13082283824e-07
9.2041551186e-07
-3.85844689451e-07
9.69812186489e-07
-3.15582062338e-07
9.5305230699e-07
-2.1518912845e-07
9.35466850187e-07
-1.56627520444e-07
9.77258387729e-07
-1.6512757642e-07
1.07336449643e-06
-2.12990250109e-07
1.20642956851e-06
-2.85100526103e-07
1.33078148161e-06
-3.52489605922e-07
1.40775077794e-06
-3.85301746638e-07
1.4655327934e-06
-4.0279024099e-07
1.53984169881e-06
-4.19395745223e-07
1.62070337314e-06
-4.17260776552e-07
1.69847585694e-06
-3.99456158439e-07
1.7711315176e-06
-3.7801497352e-07
1.84010955562e-06
-3.59319688878e-07
1.90833431729e-06
-3.44607122181e-07
1.97175723213e-06
-3.28068009204e-07
2.03583375344e-06
-3.15490739163e-07
2.09326256306e-06
-2.96775997056e-07
2.14944025523e-06
-2.82472236626e-07
2.19317959391e-06
-2.61704888616e-07
2.24668280995e-06
-2.55880734203e-07
2.3198435964e-06
-2.62999002815e-07
2.37604861425e-06
-2.66103871671e-07
2.44787698208e-06
-2.97800889739e-07
2.53754604892e-06
-3.3313222122e-07
2.61207324805e-06
-3.37336077297e-07
2.67528567945e-06
-3.22806003965e-07
2.72873314876e-06
-3.0057230692e-07
2.77698428883e-06
-2.71150039648e-07
2.82607310546e-06
-2.34128435386e-07
2.87368266319e-06
-1.9792978835e-07
2.91377253063e-06
-1.70187919715e-07
2.94501927797e-06
-1.48588238748e-07
2.96906456432e-06
-1.27580281323e-07
2.98708378725e-06
-1.04363316171e-07
2.99962716762e-06
-7.82239077605e-08
3.00664907826e-06
-4.92118255428e-08
3.00791379955e-06
-1.72729816473e-08
3.00302997054e-06
1.7437586417e-08
2.99024350114e-06
5.40532641921e-08
2.96627480097e-06
9.23738580656e-08
2.93084635918e-06
1.34301767544e-07
2.88979728015e-06
1.7970410176e-07
2.84288846433e-06
2.22653483093e-07
2.78286225111e-06
2.63233708749e-07
2.70301575786e-06
3.1011980171e-07
2.59477749988e-06
3.71453909785e-07
2.44893012108e-06
4.55584868867e-07
2.26184239647e-06
5.72417381598e-07
2.04295854205e-06
7.27966777781e-07
1.83091607996e-06
9.15966108342e-07
1.70541340917e-06
1.10069218685e-06
1.55767711514e-06
1.24482480366e-06
1.40690424148e-06
1.02431803264e-06
1.24320528819e-06
7.33612997899e-07
1.08805636583e-06
5.87011617663e-07
9.6539129945e-07
5.19248184771e-07
8.71657422647e-07
5.13272412082e-07
7.85893646085e-07
5.57383885693e-07
6.89577914948e-07
5.91258110309e-07
5.89614526255e-07
5.65550124091e-07
4.92594488533e-07
5.25885674268e-07
3.94823120205e-07
5.10111247193e-07
2.95803424964e-07
5.02507796163e-07
2.03744087847e-07
4.83679699282e-07
1.47110649889e-07
4.01444499202e-07
9.21342532545e-08
3.50453677121e-07
3.76705884671e-08
4.23680614415e-07
4.32466526788e-07
5.45492673218e-09
-4.25532321797e-07
1.06569052064e-07
-4.89287385633e-07
1.68332676556e-07
-6.68661440223e-07
2.04987936654e-07
-5.8662309388e-07
1.98174202476e-07
-3.17132023072e-07
3.60180589663e-07
-3.97077889302e-07
5.21157034132e-07
-5.73742026283e-07
5.9717456745e-07
-5.76692554881e-07
6.83581123835e-07
-5.41666526512e-07
7.66451931659e-07
-4.94903513484e-07
8.09493638876e-07
-4.28048530847e-07
7.74551590536e-07
-2.80175441177e-07
7.72964728807e-07
-2.12944491559e-07
8.39177944065e-07
-2.21915826145e-07
9.51410344793e-07
-2.76203017807e-07
1.10255591999e-06
-3.62815022463e-07
1.23919707399e-06
-4.20446879696e-07
1.31463442119e-06
-4.26790098849e-07
1.36910841665e-06
-4.38691890471e-07
1.44786780985e-06
-4.80456973027e-07
1.52953829796e-06
-4.99980166151e-07
1.6041101779e-06
-4.90771988161e-07
1.67762766397e-06
-4.71960772541e-07
1.75164154526e-06
-4.51044189564e-07
1.82171535253e-06
-4.28477638636e-07
1.87911768661e-06
-4.01116083798e-07
1.94475335227e-06
-3.92873485493e-07
2.00420069749e-06
-3.74153681259e-07
2.06326062979e-06
-3.55072234908e-07
2.10248458143e-06
-3.20986228028e-07
2.15022485501e-06
-3.08743346538e-07
2.20913776226e-06
-3.14061961482e-07
2.26990695155e-06
-3.22972412383e-07
2.37234933329e-06
-3.67685999313e-07
2.47528722321e-06
-3.99863951814e-07
2.55392553313e-06
-4.10951417958e-07
2.61842274084e-06
-4.01078167114e-07
2.67630614509e-06
-3.79979020926e-07
2.72944428352e-06
-3.53031807787e-07
2.77955639399e-06
-3.20594992694e-07
2.82876051837e-06
-2.82680281951e-07
2.875535405e-06
-2.44068774517e-07
2.91590446069e-06
-2.09944127442e-07
2.94810651664e-06
-1.80186427516e-07
2.97274126032e-06
-1.51609582678e-07
2.99073978432e-06
-1.21734629292e-07
3.00257392507e-06
-8.94023663225e-08
3.00812613895e-06
-5.40669916352e-08
3.00690380309e-06
-1.53138203941e-08
2.99808346037e-06
2.70409041664e-08
2.98012678896e-06
7.28249954614e-08
2.95136265889e-06
1.22028820188e-07
2.91194467189e-06
1.7469113808e-07
2.86324151244e-06
2.29511587659e-07
2.8021360701e-06
2.85118255229e-07
2.72103384717e-06
3.45906091182e-07
2.61193775762e-06
4.21186860696e-07
2.46745299745e-06
5.18260758528e-07
2.2849566481e-06
6.4079407922e-07
2.0740313289e-06
7.86396854333e-07
1.85704802108e-06
9.48271701066e-07
1.66402711949e-06
1.1123084326e-06
1.55108968076e-06
1.21697047494e-06
1.42562654993e-06
1.3735568629e-06
1.25673774195e-06
1.19569979906e-06
1.13200262974e-06
8.60207889916e-07
9.9716094577e-07
7.23481983291e-07
8.74068450192e-07
6.43912210484e-07
7.7853731357e-07
6.10529887305e-07
6.90739376203e-07
6.47211458205e-07
5.96847161471e-07
6.87318430563e-07
5.1262101492e-07
6.51729984626e-07
4.1988240231e-07
6.20483182232e-07
3.2206584266e-07
6.09886374327e-07
2.29394786921e-07
5.97264185589e-07
1.65555655597e-07
5.49423393095e-07
1.12693350429e-07
4.55980512362e-07
6.3650744255e-08
4.01359410738e-07
2.86768117056e-08
4.59857886361e-07
4.6250326029e-07
3.8949817552e-08
-4.64030192756e-07
1.5601097845e-07
-6.05447099964e-07
2.0774978252e-07
-7.19480346527e-07
1.75863217579e-07
-5.53804682025e-07
2.36296464532e-07
-3.76528397141e-07
4.15519854217e-07
-5.74783634519e-07
5.03887925835e-07
-6.6045697025e-07
5.67920517627e-07
-6.39340238688e-07
6.26303647935e-07
-5.98823305729e-07
7.08560018022e-07
-5.76252319889e-07
6.97013158664e-07
-4.1588181266e-07
6.82545283385e-07
-2.65029747378e-07
7.4516041015e-07
-2.74634559722e-07
8.36490484082e-07
-3.12044704988e-07
9.79321687713e-07
-4.17627979012e-07
1.12351737208e-06
-5.0565084887e-07
1.19967884008e-06
-4.95422551647e-07
1.25203090332e-06
-4.78029234898e-07
1.34023769908e-06
-5.25766195362e-07
1.43060820695e-06
-5.69706594988e-07
1.50775429736e-06
-5.76042539145e-07
1.58212526001e-06
-5.64104966386e-07
1.65662005756e-06
-5.45416597172e-07
1.72364889172e-06
-5.17108770349e-07
1.78292052985e-06
-4.86848817789e-07
1.84362705165e-06
-4.60934793982e-07
1.89790471787e-06
-4.46301269832e-07
1.95967154866e-06
-4.35103184045e-07
2.00742098212e-06
-4.0206933396e-07
2.04858605421e-06
-3.61403488617e-07
2.11444792612e-06
-3.73800351255e-07
2.18831842893e-06
-3.87122979475e-07
2.28401564973e-06
-4.1779094103e-07
2.38440184282e-06
-4.67147885628e-07
2.48337092336e-06
-4.97941102329e-07
2.55776266595e-06
-4.84515400225e-07
2.61921018981e-06
-4.61757283562e-07
2.67637517093e-06
-4.36421860371e-07
2.7308746615e-06
-4.06835986213e-07
2.78276653418e-06
-3.718106756e-07
2.83252638465e-06
-3.31779789225e-07
2.87901838172e-06
-2.89921534703e-07
2.91955798626e-06
-2.49861554277e-07
2.95245369073e-06
-2.12471475571e-07
2.97765411863e-06
-1.76194642191e-07
2.9956414778e-06
-1.39093845097e-07
3.00660492027e-06
-9.97118814231e-08
3.01020957612e-06
-5.69907880087e-08
3.00576767101e-06
-1.0162063571e-08
2.99233447713e-06
4.11975787123e-08
2.96871462803e-06
9.72182974941e-08
2.93375705003e-06
1.57776130407e-07
2.88682382044e-06
2.22512386815e-07
2.82627412822e-06
2.91148813594e-07
2.74670304482e-06
3.65881521104e-07
2.64029438775e-06
4.5390787265e-07
2.50043747535e-06
5.62883821376e-07
2.32679952798e-06
6.94106343885e-07
2.12989857624e-06
8.40211361395e-07
1.92978435068e-06
9.8933104145e-07
1.75365007494e-06
1.12742848552e-06
1.62671670602e-06
1.2423754253e-06
1.49500348936e-06
1.35185115159e-06
1.37846076236e-06
1.49311065266e-06
1.14468618638e-06
1.4320453394e-06
1.00599562344e-06
1.00071144959e-06
9.07820277414e-07
8.23216434642e-07
8.01456166497e-07
7.51855025696e-07
6.97501987204e-07
7.16159975282e-07
6.02111902564e-07
7.44442528134e-07
5.27089595996e-07
7.64138242736e-07
4.49574853054e-07
7.30903975067e-07
3.52340283455e-07
7.1940627444e-07
2.55881485758e-07
7.08164133287e-07
1.76175258425e-07
6.78822252174e-07
1.32136732717e-07
5.95235158278e-07
7.66968072387e-08
5.12966753528e-07
3.01908295186e-08
4.49114689022e-07
1.68911655091e-08
4.75687558425e-07
4.79907690808e-07
7.11942081114e-08
-5.33991578503e-07
1.71256053353e-07
-7.045800589e-07
1.9276175217e-07
-7.39916565645e-07
1.30033799661e-07
-4.90262059296e-07
2.62083131913e-07
-5.07467468344e-07
4.06543103903e-07
-7.17711111457e-07
4.71209313961e-07
-7.23802777356e-07
5.38784394006e-07
-7.05709074271e-07
5.5460540207e-07
-6.13759878093e-07
5.86069266482e-07
-6.0679585895e-07
5.63918350582e-07
-3.93049768698e-07
6.43862630169e-07
-3.44048067445e-07
7.23441547876e-07
-3.53051500709e-07
8.47708563281e-07
-4.34978284474e-07
9.93364196299e-07
-5.61820231532e-07
1.07759551195e-06
-5.88538034677e-07
1.12587112471e-06
-5.42562388017e-07
1.21656064115e-06
-5.67577562178e-07
1.31858436692e-06
-6.26617914909e-07
1.40100370255e-06
-6.50992264586e-07
1.47480691808e-06
-6.48762494865e-07
1.54780677507e-06
-6.3601417554e-07
1.62575066333e-06
-6.2235449255e-07
1.7005840451e-06
-5.91022643196e-07
1.75283315423e-06
-5.3814473023e-07
1.81944423516e-06
-5.26673632382e-07
1.87246423292e-06
-4.98457290435e-07
1.91016146186e-06
-4.71971494067e-07
1.95586765827e-06
-4.46967783966e-07
2.05381149135e-06
-4.58489394326e-07
2.12824996381e-06
-4.47370374151e-07
2.18823762735e-06
-4.46175498594e-07
2.29130971396e-06
-5.19910356031e-07
2.40513324665e-06
-5.80007904867e-07
2.48512917406e-06
-5.77022556714e-07
2.55386675482e-06
-5.52405700596e-07
2.61701841754e-06
-5.24121818113e-07
2.67636058652e-06
-4.95023754445e-07
2.73289911972e-06
-4.62665632347e-07
2.7866557225e-06
-4.24879531046e-07
2.83738955577e-06
-3.81844760174e-07
2.88412992612e-06
-3.36013503632e-07
2.92504953816e-06
-2.90152574348e-07
2.95864140764e-06
-2.45445166397e-07
2.98440626712e-06
-2.01344507786e-07
3.00234158768e-06
-1.56405261944e-07
3.01223542968e-06
-1.08971286106e-07
3.01347563092e-06
-5.75856431777e-08
3.0052211331e-06
-1.26360112239e-09
2.98654680706e-06
6.05396344218e-08
2.95635737074e-06
1.28045356436e-07
2.91346766842e-06
2.01392678342e-07
2.85604185722e-06
2.80765006469e-07
2.78028314761e-06
3.67818001019e-07
2.67987271143e-06
4.67546496445e-07
2.54800818561e-06
5.87198737851e-07
2.38321523348e-06
7.29462818203e-07
2.19399758258e-06
8.85394050959e-07
1.99792205929e-06
1.03856789777e-06
1.81563011203e-06
1.17422967063e-06
1.66625489513e-06
1.27959824931e-06
1.5514173209e-06
1.36017557451e-06
1.46043459782e-06
1.44578366992e-06
1.41954526988e-06
1.53700023548e-06
1.22958782225e-06
1.62461494391e-06
9.30592970591e-07
1.3016085836e-06
7.89155831324e-07
9.66243591365e-07
6.8811167289e-07
8.54469556092e-07
5.95616368336e-07
8.10262971819e-07
5.27546153717e-07
8.14107767735e-07
4.73012029654e-07
8.20148913138e-07
3.89253652339e-07
8.16154391678e-07
2.88527348544e-07
8.21706552972e-07
1.94949203622e-07
8.03442175535e-07
1.29167968582e-07
7.46313174231e-07
7.96126314159e-08
6.46433980966e-07
3.04322809877e-08
5.63775376473e-07
-1.17439081531e-08
4.93246065376e-07
-1.05747067946e-08
4.75407038685e-07
4.70731683891e-07
9.10843926395e-08
-6.2456626931e-07
1.63359957321e-07
-7.75888159082e-07
1.50695296699e-07
-7.26459915059e-07
1.61571989686e-07
-5.00284635565e-07
3.0856557773e-07
-6.53292110379e-07
3.71347523283e-07
-7.79251246559e-07
4.30700633647e-07
-7.82112499835e-07
4.94042098098e-07
-7.68115755506e-07
5.13407384291e-07
-6.32196503247e-07
5.38262064924e-07
-6.30764196511e-07
5.58707770593e-07
-4.1258020511e-07
6.29534532226e-07
-4.13790303793e-07
7.20392428627e-07
-4.42608893254e-07
8.59216359748e-07
-5.72293876428e-07
9.81658292359e-07
-6.82845963576e-07
1.03438154077e-06
-6.40052466034e-07
1.09399833625e-06
-6.01008946279e-07
1.18920789388e-06
-6.61572123381e-07
1.28320120834e-06
-7.19411959039e-07
1.36521261962e-06
-7.31829462718e-07
1.44014675737e-06
-7.22513163645e-07
1.5070424993e-06
-7.01840128396e-07
1.57084747223e-06
-6.852119954e-07
1.63670110472e-06
-6.55921519953e-07
1.6936487635e-06
-5.942308458e-07
1.75008599685e-06
-5.82202893255e-07
1.81838215326e-06
-5.65855424286e-07
1.89235616534e-06
-5.45094842507e-07
1.9657284049e-06
-5.19490482807e-07
2.03053681125e-06
-5.22377310538e-07
2.10849996011e-06
-5.24333081768e-07
2.2291613849e-06
-5.65797693391e-07
2.32841631174e-06
-6.18110206733e-07
2.40666009701e-06
-6.57244486892e-07
2.47945370317e-06
-6.48886230039e-07
2.5486607456e-06
-6.20746837484e-07
2.61438031039e-06
-5.89030149772e-07
2.67642011785e-06
-5.56297875213e-07
2.73524673423e-06
-5.20763415325e-07
2.79104033317e-06
-4.79972429526e-07
2.84330536122e-06
-4.33434792766e-07
2.89098046174e-06
-3.83036894993e-07
2.93268585541e-06
-3.31224618843e-07
2.96717676122e-06
-2.79318652795e-07
2.99364797609e-06
-2.27206171119e-07
3.01155359146e-06
-1.73710763576e-07
3.0202524233e-06
-1.17078270087e-07
3.01885474565e-06
-5.56150079718e-08
3.00638422789e-06
1.17762712551e-08
2.98183668749e-06
8.55960734207e-08
2.94418801845e-06
1.66294919671e-07
2.89178075208e-06
2.54383006686e-07
2.82183002662e-06
3.51422638387e-07
2.72953458429e-06
4.61077589495e-07
2.60876120591e-06
5.89393615615e-07
2.45551020302e-06
7.41877395906e-07
2.27306743545e-06
9.13496708041e-07
2.07510296164e-06
1.0851062296e-06
1.88067026886e-06
1.23515205534e-06
1.70647273332e-06
1.35082011027e-06
1.56421704043e-06
1.42457276152e-06
1.45641367445e-06
1.47068275638e-06
1.38497918646e-06
1.52001045176e-06
1.35049891542e-06
1.57411965713e-06
1.32501131052e-06
1.65267165889e-06
1.02367883148e-06
1.6052024526e-06
6.83563875295e-07
1.30826655332e-06
5.82531900592e-07
9.57079908121e-07
5.20786321137e-07
8.7353543631e-07
4.78139434554e-07
8.58141569215e-07
4.25993815909e-07
8.73678073277e-07
3.35228475917e-07
9.08296070696e-07
2.30091273273e-07
9.28399113937e-07
1.34884953559e-07
9.00256622161e-07
6.4953891148e-08
8.17950332471e-07
2.06049551252e-09
7.10990638937e-07
-3.95457133339e-08
6.06991644738e-07
-6.39377907215e-08
5.18800114176e-07
-4.3696275833e-08
4.57701999263e-07
4.27332845562e-07
1.03136096333e-07
-7.26229805133e-07
1.67435536512e-07
-8.39029628635e-07
1.32272943464e-07
-6.90346520773e-07
1.90235166571e-07
-5.57405997846e-07
3.13238990668e-07
-7.75199895877e-07
3.35464322323e-07
-8.00555497007e-07
3.84378163282e-07
-8.29972524083e-07
4.1142405841e-07
-7.9434654585e-07
4.62198139872e-07
-6.82166876901e-07
4.56037927663e-07
-6.23612628072e-07
5.23269128943e-07
-4.78817207581e-07
6.08853606476e-07
-4.98160125751e-07
7.07415764205e-07
-5.3986709434e-07
8.3305277552e-07
-6.96474772101e-07
9.12712506679e-07
-7.61116927325e-07
9.50351257609e-07
-6.76504811028e-07
1.04123012339e-06
-6.90673364512e-07
1.14482749981e-06
-7.63908066722e-07
1.23545047108e-06
-8.08782101898e-07
1.32096301079e-06
-8.16115163218e-07
1.40278643265e-06
-8.03226858534e-07
1.47782512677e-06
-7.75836415535e-07
1.5324754323e-06
-7.3878510897e-07
1.58477962779e-06
-7.07297466915e-07
1.660854934e-06
-6.69411612242e-07
1.71425224647e-06
-6.34626367564e-07
1.75684501264e-06
-6.07604009659e-07
1.80499519205e-06
-5.92382717245e-07
1.89616021202e-06
-6.09704995393e-07
1.99987957316e-06
-6.25113228279e-07
2.10619974144e-06
-6.29572568414e-07
2.20667833519e-06
-6.65141334947e-07
2.3195959033e-06
-7.29890951797e-07
2.40210523725e-06
-7.38714906431e-07
2.47342611441e-06
-7.19243148583e-07
2.5435774587e-06
-6.8999395854e-07
2.61189251687e-06
-6.56495960454e-07
2.67681056506e-06
-6.20419535834e-07
2.73812663481e-06
-5.81326014998e-07
2.79610280749e-06
-5.37232518856e-07
2.85030540421e-06
-4.86950631658e-07
2.89959526006e-06
-4.31664887459e-07
2.94269080909e-06
-3.73684891954e-07
2.97847865437e-06
-3.14496122988e-07
3.00598044155e-06
-2.54126829813e-07
3.02415513891e-06
-1.91334524542e-07
3.03180608072e-06
-1.2421634726e-07
3.02773498112e-06
-5.10632519525e-08
3.01082665876e-06
2.90970051928e-08
2.98010376849e-06
1.16791648271e-07
2.93426396953e-06
2.12522591464e-07
2.87149400583e-06
3.1771758877e-07
2.78843225674e-06
4.35296456176e-07
2.6801878539e-06
5.70125850304e-07
2.54272305966e-06
7.28071135203e-07
2.37416366751e-06
9.11619723343e-07
2.17855129215e-06
1.11080434812e-06
1.96736671868e-06
1.29774336629e-06
1.76276175404e-06
1.4414028799e-06
1.58534223966e-06
1.53026165257e-06
1.44504056919e-06
1.56722205043e-06
1.33639943446e-06
1.58180817777e-06
1.25795989592e-06
1.60092912192e-06
1.2245274118e-06
1.61003720582e-06
1.26216345795e-06
1.61755494501e-06
1.21206433543e-06
1.65785733476e-06
8.45984658402e-07
1.67660269786e-06
4.91900099349e-07
1.31290845674e-06
4.47698736101e-07
9.19236405276e-07
4.37170697659e-07
8.70014780821e-07
3.88285673773e-07
9.23850951378e-07
2.9273501586e-07
1.00523400186e-06
1.7939948233e-07
1.04327000437e-06
7.1091598726e-08
1.01016679688e-06
-2.36370018651e-08
9.1431119569e-07
-9.97251204019e-08
7.88834805362e-07
-1.28310326729e-07
6.37186375562e-07
-1.20457423441e-07
5.12813828667e-07
-7.23198968206e-08
4.09977065498e-07
3.56325568191e-07
9.30930686567e-08
-8.18919549824e-07
1.45543165385e-07
-8.90843005557e-07
1.30847247878e-07
-6.75022761621e-07
2.24088422348e-07
-6.49847515113e-07
2.60657791345e-07