/*--------------------------------*- C++ -*----------------------------------*\
| =========                 |                                                 |
| \\      /  F ield         | OpenFOAM: The Open Source CFD Toolbox           |
|  \\    /   O peration     | Version:  v1806                                 |
|   \\  /    A nd           | Web:      www.OpenFOAM.com                      |
|    \\/     M anipulation  |                                                 |
\*---------------------------------------------------------------------------*/
FoamFile
{
    version     2.0;
    format      ascii;
    class       volScalarField;
    location    "140";
    object      p;
}
// * * * * * * * * * * * * * * * * * * * * * * * * * * * * * * * * * * * * * //

dimensions      [0 2 -2 0 0 0 0];


internalField   nonuniform List<scalar> 
6400
(
0.148724602362
0.148726573873
0.148732110872
0.148742558192
0.148757234569
0.148775839688
0.148798523711
0.148826438748
0.148859387154
0.148897013478
0.148944474772
0.149004391878
0.149073034736
0.149150616068
0.149239116932
0.149340630698
0.149455419572
0.149582619563
0.149721176382
0.149866859765
0.150013139491
0.150159264898
0.150310060002
0.150471644385
0.150648655056
0.150840983013
0.151045066482
0.151258631876
0.151481943947
0.151716282876
0.151962838315
0.152220512763
0.152483439571
0.152746026002
0.153007056617
0.153262286239
0.153509964457
0.153759777849
0.154011265158
0.154251338933
0.154481557589
0.154720056412
0.154976729039
0.155243114413
0.155511447689
0.155777567999
0.15603819583
0.156292254062
0.156539059045
0.15677826082
0.157010750055
0.157231597445
0.157435767149
0.157615038941
0.157771386078
0.157917497809
0.158049962786
0.158156080571
0.158233396808
0.158289722376
0.158328928824
0.158351639638
0.158360759315
0.158355459089
0.158330931131
0.1582731889
0.158177443605
0.15805971106
0.157940016634
0.157826108813
0.15771727406
0.157609424269
0.157499773903
0.157394591323
0.157293695561
0.157201093894
0.157119932949
0.157064664576
0.157028022294
0.157012415676
0.148721587557
0.148723627127
0.148728460983
0.148738683476
0.14875483699
0.148774957159
0.148798202877
0.148824617895
0.148855815178
0.148893569772
0.148940726614
0.148999256881
0.149068163297
0.149146890671
0.149235894831
0.149336115586
0.149450278659
0.149578279204
0.149718814477
0.149866279459
0.15001092732
0.15015463046
0.150304325001
0.150465029256
0.150642150972
0.150835469615
0.151039550381
0.15125356039
0.151477984457
0.151713254994
0.151959470882
0.15221733338
0.152481756893
0.152744408922
0.153006087334
0.153261733046
0.153508713234
0.153759023905
0.154011428452
0.154250176803
0.154473983379
0.154709672945
0.154973335424
0.155244052783
0.15551408744
0.155781973651
0.156043920344
0.156299519525
0.156547015125
0.156783508284
0.157010382445
0.15723149809
0.157447315168
0.157629045121
0.157786518196
0.157938291624
0.158067037523
0.158167312337
0.158244169781
0.158300525785
0.158338475379
0.158362826872
0.158373087872
0.158368389384
0.158344901865
0.158288557339
0.158191599284
0.158071336505
0.157948907823
0.157832004418
0.157720189419
0.15760894567
0.157494703002
0.157383519299
0.157279990612
0.157186718621
0.157108801514
0.157052911975
0.157016099928
0.157003492813
0.148713368604
0.148716859396
0.148720955687
0.14873028561
0.148746004556
0.148768986665
0.148795013933
0.14882074331
0.148849999455
0.148886699596
0.148933217977
0.148991055185
0.149060064302
0.149139487597
0.149228779444
0.149325648556
0.149438042236
0.149573727265
0.149718542101
0.149865095248
0.150005324615
0.150142044374
0.150289345855
0.150452901041
0.150630464462
0.150822613734
0.151028021221
0.151244186135
0.151470317004
0.151707076402
0.151954071412
0.152212762133
0.15248046287
0.152742153565
0.15300159698
0.153261348229
0.153507300736
0.15375403863
0.154006875368
0.154247721491
0.154479395212
0.154719685445
0.154977409476
0.155244529851
0.15551381929
0.155781673608
0.156045230592
0.156302801705
0.156552719167
0.15679350151
0.157024972308
0.157246387557
0.157453312262
0.157639223876
0.157810155442
0.15796323865
0.158088424434
0.158187973554
0.158265050736
0.158321950999
0.158361580481
0.15838701303
0.15839746376
0.158396174088
0.158375203194
0.158318132388
0.158221740831
0.158099456336
0.15797007648
0.157845108801
0.157724928172
0.157604920477
0.157484722513
0.157369153493
0.157260917815
0.157164884737
0.157087125538
0.157030179926
0.156993773308
0.156980175659
0.148702447104
0.148705858558
0.148708769875
0.148717308672
0.14873112432
0.14875399818
0.148788825379
0.148814401086
0.148841325154
0.148876145124
0.14892174041
0.148979203502
0.149048511176
0.149127481677
0.149217455017
0.149321722555
0.149441014197
0.149574619525
0.149712282354
0.149846015956
0.149979874546
0.150119785056
0.150269160823
0.150432259348
0.150610641336
0.150804347522
0.151011961153
0.151230572499
0.151459310803
0.151697835418
0.151947591661
0.152208008228
0.152476936242
0.152745498163
0.153000762089
0.153253960194
0.153506034895
0.153750102063
0.153993064194
0.154235052031
0.154475616736
0.154722204128
0.154980208751
0.155246472635
0.155515942737
0.155784874513
0.156050365883
0.156310345712
0.156563088227
0.156807148368
0.157041484319
0.157264554351
0.157473513854
0.157665445272
0.157840169075
0.157993172862
0.158119572399
0.158220368834
0.158298564152
0.158356891464
0.158398044268
0.158424116571
0.158437013812
0.158441639449
0.158425294853
0.15837136073
0.158272619497
0.158142920146
0.158001994484
0.157864301172
0.157733316798
0.157605359251
0.157477928235
0.157350301132
0.157229408969
0.157128597189
0.157050831394
0.156987272664
0.156942541139
0.156923872692
0.148685641116
0.148685714457
0.148689347498
0.148698112421
0.148713473595
0.148734891455
0.148765897073
0.14879504831
0.148824342441
0.148860111857
0.14890519394
0.148962587256
0.149032888924
0.149118416221
0.149217639751
0.14932432446
0.14943895164
0.149560365322
0.149685858846
0.149816016003
0.14995125168
0.150091658597
0.15024163346
0.150405765232
0.150585394995
0.150781106343
0.150990823829
0.151212665819
0.151444431926
0.151686752075
0.151938781577
0.152204548926
0.15248075534
0.152743708523
0.152998388729
0.153247996884
0.153490880218
0.153733587985
0.153977722863
0.154223047798
0.15446986704
0.154721788407
0.154981913323
0.155249028428
0.155519705443
0.155790508244
0.15605850633
0.156321434487
0.156577512075
0.156825264324
0.15706330944
0.157289915832
0.157502838867
0.157699743464
0.157878129489
0.158033392678
0.15816218058
0.158265550508
0.158346479087
0.15840774592
0.158451813278
0.15848086305
0.15849800847
0.158509193402
0.158494572953
0.158443696492
0.158345405564
0.158207858038
0.158051157466
0.157895652258
0.157750123048
0.157609269148
0.157463227584
0.157313560304
0.157179014817
0.157070298904
0.156980531779
0.15689702642
0.156842823063
0.156822735014
0.148653673739
0.148652977528
0.148660161998
0.148668930474
0.148685783836
0.148709273032
0.148737214824
0.148767363451
0.148799888972
0.148837559346
0.148881545473
0.148940184813
0.149020227987
0.149114483224
0.149214178558
0.149316155219
0.149421540064
0.149533848351
0.149655589584
0.149784618484
0.149917109748
0.150056513525
0.150207513752
0.150373444837
0.150555038131
0.150751920744
0.150965328299
0.151190233929
0.151426784167
0.151672799407
0.151931215669
0.152200460231
0.152475088847
0.152745568594
0.152992536391
0.153230453594
0.153470033779
0.153713577612
0.153960416229
0.154209805411
0.154461994726
0.154718966792
0.15498246512
0.155251920643
0.155524912558
0.155798416192
0.156069566712
0.156336032357
0.156596043563
0.156848152315
0.157090893774
0.157322501115
0.157540789672
0.157743057838
0.157925755614
0.158084659422
0.158217558981
0.1583256428
0.15841152624
0.158477775829
0.15852675584
0.158561924733
0.158588328694
0.158602277609
0.158592198237
0.158542154403
0.158441920462
0.158295865669
0.158120973122
0.15794336056
0.157776757187
0.157610122457
0.157432063709
0.157257507725
0.157105572561
0.156979053087
0.156863113
0.156758177638
0.156694176965
0.156666148002
0.148604452022
0.148607831082
0.148621171843
0.148634628132
0.14864846212
0.148671762015
0.14870183825
0.148732899324
0.148768038604
0.148807902885
0.148855872503
0.148917726671
0.149006107506
0.149101225361
0.149197525622
0.14929166113
0.149390456028
0.149501585767
0.149623350374
0.149746989302
0.149876063754
0.150015766683
0.150167682602
0.150334421104
0.15051792398
0.150720281885
0.150934238968
0.151164073542
0.151405629598
0.151660796154
0.151925042542
0.152194354107
0.152470509103
0.152731683133
0.152973511983
0.153206596905
0.15344555411
0.153691115665
0.153941310839
0.154194910433
0.154452135634
0.154714179724
0.154981939435
0.155254957688
0.15553134878
0.155808429977
0.156083457677
0.15635415838
0.156618860309
0.156876200327
0.157124709007
0.157362531264
0.157587237568
0.157795634424
0.157983836596
0.158148274821
0.158287582934
0.158402894134
0.158496150821
0.158569148525
0.158624833339
0.158669263371
0.158705116123
0.158722823473
0.158729447782
0.158682989735
0.158574496824
0.158413540497
0.158216782765
0.158010745641
0.157808960144
0.157600505198
0.157383661628
0.157180808832
0.157002460912
0.15684349196
0.156691661676
0.156566300141
0.156491692916
0.156454886822
0.148546956333
0.148554028509
0.14857019257
0.148591103791
0.148606544873
0.148629696827
0.148659011413
0.148691615017
0.148730259097
0.148768291363
0.148823223133
0.148897292074
0.148984480838
0.14907782765
0.149167358447
0.149254095873
0.149352731025
0.149466519579
0.149583415161
0.149702011183
0.149828710705
0.149968601152
0.150121771915
0.150291233061
0.150478128101
0.150683290895
0.150903100895
0.151131300301
0.15138346311
0.15165198587
0.151915900044
0.152180267057
0.152454685499
0.152707590886
0.152942016294
0.153177221281
0.153418363333
0.15366641204
0.153920056403
0.154178002915
0.154440269898
0.154707607582
0.154980394811
0.155258041111
0.155538873315
0.155820444741
0.156100175341
0.156375947131
0.156646246677
0.156909811209
0.157165161795
0.157410288428
0.157642423776
0.157858018828
0.158053304461
0.158225501981
0.158373833868
0.15849890357
0.158601123734
0.158681109421
0.158743640119
0.158797440566
0.15884329251
0.158876968515
0.158898540346
0.158875397289
0.158760125349
0.158574278949
0.158344255179
0.158095213356
0.157841518483
0.157579300141
0.157319446083
0.157079636596
0.156861641794
0.156656309716
0.156468604268
0.156321197494
0.156235934394
0.156195515331
0.148484426709
0.148494011366
0.148510781504
0.148527735
0.148548694056
0.148579120794
0.148607647502
0.14864121801
0.148685676358
0.148728242066
0.148780569902
0.14886321137
0.148953264837
0.149041990889
0.149125675003
0.149212224093
0.149310723477
0.149422463232
0.149534993712
0.149651047846
0.149776118717
0.149914749188
0.150067478695
0.150238334675
0.150435513858
0.15064163027
0.150867630176
0.151106539758
0.151359932161
0.151627647341
0.151898841448
0.152171986516
0.152425848135
0.152668724603
0.152905093148
0.153143803053
0.153388126906
0.153639100557
0.153896288397
0.154158741936
0.15442629431
0.154699313316
0.154977833074
0.155261083915
0.155547390588
0.155834426134
0.156119812018
0.15640165422
0.156678606966
0.15694947816
0.157212745844
0.15746620838
0.157706791067
0.157930808001
0.158134914165
0.158317147238
0.158476891354
0.158613254625
0.158723875041
0.158808805881
0.158878955448
0.158949652991
0.159018448841
0.159073401494
0.159103498156
0.159104028549
0.159013602717
0.158791160346
0.158510746788
0.158199670981
0.157875099567
0.157548864722
0.157238334052
0.156949519176
0.156676870521
0.156417053282
0.156191847401
0.156021264638
0.155921009711
0.155877333238
0.148416117477
0.148427817444
0.14844743683
0.148464308797
0.148486259954
0.148517735299
0.148547033071
0.148580702835
0.148623479013
0.148680020944
0.148737156273
0.148819784758
0.148910769773
0.148994993187
0.149073124359
0.14916255121
0.149265532511
0.149371881101
0.149479229131
0.149593399633
0.149718600849
0.149856997054
0.150009677291
0.150178754464
0.150383558407
0.150599767367
0.150819203712
0.151069658647
0.151328684317
0.151602485532
0.151875353667
0.152143420883
0.15239250618
0.152626569744
0.152863988618
0.153106518913
0.153354514151
0.153608859442
0.153869750277
0.154136821329
0.154409955919
0.154689184242
0.15497418379
0.155263978917
0.155556820735
0.15585042026
0.156142581925
0.156431671638
0.156716497934
0.156995860793
0.157268127465
0.157530893459
0.157780868419
0.158014467837
0.158228992689
0.158423162319
0.158595680236
0.158742049072
0.158855189739
0.158941414504
0.159028408768
0.159135553543
0.159245193148
0.159330425145
0.159371713637
0.159361641496
0.159281905514
0.159084288607
0.158726310802
0.158323441217
0.157909224587
0.157509123301
0.157136236514
0.156784927024
0.156443521543
0.156120043977
0.155847194888
0.155644128235
0.155516568006
0.15545955104
0.14833919886
0.148350797202
0.148371752911
0.148393460596
0.148422104102
0.148447920945
0.1484770737
0.148512498201
0.148548448929
0.148611195582
0.148680424019
0.148763659286
0.148854987306
0.148938099231
0.149015170375
0.149104696364
0.149209613247
0.149312552047
0.149416188422
0.149527636438
0.149652993269
0.149793130999
0.149950748091
0.150119762042
0.15031730943
0.150551446089
0.15078073778
0.151029986848
0.151289862854
0.151553105432
0.151836862596
0.152104704608
0.152346846141
0.152579132117
0.152818953817
0.153065229663
0.153317177992
0.153575379905
0.153840269163
0.154112031883
0.154390970764
0.154676960839
0.154969248714
0.155266574326
0.155567076123
0.155868490079
0.156168795893
0.156466574523
0.156760703289
0.157049869045
0.157332228313
0.157605132029
0.157865210758
0.158109240485
0.158335313015
0.158542366234
0.1587260826
0.158872842365
0.158976947953
0.159071185374
0.15920042998
0.159376464443
0.159551564897
0.159682118124
0.15973497674
0.159692473265
0.159561828882
0.159361037273
0.158998319971
0.158475302388
0.157944120326
0.157454498415
0.157006869373
0.156581905322
0.156157680355
0.155747481215
0.155402467343
0.155145992564
0.154976723464
0.154897014185
0.148251772764
0.148260914865
0.148276259084
0.148304484184
0.148342809326
0.148367261925
0.148396549402
0.148436160891
0.148470764987
0.148529912594
0.148608423223
0.148694227671
0.148784858232
0.148868376385
0.14895109419
0.149042518498
0.149145493057
0.149244946013
0.149346206442
0.149455111362
0.149577579063
0.149715483495
0.149882926519
0.150065518922
0.150256848556
0.150491200301
0.150729993291
0.150973374461
0.151248723927
0.151518822682
0.151790267407
0.152045987429
0.152285441134
0.15252495725
0.152769049532
0.153019321963
0.153275579542
0.153538186901
0.153807607626
0.154084223265
0.154369005388
0.154662228347
0.154962706992
0.155268633816
0.155578018903
0.15588870227
0.156198834979
0.15650710339
0.1568122886
0.157112788404
0.157406348125
0.157689989276
0.157960448949
0.158215212723
0.158453072622
0.158671224967
0.158855266317
0.158983421656
0.159076637944
0.159204349643
0.159421755249
0.159712274652
0.159984931334
0.160184381
0.160253851594
0.160166575672
0.15993805156
0.159633779041
0.159225467672
0.158627100467
0.157973267768
0.157375314778
0.15684223297
0.156343051722
0.155816694773
0.155268460049
0.154809919837
0.154481740988
0.154270255955
0.154175490318
0.148153508099
0.148160095456
0.148167136562
0.148199337259
0.148237499723
0.148268032713
0.148300431272
0.148344791577
0.148385176372
0.148442650917
0.148525106237
0.148612260896
0.148701303722
0.148781935197
0.148871937207
0.148972105466
0.149072378583
0.149168816759
0.149268667282
0.149376544095
0.149495877474
0.149627947137
0.14979360827
0.15000023226
0.150198725398
0.150417877292
0.150672478758
0.150922929383
0.151186041184
0.151461640542
0.151732171676
0.151981942563
0.152219300443
0.152463850175
0.152713219263
0.15296820694
0.15322906927
0.15349630668
0.153770965208
0.154053231047
0.154344059768
0.154644619609
0.154953984221
0.155269709601
0.155589396132
0.155911053824
0.156233085251
0.156554143804
0.156872641627
0.157186367402
0.157492332338
0.157787008264
0.158067572751
0.158332319484
0.158580015924
0.158800105782
0.158962378005
0.159057813376
0.159148915802
0.159360608051
0.159737243972
0.160202326999
0.160613978569
0.160934264902
0.161039617622
0.160869949105
0.160473348696
0.159960308708
0.159393991324
0.158702257141
0.15795530711
0.157249901423
0.156629435625
0.156090564201
0.15544282971
0.154643141172
0.15400343356
0.153604990696
0.153360254058
0.153273910808
0.148045330716
0.148053014159
0.148065152401
0.148086662411
0.148119705647
0.148154100335
0.148190484592
0.148237019739
0.148287423263
0.148345612157
0.148430574646
0.148518628417
0.148606983437
0.148686038717
0.148775956233
0.148884180149
0.14898618931
0.149082741251
0.149182428668
0.149290316969
0.149408510965
0.149536428097
0.149697170973
0.149914767035
0.150129293487
0.150345638109
0.150605743983
0.150864489848
0.151121474016
0.151395416331
0.151652844314
0.151897925454
0.152144347551
0.152395471453
0.152650590936
0.152910879711
0.153177331798
0.153449715106
0.153729372196
0.154017818938
0.154315683311
0.154624026404
0.154942654835
0.155269131674
0.155600654019
0.155935328975
0.156271843839
0.156608642021
0.156943410557
0.157272928784
0.157592796366
0.157898725071
0.158188334831
0.158460675849
0.158713232048
0.158913310432
0.159021871494
0.159073864824
0.159169124426
0.15960514887
0.16021914985
0.160948080187
0.16152803893
0.162067513693
0.162145678224
0.16176212095
0.161070788397
0.160235757322
0.159431066246
0.158667497126
0.157816423584
0.157029353448
0.156352016477
0.155906886854
0.155151215059
0.153794016365
0.152856015424
0.152453718985
0.152172562751
0.15214894929
0.147924069836
0.147932615264
0.147953797508
0.147965877688
0.147992579591
0.148028063808
0.148067658125
0.148117938679
0.148180803659
0.148238884902
0.148324689624
0.148413687894
0.148502396008
0.148582966727
0.148673599707
0.148784698736
0.148888603775
0.148986857538
0.149087526882
0.149195647313
0.149313756355
0.149441134737
0.149594345239
0.149806952981
0.150047749998
0.150272810882
0.150519196718
0.150798667879
0.151065271016
0.151315228074
0.151562781898
0.15180955645
0.152061758876
0.152319071826
0.152580615799
0.152846988564
0.153118939824
0.153397387145
0.153682950592
0.153977358463
0.154282665325
0.154599706661
0.154928258113
0.155266209747
0.155610919298
0.155960853909
0.156314957536
0.156671397376
0.157026678768
0.157375410029
0.157711353875
0.158029338086
0.15832630756
0.158600399401
0.158845729701
0.158973145547
0.159001351288
0.159053054001
0.159313900376
0.16013180809
0.160991057719
0.162035700755
0.162337298182
0.162445982097
0.162575550033
0.16240368188
0.161682591948
0.160600834954
0.159444519535
0.158321958735
0.157499080895
0.156711893499
0.155708258611
0.155914417492
0.155168229332
0.152570111341
0.151150773812
0.150988244972
0.1505623077
0.150792558355
0.147787138344
0.147794672148
0.147813326283
0.147827429572
0.147851416061
0.147888464847
0.147929515703
0.14797891308
0.148053900761
0.148120301664
0.148206091594
0.148296671105
0.148386999514
0.148471605666
0.148564655239
0.148676348808
0.148781439247
0.148882067472
0.148984406725
0.1490931715
0.149211088228
0.149339236016
0.149488418164
0.149693007807
0.149948963427
0.150190401608
0.150427665774
0.150699415511
0.150977235036
0.151229885667
0.15147044419
0.151716242353
0.151972395533
0.152235833605
0.152503726194
0.152775895902
0.153053854187
0.153338223284
0.153630362315
0.153931494275
0.154244293472
0.154570550586
0.154909934131
0.15526007847
0.155618709811
0.155985929343
0.156361951744
0.156743929399
0.157124803335
0.157496490767
0.157852897877
0.158186438331
0.158489590541
0.158756993426
0.158981076876
0.15894177036
0.158959618797
0.159074531019
0.159848568964
0.161155640211
0.161243010798
0.161613629914
0.162114297553
0.162283668379
0.162216783043
0.161830305372
0.161060897266
0.160073539701
0.159049498315
0.158071872804
0.157218535001
0.156522748228
0.156525041396
0.158144899044
0.158144565891
0.14975047074
0.147174494176
0.149048403114
0.148221680866
0.149390406759
0.147636882769
0.147643355962
0.147662092037
0.147675950489
0.147699543736
0.147736902649
0.147778880912
0.147824643324
0.147900264234
0.147980868283
0.148071604626
0.148165270062
0.148258647983
0.148350946109
0.148446786408
0.148558690876
0.14866492201
0.148768656195
0.148873195531
0.148983133765
0.149101186823
0.149229178102
0.149375704164
0.149571451057
0.149826170937
0.150095797037
0.150341102676
0.150598843096
0.150869526756
0.151119795724
0.151359711557
0.151611754827
0.151874100508
0.152143862436
0.152418551204
0.152697499485
0.152981455259
0.153272172157
0.153570820391
0.153879284929
0.154199926583
0.154535135223
0.154885883646
0.155249643046
0.155623359441
0.156009566643
0.156411579602
0.156825267289
0.157238200475
0.15763977548
0.1580258995
0.158384238723
0.158690355331
0.158907272126
0.158983490494
0.158881642345
0.158911167847
0.159309029398
0.159974589121
0.160642546654
0.161274813512
0.161478382598
0.161719124022
0.161764360459
0.161565607118
0.161111594039
0.160391185282
0.159476531822
0.158475563308
0.157484009637
0.156551110171
0.155758102616
0.155239355867
0.154829639224
0.152019122468
0.149138575994
0.150671899616
0.151447230303
0.143129710832
0.148316398207
0.147475373539
0.14748032921
0.147494782406
0.147510055717
0.147537721699
0.147574953337
0.147619203152
0.147663314516
0.147737279416
0.147826298599
0.147921392822
0.14801758911
0.148112442622
0.148215031183
0.148317199414
0.148429061959
0.148537009159
0.148645522664
0.148753121286
0.148864876873
0.148983626568
0.149111124945
0.149255455936
0.149444367327
0.149695039605
0.149981840856
0.150245602378
0.150497672499
0.150753995284
0.150997627271
0.151239501087
0.151496447696
0.15176466621
0.152040334864
0.1523220405
0.152609278034
0.152901026214
0.153198069388
0.15350388205
0.153819599131
0.15414822821
0.154493429689
0.154856231765
0.155234002087
0.155620823612
0.156025433453
0.156464835704
0.156930323224
0.157384262839
0.157822586028
0.158255390487
0.158665940851
0.159005785735
0.1591932543
0.158951897206
0.15876517219
0.158726287424
0.159094188766
0.159933099466
0.160383359148
0.160764883055
0.160933178603
0.161005898657
0.160913551389
0.160597596824
0.160047069504
0.159269481671
0.15831119057
0.15724709281
0.156153295855
0.155061078724
0.153967171
0.152865280246
0.151629712006
0.149778396611
0.148096337457
0.147535708826
0.145445809079
0.147118032859
0.154861728809
0.147304892523
0.147308656493
0.147318138368
0.14733526133
0.147366571894
0.14740308537
0.14744875864
0.147495705083
0.147565456896
0.14765865747
0.147756408164
0.147854108994
0.147948373323
0.148055445472
0.148169624216
0.148284038242
0.148394264118
0.148508323983
0.148621698031
0.148736773983
0.148857538902
0.148984277984
0.149126771979
0.149309886198
0.149551384952
0.149834572222
0.150119640756
0.150380739861
0.150632361845
0.150872456877
0.151111176547
0.151371235452
0.151645305548
0.151923612585
0.152213863212
0.152510304458
0.152808749395
0.153113585311
0.1534276422
0.153752621187
0.15408987995
0.154443559563
0.154817082499
0.155212776028
0.15563143729
0.156078063902
0.156559210757
0.157056807182
0.157551781772
0.158060748223
0.158593252245
0.159155537993
0.159670185786
0.16008125044
0.15973214504
0.158378624502
0.15830764924
0.158901523719
0.159565187464
0.159913818861
0.160115200106
0.160169427288
0.160074006047
0.159806662545
0.15933733168
0.158657204633
0.1577761189
0.156724509853
0.155548068755
0.154291204036
0.152983950503
0.151567702448
0.149996665581
0.148252228051
0.146190084349
0.143915064514
0.142150089331
0.14103839775
0.143039328519
0.134396773498
0.147125884566
0.147129226393
0.147137068816
0.147157349983
0.147188345913
0.147222299061
0.147265073873
0.147317160962
0.147382513949
0.147477280563
0.147576949499
0.147676145095
0.147771167653
0.14787798621
0.148002070138
0.148122431607
0.148236676408
0.148355089168
0.148474933367
0.148595810277
0.148721335585
0.148848084564
0.148988797111
0.149167738381
0.149400396627
0.149676686212
0.149969532708
0.150243222499
0.150487136215
0.150723625234
0.15096925728
0.151229096852
0.151506862865
0.151793231137
0.152092591721
0.152397224415
0.152703249746
0.153016691214
0.153339804332
0.153674614558
0.15402250953
0.154387253548
0.15477842089
0.155207979723
0.155674168882
0.156157213973
0.156660808941
0.157189333777
0.15775685208
0.158389755299
0.159119933833
0.160026516183
0.160962760128
0.162682788539
0.161986992167
0.158894747232
0.157902639266
0.158687483853
0.159213963207
0.159331958147
0.159299963299
0.159155094205
0.158864352941
0.158405584112
0.157760812155
0.156921345887
0.155890966058
0.1546854956
0.153328277046
0.151840154836
0.150232072952
0.148437076036
0.146340048168
0.143887685065
0.140978327737
0.137568937615
0.133865787674
0.129375724521
0.124032379744
0.116540794832
0.146935760673
0.146938999971
0.146947253208
0.146972228971
0.147002115208
0.147033107972
0.14707077781
0.147126359503
0.147186108266
0.147280721159
0.1473824022
0.14748332716
0.147580297858
0.147688696219
0.147817860614
0.147944448613
0.148064372759
0.148187670943
0.148312266266
0.148439329475
0.14857216031
0.148701091608
0.148839807492
0.149015688436
0.149240834782
0.149509101544
0.149803076557
0.150083027931
0.150335558418
0.150568313803
0.150818170232
0.151082428161
0.151358295815
0.151642338614
0.151946554561
0.152265123344
0.15258286033
0.152906966905
0.153239036533
0.15358368627
0.153944394378
0.154325001702
0.154745336929
0.155221793118
0.155723504709
0.156228890413
0.156759402787
0.157351688282
0.158044093614
0.158841581341
0.159789727663
0.16110122718
0.16143547318
0.161601217843
0.161669765896
0.16065629237
0.159086711157
0.158815081817
0.158797173807
0.158611310963
0.158318598496
0.157935816233
0.157425018435
0.156756334947
0.155911401337
0.15487924761
0.153656334033
0.152245319398
0.150650670727
0.148870846914
0.146887813068
0.144658794933
0.141999863072
0.138720329901
0.134674676814
0.12955928885
0.12277968475
0.11252678885
0.0946639314331
0.0532884014523
0.146729069173
0.146732023998
0.146742423427
0.146773281098
0.146802535778
0.14683135885
0.146866334872
0.146921787902
0.146975787321
0.147068092783
0.147171718762
0.147274465404
0.147373601637
0.147483643407
0.147615769884
0.147748035746
0.147875880486
0.148004806108
0.148133128266
0.148265502327
0.148406806687
0.148541073905
0.148677524502
0.148850543081
0.149070143215
0.149329435251
0.149618175408
0.149892902587
0.150158544517
0.150404147463
0.150652365386
0.150913872092
0.151196035244
0.151489308967
0.151787700778
0.152110330195
0.152441969598
0.152778435192
0.153124268641
0.153480138717
0.153852220334
0.154258418436
0.15472661117
0.155245851735
0.155768119997
0.156298624389
0.156891931637
0.157609746899
0.158462436379
0.159350423439
0.160182230855
0.160820491735
0.161146860104
0.161301157164
0.161076259203
0.160215577895
0.159072423603
0.158454697984
0.158089773215
0.157665170245
0.157139690194
0.15651675883
0.15577105842
0.154874358067
0.153806319779
0.152552176582
0.151100772451
0.149442530556
0.14756530388
0.14544763662
0.143049502964
0.140303779623
0.137051646319
0.132972748591
0.127745719276
0.120911895373
0.111499871442
0.097414613207
0.0747132423357
0.0378556604513
0.146498196025
0.146500915717
0.146513293766
0.146549843956
0.146578128555
0.146608281164
0.146642357556
0.146694880853
0.146746104304
0.146837761027
0.146943637011
0.147048186223
0.147149462495
0.147260684392
0.147393895079
0.147529514295
0.147667351376
0.147803331143
0.147935559734
0.148072533245
0.148221268567
0.148365062639
0.148500621533
0.148669501245
0.148885500168
0.149137150528
0.149418871914
0.149686722619
0.149949890379
0.150213497496
0.150476848432
0.150738887102
0.151007437775
0.151303438856
0.151615601602
0.151940560875
0.152280937953
0.152629116633
0.152987926085
0.153358486037
0.153751603866
0.154199465463
0.15471901473
0.155265626012
0.155815117651
0.156404989039
0.157113180796
0.157986710602
0.158918303812
0.159615631511
0.160253796727
0.160490856651
0.160690973135
0.160662343783
0.160318316553
0.159615129409
0.158707129141
0.157913583488
0.15724145839
0.156548281388
0.155773279512
0.154901119105
0.153909728639
0.152772306116
0.151465519555
0.149969417289
0.148265040042
0.146331671209
0.144142659592
0.141659115576
0.13882120124
0.135536277878
0.131667420188
0.126899538299
0.120733463628
0.11262186154
0.10170627792
0.0864411518572
0.0641311853717
0.0338505170341
0.146236503371
0.146241203758
0.146254092848
0.14628969616
0.146320803878
0.146357767681
0.146394771738
0.146446981171
0.146502542841
0.146589079074
0.146696664691
0.146803028633
0.146906511016
0.147018667885
0.147151695284
0.147286990036
0.147430582483
0.147577265893
0.147716289762
0.147859130382
0.148013041298
0.148169044145
0.148312552302
0.148472239082
0.148685359695
0.148931518559
0.149206270126
0.149469271973
0.149725676023
0.149996510885
0.150275263496
0.150551560891
0.150818735737
0.151104209235
0.151414952604
0.151749401826
0.152100147316
0.152461429949
0.152831142951
0.153218775922
0.153649142622
0.154152274837
0.154710592281
0.155286161982
0.155885100561
0.156566273674
0.157386364376
0.158200198096
0.159033614171
0.15986000711
0.160056529307
0.160139025552
0.160135824926
0.159949480499
0.159508733919
0.15880262013
0.157915625129
0.157000728827
0.156107301926
0.155181928687
0.154177511787
0.153071119658
0.15184152491
0.150463996885
0.148913780789
0.147166639125
0.145196873749
0.142974404196
0.140460646697
0.137602584581
0.134324543653
0.130516979912
0.126020261866
0.120609396506
0.113823832674
0.104983993953
0.0932837211486
0.0776895114371
0.0563055697055
0.0296317126873
0.145948670965
0.145957182556
0.14596978557
0.145998042112
0.146035544936
0.14607947916
0.146122297542
0.146178579248
0.146243835842
0.146324116656
0.146430316942
0.146537753866
0.146643553826
0.146756889895
0.146889966058
0.147025637632
0.147169018186
0.147324909888
0.147473866489
0.147624854602
0.147784051205
0.147951715179
0.148113164038
0.148275076491
0.148473790672
0.148714049405
0.148982549932
0.149241995827
0.149490782517
0.149760268677
0.150045412851
0.150341947353
0.150619402868
0.150897617787
0.151199877408