/*--------------------------------*- C++ -*----------------------------------*\
| =========                 |                                                 |
| \\      /  F ield         | OpenFOAM: The Open Source CFD Toolbox           |
|  \\    /   O peration     | Version:  v1806                                 |
|   \\  /    A nd           | Web:      www.OpenFOAM.com                      |
|    \\/     M anipulation  |                                                 |
\*---------------------------------------------------------------------------*/
FoamFile
{
    version     2.0;
    format      ascii;
    class       volScalarField;
    location    "13";
    object      pa;
}
// * * * * * * * * * * * * * * * * * * * * * * * * * * * * * * * * * * * * * //

dimensions      [0 2 -2 0 0 0 0];


internalField   nonuniform List<scalar> 
6400
(
-0.197772519317
-0.197785473681
-0.197817357106
-0.197873948644
-0.197958174809
-0.198065319203
-0.198198423022
-0.198351610269
-0.198535867545
-0.198772376075
-0.198919890447
-0.199058676963
-0.199256044021
-0.199444524888
-0.19961636055
-0.199804296438
-0.200034415751
-0.20030018515
-0.20059787722
-0.20092523212
-0.201281494698
-0.201665749498
-0.20207788135
-0.202517241472
-0.202983828538
-0.203476987337
-0.203996650186
-0.204542027182
-0.205112860508
-0.205708103312
-0.206327163613
-0.206968581348
-0.207631266373
-0.208313202035
-0.209012692241
-0.209727170724
-0.210454565782
-0.21119225966
-0.211938529739
-0.212691796973
-0.213452291608
-0.214221148035
-0.215001549735
-0.215798084684
-0.216617463758
-0.217466765262
-0.218350215818
-0.219262027967
-0.220193933571
-0.221152260244
-0.222122837119
-0.22305177024
-0.223973120855
-0.225069644358
-0.226396577896
-0.227823988477
-0.229272367212
-0.230660197592
-0.231908639368
-0.233113501086
-0.234317319715
-0.23549423515
-0.23649476883
-0.237180898581
-0.237485600403
-0.237195087103
-0.236428751904
-0.235484349492
-0.235042214779
-0.234980658014
-0.234758475225
-0.234538851895
-0.234063991502
-0.23343479619
-0.232836031897
-0.232225063953
-0.231751495306
-0.231584896404
-0.231495578472
-0.231967101599
-0.197753414102
-0.197763087355
-0.197776271516
-0.197810708139
-0.197876636295
-0.197974605782
-0.198140851929
-0.198291269779
-0.198451914288
-0.198625870364
-0.198779209781
-0.198909472837
-0.199010789379
-0.199075015034
-0.199111448943
-0.199138646193
-0.199169196106
-0.199204767359
-0.199246627252
-0.199294897251
-0.199350182973
-0.199412361395
-0.199482203722
-0.19955971418
-0.199645816724
-0.199740467481
-0.199844493693
-0.199957561529
-0.20008018101
-0.20021159858
-0.200352000253
-0.200500435006
-0.200657272879
-0.200822249502
-0.200997207358
-0.20118427448
-0.201388701799
-0.201616989119
-0.201879647415
-0.202189020315
-0.202560809495
-0.203010575236
-0.203555278211
-0.20421008128
-0.204987859077
-0.205892267023
-0.206920330093
-0.208060623637
-0.20928293652
-0.210525501577
-0.211768406931
-0.213043385124
-0.214476878264
-0.216150330659
-0.218080698148
-0.220229072023
-0.222502699735
-0.224820982144
-0.227090257558
-0.229220197393
-0.231190789281
-0.232911905408
-0.234290071608
-0.235346989854
-0.235935861899
-0.236104042221
-0.235625190467
-0.234950402134
-0.234942037083
-0.235031034445
-0.234854126817
-0.234633835084
-0.234007521225
-0.233494825893
-0.233109419467
-0.232600001041
-0.232139971771
-0.231528613922
-0.231369251617
-0.232317143754
-0.19771092431
-0.197724685546
-0.197722213093
-0.197731096309
-0.197784583378
-0.197852204264
-0.198075811076
-0.198313321918
-0.198531454297
-0.198785781433
-0.199013444413
-0.199230173282
-0.199455656043
-0.199668545252
-0.199865655091
-0.200055891608
-0.200255375266
-0.200467142621
-0.200692169008
-0.200930895283
-0.201183314971
-0.201449284101
-0.201728371349
-0.202020116667
-0.202323819336
-0.202638818238
-0.202964281221
-0.203299561684
-0.203644049822
-0.203997654389
-0.204360752764
-0.204734787804
-0.205122237923
-0.205527153383
-0.205954895405
-0.206412289134
-0.206906766899
-0.207445923726
-0.208036082488
-0.208681169566
-0.209380860221
-0.210130237679
-0.210919611941
-0.21173413619
-0.212554089647
-0.213357984979
-0.214128798017
-0.214857429408
-0.215544069779
-0.216208719416
-0.216893841922
-0.217654881375
-0.218550785393
-0.219627708431
-0.220908551948
-0.22238946382
-0.22403292598
-0.225786225474
-0.227591361109
-0.229387269481
-0.231125703057
-0.232738989431
-0.234137357715
-0.235267657691
-0.235978910095
-0.236311558996
-0.236291665981
-0.236083420247
-0.235774916987
-0.235243143919
-0.23485545364
-0.234313979521
-0.233656931169
-0.23315152133
-0.23277021604
-0.232452796099
-0.232293382188
-0.231594851018
-0.230779882758
-0.231750597714
-0.197669838225
-0.197681852641
-0.197662207578
-0.197681984952
-0.197765187574
-0.197842937019
-0.198051903062
-0.198312298122
-0.198487244974
-0.198648652307
-0.198818600442
-0.198991859576
-0.199165151143
-0.199323631176
-0.199464805765
-0.199593484455
-0.199719759743
-0.199848342362
-0.199981461641
-0.200120271273
-0.200265658889
-0.200418254789
-0.200578761496
-0.200747778513
-0.200926118051
-0.201114605956
-0.201314440381
-0.201527001053
-0.20175425659
-0.20199856593
-0.202263074817
-0.20255140698
-0.202867896684
-0.203217010766
-0.203603285715
-0.204030455235
-0.204501231555
-0.205016459003
-0.205575143828
-0.20617410096
-0.206808960731
-0.207474889555
-0.208167457161
-0.20888245825
-0.209617506257
-0.210374215488
-0.211158283316
-0.211976776693
-0.21283828124
-0.213755368343
-0.21473887233
-0.21580548412
-0.216997920497
-0.218342745275
-0.219841736195
-0.221477700293
-0.223217350123
-0.225019459494
-0.226842614107
-0.228654457196
-0.230432905865
-0.232142448115
-0.233723682841
-0.23508047936
-0.236052022089
-0.236610581972
-0.2367796789
-0.236668196944
-0.236253875795
-0.235549619673
-0.2347995756
-0.23412356171
-0.233536167109
-0.232958407184
-0.232431447403
-0.23211278847
-0.231978365808
-0.231651434179
-0.230175385529
-0.231004341812
-0.197618447137
-0.197638677677
-0.197616103012
-0.197684218972
-0.197816445784
-0.198215224548
-0.198423888778
-0.198489713463
-0.198555528143
-0.198670619879
-0.19882415733
-0.198998993537
-0.199186821988
-0.19937611826
-0.199563355978
-0.199750284211
-0.199941851518
-0.200141690297
-0.200352059394
-0.200574486449
-0.200810087311
-0.201059842593
-0.201324613225
-0.201605288012
-0.201902727261
-0.202217893252
-0.202551766286
-0.202905463728
-0.203280114532
-0.203676934764
-0.204097021305
-0.204541338804
-0.205010412364
-0.205504257529
-0.206022078755
-0.206562313947
-0.207122575071
-0.207700004455
-0.208291507391
-0.20889430478
-0.209506222426
-0.210125752176
-0.210751347493
-0.211381332502
-0.212013883059
-0.212647653942
-0.213281574998
-0.213916674047
-0.214559538712
-0.215223745878
-0.21593300501
-0.216732768355
-0.217675164838
-0.218774686097
-0.220026466035
-0.221416762975
-0.222926088532
-0.224529790164
-0.226200896976
-0.227917939449
-0.229666126401
-0.231421753181
-0.233128204313
-0.234693298967
-0.235986532552
-0.236944148213
-0.237387395158
-0.23733583334
-0.236795695498
-0.235841795819
-0.234832957031
-0.234117715387
-0.233440321673
-0.232513906321
-0.231905255174
-0.231557560807
-0.231356882545
-0.230851829156
-0.229139205487
-0.230391963692
-0.197530951358
-0.197606158922
-0.197572751142
-0.197717224386
-0.197957236746
-0.198511277909
-0.19864647908
-0.198671903206
-0.198757180464
-0.198887150362
-0.199054704222
-0.199253303445
-0.199471732029
-0.199700243719
-0.199934220392
-0.200172778123
-0.200417431701
-0.200669867067
-0.200931346038
-0.201202693295
-0.201484443975
-0.201776925991
-0.202080344329
-0.202394781234
-0.202720236382
-0.203056587644
-0.20340361352
-0.203760927283
-0.204127987929
-0.204504019374
-0.204888031597
-0.205278764983
-0.205674781671
-0.206074525336
-0.206476568564
-0.206879829034
-0.207283928354
-0.207689413404
-0.208097930186
-0.20851210366
-0.208935279787
-0.209370911669
-0.209822093139
-0.210291738644
-0.210783328575
-0.2113018106
-0.2118544467
-0.212452079828
-0.213110459932
-0.213849185909
-0.214691637957
-0.215656284376
-0.216742849964
-0.217954607562
-0.219282113461
-0.220706816904
-0.222211968296
-0.223780795896
-0.225395144478
-0.227039662577
-0.228704690778
-0.230380000785
-0.232028861089
-0.233597262741
-0.235013053515
-0.236180890861
-0.23690516378
-0.23694254583
-0.236346065534
-0.235249342555
-0.234303338398
-0.233554920888
-0.232457067943
-0.231590446963
-0.231012512459
-0.230662335587
-0.230290400094
-0.229663584264
-0.227769213783
-0.229313580396
-0.197422830139
-0.197566985147
-0.197551609507
-0.197711386268
-0.198136105677
-0.198623554438
-0.198734067032
-0.19883383749
-0.198957059278
-0.199104195023
-0.199282078367
-0.199486217309
-0.199708141415
-0.199940767942
-0.200180006148
-0.200424122365
-0.200673105801
-0.200927536193
-0.201188017907
-0.201455013711
-0.201728802033
-0.20200952868
-0.202297204856
-0.202591752617
-0.202892978618
-0.203200608176
-0.203514248566
-0.203833429518
-0.204157579851
-0.204486104673
-0.204818415626
-0.205154084831
-0.205492962461
-0.20583541868
-0.206182513301
-0.20653620353
-0.206899360864
-0.207275713272
-0.207669495379
-0.208085010611
-0.208526041091
-0.208995412467
-0.209494729383
-0.210024739064
-0.210586166582
-0.21118050578
-0.2118105671
-0.21248106082
-0.213199568932
-0.213977344283
-0.214829162578
-0.215769947861
-0.21680827672
-0.217954379566
-0.219200167635
-0.220523840894
-0.221908469788
-0.223341538708
-0.224809350206
-0.226297928976
-0.227797453101
-0.229299075682
-0.230784372934
-0.23221925846
-0.233568100354
-0.234772730874
-0.23567065985
-0.236032152065
-0.235648792933
-0.234629769055
-0.233591799748
-0.232357949418
-0.231175358848
-0.230358292257
-0.229831039581
-0.229449887373
-0.228900608424
-0.228276813299
-0.22615512335
-0.227826228816
-0.197339407059
-0.197524067174
-0.197542763426
-0.197716582535
-0.198380949811
-0.19865278302
-0.198773686078
-0.198912108384
-0.199059426843
-0.199217037515
-0.199393678557
-0.199588234062
-0.199796183411
-0.20001350632
-0.200237548154
-0.200466856429
-0.200701045702
-0.200940249422
-0.201184778457
-0.201434933693
-0.201690947449
-0.201952960126
-0.202221035315
-0.202495155522
-0.202775241792
-0.203061147876
-0.203352686049
-0.203649633795
-0.203951785064
-0.204258993912
-0.20457127446
-0.204888896142
-0.205212523633
-0.205543325089
-0.205883073684
-0.206234137998
-0.206599381584
-0.20698191394
-0.207384767375
-0.207810490559
-0.208260850223
-0.208736674386
-0.209237976871
-0.209764327566
-0.210315824628
-0.210893929392
-0.211502114706
-0.212146329106
-0.212835790621
-0.213584611803
-0.214410492567
-0.215332135779
-0.216358636741
-0.217480230435
-0.2186830507
-0.21994362347
-0.221240049337
-0.222559788101
-0.223889620788
-0.225215158098
-0.226526625028
-0.227816922137
-0.229076221027
-0.230289338352
-0.231434809608
-0.232484515957
-0.233376430386
-0.234005839219
-0.234172761674
-0.233516406962
-0.232266875666
-0.230688060667
-0.229535050966
-0.228808363134
-0.22836831621
-0.22792227477
-0.227375444119
-0.226826521501
-0.224576215879
-0.226281686489
-0.197257498682
-0.197478042678
-0.19756662829
-0.197878049115
-0.19845727131
-0.198601285468
-0.19875423139
-0.198905712044
-0.199060583705
-0.199220517913
-0.199391050466
-0.199573024809
-0.199764983302
-0.199965370921
-0.20017293718
-0.200386816158
-0.200606653874
-0.200832419379
-0.201064232984
-0.20130226068
-0.201546642985
-0.201797482021
-0.202054822148
-0.202318664709
-0.202588958619
-0.202865623226
-0.203148546652
-0.203437623107
-0.203732771363
-0.204033999505
-0.204341455361
-0.204655520508
-0.204976876868
-0.205306592889
-0.205646150374
-0.205997445872
-0.206362683727
-0.206744238772
-0.207144444427
-0.207565402739
-0.208008798656
-0.208475885469
-0.208967549159
-0.209484540952
-0.210028034937
-0.210600436416
-0.211205761855
-0.211849933183
-0.212540985768
-0.213290610605
-0.214113581945
-0.21502557796
-0.216035591758
-0.217128818698
-0.218280659262
-0.219465547038
-0.220655816261
-0.22183626907
-0.222993461393
-0.224114040288
-0.225189914983
-0.226217434706
-0.227192763392
-0.228106238957
-0.228941324662
-0.229683959598
-0.230358554505
-0.231085293028
-0.231864023973
-0.231649841633
-0.230153249637
-0.228581437861
-0.227543588015
-0.226933768002
-0.226600690429
-0.226198260168
-0.225846559551
-0.225544521804
-0.223145474818
-0.2255094732
-0.197134028097
-0.197374367123
-0.197554901948
-0.197957297137
-0.198385512614
-0.198522773063
-0.198669236178
-0.19882894994
-0.19898731129
-0.199146580883
-0.199311387601
-0.199483706529
-0.199663977478
-0.199852234911
-0.200048232772
-0.200251610584
-0.200462139267
-0.200679711419
-0.200904307858
-0.20113594182
-0.201374630729
-0.201620367189
-0.201873118659
-0.202132815176
-0.202399360865
-0.202672629261
-0.202952483949
-0.203238785365
-0.203531427157
-0.203830363067
-0.204135666505
-0.204447581043
-0.204766596404
-0.205093502852
-0.205429455849
-0.205775993124
-0.206135027259
-0.206508764785
-0.206899621165
-0.207310065136
-0.207742476835
-0.208199005693
-0.208681552325
-0.209191751932
-0.209731233152
-0.210302230516
-0.210908098681
-0.211553460018
-0.212244467677
-0.212989501856
-0.213800581723
-0.21469108317
-0.215670663715
-0.216728240443
-0.217825498915
-0.218927099312
-0.220000893274
-0.221025731612
-0.221989141206
-0.222880591075
-0.223693910645
-0.224429491415
-0.225087005401
-0.225654855773
-0.226105566069
-0.226416486499
-0.22666493292
-0.227187911895
-0.228369208933
-0.228714445632
-0.227381933617
-0.2260232704
-0.225201601716
-0.224701781301
-0.224499360856
-0.224383120007
-0.224377248425
-0.224508546742
-0.22245249698
-0.224899748524
-0.19691548517
-0.197181763685
-0.197463387047
-0.197974924825
-0.198247730141
-0.198409943309
-0.19855238205
-0.198711345699
-0.198870460171
-0.199028225689
-0.199188804303
-0.199354827308
-0.199527785271
-0.199708586297
-0.199897571677
-0.200094713491
-0.200299879822
-0.200512925435
-0.200733718155
-0.20096214398
-0.201198086945
-0.201441426741
-0.201692021265
-0.201949712891
-0.202214317165
-0.202485636746
-0.202763457295
-0.20304757176
-0.203337789024
-0.203633975138
-0.203936082999
-0.204244218275
-0.204558693439
-0.204880113576
-0.205209442204
-0.205548084342
-0.205897911439
-0.206261265523
-0.206640887539
-0.207039825168
-0.207461227489
-0.207908162902
-0.208383428257
-0.208889467863
-0.209428294962
-0.21000191874
-0.210612829183
-0.21126418949
-0.211959933209
-0.212704922987
-0.213506817203
-0.214375106992
-0.215317151523
-0.21632721514
-0.217364128183
-0.218375200592
-0.219322308679
-0.220178067067
-0.220933110086
-0.221581105009
-0.222119484135
-0.222553001119
-0.222882625527
-0.223088977955
-0.223120951256
-0.222924764994
-0.22257395177
-0.222531457096
-0.223624663001
-0.224694374803
-0.223917078486
-0.22297920526
-0.222489777591
-0.222226736247
-0.222186427141
-0.222419462204
-0.222899126037
-0.223477358133
-0.221411733504
-0.22417238913
-0.196578289327
-0.196881275632
-0.197289394598
-0.198013071617
-0.19816350617
-0.198274803538
-0.19841877327
-0.198577239043
-0.198734582737
-0.198889359554
-0.199045919646
-0.199207261996
-0.199375339021
-0.199551404757
-0.199736041354
-0.199929362708
-0.200131272815
-0.200341579792
-0.200560066309
-0.200786506135
-0.201020676494
-0.201262345781
-0.201511278252
-0.201767220177
-0.202029908764
-0.202299062772
-0.202574398834
-0.202855630646
-0.203142497475
-0.20343477882
-0.203732343834
-0.204035192453
-0.20434353583
-0.204657868081
-0.204979075129
-0.205308522506
-0.205648150343
-0.20600049232
-0.206368671476
-0.206756299224
-0.2071673175
-0.207605714333
-0.208075285647
-0.208579368709
-0.209120634701
-0.209701016638
-0.210322092419
-0.210985206603
-0.211691456698
-0.21244167817
-0.213237321434
-0.214082048059
-0.214978859298
-0.215923487207
-0.21688380761
-0.217794846464
-0.218604974504
-0.219284062604
-0.219825616363
-0.220230510948
-0.220503086193
-0.220652385299
-0.220678336223
-0.220548987939
-0.220183363333
-0.219474349131
-0.218427588538
-0.217497862461
-0.217870288283
-0.219553539058
-0.219552117196
-0.219216646821
-0.219186685418
-0.21933358711
-0.219656412309
-0.220301784241
-0.221336743422
-0.222447893965
-0.220480775014
-0.223590282618
-0.196075350841
-0.19642495313
-0.196901935092
-0.197962667693
-0.198108367409
-0.198166184278
-0.198296686561
-0.198446896095
-0.198596697264
-0.198744832242
-0.198895644398
-0.199051992144
-0.199215733382
-0.199388023097
-0.199569376164
-0.199759866815
-0.199959339804
-0.20016753223
-0.200384134105
-0.200608827932
-0.200841290325
-0.201081202441
-0.201328236517
-0.201582063401
-0.201842339381
-0.20210871867
-0.202380846133
-0.2026583789
-0.202940990349
-0.20322840714
-0.203520433535
-0.203817015803
-0.204118300449
-0.204424736651
-0.204737172109
-0.2050569883
-0.20538620206
-0.205727558172
-0.206084532615
-0.206461306668
-0.206862600608
-0.207293416429
-0.207758652908
-0.208262752311
-0.208809237894
-0.209400259464
-0.210036432754
-0.210716947126
-0.2114393234
-0.212199467187
-0.212991759536
-0.213811842647
-0.214656051272
-0.215517514359
-0.216375298661
-0.217170674679
-0.217835533343
-0.218336244221
-0.21866886098
-0.218846407223
-0.21888342732
-0.218792803773
-0.21857128529
-0.218172974238
-0.217484245357
-0.21633357715
-0.214609005729
-0.212597187068
-0.211504300391
-0.212770522064
-0.213950286142
-0.214487269335
-0.215042798437
-0.215743475895
-0.216667727763
-0.21796041504
-0.219713858064
-0.221526080174
-0.220096901367
-0.223521939832
-0.195400301992
-0.195774855769
-0.196382772264
-0.197850875395
-0.19808429052
-0.198099359537
-0.198204389054
-0.198332897809
-0.198466084874
-0.198602086504
-0.198744092925
-0.198893936366
-0.199052752241
-0.199221171546
-0.199399371655
-0.199587209727
-0.199784382537
-0.199990503879
-0.200205164184
-0.200427945913
-0.200658441941
-0.20089624502
-0.201140955559
-0.201392166385
-0.201649472608
-0.201912460158
-0.202180722959
-0.202453860207
-0.202731505456
-0.203013338859
-0.203299136174
-0.203588807767
-0.20388248245
-0.204180587819
-0.204483979402
-0.204794064386
-0.205112959197
-0.205443594822
-0.205789799101
-0.206156279939
-0.206548545291
-0.20697261522
-0.207434607985
-0.207940170558
-0.208493853347
-0.20909821344
-0.209753031797
-0.210454935767
-0.211197242153
-0.211969812361
-0.212759578284
-0.213552169756
-0.214335690857
-0.215098716882
-0.215825542139
-0.216478328851
-0.216988576896
-0.217311326761
-0.217446996602
-0.217422398591
-0.217264486431
-0.216989586595
-0.2165898982
-0.216004563721
-0.215091083231
-0.213618408419
-0.211349318295
-0.208298411276
-0.205228187637
-0.204319427521
-0.206324306303
-0.208562031378
-0.210272551658
-0.211856852605
-0.213430739487
-0.215344663853
-0.218102826404
-0.22086947485
-0.220435735973
-0.224201819519
-0.194554858867
-0.194822253257
-0.19579478355
-0.198094132797
-0.198191269887
-0.19810919308
-0.198149905636
-0.198237355071
-0.198343953071
-0.198462422501
-0.198592644295
-0.198734355781
-0.198887374368
-0.199051472406
-0.19922627638
-0.199411303686
-0.199606020046
-0.199809884429
-0.200022360742
-0.200242936611
-0.200471112433
-0.200706408594
-0.200948347907
-0.201196463142
-0.201450281843
-0.201709340111
-0.201973174989
-0.202241348493
-0.202513452307
-0.202789146914
-0.203068185811
-0.203350480048
-0.203636156642
-0.2039256654
-0.204219886358
-0.204520288916
-0.204829083083
-0.2051493896
-0.205485340003
-0.205842140342
-0.206226007138
-0.206643957884
-0.207103308014
-0.207610982535
-0.20817257076
-0.208791134275
-0.209465658409
-0.210189997336
-0.210952481416
-0.211736053474
-0.212519261682
-0.21327815097
-0.213991283093
-0.21464205864
-0.215216429546
-0.215696485798
-0.216035958607
-0.216184394683
-0.216138318383
-0.215937848969
-0.215622116393
-0.215209521261
-0.214685629099
-0.213975229102
-0.212912822832
-0.211233117153
-0.20860915495
-0.204811283472
-0.200099734361
-0.196187028698
-0.196151240399
-0.199895175451
-0.204151409607
-0.207515221831
-0.210182329283
-0.212723272206
-0.216752565018
-0.221062717752
-0.221938945061
-0.226306389325
-0.193764467566
-0.19391236574
-0.195329269986
-0.198169221053
-0.198313052213
-0.198145795407
-0.198108812673
-0.198147462297
-0.198223527691
-0.198322324538
-0.198439547126
-0.198572401923
-0.198719170762
-0.198878637473
-0.199049810256
-0.199231808067
-0.199423843665
-0.199625194227
-0.199835199673
-0.200053240103
-0.200278736701
-0.200511128984
-0.200749878657
-0.200994449954
-0.201244319913
-0.201498966016
-0.201757886288
-0.202020598452
-0.202286673383
-0.202555750269
-0.202827588744
-0.203102108806
-0.203379474526
-0.203660175404
-0.203945159212
-0.204235969573
-0.204534934302
-0.204845336674
-0.205171585981
-0.205519302175
-0.205895333348
-0.206307562205
-0.206764427594
-0.207274037244
-0.207842965285
-0.208474618572
-0.209167191678
-0.209911631832
-0.210690834799
-0.211480108554
-0.212249076601
-0.212964936672
-0.213597279027
-0.214125070398
-0.214536551095
-0.21482485563
-0.214974368518
-0.21494932318
-0.214739088908
-0.214383748739
-0.213931912103
-0.213402527385
-0.21277287425
-0.211955210126
-0.21077514747
-0.208962083155
-0.206170340936
-0.202066107361
-0.196577888188
-0.190579312779
-0.186674372208
-0.18788834137
-0.193645683481
-0.200980708829
-0.206128476101
-0.209968347229
-0.215773848101
-0.222873230736
-0.22599310864
-0.231157057338
-0.193177304429
-0.193208298166
-0.194930025325
-0.198165041305
-0.198370896889
-0.198136621483
-0.198043305892
-0.198043261242
-0.198094109125
-0.198175991219
-0.198281635308
-0.198406344699
-0.198547173851
-0.198702098377
-0.198869589223
-0.19904842309
-0.199237574286
-0.199436162901
-0.199643402259
-0.199858583253
-0.2000810408
-0.200310151067
-0.200545305608
-0.200785917179
-0.201031402007
-0.201281195723
-0.201534747237
-0.201791547867
-0.202051140623
-0.202313165563
-0.202577388832
-0.202843770471
-0.203112523511
-0.203384218529
-0.203659889867
-0.203941194843
-0.204230581425
-0.204531498553
-0.204848576615
-0.205187781002
-0.205556449706
-0.205963167585
-0.206417266154
-0.206927840965
-0.207502207675
-0.208143884823
-0.208850043574
-0.209608820504
-0.210397650262
-0.211184024163
-0.211928640802
-0.212590636525
-0.213133710291
-0.213533546541
-0.213781863061
-0.2138806321
-0.213832819405
-0.213627214745
-0.213259303885
-0.21275314541
-0.21215748042
-0.211490046545
-0.210716804012
-0.209743151244
-0.208399417197
-0.206440364865
-0.203563543737
-0.199466960974
-0.193989511157
-0.187429771714
-0.181153101781
-0.177974080072
-0.181077173837
-0.189746104751
-0.197490574492
-0.205782423157
-0.216542679492
-0.228186610756
-0.23438002913
-0.240735656819
-0.192922237591
-0.192944881918
-0.194816893707
-0.198086376
-0.198297403857
-0.198028436591
-0.197924592006
-0.197909269512
-0.197947106265
-0.198018612693
-0.198116239911
-0.19823472256
-0.198370608175
-0.198521446275
-0.198685401544
-0.19886102217
-0.199047127458
-0.199242710114
-0.199446893442
-0.199658880997
-0.199877944356
-0.200103389255
-0.200334555824
-0.200570794698
-0.200811478241
-0.201055988441
-0.201303741553
-0.201554191828
-0.201806872476
-0.202061418204
-0.202317625034
-0.202575496091
-0.202835326788
-0.203097784026
-0.203364030763
-0.203635856426
-0.203915860561
-0.204207645522
-0.204516034824
-0.204847238994
-0.205208942681
-0.205610183791
-0.206060872925
-0.206570705373
-0.207147374
-0.2077941107
-0.20850674337
-0.209270551102
-0.210058019434
-0.210829345825
-0.211536930484
-0.212132871809
-0.21257766404
-0.212847384892
-0.212938340988
-0.212861536301
-0.212629334287
-0.21224616802
-0.211709009513
-0.211032313978
-0.210246034452
-0.209368110856
-0.208350312189
-0.207093142331
-0.205439447727
-0.20318203327
-0.200090335862
-0.195962518647
-0.190711421965
-0.184497061324
-0.177984925719
-0.172690497304
-0.171152640973
-0.175656827359
-0.183667068312
-0.197010737852
-0.217831743961
-0.238754767404
-0.248693145775
-0.258769132931
-0.19296018681
-0.193109803375
-0.195029334746
-0.197840834851
-0.198077977726
-0.197830600598
-0.197753230476
-0.197743495093
-0.197780577032
-0.197848865454
-0.197942601218
-0.19805718303
-0.19818936504
-0.198336715452
-0.198497339171
-0.198669722524
-0.19885260927
-0.199044932121
-0.199245742702
-0.199454190219
-0.199669480591
-0.199890871404
-0.200117641598
-0.2003490978
-0.200584555835
-0.200823360228
-0.201064881557
-0.201308552859
-0.201553886593
-0.201800529762
-0.202048302873
-0.202297275955
-0.202547832336
-0.202800769975
-0.203057398755
-0.203319681591
-0.203590386341
-0.203873286047
-0.20417336003
-0.204496982899
-0.204852009081
-0.205247659666
-0.205694016011
-0.206200873903
-0.206775761968
-0.207421143469
-0.208131083648
-0.208887909135
-0.209659771141
-0.210401015112
-0.211057234183
-0.211575037205
-0.211913319353
-0.212051704105
-0.211993186036
-0.211758334709
-0.211367092368
-0.210822279429
-0.210107522193
-0.209220261269
-0.208177129866
-0.206978752456
-0.205578742288
-0.203863081135
-0.201681897051
-0.19885151084
-0.195181368261
-0.190521984774
-0.184826022302
-0.17822874655
-0.171171575137
-0.164558823066
-0.159926738146
-0.159437620741
-0.165911236219
-0.183502956546
-0.21476657871
-0.24622499924
-0.269670014245
-0.290549431617
-0.193151427735
-0.193418899594
-0.195306071004
-0.197530144436
-0.197806111241
-0.197591062177
-0.197549947049
-0.197555537878
-0.197599305959
-0.197669355715
-0.197762298057
-0.197874777529
-0.19800421464
-0.198148494071
-0.198305874898
-0.198474898275
-0.198654327305
-0.198843069717
-0.1990401485
-0.199244660809
-0.199455773373
-0.199672687174
-0.199894639649
-0.20012088028
-0.200350684813
-0.200583345651
-0.200818202569
-0.201054653261
-0.2012922038
-0.201530501806
-0.201769408425
-0.202009055629
-0.202249938147
-0.20249299308
-0.202739712791
-0.202992255319
-0.203253594969
-0.203527685117
-0.203819649524
-0.204135944131
-0.20448442846
-0.204874221148
-0.205315148892
-0.205816546446
-0.206385155135
-0.207022121646
-0.20771941551
-0.208456414836
-0.209197727297
-0.209893761692
-0.210486034166
-0.21091777926
-0.211147497705
-0.211159103839
-0.210963194775
-0.210588403612
-0.210061054028
-0.209379003944
-0.208502471701
-0.207378491714
-0.206007803086
-0.204394552535
-0.202488050662
-0.200174383311
-0.19728753647
-0.193641352416
-0.189029955144
-0.183256005205
-0.176167356858
-0.167719450241
-0.158105313682
-0.147977631145
-0.138739575438
-0.133077508468
-0.135675336805
-0.153181020659
-0.189169180974
-0.23235578941
-0.263604389634
-0.274031520059
-0.193376659716
-0.193733126679
-0.195556144823
-0.197221206856
-0.197531023508
-0.197344683723
-0.19733754707
-0.19735957463
-0.197411999287
-0.197485497547
-0.197578776702
-0.197689778891
-0.197816704995
-0.197957882749
-0.198111808626
-0.198277157086
-0.198452742281
-0.198637488446
-0.198830390023
-0.199030518392
-0.19923699167
-0.199448974768
-0.199665649699
-0.199886225421
-0.200109921546
-0.200335992698
-0.200563731543
-0.200792513305
-0.201021821929
-0.201251317224
-0.201480887875
-0.201710741589
-0.201941479895
-0.202174201655
-0.202410592638
-0.202653041128
-0.202904751038
-0.203169883639
-0.20345369884
-0.203762675797
-0.204104533836
-0.204488023603
-0.204922318516
-0.205415736068
-0.205973599451
-0.20659516111
-0.207269996351
-0.207974685967
-0.208671041541
-0.209307310408
-0.209823678686
-0.210162849979
-0.21028378615
-0.210173526742
-0.209848879699
-0.209344852284
-0.208692465213
-0.207888664534
-0.206875262284
-0.205553185665
-0.203846043945
-0.201763564014
-0.199285951576
-0.196298915315
-0.192619058429
-0.188025748321
-0.182264086485
-0.175030903257
-0.165987489612
-0.154817569859
-0.141381064138
-0.126013933021
-0.110030377374
-0.0965825362579
-0.0912830048806
-0.101127449069
-0.128980198465
-0.164479148497
-0.181610926064
-0.151224163655
-0.193574839398
-0.193994292087
-0.195739391157
-0.196931586028
-0.197277806318
-0.197114887049
-0.197135222565
-0.197169676114
-0.197228317692
-0.197303747902
-0.197396331717
-0.197505067361
-0.197628813026
-0.197766267172
-0.197916144667
-0.198077235394
-0.198248416645
-0.198428613583
-0.198616803932
-0.198812016218
-0.199013337713
-0.199219881296
-0.199430789519
-0.199645212642
-0.199862328146
-0.200081334504
-0.20030148962
-0.200522127902
-0.200742720883
-0.200962922161
-0.201182655737
-0.201402190273
-0.201622244582
-0.20184407485
-0.202069580754
-0.202301394074
-0.202542980132
-0.202798729661
-0.203074048599
-0.20337540768
-0.203710276745
-0.204086835802
-0.204513255139
-0.204996364891
-0.205539469924
-0.206139363404
-0.206782868625
-0.207443858173
-0.208082036799
-0.208644842764
-0.209073528274
-0.209313316616
-0.209326186178
-0.209101798245
-0.208660361361
-0.208041056651
-0.207277281251
-0.206366206179
-0.205242240716
-0.203775957459
-0.201819769381
-0.199294436042
-0.196208816947
-0.192491998348
-0.187948196442
-0.182316529394
-0.175276391581
-0.166418230992
-0.155255305029
-0.141293373497
-0.124223601572
-0.104258332206
-0.0827130154605
-0.0627923915466
-0.0497655498206
-0.048935005437
-0.0597899481469
-0.0701278488425
-0.0577954491342
-0.0118887422643
-0.193694428275
-0.194174789063
-0.19588730691
-0.196695945929
-0.197068725673
-0.196921806817
-0.196959320444
-0.196998208725
-0.197057096652
-0.197130239826
-0.197219172087
-0.197323552314
-0.197442563394
-0.197575084975
-0.197719916721
-0.19787590314
-0.198041926156
-0.198216890613
-0.19839972462
-0.198589416393
-0.198785002542
-0.198985555914
-0.199190158522
-0.199397915464
-0.199607940641
-0.199819388827
-0.200031462693
-0.200243465577
-0.200454835166
-0.200665223917
-0.200874569973
-0.201083205919
-0.201291950893
-0.201502223865
-0.201716133417
-0.201936571414
-0.202167279985
-0.202412906127
-0.20267902244
-0.202972084076
-0.203299263031
-0.203668021052
-0.204085288972
-0.204556019026
-0.205081028983
-0.20565413706
-0.206259080471
-0.206867097142
-0.207436456822
-0.207915217521
-0.208247723072
-0.208384488806
-0.208293036502
-0.207966372333
-0.207424253002
-0.206703164152
-0.205833158806
-0.204808131655
-0.203560026494
-0.201950386257
-0.199792082291
-0.196912217075
-0.193226915323
-0.188694182249
-0.183169337543
-0.176365065125
-0.167879343571
-0.157208923628
-0.143795899829
-0.12711520187
-0.106910515584
-0.0835511570083
-0.0585819824847
-0.0352431740939