/*--------------------------------*- C++ -*----------------------------------*\
| =========                 |                                                 |
| \\      /  F ield         | OpenFOAM: The Open Source CFD Toolbox           |
|  \\    /   O peration     | Version:  v1806                                 |
|   \\  /    A nd           | Web:      www.OpenFOAM.com                      |
|    \\/     M anipulation  |                                                 |
\*---------------------------------------------------------------------------*/
FoamFile
{
    version     2.0;
    format      ascii;
    class       surfaceScalarField;
    location    "554";
    object      phi;
}
// * * * * * * * * * * * * * * * * * * * * * * * * * * * * * * * * * * * * * //

dimensions      [0 3 -1 0 0 0 0];
oriented        oriented;


internalField   nonuniform List<scalar> 
12640
(
-2.20589306093e-07
2.21428403815e-07
-4.18682113621e-07
1.98725338808e-07
-5.89406073655e-07
1.71185670026e-07
-7.31078287514e-07
1.42025910652e-07
-8.34015889385e-07
1.03262581815e-07
-8.97270783818e-07
6.36019664436e-08
-9.40873141238e-07
4.3926864884e-08
-1.00846613306e-06
6.78853968073e-08
-1.10145166763e-06
9.32452514999e-08
-1.18800804697e-06
8.67790651619e-08
-1.26683028492e-06
7.89996053823e-08
-1.34820992588e-06
8.15386243346e-08
-1.4200837205e-06
7.2016396655e-08
-1.47781380876e-06
5.78648738618e-08
-1.52939364245e-06
5.17073755357e-08
-1.58839621744e-06
5.91385150126e-08
-1.64902801698e-06
6.07601170786e-08
-1.69859347935e-06
4.96905570395e-08
-1.73544704932e-06
3.69530310515e-08
-1.76836430232e-06
3.30029870177e-08
-1.81447069747e-06
4.6180249553e-08
-1.87502337813e-06
6.06268201152e-08
-1.93795168748e-06
6.29951272391e-08
-1.99717138001e-06
5.9287862085e-08
-2.0505032846e-06
5.33928894468e-08
-2.09797905426e-06
4.75391426039e-08
-2.14201959948e-06
4.40975848399e-08
-2.1814166297e-06
3.94576593137e-08
-2.21493958818e-06
3.35759090195e-08
-2.24383849358e-06
2.89546241994e-08
-2.27133110058e-06
2.75391234089e-08
-2.29621334935e-06
2.49318576276e-08
-2.31627725305e-06
2.01090467996e-08
-2.33607556106e-06
1.98426181171e-08
-2.35576782877e-06
1.97227240895e-08
-2.37407613958e-06
1.83406775499e-08
-2.39313655394e-06
1.90793497141e-08
-2.41064451466e-06
1.75202781572e-08
-2.42375870416e-06
1.31133252376e-08
-2.43380962116e-06
1.00509240171e-08
-2.44634756692e-06
1.25282265825e-08
-2.45620644646e-06
9.84986025352e-09
-2.45335324306e-06
-2.87334536545e-09
-2.44133705792e-06
-1.20408409418e-08
-2.424352052e-06
-1.70243561764e-08
-2.4015400691e-06
-2.28555159819e-08
-2.37223721961e-06
-2.93624171551e-08
-2.3348966959e-06
-3.74054829192e-08
-2.28945244847e-06
-4.5525872421e-08
-2.24078705012e-06
-4.87509566679e-08
-2.19439235339e-06
-4.65016737022e-08
-2.14191279052e-06
-5.25879634394e-08
-2.06502713144e-06
-7.70060046376e-08
-1.96873635659e-06
-9.64154490354e-08
-1.85549541085e-06
-1.133739315e-07
-1.71889554118e-06
-1.36730512634e-07
-1.57757363545e-06
-1.41476276661e-07
-1.43732318547e-06
-1.40425910938e-07
-1.27694885338e-06
-1.60574174692e-07
-1.09604210427e-06
-1.8114572513e-07
-9.07092304974e-07
-1.89251847834e-07
-6.88938963645e-07
-2.18517552228e-07
-3.7115678421e-07
-3.18218025761e-07
-9.44721834461e-08
-2.770240912e-07
7.29771644849e-08
-1.67657436943e-07
1.7761317431e-07
-1.04770365928e-07
2.52494835468e-07
-7.50044284156e-08
3.11899645729e-07
-5.95182596678e-08
3.56245852383e-07
-4.44580262048e-08
3.82133190541e-07
-2.60048673946e-08
3.87307535114e-07
-5.30117596285e-09
3.72717496517e-07
1.44550867822e-08
3.41544220456e-07
3.10253913194e-08
2.92664829837e-07
4.87097152035e-08
2.41766337385e-07
5.07191233483e-08
1.91808163449e-07
4.97654717382e-08
1.5378638867e-07
3.78457049891e-08
1.08463685932e-07
4.50943453117e-08
6.59843249649e-08
4.20593463275e-08
6.57675074459e-08
-1.14725831284e-07
3.36487536163e-07
-2.65970923803e-07
3.50393546222e-07
-4.11000117954e-07
3.16538693581e-07
-5.60100211231e-07
2.91396590939e-07
-7.45187201605e-07
2.88662152107e-07
-8.84930089116e-07
2.03656304653e-07
-9.64276827552e-07
1.23602057919e-07
-1.03808816337e-06
1.41986948779e-07
-1.11876132597e-06
1.74180065714e-07
-1.20613066285e-06
1.74355267253e-07
-1.28893281052e-06
1.61989703985e-07
-1.35728406664e-06
1.50039697514e-07
-1.41819362132e-06
1.33080030661e-07
-1.47557499805e-06
1.15390045996e-07
-1.53044600644e-06
1.06740272703e-07
-1.59157348722e-06
1.20406014397e-07
-1.64711427855e-06
1.16441502521e-07
-1.67521558383e-06
7.78900498447e-08
-1.69841040714e-06
6.0241270972e-08
-1.73883352181e-06
7.3494548205e-08
-1.79764048875e-06
1.05065610067e-07
-1.87166163708e-06
1.3470994692e-07
-1.94234556918e-06
1.33757306509e-07
-1.99760414974e-06
1.14604970937e-07
-2.04765616765e-06
1.03517467919e-07
-2.09897217121e-06
9.89087744986e-08
-2.14378376657e-06
8.89786587839e-08
-2.18135174061e-06
7.70754975715e-08
-2.21454594958e-06
6.68353819091e-08
-2.24408942073e-06
5.85430667736e-08
-2.26937117767e-06
5.28816308299e-08
-2.29114652496e-06
4.67509211453e-08
-2.30825657358e-06
3.7273708987e-08
-2.32607960306e-06
3.76991372764e-08
-2.34940176546e-06
4.3092110623e-08
-2.36870905146e-06
3.76647727693e-08
-2.38614209065e-06
3.6538359066e-08
-2.40821606543e-06
3.95954158908e-08
-2.43114239651e-06
3.60524606249e-08
-2.44494395469e-06
2.38414707078e-08
-2.43071951189e-06
-1.69098726142e-09
-2.40077048694e-06
-2.01174108598e-08
-2.38376520094e-06
-1.98866684702e-08
-2.37607404106e-06
-1.97681187616e-08
-2.36762394611e-06
-2.55026140874e-08
-2.35632953523e-06
-3.42059192341e-08
-2.33893851851e-06
-4.6801881386e-08
-2.31509357759e-06
-6.1326758375e-08
-2.28294830406e-06
-7.77420884226e-08
-2.23396661677e-06
-9.78308587151e-08
-2.1616914081e-06
-1.1886902574e-07
-2.08268734647e-06
-1.31707756258e-07
-2.02638040591e-06
-1.33428101493e-07
-1.95950111992e-06
-1.63432038988e-07
-1.85999492444e-06
-2.13015285732e-07
-1.75482585492e-06
-2.42054873455e-07
-1.63685301099e-06
-2.59614356531e-07
-1.49381229171e-06
-2.83656198291e-07
-1.33622029793e-06
-3.18383585422e-07
-1.15459620507e-06
-3.63021833977e-07
-9.16363755946e-07
-4.27762386957e-07
-6.5415116809e-07
-4.81074204926e-07
-3.59718238526e-07
-6.13058699943e-07
-1.02207802312e-07
-5.34830849449e-07
6.72831126644e-08
-3.37318173048e-07
1.73442828111e-07
-2.11062469266e-07
2.53960766684e-07
-1.55626869952e-07
3.21162621684e-07
-1.26832459812e-07
3.69316121648e-07
-9.2722831571e-08
3.93901052904e-07
-5.06981168585e-08
3.91812096553e-07
-3.32867372096e-09
3.67686246762e-07
3.84542832753e-08
3.36104308242e-07
6.24597023928e-08
3.05033867522e-07
7.96061535217e-08
2.65646922181e-07
8.99131751497e-08
2.23718353436e-07
9.14961568109e-08
1.75709117866e-07
8.55837257779e-08
1.30262851965e-07
9.02790854187e-08
6.87011567495e-08
1.03329190887e-07
1.34115885599e-07
-1.49232266162e-07
4.86177943068e-07
-2.24294067104e-07
4.25797071966e-07
-4.0099310097e-07
4.93564079046e-07
-6.03943081689e-07
4.94678730783e-07
-7.87304582527e-07
4.72338832436e-07
-8.8092829278e-07
2.97532166603e-07
-9.2685298442e-07
1.69763389216e-07
-1.00857134983e-06
2.23956047105e-07
-1.1040394138e-06
2.6987273302e-07
-1.19717176128e-06
2.67683359537e-07
-1.28304665984e-06
2.48031013068e-07
-1.35511988161e-06
2.22280984397e-07
-1.41654960906e-06
1.94683001185e-07
-1.47531450244e-06
1.74331474336e-07
-1.51940845746e-06
1.50998887393e-07
-1.50423101024e-06
1.05371433128e-07
-1.45660843128e-06
6.89171860297e-08
-1.46016955538e-06
8.15323050956e-08
-1.53190874407e-06
1.32047699221e-07
-1.66348953026e-06
2.05146234847e-07
-1.79653946001e-06
2.38188301019e-07
-1.8775328116e-06
2.15781955758e-07
-1.93467873677e-06
1.90971862436e-07
-1.99596600149e-06
1.75963783609e-07
-2.05304779321e-06
1.60662161e-07
-2.0995998968e-06
1.45527154949e-07
-2.14056750239e-06
1.30003975319e-07
-2.17803958413e-06
1.14609828072e-07
-2.21100990747e-06
9.9859906751e-08
-2.24057147447e-06
8.81642457671e-08
-2.26385230882e-06
7.62153582153e-08
-2.28380987028e-06
6.67610602414e-08
-2.30433294739e-06
5.78458537939e-08
-2.31341057966e-06
4.68240355349e-08
-2.32786344631e-06
5.75728981822e-08
-2.35959572771e-06
6.94251076301e-08
-2.38076029101e-06
5.77181528264e-08
-2.39734349836e-06
5.61913213146e-08
-2.42428012334e-06
6.29908459883e-08
-2.44677512265e-06
4.63429098528e-08
-2.45991664474e-06
1.14465981177e-08
-2.46441611077e-06
-1.56227664577e-08
-2.45847449185e-06
-2.58482029694e-08
-2.44607931213e-06
-3.21852607223e-08
-2.42916355727e-06
-4.24553561577e-08
-2.40671316572e-06
-5.66964070645e-08
-2.37895774878e-06
-7.46134479771e-08
-2.3451070804e-06
-9.52382778171e-08
-2.304347099e-06
-1.18579273738e-07
-2.25740482178e-06
-1.44855121635e-07
-2.20487705521e-06
-1.71495631747e-07
-2.14145824507e-06
-1.95233569261e-07
-2.05331697901e-06
-2.21691821367e-07
-1.95289146673e-06
-2.63986189966e-07
-1.85794110829e-06
-3.08110800586e-07
-1.75372725067e-06
-3.46426072228e-07
-1.62535054167e-06
-3.88166243819e-07
-1.4732716077e-06
-4.35926024738e-07
-1.29954137078e-06
-4.92318743282e-07
-1.10065969593e-06
-5.62129410715e-07
-8.82098712976e-07
-6.46582181465e-07
-6.10853874716e-07
-7.52626905865e-07
-3.49014342364e-07
-8.75185684086e-07
-1.13396700997e-07
-7.70672838429e-07
6.78212368591e-08
-5.18710229621e-07
1.9224532849e-07
-3.35594655175e-07
2.826295073e-07
-2.46134907076e-07
3.42966385976e-07
-1.87266424818e-07
3.79973838794e-07
-1.29819707306e-07
3.94696475644e-07
-6.55135234022e-08
3.92892721859e-07
-1.63330089032e-09
3.84254335585e-07
4.69626179103e-08
3.64026429793e-07
8.25325416677e-08
3.26312175554e-07
1.17147147045e-07
2.72915102689e-07
1.43118500794e-07
2.15653070764e-07
1.48526921019e-07
1.64985536307e-07
1.36087667273e-07
1.24749010226e-07
1.30278602784e-07
5.39483498209e-08
1.73672906684e-07
1.88034034639e-07
-1.06851103313e-07
5.93248293213e-07
-1.42014060672e-07
4.61187403954e-07
-3.44839605175e-07
6.96707664078e-07
-5.08801348032e-07
6.5896951913e-07
-5.17701867388e-07
4.81473376211e-07
-4.5549200695e-07
2.35431551725e-07
-6.26195979567e-07
3.40599933594e-07
-8.90339129198e-07
4.88288756932e-07
-1.06040359157e-06
4.40134896171e-07
-1.17474534783e-06
3.82203883662e-07
-1.27242268962e-06
3.45889036809e-07
-1.35401364302e-06
3.040607179e-07
-1.40916180828e-06
2.50019572752e-07
-1.40390172026e-06
1.69247574331e-07
-1.35185780184e-06
9.9097172535e-08
-1.33145496413e-06
8.50682664336e-08
-1.38460446591e-06
1.22145702333e-07
-1.50582790347e-06
2.02825736946e-07
-1.65448923055e-06
2.8078560202e-07
-1.75716687037e-06
3.07905273732e-07
-1.81598022607e-06
2.97084208615e-07
-1.87833760818e-06
2.7821492004e-07
-1.94255058654e-06
2.55259852801e-07
-1.99852444923e-06
2.32006166967e-07
-2.04836496141e-06
2.10571799157e-07
-2.09317822546e-06
1.90402879625e-07
-2.13515802708e-06
1.72048268615e-07
-2.17281056291e-06
1.52319647913e-07
-2.20662118206e-06
1.33731091194e-07
-2.23369872233e-06
1.15299337109e-07
-2.25907493772e-06
1.01649761575e-07
-2.27542915082e-06
8.31711008662e-08
-2.28390106149e-06
6.63652748271e-08
-2.31165394882e-06
7.46139881118e-08
-2.33568479819e-06
8.16377810969e-08
-2.3567526688e-06
9.05146395784e-08
-2.39863384069e-06
9.96175113451e-08
-2.43388864027e-06
9.14583226164e-08
-2.44752398383e-06
7.66395586338e-08
-2.45366347304e-06
5.24870460018e-08
-2.46117873931e-06
1.89628933032e-08
-2.46619072317e-06
-1.06198426667e-08
-2.46285769901e-06
-2.91928624214e-08
-2.45181173877e-06
-4.32527161735e-08
-2.43495223306e-06
-5.93405534832e-08
-2.41255957842e-06
-7.91264238146e-08
-2.38463904322e-06
-1.02577830754e-07
-2.35067363067e-06
-1.29260996861e-07
-2.31014487419e-06
-1.59173404047e-07
-2.2628648578e-06
-1.92214550022e-07
-2.20729012103e-06
-2.27158375679e-07
-2.13898688044e-06
-2.636376774e-07
-2.05514336378e-06
-3.05646096442e-07
-1.96262441607e-06
-3.56632703119e-07
-1.86065414161e-06
-4.1022152626e-07
-1.74158216154e-06
-4.65655064313e-07
-1.60101763391e-06
-5.28900611692e-07
-1.43538889866e-06
-6.01734534993e-07
-1.24171533773e-06
-6.86181177664e-07
-1.01905120719e-06
-7.84981602984e-07
-7.70542714443e-07
-8.95303043835e-07
-5.18283094217e-07
-1.00510289237e-06
-3.36257022016e-07
-1.05745628301e-06
-1.24106515644e-07
-9.83030123444e-07
8.94292863739e-08
-7.32357853096e-07
2.21805801346e-07
-4.68106312375e-07
3.12215729791e-07
-3.36608544135e-07
3.78813846258e-07
-2.53950490883e-07
4.22835659455e-07
-1.73918736087e-07
4.46209485227e-07
-8.89690402927e-08
4.48544457634e-07
-4.07235070432e-09
4.24121338349e-07
7.12552885255e-08
3.70057192393e-07
1.36457940034e-07
3.0397232226e-07
1.83085455326e-07
2.40131083249e-07
2.06802623226e-07
1.7412887356e-07
2.14386029319e-07
1.15178057317e-07
1.94824433725e-07
7.63251870017e-08
1.68988623258e-07
3.8758273305e-08
2.11216879986e-07
2.26616461436e-07
-2.09570934559e-08
6.14442824742e-07
-1.26785844591e-07
5.6720015076e-07
-2.91623358327e-07
8.61832280655e-07
-4.09266129031e-07
7.76895430279e-07
-3.85664113619e-07
4.58026869735e-07
-4.78567868196e-07
3.28424797892e-07
-6.97319850522e-07
5.59482070527e-07
-8.6580524206e-07
6.56952576159e-07
-1.00488107853e-06
5.79384617095e-07
-1.13070022907e-06
5.08208280258e-07
-1.24455470396e-06
4.59946477083e-07
-1.30312372544e-06
3.62816729999e-07
-1.27808089593e-06
2.25144399403e-07
-1.24873485225e-06
1.40029504721e-07
-1.28740807676e-06
1.37865616421e-07
-1.3858378763e-06
1.83581090705e-07
-1.52104523722e-06
2.57432646063e-07
-1.64056788118e-06
3.22431076272e-07
-1.70684130887e-06
3.4714526256e-07
-1.75230190579e-06
3.53452680776e-07
-1.81301704309e-06
3.57883050626e-07
-1.87862750878e-06
3.43906031729e-07
-1.93932053459e-06
3.16028109814e-07
-1.99323233695e-06
2.85991607903e-07
-2.04162580313e-06
2.59033625086e-07
-2.08744322025e-06
2.36288876713e-07
-2.12728790066e-06
2.11952685362e-07
-2.16560026982e-06
1.90694564127e-07
-2.19655759878e-06
1.64751295218e-07
-2.22366795581e-06
1.42473243306e-07
-2.23907941915e-06
1.17120158877e-07
-2.26095895041e-06
1.05101309682e-07
-2.29817574575e-06
1.03625202726e-07
-2.31829741162e-06
9.47707931749e-08
-2.34835792914e-06
1.11724852094e-07
-2.39024665691e-06
1.32428006717e-07
-2.41996081698e-06
1.2935317026e-07
-2.44044275256e-06
1.11960846112e-07
-2.4525201218e-06
8.87313176013e-08
-2.45994771167e-06
5.99247498291e-08
-2.46699765478e-06
2.60151515283e-08
-2.47153634731e-06
-6.08322170141e-09
-2.46923280261e-06
-3.15055929978e-08
-2.45935360203e-06
-5.31449948482e-08
-2.44304625794e-06
-7.56685322066e-08
-2.42092287511e-06
-1.01276371386e-07
-2.39303536456e-06
-1.30501920869e-07
-2.35897840371e-06
-1.63363337155e-07
-2.31816920196e-06
-2.00039869953e-07
-2.2697760398e-06
-2.40674735465e-07
-2.21186996368e-06
-2.85143188596e-07
-2.14150359521e-06
-3.34093642564e-07
-2.05763701945e-06
-3.8961703325e-07
-1.96205768515e-06
-4.52330648348e-07
-1.85205136758e-06
-5.2036446014e-07
-1.72155295969e-06
-5.96303400901e-07
-1.56552975802e-06
-6.85084584623e-07
-1.37931382924e-06
-7.88109977522e-07
-1.16115734475e-06
-9.04482691247e-07
-9.17489951849e-07
-1.02880408261e-06
-6.67703274488e-07
-1.14522859903e-06
-4.50503489488e-07
-1.22247617738e-06
-2.96830723415e-07
-1.21125804835e-06
-7.97627650288e-08
-1.20018200966e-06
1.23363413131e-07
-9.35640138039e-07
2.68549689723e-07
-6.13295292451e-07
3.69525001953e-07
-4.37678800024e-07
4.39305296457e-07
-3.23773021699e-07
4.84380166176e-07
-2.19041521634e-07
5.0843266716e-07
-1.13085879089e-07
4.9726921616e-07
6.99828512198e-09
4.398650542e-07
1.28557066101e-07
3.62978809402e-07
2.13244747085e-07
2.85477313297e-07
2.60492676779e-07
2.08407919373e-07
2.83763098433e-07
1.38126419363e-07
2.84520339921e-07
9.48110834829e-08
2.38124528232e-07
5.77484401464e-08
2.05995298094e-07
2.28215611493e-08
2.45899476277e-07
2.49497512381e-07
-1.0253702384e-08
6.24755089791e-07
-1.56234687556e-07
7.13342650844e-07
-2.47710402493e-07
9.53552372697e-07
-3.04134748262e-07
8.33509874163e-07
-2.98238019771e-07
4.52227254801e-07
-5.23952441994e-07
5.54244601714e-07
-7.41183877344e-07
7.76866869521e-07
-8.44710406582e-07
7.60632620341e-07
-9.60424858767e-07
6.95280520083e-07
-1.06813346829e-06
6.16116435363e-07
-1.12146401411e-06
5.13467600233e-07
-1.07645930715e-06
3.17966971739e-07
-1.06906753491e-06
2.17862151248e-07
-1.14303323932e-06
2.14079678533e-07
-1.26700724567e-06
2.61914880943e-07
-1.42913848657e-06
3.45789454086e-07
-1.5682146688e-06
3.9659540928e-07
-1.63732448113e-06
3.91634565056e-07
-1.68097502846e-06
3.90888129694e-07
-1.74707753427e-06
4.19645741316e-07
-1.81497351304e-06
4.25866660945e-07
-1.87454758355e-06
4.03562851675e-07
-1.93138179498e-06
3.72941113026e-07
-1.98691576908e-06
3.4159837035e-07
-2.03670463277e-06
3.08894471934e-07
-2.07279347658e-06
2.72443579668e-07
-2.1139253912e-06
2.53151502443e-07
-2.14912297553e-06
2.25957177006e-07
-2.18097107225e-06
1.96662483205e-07
-2.19471023226e-06
1.5627384295e-07
-2.21221203881e-06
1.3467897898e-07
-2.23854496198e-06
1.31481704392e-07
-2.26439931306e-06
1.29516553612e-07
-2.32223029125e-06
1.52632646715e-07
-2.37545891353e-06
1.64982004911e-07
-2.40852419307e-06
1.65521727039e-07
-2.43046007989e-06
1.51316949214e-07
-2.44681349414e-06
1.28338822323e-07
-2.45870121537e-06
1.00639614264e-07
-2.4674984488e-06
6.8735741809e-08
-2.47473186236e-06
3.32562112678e-08
-2.47897599057e-06
-1.83756452245e-09
-2.47725472337e-06
-3.3228998216e-08
-2.46842064612e-06
-6.1985760575e-08
-2.45293278496e-06
-9.11675151855e-08
-2.4313066927e-06
-1.2292016877e-07
-2.40361082886e-06
-1.58222728081e-07
-2.36943559715e-06
-1.97572593387e-07
-2.3280439635e-06
-2.4147546353e-07
-2.27830499112e-06
-2.90468295254e-07
-2.21839054931e-06
-3.45123010023e-07
-2.14615989185e-06
-4.06401858447e-07
-2.06032132849e-06
-4.75547125659e-07
-1.95956932901e-06
-5.53190480615e-07
-1.83950973619e-06
-6.40544872227e-07
-1.69403804552e-06
-7.41910637055e-07
-1.51814582812e-06
-8.61110166227e-07
-1.30953133188e-06
-9.96850997209e-07
-1.07265632657e-06
-1.14148777306e-06
-8.23293719831e-07
-1.2782572781e-06
-5.88358916479e-07
-1.38029626584e-06
-3.92923086106e-07
-1.41800679707e-06
-2.22515527953e-07
-1.38176068903e-06
-3.10435946751e-08
-1.39182623718e-06
1.62229296296e-07
-1.128861492e-06
3.08252992536e-07
-7.59482539867e-07
4.31281443572e-07
-5.60684862665e-07
5.224470034e-07
-4.14990094784e-07
5.81381408948e-07
-2.78016878233e-07
5.98435936555e-07
-1.30192899619e-07
5.47614552316e-07
5.77540003481e-08
4.58696935128e-07
2.17407304772e-07
3.62872231895e-07
3.09009320156e-07
2.663655822e-07
3.56928618978e-07
1.77371329477e-07
3.72687547052e-07
1.15578632241e-07
3.4629302308e-07
7.19025347079e-08
2.81697374904e-07
3.7936457771e-08
2.39906052211e-07
1.60715849769e-08
2.67881410047e-07
2.65411617482e-07
-5.98508710649e-08
6.84758471794e-07
-2.29327574049e-07
8.82985323129e-07
-3.09234757806e-07
1.03368866284e-06
-2.71840813665e-07
7.96281355355e-07
-3.60225667357e-07
5.40700583996e-07
-6.07321128801e-07
8.01464366157e-07
-7.28951923324e-07
8.98638347965e-07
-8.18273464638e-07
8.50124297656e-07
-8.99650547028e-07
7.76829142064e-07
-1.00861429458e-06
7.25275752435e-07
-9.98484664308e-07
5.03504717892e-07
-9.76110395572e-07
2.9570111323e-07
-1.04903313174e-06
2.90866872237e-07
-1.15405059313e-06
3.19160224726e-07
-1.31221097482e-06
4.20146391474e-07
-1.46529891133e-06
4.98969473025e-07
-1.54118411253e-06
4.72578292886e-07
-1.58744540638e-06
4.37988990361e-07
-1.66627832943e-06
4.69813760861e-07
-1.744445417e-06
4.97906292565e-07
-1.80814535691e-06
4.89656643879e-07
-1.86799896335e-06
4.63502606957e-07
-1.92606418782e-06
4.31083842983e-07
-1.97534958187e-06
3.90960350632e-07
-2.01540130479e-06
3.49020058889e-07
-2.05506332644e-06
3.12173924065e-07
-2.08524540898e-06
2.83399994133e-07
-2.12171772562e-06
2.62492674275e-07
-2.14531431056e-06
2.20322620473e-07
-2.16119228471e-06
1.72211186537e-07
-2.19273763232e-06
1.66275643327e-07
-2.23118871719e-06
1.69976974634e-07
-2.28482252404e-06
1.83185668728e-07
-2.33778627543e-06
2.056288759e-07
-2.38859288111e-06
2.15822913505e-07
-2.41891393116e-06
1.95877487958e-07
-2.43835399469e-06
1.70789480748e-07
-2.45385876601e-06
1.43872900052e-07
-2.46658821309e-06
1.13393174578e-07
-2.47662104529e-06
7.87874184214e-08
-2.48428578332e-06
4.09341240313e-08
-2.48853731498e-06
2.42319090697e-09
-2.48729379791e-06
-3.44670650687e-08
-2.47937895884e-06
-6.98980455027e-08
-2.4647939899e-06
-1.05753942458e-07
-2.44380835725e-06
-1.43911827318e-07
-2.41638083191e-06
-1.85662392581e-07
-2.38203557694e-06
-2.31937645784e-07
-2.339946339e-06
-2.83593209674e-07
-2.28891225496e-06
-3.41541406078e-07
-2.22724035803e-06
-4.068446715e-07
-2.15289403904e-06
-4.80811194596e-07
-2.06358505707e-06
-5.64934049975e-07
-1.95577793514e-06
-6.61090054791e-07
-1.82375029835e-06
-7.72685705937e-07
-1.66143587064e-06
-9.04343004197e-07
-1.46553835466e-06
-1.05713305648e-06
-1.2384352046e-06
-1.22408218824e-06
-9.91750690875e-07
-1.38825264897e-06
-7.45507143445e-07
-1.52463354989e-06
-5.26214553973e-07
-1.59967265493e-06
-3.45467028212e-07
-1.59888282479e-06
-1.62241764712e-07
-1.56514438493e-06
-3.18531798355e-08
-1.5221642782e-06
1.94778455109e-07
-1.35581309768e-06
3.76215712856e-07
-9.40801099701e-07
5.36896955283e-07
-7.21474572512e-07
6.6354282482e-07
-5.4162489718e-07
7.27047987563e-07
-3.41535733338e-07
7.03647082325e-07
-1.06810943191e-07
6.09357078306e-07
1.52015693023e-07
4.932278368e-07
3.33506639026e-07
3.66152460179e-07
4.36042897479e-07
2.43385051001e-07
4.79670197663e-07
1.44474702895e-07
4.71558676241e-07
8.85553232943e-08
4.02145214651e-07
4.23027096421e-08
3.28007955803e-07
1.18770653286e-08
2.70357332989e-07
5.49432657365e-09
2.73993574639e-07
2.70963245235e-07
-1.07625622273e-07
7.92433657225e-07
-2.54020404819e-07
1.02954236974e-06
-2.92188528365e-07
1.0719922464e-06
-2.11789870251e-07
7.15974426332e-07
-4.02441079963e-07
7.31448592313e-07
-6.04460116655e-07
1.00361364446e-06
-6.9758314698e-07
9.91916062215e-07
-7.9388218047e-07
9.46582215831e-07
-8.22665643822e-07
8.05800882081e-07
-8.61581298699e-07
7.64349081171e-07
-8.40934256519e-07
4.82967066763e-07
-9.42685468681e-07
3.97531229759e-07
-1.03907760761e-06
3.87320240464e-07
-1.18325471746e-06
4.6340410492e-07
-1.34504461541e-06
5.82021157245e-07
-1.43241603206e-06
5.86437352315e-07
-1.47983560629e-06
5.20094361239e-07
-1.56716947649e-06
5.25417561273e-07
-1.66127850573e-06
5.6401890459e-07
-1.73255018033e-06
5.6927391471e-07
-1.79298002254e-06
5.50178548619e-07
-1.85138824463e-06
5.21992933917e-07
-1.91293865281e-06
4.92716716508e-07
-1.97112387406e-06
4.49226493439e-07
-2.00595052251e-06
3.83916971763e-07
-2.0487764864e-06
3.55071789031e-07
-2.08121986439e-06
3.15910647441e-07
-2.0918144581e-06
2.7315192666e-07
-2.11471017115e-06
2.43277208867e-07
-2.17759854643e-06
2.35154176899e-07
-2.22083015892e-06
2.09558177095e-07
-2.24273641612e-06
1.91922876975e-07
-2.29869442977e-06
2.39181296989e-07
-2.36209181445e-06
2.69064669369e-07
-2.39850021171e-06
2.5227089885e-07
-2.42479440367e-06
2.22210831148e-07
-2.44535276767e-06
1.91384949807e-07
-2.46208194901e-06
1.60635710771e-07
-2.47601313171e-06
1.2735383375e-07
-2.48724481264e-06
9.00436194955e-08
-2.49557014434e-06
4.92796122159e-08
-2.50012791988e-06
6.99747586104e-09
-2.49945980729e-06
-3.51209172937e-08
-2.49247237073e-06
-7.68734421451e-08
-2.47884748452e-06
-1.19369062303e-07
-2.45857961525e-06
-1.64173199133e-07
-2.43146361597e-06
-2.12776628638e-07
-2.39694636858e-06
-2.66459114309e-07
-2.35418712078e-06
-3.26365322551e-07
-2.30202051057e-06
-3.93730339134e-07
-2.23878900796e-06
-4.70111399636e-07
-2.16214103459e-06
-5.57507331545e-07
-2.06861219589e-06
-6.58527441078e-07
-1.95298501331e-06
-7.76797082388e-07
-1.80873547899e-06
-9.17031353055e-07
-1.6307108883e-06
-1.08246378829e-06
-1.41849150708e-06
-1.26947154153e-06
-1.17721658704e-06
-1.46544288566e-06
-9.19780235198e-07
-1.64584284148e-06
-6.66697941661e-07
-1.77779591225e-06
-4.45000730205e-07
-1.82153347105e-06
-2.64768874393e-07
-1.77924643923e-06
-1.22594363604e-07
-1.70734330488e-06
-1.37899465322e-08
-1.63130801729e-06
1.87650146309e-07
-1.55702687449e-06
4.62306183775e-07
-1.21571395034e-06
6.67066053391e-07
-9.26152482991e-07
8.20686283947e-07
-6.95266288008e-07
8.77302217384e-07
-3.98159392669e-07
8.21130276726e-07
-5.065013575e-08
6.97164278486e-07
2.75972033392e-07
5.38092784608e-07
4.92547878316e-07
3.64393948493e-07
6.09732237335e-07
2.08703976386e-07
6.35306973952e-07
1.00964401327e-07
5.79284758438e-07
3.66179096912e-08
4.66525837142e-07
-3.10938403514e-09
3.67688281018e-07
-2.45364965968e-08
2.91705932862e-07
-1.54487585394e-08
2.65062789804e-07
2.55412693198e-07
-1.38129226293e-07
9.30735111279e-07
-2.48007118695e-07
1.13957938201e-06
-2.41341505258e-07
1.06548197632e-06
-2.63256336645e-07
7.37974144007e-07
-4.73969874168e-07
9.42270507848e-07
-5.68553655062e-07
1.09833862758e-06
-6.55937892461e-07
1.0794613471e-06
-7.48547976538e-07
1.03935377569e-06
-7.86099376837e-07
8.43491821441e-07
-8.25940205218e-07
8.04340044764e-07
-8.51549450789e-07
5.08653911151e-07
-9.42285633482e-07
4.88329783055e-07
-1.05568209415e-06
5.00769875229e-07
-1.2156944646e-06
6.2348369721e-07
-1.35202535941e-06
7.18450297666e-07
-1.41124297052e-06
6.45759974092e-07
-1.46843977963e-06
5.77386666002e-07
-1.55829563908e-06
6.15368259823e-07
-1.64477700758e-06
6.50597951379e-07
-1.71739341989e-06
6.41984642103e-07
-1.78002474978e-06
6.12894995404e-07
-1.83227980015e-06
5.74335294416e-07
-1.87873700025e-06
5.39263282421e-07
-1.92763875209e-06
4.98205516345e-07
-1.97081148993e-06
4.27166943561e-07
-2.00195766483e-06
3.86289415638e-07
-2.04751776942e-06
3.61534550789e-07
-2.0965439403e-06
3.22243079786e-07
-2.13859524708e-06
2.85389151628e-07
-2.17277330482e-06
2.69385294261e-07
-2.21650463496e-06
2.53331844125e-07
-2.29186901396e-06
2.67327283462e-07
-2.34007863341e-06
2.87430655423e-07
-2.37405333808e-06
3.0308205478e-07
-2.40456994093e-06
2.82832614009e-07
-2.43102390625e-06
2.48709175614e-07
-2.45322293077e-06
2.13625533259e-07
-2.47151504504e-06
1.78965982699e-07
-2.48671006775e-06
1.42583080864e-07
-2.49914513954e-06
1.02509357535e-07
-2.50844801372e-06
5.8609942793e-08
-2.51371676265e-06
1.22917364183e-08
-2.51383033559e-06
-3.49834141701e-08
-2.50786793216e-06
-8.28125417774e-08
-2.49530248196e-06
-1.31912282919e-07
-2.47582726578e-06
-1.8362775049e-07
-2.44907281811e-06
-2.39513372568e-07
-2.41445453816e-06
-3.01065061171e-07
-2.3711734974e-06
-3.6964123517e-07
-2.31815207093e-06
-4.46758604909e-07
-2.2537288057e-06
-5.34551731113e-07
-2.17514557885e-06
-6.36126777993e-07
-2.07789940392e-06
-7.55817413328e-07
-1.9556230268e-06
-8.99148216574e-07
-1.80153262585e-06
-1.07118436329e-06
-1.61163249313e-06
-1.27248118994e-06
-1.38664292883e-06
-1.4945727398e-06
-1.12733985432e-06
-1.72492630211e-06
-8.46423242944e-07
-1.92686454102e-06
-5.72477160655e-07
-2.05193859484e-06
-3.4532215083e-07
-2.0488090733e-06
-1.81639253463e-07
-1.94305602603e-06
-6.26674014361e-08
-1.82654454001e-06
5.45194554461e-08
-1.74837423567e-06
1.91037554986e-07
-1.69399250436e-06
5.04163594548e-07
-1.52870710864e-06
8.45406825495e-07
-1.26754171711e-06
1.03748190223e-06
-8.87387309648e-07
1.08975280041e-06
-4.50466295072e-07
9.95171020276e-07
4.39010133424e-08
8.19474552085e-07
4.51628539264e-07
5.8930044025e-07
7.22708274185e-07
3.48947402802e-07
8.50007736231e-07
1.49727335976e-07
8.3454037407e-07
2.08815721451e-08
7.08101384168e-07
-5.34333458213e-08
5.40834647608e-07
-7.6708136388e-08
3.91020624762e-07
-7.07775844021e-08
2.85893018811e-07
-4.03568248263e-08
2.34450174459e-07
2.15113977904e-07
-1.57276339116e-07
1.0880484623e-06
-2.59636005659e-07
1.24205359964e-06
-2.22053699889e-07
1.0279982405e-06
-3.13649920703e-07
8.29672710371e-07
-4.93042258884e-07
1.12179931161e-06
-5.33148700761e-07
1.13860006973e-06
-6.0759694811e-07
1.1540510891e-06
-6.51601800364e-07
1.08350876375e-06
-7.25483228265e-07
9.17490203346e-07
-7.33900084749e-07
8.12847769432e-07
-8.23229065699e-07
5.98048273686e-07
-9.34450478241e-07
5.99598371588e-07
-1.05966733592e-06
6.26046365526e-07
-1.20646770589e-06
7.70367883442e-07
-1.29466575851e-06
8.06744174088e-07
-1.33968912974e-06
6.90877861309e-07
-1.43429354695e-06
6.72084563805e-07
-1.53459566229e-06
7.1576648364e-07
-1.61782226921e-06
7.33920233985e-07
-1.69459093558e-06
7.18844229682e-07
-1.7666885563e-06
6.85087073203e-07
-1.82937038724e-06
6.37109439359e-07
-1.86792349519e-06
5.77898303541e-07
-1.89871228051e-06
5.29076755547e-07
-1.9588469093e-06
4.87375950389e-07
-1.996402073e-06
4.23911816375e-07
-2.00857931081e-06
3.73783536172e-07
-2.03563609137e-06
3.49364601511e-07
-2.09012263625e-06
3.39931762692e-07
-2.16188711536e-06
3.41199310281e-07
-2.22925066676e-06
3.20736883689e-07
-2.28573842062e-06
3.23853043135e-07
-2.34727422493e-06
3.49008817585e-07
-2.3840658357e-06
3.39922315181e-07
-2.41230918406e-06
3.11125843729e-07
-2.43873975747e-06
2.75187839885e-07
-2.46239062134e-06
2.37321973321e-07
-2.48231156488e-06
1.98929713329e-07
-2.49879617284e-06
1.59107855752e-07
-2.51238140972e-06
1.16132186412e-07
-2.52283184107e-06
6.90961231722e-08
-2.52919721191e-06
1.86914140337e-08
-2.53041495706e-06
-3.37312336632e-08
-2.52565680478e-06
-8.75360173618e-08
-2.51430893393e-06
-1.4322471884e-07
-2.4958101305e-06
-2.02091569964e-07
-2.46956784295e-06
-2.65722674012e-07
-2.43498234137e-06
-3.35622062258e-07
-2.39141671822e-06
-4.13187350834e-07
-2.33799529064e-06
-5.00170867178e-07
-2.2731728398e-06
-5.99383393383e-07
-2.19398138518e-06
-7.15338917988e-07
-2.09529774351e-06
-8.54552916826e-07
-1.96998923614e-06
-1.0245001018e-06
-1.81108251516e-06
-1.23016350641e-06
-1.61416372904e-06
-1.46949388981e-06
-1.3774038337e-06
-1.73142815677e-06
-1.08603911488e-06
-2.01644464482e-06
-7.65585513487e-07
-2.24753485087e-06
-4.64725343887e-07
-2.35297463075e-06
-2.38235459497e-07
-2.27550735246e-06
-9.33390777033e-08
-2.08814559416e-06
5.74271971468e-09
-1.92563973734e-06
1.27710825538e-07
-1.87072474647e-06
3.20131657326e-07
-1.88629453811e-06
6.62377531809e-07
-1.87132252015e-06
1.06490218071e-06
-1.67017782188e-06
1.30633586141e-06
-1.12892610929e-06
1.35956817774e-06
-5.0378515929e-07
1.23113848095e-06
1.72271291488e-07
9.74372164821e-07
7.0835750109e-07
6.36943237488e-07