/*--------------------------------*- C++ -*----------------------------------*\
| =========                 |                                                 |
| \\      /  F ield         | OpenFOAM: The Open Source CFD Toolbox           |
|  \\    /   O peration     | Version:  v1806                                 |
|   \\  /    A nd           | Web:      www.OpenFOAM.com                      |
|    \\/     M anipulation  |                                                 |
\*---------------------------------------------------------------------------*/
FoamFile
{
    version     2.0;
    format      ascii;
    class       volScalarField;
    location    "741";
    object      alphak;
}
// * * * * * * * * * * * * * * * * * * * * * * * * * * * * * * * * * * * * * //

dimensions      [0 0 -1 0 0 0 0];


internalField   nonuniform List<scalar> 
6400
(
0.898928951673
1.45018138202
2.30782919447
2.89948276225
3.46373150892
4.0250568679
4.72078527855
5.49686409175
5.98473929885
6.71520337244
8.00134529069
8.93620470153
9.73080322256
10.611070173
11.67685562
12.7981769974
13.8198934871
14.7827419922
15.5973826576
16.1050855713
16.4076809906
16.8567682219
17.6504877428
18.7609621904
19.9667719482
21.0646232385
21.9940911593
22.8627645802
23.7689564866
24.7279694178
25.6845848443
26.4534236834
26.9575604864
27.31185504
27.5618188191
27.7137674279
28.0322140996
28.5567402241
28.7828088802
28.7995640093
29.1725820864
30.023356132
30.8687757434
31.3550968222
31.5227909854
31.4665431131
31.2520005773
30.9213707997
30.4877488748
29.9707860049
29.2919374354
28.2438692573
26.8310554182
25.1343888471
23.5783698936
22.1885317786
20.3367338878
17.7876623322
15.1224036445
12.8608062404
10.5719636471
8.17622453547
5.93845802519
5.77171013819
8.91863472345
13.5357100293
16.3582025059
15.947551044
13.8770999869
12.2460756063
11.4102296057
11.6978803134
12.3445065207
12.2968340257
14.4744036294
13.9574516087
15.9085086306
9.80588132264
12.8566506399
4.80218124031
3.16678184428
2.55191522253
3.19006770646
4.46608611769
4.45349782891
4.43845691712
4.72224474328
5.22759632965
5.93448702365
6.82701378244
7.8924605066
8.95705088374
9.9070177655
10.8194980884
11.753610703
12.8162792056
13.9352686649
15.001689893
16.0745959943
16.4188615827
16.5453061291
16.974620486
17.7495170952
18.8496744378
20.1692197064
21.2150250592
22.1169373143
23.0207590305
23.9405564209
24.8705693144
25.8004480216
26.6507602364
27.148954443
27.4963838354
27.7758378779
27.8507531537
28.2114342601
28.7606553271
28.9464334223
28.8410434039
29.1872565504
30.5109130794
31.6208354176
32.0203941148
32.1333406092
32.0086780867
31.7083721887
31.3183685187
30.7418624047
30.0754448883
29.456878306
28.8700924132
27.6328496018
25.3574907182
23.9037663223
22.3194947231
19.975974828
17.489793862
15.0344010533
12.5976404542
10.3175037042
8.48357806698
6.33193688399
6.28974304146
9.1763993154
14.6191750873
18.1910116151
16.7832876455
14.5365113341
12.5798666133
11.9202599681
12.4250416663
13.6409570573
13.114606026
13.040364788
12.5811838278
11.4430709179
9.64511839006
8.13472774894
4.2161974125
3.29395217188
2.92164206761
3.44674806468
3.78753456289
4.39859817887
4.88520135543
4.90909246221
5.12165966596
5.83222416878
6.80063001544
7.87661431791
8.96074257133
9.9546767482
10.8685834753
11.6581197985
12.6265758536
15.1785569968
17.1811964198
17.7056170342
17.3060159017
16.3512887796
16.671342007
17.8618875101
19.0108036034
20.1045898745
21.2095405965
22.2090989631
23.1150737133
24.0149043853
24.9394679095
25.838457918
26.7713515154
27.2630024979
27.4006692743
27.9613045518
28.054391951
28.136284009
28.8514852675
29.0889011788
29.049636244
29.4105449022
30.239534877
31.0598922862
31.5472501287
31.7399265298
31.7247583338
31.5438843132
31.2173160518
30.7482023166
30.1570938513
29.4423848536
28.4911884237
27.1782611871
25.7387375315
24.2555302172
22.2333456957
19.8933622882
17.4724797218
15.0436361112
12.6782815356
10.4844675929
8.38810506608
6.94554471864
7.72550217047
11.6045419025
15.6769633185
17.6411769899
17.6273762935
15.9858715817
14.3090497686
13.6591047175
13.6202941065
12.9990092771
12.4582113288
12.5121594903
12.2483274689
11.3310271359
9.740389462
7.30678994863
7.51204190242
3.36918625732
5.57036193685
3.82336066884
3.98620758404
4.71218741426
11.9422107584
10.3636932107
5.63630550742
5.79281163127
6.79135846267
7.89733574993
9.00287954866
9.97196890207
10.8917569937
12.5668892308
14.6371760487
16.3499901194
16.9175273434
16.1677256841
15.6838755841
16.1695269486
16.9079540366
17.8548986312
18.9972423026
20.1836557016
21.3177188799
22.3424902006
23.2300512751
24.1452440999
25.0064089524
26.0157896989
26.7668955795
27.5080381002
27.6301007983
27.5704360053
28.1247229333
28.2968439104
28.4938781459
28.8883388316
29.2498214265
29.718954044
30.4085349052
31.1082210058
31.5911299069
31.8220526636
31.8426399521
31.6890220691
31.382692194
30.9327395424
30.3453589684
29.6025573854
28.6415505654
27.4198920455
25.9938517309
24.3235217205
22.2812057167
19.9517350499
17.5280743678
15.1284192346
12.848770088
10.8055870147
9.19493488186
8.59320828562
9.30064777085
11.396213007
16.1625405178
19.3884067604
19.4281614962
17.6971883421
15.3023206493
13.6930806228
12.9308128825
13.1569735304
14.6539030397
14.6504891997
13.378753801
13.2915342694
16.6296244731
13.0101090651
11.0099428716
5.80117016088
7.6631569992
4.66563318499
4.9864043391
6.74015432147
11.840383574
8.43140915359
6.16348634391
6.32068703329
7.00892346855
8.03602175071
9.15323258215
10.5915154677
12.8058931657
13.8818516001
14.3963527496
14.6297491345
14.7134209131
15.0385360959
15.726780633
16.2937460596
16.9644574978
17.9471476436
19.0939319208
20.2919160298
21.4522534928
22.4524917596
23.4481112724
24.2508318459
25.2675795816
26.0576285193
27.3014050181
27.4489475074
27.3177018961
27.6491076987
27.7315748366
28.0858012614
28.5600838166
29.0348340046
29.4838537616
29.9872290833
30.6025752724
31.2207305991
31.6881854903
31.9443230081
31.9969384412
31.8710444055
31.5878970098
31.1587991316
30.583356273
29.8404996457
28.8901745933
27.7046397653
26.2732862548
24.5326862215
22.4374867369
20.1025730135
17.7124587027
15.4109423873
13.3347713736
11.6613814831
10.6503986586
10.5771577106
10.7619486133
11.9476036119
15.8878188265
19.5639624087
20.7892039991
19.5451255193
16.7318045732
14.2126783706
13.8883058474
16.2112136188
17.1245277964
16.1258037047
15.2505485615
17.9680061266
21.0169084008
16.2937973416
15.404549313
10.0806969505
9.26447287571
5.81773419509
6.32112273719
12.1304030613
11.6286024714
6.97947685405
6.79190953121
6.96598974266
7.36441216288
8.26787069328
10.8204328069
13.9431481869
14.4653082219
14.2534655966
13.5985843257
13.5301250184
14.1017305583
15.1325076284
15.6884424744
16.2029522024
17.0358705242
18.0847634455
19.256752101
20.3911053429
21.5584835867
22.7743649215
23.5496747873
24.700315359
25.3224160286
26.7723482263
27.1171859569
27.9729797544
27.4981471164
27.1656580872
27.5080588341
28.1006822658
28.6934203207
29.2300027812
29.7294402836
30.2529362355
30.8301098505
31.3960059551
31.8461176745
32.1167494964
32.1958100053
32.0969441381
31.8397865214
31.4366579031
30.8844981419
30.1618558689
29.2346386128
28.0667798425
26.6152448704
24.8277818857
22.7196262186
20.4323201571
18.1537957781
16.0496553961
14.2894661955
13.053072016
12.558083261
12.8487987306
12.1151675304
13.9659070153
17.9872499955
21.0219061754
22.1546163019
21.1257566896
17.6880557565
15.4234336476
17.2084551766
19.4295188238
18.9207880148
17.9587513375
18.0718458562
22.7211141819
24.3373667428
19.2935930937
19.0978060944
12.2199679707
9.20692638283
7.06829804266
6.62525637754
12.1063052316
8.67220128388
7.27840737512
7.41332015661
7.57034823286
8.2872754675
8.84599880643
13.5844904082
14.3602331886
14.4883334923
13.3688445686
12.6810402478
13.1706640416
14.5341283241
15.0785842549
15.4185566535
16.2127383656
17.1424340294
18.194596299
19.3634321542
20.6566097113
21.8930841187
22.7993142251
24.2438349372
24.7936846991
26.3380854863
26.5553580893
27.6647932688
27.5106085412
27.2925975444
27.0322644875
27.4807254687
28.1934630079
28.8650815744
29.446918054
29.9836313736
30.526858214
31.0886855781
31.6249427913
32.0618843035
32.3417574643
32.4426673653
32.3708042549
32.1442482324
31.7753250486
31.2589719194
30.5713745441
29.6747517029
28.5216730129
27.0611680869
25.2689553682
23.2091829761
21.0464090754
18.969438359
17.13235481
15.6657533414
14.7261899215
14.3533632791
14.0678415817
14.0627541778
15.8727991883
20.8126456867
22.6243160128
22.6540985282
21.4256741818
19.0508145481
18.6629723262
21.1458076771
21.5428543321
20.7160582381
20.1568459848
22.2029479499
25.0219132705
26.5318524188
21.9157421507
20.77490144
11.9816781946
8.95685306573
8.24231536022
12.3248650943
12.2583619736
7.8527831111
7.96072312873
8.13025791128
8.22787359872
8.82607173246
13.3050529514
14.2772855123
14.4523308611
14.0913700678
12.3259547559
12.3217441427
13.8911753406
14.6449134214
14.7453055678
15.2958862121
16.2434749077
17.2984619226
18.3842207092
19.6021306521
20.7501127902
22.203081922
22.8750433721
24.2625826436
25.8585324437
26.4802298526
26.2926767816
27.2045901761
27.5521761001
26.8595804469
27.0385393711
27.6307879058
28.3509156216
29.0517572866
29.6766275927
30.2509117768
30.8165718038
31.3791119405
31.9029500853
32.3329076195
32.6202838091
32.7410190449
32.6980500882
32.5084214716
32.1835229457
31.7156968053
31.0769545894
30.222762075
29.0990506707
27.6637041387
25.9291671424
23.999471824
22.0434815826
20.2059585354
18.5658586583
17.2244481247
16.3590221007
15.9779330758
15.9078177957
16.2254924132
16.2670798948
21.3828106137
24.6936054388
24.339005193
23.5116235755
22.3667286939
22.9667701345
24.1661526857
23.3985204473
22.7082281053
22.9645618077
25.4075247764
26.1579690033
26.8019104896
23.9194064428
21.7752441133
11.322991818
8.96348919424
8.92437357852
13.3291565778
11.3413085078
8.54545447603
8.70272986564
9.00527108962
10.1112117623
8.97268148697
14.0752505152
14.8223655943
14.5100980053
12.9688927907
12.033922291
12.4565734458
13.9517866533
14.3889374295
14.6417812678
15.3101294289
16.2403600491
17.3618273412
18.5401993115
20.1258646449
21.4690518843
22.1761083253
24.079500545
24.1925894033
26.0146246932
26.0369778883
27.2541314056
26.6497089669
26.5980115084
26.7947936088
27.2144142084
27.8343555702
28.5426958979
29.2557851749
29.9197129662
30.5356794982
31.1290935915
31.7025763854
32.2269513442
32.6574656794
32.9534631134
33.0946845613
33.0848786199
32.9401336991
32.6699737119
32.2642414881
31.6907947664
30.8997401858
29.837996472
28.4841406231
26.8886268695
25.1760278061
23.4719456564
21.8026586175
20.1684050053
18.803644903
18.0690077141
18.0097146449
18.257832653
18.4247133813
18.280202752
19.2142794156
25.2155010058
26.5324872918
26.1579245124
26.4238013408
27.1288119698
26.5032445341
25.3261663646
25.0925203574
26.1788807952
27.5184344141
27.4787737237
26.9428613598
25.9620433293
24.6075959432
10.8762145046
9.46711510871
10.0751545081
13.4276072453
9.55783074281
9.57291952729
9.45081119478
9.73128341645
12.6599575889
11.4640485985
14.9104033933
15.1161574064
14.6148297513
12.3765909329
12.0970476204
13.6433130627
14.1665346386
14.1643631229
14.6057393458
15.4459033905
16.3609262317
17.4275952556
18.4669529994
20.2593912912
22.3907888689
22.1296519232
24.0242517425
25.4117370632
26.2339436577
27.01044745
26.6516017147
26.8414158637
26.3535496717
26.7253633767
27.3829713409
28.0603004467
28.7626459533
29.4800132454
30.1763690384
30.8375734998
31.4678587738
32.0621377103
32.5963472954
33.0346149668
33.3436106869
33.5085743218
33.5375151309
33.4469350676
33.2436423893
32.9153254404
32.4282800538
31.7320320451
30.7829010048
29.5871661153
28.2244977491
26.7981658358
25.305168156
23.59794078
21.8094237537
20.5715834966
20.3180624553
20.7835744689
21.2197917131
21.2471408707
20.8362825596
19.4577664253
18.8713100715
28.5304387443
30.9586477652
31.4492391979
30.7863418321
28.8866143501
27.6348262431
27.8385648934
29.1555222393
29.705853887
29.6487543214
29.4891334572
29.9110481396
30.1405468547
10.9477281787
10.3588830344
13.4084610417
13.6622305888
9.76428347146
10.3577787516
10.1986821453
10.6422814924
12.264551973
14.8675832752
15.7774922563
15.4246889388
14.9020902058
12.4633835344
12.268700065
14.1306603903
14.2855503234
14.1538916352
14.6253991191
15.564468592
16.6894477633
17.7749191888
18.6288600548
19.8935601844
22.5448017506
23.8289456446
23.7140561475
25.5092646027
25.2808393993
27.0193728564
27.5353109176
26.816820966
26.3424407015
26.8358256441
27.5788390697
28.2960272817
29.0065381274
29.7297012935
30.449565525
31.1552610731
31.8325813609
32.459118334
33.0120914515
33.4649908557
33.7928963492
33.9881768271
34.063741939
34.0367960315
33.912623576
33.6790175157
33.3048474266
32.7462661192
31.9781204467
31.0355186334
29.9982799242
28.8633408491
27.4055036652
25.476489146
23.7346279546
23.0573402532
23.6434795498
24.7048079281
25.2591331774
25.1299804324
24.3093527409
22.5867671238
20.1304072312
20.2171759571
32.6252377552
37.2801273527
35.335339715
32.0654880577
30.5441898089
30.8395218718
31.8963425475
32.6391831985
33.3134400152
34.063489339
34.7832852778
35.5160017216
11.3811467819
11.2695168058
15.0743820131
14.4452498578
12.6489612218
11.6091618438
11.1786563214
12.0865734389
11.8321888564
15.8425666151
16.4732380114
15.813947105
15.0595472443
13.1414501394
13.027697527
14.5779757103
14.3338924564
14.2504591407
14.7353156462
15.5963903458
16.813724806
18.2194720943
19.9338142562
20.0004784474
22.0548826095
24.1752548055
23.63613593
25.7297876208
26.7276578055
26.3292059575
26.7554638943
26.3250686232
26.6171599139
27.1483720332
27.8303668128
28.5535073342
29.2781209993
30.0124843613
30.7466986642
31.4860235047
32.2179904365
32.8946658953
33.4770116068
33.9501537649
34.304234087
34.5393456828
34.671447945
34.7177445101
34.6840597689
34.5624706752
34.3306353254
33.9628428522
33.4627342995
32.8784059823
32.2151554664
31.2334738278
29.6430595547
27.7836474864
26.5319794514
26.8203156111
28.7024271815
30.6006515214
31.3189701886
31.1763334008
30.228218932
28.200220771
25.0128131491
20.582352163
28.2204391701
38.4837594301
40.6617725401
36.4487871091
34.4326065625
34.4560486344
35.4661913308
36.5377378556
38.1634250379
39.3187817951
39.4152078757
39.7197799316
12.0353492102
11.9514389915
14.8701320446
14.9890189349
15.0269762577
12.7983072313
12.2878354647
14.8765339657
12.2766964851
16.7098271266
17.0058766612
16.2113567015
15.2108868513
13.8003776864
15.4849812196
15.6173049214
14.560138593
14.4849350976
14.9802020925
15.7240072762
16.7602835507
18.2080631468
21.1298727182
22.1112199961
21.5802136666
24.2103480046
25.2697922149
25.3238299978
26.6787564322
27.260300288
27.0513169816
26.3694414874
26.8155312446
27.4679598406
28.13663562
28.8447683175
29.5695565009
30.3263706007
31.0903560565
31.849524834
32.6203079974
33.3568695825
33.9893741397
34.4942046654
34.8819045936
35.1678852204
35.3685406714
35.4973251343
35.5621554575
35.5654987766
35.5049893791
35.3900913067
35.2581814362
35.1196006883
34.7599083881
33.6694215919
32.4319720031
32.0038550452
31.2006738768
32.4634503771
34.2436902802
34.3119962712
32.9739257772
31.3941026938
28.6186565683
25.1696862882
21.79674311
14.7304723027
14.2584798816
30.6705165567
38.2949567839
37.0893333968
32.462453767
32.4304045532
36.076494481
40.2009466243
43.4962722605
44.8155932438
44.9500966556
45.2219958518
12.7444447052
12.6853400854
12.3347415401
15.3518108845
15.6039498284
13.6231253818
13.2814523544
15.9041579073
12.9889732404
17.614027672
17.4914582465
16.6227833269
15.4633505279
14.1512257532
16.6295253265
16.2438846078
15.042241879
14.9005976577
15.3331664009
16.0215517602
16.8295179779
18.0803303956
21.6001390779
23.172025051
21.916991369
24.2002015953
25.7597212512
24.903676487
26.2928755633
26.8685989054
26.2844978824
26.7023327193
27.2431041664
27.8390691134
28.4756765503
29.1857236314
29.9122537682
30.6563162683
31.4528653152
32.2616379902
33.0659010694
33.8479585305
34.5382737099
35.093346266
35.5298299511
35.8808267027
36.162676477
36.3796228416
36.5447819116
36.6784841315
36.8100747131
37.0142843316
37.353361368
37.6929376709
37.3355305266
36.0155705477
36.5210325283
31.4418625238
26.4117855544
20.348083837
0.0673636713904
1.36800442739e-05
4.73811309399e-08
4.83419198076e-09
3.83621759101e-10
1.08058509685e-10
1.27192996426e-09
1.29959834319e-08
1.4680335634e-07
3.8343681442e-07
0.000636726716246
0.167137647229
32.9209990159
44.3315408366
42.9287407575
42.2770158656
46.1763524905
49.8233994533
51.7313406428
52.1312346206
13.6323212122
13.729283449
16.0052367072
16.0356554586
16.0995761484
14.3287639865
14.3453689094
16.7999059053
14.037488204
18.4084605643
17.9615241473
17.0602326398
15.79823107
14.5696999926
16.9391304967
16.5015013543
15.5185410239
15.3788205598
15.7307102212
16.3423599518
17.0738248137
18.072888589
21.0561686428
23.9697993908
24.1862724654
23.6241074005
25.9506651128
26.8782505796
25.3360517921
25.5632046403
26.2242311768
26.9306021042
27.5943262125
28.222047906
28.8699814032
29.5560653559
30.2884162801
31.0529307925
31.8445012683
32.6946046537
33.5576571076
34.3866947692
35.1269194535
35.7395031637
36.2453986437
36.6816605993
37.0591068281
37.3718436457
37.6274825504
37.8698354383
38.2047630098
38.7909788516
39.6787589926
40.3980368749
39.5887901347
36.0436284169
23.9339355646
1.60675013496e-11
1.76725852826e-14
3.312977971e-16
5.61572469456e-18
1.62476848717e-20
4.61723737365e-23
7.99235050159e-28
6.2516402751e-28
1.51775449979e-27
1.02308653129e-26
4.79208019294e-26
1.77019681533e-25
1.12493241235e-24
8.80796966969e-25
7.64139256888e-23
4.34922916969e-20
4.37190336362e-18
3.31753612658e-16
7.63948404892e-14
1.28596556222e-09
49.4492856131
56.9034525925
56.358682703
14.4706497553
14.6639549952
17.6396995302
16.7579418369
16.2872903963
15.0338955941
15.3716277576
17.5722696156
17.548191208
19.3998230149
18.5008693741
17.5945103335
16.2228353582
15.1291888482
17.2681055068
16.6905948208
15.968009006
15.8626680885
16.1383600441
16.6638632078
17.3547552317
18.2899725196
20.5734229068
24.21587116
25.5189433129
23.4188075542
25.4466580309
26.9610283411
26.9427828643
25.9504038057
26.2893764426
27.1376036103
27.9424270719
28.6445916047
29.2634077057
29.9571309915
30.6894042117
31.4768461568
32.293720493
33.1644993006
34.0834622568
34.9771121397
35.7640887782
36.4225919952
37.0104953071
37.5823342627
38.0989141152
38.4927906503
38.7653277129
39.0824225662
39.6502836575
40.6372981442
42.109792557
43.1274457811
33.2270301979
6.48998970258
8.88517837139e-18
3.59806845538e-20
1.04050315243e-21
1.51478185733e-23
1.2307282487e-26
2.05358802554e-29
1.44758362379e-30
0
0
0
0
0
0
0
0
2.01334195689e-34
6.79058561092e-32
1.01572686701e-29
5.89292200488e-27
8.23096581827e-24
4.45727835812e-19
6.76891526809e-15
5.27730561605e-08
61.8345313481
15.1561899337
15.3712492021
19.7584838102
17.3264350861
16.2372338284
15.6553883804
16.1144472778
17.691799618
19.1355619416
20.5327937521
19.1963219476
18.2651401942
16.8976898432
15.9738238163
17.8024783551
17.0280261549
16.4904902363
16.3917115006
16.5845760477
17.0224915749
17.6391508539
18.5038307074
20.3733839103
24.0805964257
26.4925700635
25.8311862971
24.9465937011
26.3225609845
26.7405983809
26.0197113431
26.7127090641
27.5801291151
28.4304344526
29.1170298853
29.7576307625
30.3974605239
31.142387554
31.9325175269
32.7820982431
33.6850943256
34.6413205882
35.6031091747
36.474617392
37.1812533333
37.8466902026
38.5737440886
39.2532290403
39.7044273464
39.9549921426
40.3207029689
41.0956772752
42.3826407579
44.1864946376
33.6096617557
5.88386364355e-14
1.28637014816e-20
4.21873398964e-24
1.70588178983e-25
2.32591846774e-27
6.37830055607e-30
0
0
0
0
0
0
0
0
0
0
0
0
0
2.59419088148e-33
2.57789281629e-32
5.65129960234e-31
2.74023703084e-29
1.52171650155e-25
1.2666214366e-16
2.44161726843e-21
15.6883432864
15.8944092803
21.7876558573
17.7649003365
16.4180724199
16.226454888
16.9198636587
17.1480758446
20.0790037443
21.3452915889
19.8662867752
18.9486059683
17.764174462
17.8100601605
18.5492749537
17.6049304211
17.2053967488
17.111794967
17.138550712
17.4670840298
17.9761735693
18.7592487729
20.3549003463
23.9206282865
26.8906804442
27.44686713
24.8602818923
25.3467612606
25.6321209552
26.1181732754
27.0089946195
28.0449338082
28.9066866188
29.6357887989
30.3003171607
30.9994897446
31.6617437238
32.4522661482
33.3146990376
34.2347070851
35.2628173823
36.3063085616
37.2465775819
37.9529141738
38.6424611731
39.8912675902
41.4535221102
42.0725091194
41.5525566971
41.7492720352
42.6269868591
43.9508788314
32.8432963284
6.80724075232e-15
1.02594035273e-19
4.60252972915e-31
4.65091330848e-28
7.58900880826e-30
0
0
0
0
0
0
0
0
0
0
0
0
0
0
0
0
0
0
4.00794358014e-32
2.71411319341e-31
5.00504975321e-29
97.6024918759
16.1428640707
16.3150580284
21.6518588769
17.2760645586
16.6604916706
16.7184898243
17.8296451529
17.2050840957
20.8821822401
22.0962944674
20.4977648979
19.5787699813
18.441052073
19.9704230368
19.5755004603
18.3822365356
18.0267747251
18.1717419291
17.9129729036
18.079846117
18.4119997743
19.061251598
20.4751902365
23.7497255924
26.7492951834
28.5242826278
27.3822484001
26.5802575989
26.4548222904
26.3371658164
27.2789239958
28.6254527264
29.3556471598
30.1652542203
31.0518181788
31.6075168555
32.2712536485
33.0709697456
33.9561397203
34.8907469415
35.8976738603
37.0062796095
38.0836234037
39.12106627
40.2746446296
41.8508213331
43.2010017136
43.4401858478
43.4832825835
43.9972623501
45.0490138086
36.3379350263
3.09566748128e-14
2.82572622681e-19
3.71391547518e-23
5.0442090685e-25
0
0
0
0
0
0
0
0
0
0
0
0
0
0
0
0
0
0
0
0
0
0
1.23323777848e-31
8.97616583866e-21
16.6544362478
16.8024684064
21.3195151298
17.0026018664
16.9739800877
17.1190645993
18.6135696211
17.6972647311
21.5905622258
22.8327112044
21.1208129879
20.2029404244
19.0045188336
20.7460566407
20.5241215522
19.2231278672
18.8345953937
19.0771389731
18.8359012714
18.9100768211
19.0432983357
19.420699754
20.7553690153
23.7131165357
26.4565740586
28.8221311038
28.5560735265
27.1600881163
26.0321142499
26.8088441485
27.7475609621
29.0613532723
30.1378342718
31.0812269351
31.8757810513
32.3273640521
32.9658452079
33.7783769615
34.6848105387
35.6590282808
36.6857672127
37.8777289047
39.2474925998
40.8072115679
41.9528903044
42.6554930046
43.6348070731
44.4456099718
45.8233935961
47.3766661628
41.7311310371
2.82075507832e-13
3.74542423654e-19
6.45879206874e-23
1.3247315144e-25
3.20742982259e-27
1.07662531873e-29
0
0
0
0
0
0
0
0
0
0
0
0
0
0
0
0
0
0
0
0
0
2.07249756408e-32
2.74210357489e-32
17.4017257541
17.5492945412
21.0364841775
17.3134520344
17.5386347524
17.6134911036
18.6660350293
18.427660007
22.1140527376
23.53388862
21.7735260653
20.8706705674
19.6771222511
21.4460532591
21.3728382005
20.1406804692
19.6922150002
19.9550863984
19.7375417527
19.8826891529
19.9378112045
19.9368407496
21.2284623113
23.8765145068
26.3106884377
28.8865248468
29.1060591647
27.9481454465
26.5565716031
27.0281681098
28.3112129927
29.2477838313
30.2159028386
31.3516419887
32.7790727053
33.3525119147
33.9091770616
34.5973000721
35.4702981794
36.5194034582
37.657295275
38.9820674401
40.9305470452
42.6657596732
43.1746121496
43.7511934201
45.2422655707
48.3537843186
52.1250970814
45.5304510825
8.05898510784e-14
1.3387389231e-20
5.54001472304e-25
1.81638901141e-28
1.13968669428e-30
2.3100525688e-30
3.54737874537e-31
0
0
0
0
0
0
0
0
0
0
0
0
0
0
0
0
0
0
0
0
0
1.5318437736e-33
6.95565246121e-33
18.5251209248
18.6356845403
21.3658979869
18.2575173895
18.689047502
18.4732644035
19.0136475313
19.7247144942
22.2113836309
24.0710260622
22.4845367823
21.6042153061
20.4512175741
22.2413820737
22.2466351694
21.2116298373
20.7232388354
20.9707770725
20.6470000986
20.9484398332
21.1322411566
20.6699173303
21.7826198575
24.2441335175
26.3645788304
28.7437322349
29.3502560885
28.6329776665
28.4671752755
27.8726674463
28.6874466748
29.9776462356
31.4920133268
31.9454710673
33.0793371582
34.3655578693
34.973010684
35.7174178371
36.4982010827
37.4699232066
38.7446120247
40.748271092
43.2845386739
44.3260536684
44.437548274
45.7693185162
50.0763634297
57.4157303246
51.6860281019
14.0133945368
2.02826173343e-22
1.89365888664e-27
1.29570383505e-29
0
0
0
0
0
0
0
0
0
0
0
0
0
0
0
0
0
0
0
0
0
0
0
0
0
0
0
20.0895060892
19.9798594771
22.2134054979
20.1196448034
20.6140260253
19.7352238811
19.9681858958
21.5906718972
22.4696781293
24.7087042092
23.3047886889
22.4132976069
21.3017147715
23.073314702
23.1159681666
22.3876765786
22.211794884
22.2901850343
21.6498764432
22.1039202796
22.6144711873
21.7023646086
22.229881115
24.7046998339
26.6263214051
28.6275326246
29.5131686223
28.8172862969
29.6455323238
29.4341507439
29.7142056553
29.7603804879
31.2957344925
33.1131372992
34.0307247287
35.1254460974
36.0366042138
36.8195527654
37.7301143692
38.726030889
40.3906492642
43.3829277484
45.6127868579
46.1729898707
46.9157544824
50.3217313565
57.6862282036
54.7193538726
29.9819511148
1.81005590981e-24
3.16435977229e-27
1.44891999311e-29
0
0
0
0
0
0
0
0
0
0
0
0
0
0
0
0
0
0
0
0
0
0
0
0
0
0
0
0
21.7396979359
21.2420975658
23.1206778696
22.5726934411
22.3116431749
21.1864624566
21.0125533412
22.7245268857
21.8056596568
25.2124760263
24.2163621439
23.2895765056
22.2179656339
23.9140015422
23.9233141592
23.3738034178
24.2365744432
23.8709694824
22.7695084666
23.3667238542
23.9461302491
23.0145106265
22.4371482014
24.7164298286
26.8116397223
28.5474573469
29.5750283341
28.9042841836
30.0493383015
30.711753292
31.0923778975
30.5398796695
31.5022398137
33.0854968341
34.9405115555
36.3365325701
37.3255532379
38.0856899651
38.9819601299
40.3553771967
43.1471712759
46.3746207234
48.16054923
49.1728066705
51.5161598207
56.4784630995
52.3725731509
30.1669772526
4.87373233199e-24
7.05575581512e-27
2.47106180385e-29
0
0
0
0
0
0
0
0
0
0
0
0
0
0
0
0
0
0
0
0
0
0
0
0
0
0
0
0
0
22.563527562
22.1197403641
23.6992084734
23.6228746372
23.3748321439
22.5487907752
22.1951761229
24.0867150408
22.8537973894
25.8476413102
25.1378319794
24.204548224
23.1947072745
24.7782997254
24.7328927484
24.1963490477
25.2155824298
24.9883330883
23.8455197443
24.5954914317
24.7035521134
23.847718682
23.430479721
23.6659638184
26.3011178902
28.0401361436
29.3509013971
28.8593959684
30.11662447
31.2646360365
32.2295951875
32.3063942085
31.9164349844
33.1580774684
35.1826823535
37.2118519513
38.7274534498
39.7424579839
40.6344117292
42.991721141
46.5773569712
49.4932957843
51.1146330847
53.0731971398
57.0771804367
53.530834238
26.1815553363
0.141616585829
2.3193102546e-26
6.605515678e-29
0
0
0
0
0
0
0
0
0
0
0
0
0
0
0
0
0
0
0
0
0
0
0
0
0
0
0
0
0
0
22.6613199466
22.6558261896
24.0424110615
23.8475696239
24.0413831843
23.5980879472
23.2190230459
25.4253771041
24.5117431911
26.6510235102
26.1117329423
25.1438169493
24.2272115326
25.68151595
25.6040621779
25.1374691627
26.0313674978
25.9576621654
24.9571291834
25.6211803206
24.62820437
24.6105411998
24.4594117983
24.7168283272
25.5269800007
26.5963631562
28.4849855375
28.600492425
29.6992496215
31.2877560954
32.6848053419
33.6521410161
33.426913147
33.9513893043
35.4114951561
37.4292028389
39.6494428245
41.4671125581
43.0510793404
46.3954266838
50.0287819884
52.4731065406
53.8039784727
55.7050601131
51.350818804
33.4579058906
35.1181644367
8.05625338515e-26
1.80467612111e-28
0
0
0
0
0
0
0
0
0
0
0
0
0
0
0
0
0
0
0
0
0
0
0
0
0
0
0
0
0
0
0
22.8979260053
23.0222008221
24.325142718
23.0209187956
24.3223705297
24.1717944752
23.8994376682
26.0439878854
25.3619159492
27.4558034998
27.1094763303
26.0752835309
25.3206532059
26.6107951719
26.5118224041
26.2071887425
26.9438776963
27.0364220404
26.1948053362
27.0235442436
25.9688820394
26.2031408911
25.7157329587
26.0205102534
27.2734715792
27.9079695556
28.0873515396
28.2640145616
29.2236296211
31.1836177505
32.64319745
33.8859021003
34.6909724267
35.0375492836
36.6668523549
38.1525294022
40.3952193585
43.0570224666
46.0290707554
50.0243863761
53.2936453434
54.9940236376
54.5961069782
51.458575128
48.3006941247
30.1083368089
6.76021338967e-25
1.53899565776e-27
0
0
0
0
0
0
0
0
0
0
0
0
0
0
0
0
0
0
0
0
0
0
0
0
0
0
0
0
0
0
0
0
23.5654799121
23.6540838521
24.6228305066
23.4034013267
24.5621851909
24.4815872733
24.3652080411
26.254273384
25.9414275844
28.0465684881
28.0701958304
26.9385913086
26.4595789326
27.517558588
27.3723802422
27.2379859601
27.8226558397
28.1942808836
27.4788390038
28.4489071819
27.727706125
28.2128073556
28.0538195085
27.0538100947
28.0761161843
29.0037172296
29.1978212812
28.0364489494
28.6783209052
31.02317663
32.7229685909
33.5482680973
34.5117827296
35.3395443981
37.0409255251
38.8009495961
41.2435512321
44.6560523931
49.1863050153
53.7418773924
56.3275607915
56.6099401887
54.2370523199
49.0079495053
30.9877288795
33.1925219016
1.07243267653e-26
4.34873834641e-29
0
0
0
0
0
0
0
0
0
0
0
0
0
0
0
0
0
0
0
0
0
0
0
0
0
0
0
0
0
0
0
0
24.409266198
25.3951935046
25.060099674
24.3111796174
25.0612887784
24.8364874173
24.8002797316
26.4211328638
26.4558498815
28.2925850214
28.9825551291
27.693000946
27.4567525375
28.2531875829
28.1648247015
28.0142740147
28.1755120352
29.2366724225
28.8092102098
29.6902344298
29.6158725616
29.556115895
29.4667387556
29.1290631122
28.4955786537
29.2000593799
30.0898640344
27.5642187496
28.1055780532
30.3032901667
32.6947378068
33.9812379296
35.0620704764
35.281788313
36.8482408657
38.9888675514
41.7403144151
46.1314143967
52.3350435846
57.3118116974
58.8495403451
55.1623357877
53.0934444668
52.6944689359
35.1165360646
7.26904596384e-26
1.85523536985e-28
0
0
0
0
0
0
0
0
0
0
0
0
0
0
0
0
0
0
0
0
0
0
0
0
0
0
0
0
0
0
0
0
0
25.0245094465
26.0520381384
25.7029762082
25.1132215583
25.6937359735
25.3422631218
25.2852997932
26.6485717198
26.9399041672
28.2702365419
29.7748939056
28.3905549107
28.0499169954
28.8400839247
28.9894917486
28.6950405085
28.4447754704
29.9746578316
30.1452039483
30.7649705462
30.928860235
31.1510415424
30.1379740489
30.1654598105
29.727521299
30.7376709161
31.3582664189
29.0813432079
27.5707712882
29.2183199119
31.8831532367
34.0107752298
35.2442681201
35.7130285794
36.3987475532
38.6117523692
41.6007498684
47.2295525961
55.3243600456
60.909595131