/*--------------------------------*- C++ -*----------------------------------*\
| =========                 |                                                 |
| \\      /  F ield         | OpenFOAM: The Open Source CFD Toolbox           |
|  \\    /   O peration     | Version:  v1806                                 |
|   \\  /    A nd           | Web:      www.OpenFOAM.com                      |
|    \\/     M anipulation  |                                                 |
\*---------------------------------------------------------------------------*/
FoamFile
{
    version     2.0;
    format      ascii;
    class       volScalarField;
    location    "90";
    object      pa;
}
// * * * * * * * * * * * * * * * * * * * * * * * * * * * * * * * * * * * * * //

dimensions      [0 2 -2 0 0 0 0];


internalField   nonuniform List<scalar> 
6400
(
-0.0957225262313
-0.0957275171777
-0.0957413282843
-0.0957671830611
-0.0958029878022
-0.0958478910726
-0.0959024037256
-0.0959697420218
-0.0960491200384
-0.096138648588
-0.0962521799482
-0.0963968430254
-0.0965618557775
-0.0967480216132
-0.096961094416
-0.097206999856
-0.0974861081271
-0.0977957450382
-0.0981340832984
-0.0984907221088
-0.0988474126084
-0.0992011773049
-0.0995642906489
-0.0999530067077
-0.100380616018
-0.10084719078
-0.101342846163
-0.101861649771
-0.102405323753
-0.102978632068
-0.103586292311
-0.104226507266
-0.104882601718
-0.105538580648
-0.106193379808
-0.10683344619
-0.107450701576
-0.108079177656
-0.108718597809
-0.109323458734
-0.109896869151
-0.110500356178
-0.111166989867
-0.111868851288
-0.112585412103
-0.113305283987
-0.114018446013
-0.114723303327
-0.115419451204
-0.116106398078
-0.116791058932
-0.117446618425
-0.118056732616
-0.118594548059
-0.119071574047
-0.119546203213
-0.120003414241
-0.120384036122
-0.120678947199
-0.120922213091
-0.121130605987
-0.12130890682
-0.121451347506
-0.121588355799
-0.121793947759
-0.122111265956
-0.122521613767
-0.122939035652
-0.123295961767
-0.123583677938
-0.123817267154
-0.124015549436
-0.124191266712
-0.124341399003
-0.124470997882
-0.124580276629
-0.124668916737
-0.124725886338
-0.124761833131
-0.124776930384
-0.0957151850522
-0.0957203747639
-0.0957323020125
-0.0957576324657
-0.0957975368691
-0.0958467725359
-0.0959029421612
-0.0959662964553
-0.0960410005461
-0.0961311919238
-0.0962439856057
-0.0963847046845
-0.0965504722978
-0.0967399871199
-0.0969547102541
-0.0971970879624
-0.0974744311392
-0.0977860127199
-0.0981297910582
-0.0984920357316
-0.0988445320492
-0.0991917764269
-0.0995519444356
-0.0999375755394
-0.100365114992
-0.100834823909
-0.10133006348
-0.101849772264
-0.102396464831
-0.102972355851
-0.103578103754
-0.104218035305
-0.104878670742
-0.105534350635
-0.106191515194
-0.106832916028
-0.107447657251
-0.108078065136
-0.108720360692
-0.109319232964
-0.109864960879
-0.110452832503
-0.111147384641
-0.111865599481
-0.112589311437
-0.113316960051
-0.114036302006
-0.1147478751
-0.115446039675
-0.116119271695
-0.116775209301
-0.117430303551
-0.118096746185
-0.118644986516
-0.119125867479
-0.119627206088
-0.120061705129
-0.120409328918
-0.120698788052
-0.1209388059
-0.121132087096
-0.121311379511
-0.121465956739
-0.121605651785
-0.121814330265
-0.122133614891
-0.122550840274
-0.122969507889
-0.123324591335
-0.12361126095
-0.123843791787
-0.124041760233
-0.124218509838
-0.124370546911
-0.124497983243
-0.124603084205
-0.124684530758
-0.124739203862
-0.124773880552
-0.124785317559
-0.0956948182389
-0.0957037918684
-0.095713609458
-0.095736717755
-0.0957756012441
-0.0958319728298
-0.0958952115231
-0.0959568887678
-0.0960266383825
-0.0961141202354
-0.096225165464
-0.0963636686188
-0.0965293407042
-0.0967203509658
-0.0969356730481
-0.0971681281424
-0.0974397068299
-0.0977737663574
-0.0981296005398
-0.0984892036369
-0.0988299474109
-0.0991567276525
-0.0995086879798
-0.0999026207072
-0.100330615328
-0.100795153341
-0.101293336013
-0.101818525043
-0.102369148015
-0.102948386011
-0.103555256361
-0.104195773706
-0.104866126205
-0.105517079198
-0.106164586135
-0.106821337811
-0.107432004652
-0.108047978475
-0.10869196061
-0.109297719102
-0.109871591765
-0.11047483352
-0.111141627189
-0.111845066778
-0.112564403182
-0.113290016675
-0.114013649396
-0.114730713484
-0.115436368802
-0.116125668485
-0.116798565005
-0.117452059153
-0.118072198052
-0.118638424039
-0.11918032353
-0.119682963521
-0.120097133297
-0.120439471109
-0.120726730584
-0.120967048298
-0.121170089728
-0.1213481748
-0.121493621376
-0.121641478135
-0.121868162247
-0.122202655311
-0.12261098068
-0.123020759155
-0.123378655644
-0.123669059143
-0.123904377729
-0.124103039462
-0.124273747755
-0.124417725539
-0.124540304396
-0.124640184484
-0.124714325591
-0.124764586521
-0.12479573786
-0.124806842342
-0.0956684326618
-0.0956770132201
-0.0956835958483
-0.095704837876
-0.0957388164556
-0.0957944711052
-0.095879909558
-0.0959411317327
-0.0960053719581
-0.096088029539
-0.096196570769
-0.0963337592731
-0.09649973338
-0.0966886106397
-0.0969051146982
-0.0971588310934
-0.0974503121954
-0.0977782447341
-0.0981155233873
-0.0984391979962
-0.0987600918665
-0.0990948601872
-0.0994518092523
-0.0998426690496
-0.100271741843
-0.100739669327
-0.101243182315
-0.101774178231
-0.102331157678
-0.102913718347
-0.103527525725
-0.104171625286
-0.104842030744
-0.105516087284
-0.106149416096
-0.106781021864
-0.107415063671
-0.108021740875
-0.108625486857
-0.109229699672
-0.109831746468
-0.110455830644
-0.111121770616
-0.111820725442
-0.112538891975
-0.113266204115
-0.113994484527
-0.114717951792
-0.115431524237
-0.116130649098
-0.116812088624
-0.117470814049
-0.118098737422
-0.1186865559
-0.119236537843
-0.119729954707
-0.120144505695
-0.12048696147
-0.120772613542
-0.121013528255
-0.121220036304
-0.12140025408
-0.121558777058
-0.12173305467
-0.121965038777
-0.122289843022
-0.122698577789
-0.123111392264
-0.123473114358
-0.123766156179
-0.123997979718
-0.124185273527
-0.124343524878
-0.124485206251
-0.124607585164
-0.124699804463
-0.124763204943
-0.124810933368
-0.124843754296
-0.1248571197
-0.095627539042
-0.0956275648274
-0.0956360146568
-0.0956576937313
-0.095695262126
-0.0957468321154
-0.0958222018247
-0.0958926742857
-0.095962823196
-0.096047943795
-0.0961550999784
-0.0962917495758
-0.0964595831292
-0.0966660058017
-0.0969076375722
-0.0971677461284
-0.0974474498849
-0.097742914216
-0.0980456691013
-0.0983581990622
-0.0986823039331
-0.0990170265541
-0.0993740514922
-0.099766295067
-0.100197262911
-0.100669543368
-0.10117731819
-0.101716058624
-0.102279797947
-0.102871851897
-0.103490092027
-0.104147986136
-0.104841553136
-0.105493237451
-0.106124746556
-0.106744569904
-0.107343476487
-0.107942546245
-0.108546996899
-0.109158074713
-0.109777033485
-0.110415553658
-0.111085215858
-0.111784133665
-0.112503680456
-0.113234766251
-0.113969254081
-0.114700737284
-0.115424037562
-0.116134610195
-0.116827995269
-0.117498527053
-0.118139422593
-0.11874329926
-0.119301668101
-0.119795893648
-0.120211947376
-0.120555779778
-0.120842218737
-0.121084899003
-0.121295440653
-0.121483571299
-0.121663905912
-0.121867889891
-0.122098333117
-0.122420605169
-0.122827803816
-0.123241631329
-0.123606120487
-0.123897489849
-0.124117859437
-0.124291126061
-0.124447858993
-0.124593551497
-0.124709280857
-0.124790588738
-0.124849396131
-0.124901920991
-0.124933476189
-0.124943884454
-0.0955489375188
-0.0955468962815
-0.0955645370872
-0.0955856626867
-0.0956264570808
-0.0956834847975
-0.095750923894
-0.0958240816237
-0.0959019220977
-0.0959917556373
-0.096095630802
-0.096235152857
-0.0964287403008
-0.0966576120171
-0.0969001420671
-0.0971479036825
-0.0974029129407
-0.0976728551759
-0.0979648943074
-0.0982741878344
-0.0985893275658
-0.0989195464542
-0.0992777630873
-0.0996734669118
-0.100108384413
-0.100581426766
-0.101098182081
-0.10164346679
-0.102218801893
-0.102818712831
-0.103452661889
-0.104119572625
-0.104803219034
-0.10548015629
-0.106084935997
-0.106663645817
-0.107247770831
-0.107844949421
-0.108453834769
-0.109073480632
-0.109705313993
-0.110356116257
-0.111032809189
-0.111735688346
-0.11245938805
-0.11319622485
-0.113938432852
-0.114679500554
-0.115414428448
-0.116138907236
-0.116848159405
-0.117536115166
-0.118195241139
-0.118815691552
-0.11938392134
-0.119883045453
-0.120304181227
-0.120653356278
-0.120943343824
-0.1211882212
-0.121402535427
-0.121602515408
-0.121820233743
-0.122041093454
-0.122270370612
-0.122605007803
-0.123021154449
-0.123432028714
-0.123789245262
-0.12406673368
-0.124270570051
-0.124440741906
-0.124605477642
-0.124746316171
-0.124849726828
-0.124921852252
-0.124982271503
-0.125032969067
-0.125059625545
-0.125070592924
-0.0954272432787
-0.095435587035
-0.0954691389488
-0.0955017837654
-0.095534299984
-0.0955906716545
-0.0956640225625
-0.0957386520711
-0.0958229072356
-0.0959178702798
-0.0960320808554
-0.0961786786423
-0.0963937013503
-0.0966246945212
-0.0968581733139
-0.0970847080502
-0.0973211166055
-0.097587110731
-0.0978793960447
-0.0981727492146
-0.0984771690165
-0.098806968753
-0.0991659658304
-0.0995615887461
-0.0999992140353
-0.100486696313
-0.101001439949
-0.101558851417
-0.102145506178
-0.102768276814
-0.103416441449
-0.104080478757
-0.104766687156
-0.105411062014
-0.105997932839
-0.106556641215
-0.107133864577
-0.107732476344
-0.108346993119
-0.108974572561
-0.10961691262
-0.11027867515
-0.110964043989
-0.111673676632
-0.112403981152
-0.113148506709
-0.113900086656
-0.114652636086
-0.115401729589
-0.116143498731
-0.116873037993
-0.117583445059
-0.118265195266
-0.118905316418
-0.119487805235
-0.119997720428
-0.12042914042
-0.120787162219
-0.121082079854
-0.121326943247
-0.121544481604
-0.121766004916
-0.122007011878
-0.12223965905
-0.122515277226
-0.122861264353
-0.123286806089
-0.123685591087
-0.124020679879
-0.124277580102
-0.124475432929
-0.124655310381
-0.124820050933
-0.124946125974
-0.125035430319
-0.125100969751
-0.125160652236
-0.125201851045
-0.12521924354
-0.125228958804
-0.0952858080272
-0.095303193772
-0.0953442416907
-0.0953958002682
-0.0954323067007
-0.0954876948095
-0.0955590170684
-0.0956367768937
-0.0957297173018
-0.095819056071
-0.0959505115347
-0.096128746057
-0.0963398295272
-0.0965659315632
-0.0967810092608
-0.096986797969
-0.0972218088806
-0.0974949459875
-0.0977728271516
-0.0980514118913
-0.0983477316411
-0.0986768592897
-0.0990378335338
-0.099439269289
-0.0998839979582
-0.100375192419
-0.100905451812
-0.101451870582
-0.102067051448
-0.102725667336
-0.103369787074
-0.104012600956
-0.10469285612
-0.105307007203
-0.105866149249
-0.106426898907
-0.107005344503
-0.107605744695
-0.108224959957
-0.108859761535
-0.109511335569
-0.110183316664
-0.110878403365
-0.111596827907
-0.112335763532
-0.113089742247
-0.113852446201
-0.114618687595
-0.115384943827
-0.116147903574
-0.116902499083
-0.11764062307
-0.118350232864
-0.119015307568
-0.119618512846
-0.12014648248
-0.120594261874
-0.120963778548
-0.121259760711
-0.121494199804
-0.12170704467
-0.121941823002
-0.12220811144
-0.122499190423
-0.122822875092
-0.123188491051
-0.123619060161
-0.124002831488
-0.124313918828
-0.124556560985
-0.124758028987
-0.12494250647
-0.125092110685
-0.125198175936
-0.12527140546
-0.125328611275
-0.12537372144
-0.125399641206
-0.125403164661
-0.125404788984
-0.0951321041497
-0.0951559791817
-0.095198585337
-0.0952392009191
-0.0952900814519
-0.0953648048518
-0.0954329840362
-0.095512791702
-0.0956198735126
-0.0957207555393
-0.0958434558189
-0.0960437516812
-0.0962617631913
-0.0964755319651
-0.0966742530178
-0.0968791518007
-0.097111898069
-0.0973788008172
-0.0976438129599
-0.0979143239494
-0.0982045896009
-0.0985280203198
-0.0988858831996
-0.0992883777036
-0.099761300858
-0.100250993249
-0.100795517216
-0.101370644078
-0.101983215398
-0.102635182731
-0.103295755956
-0.103964753387
-0.104574714881
-0.105154922722
-0.105713970115
-0.106279440263
-0.106861167973
-0.107463500085
-0.108086314688
-0.108727550404
-0.109387809099
-0.110069681952
-0.110775035081
-0.111503685623
-0.112252916137
-0.11301792172
-0.11379353864
-0.114575922108
-0.115362655262
-0.116151041427
-0.116935858177
-0.117707652001
-0.118451674381
-0.119149016339
-0.119781226656
-0.120335443435
-0.120805075863
-0.121184950721
-0.121470162705
-0.121675003945
-0.121873466251
-0.122130378112
-0.122448158536
-0.122806902164
-0.123187996165
-0.123619478562
-0.124058798918
-0.124406324213
-0.124691765237
-0.124926186144
-0.125129997498
-0.125302562759
-0.125426675658
-0.125507999663
-0.125560529084
-0.125597330368
-0.125615008027
-0.125616767424
-0.125603837292
-0.125593937128
-0.0949651723618
-0.0949947621351
-0.095044243308
-0.0950848829276
-0.0951376596934
-0.095215200949
-0.095284407342
-0.095364388403
-0.0954650107175
-0.0956023331197
-0.0957366776018
-0.0959358762475
-0.0961556123173
-0.0963565902499
-0.0965396747648
-0.0967508168682
-0.0969951827646
-0.0972459651945
-0.0974957920101
-0.0977599043536
-0.0980494404522
-0.0983697244001
-0.0987251479067
-0.0991192051912
-0.0996100526972
-0.100126344729
-0.100643275254
-0.101250365691
-0.101872773705
-0.102540937622
-0.103200663494
-0.103850943539
-0.104442061456
-0.104989123046
-0.105545241786
-0.1061152261
-0.10670045645
-0.107304821029
-0.107930202245
-0.108576626535
-0.109244953668
-0.109936704845
-0.110652774828
-0.111392573861
-0.11215341513
-0.112930965544
-0.113721273484
-0.114522237127
-0.115332856753
-0.116151108901
-0.116971706472
-0.117783953013
-0.118570464169
-0.119309402691
-0.119980633664
-0.120569872987
-0.121064601056
-0.121445615375
-0.121694760712
-0.121839173257
-0.122032288168
-0.122342341773
-0.122736604782
-0.12317434926
-0.123636628754
-0.124115455469
-0.124551845545
-0.124917226841
-0.125179660474
-0.125405610748
-0.125597026067
-0.125740370886
-0.125831992433
-0.125882641292
-0.125905449898
-0.125906067876
-0.125885931308
-0.12585550097
-0.125823861651
-0.125803452419
-0.0947774610794
-0.0948074517228
-0.0948595242672
-0.0949132467399
-0.0949835555825
-0.0950449055504
-0.0951128764365
-0.0951970898829
-0.0952788021454
-0.0954307230126
-0.0955960123429
-0.0957961105254
-0.0960163524992
-0.096212996834
-0.096392630326
-0.0966013295984
-0.096850009881
-0.097090253837
-0.0973289068528
-0.0975840769767
-0.0978732888393
-0.0981963192765
-0.098563231817
-0.0989537178132
-0.0994176154988
-0.0999825693095
-0.100522858987
-0.101120489563
-0.101741736762
-0.102367673143
-0.103057420681
-0.103699572299
-0.104268447773
-0.10480387173
-0.105360305382
-0.10593364528
-0.106522152091
-0.107128827675
-0.107756178874
-0.108406175404
-0.109081386376
-0.109782835448
-0.11050997473
-0.111261583626
-0.112034996503
-0.112826430378
-0.113633258955
-0.114455233228
-0.115292951232
-0.116145354579
-0.117007404037
-0.117867574185
-0.118706171943
-0.119498382279
-0.12022087785
-0.120854332759
-0.121371156872
-0.121721694913
-0.121869601227
-0.121963429859
-0.122194025535
-0.12260023339
-0.123095211936
-0.123625235891
-0.124158232635
-0.124665340764
-0.12512151531
-0.125524680418
-0.125782810823
-0.126016546223
-0.126172235475
-0.126269845867
-0.126321510999
-0.126331525439
-0.126310850361
-0.126262118743
-0.126192975925
-0.12612205961
-0.126064495825
-0.126032071842
-0.0945653197863
-0.0945894646186
-0.0946261804833
-0.0946963258971
-0.0947921027389
-0.09484846741
-0.0949162705932
-0.0950099011806
-0.0950879331304
-0.0952290852508
-0.0954178657695
-0.0956237877515
-0.0958414297424
-0.0960375745433
-0.0962313525785
-0.0964427909982
-0.0966843677962
-0.0969137031016
-0.0971444999296
-0.0973912642356
-0.0976709851543
-0.0979858893213
-0.0983773001815
-0.0988033226021
-0.0992439495124
-0.099803716347
-0.100368349819
-0.10093952077
-0.101603331431
-0.102244022331
-0.102891874575
-0.103490080536
-0.104044793203
-0.10459544175
-0.105156267107
-0.105732666901
-0.106324500216
-0.10693405696
-0.107563767716
-0.108215878231
-0.108895650179
-0.109605931682
-0.110344590587
-0.111108529686
-0.111895130973
-0.112701589116
-0.11352669853
-0.114371949903
-0.115239568813
-0.116129831783
-0.117038504737
-0.117954018454
-0.118855935319
-0.119716543697
-0.120505979372
-0.121190308517
-0.121697799158
-0.121930816617
-0.121975867332
-0.122064392025
-0.122402088673
-0.122941526186
-0.123558274442
-0.124195348768
-0.124803591054
-0.125341624186
-0.125807861487
-0.126199749121
-0.126533528349
-0.12677824178
-0.126885115901
-0.126910187055
-0.126917308249
-0.126871466096
-0.126790722347
-0.126676961609
-0.126539922233
-0.126411309961
-0.126309898823
-0.126255569163
-0.0943271417491
-0.0943448589963
-0.0943594190333
-0.0944400062942
-0.0945340685256
-0.0946061508912
-0.0946815985663
-0.0947862271034
-0.0948787789597
-0.0950143612661
-0.0952125596222
-0.0954207513204
-0.0956333801638
-0.0958200597739
-0.0960308992992
-0.0962638646475
-0.096496049124
-0.0967158433965
-0.09694107741
-0.0971834907204
-0.0974528718318
-0.0977502063849
-0.0981311256864
-0.0986207283959
-0.0990771739505
-0.099587567211
-0.100192342063
-0.100776355879
-0.101396717736
-0.102049368915
-0.102686388439
-0.10326628195
-0.103805982884
-0.104363688477
-0.104930781062
-0.105511161879
-0.106105803686
-0.106717142627
-0.107350094131
-0.108005611606
-0.108688187873
-0.109404432541
-0.110153670552
-0.11093048901
-0.111730936592
-0.112553351466
-0.113398303046
-0.114268796049
-0.115168444847
-0.116099057174
-0.117057798149
-0.118035010788
-0.119012932525
-0.119961179917
-0.120835201362
-0.121560277076
-0.121985168896
-0.12202772622
-0.12204119666
-0.122190851562
-0.122702193401
-0.123407916317
-0.124168531866
-0.124944816309
-0.125644362304
-0.126190227761
-0.126648697141
-0.127033279531
-0.127458145972
-0.127725869032
-0.127736729758
-0.127668048058
-0.1276422903
-0.127521011172
-0.127362889086
-0.127164085044
-0.126923339308
-0.12670847371
-0.12653586061
-0.126444263469
-0.0940665063189
-0.0940869585902
-0.0941156475809
-0.0941670725055
-0.0942473508881
-0.0943288237096
-0.0944143688471
-0.0945230303623
-0.0946415608648
-0.0947769183079
-0.0949804916861
-0.0951897853909
-0.0953989209414
-0.0955803512528
-0.0957871388288
-0.0960403082369
-0.0962751843672
-0.0964933497515
-0.096715957771
-0.0969564133244
-0.0972206629019
-0.0975052411317
-0.0978685004526
-0.0983825334007
-0.0988804528585
-0.0993750161535
-0.0999886963485
-0.100591937536
-0.101184963509
-0.101827837786
-0.102421532885
-0.102981839456
-0.10353977076
-0.104107484938
-0.104681514476
-0.105266288907
-0.105865740968
-0.106479232129
-0.107112071528
-0.107770757297
-0.108457665595
-0.10917837089
-0.109935448317
-0.110724001094
-0.111538644357
-0.112378079957
-0.113244394353
-0.114141617581
-0.115074083504
-0.116045430069
-0.117054513073
-0.11809659852
-0.119163264735
-0.120223757615
-0.121203762166
-0.121929033755
-0.122066921381
-0.122054602776
-0.12209605266
-0.122397335962
-0.123166266357
-0.124060060601
-0.12496921325
-0.125956074598
-0.126754334886
-0.12714745916
-0.127525012246
-0.127874476915
-0.128192573806
-0.128493354668
-0.128814933944
-0.1284844973
-0.128507369573
-0.128276874416
-0.1280313427
-0.127745173436
-0.127329340721
-0.126992675526
-0.126708718476
-0.126560691633
-0.093774571624
-0.0937970182838
-0.0938498211106
-0.0938759794665
-0.0939394066713
-0.094023449879
-0.0941167284436
-0.0942343129836
-0.0943848869811
-0.0945176530537
-0.0947218489878
-0.0949320950317
-0.0951405136518
-0.0953245417491
-0.0955308874434
-0.095789802427
-0.096027346539
-0.0962474753304
-0.0964700788826
-0.096708558365
-0.0969700166262
-0.0972511731412
-0.0975912951719
-0.0980862010128
-0.0986503928866
-0.0991620309569
-0.0997318602845
-0.100388683351
-0.101004542985
-0.101572390583
-0.102133392193
-0.102687305414
-0.103252161259
-0.103826716932
-0.104407795056
-0.104998101188
-0.105600034451
-0.106217307256
-0.106851677378
-0.107509919946
-0.10819989547
-0.10892536783
-0.10968851112
-0.110486215503
-0.111313976064
-0.112171559097
-0.113060693106
-0.113985523637
-0.114950480157
-0.115959548395
-0.117013641293
-0.11811833266
-0.119284449574
-0.12048602737
-0.121590340403
-0.122192011573
-0.122097763392
-0.122062784073
-0.122188388227
-0.122790372421
-0.123920549098
-0.12498217799
-0.125749576808
-0.126571254581
-0.126789202011
-0.126939034185
-0.127205671776
-0.127517631023
-0.127857267764
-0.128155491084
-0.128437435719
-0.129025246242
-0.129996591891
-0.129332795644
-0.128775096211
-0.128439333408
-0.127714563047
-0.127240193057
-0.126767495146
-0.126536367293
-0.0934461102502
-0.0934658204792
-0.0935102823419
-0.0935421469371
-0.0935979766242
-0.0936861096114
-0.0937825910433
-0.0938965015389
-0.0940780123386
-0.0942308431946
-0.094433333936
-0.0946462823781
-0.0948568405033
-0.0950504127793
-0.0952607476852
-0.0955190825702
-0.0957574169936
-0.0959811190669
-0.0962052821799
-0.096442691304
-0.0967004775961
-0.0969809130379
-0.0973084515586
-0.0977767892699
-0.0983738870718
-0.0989255847515
-0.0994608872611
-0.100087903527
-0.100731087389
-0.101299876298
-0.101836552701
-0.102379598136
-0.102945815978
-0.103526018474
-0.104112748453
-0.104705828158
-0.105310631312
-0.105928628139
-0.10656508538
-0.107223395752
-0.107913427989
-0.108642172021
-0.109410892621
-0.110214876434
-0.111051256121
-0.111925499165
-0.112841300698
-0.113797965405
-0.114792037593
-0.115826653405
-0.116914450848
-0.118071400831
-0.119330360922
-0.120710943059
-0.122051253229
-0.122217409597
-0.122069956805
-0.122045042659
-0.122368319858
-0.123400861024
-0.12502173337
-0.125133957205
-0.12528764888
-0.125743903065
-0.126146419395
-0.126337673286
-0.12648896397
-0.126658250221
-0.12687792891
-0.127130232315
-0.127404188079
-0.127595691809
-0.12775390451
-0.128203714808
-0.129628968449
-0.130115318443
-0.128113650196
-0.127438731181
-0.126591245912
-0.126256543786
-0.0930870118801
-0.0931038272196
-0.0931481025373
-0.0931786460993
-0.0932329324309
-0.0933214290137
-0.0934195200055
-0.0935227351822
-0.0937036679957
-0.0938931338344
-0.0941070582434
-0.0943268186576
-0.094543234297
-0.0947557157406
-0.0949707410763
-0.0952273033448
-0.0954661788319
-0.0956954155674
-0.0959223088088
-0.0961597733582
-0.096414740093
-0.0966913262329
-0.0970095161662
-0.0974499597332
-0.0980360300366
-0.0986570134162
-0.0992034549464
-0.0997856377472
-0.100400432455
-0.100957840234
-0.101484811904
-0.102038424489
-0.102612096978
-0.103198447183
-0.103792295349
-0.104390877786
-0.10499637041
-0.105615282462
-0.106251037881
-0.106909290538
-0.107598127017
-0.108325214105
-0.10909598319
-0.109905603412
-0.110748493685
-0.111640222864
-0.112586307178
-0.113574233818
-0.114585282272
-0.115630739825
-0.116732815655
-0.117917089528
-0.119217853218
-0.120663713735
-0.122182247068
-0.122247331593
-0.122089728844
-0.122092390425
-0.122912377655
-0.123801632713
-0.124236620328
-0.124473799337
-0.124644835894
-0.124870828554
-0.125074853064
-0.125034130471
-0.124810066134
-0.124468396907
-0.124074867245
-0.123678887158
-0.123342081964
-0.123091780091
-0.12315358473
-0.123696059719
-0.124199410744
-0.124682199124
-0.125960330605
-0.128022684167
-0.126047571806
-0.125598426423
-0.0927034145094
-0.0927165974134
-0.09274871119
-0.0927817846354
-0.0928463910732
-0.0929337703412
-0.0930367380895
-0.0931350837073
-0.0933103679342
-0.0935206380918
-0.0937443521874
-0.0939691296587
-0.0941870075668
-0.0944244496918
-0.0946537169227
-0.0949076637144
-0.0951485338691
-0.0953877462111
-0.0956193475757
-0.0958583394873
-0.0961117648767
-0.096383395251
-0.0966929964575
-0.0971109229434
-0.0976802448396
-0.098337714722
-0.0989290657273
-0.0994892539861
-0.100058007954
-0.100589798456
-0.101110633614
-0.101667861668
-0.102245464554
-0.102836927199
-0.103437952056
-0.104044507392
-0.104656012814
-0.105274869593
-0.105910629801
-0.106566210406
-0.107250533502
-0.107976154986
-0.108746345379
-0.109556648953
-0.110386244436
-0.11126350806
-0.11223794557
-0.113283158678
-0.114317086176
-0.115349438837
-0.116437323708
-0.117602347554
-0.118878444454
-0.120315592951
-0.122301250008
-0.122463638484
-0.122372654015
-0.122466125928
-0.122563491949
-0.122628418883
-0.123036686457
-0.123380618598
-0.12352395905
-0.123340307284
-0.122877690851
-0.122088641143
-0.121059328872
-0.119853396725
-0.11854506644
-0.117201489837
-0.115927378028
-0.114853992716
-0.114079072958
-0.113862716721
-0.114469548237
-0.116042372667
-0.118206498257
-0.119951628622
-0.123776120349
-0.124097425318
-0.0923001618527
-0.0923102420521
-0.0923296132584
-0.0923661597068
-0.0924403057677
-0.0925245075788
-0.0926302646507
-0.092735837036
-0.0928983930423
-0.0931185706541
-0.0933474906018
-0.0935747492469
-0.0937889212813
-0.0940342588885
-0.0942934292223
-0.094551613185
-0.0947956026385
-0.095046348446
-0.0952899552341
-0.0955341408331
-0.0957894251634
-0.0960549661781
-0.0963562632444
-0.0967541933701
-0.0972935872213
-0.0979324391901
-0.098573728905
-0.0991469499531
-0.0996944911298
-0.10021118251
-0.100715674035
-0.101270301263
-0.101853973686
-0.102439193291
-0.103049023775
-0.103664658358
-0.10427893248
-0.104901518112
-0.105539468888
-0.106197422143
-0.106877112123
-0.107592088846
-0.108351430783
-0.109159149027
-0.110004875579
-0.110888346888
-0.111845400769
-0.112850126414
-0.113871654382
-0.114900231183
-0.115959727609
-0.117048408597
-0.118163458239
-0.119333399635
-0.120666400935
-0.12297954204
-0.122758981147
-0.122154544539
-0.121545859713
-0.12141067028
-0.121680221452
-0.121663260101
-0.12120452317
-0.120261366742
-0.118926726031
-0.117274158304
-0.115439197904
-0.113519068854
-0.111585172319
-0.109659665054
-0.107775475745
-0.106011316431
-0.104343037926
-0.102876515951
-0.102110139493
-0.102681449662
-0.104793210013
-0.107535235495
-0.112052605401
-0.127775250968
-0.0918790129644
-0.091888120184
-0.0919026307239
-0.0919471336418
-0.0920200184426
-0.0920967153274
-0.0921934570704
-0.0923130544128
-0.0924624438576
-0.0926853572957
-0.0929177868001
-0.0931470483022
-0.0933616217987
-0.0936031352973
-0.0938862428667
-0.0941570520526
-0.0944085663503
-0.0946667982457
-0.0949241072005
-0.0951797900323
-0.0954437199646
-0.0957049320853
-0.0959975097506
-0.0963791290567
-0.0968890949912
-0.0975011483354
-0.0981502241964
-0.0987482268496
-0.0992658163954
-0.0997661654838
-0.100281318225
-0.100820603568
-0.101403505775
-0.101999049751
-0.102620573943
-0.103245170437
-0.103863351919
-0.104490277976
-0.105131738005
-0.105792391486
-0.106473594656
-0.107182460714
-0.107943386322
-0.108766441721
-0.109637994942
-0.110518945962
-0.111432541485
-0.112389065468
-0.113372085243
-0.114372324124
-0.115371538943
-0.116285365309
-0.117016182782
-0.117429320772
-0.116791589618
-0.119185291262
-0.122204123044
-0.121153246658
-0.120143236279
-0.119875724038
-0.119524577339
-0.118737235627
-0.117419792166
-0.115650424541
-0.113550233077
-0.111233728418
-0.108817989402
-0.106365890068
-0.103880347546
-0.101289718568
-0.0985053918415
-0.0955131067174
-0.092399843471
-0.0891751597084
-0.0861356951744
-0.0840215393259
-0.0833001178642
-0.0820377529899
-0.0744736613997
-0.0586162096996
-0.0914324282675
-0.0914409598927
-0.0914568454036
-0.0915138829919
-0.0915832259915
-0.0916514084078
-0.0917338291531
-0.091862992206
-0.0919962568322
-0.0922176797411
-0.0924537317437
-0.0926860844953
-0.0929038943373
-0.0931472552719
-0.0934413174817
-0.093725339974
-0.093988374835
-0.0942556937661
-0.0945213277696
-0.0947889406104
-0.0950675019815
-0.095330003667
-0.0956120664009
-0.0959801850979
-0.0964641312873
-0.0970472730437
-0.0976906674717
-0.0982968422116
-0.0988349013564
-0.0993095440174
-0.0998241201216
-0.100364568661
-0.100929091242
-0.101501556459
-0.102121471353
-0.102773122858
-0.103405600419
-0.10404336074
-0.10468689882
-0.105348489005
-0.106035617201
-0.106753015416
-0.107530984812
-0.108389977346
-0.109271688893
-0.11014240199
-0.111029874458
-0.111967495038
-0.112949387305
-0.113922340833
-0.114873444407
-0.115613342254
-0.116159054018
-0.117026960984
-0.116209031166
-0.115814869169
-0.116777593198
-0.117481952501
-0.117681981362
-0.117183539706
-0.116110082902
-0.114470679216
-0.112313799982
-0.10977050716
-0.106942394143
-0.103900919983
-0.100675836882
-0.0972473308118
-0.0935605226077
-0.0895313875939
-0.085074467495
-0.0801650050156
-0.0748449000816
-0.0691215537517
-0.0630191566368
-0.0569325431789
-0.0504443786835
-0.0382778340368
-0.00970625196416
0.0266948651902
-0.0909479815236
-0.0909554953121
-0.0909764601465
-0.0910498403449
-0.0911162222516
-0.0911782617548
-0.0912530859242
-0.0913812444546
-0.0914988798456
-0.0917133238822
-0.0919532654656
-0.0921886304471
-0.0924107607862
-0.0926561900841
-0.0929555432555
-0.0932513265097
-0.0935318673067
-0.0938095383406
-0.0940806406495
-0.0943577455128
-0.0946525378571
-0.0949239888137
-0.0951941441226
-0.095549176252
-0.0960120872796
-0.0965641801276
-0.0971857905687
-0.0977682121296
-0.0983335522841
-0.0988308870561
-0.0993272713948
-0.0998472362858
-0.100416519314
-0.101005606283
-0.101592319889
-0.102237583647
-0.102891109031
-0.103543362312
-0.104203742115
-0.104870671504
-0.105560127178
-0.106301802407
-0.107125029358
-0.108013397168
-0.108887484478
-0.10974551313
-0.110643261696
-0.111610590715
-0.112612568667
-0.113553716577
-0.114643223131
-0.115444162512
-0.116209057993
-0.115589249331
-0.114509801855
-0.113564172852
-0.113521596636
-0.114211876629
-0.114258054014
-0.113246295286
-0.111445075167
-0.108990110872
-0.106032413446
-0.102704684148
-0.09907365833
-0.0951672978158
-0.0909742005837
-0.0864620227722
-0.081592430218
-0.0763201237285
-0.070562813503
-0.0641774991385
-0.0569864740656
-0.048866475341
-0.0397487852237
-0.0296118324684
-0.0165867218176
0.00754689193069
0.0542452815034
0.106140204557
-0.0904052369948
-0.0904119940223
-0.09043821905
-0.090526986291
-0.0905895855575
-0.0906550312936
-0.0907268024972
-0.0908458986137
-0.0909555464256
-0.0911683427877
-0.0914131342089
-0.0916520589255
-0.0918782288053
-0.0921247430083
-0.0924247560304
-0.0927262226053
-0.0930293331927
-0.0933207369833
-0.0935975530078
-0.0938819468825
-0.0941889495579
-0.0944793310662
-0.0947407306535
-0.0950796111032
-0.0955265537294
-0.0960509738784
-0.0966455370324
-0.0972005840247
-0.0977442442065
-0.0982804654741
-0.0988032372926
-0.0993118647851
-0.0998320985006