/*--------------------------------*- C++ -*----------------------------------*\
| =========                 |                                                 |
| \\      /  F ield         | OpenFOAM: The Open Source CFD Toolbox           |
|  \\    /   O peration     | Version:  v1806                                 |
|   \\  /    A nd           | Web:      www.OpenFOAM.com                      |
|    \\/     M anipulation  |                                                 |
\*---------------------------------------------------------------------------*/
FoamFile
{
    version     2.0;
    format      ascii;
    class       volScalarField;
    location    "257";
    object      alpha;
}
// * * * * * * * * * * * * * * * * * * * * * * * * * * * * * * * * * * * * * //

dimensions      [0 0 -1 0 0 0 0];


internalField   nonuniform List<scalar> 
6400
(
0.837762840338
1.26618651063
1.9482962673
2.25896492057
2.56929630529
2.91731759556
3.49370495676
4.16801622296
4.31732336699
4.66139661894
5.77996336868
6.3029780222
6.69376919794
7.2162539692
7.99833629019
8.8022849096
9.40479082036
9.98490144354
10.501885382
10.7247476633
10.6471316769
10.5984271233
10.8274993403
11.391253694
12.0526703282
12.6067341367
12.9687047006
13.2833487392
13.6865353903
14.1894905536
14.7393620022
15.0693120911
15.1160690139
15.0554373997
14.8975903793
14.5378617043
14.366350778
14.6214755168
14.3904567004
13.8219227465
13.7024032062
14.2112114438
14.7675455905
15.0319584093
15.0910566745
15.0041171189
14.8485458738
14.690149634
14.5348639678
14.3919033029
14.1015232011
13.2588643841
12.3697597897
11.3606139833
10.811630154
10.9629061644
10.6138469564
9.17193632165
7.50196602173
6.78505891145
5.82274702313
4.78025583336
3.73506854189
5.41402848695
9.50682598666
14.4712043366
17.4822889713
17.2070019544
15.2145534122
13.5365448697
12.5821244901
12.6607079412
13.082405101
12.8901565261
14.8122914748
14.213538432
16.0188179629
9.92245983784
12.8787401156
4.81788584036
3.08731115065
2.39910271864
2.93815448784
4.13443244896
3.81181405586
3.42693102678
3.44241851548
3.7206844154
4.15952664423
4.74190689879
5.48717002715
6.23014411891
6.86060540289
7.46200370861
8.06055106203
8.76495468899
9.50142331211
10.2490138462
11.2962162089
11.3014133077
10.9465895734
10.7980385185
10.8999471355
11.3994037654
12.3223974123
12.7490559199
13.0492137712
13.4375926318
13.87688722
14.3422479334
14.8319231238
15.3571321552
15.4092146737
15.3687471613
15.2986808829
14.7156160751
14.6816797736
14.9458420485
14.5673842857
13.6804664179
13.4900911089
15.57592599
16.9003151159
17.0002341516
16.9434183973
16.610701096
16.119497435
15.715167907
15.1066404812
14.5790402315
14.4664368415
14.9015645873
14.5667686689
11.5829756718
11.3087868577
10.8706586824
9.15214497334
7.80986983618
6.68416849186
5.59276148775
4.71848488761
5.15766537946
3.99232587723
5.62884290908
9.56780977293
15.3960161106
19.1356451982
17.9604080017
15.8019868462
13.8520796174
13.0561867659
13.350217131
14.3155892891
13.6878376681
13.4696272148
12.8919728571
11.6481283402
9.77946407061
8.20165039121
4.28922613614
3.05882126836
2.59975512131
3.08667418108
3.17966487641
3.45436237474
3.76000139087
3.68027097635
3.66416406436
4.08583844606
4.72634459468
5.46319246164
6.22536552977
6.91019246034
7.52590096439
7.98760415013
8.61695356663
11.754524751
13.88386041
14.1073174246
13.0892475073
10.8005470607
10.2724359722
11.1059793581
11.668546406
12.1253413981
12.6955935119
13.1852679697
13.5796278321
13.9966557503
14.4861891541
14.9080647782
15.6079158255
15.7141681607
15.2155006506
15.8796419569
15.3210055079
14.5224595734
15.2985850719
14.8704484312
13.939726276
13.7294570563
14.2923838225
14.8988867701
15.1917941784
15.2739991515
15.2304122392
15.0960552712
14.8914759577
14.6173629058
14.2994666803
13.9418098951
13.4503224228
12.7355088583
12.2169153647
11.8619850768
10.4851824249
9.05836702304
7.87066508079
6.8134733036
5.87657050484
5.17391817972
4.50338388129
4.11430806361
6.44436538365
11.5675555222
16.2546577182
18.5720768867
18.7021098761
17.1059063567
15.3952823331
14.629082119
14.4526549651
13.7434703744
13.0998889148
13.0027684665
12.5898785019
11.5533859521
9.90525387751
7.47208785467
7.63460036674
2.85699174848
5.32643758878
3.20554276544
3.17266058997
3.79804696315
11.7034961282
10.0183622193
4.46073617077
4.10200495105
4.75280943231
5.48728530038
6.25559643376
6.91791373849
7.62367198353
9.60256537761
11.9157408373
13.5606853691
13.6778196019
11.8994208189
10.261121186
10.2778614264
10.5481254015
10.936219246
11.5435487582
12.2191037172
12.8576968142
13.400852513
13.7463849641
14.2381674839
14.5692011337
15.3181558225
15.5409151494
16.269560181
15.9318902596
15.0102838783
15.5510742022
14.8805834569
14.1588459386
14.0524076348
14.0099760527
14.098266679
14.4732853315
14.9156199429
15.201350211
15.3198534477
15.3091431295
15.1988098993
15.0100447428
14.7526542138
14.4379682559
14.0613615671
13.5914720091
13.0158101162
12.3924208613
11.601824266
10.4777364879
9.20673794231
8.04806977488
7.06811345596
6.27811040325
5.69133362386
5.27786181756
5.35430280008
7.11454446816
10.8055573267
16.5493772372
20.1363308619
20.3470211266
18.6826041049
16.3268665945
14.685855979
13.8364427712
13.9295005897
15.2267399333
15.0967241819
13.7226692149
13.5228941575
16.7545353259
13.1779120928
11.2127476924
5.29603736295
7.31630670523
3.6827933526
4.0034344436
6.16671902228
11.5829080303
7.71088787884
4.6200168246
4.58922131123
4.9747903975
5.64075321533
6.44061655557
7.91295209373
10.5540665625
11.5192075122
11.680180678
11.2505771671
10.390130742
9.92881420372
10.3255211815
10.4255485232
10.5166103134
10.9990161402
11.6510079645
12.3694981925
13.0714427883
13.5340733497
14.1509715095
14.3496511989
15.1562142796
15.2881322233
16.7470087657
16.1103845707
15.2351884575
15.4351195701
14.505629514
14.1832287932
14.110045551
14.1419295118
14.2099945575
14.3483340548
14.6340823907
14.9793452001
15.2454413438
15.3840647574
15.3990518309
15.3106762563
15.1402762404
14.9025385229
14.6045952544
14.2401499413
13.7943746709
13.2582499183
12.6124497716
11.7552802888
10.6367816678
9.43155504099
8.35688766261
7.50429491029
6.88322260093
6.48601213925
6.36042622476
6.80604071862
7.79966062111
10.7029478482
15.9780542077
20.1747359472
21.5801574557
20.3958303564
17.6296011808
15.1471591446
14.7696734106
16.9084071896
17.7074544983
16.6150684584
15.6466787369
18.222567158
21.190055014
16.5353057875
15.65219666
9.63996074201
8.75393908199
4.56224627714
5.35327652902
11.8403075176
11.2554085566
5.57801879806
5.07758615632
5.13664787906
5.30431723914
5.95811341862
8.92986394318
12.4310708472
12.7179422213
12.1225447026
10.6661674804
9.61893801768
9.45412502585
10.3264258194
10.3412837697
10.201242399
10.5544492783
11.1485672733
11.8730296917
12.4823865525
13.2101433312
14.1791628542
14.2075496577
15.3142258782
15.0942648469
17.002522199
16.2974275829
17.4196581245
15.8137041051
14.344855005
13.9772195122
14.0426092664
14.1720177759
14.2926256883
14.4069388472
14.566977131
14.8117517774
15.0975786542
15.3404208734
15.4849372508
15.517533343
15.448026277
15.2979982462
15.0861021875
14.8178373024
14.4846011366
14.0701048335
13.5496578588
12.8755928256
11.9849193658
10.9040631854
9.80326125113
8.85343330891
8.12083458025
7.63974534849
7.41626832029
7.66139378609
8.86607821896
8.22705590211
12.0635237527
17.6268663427
21.3487715907
22.7629465773
21.8222687872
18.4707726421
16.3005146622
18.0269880075
20.1540964033
19.5799522585
18.5284527213
18.5504616536
23.0128531744
24.5546621195
19.5821988278
19.3763989753
11.7012294111
8.33298108724
5.55245482446
5.25900997125
11.703499338
7.68862458696
5.48884207038
5.56714136911
5.63750668879
6.32208452195
6.64664050429
12.3893690276
12.8644350023
12.7544499022
10.9501090482
9.2152035429
8.98294513906
10.3947271327
10.3751651947
9.9000772722
10.2057653544
10.6645667295
11.256778767
11.9774532079
12.9244078615
13.9012343176
14.1388354593
15.6827003809
15.2134073707
17.3368851669
16.4297945888
17.7103289228
16.4328014318
15.4701260331
13.9254154687
13.7918171875
14.0564545791
14.2946475055
14.4541056879
14.5948906709
14.7730536499
15.0015175721
15.2542170075
15.4775953697
15.6221291305
15.6657512497
15.6137162126
15.4888800069
15.3115109554
15.0841370349
14.7923080061
14.4103763814
13.8995906076
13.2119564004
12.3271126168
11.3174253816
10.3384943216
9.51261038387
8.87096030066
8.42334374002
8.31408284836
8.65250422908
8.90247333274
9.41115972036
13.1522517722
19.9718807009
22.5926743073
23.0266735389
21.9674361167
19.7197425926
19.4908718337
21.9975619056
22.3888405155
21.4928748113
20.8502786386
22.7256679801
25.3808815608
26.7874394867
22.2197478455
21.077174539
11.2804267028
7.65169045969
6.59114216387
11.7004942005
11.6696293859
6.16591726986
6.03363008421
6.11552202228
6.30723064406
6.8235058639
12.2137669852
13.0759779476
12.9648496049
12.2517421686
9.36869935058
8.53359123726
10.2672533276
10.6286230462
9.82760197515
9.72937413181
10.2588726469
10.9024455546
11.4906657763
12.2964133354
12.9823946929
14.4138201342
14.2739480977
15.6025962485
17.2539621258
17.3676324931
15.8985167228
16.8617179032
16.7188224562
14.2781819927
13.8123328135
13.8982244466
14.1595661185
14.4227998401
14.6167348251
14.7828139066
14.9767925155
15.2051355929
15.4424587919
15.6513340992
15.7927648601
15.8442565747
15.8111642493
15.7179206973
15.5840244607
15.4068758915
15.1640271111
14.8187597445
14.3242141543
13.645788932
12.8026115973
11.8897348861
11.0269849991
10.2630216879
9.57554130823
9.05553900104
8.99554325171
9.40153798337
10.0348141299
10.9779316121
11.9413185435
19.863198211
24.1583237815
24.3189238421
23.7764955869
22.9046508142
23.8035974148
25.1435996835
24.4123492353
23.6621288013
23.7901157844
25.9923510314
26.5748914516
27.0968426537
24.2052151627
22.0568759998
10.3548011169
7.25926300297
7.23017905822
12.5997429941
10.3131626632
6.48101028739
6.62167123824
6.81344453494
8.41981725633
6.77767102591
12.987001085
13.5005991778
12.9441343547
10.6738833759
8.65777776206
8.65336930807
10.3971304857
10.1838697925
9.62589309301
9.75709787427
10.2424461936
11.0315559747
11.7706874388
13.1360135361
14.3546569676
14.2393669474
16.5905177229
15.2180918908
17.597080847
16.123854244
17.8849388254
15.6687937675
14.7227722095
14.0747968958
13.9331003408
14.062054151
14.2927881505
14.5537465936
14.7797403241
14.9789520332
15.1905891008
15.4235815267
15.6567136416
15.8576423297
15.9946965776
16.053368995
16.0435938046
15.9894868049
15.90697786
15.7881286084
15.6020308366
15.3014312157
14.8369030513
14.1930780656
13.4199909842
12.6112608799
11.8196815589
10.9859902756
10.0569759564
9.36892003607
9.52330782084
10.4948402943
11.6538753893
12.6418569277
13.4260305675
16.3643794733
24.2098860599
25.9309653977
26.0988788674
26.8874673898
28.0248709542
27.6713639696
26.5948117004
26.2956966946
27.1487978012
28.1941755246
27.9319484341
27.2488054468
26.1840466634
24.7780998719
9.52262946343
7.43207352575
8.42651288884
12.5895837127
7.74620047984
7.49097859643
7.2093522701
7.45752579385
11.1736867521
9.67738702116
13.8139264763
13.6934963515
12.9142791032
9.64929929718
8.53387178138
10.4518938893
10.6697162185
9.82360186046
9.56274039933
9.94126320375
10.3653885813
11.0955068567
11.6841416389
13.3209110118
15.7582439467
14.0636026265
16.4792154295
17.6007660091
17.8398580773
18.1416447634
16.4406904713
16.2816021679
14.1854704922
13.9137065362
14.0687130406
14.2359673728
14.4418730672
14.6895105569
14.939124777
15.1784365305
15.4185514817
15.6621697831
15.8955397022
16.0931682667
16.2287966891
16.2952727513
16.312116289
16.3049158837
16.282282027
16.229127869
16.107867923
15.8628917056
15.4456299874
14.861290323
14.1784710216
13.4568494229
12.6228774683
11.4573271186
10.0746638264
9.43535970149
10.3321574538
12.08731258
13.6237242493
14.7724269115
15.5892119886
15.5275335092
16.5475317823
27.7081579855
30.5815891895
31.7992407832
31.7592777161
30.3241071
29.3008462023
29.4173021644
30.3638044337
30.5098332874
30.1160192337
29.7161603988
29.9812020064
30.1219539777
9.15723263762
8.06456547801
12.1251746415
12.5242330032
7.45726919446
8.17416177088
7.7661792251
8.49082690783
10.3598326971
13.4417819464
14.5086896525
13.8373986938
13.0029522049
9.36798210592
8.6106048161
11.0544257064
10.6693889766
9.7054425774
9.5718387371
10.0927843446
10.8286724082
11.4268386336
11.876460022
12.8686563212
15.8920359313
17.0381201466
15.7151831972
17.7697009449
15.8893150833
18.1895018727
18.1807335431
16.1074999754
14.0442705994
14.0031309678
14.2385865184
14.4201467434
14.6119669923
14.8439520005
15.098834163
15.3760014352
15.6580697808
15.9216674903
16.1596129357
16.3571830505
16.494267346
16.5725920585
16.6206777491
16.6650419255
16.7077848247
16.7268939589
16.6788213361
16.5017650106
16.1520933224
15.6539339651
15.0712907736
14.3644113748
13.1926353081
11.3029905996
9.74784660349
9.86195103452
11.9842735684
14.4720851844
16.2277040906
17.4300410527
18.0302240697
17.8626627536
17.1928541278
18.8420303197
32.2726303594
37.5459612418
36.3172493829
33.8907301495
32.8778319852
33.0876428421
33.5767003936
33.6399444696
33.7344211864
34.1078241867
34.6200410553
35.2506096161
9.19560264258
8.78688914606
13.6800361728
12.9654164976
10.7226332724
9.29813988971
8.51089249131
10.0260435949
9.49253035422
14.368711145
15.0074223106
14.0337522104
12.8597813926
9.73460574628
9.38020377346
11.5672177272
10.5753395809
9.70333841678
9.67756397518
10.1301366574
11.0239707269
11.8652133698
13.7945749291
13.0127631762
15.2722660039
17.4252662556
15.3652098286
18.0879021869
18.5911210521
16.7869855741
16.7359226421
14.6711297488
14.3724292369
14.3252154241
14.4576876055
14.6326185291
14.8152526596
15.0326912769
15.2684814631
15.5579776504
15.8948831782
16.2064480285
16.4551299064
16.650407406
16.7920141599
16.8882273393
16.9722700286
17.070164484
17.1793910209
17.2730803304
17.3019806786
17.2054715081
16.9533860509
16.5704877268
16.0593103966
15.1079534934
13.0446667591
10.5862389239
9.63622066236
11.1977879104
14.8172602839
17.7571612789
19.5561612342
20.9412114278
21.5471506241
21.2070956001
20.264399227
18.9168564114
28.5496818574
38.7062678843
41.5048413718
38.6814889388
37.5850549749
37.6085705326
37.8168145513
37.7839862036
38.4321507731
39.0802493293
38.9419143786
39.1211393012
9.58625666669
9.32985407273
13.272468597
13.2604601271
13.1975079687
10.2117347561
9.39136042127
13.1242757802
9.57575835833
15.2071809302
15.3833420542
14.2460294468
12.7379131906
10.151692928
12.5781416278
12.6688188181
10.6155301889
9.83970057233
9.91421633192
10.286962699
10.9889714272
11.8082382281
15.3336740018
16.3341268554
14.5124537153
17.5265013553
18.2955390845
17.500868327
18.563871975
18.5502191472
17.2924227014
14.6144758593
14.5596634092
14.6438466051
14.7251958388
14.8627240614
15.017778962
15.250411937
15.5028896408
15.7649569399
16.113573901
16.4860542389
16.7792636367
16.9812170055
17.1262988531
17.2449920092
17.3699173353
17.5205926523
17.6903612946
17.8497958894
17.9507033815
17.9496785435
17.8352614215
17.5825257705
17.0068561749
15.2800921728
12.007927501
9.5663232847
10.0880377608
14.0729248326
19.0179381859
22.0541317856
23.6397298615
25.576214624
25.7594826793
24.6128010907
23.0564801666
21.2670634838
25.1227201627
36.1473784021
43.2281719361
44.2194498853
42.084339914
42.1049601571
42.1640521816
42.6157233429
43.5771323857
44.1545800039
44.1066196593
44.3042321028
10.0338251211
9.88694234844
9.60325977182
13.4719200055
13.5731322981
10.7418059196
10.2040300862
13.9500906552
9.99337924292
16.0397050894
15.7020593824
14.4661655875
12.7443038231
10.3154742451
13.779114574
13.0113629508
10.8437158279
10.1330780305
10.2219043081
10.6208991106
11.0792791391
11.7225590258
15.950120792
17.3318580621
14.7555942622
17.6423471823
18.8219032685
16.5086474176
18.1784190598
17.8402525225
15.171084957
14.9707891531
14.9868117531
14.9935222094
15.010097576
15.1534920618
15.2902610373
15.4446790275
15.7240015524
16.0330717791
16.3718053119
16.7626919391
17.106611413
17.3423243707
17.5038113939
17.6496477265
17.8164505668
18.01120295
18.2289201447
18.4367806353
18.5811756244
18.6905700239
18.7643188132
18.6491203256
17.6741457985
14.2146141706
9.87326166782
9.06344320001
13.0326451402
19.6832430404
25.319144564
26.9902956047
25.055556107
22.9153797688
19.8770371479
18.0041635131
17.5538717841
17.0018752823
15.4515675771
16.9538663961
42.4498930259
46.4042456807
46.3524073126
44.4650706899
44.5501644043
47.3451399389
48.7385404295
49.4329943788
50.5372796803
51.2153140046
10.6492822246
10.707207874
14.0485586669
13.9616267483
13.837490314
11.1648415724
11.1418489659
14.583685629
10.8404158735
16.726316627
15.9826799242
14.6915372848
12.8091814741
10.5892586174
13.9536170705
12.9582414534
11.0792551667
10.4686867972
10.5332491922
10.8843945635
11.3157006258
11.8157970782
15.1050662951
18.1079887114
18.2001564883
16.7122845258
19.0010727336
19.6010350597
16.1552683379
15.3116042192
15.0172249032
15.1455668195
15.2485935061
15.2969480024
15.3647379932
15.4413318063
15.569170614
15.7446251453
15.9470228491
16.2843625743
16.6716039974
17.0744985914
17.4430547274
17.7185604722
17.9225814715
18.1048537338
18.3093502914
18.5558797668
18.8079150272
18.9950383734
19.1306283116
19.3578032498
19.65156632
19.5818503429
17.4048088621
11.4404243653
8.90929921367
12.6708678999
19.1218005851
24.6647475716
25.2728626761
17.2139355435
0.647153990847
1.12021130923e-05
8.76232609668e-06
2.12729128303e-05
0.000143396251509
0.000671660036155
0.00248111552627
0.0157671014326
0.0123452884522
1.07102089332
44.2481793393
52.0431123324
47.5336879214
49.6694747229
53.0225894071
56.1298869145
58.5039423203
58.9360318009
11.1978442488
11.3773916292
15.5707056771
14.403969233
13.6299976243
11.6169739043
12.0813243369
15.0411505639
15.0381272343
17.5377587286
16.2894952308
14.9818105874
12.9134797866
11.0153367069
14.1312134309
12.8623742411
11.3331486193
10.8188340187
10.8270713681
11.1097128028
11.5301136986
12.119934572
14.3547935497
18.3420009052
19.6019546867
15.9835243218
18.5624147894
19.4834061815
18.7494822591
15.9962055253
15.1594934992
15.3457762711
15.5615581656
15.6980209352
15.6451883838
15.7447367463
15.83801005
16.0273289724
16.2388865413
16.5504936927
16.9775056709
17.4229982131
17.7969979966
18.0858427481
18.3528448004
18.657103205
18.9606569951
19.2327408509
19.3819263517
19.4785515515
19.6274544335
19.8824410352
20.409130775
20.2212150934
14.4894743132
8.45862049398
10.1369565963
13.6212833086
11.104241157
0.212312481448
0.000172499404587
2.87831787438e-07
2.0289394792e-08
0
0
0
0
0
0
0
0
2.82190881018e-12
9.51771421451e-10
1.42364717774e-07
8.25954501489e-05
0.11536557354
54.9282022792
60.7552540167
59.973255629
64.4556400444
11.628101762
11.8336511403
17.8353381266
14.6888688905
13.0864396117
12.0288816521
12.725238287
14.8149275606
16.5966167488
18.4755969046
16.7323356503
15.3807329873
13.2372183771
11.7668701247
14.5201516685
12.9364179474
11.6866547435
11.23170068
11.1607735016
11.3684093427
11.725984707
12.2840529803
14.0177756187
18.1936503221
20.5607403115
19.560273038
17.8614187537
18.7922697054
18.177936239
15.4212277216
15.6185386682
15.8632698412
16.1706123482
16.1520367234
16.1123381727
16.0513941862
16.1847330105
16.3117621636
16.5460898751
16.8579692622
17.2716618841
17.7632419924
18.246630964
18.5642397029
18.8852391953
19.3142427816
19.7474928018
20.0293056194
20.1043495226
20.1584387102
20.2704011559
20.3923832373
20.3283695388
19.1446346309
10.4934476374
6.23049764506
0.059129958388
0.00239097130787
3.26001740212e-05
8.93985369528e-08
0
0
0
0
0
0
0
0
0
0
0
0
0
3.63602917959e-11
3.61318574081e-10
7.92088600858e-09
3.84072809532e-07
0.00213284444186
76.9928679352
1.43171324025
11.9487986201
12.1404967579
19.9854132558
14.8643826586
12.8716628755
12.4256839145
13.5108527026
13.7139383725
17.5471865529
19.1317101535
17.1699593648
15.7951465217
13.7810788335
13.8829679812
15.059751335
13.2668696039
12.2523350087
11.8667690265
11.603454783
11.718206075
11.9780685737
12.4688748637
13.9162195714
18.0558349743
20.9287106654
21.227260697
16.8937843671
17.1054961542
16.0123379585
15.5127269901
15.8220036876
16.386469217
16.652720924
16.6092884382
16.561157129
16.6942546637
16.5651838425
16.6650262753
16.8623689475
17.1407316057
17.6512548169
18.1979623658
18.7000670429
18.9716250255
19.3808534649
21.1421104491
23.6039057366
24.3512987281
22.677194033
22.3827812224
22.4747831119
22.5355507951
21.7199086723
18.913650461
18.1819063149
6.45092561021e-09
6.51874024464e-06
1.06367876273e-07
0
0
0
0
0
0
0
0
0
0
0
0
0
0
0
0
0
0
5.61755108753e-10
3.80411281159e-09
7.01509941997e-07
51.6368048514
12.2576017834
12.4198075631
19.6720633386
13.8612725773
12.8260307816
12.7546932307
14.4008872056
13.3883619214
18.3247051482
19.7635517086
17.602955175
16.1918210409
14.1770886217
16.3596193306
15.8525849718
13.8079883102
12.9184673428
12.9788941641
12.2747931372
12.2422900676
12.3357343862
12.6708841159
13.9790995822
17.9013360392
20.7653657705
22.3442757339
20.4396756591
19.0194511909
17.7233298421
15.8461260668
16.1442106742
17.1961682561
16.9456003709
17.0219746079
17.4932162945
17.1752028651
17.0573409463
17.135211147
17.3246959239
17.5791692624
17.9283170211
18.5348680303
19.2453898867
20.3705792048
22.0284683197
24.4012941556
26.1880652338
26.1014536703
26.223494597
27.4427262733
29.3378202955
32.1151454563
31.2531922762
28.8017785872
0.520544002166
0.00706998528595
0
0
0
0
0
0
0
0
0
0
0
0
0
0
0
0
0
0
0
0
0
0
1.72851141369e-09
61.0131054783
12.6685875992
12.8179792311
19.1292917879
13.15895484
12.9719840308
13.0049290355
15.1330192684
13.6651836547
18.9446541278
20.380768712
18.0437755147
16.6123331953
14.5204574709
16.9647629148
16.572455852
14.4239427344
13.5650231744
13.785597383
13.0994181485
12.9982559555
12.9235218965
12.8785080298
14.2177785992
17.8654411357
20.455339646
22.6978979886
21.6885701122
19.2425576544
16.215578799
16.3840212944
16.79485782
17.7964587259
18.1471236079
18.2885912898
18.2955361542
17.7204743814
17.6015861097
17.7097096189
17.8819229766
18.1490464593
18.4700789724
19.1508117901
20.398435269
22.6569047704
24.1555035779
24.4366509794
25.4302300517
26.3691469757
29.8197937018
33.8849691512
40.2030978622
44.1896931766
41.5341342181
0.905267094819
0.00185674943038
4.49554753649e-05
1.50900271153e-07
0
0
0
0
0
0
0
0
0
0
0
0
0
0
0
0
0
0
0
0
0
2.90482156553e-10
3.84334425155e-10
13.3450349167
13.4987342925
18.5230585429
13.1986722526
13.4480176926
13.3673011906
14.8251592233
14.3315093377
19.3156548684
20.9524937735
18.5250652706
17.0932456118
15.0139789987
17.5358507775
17.2422948815
15.1772364207
14.3011152903
14.5872347047
13.8857110775
13.9082194049
13.842117912
13.2697099606
14.6745372105
17.9931251554
20.3022673032
22.7916610396
22.1391657023
19.5940658626
16.4474601201
16.5177240441
17.5942737685
17.5727789389
17.7015407225
18.1757908359
19.2464006102
18.6995789137
18.4893756677
18.3319270873
18.442213245
18.8139942524
19.2632318569
20.0158557327
22.6560711253
25.1690362127
25.2090232319
25.3802341431
27.0063991026
31.9197109888
38.2749698782
43.4172177331
48.1100746692
35.9699090772
0.00776490863958
2.54585870844e-06
1.59738980874e-08
3.23777968943e-08
4.9720214196e-09
0
0
0
0
0
0
0
0
0
0
0
0
0
0
0
0
0
0
0
0
0
2.14703887025e-11
9.74907262708e-11
14.4186491726
14.506861866
18.5145163029
14.0072201481
14.6046932627
14.1155397021
14.8204704234
15.758226369
19.0750014073
21.3120661589
19.0808348098
17.6587598174
15.6341286665
18.1886395029
17.9454429116
16.1238017936
15.2655859372
15.5762742966
14.6720488259
14.9341392599
15.1393949184
13.952143614
15.1519854381
18.2741881743
20.325641221
22.5692053179
22.3159761305
19.9652683213
19.0573865681
17.4314304661
18.0690675416
18.8057225074
19.7913654426
18.6403129021
19.0242139383
19.8082007656
19.3891308883
19.4400269209
19.3450588525
19.5104844766
20.0726406392
22.445905658
26.2685150448
27.1574683393
26.6131203951
28.1854471454
34.3581416199
42.8561704883
48.4743680371
46.5566639684
2.84282043362
2.65416050036e-05
1.81606410923e-07
0
0
0
0
0
0
0
0
0
0
0
0
0
0
0
0
0
0
0
0
0
0
0
0
0
0
0
15.9851128967
15.7516693624
19.0279339868
15.9702961627
16.6741882854
15.2930547242
15.5840135628
17.8958327286
19.0285651091
21.7885172437
19.777369262
18.3240519793
16.3630974803
18.8756780169
18.6426004556
17.188096017
16.8209352497
16.9214517957
15.5424687959
16.0925272774
16.7920006756
15.0335525248
15.4418130102
18.6136300275
20.5231416615
22.3231064887
22.4709702331
19.9108776368
20.2382959123
19.1320916898
19.2921030094
17.9743365848
18.7887048462
20.1905848389
19.9137124713
20.2094851091
20.3088582151
20.3007531213
20.4927641385
20.611827899
22.1473727858
26.7213121879
29.4492390631
29.4687493281
30.1378900279
35.0382869425
44.1843311997
50.0407993393
37.9961789125
0.0253698220579
4.43518036738e-05
2.03081254022e-07
0
0
0
0
0
0
0
0
0
0
0
0
0
0
0
0
0
0
0
0
0
0
0
0
0
0
0
0
17.682540032
16.9076334165
19.6388742787
18.7156843332
18.3618012149
16.7168632898
16.4495683219
18.9737437834
17.6737072469
22.1141013127
20.6012274804
19.082274075
17.1942128891
19.5798924917
19.287475677
18.0568703247
19.1864193543
18.5689991754
16.5476536748
17.4402919726
18.1647377507
16.4742083202
15.3028849988
18.5017718216
20.6308295706
22.1033095099
22.4752997848
19.8923609525
20.4713241095
20.4381096749
20.4767633042
18.6377753522
19.1897618271
19.6514684805
20.8304690298
21.4212476431
21.4990678228
21.3867553384
21.4587663171
22.4207384698
26.6698178543
31.1361429433
32.8068948383
33.432111538
36.1780312191
42.6489275441
45.4718154049
28.6500964385
0.0683104435343
9.88937792165e-05
3.46345093089e-07
0
0
0
0
0
0
0
0
0
0
0
0
0
0
0
0
0
0
0
0
0
0
0
0
0
0
0
0
0
18.4254752608
17.7162816778
19.9881375484
19.6615751727
19.3276565625
18.1007986516
17.5625005545
20.325928263
18.6055249093
22.5727114571
21.4307025555
19.8934257533
18.1197633427
20.3214875415
19.9612219954
18.7915039385
20.0763759394
19.5731344071
17.5513960377
18.8137648667
18.7816376144
17.0988641876
16.4314389327
16.601043374
20.092910057
21.5376747285
22.1989515112
19.8160756725
20.4476926113
20.8618924806
21.3779606535
20.7771158855
19.0077075872
19.496924806
20.9328386246
22.2205683864
22.8047383259
23.0320197758
23.0950625027
26.547001551
31.8557951064
35.2786531944
36.4484306743
37.7645700967
41.28956524
39.8862354402
25.1724937683
0.360874139041
0.000325075530196
9.25831939466e-07
0
0
0
0
0
0
0
0
0
0
0
0
0
0
0
0
0
0
0
0
0
0
0
0
0
0
0
0
0
0
18.3725954024
18.2594576472
20.2152726259
19.7690071614
19.9542184691
19.1932921203
18.5490894774
21.6496864231
20.325316213
23.1912019939
22.317817496
20.7410357522
19.1315510711
21.114268377
20.7138214138
19.6875644628
20.7913133105
20.4535197562
18.6517201592
19.7686983453
17.9862413908
17.7329939805
17.4103694654
17.7794830019
18.7033660965
19.5259038551
21.2873273499
19.6720162268
19.7424001482
20.7790345033
21.7344684512
22.109553899
20.6297332885
20.1858018458
20.7980299993
22.0037898531
23.4686591677
24.7314972867
26.2618341112
31.5574550314
36.3639941781
38.8168663551
39.2023630138
39.4852794218
34.8934921121
27.3096830966
2.44760785534
0.00112916796508
2.52944187064e-06
0
0
0
0
0
0
0
0
0
0
0
0
0
0
0
0
0
0
0
0
0
0
0
0
0
0
0
0
0
0
0
18.5619321203
18.659490609
20.4535688784
18.4873529957
20.190329606
19.7733009937
19.2157060888
22.1599670155
21.0861656372
23.8616741481
23.2679945598
21.6042542991
20.2430065978
21.9460814161
21.5170645002
20.7286801089
21.5555172445
21.4472395581
19.8710183348
21.1093737197
19.2947070694
19.5020376972
18.6274773828
19.0055846013
20.7272232894
21.3110897664
20.8831128672
19.485398429
19.0658470333
20.6951495288
21.7068455104
22.2601698932
22.2613001701
21.2241137996
22.5305774319
22.7252058145
24.0319911017
26.4040832129
30.3231569814
36.2201231814
40.1182330918
41.2990201774
39.0569905027
32.1102005887
29.9090926644
22.7421804472
0.00947514437761
2.15706298208e-05
0
0
0
0
0
0
0
0
0
0
0
0
0
0
0
0
0
0
0
0
0
0
0
0
0
0
0
0
0
0
0
0
19.259425577
19.3332295186
20.6736191643
18.8669843773
20.3819466533
20.0589285387
19.6928091028
22.2496832855
21.6404787488
24.3471720678
24.2309981513
22.4330901462
21.4512031139
22.7780572227
22.299446531
21.7496091116
22.2800980728
22.5390354372
21.1437022084
22.4351058216
21.0763172424
21.7039236316
21.3408721651
19.7503561321
21.2423190687
22.3212662093
22.390681845
19.3588003472
18.2774485849
20.5828662562
21.8276337163
21.5608250492
21.6830595948
21.4621906741
22.5253784544
23.133866729
24.7590395678
28.2021709577
34.4156417834
40.6152440212
43.3485872624
42.0548422044
33.0910720424
30.9112580735
28.382326378
0.107733078859
0.000150312628606
6.09521050855e-07
0
0
0
0
0
0
0
0
0
0
0
0
0
0
0
0
0
0
0
0
0
0
0
0
0
0
0
0
0
0
0
0
20.1495127449
21.4558571037
21.024848935
19.8828576847
20.8820531107
20.4051766233
20.1584964994
22.3227689922
22.1665024503
24.4590956703
25.1968611878
23.1984583502
22.5293825869
23.4270110263
23.0642498847
22.4958669457
22.3481655949
23.5486319779
22.5308366132
23.5830568014
23.1586846923
22.9337373168
22.6566766072
22.1843532582
21.2015218127
22.0903919919
23.3371906557
18.4932277334
17.7520124675
19.7079774488
21.8230113128
22.2733422382
22.7864523577
21.4304126029
22.24664699
23.3422207573
25.1168491716
29.8667305375
38.2940783014
44.6449009028
46.0031051231
38.3232185028
32.4895883787
32.9567368445
8.12613569707
0.00101883263182
2.60030593274e-06
0
0
0
0
0
0
0
0
0
0
0
0
0
0
0
0
0
0
0
0
0
0
0
0
0
0
0
0
0
0
0
0
0
20.8150646604
22.1522057101
21.7013635893
20.7956272335
21.5739761199
20.9627706136
20.7012448176
22.4939382586
22.6959456697
24.2878883431
26.07511072
23.9779253095
23.1491628626
23.9641403503
23.9483398761
23.1800346538
22.4032461444
24.2557399915
24.0278570168
24.5782120539
24.4509013607
24.5054758408
22.8108601349
22.771211358
22.206654845
23.8650275945
24.6775740845
21.0235403097
17.3200031614
18.5769025771
21.1693917907
22.5726470714
22.7798610152
22.0484007986
21.7797964629
23.332768324
25.026985841
31.1693818125
41.841576245
48.6429886892
45.6222132878
33.342100087
34.3903468594
31.6663595225
0.0349316263996
3.00406996604e-05
1.00953811237e-07
0
0
0
0
0
0
0
0
0
0
0
0
0
0
0
0
0
0
0
0
0
0
0
0
0
0
0
0
0
0
0
0
0
21.3240244757
22.5192669927