/*--------------------------------*- C++ -*----------------------------------*\
| =========                 |                                                 |
| \\      /  F ield         | OpenFOAM: The Open Source CFD Toolbox           |
|  \\    /   O peration     | Version:  v1806                                 |
|   \\  /    A nd           | Web:      www.OpenFOAM.com                      |
|    \\/     M anipulation  |                                                 |
\*---------------------------------------------------------------------------*/
FoamFile
{
    version     2.0;
    format      ascii;
    class       volVectorField;
    location    "888";
    object      U;
}
// * * * * * * * * * * * * * * * * * * * * * * * * * * * * * * * * * * * * * //

dimensions      [0 1 -1 0 0 0 0];


internalField   nonuniform List<vector> 
6400
(
(-0.000120892294188 -0.00015653003964 0)
(-0.000317174509721 -0.000112129822972 0)
(-0.000457993384501 -8.60656674097e-05 0)
(-0.000604248310341 -7.32735253941e-05 0)
(-0.000712466410223 -4.72948923996e-05 0)
(-0.000792003043895 -2.81029543343e-05 0)
(-0.00083990319633 -2.05575061674e-05 0)
(-0.0008807964988 -2.93004721131e-05 0)
(-0.00096729951332 -3.90729602607e-05 0)
(-0.00105079419186 -3.65432801393e-05 0)
(-0.00109550677026 -3.26072805558e-05 0)
(-0.00116935353226 -3.29756356075e-05 0)
(-0.00123604099864 -2.91397061247e-05 0)
(-0.00128980488692 -2.36479787678e-05 0)
(-0.0013311713784 -2.11938879278e-05 0)
(-0.00137317363732 -2.32286969404e-05 0)
(-0.00142225676195 -2.3601065201e-05 0)
(-0.00146522181787 -2.05204968164e-05 0)
(-0.00149894247977 -1.66716794936e-05 0)
(-0.00153189090115 -1.52827791876e-05 0)
(-0.00157190158469 -1.90687588302e-05 0)
(-0.0016170656921 -2.26347801373e-05 0)
(-0.00166200545943 -2.25092295324e-05 0)
(-0.00170179345101 -2.08424697259e-05 0)
(-0.00173812816591 -1.86198048105e-05 0)
(-0.00177244103516 -1.63689317779e-05 0)
(-0.00180553957686 -1.49871193534e-05 0)
(-0.00183516153479 -1.33724792203e-05 0)
(-0.00185997283628 -1.14223060855e-05 0)
(-0.00188051843646 -9.87500558156e-06 0)
(-0.00189731657253 -9.18176859631e-06 0)
(-0.00191386236276 -8.19486679788e-06 0)
(-0.00193013847497 -6.75444734413e-06 0)
(-0.00194358770973 -6.37040529018e-06 0)
(-0.00195599446508 -6.07133990709e-06 0)
(-0.00197070178475 -5.54024475866e-06 0)
(-0.00198182611252 -5.25994136527e-06 0)
(-0.0019856152258 -4.32641067804e-06 0)
(-0.00199393137729 -2.68258025579e-06 0)
(-0.00200419404079 -1.20487236203e-06 0)
(-0.0020069839607 -9.40743505318e-07 0)
(-0.00200126000246 2.73437268077e-07 0)
(-0.00199315461396 3.56715332069e-06 0)
(-0.00198412892795 6.05531336736e-06 0)
(-0.00197185585138 7.52737471746e-06 0)
(-0.00195619218314 9.1819464788e-06 0)
(-0.0019368032241 1.10327152114e-05 0)
(-0.00191305756734 1.32644900321e-05 0)
(-0.00188489078182 1.55311440879e-05 0)
(-0.00185200881642 1.67450630316e-05 0)
(-0.00181586777664 1.6862535672e-05 0)
(-0.00177934281487 1.88553820291e-05 0)
(-0.00173679925341 2.44322407765e-05 0)
(-0.00168889183737 2.86268547132e-05 0)
(-0.00162859226018 3.26320515586e-05 0)
(-0.00155185233822 3.78549040869e-05 0)
(-0.00147146785302 3.92694638313e-05 0)
(-0.00139702237529 3.99256168805e-05 0)
(-0.00131779319662 4.45472847263e-05 0)
(-0.00121796921512 4.8830321688e-05 0)
(-0.00111378468306 5.0757325307e-05 0)
(-0.00100671338924 5.90324206118e-05 0)
(-0.000907390856234 7.67331405898e-05 0)
(-0.000753311325933 8.82430548725e-05 0)
(-0.000544481374944 7.16028610546e-05 0)
(-0.000404974618401 5.13585188009e-05 0)
(-0.000321458297084 4.27700999761e-05 0)
(-0.000253869385589 3.80230963602e-05 0)
(-0.000188137228138 3.54916453965e-05 0)
(-0.000119956301896 3.28986161894e-05 0)
(-5.7084450057e-05 2.86825778804e-05 0)
(-4.897156149e-06 2.2199985264e-05 0)
(3.03860538571e-05 1.51661420343e-05 0)
(5.55959471644e-05 8.21180540321e-06 0)
(6.08067228711e-05 2.37786040861e-06 0)
(6.82734149078e-05 -1.16822052865e-06 0)
(5.31039842666e-05 -1.9946298461e-06 0)
(6.22204107971e-05 -6.35900268815e-06 0)
(2.86788327841e-05 -6.16397805947e-06 0)
(2.20235238831e-05 -1.29029078593e-05 0)
(-4.68239448231e-05 -0.000225100451322 0)
(-0.000196925689966 -0.00024609679813 0)
(-0.00034017937454 -0.000215549864892 0)
(-0.000435060544729 -0.000172502023564 0)
(-0.000612577238583 -0.000165011785403 0)
(-0.000762157125171 -0.000116230372717 0)
(-0.000849859233014 -7.71260214604e-05 0)
(-0.000912282729953 -9.30358625781e-05 0)
(-0.000978178779028 -0.000113645386835 0)
(-0.00105000315538 -0.000109852876379 0)
(-0.00111719658555 -0.000100870955121 0)
(-0.00117851481022 -9.49680436326e-05 0)
(-0.00123511337988 -8.35019048094e-05 0)
(-0.00128525065817 -7.05562762246e-05 0)
(-0.00133282874446 -6.45592509357e-05 0)
(-0.00137751260554 -7.24133832781e-05 0)
(-0.00142251755277 -7.48264911573e-05 0)
(-0.00146124625109 -5.79565251339e-05 0)
(-0.00147521734317 -4.53568866909e-05 0)
(-0.00151489131739 -4.68131535747e-05 0)
(-0.00156400397718 -5.90238112138e-05 0)
(-0.00161345235084 -7.11536423338e-05 0)
(-0.00166356948208 -7.00955541034e-05 0)
(-0.00170567652236 -6.13155562583e-05 0)
(-0.00173530971906 -5.4510008023e-05 0)
(-0.00177283220202 -5.02376415883e-05 0)
(-0.00180747969337 -4.53782239243e-05 0)
(-0.00183566138015 -3.96811489496e-05 0)
(-0.00185981760163 -3.42403806262e-05 0)
(-0.00188114872944 -2.98594805568e-05 0)
(-0.00189906969274 -2.70999188714e-05 0)
(-0.00191204556443 -2.38954830087e-05 0)
(-0.00192833125906 -1.95086432842e-05 0)
(-0.00194129669532 -1.88721608732e-05 0)
(-0.00195235772919 -1.93457423937e-05 0)
(-0.00197091462663 -1.67185080511e-05 0)
(-0.00198026746992 -1.52858962718e-05 0)
(-0.00198396502912 -1.40358357231e-05 0)
(-0.00199474378211 -1.02330137503e-05 0)
(-0.00200977113219 -4.4893202305e-06 0)
(-0.00201347700725 2.78213502735e-06 0)
(-0.00198889866468 9.1953577976e-06 0)
(-0.00197089604671 1.34149145547e-05 0)
(-0.00196464841599 1.67298534215e-05 0)
(-0.00195428078581 2.04093712478e-05 0)
(-0.00194184756608 2.50018777096e-05 0)
(-0.00192643528686 3.06102149417e-05 0)
(-0.00190541263616 3.69723036979e-05 0)
(-0.0018822276147 4.3795210161e-05 0)
(-0.00185365206082 5.0373604308e-05 0)
(-0.0018152731341 5.59554021226e-05 0)
(-0.00176354606635 6.12376712066e-05 0)
(-0.00171459785109 6.820381235e-05 0)
(-0.00168822734141 8.04941646174e-05 0)
(-0.00162372628145 9.60420483496e-05 0)
(-0.00155250656504 0.000108468973141 0)
(-0.00148864342038 0.000115249784896 0)
(-0.00141209356363 0.000122139318461 0)
(-0.00132458062028 0.000134637420958 0)
(-0.00123057283248 0.000149091689343 0)
(-0.00112494186302 0.000163477460834 0)
(-0.000989965306567 0.000182392415822 0)
(-0.00088789448813 0.000229176985713 0)
(-0.000729876460625 0.000264831845194 0)
(-0.00053984399094 0.00023219736532 0)
(-0.000380713286096 0.000161789328107 0)
(-0.000287195728335 0.000119546199279 0)
(-0.000230776416776 0.000108142594721 0)
(-0.000167033959399 0.000104230470591 0)
(-0.000104293162709 0.000100688616932 0)
(-4.27947332276e-05 8.76372070794e-05 0)
(6.86253403527e-06 6.55871874735e-05 0)
(3.96146347279e-05 4.17666413117e-05 0)
(6.45606334331e-05 2.46830132648e-05 0)
(7.72390468494e-05 9.81931007861e-06 0)
(8.18371120888e-05 -1.60352004087e-06 0)
(7.8324517752e-05 -8.9070484352e-06 0)
(6.9278356724e-05 -1.9865494019e-05 0)
(4.54843387576e-05 -2.87337607685e-05 0)
(2.20608172471e-05 -5.34642640171e-05 0)
(-6.68923568897e-05 -0.000387551524594 0)
(-0.000186940316002 -0.000410587522382 0)
(-0.000291112695566 -0.000372580561595 -8.27537189559e-29)
(-0.000474192185983 -0.000362212692805 7.50658356219e-29)
(-0.000638560664616 -0.000345607507897 6.47299868159e-29)
(-0.00074918027885 -0.000275149800912 -5.84962486677e-29)
(-0.000831229799577 -0.000153842275564 5.80396233005e-29)
(-0.000896620520801 -0.000156916026455 -5.53867103019e-29)
(-0.000964346750681 -0.000186004775455 0)
(-0.00104013767785 -0.000185279008319 0)
(-0.00111312970681 -0.000170893939713 0)
(-0.00117745803817 -0.000153600003798 0)
(-0.00123427833742 -0.000134379704436 0)
(-0.00128343308601 -0.00011966290635 0)
(-0.00133295120463 -0.000111618100981 0)
(-0.00137890316996 -0.000101893504859 0)
(-0.0013274272676 -8.33415668994e-05 0)
(-0.00131643768457 -7.15337345637e-05 0)
(-0.00136231639983 -8.08290560773e-05 0)
(-0.00144050170824 -0.000107298850222 0)
(-0.00156188648103 -0.000128101049703 0)
(-0.00162618231567 -0.000127004809456 0)
(-0.00165822802835 -0.000114772854661 0)
(-0.00170014788948 -0.000101660075289 0)
(-0.00174168320361 -9.17913178166e-05 0)
(-0.00177552182626 -8.40430327844e-05 0)
(-0.00180637790338 -7.49905073727e-05 0)
(-0.00183495845993 -6.55921754814e-05 0)
(-0.00185973366559 -5.70928045188e-05 0)
(-0.00188058950062 -5.01301730145e-05 -9.55657885534e-29)
(-0.00189998184911 -4.41084514205e-05 9.21185650673e-29)
(-0.00190969330866 -3.86427888309e-05 0)
(-0.0019251355072 -3.28777595119e-05 0)
(-0.00194590626205 -2.89786773562e-05 0)
(-0.00194427053505 -3.12777916691e-05 0)
(-0.00196344652035 -3.11063645165e-05 0)
(-0.00198507212252 -2.56019879632e-05 0)
(-0.00198162263852 -2.28892819729e-05 0)
(-0.00199310001922 -2.02736934095e-05 0)
(-0.00200882365473 -1.02642764157e-05 0)
(-0.00201313887538 6.28588307816e-06 0)
(-0.00200658951865 1.91961884805e-05 0)
(-0.00199724688946 2.41450529768e-05 0)
(-0.00198752257075 2.78195945953e-05 0)
(-0.00197496879835 3.36993032723e-05 0)
(-0.00195884272402 4.12483101084e-05 0)
(-0.00193917612739 5.0375062728e-05 0)
(-0.00191583578724 6.04517310402e-05 0)
(-0.0018888246225 7.1428830455e-05 0)
(-0.00185766160159 8.37134544486e-05 0)
(-0.00182164261042 9.62609181406e-05 0)
(-0.0017808465193 0.000106603205244 0)
(-0.00173591838123 0.000115857624247 0)
(-0.0016812652843 0.000133381750343 0)
(-0.00161657972548 0.00015597925974 0)
(-0.00155585573238 0.000173837387196 0)
(-0.00148742256609 0.000189034120488 0)
(-0.00140669065641 0.000206610846548 0)
(-0.00131579421002 0.000227689709307 0)
(-0.00121505474903 0.000252260584786 0)
(-0.00110026270124 0.000282511899425 0)
(-0.000978728173047 0.000326539104435 0)
(-0.000845317536834 0.000399415351096 0)
(-0.000665147422058 0.000433143574337 0)
(-0.00046586098255 0.000352223790318 0)
(-0.000346329610484 0.000264815196312 0)
(-0.000267512293343 0.000210510740132 0)
(-0.000194284544654 0.00018009542485 0)
(-0.000130140236549 0.000167904104828 0)
(-6.99367368505e-05 0.000156591524213 0)
(-1.42841473013e-05 0.000133449946268 0)
(3.11058196935e-05 0.0001017213259 0)
(6.71236313063e-05 7.33411195685e-05 0)
(9.09640565928e-05 4.50540659104e-05 0)
(9.8530185664e-05 1.71659519291e-05 0)
(9.74533345064e-05 -2.8264366158e-06 0)
(9.01740784431e-05 -1.76923039613e-05 0)
(7.69994066514e-05 -3.9705613395e-05 0)
(5.65118720001e-05 -7.19935665019e-05 0)
(1.54332987805e-05 -7.94051510373e-05 0)
(-6.58959697449e-05 -0.000563807656766 0)
(-9.73271403062e-05 -0.000400046637207 0)
(-0.000237704371425 -0.000553237316322 0)
(-0.000406070176723 -0.000535203604657 0)
(-0.000563882810586 -0.000453587449251 0)
(-0.000364562666541 -0.000196155774803 0)
(-0.000464711198035 -0.000194999470879 0)
(-0.000793729525931 -0.00030882164492 0)
(-0.000922107306041 -0.000304217153732 0)
(-0.00101785657402 -0.000273324235856 0)
(-0.00110264282563 -0.000247135371729 0)
(-0.00117437284858 -0.000218240175471 0)
(-0.00123550852899 -0.000189026190684 0)
(-0.00128050304943 -0.000154426554467 0)
(-0.00126043363525 -0.000114825419906 0)
(-0.00123395958387 -8.93265028566e-05 0)
(-0.00124667423626 -8.86884626933e-05 0)
(-0.00131246846837 -0.000120203027832 0)
(-0.00143301781008 -0.000166283351754 0)
(-0.00153158230433 -0.000199081742351 0)
(-0.00157530261087 -0.000197075034368 0)
(-0.00161972535843 -0.000176718949384 0)
(-0.00166498496406 -0.000157985018599 0)
(-0.00170497353265 -0.000142950753938 0)
(-0.00174121195457 -0.000128998472582 0)
(-0.00177419186197 -0.000116058078831 0)
(-0.00180451622444 -0.000103970343842 0)
(-0.00183476652143 -9.18673661131e-05 0)
(-0.00185832954635 -8.02103781035e-05 0)
(-0.00188239014915 -7.00454129914e-05 0)
(-0.00189553190406 -6.12775247191e-05 0)
(-0.00191449363933 -5.25638382389e-05 0)
(-0.00191805588249 -4.39181427768e-05 0)
(-0.00193628015766 -4.14550466873e-05 0)
(-0.00196121412186 -4.37905486277e-05 0)
(-0.00196212257001 -4.52648748282e-05 0)
(-0.00198260064782 -4.07748071959e-05 0)
(-0.00200099493257 -3.43127341279e-05 0)
(-0.00200757750451 -2.77201786628e-05 0)
(-0.00201157814121 -1.38983936562e-05 0)
(-0.00201272801944 5.49666417266e-06 0)
(-0.00200874939877 2.19134666139e-05 0)
(-0.00200128458095 3.19854043258e-05 0)
(-0.00199145550388 3.97849156992e-05 0)
(-0.00197847211322 4.8833468431e-05 0)
(-0.00196198577095 5.97126597067e-05 7.86139715006e-29)
(-0.00194196992658 7.21873324031e-05 -7.88832826194e-29)
(-0.00191831135247 8.59014454994e-05 0)
(-0.00189089231689 0.000100803899882 0)
(-0.00185937187682 0.000116821288835 0)
(-0.0018231979625 0.000133131224829 0)
(-0.00178178871555 0.000149248179355 0)
(-0.00173451102402 0.00016769430136 0)
(-0.00167999769164 0.000191479109316 0)
(-0.001619370932 0.000216778826701 0)
(-0.00155424598304 0.00024094661 0)
(-0.00148118479427 0.000266662427113 0)
(-0.00139661082105 0.000295441342178 1.42132725496e-28)
(-0.0012997203576 0.000328245450921 -1.6253324225e-28)
(-0.00118920597606 0.000366823406211 0)
(-0.00106288288633 0.000415014906938 0)
(-0.000922230060348 0.000481619567152 0)
(-0.00076564545355 0.000557489984314 0)
(-0.000610373588217 0.000586382447524 0)
(-0.000464675937038 0.000517602327685 0)
(-0.000310187076178 0.000367114668292 0)
(-0.000215388241792 0.000282439631517 0)
(-0.000145086060512 0.000247353325587 0)
(-8.35084048948e-05 0.000228783458934 0)
(-2.819635071e-05 0.00021574044055 0)
(2.6426132382e-05 0.000189594322664 0)
(7.44270597991e-05 0.000149473160694 0)
(0.000103715493283 0.000101057165371 0)
(0.000108107682721 5.18364916161e-05 0)
(0.000109403165745 1.70973204988e-05 0)
(0.000107918823469 -1.00480743429e-05 0)
(9.39182844589e-05 -3.52573853746e-05 0)
(6.00980536032e-05 -5.2549235457e-05 0)
(4.5429199376e-05 -8.81412978702e-05 0)
(1.57551699762e-05 -0.000112212313735 0)
(-1.27240913448e-05 -0.000581576676417 0)
(-5.62206743151e-05 -0.00048559042017 0)
(-0.000210801925133 -0.000711976372515 0)
(-0.000349974528034 -0.000656811251685 0)
(-0.000408788637082 -0.000459174908987 0)
(-0.000342232215217 -0.000266153021229 0)
(-0.000558959778938 -0.000403159096263 0)
(-0.000773891424729 -0.00049974984223 0)
(-0.00087396938431 -0.000434609734029 0)
(-0.000985312174749 -0.000374981491905 0)
(-0.00107988061141 -0.000337418822251 0)
(-0.00116093018688 -0.000293121360342 0)
(-0.00119354271384 -0.000218936333111 0)
(-0.00114799704969 -0.000142545569163 0)
(-0.00117539515686 -0.000114698912776 0)
(-0.00123679598832 -0.000125657993855 0)
(-0.00132725380608 -0.000165901818179 0)
(-0.00142494276034 -0.000217603822678 0)
(-0.00149240629191 -0.000248343495963 0)
(-0.00152627167443 -0.000248207908813 0)
(-0.001572102292 -0.000238837774411 0)
(-0.00162215078023 -0.000223493067042 0)
(-0.00166509646484 -0.000202830761953 0)
(-0.00170475218502 -0.000182200085051 0)
(-0.00174046118289 -0.00016389282379 0)
(-0.00177240135422 -0.000148290345447 0)
(-0.00180540259883 -0.000133333520161 0)
(-0.00183043046468 -0.000118319667116 0)
(-0.00186079462557 -0.000103425025231 0)
(-0.0018753301068 -8.91941566722e-05 0)
(-0.00190064242475 -7.71292937977e-05 -9.19150549136e-29)
(-0.00189543305843 -6.62579701798e-05 8.79389346995e-29)
(-0.00192486537233 -5.9969320911e-05 0)
(-0.00195150645207 -5.67665729691e-05 0)
(-0.00195749174014 -5.8626916767e-05 0)
(-0.00198186690162 -6.11738127922e-05 0)
(-0.00199633240079 -5.74387295982e-05 0)
(-0.00200594188064 -4.60528780138e-05 0)
(-0.0020117677554 -3.17049316872e-05 0)
(-0.00201487566883 -1.42348896913e-05 0)
(-0.00201552618543 6.14425921897e-06 0)
(-0.00201258595026 2.48730361715e-05 0)
(-0.00200606900745 3.92378793844e-05 0)
(-0.00199631294277 5.1367691374e-05 0)
(-0.00198310599204 6.40689629696e-05 0)
(-0.00196634863152 7.83682930663e-05 0)
(-0.00194601229936 9.42925372798e-05 0)
(-0.00192197852503 0.000111648763723 0)
(-0.00189406033384 0.000130390582281 0)
(-0.0018619312756 0.000150451787304 0)
(-0.00182507104371 0.000171539233219 0)
(-0.00178277326745 0.000193898758112 0)
(-0.00173426876278 0.000219122991616 0)
(-0.00167899199856 0.000248168016919 0)
(-0.00161749700118 0.000279370222552 0)
(-0.0015495194066 0.000312425020944 0)
(-0.0014717109001 0.00034932328469 0)
(-0.00138038410399 0.000391520766987 0)
(-0.00127315346503 0.000440358039349 0)
(-0.00114782212869 0.00049816434061 0)
(-0.00100363186233 0.000567377198075 0)
(-0.000845925243189 0.000643744771732 0)
(-0.000685626282908 0.000701531038902 0)
(-0.000552386625547 0.000723245203651 0)
(-0.000424433840772 0.000663288485259 0)
(-0.000284280802377 0.000503074092217 0)
(-0.000177608046148 0.000385730125195 0)
(-9.44248973738e-05 0.000322158342106 0)
(-2.84166601337e-05 0.000287327831781 0)
(2.83265563842e-05 0.000267233903627 0)
(8.39612607957e-05 0.000240972360246 0)
(0.000122239364552 0.000182127758746 0)
(0.000126227655603 0.000105736160323 0)
(0.000129049300706 5.38719694686e-05 0)
(0.000131693674665 1.45476823332e-05 0)
(0.000125391025936 -2.46176306455e-05 0)
(9.80218573207e-05 -5.68353881563e-05 0)
(6.79534146381e-05 -7.84042488632e-05 0)
(4.85386200503e-05 -0.000122043461314 0)
(1.4218607768e-05 -0.000138199898363 0)
(-3.05691719142e-06 -0.000553375744355 0)
(-6.35414451974e-05 -0.000586808151444 0)
(-0.000208777874364 -0.000816996358446 0)
(-0.000302964372889 -0.000705362391074 0)
(-0.000251494029367 -0.000379879066297 0)
(-0.000345835063342 -0.000382891809139 0)
(-0.000647409167138 -0.000619584061331 0)
(-0.000739004291389 -0.000612926596229 0)
(-0.000837398787992 -0.000545944935166 0)
(-0.00094639606363 -0.000484627367479 0)
(-0.00104815491808 -0.000416335660729 0)
(-0.0010326645253 -0.000305667239416 0)
(-0.000980182987454 -0.000194972013511 0)
(-0.00104806008699 -0.000166187052508 0)
(-0.00113075446561 -0.000181901933532 0)
(-0.00125876933449 -0.000227162321073 0)
(-0.00137093905481 -0.000269177458618 0)
(-0.0014436152584 -0.000286792386358 0)
(-0.00147105215204 -0.00028502771356 0)
(-0.00152251587526 -0.000289656000315 0)
(-0.00157748876793 -0.000287573466895 0)
(-0.00162205351068 -0.000269588019802 0)
(-0.00166360871741 -0.00024550304159 0)
(-0.00170216400401 -0.000221681413037 0)
(-0.00174142370644 -0.000199782931423 0)
(-0.00177357118646 -0.000178846771091 0)
(-0.00179507763709 -0.000161960505051 0)
(-0.0018347598259 -0.00014562829541 0)
(-0.00184638593695 -0.000125576835479 0)
(-0.00188323559082 -0.000106469493339 0)
(-0.00187146685755 -8.94447698191e-05 0)
(-0.00190911561473 -8.36019099101e-05 0)
(-0.00190329100254 -7.89004213721e-05 0)
(-0.00194509378946 -7.84111192377e-05 0)
(-0.00197891697712 -8.0153387722e-05 0)
(-0.00199401608875 -7.90969679361e-05 0)
(-0.00200371620449 -6.88653004774e-05 0)
(-0.00201130043029 -5.33448541123e-05 0)
(-0.00201656378075 -3.54261071587e-05 0)
(-0.00201956353919 -1.52446483533e-05 0)
(-0.00202013124231 6.75308158745e-06 0)
(-0.00201761026722 2.78807195495e-05 0)
(-0.00201160149524 4.61934080107e-05 0)
(-0.00200199225334 6.26760512165e-05 0)
(-0.00198871790939 7.93253667814e-05 0)
(-0.0019717693859 9.72664628014e-05 0)
(-0.00195113255208 0.00011678769978 0)
(-0.00192665669159 0.00013788399312 0)
(-0.00189809224058 0.000160585622004 0)
(-0.00186510578594 0.000184950457182 0)
(-0.00182720976805 0.000211070246025 0)
(-0.00178373801001 0.000239448886226 0)
(-0.00173401157277 0.000271067348904 0)
(-0.00167758103943 0.000306371748119 0)
(-0.00161412254569 0.000345206835506 0)
(-0.00154194444532 0.00038880303063 0)
(-0.00145718047144 0.000439489884944 0)
(-0.00135567225288 0.000498993488623 0)
(-0.00123444001408 0.00056841980354 0)
(-0.00109212836523 0.000647424557605 0)
(-0.000932747761346 0.000730655949072 0)
(-0.000767487621623 0.00079870053074 0)
(-0.000602073630919 0.000825044657131 0)
(-0.000488216640126 0.000866553361866 0)
(-0.000345498173788 0.000777326760737 0)
(-0.000220638445236 0.000603660812665 0)
(-0.000124126463256 0.00047927075305 0)
(-3.60232243657e-05 0.000398880344362 0)
(3.70097182756e-05 0.000347280034763 0)
(0.000100359037943 0.000325896219935 0)
(0.000150029173401 0.000283548571919 0)
(0.000156062062763 0.000186734275108 0)
(0.000153118865422 0.000108435601432 0)
(0.00016168609367 5.74250154402e-05 0)
(0.000161429676975 7.79476106106e-06 0)
(0.000149528938371 -4.65619984454e-05 0)
(0.000111077563724 -8.132876782e-05 0)
(8.06860919889e-05 -0.000106356025542 0)
(5.63503023633e-05 -0.000154996517103 0)
(1.72447652861e-05 -0.000168107983135 0)
(-2.24393843787e-05 -0.000603753368555 0)
(-0.000124473154365 -0.000748132672794 0)
(-0.00025864478751 -0.000895842464832 0)
(-0.000311355394633 -0.000844502494834 0)
(-0.000243648864564 -0.000482669810059 0)
(-0.000467188912408 -0.000644010027786 0)
(-0.000645426483961 -0.000748023525062 0)
(-0.00071353391067 -0.000701918972051 0)
(-0.00080794587702 -0.000639492444373 0)
(-0.000883043209884 -0.000575906593103 0)
(-0.00101807407452 -0.000478450018137 2.64086052441e-28)
(-0.000873087782767 -0.000272644959799 -1.78660769111e-28)
(-0.000970716771031 -0.000238941441413 0)
(-0.00103301986233 -0.000246965650763 0)
(-0.00116338202415 -0.00029571125186 0)
(-0.00129670658632 -0.000349500293805 0)
(-0.00137858388261 -0.000354052676809 0)
(-0.00139810878389 -0.000328322582858 0)
(-0.00146086430555 -0.000331676417961 0)
(-0.00152909362621 -0.000344004392367 0)
(-0.00157409382149 -0.000335828537414 0)
(-0.00161984340861 -0.000314102964121 0)
(-0.00166345526198 -0.000288148164054 0)
(-0.00170373861128 -0.000260614970517 0)
(-0.00173548594819 -0.000232802701563 0)
(-0.00176224776351 -0.000207313756102 0)
(-0.00180217516328 -0.000188938551628 0)
(-0.00180674641781 -0.000171104100821 0)
(-0.00185680521843 -0.000148584506977 0)
(-0.00184275494531 -0.000118178903768 0)
(-0.00189029673282 -0.000106980982972 0)
(-0.0018843970458 -0.000103643227299 8.75061774619e-29)
(-0.00192647712546 -0.000103086383804 -8.72633962083e-29)
(-0.00195414124119 -0.000107439029544 0)
(-0.0019890144806 -0.000105738080479 0)
(-0.00200264222539 -9.39890569056e-05 0)
(-0.00201049822452 -7.79225395507e-05 0)
(-0.00201722700557 -5.94970750949e-05 0)
(-0.00202253178985 -3.90626205463e-05 0)
(-0.00202566876548 -1.65999259148e-05 0)
(-0.00202624112313 7.3465963596e-06 0)
(-0.00202389464267 3.10327320466e-05 0)
(-0.00201814678546 5.3061908568e-05 0)
(-0.00200867526048 7.37910923196e-05 0)
(-0.00199539117537 9.45438974316e-05 0)
(-0.00197829955955 0.000116353975781 0)
(-0.00195734441781 0.000139691005529 0)
(-0.00193231283386 0.000164735465294 0)
(-0.00190291061329 0.00019163095968 0)
(-0.00186881746282 0.000220573669888 0)
(-0.0018296080971 0.000251890363679 0)
(-0.00178470209385 0.000286183394458 0)
(-0.00173345698497 0.000324259834038 0)
(-0.00167515527525 0.000366887947913 0)
(-0.00160850330148 0.000415313577875 0)
(-0.0015306058684 0.000472063236957 0)
(-0.00143689775375 0.00053995982721 0)
(-0.00132299957819 0.000620240136276 0)
(-0.00118719342467 0.000711212172852 0)
(-0.00103262357775 0.000806946066665 0)
(-0.000867134405225 0.000893851053198 0)
(-0.000702553189901 0.00095276574797 0)
(-0.00055220099541 0.000986922497855 0)
(-0.000422509318347 0.000989058291056 0)
(-0.000288751514279 0.000896254090882 0)
(-0.000147428802092 0.000693258857003 0)
(-5.05348810471e-05 0.000578076288022 0)
(4.00859617387e-05 0.000494603127877 0)
(0.000119091286674 0.000430035784138 0)
(0.000180148221774 0.000378822392648 0)
(0.000201558814741 0.00029101328567 0)
(0.000188749386986 0.000183573578807 0)
(0.000193797215165 0.000115399902625 0)
(0.000201488160029 6.00704871016e-05 0)
(0.000201153296666 -3.60275194771e-06 0)
(0.000175955376449 -7.07638101009e-05 0)
(0.0001403451884 -0.000116108707986 0)
(9.68506397027e-05 -0.000140789671471 0)
(6.52660223225e-05 -0.000190358564134 0)
(2.19582450395e-05 -0.000209478228132 0)
(-4.25637178597e-05 -0.000702825080773 0)
(-0.000166436177531 -0.000893246302244 0)
(-0.000283186643849 -0.000945574980135 0)
(-0.000216770322745 -0.000631893140155 0)
(-0.000257764713682 -0.00059830458038 0)
(-0.000514101557203 -0.000848477338123 0)
(-0.000603562525955 -0.000837190083372 0)
(-0.000691502214931 -0.00079047043759 0)
(-0.000763245736114 -0.000716092659692 0)
(-0.00085998462463 -0.000645230539474 0)
(-0.000766409182444 -0.000417556238693 0)
(-0.000862202061344 -0.000327081168074 0)
(-0.000952583888014 -0.000316909068866 0)
(-0.00103380857296 -0.000346900146315 0)
(-0.00120903616562 -0.000424983866706 0)
(-0.00130558414716 -0.000441111183926 0)
(-0.00131779322244 -0.00039751125376 0)
(-0.00137959004378 -0.000382369280907 0)
(-0.0014668389864 -0.000398063207578 0)
(-0.00152542212846 -0.0003989394325 0)
(-0.00156945757571 -0.000381992492227 0)
(-0.00161293501911 -0.000357996071981 0)
(-0.00165899333728 -0.000332198338482 0)
(-0.00169948053882 -0.000301245995559 0)
(-0.00174175049427 -0.000264637713517 0)
(-0.00175543292212 -0.000237921636554 0)
(-0.00180651613513 -0.000215601985513 0)
(-0.00181783139996 -0.000190483477347 0)
(-0.00181916043142 -0.00016559936548 0)
(-0.00185044255615 -0.000145120770697 0)
(-0.00190762874684 -0.000132762719493 0)
(-0.00190746027947 -0.000122802071815 0)
(-0.00192375633588 -0.000131803262366 0)
(-0.0019775270059 -0.000137542422625 0)
(-0.00199615126631 -0.00012735773928 0)
(-0.00200837854436 -0.000107465642308 0)
(-0.00201743778557 -8.66013519952e-05 0)
(-0.00202434643913 -6.55065303593e-05 0)
(-0.00202970498878 -4.28980501745e-05 0)
(-0.00203301741296 -1.82595273121e-05 0)
(-0.00203369657682 7.89680913849e-06 0)
(-0.0020314277058 3.43019003429e-05 0)
(-0.00202582310442 5.99207906704e-05 0)
(-0.00201648477267 8.47891999854e-05 0)
(-0.00200323162824 0.000109737021648 7.6599882404e-29)
(-0.0019860122335 0.0001356396714 -7.62593681806e-29)
(-0.00196468615582 0.000163074574822 0)
(-0.00193896113414 0.000192371292683 0)
(-0.00190851128311 0.000223768643316 0)
(-0.0018730475755 0.000257562367565 0)
(-0.00183221485991 0.000294232550486 0)
(-0.00178550705733 0.000334534069417 0)
(-0.00173223262954 0.000379532040966 0)
(-0.00167124819886 0.000430795186735 0)
(-0.00160033947527 0.000490929103326 0)
(-0.00151565372066 0.000563537860729 0)
(-0.00141224441733 0.000651430353547 0)
(-0.00128661746068 0.000753689842911 0)
(-0.00114030388877 0.000863740529051 0)
(-0.000979673797596 0.00097104394 0)
(-0.000811357900587 0.00106056706976 0)
(-0.000644794614737 0.00111459921982 0)
(-0.000492031355799 0.00112910337624 0)
(-0.000359918516358 0.00110354100827 0)
(-0.000253409129418 0.0010611922363 0)
(-9.09171573612e-05 0.000823331644352 0)
(3.70009274121e-05 0.000671399263827 0)
(0.00013195066717 0.00057822642635 0)
(0.000204688367216 0.000490028533201 0)
(0.0002491469988 0.000399785032909 0)
(0.000247948786818 0.000282131179773 0)
(0.000234110411712 0.000182655650223 0)
(0.000239818993956 0.000121747747775 0)
(0.000247439158472 6.35434301097e-05 0)
(0.000249180037639 -1.60081236869e-05 0)
(0.00021824574782 -0.000100645496351 0)
(0.000179510573537 -0.000161550861385 0)
(0.00012054286575 -0.000191664802916 0)
(7.21070909537e-05 -0.000233522780762 0)
(2.44102234576e-05 -0.000260418529544 0)
(-5.68183650087e-05 -0.000822703858506 0)
(-0.000182950023649 -0.00100863239634 0)
(-0.000248736470918 -0.00099142162528 0)
(-0.000211257630461 -0.000694090778689 0)
(-0.000333081295961 -0.000771309616976 0)
(-0.000517134123814 -0.000955865363449 0)
(-0.000568560273814 -0.000921696536647 0)
(-0.000671929795599 -0.000875344832301 0)
(-0.000686250542566 -0.00074954277473 0)
(-0.000863766690605 -0.000728903294491 0)
(-0.000746262105824 -0.000466959385042 0)
(-0.000862908358853 -0.000415341022293 0)
(-0.00094343832031 -0.000410587572971 0)
(-0.00108188483256 -0.000477335100681 0)
(-0.00121530899687 -0.000538663455205 0)
(-0.00129195897818 -0.000509103482147 0)
(-0.00130547786974 -0.000449863412412 0)
(-0.00138311720388 -0.000452350526861 0)
(-0.0014595219503 -0.000464284759413 0)
(-0.00151643644746 -0.000453517085566 0)
(-0.00156738925831 -0.000429591309695 0)
(-0.00160938259463 -0.000400379302056 0)
(-0.00165355136085 -0.000372336321179 0)
(-0.00168063395207 -0.000340430953233 0)
(-0.00171213074851 -0.000295464716401 0)
(-0.0017691723351 -0.000266125668466 0)
(-0.0017533238275 -0.000241474089274 0)
(-0.00183701888835 -0.000216113394096 0)
(-0.0018185017336 -0.00019037702755 0)
(-0.00188582821991 -0.000178279881579 0)
(-0.00187135632846 -0.000157156387966 0)
(-0.00193684483256 -0.000151701338516 0)
(-0.0019646296197 -0.000160289066376 9.00197833924e-29)
(-0.00198555073025 -0.000162017415085 -8.88208526052e-29)
(-0.00200214862709 -0.000144277168112 0)
(-0.00201504832203 -0.00012012030699 0)
(-0.0020251813889 -9.58530338267e-05 0)
(-0.00203263290507 -7.19355592243e-05 0)
(-0.00203808252425 -4.70072291425e-05 0)
(-0.00204148340087 -2.01736478064e-05 0)
(-0.00204232816708 8.35203164477e-06 0)
(-0.00204020132259 3.76158600343e-05 0)
(-0.00203471897867 6.67745893123e-05 0)
(-0.00202550996042 9.57040931437e-05 0)
(-0.00201233415692 0.000124924226355 0)
(-0.001995000909 0.000155160507985 0)
(-0.00197323682678 0.000187033279563 0)
(-0.00194667438716 0.000220966083394 0)
(-0.00191496525717 0.000257247477733 0)
(-0.00187783873826 0.000296218863298 0)
(-0.00183500466298 0.000338491124014 0)
(-0.00178602431394 0.00038510540021 0)
(-0.00173013087479 0.000437717519883 0)
(-0.00166577450423 0.000498939984173 0)
(-0.00159006888539 0.000572592681678 0)
(-0.00149868640991 0.000662869447937 0)
(-0.00138691140355 0.000771754386919 0)
(-0.00125278929846 0.000895377872207 0)
(-0.00110061379034 0.00102252857527 0)
(-0.000936702103887 0.00114079760538 0)
(-0.000762812371958 0.00123639282554 0)
(-0.000585929010386 0.00128202466243 0)
(-0.000422049758547 0.00127624081128 0)
(-0.000279534167686 0.00123131559942 0)
(-0.00017035828372 0.00115726180028 0)
(-4.55133754273e-05 0.00102017915374 0)
(0.000113506127886 0.000759158789787 0)
(0.000230397673886 0.0006600668715 0)
(0.000295880698621 0.000551445234041 0)