/*--------------------------------*- C++ -*----------------------------------*\
| =========                 |                                                 |
| \\      /  F ield         | OpenFOAM: The Open Source CFD Toolbox           |
|  \\    /   O peration     | Version:  v1806                                 |
|   \\  /    A nd           | Web:      www.OpenFOAM.com                      |
|    \\/     M anipulation  |                                                 |
\*---------------------------------------------------------------------------*/
FoamFile
{
    version     2.0;
    format      ascii;
    class       volVectorField;
    location    "341";
    object      U;
}
// * * * * * * * * * * * * * * * * * * * * * * * * * * * * * * * * * * * * * //

dimensions      [0 1 -1 0 0 0 0];


internalField   nonuniform List<vector> 
6400
(
(-8.57869837046e-05 -0.00011525840539 0)
(-0.000234791239442 -8.92461614595e-05 0)
(-0.000344251915977 -7.33121161768e-05 0)
(-0.000469242960547 -6.54226059816e-05 0)
(-0.000558011092171 -3.91168258083e-05 0)
(-0.000619839529923 -1.77634158884e-05 0)
(-0.000645143431561 -1.00348766607e-05 0)
(-0.00066227497578 -2.13882746644e-05 0)
(-0.000742905922241 -3.45193482749e-05 0)
(-0.000826172009998 -3.21477017408e-05 0)
(-0.000848556581561 -2.84450157912e-05 0)
(-0.0009255365055 -3.23350287198e-05 0)
(-0.00099209847064 -2.88998570974e-05 0)
(-0.00104436565779 -2.18662815975e-05 0)
(-0.00107809563482 -1.83542825743e-05 0)
(-0.00111459729512 -2.18131202532e-05 0)
(-0.00116512937873 -2.27038438151e-05 0)
(-0.00120543134386 -1.85029207923e-05 0)
(-0.00122904923645 -1.18583307025e-05 0)
(-0.00124682893398 -7.63879323319e-06 0)
(-0.0012741466137 -1.35719950823e-05 0)
(-0.00131483221513 -2.12019119038e-05 0)
(-0.00136237179938 -2.35898250296e-05 0)
(-0.00140538140809 -2.37329354086e-05 0)
(-0.00144633573631 -2.15336149116e-05 0)
(-0.00148448847208 -1.81314032053e-05 0)
(-0.00152279291825 -1.69779664147e-05 0)
(-0.0015572533793 -1.50308975448e-05 0)
(-0.00158402346598 -1.18811237267e-05 0)
(-0.00160420128467 -9.35378577272e-06 0)
(-0.00161788846044 -9.12435271551e-06 0)
(-0.00163383895422 -8.0263317974e-06 0)
(-0.00164960354532 -5.10817471728e-06 0)
(-0.00165912147206 -4.84406242881e-06 0)
(-0.00166595819485 -4.06888205725e-06 0)
(-0.00168059294813 -3.37232386682e-06 0)
(-0.00169270050509 -4.49788492231e-06 0)
(-0.00168418540273 -3.52233212611e-06 0)
(-0.00169251986413 -1.22632300484e-06 0)
(-0.00171051037134 -1.73578526063e-06 0)
(-0.00172270406965 -9.46659636915e-06 0)
(-0.00172646807482 -1.10606898624e-05 0)
(-0.00172714860306 1.62705275471e-07 0)
(-0.00172084094905 7.64789239638e-06 0)
(-0.00170517312603 1.08411345493e-05 0)
(-0.00168394859516 1.43626637606e-05 0)
(-0.00165613317747 1.76688720314e-05 0)
(-0.00162001844998 2.18029131314e-05 0)
(-0.00157616844038 2.53051356809e-05 0)
(-0.00152560011761 2.40670413013e-05 0)
(-0.00147452811706 1.87114360541e-05 0)
(-0.00143937166097 2.24304673485e-05 0)
(-0.00137544516963 4.38785504286e-05 0)
(-0.00129477979888 5.42061112874e-05 0)
(-0.0011877707701 6.12546930944e-05 0)
(-0.00103782236118 7.3304977237e-05 0)
(-0.000885664627474 7.01624665226e-05 0)
(-0.00075356219748 6.64761012575e-05 0)
(-0.000619454271493 7.63494759386e-05 0)
(-0.000434194707548 8.14502888929e-05 0)
(-0.000252283455079 8.62784981807e-05 0)
(-6.0230453221e-05 0.000105456492832 0)
(0.000206449845833 0.0001295617522 0)
(0.000433311134758 8.64533696696e-05 0)
(0.000529244019369 4.82970141698e-05 0)
(0.000589075985853 3.27220516886e-05 0)
(0.000637025161867 2.12136825449e-05 0)
(0.000682625336947 1.46163695309e-05 0)
(0.000722969674849 9.76352104299e-06 0)
(0.00074033942753 3.02455629197e-06 0)
(0.000743758263148 -4.69150787104e-06 0)
(0.000716751215677 -1.35141481727e-05 0)
(0.000666866818965 -2.48845112268e-05 0)
(0.000633920182698 -4.06302757206e-05 0)
(0.000509666555846 -4.0334916784e-05 0)
(0.00046820476712 -4.17007440704e-05 0)
(0.000323899197509 -2.83682603869e-05 0)
(0.000344111813262 -4.53298286284e-05 0)
(0.000152140964503 -3.52205909066e-05 0)
(0.000113920778844 -6.79948720576e-05 0)
(-3.14918967086e-05 -0.000158580841907 0)
(-0.000135031917269 -0.000179783155675 0)
(-0.000236577780365 -0.00016551826586 0)
(-0.000300293638381 -0.000132010517842 0)
(-0.00044275666098 -0.00013031788725 0)
(-0.00058135288524 -9.16220287715e-05 0)
(-0.000662269008475 -5.40948331924e-05 0)
(-0.000714165771321 -7.33776489672e-05 0)
(-0.000768728455877 -9.94889535852e-05 0)
(-0.000830980568139 -9.67731117472e-05 0)
(-0.000890152432293 -9.04254582729e-05 0)
(-0.000943776429616 -8.99608083355e-05 0)
(-0.000993137187739 -7.93545129003e-05 0)
(-0.00103718611326 -6.46232061036e-05 0)
(-0.00108139870243 -5.7532967247e-05 0)
(-0.00112400905663 -7.12683474832e-05 0)
(-0.00116734074775 -7.50076698613e-05 0)
(-0.00119857256475 -4.50705001691e-05 0)
(-0.00117874077832 -2.39564868967e-05 0)
(-0.00120569440028 -2.33808681967e-05 0)
(-0.00124736690878 -4.39180119747e-05 0)
(-0.00129945638196 -7.18648391293e-05 0)
(-0.00136353271322 -7.89823625429e-05 0)
(-0.00141523938132 -6.88911828098e-05 0)
(-0.00143698439469 -6.11327480207e-05 0)
(-0.00148564718119 -5.78423608267e-05 0)
(-0.0015282984965 -5.20711657128e-05 0)
(-0.00155844237397 -4.36642489141e-05 0)
(-0.00158291276394 -3.52437745413e-05 0)
(-0.0016039527252 -2.84029619513e-05 0)
(-0.00162121770522 -2.54627921049e-05 0)
(-0.00162480485821 -2.1327983347e-05 0)
(-0.00163968848077 -1.22661862038e-05 0)
(-0.00164607002958 -1.32104488175e-05 0)
(-0.00164663983637 -1.60712469287e-05 0)
(-0.001676404579 -9.6185752267e-06 0)
(-0.00167835957372 -1.17307272827e-05 0)
(-0.00167184940143 -1.55131145754e-05 0)
(-0.00169047545302 -1.18622111896e-05 0)
(-0.00172601447441 -6.620202478e-06 0)
(-0.0017417303272 2.11772459343e-06 0)
(-0.00164286459696 1.00839756487e-05 0)
(-0.00160097539278 1.43327665555e-05 0)
(-0.00160234091422 1.76695899528e-05 0)
(-0.00159286073945 2.18134063107e-05 0)
(-0.00158856525544 2.81069996817e-05 0)
(-0.0015837830823 3.72836458839e-05 0)
(-0.00156479772169 4.84186264538e-05 0)
(-0.00154785461628 6.08243602085e-05 0)
(-0.00151660475802 7.19859983488e-05 0)
(-0.00145601461429 7.87628224081e-05 0)
(-0.00135503068677 8.47809313324e-05 0)
(-0.00125903668305 9.65564110215e-05 0)
(-0.00129461875422 0.000132621130786 0)
(-0.00117246334088 0.000170094260628 0)
(-0.00105524823223 0.00019539122177 0)
(-0.000971217621831 0.000210383996122 0)
(-0.000833533986816 0.000222310792363 0)
(-0.000670797521349 0.000249947942529 0)
(-0.000493081938859 0.000285902545463 0)
(-0.000289541830942 0.000323154144177 0)
(-4.85493372732e-05 0.000307212392768 0)
(0.000213912504263 0.000376575905708 0)
(0.000427698258215 0.000267627413673 0)
(0.000529377332654 0.000150253158526 0)
(0.000562490344218 8.34085010883e-05 0)
(0.000596532736777 6.14018553379e-05 0)
(0.000670128037772 5.41834803503e-05 0)
(0.000714322883183 3.65394409922e-05 0)
(0.000744540920861 1.09221431698e-05 0)
(0.000739730823049 -1.96680503721e-05 0)
(0.000706285890958 -4.98728373112e-05 0)
(0.000640706314247 -6.87227391985e-05 0)
(0.000623371111775 -9.3649297107e-05 0)
(0.00056951287965 -0.000109614230666 0)
(0.000509445793666 -0.000118636099926 0)
(0.000434430154442 -0.000114657652999 0)
(0.000354835441276 -0.00013708582997 0)
(0.000224223582327 -0.000159758005383 0)
(0.000104768705572 -0.000269816591099 0)
(-4.83260170344e-05 -0.000273940193638 0)
(-0.000132274711332 -0.000301828742795 0)
(-0.000203239040996 -0.000283161629492 -9.89442145573e-29)
(-0.000354642641883 -0.000292561633473 9.47658223459e-29)
(-0.000499187927025 -0.000293274151327 8.63230886425e-29)
(-0.000583248506182 -0.000234988331831 -7.95355749504e-29)
(-0.000639555194524 -0.000118998319433 8.08656955878e-29)
(-0.000694060393022 -0.000128792151508 -8.02599448734e-29)
(-0.00075218401751 -0.000159756880537 0)
(-0.000819194205794 -0.000163607459331 0)
(-0.000885105792252 -0.000153208861093 0)
(-0.000941561291178 -0.000140081047807 0)
(-0.000991088167506 -0.000123165410569 0)
(-0.00103360706486 -0.00011062259844 0)
(-0.00107618112904 -0.000101073593288 0)
(-0.00111678960887 -8.22418321925e-05 0)
(-0.00099132967716 -5.10384396626e-05 0)
(-0.000953588909615 -3.29375821568e-05 0)
(-0.000983351367606 -4.28664728957e-05 0)
(-0.00105563459305 -8.29077377643e-05 0)
(-0.00123015618361 -0.000128524310738 0)
(-0.00132450185481 -0.000141920715379 0)
(-0.00134637498442 -0.000130222225529 0)
(-0.00139929812786 -0.000115409131429 0)
(-0.0014538417976 -0.000105410134225 0)
(-0.00149159788368 -9.75628550319e-05 0)
(-0.00152408494014 -8.4594227112e-05 0)
(-0.00155455969938 -7.04681193357e-05 0)
(-0.0015796639652 -5.76849819739e-05 0)
(-0.00159739634755 -4.75612871955e-05 -1.68787346025e-28)
(-0.00161909171926 -3.82013166116e-05 1.63921691362e-28)
(-0.00161308862394 -3.02744401942e-05 0)
(-0.00162129137421 -2.0340279347e-05 0)
(-0.00165349592024 -1.1098545329e-05 0)
(-0.00160599465254 -2.15456888482e-05 0)
(-0.00163508780833 -2.64820387308e-05 0)
(-0.00168579783386 -1.83193809613e-05 0)
(-0.00164361209721 -2.4886384917e-05 0)
(-0.00167350646951 -3.57502228153e-05 0)
(-0.00172232401438 -2.4529879536e-05 0)
(-0.00174426036795 1.18376245899e-05 0)
(-0.00174147955692 3.64871475506e-05 0)
(-0.00173460417836 3.33651591015e-05 0)
(-0.00172544359423 3.03571616369e-05 0)
(-0.00171002837617 3.49545300172e-05 0)
(-0.00168908063874 4.3674719116e-05 0)
(-0.00166309619688 5.75935536653e-05 0)
(-0.00163189985783 7.43733506825e-05 0)
(-0.00159540956072 9.41292031442e-05 0)
(-0.00155316367219 0.000119040373555 0)
(-0.00150481621407 0.000145516411586 0)
(-0.00144809603987 0.000164443203719 0)
(-0.00137762461159 0.000173268769435 0)
(-0.00127796475374 0.000209702026054 0)
(-0.00115957342314 0.000259432556854 0)
(-0.00107664036645 0.000298554872032 0)
(-0.000962677210178 0.000334125147653 0)
(-0.00081431724474 0.00037584984071 0)
(-0.000642991603091 0.000424505059689 0)
(-0.000452401374454 0.000479095615654 0)
(-0.000245426319397 0.000531983907674 0)
(-2.53607037413e-05 0.000588665815077 0)
(0.000215194275353 0.000616259102005 0)
(0.000371249763058 0.000406323702427 0)
(0.000451452593546 0.000222684932647 0)
(0.00054052662606 0.000149144339489 0)
(0.00061800324567 0.000119004748907 0)
(0.000662256371874 9.3975565581e-05 0)
(0.000693746339302 5.76924464586e-05 0)
(0.000708648147759 1.24085735731e-05 0)
(0.000700193456481 -3.24116924324e-05 0)
(0.000683645464743 -6.7680855484e-05 0)
(0.000685060209869 -9.53105188681e-05 0)
(0.000667219095843 -0.000135760048644 0)
(0.0006034739895 -0.000176897239511 0)
(0.000522116266011 -0.00019580198589 0)
(0.000434221282855 -0.000203614682879 0)
(0.000346605675982 -0.000256128568957 0)
(0.000243774686529 -0.000368031479213 0)
(6.49251082674e-05 -0.000382237161741 0)
(-4.92480819602e-05 -0.000414526502338 0)
(-6.00069880915e-05 -0.000273867310514 0)
(-0.000168156258314 -0.000432646547726 0)
(-0.00031410850987 -0.000439367449871 0)
(-0.000428154658284 -0.000369588842257 0)
(-0.000235023683677 -0.000135424181436 0)
(-0.000292851076459 -0.000135379772264 0)
(-0.000562799412928 -0.00025463463898 0)
(-0.000705369058969 -0.00027164205569 0)
(-0.000791442764574 -0.000245154776596 0)
(-0.000872041666237 -0.000223584947796 0)
(-0.000937090492391 -0.00019837248977 0)
(-0.000989528920535 -0.00017115049372 0)
(-0.00102044780633 -0.000128270554827 0)
(-0.000946516289357 -7.088671402e-05 0)
(-0.000885789226931 -3.37630329456e-05 0)
(-0.0008827878196 -2.961052884e-05 0)
(-0.000941531238906 -6.99865914952e-05 0)
(-0.00108308515398 -0.000137942616604 0)
(-0.00123013006459 -0.000207358002066 0)
(-0.00127012688396 -0.000219382940365 0)
(-0.00131407737427 -0.000198594295351 0)
(-0.00136718820619 -0.000179746319041 0)
(-0.00141240940128 -0.000165201537656 0)
(-0.00145142178393 -0.000148702129394 0)
(-0.00148591577228 -0.000131366743456 0)
(-0.0015158979912 -0.000114571898124 0)
(-0.00155102883777 -9.72073765396e-05 0)
(-0.00156952925561 -8.00023960607e-05 0)
(-0.0015992861251 -6.48637819324e-05 0)
(-0.00159649863848 -5.08108089345e-05 0)
(-0.00162397976349 -3.54057159941e-05 0)
(-0.0015926290876 -1.83248814493e-05 0)
(-0.00160466680258 -1.60967664861e-05 0)
(-0.00165603861408 -2.67333709012e-05 0)
(-0.00161797403317 -4.20553515772e-05 0)
(-0.00166553623213 -4.56462087619e-05 0)
(-0.00171904310479 -4.86316933808e-05 0)
(-0.00173147144115 -5.52592911834e-05 0)
(-0.00173644265211 -3.77544395699e-05 0)
(-0.0017415326391 -1.14644360061e-06 0)
(-0.00174218640233 2.75240399353e-05 0)
(-0.00173827057586 3.82622313075e-05 0)
(-0.00172958110545 4.42557203178e-05 0)
(-0.00171485668952 5.38810600151e-05 0)
(-0.00169471479981 6.79228933466e-05 1.59275487252e-28)
(-0.00166958500251 8.63131399622e-05 -1.60462311547e-28)
(-0.00163932024414 0.000108291134797 0)
(-0.00160359595905 0.000133952966137 0)
(-0.001561738372 0.000163397917353 0)
(-0.00151242109164 0.000194444085909 0)
(-0.00145254379669 0.000225278248948 0)
(-0.00137840281962 0.000261446646453 0)
(-0.00128844510539 0.00031162089823 0)
(-0.00118778061719 0.000362331362175 0)
(-0.00107717740372 0.000412957503809 0)
(-0.000946198319698 0.000475284200804 0)
(-0.000787977515745 0.000544619501525 3.09541076049e-28)
(-0.000604226895235 0.000617618304148 -3.55194500405e-28)
(-0.000400717213459 0.000689989031849 0)
(-0.000187650336757 0.000749093143255 0)
(1.85434917245e-05 0.000778508415859 0)
(0.000185146610933 0.000734322827373 0)
(0.00033331468626 0.000552350131973 0)
(0.000477952641085 0.000353754170983 0)
(0.000540741086439 0.000226213379761 0)
(0.000597265984161 0.000167039628703 0)
(0.000648706241651 0.00012631463753 0)
(0.000684681979436 7.76807857462e-05 0)
(0.00071789646841 2.07732896847e-05 0)
(0.000734712559032 -3.12581564736e-05 0)
(0.000739798017942 -7.35521513935e-05 0)
(0.000713928811084 -0.000127356100124 0)
(0.000625532562888 -0.000188684915864 0)
(0.000553911936101 -0.000243394856259 0)
(0.000482160800974 -0.000289141129734 0)
(0.000380272442596 -0.000314216417589 0)
(0.000233636814211 -0.000304878863385 0)
(0.00017242825976 -0.000428169521679 0)
(5.86958881003e-05 -0.000513469264556 0)
(-4.02568585824e-06 -0.000409882237831 0)
(-2.91570669113e-05 -0.000334450073493 0)
(-0.000155013088262 -0.000574723872017 0)
(-0.000267853860006 -0.000528338806742 0)
(-0.000277118741698 -0.000333062863205 0)
(-0.000215578742112 -0.000180137523632 0)
(-0.000370444728982 -0.00030147966177 0)
(-0.000583369953834 -0.000436709101372 0)
(-0.000662296793643 -0.000389120489431 0)
(-0.000758998812391 -0.000337709291936 0)
(-0.000845374586856 -0.000308635466129 0)
(-0.000915999643373 -0.000264120215708 0)
(-0.000913164713859 -0.000171287510983 0)
(-0.000822910712759 -8.01872038699e-05 0)
(-0.000838050353934 -4.57855071557e-05 0)
(-0.000890053289004 -5.62790197645e-05 0)
(-0.00098615869641 -0.000107278331249 0)
(-0.0011130493599 -0.000188413688722 0)
(-0.00120394688325 -0.000249377170714 0)
(-0.00121909886578 -0.000257219651565 0)
(-0.00126270075068 -0.000256585468179 0)
(-0.00132121526776 -0.000250134852723 0)
(-0.00136687692477 -0.000230482367328 0)
(-0.00140925594479 -0.000207126414903 0)
(-0.00144621572862 -0.000184813918716 0)
(-0.00147722280383 -0.000165235085247 0)
(-0.00151576849207 -0.000144656059342 0)
(-0.00153163836903 -0.00012292535094 0)
(-0.001573407105 -0.000101797723404 0)
(-0.00156625137572 -7.96696258336e-05 0)
(-0.00161093136077 -5.98931470788e-05 -1.60980534401e-28)
(-0.00155658086875 -3.94785605186e-05 1.49470897403e-28)
(-0.00160798357655 -2.94328060132e-05 0)
(-0.00164759889869 -2.66864357852e-05 0)
(-0.0016196751517 -4.12774966794e-05 0)
(-0.0016829191207 -6.76710945336e-05 0)
(-0.00171012409427 -8.38169974118e-05 0)
(-0.00172841853801 -7.67598230702e-05 0)
(-0.00173764531397 -6.08332491379e-05 0)
(-0.00174182633542 -3.68933410798e-05 0)
(-0.00174579767815 -4.5913886954e-06 0)
(-0.00174737359957 2.42614425863e-05 0)
(-0.00174444442482 4.2615048417e-05 0)
(-0.00173623072544 5.62916297819e-05 0)
(-0.00172230231148 7.1595406456e-05 0)
(-0.00170318049518 9.06155812669e-05 0)
(-0.00167913134557 0.000113778833624 0)
(-0.0016499423985 0.000140990314267 0)
(-0.00161505220913 0.000172528815453 0)
(-0.00157347440253 0.000208647638297 0)
(-0.0015235488652 0.000248840301693 0)
(-0.00146253291433 0.000293279701439 0)
(-0.00138765009735 0.000344619037295 0)
(-0.00129773644293 0.000404497109186 0)
(-0.00119375798826 0.0004694038233 0)
(-0.00107348374193 0.000543494483741 0)
(-0.000929670218034 0.000631189968476 0)
(-0.00075781757309 0.000727090285091 0)
(-0.000560516574302 0.00082181530577 0)
(-0.000347982108173 0.000902768941964 0)
(-0.000137155593208 0.000952306318674 0)
(5.09983252051e-05 0.00095066094102 0)
(0.000181942336889 0.000860395869186 0)
(0.000338260517519 0.000715469501355 0)
(0.000503903380945 0.000499192804958 0)
(0.000574403020641 0.000307871537926 0)
(0.000623790357284 0.000215574805907 0)
(0.000659468614419 0.000159605318539 0)
(0.000688075878325 0.000103643745157 0)
(0.000723967749021 4.37575324031e-05 0)
(0.000762305199066 -1.86124781779e-05 0)
(0.000755040238149 -9.73613602919e-05 0)
(0.000666323431764 -0.000182442513246 0)
(0.000601238703137 -0.000258702294598 0)
(0.000538432545968 -0.000329447515218 0)
(0.000457319551436 -0.000394833485203 0)
(0.000337482605664 -0.000404437030427 0)
(0.000228136274004 -0.000409703644242 0)
(0.000155731631572 -0.000556483528244 0)
(4.40179118882e-05 -0.000600326591162 0)
(1.56797393034e-06 -0.000380750175722 0)
(-3.76182626173e-05 -0.000408564615902 0)
(-0.000158110409947 -0.000655900523971 0)
(-0.000218270252066 -0.000533886203763 0)
(-0.000160625482537 -0.000255882562153 0)
(-0.000218710904794 -0.000261425661937 0)
(-0.000477458914538 -0.000504569047869 0)
(-0.000564992051224 -0.000531003665827 0)
(-0.000634083771343 -0.000477617437694 0)
(-0.000719239649214 -0.000429727269199 0)
(-0.000801966304415 -0.000365215513022 0)
(-0.000732799912684 -0.000234633032674 0)
(-0.000663675202432 -0.000118807076655 0)
(-0.000717485773111 -8.87577866415e-05 0)
(-0.000784890473318 -0.000104748845737 0)
(-0.0009167962578 -0.000162677361718 0)
(-0.00106054045671 -0.000235223894874 0)
(-0.00115420220366 -0.000275331244227 0)
(-0.00115145873638 -0.000272627741357 0)
(-0.00120562775973 -0.000293126194814 0)
(-0.00127373032706 -0.000311524183372 0)
(-0.00131897229206 -0.000299805626869 0)
(-0.00136113162133 -0.000275222235443 0)
(-0.00139928128226 -0.000248656568345 0)
(-0.00144451021339 -0.000223474838191 0)
(-0.00147589771402 -0.000194269324123 0)
(-0.00147851660927 -0.000170872254055 0)
(-0.00154171197887 -0.000149852718625 0)
(-0.00151714606278 -0.000118145948562 0)
(-0.00158787385799 -8.93214749285e-05 0)
(-0.00150531176075 -5.82213300483e-05 0)
(-0.00159141410451 -5.23602316102e-05 0)
(-0.00152605105483 -4.83509721328e-05 0)
(-0.00160588586401 -5.5487441927e-05 0)
(-0.00167854725182 -7.98101927538e-05 0)
(-0.00170838916689 -0.000105185423035 0)
(-0.00172423464741 -0.000103842464809 0)
(-0.0017357113663 -8.82433332051e-05 0)
(-0.00174324867032 -6.63765757122e-05 0)
(-0.00174849331197 -3.94304518456e-05 0)
(-0.00175249562051 -7.97848439186e-06 0)
(-0.00175424952386 2.21113489709e-05 0)
(-0.00175194696442 4.63058209747e-05 0)
(-0.00174441742544 6.68721631772e-05 0)
(-0.00173153822278 8.80079501713e-05 0)
(-0.00171361650333 0.000112093313494 0)
(-0.00169088551945 0.000140130206519 0)
(-0.00166298797668 0.000172644564941 0)
(-0.00162910412706 0.000210315659557 0)
(-0.00158807063162 0.000253860293284 0)
(-0.00153816917179 0.000303811310544 0)
(-0.0014769406427 0.000361021056168 0)
(-0.00140184315785 0.000426838461307 0)
(-0.00131093177291 0.000501830976851 0)
(-0.0012023029979 0.000586674818872 0)
(-0.00107188750714 0.000685917260715 0)
(-0.000914276265144 0.000800563828198 0)
(-0.000728536433787 0.000921418862633 0)
(-0.000521342701027 0.00103288970183 0)
(-0.000304890291061 0.0011131295348 0)
(-9.98944024488e-05 0.0011414347178 0)
(7.2511555424e-05 0.0010886536522 0)
(0.000194634049404 0.000927985937569 0)
(0.000378049538196 0.000898809813028 0)
(0.000491972269411 0.000610674881918 0)
(0.000561640631753 0.000377666387001 0)
(0.000628769139183 0.000258232828797 0)
(0.000674939786082 0.000189850887085 0)
(0.000705523588605 0.000132409372695 0)
(0.000760027847445 7.13514237218e-05 0)
(0.0007929530019 -2.34142904374e-05 0)
(0.000722048968076 -0.00014106385143 0)
(0.000649429899756 -0.000238987328554 0)
(0.000607784207999 -0.000327588569066 0)
(0.000537520397873 -0.000415570770475 0)
(0.000458663622633 -0.000497390540595 0)
(0.000331891798587 -0.00048705826471 0)
(0.000234067720155 -0.00050598752289 0)
(0.000157201265745 -0.000658888049774 0)
(4.77908053443e-05 -0.000687051677483 0)
(-1.36969108111e-05 -0.000413679780359 0)
(-9.019726333e-05 -0.000538408519043 0)
(-0.000209354874493 -0.000715552036139 0)
(-0.000232261651244 -0.000657066696272 0)
(-0.000151649727534 -0.000319921271997 0)
(-0.000322280819078 -0.000471661688242 0)
(-0.000501283683133 -0.000625095837787 0)
(-0.000544276846051 -0.000596495579366 0)
(-0.00061198360749 -0.000544680568731 0)
(-0.000651344727741 -0.000486505116493 0)
(-0.000763154360355 -0.000395213830751 3.70127279266e-28)
(-0.000576586358502 -0.000176570335945 -2.11731117983e-28)
(-0.000664000978159 -0.000148555382039 0)
(-0.000704899207543 -0.000156057540013 0)
(-0.000821956343012 -0.000215868262217 0)
(-0.000983624974841 -0.000307738735688 0)
(-0.00108747248759 -0.000336889418874 0)
(-0.00106318127491 -0.000297156554788 0)
(-0.00112803060611 -0.000314649592068 0)
(-0.00121896844312 -0.000358732355588 0)
(-0.00126386514234 -0.000364556291774 0)
(-0.00131192284061 -0.000345863908666 0)
(-0.00135677763161 -0.000319223764237 0)
(-0.00139784962628 -0.000287959862659 0)
(-0.00142341155966 -0.000251969945361 0)
(-0.00143395609445 -0.000215187358436 0)
(-0.00149208090467 -0.000193944159814 0)
(-0.00145081759018 -0.000168309635042 0)
(-0.00154888743105 -0.000136672790706 0)
(-0.00145575013333 -8.06674926538e-05 0)
(-0.00155423080069 -7.01641297333e-05 0)
(-0.00149901867238 -7.25782660128e-05 1.43550507115e-28)
(-0.0015839946743 -7.82409932187e-05 -1.51748169346e-28)
(-0.00161363200131 -0.000108978220172 0)
(-0.00170212379182 -0.000134792110442 0)
(-0.00172189233337 -0.000132195755334 0)
(-0.00173245249335 -0.000117489152912 0)
(-0.00174186171915 -9.69922392946e-05 0)
(-0.00175038263335 -7.21757195888e-05 0)
(-0.00175684612296 -4.33516991516e-05 0)
(-0.00176106971956 -1.12753733299e-05 0)
(-0.00176297046372 2.07225849074e-05 0)
(-0.0017611164393 4.96929253156e-05 0)
(-0.0017543520747 7.62545399539e-05 0)
(-0.00174255905768 0.000103000776495 0)
(-0.00172600485159 0.000132138781761 0)
(-0.00170477631086 0.000165105518608 0)
(-0.0016783489983 0.000203019055327 0)
(-0.0016457764036 0.00024704356704 0)
(-0.00160587698168 0.000298413912696 0)
(-0.00155696435399 0.00035837082608 0)
(-0.00149662115217 0.000428222492318 0)
(-0.00142198602472 0.000509289101633 0)
(-0.00132985008609 0.000603012813096 0)
(-0.00121620909186 0.000712121834781 0)
(-0.00107608209285 0.000839838867754 0)
(-0.000905925562843 0.000982397466641 0)
(-0.00070800300422 0.00112504905798 0)
(-0.000491101100253 0.00124656485018 0)
(-0.000268485166891 0.00132321661204 0)
(-6.03899556932e-05 0.00132405204038 0)
(0.000109990559032 0.00123975997314 0)
(0.00026352058143 0.00113985815172 0)
(0.000392598798939 0.000998392861388 0)
(0.000494037083664 0.000703278668166 0)
(0.000553614973407 0.000447286983457 0)
(0.000656391318469 0.000327878078978 0)
(0.000727763998732 0.00024381053708 0)
(0.000771021873782 0.000171623787692 0)
(0.00080799692028 8.1053115414e-05 0)
(0.000787796952372 -5.57293363967e-05 0)
(0.000708184899026 -0.000185413335057 0)
(0.000674937499863 -0.00029114934684 0)
(0.00062883965039 -0.000392785324333 0)
(0.00056407322618 -0.000503062722742 0)
(0.000468844542646 -0.00057175844075 0)
(0.000367055641903 -0.000597385897719 0)
(0.000244667372053 -0.000607752944468 0)
(0.000160689845967 -0.00075080688558 0)
(5.55074819653e-05 -0.000799800078399 0)
(-2.88773200249e-05 -0.000483209937481 0)
(-0.000131486892561 -0.000667224914369 0)
(-0.000236624172627 -0.00074151519584 0)
(-0.000143836595044 -0.000427522143616 0)
(-0.000159725812582 -0.000401545514807 0)
(-0.000385702984657 -0.000670712358256 0)
(-0.000464694805933 -0.000691120408382 0)
(-0.000529589928303 -0.00066146290668 0)
(-0.00056326016969 -0.000585803347552 0)
(-0.00063093650093 -0.000525569689522 0)
(-0.000502176203568 -0.000292229728781 0)
(-0.000576085679232 -0.000211059759607 0)
(-0.000648181968916 -0.000207872014094 0)
(-0.000704644661825 -0.000242676108162 0)
(-0.000887978576003 -0.000356033345136 0)
(-0.00101328490047 -0.000411684021874 0)
(-0.000980437763689 -0.000353198363723 0)
(-0.00103307658802 -0.00034293848627 0)
(-0.00114345775187 -0.00039495224677 0)
(-0.00121068039451 -0.000421015543107 0)
(-0.00125100464467 -0.000411822638059 0)
(-0.00129283526319 -0.000390198255598 0)
(-0.00134497707992 -0.000366052599352 0)
(-0.00138481904256 -0.000329635571976 0)
(-0.00143296746391 -0.000277759946864 0)
(-0.001412414099 -0.00024167123882 0)
(-0.00149150399969 -0.000213653067658 0)
(-0.00147312845822 -0.000176115208226 0)
(-0.00144540743246 -0.000137468078807 0)
(-0.00147647908842 -0.000110509120319 0)
(-0.00158841427541 -0.000100443497495 0)
(-0.00154694987485 -8.8064217329e-05 0)
(-0.00155326485194 -0.000125478643193 0)
(-0.0016871582433 -0.000170189828101 0)
(-0.00170924520949 -0.000175835311892 0)
(-0.00172688833475 -0.000153709221833 0)
(-0.00173956463015 -0.00012983102267 0)
(-0.00174953388824 -0.000105886094034 0)
(-0.00175888231115 -7.91166475445e-05 0)
(-0.00176650593002 -4.84751297008e-05 0)
(-0.00177134107257 -1.48045285027e-05 0)
(-0.00177337347406 1.96040060897e-05 0)
(-0.00177193219639 5.27638780404e-05 0)
(-0.00176602067319 8.45984467351e-05 0)
(-0.00175539379325 0.000116600772721 1.54240980453e-28)
(-0.00174028886375 0.000150658926077 -1.53789975811e-28)
(-0.00172066782778 0.000188528420862 0)
(-0.0016959127456 0.000231831376272 0)
(-0.00166509721027 0.000282178817398 0)
(-0.00162715890587 0.000341311092227 0)
(-0.00158046429074 0.000411157005877 0)
(-0.001522463068 0.000493813597712 0)
(-0.00144969129859 0.000591623735065 0)
(-0.00135750870688 0.000707463236631 0)
(-0.00124011393856 0.00084460598715 0)
(-0.00109196763723 0.00100325190098 0)
(-0.000911023551255 0.00117410268622 0)
(-0.000700850781988 0.00133826931808 0)
(-0.000468799703207 0.00147249483193 0)
(-0.000226392991418 0.00154633704625 0)
(-8.0947892531e-07 0.00152156678501 0)
(0.000181343451654 0.00141212913439 0)
(0.000324399657363 0.00125887238797 0)
(0.000419008464479 0.00107179767719 0)
(0.000569674842736 0.00088170075922 0)
(0.000596076560477 0.00052874246439 0)
(0.000688807527721 0.000403525792581 0)
(0.00077585545414 0.000300510799884 0)
(0.000811106260283 0.00019330503458 0)
(0.000821390750917 6.26292826126e-05 0)
(0.00078059038172 -9.29248436455e-05 0)
(0.000732391500519 -0.000221781786349 0)
(0.000713205453106 -0.00033334907351 0)
(0.000670103436569 -0.000453689966143 0)
(0.000609270303528 -0.000581939158414 0)
(0.000506760586481 -0.000657797110339 0)
(0.000409616670005 -0.000719158950046 0)
(0.000268852154391 -0.000742543073551 0)
(0.000157024594488 -0.000848662052955 0)
(5.45630277811e-05 -0.000925354333564 0)
(-4.15189655528e-05 -0.0005731575353 0)
(-0.00015330135952 -0.000775108064214 0)
(-0.00019960688001 -0.000759421769726 0)
(-0.000138618441151 -0.000468631127949 0)
(-0.000228451754087 -0.000539638145827 0)
(-0.000404425012239 -0.000769350123416 0)
(-0.000429165723708 -0.000751997003118 0)
(-0.000515890031122 -0.000721596933497 0)
(-0.000482821614067 -0.00057767090709 0)
(-0.000641180081771 -0.000588568943218 0)
(-0.000489129448608 -0.000318350773868 0)
(-0.000588838518064 -0.000280323733791 0)
(-0.00064232666305 -0.000281464108581 0)
(-0.000760515856258 -0.000368542917622 0)
(-0.000920609501611 -0.000485205969839 0)
(-0.000997019019872 -0.000470585391173 0)
(-0.000959995077959 -0.00038961618935 0)
(-0.00104543624216 -0.000419450901527 0)
(-0.00113643598865 -0.000470006556306 0)
(-0.00119270736605 -0.000476869413044 0)
(-0.00124296582547 -0.000458865729853 0)
(-0.00127634595069 -0.000430350976305 0)
(-0.00132275082014 -0.000403656708124 0)
(-0.00133999530974 -0.000363951030121 0)
(-0.00134990675515 -0.000295021491404 0)
(-0.00143946524653 -0.000265432689211 0)
(-0.0013571344838 -0.000230341805363 0)
(-0.00152333981537 -0.000198472888431 0)
(-0.00142805975165 -0.000159892842323 0)
(-0.00157447779236 -0.000156007173656 0)
(-0.00147831078239 -0.000124574686426 0)
(-0.00161951055169 -0.000129506681603 0)
(-0.00165888780405 -0.000177956136964 1.654309133e-28)
(-0.00169614073081 -0.000214433380991 -1.70327327495e-28)
(-0.00171570914728 -0.000200192424843 0)
(-0.00173269827466 -0.000171913534985 0)
(-0.00174762138325 -0.000143503655998 0)
(-0.00175900771905 -0.000116130022599 0)
(-0.00176886501885 -8.71404195302e-05 0)
(-0.00177713664068 -5.46083869626e-05 0)
(-0.00178280805347 -1.88349214791e-05 0)
(-0.00178538973461 1.83809043109e-05 0)
(-0.00178441889463 5.54292760083e-05 0)
(-0.00177933565724 9.19621873919e-05 0)
(-0.00176997522797 0.000128848329886 0)
(-0.00175635874327 0.000167649660888 0)
(-0.00173834732613 0.000210268330613 0)
(-0.00171545134973 0.000258714423994 0)
(-0.00168696816242 0.00031499917692 0)
(-0.00165202747337 0.00038135743212 0)
(-0.00160912103223 0.000460557951726 0)
(-0.00155560809551 0.000556026697876 0)
(-0.00148732700901 0.000671884643797 0)
(-0.00139806537629 0.000812665078225 0)
(-0.00128003485494 0.000981197173933 0)
(-0.00112643382059 0.00117372888716 0)
(-0.000934786803087 0.00137577021616 0)
(-0.00070623999677 0.00156724751154 0)
(-0.000444774679472 0.00172353233755 0)
(-0.000168187942102 0.00179948204149 0)
(7.0359988529e-05 0.00173421643113 0)
(0.000239299795791 0.00156719969663 0)
(0.000372471513701 0.00137915471515 0)
(0.000494185433536 0.00118064684958 0)
(0.00061523442364 0.000948951212511 0)
(0.00073821009075 0.000665706881632 0)
(0.000741996214052 0.000439066700996 0)
(0.000838409573834 0.000355817180219 0)