/*--------------------------------*- C++ -*----------------------------------*\
| =========                 |                                                 |
| \\      /  F ield         | OpenFOAM: The Open Source CFD Toolbox           |
|  \\    /   O peration     | Version:  v1806                                 |
|   \\  /    A nd           | Web:      www.OpenFOAM.com                      |
|    \\/     M anipulation  |                                                 |
\*---------------------------------------------------------------------------*/
FoamFile
{
    version     2.0;
    format      ascii;
    class       volScalarField;
    location    "480";
    object      alphak;
}
// * * * * * * * * * * * * * * * * * * * * * * * * * * * * * * * * * * * * * //

dimensions      [0 0 -1 0 0 0 0];


internalField   nonuniform List<scalar> 
6400
(
0.867439527918
1.35654003643
2.12570652654
2.57997128381
3.01846331888
3.47196686358
4.09934734851
4.81252014086
5.13166005786
5.67307780841
6.85813181303
7.5906486851
8.18262772704
8.87907485774
9.78851364013
10.7361376718
11.5386840637
12.2938597305
12.9323143506
13.2609721608
13.3345443352
13.5005542312
13.9834837607
14.7913931402
15.6963931531
16.4905130175
17.1040770315
17.6613114568
18.2755778526
18.96100461
19.6628088614
20.1628715217
20.3863112045
20.4734637656
20.4538550414
20.2890723518
20.3048355454
20.6141307962
20.5496887801
20.2233166011
20.3134353614
20.9695817687
21.6483362638
21.9886014272
22.0575735759
21.9419067938
21.7123439668
21.4222404718
21.08375061
20.7162790376
20.2084734945
19.2831665418
18.1109469188
16.7239366313
15.6374488113
14.9762067633
13.8638109919
11.8713307824
9.72307584585
8.28620566598
6.73474448512
5.12792637699
3.40088546562
4.63850203814
8.70778783274
13.6778397669
16.6979444818
16.4359200449
14.4790181042
12.889408282
12.0416404693
12.2478934789
12.7853910272
12.6660612575
14.6912627088
14.1273365787
15.9835411476
9.88727024155
12.8722917237
4.8133592447
3.12524732586
2.47246095956
3.05915394799
4.29138391879
4.1209697757
3.92671113065
4.08034529257
4.47054905907
5.04049556643
5.77506460394
6.67703862711
7.57584071139
8.35848041626
9.10571285866
9.86220734253
10.7345447738
11.6489488402
12.5336278141
13.5399203132
13.6803240209
13.531436896
13.6455349813
14.0703000717
14.8502472965
15.9259108805
16.6407481399
17.2138212205
17.8212326444
18.4576728586
19.1091829818
19.7712043415
20.3951953071
20.6161863575
20.70471911
20.734281221
20.4377908254
20.5267393335
20.8574471933
20.7121410349
20.1871639462
20.2344568919
21.74603097
22.8842544183
23.1011613127
23.0900548614
22.8421359742
22.4392309265
22.0267501504
21.4340004786
20.8275082539
20.4272578784
20.2910287864
19.4481900887
16.9497639979
16.043979847
15.038095712
13.0443022456
11.1165074895
9.32466330764
7.56818966374
6.00573155158
5.54273923444
3.80190023352
4.99080010376
8.80864725621
14.6921808382
18.4684994897
17.2446754249
15.1117058192
13.2194186952
12.5355574196
12.9565059728
14.0469107726
13.4748427949
13.3197122122
12.7898972323
11.584849011
9.74030238121
8.18264504052
4.26865775664
3.17146108542
2.75647647457
3.26260831985
3.48344245748
3.93434093812
4.32720442956
4.29053652661
4.38756842327
4.95175320144
5.75489317464
6.659635508
7.57811605133
8.41029138799
9.16530236041
9.77749660603
10.5611201706
13.3217711826
15.3545039867
15.6947729813
14.950187443
13.3453833978
13.2503849771
14.219505865
15.0568226026
15.815235302
16.6217531986
17.3290681409
17.9399187355
18.5547096417
19.2102908253
19.8269158324
20.5697876536
20.8032664199
20.5855621089
21.0652903939
20.7826285739
20.4108320993
21.0282301425
20.9049074388
20.4188319678
20.4752320522
21.1352304895
21.8126021524
22.1622288449
22.2558244696
22.1840168426
21.9868549291
21.68551091
21.2823905734
20.8025842973
20.2503147712
19.5161714644
18.4759883996
17.4543949911
16.5072958157
14.8384759265
12.955066648
11.1440572956
9.40741550477
7.7858348313
6.4291988666
5.17014989792
4.32753868784
6.19719964456
11.0980580945
15.6575790008
17.9084108992
18.0557453339
16.5010990541
14.8580917913
14.1885373925
14.1063524038
13.4599144865
12.8727516998
12.8387203899
12.4823518548
11.4880668805
9.85923817424
7.427404863
7.60191510036
3.1081301209
5.44090483811
3.51554120642
3.5897500653
4.25840183601
11.8122241959
10.1729512389
5.02148269263
4.93895568842
5.76293746659
6.68482878728
7.61899140227
8.42690552878
9.22199617669
10.9903078055
13.1462881274
14.8008930629
15.1156398786
13.8386885759
12.8075178835
13.033527354
13.510199417
14.1580527884
15.008036229
15.9079679834
16.7589972037
17.5022048343
18.0835679931
18.734007442
19.2926536623
20.0974727377
20.5490365499
21.176743173
20.9969562326
20.4871622476
20.9075656804
20.6387791921
20.3805874683
20.4796828698
20.5823269929
20.8124456442
21.3052428126
21.8388030665
22.1831927
22.3163680058
22.281336206
22.1125649204
21.8322055132
21.4501922036
20.9760122584
20.3983351725
19.6661070342
18.7476112188
17.7067864847
16.4691418149
14.8807965712
13.0776678103
11.2923855602
9.63065341832
8.16908506198
6.99482188255
6.15823438224
6.01757271567
7.29973379103
10.4490313425
16.0419108364
19.5884833364
19.7964440052
18.1583994951
15.8313881631
14.2521444767
13.4824355917
13.653904936
15.0333930541
14.9536503894
13.6183860216
13.4571193323
16.7208757044
13.1349638924
11.1623956296
5.53853074574
7.48019964794
4.18811368679
4.5054472886
6.43998117028
11.6996445157
8.0477229369
5.39433021542
5.45367535054
5.9874386972
6.83390410867
7.78615475797
9.20525389909
11.5923910712
12.5977547559
12.9147235427
12.7997500611
12.4183525708
12.3618913624
12.8636488727
13.1723958625
13.5392068323
14.2462643294
15.1169061835
16.041848456
16.9339796076
17.6331076388
18.3819226832
18.8549930171
19.6849500107
20.128027863
21.3560117647
21.0855161573
20.5396747217
20.6841204505
20.2639582775
20.2427620862
20.4003795047
20.6010366239
20.8029583445
21.0741522726
21.4822929304
21.9240171572
22.2505026337
22.4078189443
22.4039364587
22.2627758738
22.006318822
21.6478747137
21.1908924091
20.62116865
19.9093691527
19.036160677
17.9891578716
16.68623118
15.0788062019
13.3178948125
11.6169682692
10.1112749775
8.89147522489
8.03157442397
7.61474215928
7.8676026103
8.39341574195
10.5760694286
15.5306865255
19.6650851048
21.0956887286
19.9506084185
17.2118708083
14.7640243451
14.4489853171
16.6718743797
17.5206891125
16.4664582245
15.5324395935
18.1540748375
21.1470957104
16.478973459
15.5970248269
9.84946876239
8.99760866112
5.20898715429
5.83305325256
11.9742664599
11.4266583894
6.27737964853
5.94982333071
6.05660487959
6.33262719485
7.10160551465
9.81484397904
13.1145401619
13.5072610878
13.0828591037
12.0117092657
11.467645165
11.6822013624
12.5811913485
12.850640761
13.0348349808
13.6041536065
14.3973510067
15.3126321652
16.1577809087
17.0660939321
18.0899901758
18.482542727
19.5107247539
19.7151636998
21.2432998169
21.077667974
21.9246321003
20.8645025659
19.9579321232
19.9133670842
20.1946103312
20.5025717716
20.7749843281
21.02686752
21.318348915
21.684448134
22.068468609
22.3742721273
22.5430193794
22.563241945
22.4479067696
22.2181619442
21.889610101
21.4634763104
20.9244928429
20.2467853215
19.3997286144
18.3384409923
17.0054628225
15.4256908539
13.7674255409
12.2273104016
10.9328175238
9.97163536101
9.39098261762
9.33450642383
10.1067675926
9.28834959134
12.2762149491
17.3696070238
20.9408801331
22.3553735955
21.4601432676
18.1273221222
15.9685904126
17.7464350878
19.9233383074
19.3848979439
18.3687278551
18.4242988181
22.9431471817
24.5084783385
19.5260271845
19.325783306
11.9481288424
8.76010202868
6.33674865659
5.95059693627
11.8881648427
8.16257939509
6.4085291763
6.50943375453
6.61294552022
7.29229921078
7.72740863264
12.9295556543
13.5500898561
13.5395029328
12.055996529
10.8588819372
11.0046598503
12.3287061004
12.5759426388
12.5200555393
13.0502888761
13.7217751302
14.5161671055
15.4294191108
16.5056825499
17.5501346005
18.106477547
19.4931970617
19.5533386305
21.2341138274
20.9012372406
21.9750890275
21.2501073331
20.5891652014
19.7135847028
19.8202576916
20.2531618379
20.6510932915
20.9658898325
21.2503811085
21.5597858202
21.9081693452
22.2592409753
22.5483431613
22.7225798294
22.7612427402
22.6711808377
22.4733613348
22.1842913964
21.8030047118
21.3105765789
20.6751703116
19.853556161
18.796445179
17.4837609387
15.9924269152
14.4979043705
13.1673235704
12.081781216
11.2657747661
10.8111016887
10.776236384
10.6963579848
10.8140435371
13.6552760275
19.9197954162
22.3179995278
22.7036162674
21.6741723853
19.4412223738
19.1970691123
21.7248687046
22.1452950126
21.2883858616
20.6799737232
22.6089838981
25.3132871526
26.7471249445
22.1799086062
21.0439482616
11.616320313
8.30674992058
7.44290886374
11.9945602581
11.9426242907
7.02080230125
7.024558233
7.1479091193
7.26617711161
7.81118388871
12.7128984127
13.6265228008
13.6482769579
13.0885209854
10.76521404
10.3746861889
11.9663999724
12.5007415986
12.1643286492
12.3876071807
13.100217291
13.921283179
14.7371708418
15.714720185
16.6026604528
17.9599672862
18.220516643
19.4937359383
21.0383723807
21.3519210194
20.5385319588
21.3603387015
21.3800895718
19.8709608055
19.6699846373
19.9543938949
20.3874411311
20.8109822331
21.1641432176
21.4800568332
21.8076497171
22.1544088449
22.4900968044
22.768043969
22.9451332277
22.9995082251
22.9365214932
22.7776064994
22.5387936837
22.2158068953
21.7841341166
21.2034717069
20.4236397532
19.407385421
18.1750430011
16.8368417765
15.5487398142
14.4041899344
13.3962344575
12.5579417388
12.0762265648
11.9872195263
12.1259131146
12.6013142219
12.8914736789
19.9672766659
24.0644261656
24.1394490786
23.5879966997
22.679879534
23.5215913089
24.8607378729
24.1605257065
23.4519687078
23.6284286135
25.8973598048
26.5290713406
27.0784018635
24.2023627659
22.0696298787
10.824466459
8.13361432536
8.09539358583
12.9441765294
10.8069197069
7.54752380342
7.69038192105
7.93886086993
9.2447639079
7.87281044915
13.486750242
14.117463812
13.6678107464
11.746252763
10.3023290631
10.5116484065
12.0642208816
12.1753089734
12.0329412542
12.4176985771
13.1029630345
14.0210066539
14.9531033885
16.3820088306
17.5961290828
17.8972835733
19.900882325
19.3292523803
21.2832258552
20.6103050301
21.9334374125
20.5573026491
20.0100302879
19.7528165384
19.8298127874
20.1442687072
20.555383838
20.9828560229
21.369944447
21.7219287429
22.0711214535
22.4241015772
22.756369532
23.0298865068
23.2095682161
23.2794234597
23.2477728326
23.1360513352
22.958299971
22.7069561907
22.3518704778
21.8455106216
21.1377636697
20.212448583
19.1250824306
17.9925919644
16.9054286682
15.8302976082
14.6972689535
13.7189520663
13.3200422152
13.585164196
14.0961179204
14.4769112956
14.5261461167
16.5810809865
24.2043751651
25.934164366
25.9980325081
26.6773778368
27.7387868306
27.3760219673
26.3374546798
26.0948218689
27.0216959146
28.1416926571
27.9347746243
27.286853302
26.2532828544
24.8778416332
10.1926734694
8.49188589413
9.25689102149
12.9837732682
8.65804422611
8.55603870012
8.36140712355
8.6166538478
11.8874774232
10.5438360841
14.3190141661
14.3613462052
13.7039958262
10.9563376004
10.2955323286
11.9613117244
12.3122480997
11.901020622
11.9966087323
12.5852307738
13.2375491574
14.0995261377
14.8898763627
16.5563230511
18.7481089032
17.8195450232
19.8425961523
21.0485524281
21.5375326579
22.0176894861
20.9979273776
20.9022726637
19.6551348634
19.6439534497
19.988898307
20.3526716651
20.7474136026
21.1692325482
21.582092868
21.974146648
22.3539580384
22.7209143006
23.0565545757
23.3311085793
23.5164188684
23.6033721403
23.6074150146
23.5516523378
23.4463147339
23.2802240337
23.0199478269
22.6145553551
22.0202389692
21.2453548779
20.3670977753
19.4667586617
18.4922007075
17.2470301861
15.8368370198
14.9138032337
14.99695946
15.8276804866
16.5904570875
16.9551502638
16.905756425
15.9249425699
16.3325464542
27.674891366
30.5491595487
31.5928586968
31.4514814217
30.0074475365
29.0417401713
29.2479193878
30.2967983893
30.531473578
30.2048753341
29.8609569838
30.1713881907
30.3416063761
10.0624746384
9.266924172
12.7538412609
13.0722726253
8.64791977331
9.28615185151
9.02145641632
9.5658736353
11.291916197
14.121648399
15.1033702637
14.5880473509
13.8931817283
10.88392835
10.4308065417
12.5053250983
12.3883867896
11.8550890822
12.0229836714
12.7309928816
13.631820785
14.4596044964
15.0841450359
16.1709046262
18.9204091859
20.0748961607
19.3730802818
21.1930670001
20.1921069087
22.0566056486
22.2434708531
20.8178978433
19.5965662066
19.7500025182
20.1805385956
20.5720809613
20.9628997283
21.3784838503
21.8039557454
22.2338806081
22.6548972499
23.0457402483
23.3909679393
23.6708816302
23.8653578542
23.9738282121
24.0191951641
24.0262795249
24.0026501452
23.9350585174
23.7896696839
23.5173908184
23.0874755354
22.5315421453
21.9195172058
21.2147844951
20.102646534
18.4414464402
17.0550040181
16.7056272677
17.6443506326
19.0748964969
20.0034474892
20.3099864554
19.9395593803
18.7040762816
16.8678832044
18.1452843146
32.05058778
37.2891145987
35.9639263745
33.52153899
32.6160065166
32.9757101554
33.6080880858
33.7869277579
33.9698858744
34.4186025698
34.9899643165
35.6422889941
10.3189642461
10.088571892
14.366805058
13.6958899093
11.6877313822
10.4744712327
9.89600037363
11.042093853
10.6599490953
15.0723197639
15.7040579461
14.8819941133
13.9057863459
11.432149347
11.1931278482
12.9831680673
12.3793718293
11.9185472499
12.141341947
12.7779957517
13.7954312385
14.9202528585
16.6586325128
16.3202636298
18.3943609765
20.4664875826
19.2105919586
21.4835898945
22.1842450663
21.0869044006
21.1806751945
19.9781553068
19.8994687603
20.0818504365
20.4288207898
20.8170497378
21.2091201382
21.6216728662
22.044279878
22.4947982242
22.9653341195
23.4004957952
23.763077958
24.0494513406
24.2569157449
24.3931452567
24.4857280905
24.5603072412
24.6237467965
24.6640970533
24.6511136458
24.5475581879
24.3454123034
24.0829301065
23.7544596531
23.0503372357
21.4475722217
19.6129728237
18.9174994557
19.6220698258
21.649693027
23.5526620709
24.5804249577
24.9651166169
24.4617544341
22.8678299869
20.4524368384
17.4435100647
27.5446761925
38.1457767191
41.0310622569
38.2475302237
37.3822711572
37.6303117146
38.0218943507
38.1413091829
38.9022626946
39.632597326
39.5702225727
39.7704071767
10.8558000177
10.7021841462
14.0592254331
14.1218819052
14.1093709617
11.5441993699
10.9037174796
13.9715173843
10.9450280255
15.9233364938
16.1600969884
15.1877317127
13.9255602067
11.9878325627
13.9652512761
14.0533638886
12.5259358631
12.1177850373
12.3917152832
12.9289076249
13.7613212157
14.9001895337
18.0229141965
18.9630301578
17.8225579659
20.5526186527
21.4152070888
21.0157598447
22.1566963505
22.3727754203
21.5849839594
19.9895411937
20.1011853538
20.4147667435
20.7315039984
21.091978778
21.4692095332
21.895792079
22.3373905404
22.7845606951
23.2774990989
23.7663701312
24.1701784594
24.4714876203
24.6936264071
24.8631484696
25.0088170584
25.1523201356
25.300870934
25.4483623729
25.5776802506
25.6809935613
25.7791477386
25.8701606441
25.7376147734
24.6754639872
22.5716117783
21.3534372501
22.5143632743
24.8879661166
27.9563746948
30.0624566388
30.7534221598
31.0278560022
29.7649035197
27.4448258383
24.3862420597
19.6410960856
21.8802210442
34.3700131809
41.4824574729
42.7269548546
41.2592041563
41.9626699369
42.5465861416
43.3304243962
44.4367853268
45.075678647
45.0585476075
45.242823159
11.4526109983
11.3582305317
11.023437035
14.4079042189
14.5916591644
12.2433688378
11.8162700229
14.9059241478
11.5302858382
16.7905401273
16.5641688763
15.505984893
14.0624133909
12.2560192812
15.1361285173
14.5559860378
12.9019147459
12.4859983279
12.7323856179
13.2501769594
13.8530853497
14.8029651591
18.5707493068
20.027081011
18.154098786
20.6242275388
21.9512249609
20.3852116314
21.7882169233
21.8552962451
20.3098556085
20.3462733309
20.5534264263
20.7955816976
21.0639363457
21.4224436569
21.7886558889
22.1731883846
22.6381532423
23.1266290259
23.6296493492
24.1456750003
24.5956472668
24.9309451997
25.1786160543
25.3876943515
25.5892894555
25.7953327731
26.0170226692
26.2579862224
26.5202276908
26.8655650478
27.3388733105
27.8081382887
27.5854257083
25.8460265248
24.3017495888
24.2518518398
24.4466553983
25.6001554994
26.5245065285
24.5974700483
19.384015388
14.6300569116
9.72455352986
9.06437075323
13.9291588397
18.4095195624
20.9882233899
20.5047450192
43.6188270965
47.6118768781
47.1053044271
43.165087014
41.3676213822
45.5677283255
49.3087935355
50.6065533986
51.8105793934
52.3257062664
12.2270010819
12.3096201424
15.0251734626
15.0003986072
14.9821950481
12.8319748909
12.8241734659
15.6876025094
12.4949420513
17.529690372
16.9422261318
15.8425060876
14.2757364393
12.6133011416
15.383807945
14.6779214994
13.2784708176
12.906637069
13.0980451356
13.5550881185
14.107394099
14.8488479221
17.9088649695
20.840705703
20.947663876
19.9216685558
22.1682922874
22.8662944021
20.409603749
20.0775587466
20.2311947756
20.5748225393
20.8935002909
21.1678296816
21.4575380815
21.7727336466
22.1341321317
22.5321934353
22.9595912956
23.4759644914
24.0248750848
24.5649377856
25.0438648391
25.4165274166
25.7077731258
25.9666182957
26.2241885023
26.4901351732
26.759516511
27.0375237007
27.4013002985
28.0107022268
28.9038350724
29.6269403635
28.7542350562
26.7053363349
21.5594257695
9.25361412759
0.0154883488712
0.000290351172717
4.92165135113e-06
1.4239558481e-08
4.04657168834e-11
7.00453900151e-16
5.47897118897e-16
1.33016821352e-15
8.96638543185e-15
4.19980487632e-14
1.55141001772e-13
9.85896821571e-13
7.71935203082e-13
6.69695758012e-11
3.81168785572e-08
3.83155964134e-06
0.000290750651925
0.0669528494295
38.524467574
54.8390947549
58.6549467931
59.6235540689
12.9470102822
13.1352456903
16.6125535608
15.5992069202
14.9979504353
13.4341271338
13.8093200889
16.3247385026
16.3013905546
18.4376789663
17.3709783514
16.2640604284
14.5622190221
13.1182362913
15.6455474159
14.7460126764
13.6495295326
13.3374786592
13.4624059509
13.84299984
14.3716342444
15.1129541882
17.3329956828
21.1011683813
22.3418044988
19.5351467562
21.7114743477
22.8880716758
22.4356331456
20.5871569985
20.3398858117
20.801056083
21.2503806879
21.6000178498
21.8260098913
22.1494785306
22.4941718976
22.9053702061
23.3443325567
23.855599282
24.4437417261
25.0284118427
25.5247838487
25.9133284123
26.2573432335
26.62140678
26.975114179
27.2658660423
27.4634986126
27.7057734242
28.1661594046
28.9828523486
30.2475521467
30.8775614867
27.0448374444
11.1160157726
7.7870181526e-06
3.15336656229e-08
9.11902563697e-10
1.32756297366e-11
1.07861686203e-14
1.79977559982e-17
1.26867008007e-18
0
0
0
0
0
0
0
0
1.76450372861e-22
5.95130578237e-20
8.90188493791e-18
5.16458856601e-15
7.21366274949e-12
3.90638274609e-07
0.00593231377726
42.5496424888
62.5029334057
13.5310167649
13.7418568761
18.7983071804
16.0457345344
14.7424582375
13.9714945399
14.506984399
16.292831879
17.8836285939
19.4877590071
17.9527110316
16.8138502877
15.0932604461
13.9256263665
16.1151725109
14.9731906805
14.1058562147
13.8219250888
13.8665924345
14.1664404899
14.6281814589
15.3183996839
17.093618705
20.9727608595
23.335633331
22.4610369865
21.1502919758
22.2422804482
22.0955385259
20.4412669549
20.8023829588
21.3030737067
21.8066947151
22.0874454396
22.3275337301
22.5563937601
22.9162473194
23.3026192134
23.7625919122
24.2852421766
24.8805087931
25.5110328225
26.083218925
26.4906656402
26.8732635995
27.3439304094
27.8036635865
28.0770089322
28.1565000339
28.3229558769
28.7980189654
29.6154757135
30.7478759574
27.9573605909
0.0515664976938
1.12738172224e-08
3.69732117749e-12
1.49504398318e-13
2.03844746528e-15
5.58997694101e-18
0
0
0
0
0
0
0
0
0
0
0
0
0
2.27356285276e-21
2.2592791407e-20
4.9528293918e-19
2.40155848421e-17
1.33364053318e-13
0.000111007384512
2.139846517e-09
13.984097279
14.1828790651
20.8871616287
16.3774444981
14.7690484253
14.4762983051
15.3035206773
15.5180659945
18.8337787601
20.2350032469
18.5215713562
17.3803284442
15.8317079958
15.8756586137
16.77266849
15.4464894793
14.7626993726
14.5101968292
14.3793229078
14.5779397841
14.9379431153
15.5552269309
17.0566180503
20.8396800049
23.7454683858
24.1274330243
20.7325261034
20.9966139304
20.6052183949
20.5610733828
21.0938161258
21.8166121372
22.311190635
22.6088521569
22.859135826
23.1876156779
23.3991126564
23.769084646
24.2176757318
24.7298394467
25.3920436216
26.0799862638
26.683801668
27.0434733547
27.4289668593
28.6750874526
30.4340798905
30.9072991978
29.6532824322
29.4192855008
29.7204902621
30.3760411079
27.5258374704
0.00596590243795
8.99139647651e-08
4.03368182952e-19
4.07608545889e-16
6.65104817034e-18
0
0
0
0
0
0
0
0
0
0
0
0
0
0
0
0
0
0
3.51258332794e-20
2.37866341247e-19
4.38645254533e-17
94.3707894742
14.3912798841
14.5568416229
20.6739995794
15.6873801996
14.9073905006
14.9108706671
16.2115304343
15.4272887482
19.6291446218
20.9389771795
19.070584877
17.9119049947
16.3965732378
18.1752720293
17.7063207913
16.1266848272
15.5232712651
15.5914275775
15.117077149
15.160117784
15.3481145213
15.8257925399
17.1663876167
20.6910871691
23.6109876754
25.2440950724
23.6877885345
22.5202359287
21.7864824492
20.8507080849
21.4126113891
22.512192206
22.7335907389
23.1207662968
23.6944459131
23.7716269451
23.9827867301
24.3475217999
24.8019918919
25.3050746693
25.8850005978
26.617425303
27.3670338096
28.2320853376
29.3665252493
31.046591905
32.319352471
32.0458550433
31.7238392246
32.123392397
32.7777430014
32.6437429555
0.0271305964423
2.47648167574e-07
3.25489551404e-11
4.42077198004e-13
0
0
0
0
0
0
0
0
0
0
0
0
0
0
0
0
0
0
0
0
0
0
1.08081622744e-19
7.86676005869e-09
14.8795358883
15.0249209456
20.2559723156
15.2619519017
15.1668809301
15.2615440556
16.9844585096
15.8448251767
20.3039115056
21.6303046334
19.6228008218
18.4563998731
16.8762454983
18.8864743997
18.5698338596
16.8829092506
16.2704842604
16.4620504838
16.0072446367
15.9677004959
15.9674551285
16.1328639443
17.4389979465
20.6689227416
23.3309094083
25.5887764887
24.9133908302
22.9585643178
20.9691581524
21.3827787573
21.9838714275
23.0391587846
23.6988162143
24.1909655395
24.5377909104
24.4529594616
24.6451579287
25.0260538442
25.483839494
26.0095146904
26.5821144461
27.3886605534
28.5264619092
30.1663678284
31.2272578621
31.4229679138
31.9654576817
32.302510373
34.1708577476
36.2157878876
39.0523911617
0.247212493445
3.2825099621e-07
5.66052013599e-11
1.1610018301e-13
2.81100876175e-15
9.43560224685e-18
0
0
0
0
0
0
0
0
0
0
0
0
0
0
0
0
0
0
0
0
0
1.81634802118e-20
2.40319433347e-20
15.620705
15.767584236
19.8475819299
15.4924247356
15.7122686785
15.7176180824
16.9087977423
16.5610261211
20.7685024282
22.285063586
20.214491339
19.0574934566
17.4883861206
19.5429329281
19.3570961346
17.7468106907
17.0890275272
17.316286944
16.8710894605
16.9248423456
16.8787366665
16.6061853735
17.9100720692
20.8284325067
23.2008396389
25.690788949
25.4416902883
23.58681158
21.3998477405
21.5985261226
22.6751037899
23.1161677238
23.6173140526
24.352704685
25.4929572684
25.4949558585
25.5943416863
25.8015830019
26.2119829898
26.8199482565
27.5079365845
28.4432334977
30.4864397009
32.3680692265
32.4099892996
32.4086768823
33.4584973283
36.8544392637
41.1167143196
42.9981007663
0.0706293792912
1.17327799849e-08
4.85529872455e-13
1.59189310702e-16
9.98827553676e-19
2.02454250605e-18
3.10894182758e-19
0
0
0
0
0
0
0
0
0
0
0
0
0
0
0
0
0
0
0
0
0
1.34251612893e-21
6.0959712585e-21
16.7512261568
16.8514886757
20.0588699342
16.4137877732
16.885264643
16.5545859351
17.1421203452
17.9197156015
20.7333304611
22.7578848102
20.8761733152
19.7371154942
18.2158336593
20.2912075065
20.1750466743
18.7849758696
18.1078977647
18.3307764209
17.7414314908
17.9861072352
18.125435848
17.3261234937
18.4374563027
21.1674149378
23.2563247077
25.5341710254
25.6753190862
24.1644011911
23.5840759578
22.4907602288
23.1184897449
24.0693717161
25.232047171
24.9308866472
25.6291511129
26.5694561892
26.63515568
26.9470232075
27.2273763892
27.7124114326
28.5465228188
30.5289768985
33.4614696671
34.2815628988
33.8490403465
34.9871738979
39.8288044752
46.9409044939
48.5061959179
0.00254055082989
1.77757950108e-10
1.65961284161e-15
1.13556181567e-17
0
0
0
0
0
0
0
0
0
0
0
0
0
0
0
0
0
0
0
0
0
0
0
0
0
0
0
18.3468755764
18.1910208765
20.802178916
18.3433733411
18.8914486565
17.8123623171
18.0494457403
19.9079220775
20.8833024703
23.344042834
21.6650289402
20.5069057876
19.0360064934
21.0770555688
20.9881605336
19.9358982406
19.6398447538
19.6727846508
18.702978979
19.1545200094
19.6928084917
18.3886507394
18.8308583471
21.5857754086
23.5025357178
25.3805035637
25.8560060998
24.2720119782
24.7825189701
24.1297824385
24.2522019615
23.666797369
24.7847567532
26.2827103897
26.5977230024
27.2332401649
27.6802058569
28.0011380661
28.4678355034
28.9671988865
30.4254858052
33.9312707642
36.3000361574
36.4866794937
37.1036842434
41.2508629239
49.5221664184
50.6489476621
3.60371622706e-05
1.58634274268e-12
2.77326193783e-15
1.26984128133e-17
0
0
0
0
0
0
0
0
0
0
0
0
0
0
0
0
0
0
0
0
0
0
0
0
0
0
0
0
20.0486406518
19.4511571055
21.6273726746
20.9365978827
20.6221627423
19.2903813707
19.0628732312
21.0479625014
19.9745292222
23.7906300577
22.5641434586
21.3595255132
19.9407724401
21.8790515905
21.7441665358
20.8930628524
21.8198348254
21.3024832604
19.7955199505
20.4665280154
21.0649352271
19.7750244503
18.9266309447
21.5618781689
23.6768304166
25.2641802253
25.9195763636
24.3460005139
25.1449620524
25.4411330522
25.5879457596
24.4412898856
25.0953831919
26.1165331921
27.5526645471
28.4826353174
28.9702490033
29.2411801705
29.6682106519
30.7366514112
33.9747235584
37.6910751881
39.3595383084
40.1305801178
42.7987248222
48.9818881298
47.427130543
1.67078988182e-06
4.27136525051e-12
6.18370237671e-15
2.16565186634e-17
0
0
0
0
0
0
0
0
0
0
0
0
0
0
0
0
0
0
0
0
0
0
0
0
0
0
0
0
0
20.8833618515
20.3457278537
22.1557880499
21.9878255156
21.6931418369
20.7051182063
20.2652524218
22.4466834975
21.013414352
24.3727499417
23.473594636
22.2616558947
20.9249044343
22.7165072873
22.5201087699
21.7007492161
22.7881493264
22.4066597531
20.8742481024
21.7784414721
21.7973760287
20.572609307
20.0076400805
20.209990047
23.1870453879
24.777767485
25.7167126613
24.3319715057
25.2169423071
25.9817924351
26.6705700505
26.3710306568
25.3419726129
26.155205451
27.7910416314
29.3741312562
30.3794916596
30.9365881657
31.3804931655
34.0323273783
38.3092322862
41.4397795797
42.7786963683
44.3604774225
48.182250214
43.1480742948
5.93078070708e-06
2.25650014486e-11
2.03265599172e-14
5.78910949695e-17
0
0
0
0
0
0
0
0
0
0
0
0
0
0
0
0
0
0
0
0
0
0
0
0
0
0
0
0
0
0
20.9774463812
20.9322112826
22.4986153199
22.2134424625
22.3927455608
21.8185359529
21.3257498327
23.8232524983
22.7384672223
25.1352716069
24.4453208067
23.1999013747
21.983026765
23.6043855713
23.3720063765
22.6511482226
23.5936408826
23.3770124105
22.0221048967
22.8137176092
21.4848906015
21.3279357109
21.066320466
21.3492661605
22.2069503312
23.1601104945
24.8959836413
24.1825238545
24.7526573289
26.0231022467
27.1401655672
27.7604534533
26.9320037107
26.9581881414
27.9477404041
29.4886949902
31.255646026
32.7103333453
34.1574443661
38.2443853404
42.4274915374
44.8657852005
45.6949566592
46.9115788845
41.0117348983
7.89353366362
1.53045809678e-10
7.06054383265e-14
1.58162786691e-16
0
0
0
0
0
0
0
0
0
0
0
0
0
0
0
0
0
0
0
0
0
0
0
0
0
0
0
0
0
0
0
21.2585931019
21.3674362301
22.8178888471
21.2910393526
22.708562175
22.4482887793
22.0563857877
24.4490875875
23.6090318477
25.9327011836
25.4666788816
24.1482100079
23.1239410677
24.5302355661
24.2720923582
23.7406103719
24.4800491933
24.4584132417
23.2914800278
24.2315861731
22.8502536779
23.018969098
22.3355734007
22.6431971232
24.0870627976
24.697159704
24.5577198132
23.971855493
24.2778232561
25.9990662414
27.1773969284
28.0322095755
28.3879346494
28.0849928921
29.4229305832
30.2687935238
31.9913731173
34.4009746539
37.6725488077
42.5001173683
46.0986573397
47.4824403396
46.0606849439
40.3065081215
33.8167391577
5.79157187726e-09
5.92468740418e-13
1.3487840787e-15
0
0
0
0
0
0
0
0
0
0
0
0
0
0
0
0
0
0
0
0
0
0
0
0
0
0
0
0
0
0
0
0
22.0098737029
22.0850670293
23.1560141703
21.7424609076
22.9907985883
22.8116554455
22.5892085336
24.672095437
24.2374187244
26.5354117168
26.4792697268
25.0499755955
24.3367539015
25.4515561644
25.1429450698
24.8023143171
25.3347992125
25.6288936007
24.607657619
25.6523500406
24.645893922
25.1360975184
24.8525231422
23.5937534524
24.7953337538
25.7982358093
25.8873725908
23.8624330088
23.731720727
25.9378573603
27.3636423552
27.665583981
28.1695130361
28.4575004352
29.7478396326
30.9100726265
32.869326222
36.1639060612
41.3567611234
46.7173775259
49.4414796185
48.9081416551
44.2493338845
36.1300836363
6.00182172223
6.73641255363e-12
9.39885770497e-15
3.81125769557e-17
0
0
0
0
0
0
0
0
0
0
0
0
0
0
0
0
0
0
0
0
0
0
0
0
0
0
0
0
0
0
0
0
22.9542967086
24.0247834793
23.6477670282
22.7676948654
23.5652859013
23.2383977476
23.1083689922
24.8724010497
24.8188295713
26.7921392711
27.4708933972
25.8686612148
25.4203915975
26.2110564176
25.9782574032
25.612112057
25.6233259522
26.7018543789
26.0002296637
26.8953370567
26.6434915677
26.4712234573
26.2765053167
25.8570034697
25.0891668427
25.888365472
26.8789836965
23.3649199701
23.286241058
25.2683674671
27.446395731
28.3095962702
29.0357267152
28.5473760192
29.6585497337
31.2192778671
33.4124504989
37.8113582458
44.9568237344
50.6551375517
52.0724438757
46.5404015389
41.9843222309
38.1726283849
5.08116941445e-10
6.37063101116e-14
1.62593826466e-16
0
0
0
0
0
0
0
0
0
0
0
0
0
0
0
0
0
0
0
0
0
0
0
0
0
0
0
0
0
0
0
0
0
23.683056386
24.7870527026
24.3967161932
23.7010500958
24.3084350266
23.8509408962
23.699836374
25.1599414211
25.389079898
26.7873489566
28.3635110783
26.6677085779
26.0894920979
26.8488847608
26.8953733542
26.3562694911
25.8664237694
27.4728736325
27.4429287312
27.9835683703
27.9966304127
28.1081107276
26.8052673179
26.7703909096
26.2834092855
27.5691868797
28.2633124389
25.3610810331
22.9422265802
24.3155631119
26.8357155125
28.5787376063
29.3074392712
29.2111689377
29.400478314
31.1571858612
33.4500009621
39.1097090356
48.3378211211
54.5883752732
52.6183496538
45.1045555766
36.998816317
17.5494568238
2.18423022055e-12