/*--------------------------------*- C++ -*----------------------------------*\
| =========                 |                                                 |
| \\      /  F ield         | OpenFOAM: The Open Source CFD Toolbox           |
|  \\    /   O peration     | Version:  v1806                                 |
|   \\  /    A nd           | Web:      www.OpenFOAM.com                      |
|    \\/     M anipulation  |                                                 |
\*---------------------------------------------------------------------------*/
FoamFile
{
    version     2.0;
    format      ascii;
    class       surfaceScalarField;
    location    "480";
    object      phi;
}
// * * * * * * * * * * * * * * * * * * * * * * * * * * * * * * * * * * * * * //

dimensions      [0 3 -1 0 0 0 0];
oriented        oriented;


internalField   nonuniform List<scalar> 
12640
(
-1.9968079416e-07
2.00014402492e-07
-3.80944990693e-07
1.81503502615e-07
-5.38850401804e-07
1.58076429008e-07
-6.70460521634e-07
1.3173415919e-07
-7.65191188108e-07
9.48477123326e-08
-8.21632376901e-07
5.65770712652e-08
-8.59125225472e-07
3.76202783776e-08
-9.20833737241e-07
6.18211250034e-08
-1.0083642544e-06
8.76257624504e-08
-1.08964552555e-06
8.13579998048e-08
-1.16376057024e-06
7.41687411207e-08
-1.24172704864e-06
7.8010499485e-08
-1.31064782467e-06
6.89558195089e-08
-1.36536264601e-06
5.47460425622e-08
-1.41378113966e-06
4.84474200869e-08
-1.47003637682e-06
5.62916898875e-08
-1.52802396788e-06
5.80200419658e-08
-1.57450242758e-06
4.65089063504e-08
-1.60744366419e-06
3.29538532873e-08
-1.63550912112e-06
2.80661340939e-08
-1.67721954793e-06
4.1701135772e-08
-1.73472408501e-06
5.74940717272e-08
-1.79563026116e-06
6.08911708656e-08
-1.85350548019e-06
5.78620995889e-08
-1.90556644392e-06
5.20448227108e-08
-1.95153702168e-06
4.59564808706e-08
-1.99413164788e-06
4.25769389528e-08
-2.03189374056e-06
3.77467108672e-08
-2.06330945805e-06
3.13959017749e-08
-2.08965485931e-06
2.63277119448e-08
-2.11458463625e-06
2.49066075918e-08
-2.1366752286e-06
2.20697731618e-08
-2.15315785127e-06
1.64597039406e-08
-2.16912588867e-06
1.59437704422e-08
-2.18451864366e-06
1.53590303001e-08
-2.19797853694e-06
1.34272589052e-08
-2.21233974035e-06
1.43204277238e-08
-2.22495377447e-06
1.25690032357e-08
-2.23265066313e-06
7.64444995807e-09
-2.23752558191e-06
4.82364727234e-09
-2.24694823419e-06
9.36833812134e-09
-2.25419124836e-06
7.19340888371e-09
-2.24611933246e-06
-8.1237006766e-09
-2.22698696467e-06
-1.91844817138e-08
-2.20182007263e-06
-2.52247552745e-08
-2.16965363489e-06
-3.22247569376e-08
-2.1298925206e-06
-3.98261042932e-08
-2.08088233014e-06
-4.90764871589e-08
-2.02265227157e-06
-5.83031520116e-08
-1.96096503498e-06
-6.17610348731e-08
-1.9020693699e-06
-5.89802421316e-08
-1.83602932889e-06
-6.61254699358e-08
-1.74132450814e-06
-9.47975548804e-08
-1.62377695614e-06
-1.17648398284e-07
-1.48869008706e-06
-1.35197013736e-07
-1.32940398577e-06
-1.59401433927e-07
-1.16468704227e-06
-1.64858162095e-07
-1.0001979448e-06
-1.64662214968e-07
-8.15840053772e-07
-1.84568162191e-07
-6.13090256889e-07
-2.03009821933e-07
-4.00457851263e-07
-2.12956333621e-07
-1.7317845521e-07
-2.2766921778e-07
1.19088214272e-07
-2.92712299106e-07
3.234605247e-07
-2.04673850225e-07
4.29741935492e-07
-1.06458079108e-07
4.89750974794e-07
-6.01276514141e-08
5.23168309127e-07
-3.35265827339e-08
5.40614848633e-07
-1.75670652353e-08
5.42652663933e-07
-2.17783313333e-09
5.27083117208e-07
1.54130313454e-08
4.95632754472e-07
3.12850078594e-08
4.52264240513e-07
4.32065931754e-08
4.00168577258e-07
5.19415081749e-08
3.35330654377e-07
6.46874232362e-08
2.73746585968e-07
6.14450675405e-08
2.16127360925e-07
5.74819363607e-08
1.73160150186e-07
4.28237564652e-08
1.22349158359e-07
5.06652420521e-08
7.45691757021e-08
4.75710088423e-08
7.44091833633e-08
-1.02691915285e-07
3.02814298152e-07
-2.38192013389e-07
3.17155823242e-07
-3.68721120357e-07
2.88714538666e-07
-5.04594039332e-07
2.67698375238e-07
-6.77255134874e-07
2.6762529434e-07
-8.09666459243e-07
1.89104329749e-07
-8.8452939251e-07
1.12610992545e-07
-9.53174272192e-07
1.30572554823e-07
-1.02793387916e-06
1.62478987022e-07
-1.1099376487e-06
1.63426675166e-07
-1.18806444894e-06
1.52352990111e-07
-1.25194879149e-06
1.41932088692e-07
-1.30901559859e-06
1.26065030904e-07
-1.36327593044e-06
1.09044146119e-07
-1.41533288905e-06
1.00554839561e-07
-1.47395298242e-06
1.14948794409e-07
-1.52616669386e-06
1.10273424192e-07
-1.54889409729e-06
6.92486700307e-08
-1.56646209479e-06
5.05298746345e-08
-1.60205316881e-06
6.36460165054e-08
-1.65738936286e-06
9.70282814716e-08
-1.73029179424e-06
1.30375400575e-07
-1.80050954769e-06
1.3109947001e-07
-1.85409436412e-06
1.1142602586e-07
-1.90252515459e-06
1.00465183638e-07
-1.95303542072e-06
9.6444724375e-08
-1.99652301883e-06
8.60530897808e-08
-2.03212855275e-06
7.33284610347e-08
-2.06308896807e-06
6.23427293877e-08
-2.09010369928e-06
5.3316324065e-08
-2.11232412071e-06
4.71116317413e-08
-2.13063482166e-06
4.03555781871e-08
-2.14350763629e-06
2.93134836787e-08
-2.15696192755e-06
2.93658173903e-08
-2.17665144016e-06
3.50245213254e-08
-2.19112500405e-06
2.78563682967e-08
-2.20351950574e-06
2.66754131939e-08
-2.22187271196e-06
3.08695386062e-08
-2.24146554614e-06
2.71913425853e-08
-2.25058584231e-06
1.38851523053e-08
-2.22593265849e-06
-1.53309635287e-08
-2.18318453049e-06
-3.56087888086e-08
-2.15755244162e-06
-3.38010420539e-08
-2.14353625427e-06
-3.32589526929e-08
-2.12902866393e-06
-3.97846882351e-08
-2.11161361427e-06
-4.97049998716e-08
-2.08720946126e-06
-6.42898616874e-08
-2.05525843153e-06
-8.10997396807e-08
-2.01343079376e-06
-1.00198806078e-07
-1.95163539095e-06
-1.23636794939e-07
-1.86269111716e-06
-1.48000052092e-07
-1.76604440692e-06
-1.62859573106e-07
-1.6959887076e-06
-1.64943342817e-07
-1.61338142898e-06
-2.00363258565e-07
-1.49433259832e-06
-2.54357457011e-07
-1.36773794393e-06
-2.86129554691e-07
-1.22421312287e-06
-3.08535948001e-07
-1.05211957992e-06
-3.36943687897e-07
-8.63328257715e-07
-3.73587306329e-07
-6.50350828871e-07
-4.16271730538e-07
-3.96078196613e-07
-4.67541240375e-07
-1.34236777808e-07
-4.89877745084e-07
1.33580027689e-07
-5.60937918103e-07
3.25209301292e-07
-3.96589714727e-07
4.2449024226e-07
-2.0589870959e-07
4.70183893675e-07
-1.05936611603e-07
5.07150554498e-07
-7.05985569736e-08
5.36801549943e-07
-4.7337590528e-08
5.45102564899e-07
-1.06161021861e-08
5.28733840376e-07
3.16257049393e-08
4.89807943759e-07
7.00495930869e-08
4.37091641485e-07
9.57677863916e-08
3.8631714761e-07
1.02564414872e-07
3.43889525249e-07
1.06958029724e-07
2.97101329608e-07
1.08075761187e-07
2.50154068309e-07
1.04271305918e-07
1.97266217637e-07
9.55446884577e-08
1.46882661291e-07
1.0085980057e-07
7.77003518216e-08
1.16526384357e-07
1.51943656101e-07
-1.35170153564e-07
4.38176997986e-07
-2.00752832326e-07
3.82858837171e-07
-3.63040762571e-07
4.5111635329e-07
-5.52200892617e-07
4.56981667791e-07
-7.22505700883e-07
4.3805017166e-07
-8.07402988639e-07
2.74094547515e-07
-8.47956353505e-07
1.53244267669e-07
-9.23935054732e-07
2.06633134044e-07
-1.01337362545e-06
2.51986902977e-07
-1.10108782658e-06
2.51197884363e-07
-1.18208864952e-06
2.33398651863e-07
-1.24970588595e-06
2.09599959879e-07
-1.30726756003e-06
1.83683419743e-07
-1.36275007762e-06
1.64586193476e-07
-1.40264218328e-06
1.40499639377e-07
-1.37978649529e-06
9.21339353199e-08
-1.32368861987e-06
5.41913370231e-08
-1.32135773636e-06
6.69231454405e-08
-1.38836654339e-06
1.17531505559e-07
-1.51956382476e-06
1.94832514776e-07
-1.65524403041e-06
2.32694745842e-07
-1.73622773962e-06
2.11348967922e-07
-1.79174435373e-06
1.86600884108e-07
-1.85266797989e-06
1.72337482018e-07
-1.9092695545e-06
1.57049967378e-07
-1.95426309443e-06
1.41424347724e-07
-1.99327841887e-06
1.25049450069e-07
-2.02868541504e-06
1.0871961969e-07
-2.0592350949e-06
9.2871720423e-08
-2.0862136209e-06
8.02782382373e-08
-2.10605483744e-06
6.6933036977e-08
-2.12203803251e-06
5.63184914468e-08
-2.13883611187e-06
4.60900281039e-08
-2.14154006318e-06
3.20454547515e-08
-2.15015334582e-06
4.35995791187e-08
-2.17952786499e-06
5.71920355098e-08
-2.19615258655e-06
4.32533685943e-08
-2.20798886397e-06
4.26580256332e-08
-2.23357615606e-06
5.27255491458e-08
-2.25460076442e-06
3.48612369225e-08
-2.26527969759e-06
-4.70360422967e-09
-2.26592684003e-06
-3.50106439418e-08
-2.2539027248e-06
-4.58796782481e-08
-2.23426914379e-06
-5.29457203307e-08
-2.20934582801e-06
-6.47671086737e-08
-2.17795465684e-06
-8.11548691036e-08
-2.14045742455e-06
-1.01852227469e-07
-2.09589773709e-06
-1.25724992324e-07
-2.04338410033e-06
-1.52784362772e-07
-1.98383861939e-06
-1.83254614771e-07
-1.91767260608e-06
-2.14246001029e-07
-1.83831767219e-06
-2.42299032156e-07
-1.72980498745e-06
-2.73550624826e-07
-1.60841226899e-06
-3.21857237314e-07
-1.49231042537e-06
-3.70576101099e-07
-1.36304983766e-06
-4.15523339713e-07
-1.20544899029e-06
-4.66294732207e-07
-1.02067804009e-06
-5.21899553549e-07
-8.12198210732e-07
-5.82287264526e-07
-5.81263467298e-07
-6.47459275142e-07
-3.40816958757e-07
-7.08286169501e-07
-7.32515561306e-08
-7.57783449853e-07
1.31302401484e-07
-7.65819913195e-07
2.8544155111e-07
-5.50960097243e-07
3.96993166104e-07
-3.17601529958e-07
4.79569257781e-07
-1.88624636693e-07
5.25427912288e-07
-1.16562398212e-07
5.39028407437e-07
-6.10494833329e-08
5.31298242451e-07
-3.01309162353e-09
5.04362491866e-07
5.84185622462e-08
4.68215547693e-07
1.06046596442e-07
4.35831801735e-07
1.27998470959e-07
4.01117085207e-07
1.37121641606e-07
3.56315962891e-07
1.51602759939e-07
2.98813691532e-07
1.65424292948e-07
2.38535861883e-07
1.64389147299e-07
1.84860066045e-07
1.49058636956e-07
1.41118189584e-07
1.44440426565e-07
6.1818233235e-08
1.95597128802e-07
2.13685429239e-07
-9.61887942423e-08
5.34427259766e-07
-1.25249926693e-07
4.12001038415e-07
-3.14374574788e-07
6.40358645615e-07
-4.65480187977e-07
6.08214856075e-07
-4.6739910123e-07
4.40055739552e-07
-4.03453762303e-07
2.10184101251e-07
-5.58751171821e-07
3.0857699153e-07
-8.07488976371e-07
4.55419044952e-07
-9.70054729233e-07
4.14606085526e-07
-1.07870817877e-06
3.59899777933e-07
-1.17147287616e-06
3.26219553678e-07
-1.24843982535e-06
2.86632888777e-07
-1.29849166601e-06
2.33803687291e-07
-1.2862620775e-06
1.52419726304e-07
-1.22682596331e-06
8.11063151011e-08
-1.20126218316e-06
6.65863979387e-08
-1.250017161e-06
1.02948870742e-07
-1.36818716657e-06
1.85086465139e-07
-1.5181632342e-06
2.67500009481e-07
-1.62173988269e-06
2.98402310732e-07
-1.67812578006e-06
2.89074104248e-07
-1.73862908689e-06
2.71841294241e-07
-1.80190552645e-06
2.49866653085e-07
-1.8564568609e-06
2.26875245213e-07
-1.9046149343e-06
2.05196023685e-07
-1.94751097577e-06
1.84304686944e-07
-1.9876286956e-06
1.65153308823e-07
-2.0230975364e-06
1.44169737981e-07
-2.05464577434e-06
1.24403972508e-07
-2.07864486996e-06
1.04260154479e-07
-2.1009440055e-06
8.92157109045e-08
-2.11274223853e-06
6.81000527884e-08
-2.11476579052e-06
4.80896096763e-08
-2.1396271344e-06
5.68739632728e-08
-2.15961681686e-06
6.35532111651e-08
-2.17623073479e-06
7.37613965897e-08
-2.21903329676e-06
8.60086434195e-08
-2.2545211623e-06
7.80963317507e-08
-2.26423552549e-06
6.23932443898e-08
-2.26529570993e-06
3.58716870054e-08
-2.26855581074e-06
-1.49320436095e-09
-2.26926173295e-06
-3.43573596277e-08
-2.26027696689e-06
-5.49156156076e-08
-2.24242285796e-06
-7.08538385445e-08
-2.21787575176e-06
-8.93682285349e-08
-2.1869091207e-06
-1.12179689766e-07
-2.14954347071e-06
-1.39277446465e-07
-2.10515066765e-06
-1.70182435888e-07
-2.05309805028e-06
-2.04903670069e-07
-1.99307876094e-06
-2.43346042317e-07
-1.92317254286e-06
-2.84227300957e-07
-1.83832960226e-06
-3.27223746057e-07
-1.73547873082e-06
-3.76489870388e-07
-1.62208232341e-06
-4.35354872898e-07
-1.49549543616e-06
-4.97276769731e-07
-1.34747838333e-06
-5.63672541405e-07
-1.17373278921e-06
-6.40191776143e-07
-9.71177497045e-07
-7.24630166162e-07
-7.40250756671e-07
-8.13413797301e-07
-4.88400250032e-07
-8.99536125188e-07
-2.3138103057e-07
-9.65549498524e-07
-3.03348272509e-09
-9.863935129e-07
1.3732788381e-07
-9.06441969006e-07
3.01055961683e-07
-7.14903711713e-07
4.36544653597e-07
-4.53243467955e-07
4.99621681143e-07
-2.5181123102e-07
5.32973556502e-07
-1.50011199215e-07
5.48192200678e-07
-7.63716916918e-08
5.46014686918e-07
-9.54497458031e-10
5.27652694278e-07
7.66442449801e-08
4.94862977016e-07
1.38686548621e-07
4.48315418628e-07
1.74393219474e-07
3.85986933812e-07
1.99308256656e-07
3.18665271652e-07
2.18791573552e-07
2.55874332169e-07
2.2807812368e-07
1.90653135287e-07
2.29468925754e-07
1.30235416252e-07
2.0934912668e-07
8.83733954201e-08
1.86182211398e-07
4.55962306972e-08
2.38268967177e-07
2.59195537073e-07
-1.66644283659e-08
5.51194034009e-07
-1.12362107015e-07
5.07764702268e-07
-2.6633608618e-07
7.94446689333e-07
-3.70584365039e-07
7.12579417291e-07
-3.42026521732e-07
4.11552802067e-07
-4.24488232704e-07
2.92666566317e-07
-6.29386794973e-07
5.13503188176e-07
-7.88664537932e-07
6.1474404331e-07
-9.17904665424e-07
5.43891148852e-07
-1.03598673303e-06
4.78039132057e-07
-1.14345171243e-06
4.3375805538e-07
-1.19437869666e-06
3.37628941881e-07
-1.16197830817e-06
2.01464802e-07
-1.12773188471e-06
1.18210408296e-07
-1.16238067843e-06
1.15768554127e-07
-1.25656045411e-06
1.60768284231e-07
-1.39022216689e-06
2.36606502182e-07
-1.51077886273e-06
3.05638113856e-07
-1.57542599833e-06
3.32144271214e-07
-1.61695314145e-06
3.39926986526e-07
-1.67558681636e-06
3.47702905327e-07
-1.73986805201e-06
3.36115530665e-07
-1.79902450926e-06
3.09013822371e-07
-1.85111893513e-06
2.7896071624e-07
-1.89762698173e-06
2.51692359977e-07
-1.94176564996e-06
2.28432801075e-07
-1.97923256316e-06
2.026034439e-07
-2.01542167872e-06
1.80344737993e-07
-2.04345195878e-06
1.52420900534e-07
-2.06777494096e-06
1.2857037983e-07
-2.07870747908e-06
1.00133369488e-07
-2.09679526116e-06
8.61664238389e-08
-2.13268998377e-06
8.39561000959e-08
-2.1476850209e-06
7.18323221656e-08
-2.17523895256e-06
9.1063383634e-08
-2.2178018764e-06
1.16278792145e-07
-2.24614344063e-06
1.14304206561e-07
-2.26390328944e-06
9.58115744733e-08
-2.27199270463e-06
7.04363219114e-08
-2.27486421169e-06
3.86961263119e-08
-2.27758184807e-06
1.17493409406e-09
-2.27759354979e-06
-3.43953126174e-08
-2.2698304552e-06
-6.27298105705e-08
-2.253498458e-06
-8.72366742251e-08
-2.22986949564e-06
-1.13049925263e-07
-2.19956997037e-06
-1.42533031146e-07
-2.1626114668e-06
-1.76293155809e-07
-2.11847239839e-06
-2.14381190196e-07
-2.06640391498e-06
-2.57036105594e-07
-2.0053382655e-06
-3.04478460145e-07
-1.93297433114e-06
-3.56662805296e-07
-1.8459414234e-06
-4.14333195544e-07
-1.74287947649e-06
-4.79637331317e-07
-1.62506582562e-06
-5.53263895914e-07
-1.48837210514e-06
-6.34080079293e-07
-1.32609939939e-06
-7.26069161105e-07
-1.13365720493e-06
-8.32774948648e-07
-9.08477912343e-07
-9.49967666647e-07
-6.54562121112e-07
-1.06750527918e-06
-3.87826811913e-07
-1.16645971628e-06
-1.35710734518e-07
-1.21786996372e-06
6.3939691457e-08
-1.18625677654e-06
1.91370057255e-07
-1.03407367999e-06
3.68253067999e-07
-8.91979086052e-07
5.01985553934e-07
-5.87127508747e-07
5.63655463547e-07
-3.13590294188e-07
5.81970910822e-07
-1.68422920243e-07
5.80653696953e-07
-7.51523840918e-08
5.68338369157e-07
1.12524977623e-08
5.44569365503e-07
1.00286679251e-07
4.98816791279e-07
1.84299827238e-07
4.2978395069e-07
2.43295040617e-07
3.55160069948e-07
2.73815382662e-07
2.83886820037e-07
2.89947722116e-07
2.14901801934e-07
2.9693989658e-07
1.51302140488e-07
2.92945648002e-07
1.10485372469e-07
2.50067024551e-07
7.12360124798e-08
2.25350875996e-07
3.01599345114e-08
2.79204402589e-07
2.8931660371e-07
-7.44891677435e-09
5.58647929545e-07
-1.41134275373e-07
6.4151096883e-07
-2.24383944392e-07
8.77796262538e-07
-2.72635152587e-07
7.60902458385e-07
-2.6332077089e-07
4.02268984648e-07
-4.70174834212e-07
4.99545504906e-07
-6.75681086893e-07
7.19049200324e-07
-7.70779522939e-07
7.0988061306e-07
-8.76551935206e-07
6.49722062807e-07
-9.74122385801e-07
5.7568041167e-07
-1.01797291949e-06
4.77678945869e-07
-9.6702635571e-07
2.86739945481e-07
-9.56260302965e-07
1.90729477133e-07
-1.02483381844e-06
1.86795194898e-07
-1.14272074437e-06
2.33654897907e-07
-1.30204859073e-06
3.20089978067e-07
-1.44139431401e-06
3.7594926303e-07
-1.5074966889e-06
3.71743256054e-07
-1.54668369368e-06
3.71333567241e-07
-1.6114511297e-06
4.04694634347e-07
-1.67834302461e-06
4.14592769972e-07
-1.73597042043e-06
3.93738823053e-07
-1.79082533902e-06
3.63863063814e-07
-1.84474860279e-06
3.3287517089e-07
-1.89285098134e-06
2.99786850533e-07
-1.92562795219e-06
2.61198011773e-07
-1.96471490317e-06
2.41680095073e-07
-1.99690553612e-06
2.12523940959e-07
-2.02603031292e-06
1.81532639526e-07
-2.03478905445e-06
1.37316032857e-07
-2.04798547588e-06
1.13313280234e-07
-2.07115626205e-06
1.09312545835e-07
-2.09304525811e-06
1.05811095724e-07
-2.15276339388e-06
1.3150888678e-07
-2.208086196e-06
1.46340773363e-07
-2.24054850762e-06
1.48696946066e-07
-2.260172569e-06
1.33885882941e-07
-2.27333042252e-06
1.08927158181e-07
-2.28144312821e-06
7.85061156941e-08
-2.28614771673e-06
4.33553750051e-08
-2.28919884396e-06
4.17875902365e-09
-2.28894358035e-06
-3.46993547284e-08
-2.28199392906e-06
-6.97280937253e-08
-2.26708335005e-06
-1.02196182005e-07
-2.24470332381e-06
-1.35479213057e-07
-2.21536512376e-06
-1.7192217208e-07
-2.17907577348e-06
-2.12635272016e-07
-2.13528941871e-06
-2.58223325531e-07
-2.08306693297e-06
-3.09317341938e-07
-2.02100025472e-06
-3.66607747148e-07
-1.94689629478e-06
-4.30833096164e-07
-1.85818428959e-06
-5.03117531746e-07
-1.75301401883e-06
-5.84887541609e-07
-1.62915684771e-06
-6.77211563699e-07
-1.48106688014e-06
-7.82271408329e-07
-1.30239281355e-06
-9.04856646774e-07
-1.08933678666e-06
-1.04595633585e-06
-8.42825326059e-07
-1.1966176381e-06
-5.72362612084e-07
-1.33811780015e-06
-2.99084675587e-07
-1.43989989219e-06
-5.42879564409e-08
-1.46283662568e-06
1.33870679196e-07
-1.37458537449e-06
2.93022436743e-07
-1.19340415712e-06
4.42510312489e-07
-1.04164653186e-06
5.47507163682e-07
-6.92256764297e-07
6.05187320096e-07
-3.71369450461e-07
6.29290059037e-07
-1.92616019676e-07
6.27373632013e-07
-7.33292560189e-08
6.1080017187e-07
2.77239990051e-08
5.71974644382e-07
1.38996407578e-07
4.97085775202e-07
2.59069600714e-07
4.11868974085e-07
3.28405961239e-07
3.27718210473e-07
3.5786420783e-07
2.47893182611e-07
3.69666605127e-07
1.77604111402e-07
3.67116348476e-07
1.30037976005e-07
3.40408475999e-07
9.22752109004e-08
2.87740626838e-07
5.66302011946e-08
2.60893786945e-07
2.70620565211e-08
3.08704767361e-07
3.16308790837e-07
-5.313860873e-08
6.11850790321e-07
-2.111201209e-07
7.99556405446e-07
-2.83325068013e-07
9.50098954439e-07
-2.43061781829e-07
7.20703129749e-07
-3.20250341156e-07
4.79480365195e-07
-5.51931067881e-07
7.31256937779e-07
-6.6636359417e-07
8.33517412221e-07
-7.47035970501e-07
7.90610059342e-07
-8.1825702462e-07
7.2099915303e-07
-9.16197616897e-07
6.73697475933e-07
-8.9896305466e-07
4.60507764808e-07
-8.7231202477e-07
2.60122322981e-07
-9.38713343831e-07
2.57143994511e-07
-1.0364365341e-06
2.84514057013e-07
-1.18967114273e-06
3.8688225013e-07
-1.34195145047e-06
4.72372265711e-07
-1.41348421123e-06
4.47488726088e-07
-1.45386192784e-06
4.12125608961e-07
-1.53145231949e-06
4.48926395905e-07
-1.60929933866e-06
4.82543611612e-07
-1.67144692649e-06
4.76741286413e-07
-1.72940212662e-06
4.51693079612e-07
-1.78555040627e-06
4.20005438494e-07
-1.83224256922e-06
3.79562962738e-07
-1.86898139098e-06
3.3651986033e-07
-1.90591747402e-06
2.98125364462e-07
-1.93244812562e-06
2.68200249489e-07
-1.96648805083e-06
2.46551744552e-07
-1.98595842565e-06
2.00991886753e-07
-1.99700887867e-06
1.48352459298e-07
-2.0262305262e-06
1.42512504523e-07
-2.06332321621e-06
1.46377079403e-07
-2.11737544112e-06
1.59825600908e-07
-2.17186791894e-06
1.85958394472e-07
-2.22510408477e-06
1.99534684741e-07
-2.25444673667e-06
1.77999181709e-07
-2.27137102519e-06
1.50770514388e-07
-2.28384318519e-06
1.21359497907e-07
-2.29321637403e-06
8.78379319241e-08
-2.29958576984e-06
4.96815840407e-08
-2.30333121161e-06
7.87925041385e-09
-2.30328208966e-06
-3.47940809938e-08
-2.2971144198e-06
-7.59416436813e-08
-2.28354087715e-06
-1.15815420434e-07
-2.26255604462e-06
-1.56510248571e-07
-2.23441319784e-06
-2.00111970183e-07
-2.1990004112e-06
-2.48096816125e-07
-2.15570052402e-06
-3.01574080515e-07
-2.10347689048e-06
-3.61594834805e-07
-2.04083763664e-06
-4.29304092151e-07
-1.96570346376e-06
-5.06028636301e-07
-1.87552330262e-06
-5.93365032442e-07
-1.76728725218e-06
-6.93198007991e-07
-1.63652851387e-06
-8.08053581744e-07
-1.47682409146e-06
-9.42067476524e-07
-1.28244893695e-06
-1.09933190044e-06
-1.05142738062e-06
-1.27708815385e-06
-7.87858718484e-07
-1.4603080756e-06
-5.03022444913e-07
-1.62308908173e-06
-2.16857329924e-07
-1.7262104149e-06
3.94069644016e-08
-1.71925374007e-06
2.49667664221e-07
-1.58500894627e-06
4.35084781907e-07
-1.37898762662e-06
5.1586394972e-07
-1.12257809612e-06
6.16071099264e-07
-7.92589273723e-07
6.75308475233e-07
-4.30699319435e-07
7.14845429636e-07
-2.32241419019e-07
7.18356802568e-07
-7.69307747635e-08
6.82371479693e-07
6.36132606792e-08
6.03487020508e-07
2.17779918002e-07
5.0256342559e-07
3.59896587388e-07
4.01220279373e-07
4.29657724019e-07
2.98659765094e-07
4.60331235471e-07
2.08539626183e-07
4.59684991884e-07
1.42806460889e-07
4.32747960839e-07
1.10602080484e-07
3.72515983621e-07
7.47376803443e-08
3.23515943788e-07
4.1347839025e-08
2.94213502289e-07
2.35884640364e-08
3.26332026289e-07
3.39867427642e-07
-9.7395548127e-08
7.09248647208e-07
-2.35855655774e-07
9.38080912414e-07
-2.67206225579e-07
9.81498023828e-07
-1.85862353041e-07
6.39389572593e-07
-3.60976220019e-07
6.54620840083e-07
-5.52702692254e-07
9.23018239589e-07
-6.37055780735e-07
9.17922309122e-07
-7.24428723329e-07
8.7803581471e-07
-7.4350277411e-07
7.40150010153e-07
-7.74641372214e-07
7.04892410575e-07
-7.47657500417e-07
4.33561346017e-07
-8.41487616081e-07
3.53967390034e-07
-9.29884837756e-07
3.45540947726e-07
-1.06657237905e-06
4.2119805244e-07
-1.22511688805e-06
5.45426460518e-07
-1.30848299554e-06
5.5574500121e-07
-1.34906673249e-06
4.88082040733e-07
-1.43386577174e-06
4.96930963651e-07
-1.52746911395e-06
5.42534051257e-07
-1.59704226773e-06
5.52121186346e-07
-1.6554148945e-06
5.35116623598e-07
-1.71193014147e-06
5.08205536687e-07
-1.77206815252e-06
4.80143368456e-07
-1.82864112063e-06
4.36135054286e-07
-1.85937234371e-06
3.67244389735e-07
-1.8998968163e-06
3.38644361071e-07
-1.92887565207e-06
2.97170216991e-07
-1.93405922343e-06
2.51724655253e-07
-1.95311127462e-06
2.20030132995e-07
-2.0175002543e-06
2.12722400489e-07
-2.05958530175e-06
1.84573981073e-07
-2.07714489104e-06
1.63902284529e-07
-2.13541704973e-06
2.18059153547e-07
-2.20276365582e-06
2.53264554948e-07
-2.2387213164e-06
2.35453336658e-07
-2.26353539759e-06
2.02775742877e-07
-2.28193897048e-06
1.69136969818e-07
-2.2960756195e-06
1.35458552849e-07
-2.30711214685e-06
9.88356023747e-08
-2.31512891856e-06
5.76578006702e-08
-2.31988694668e-06
1.25952577009e-08
-2.32045403761e-06
-3.42697624594e-08
-2.31524638839e-06
-8.11919788258e-08
-2.30308268575e-06
-1.28021633811e-07
-2.28362542583e-06
-1.76009924001e-07
-2.2568602649e-06
-2.26920198953e-07
-2.22252866873e-06
-2.82472603038e-07
-2.17995755805e-06
-3.4419135189e-07
-2.12811042367e-06
-4.13490773542e-07
-2.06553088516e-06
-4.91935542421e-07
-1.99014096945e-06
-5.81475612756e-07
-1.89900595172e-06
-6.84561932079e-07
-1.78793135152e-06
-8.0434273579e-07
-1.65105762146e-06
-9.45003583868e-07
-1.48181921843e-06
-1.11138786247e-06
-1.27575187715e-06
-1.30548780349e-06
-1.03195693958e-06
-1.52098371736e-06
-7.53006141158e-07
-1.73936765484e-06
-4.43460163256e-07
-1.93275930389e-06
-1.22713501573e-07
-2.04709025788e-06
1.70944977261e-07
-2.01305674276e-06
4.11747933373e-07
-1.82595811516e-06
5.84232465138e-07
-1.55162002328e-06
6.85109726093e-07
-1.22360164213e-06
7.60337840954e-07
-8.67950893239e-07
7.97599503064e-07
-4.68059358575e-07
8.14718840381e-07
-2.49442792495e-07
8.03062780566e-07
-6.5359738787e-08
7.4026790129e-07
1.26322580445e-07
6.3629539161e-07
3.21667773406e-07
5.1815626379e-07
4.77953583923e-07
3.87576751898e-07
5.60154740368e-07
2.59535816942e-07
5.88281769451e-07
1.58979693597e-07
5.60147139757e-07
1.03352721178e-07
4.88278560084e-07
7.76061541247e-08
3.98168255858e-07
5.46883247178e-08
3.46342709616e-07
2.52473988387e-08
3.23546125715e-07
1.33599314904e-08
3.38165884054e-07
3.53154198272e-07
-1.26797568857e-07
8.36119459168e-07
-2.30893590116e-07
1.04223948644e-06
-2.18056463636e-07
9.6872592495e-07
-2.34042912103e-07
6.55403095399e-07
-4.31570076074e-07
8.52180512177e-07
-5.18867730741e-07
1.01036332493e-06
-5.97777836992e-07
9.96892032994e-07
-6.80733874512e-07
9.61055007228e-07
-7.09521596792e-07
7.68987517227e-07
-7.41165639457e-07
7.36593589361e-07
-7.60265921324e-07
4.52679708937e-07
-8.42837589878e-07
4.36545660769e-07
-9.4729420099e-07
4.49991237224e-07
-1.10116019717e-06
5.75058022755e-07
-1.23513271561e-06
6.79410303411e-07
-1.28728856082e-06
6.07916943369e-07
-1.33869531147e-06
5.39498524334e-07
-1.42649533619e-06
5.84736815393e-07
-1.51133381216e-06
6.27378540919e-07
-1.58148289809e-06
6.22274029298e-07
-1.64151850484e-06
5.95150884763e-07
-1.69098270936e-06
5.5767318693e-07
-1.73462987205e-06
5.23795793028e-07
-1.78052816871e-06
4.82033312797e-07
-1.82052981657e-06
4.07246693257e-07
-1.84875003981e-06
3.66858985361e-07
-1.89314751354e-06
3.4155831684e-07
-1.9414042759e-06
2.99970992511e-07
-1.98241910693e-06
2.61032193902e-07
-2.01412423227e-06
2.44407122982e-07
-2.05692431864e-06
2.27342894293e-07
-2.1363521232e-06
2.43292582408e-07
-2.18539214722e-06
2.67058799105e-07
-2.21879990651e-06
2.8663402216e-07
-2.24831690159e-06
2.64935204953e-07
-2.27343451576e-06
2.27859155628e-07
-2.29392303281e-06
1.89590940667e-07
-2.31009305504e-06
1.51593055466e-07
-2.32283709082e-06
1.1154291221e-07
-2.33251459728e-06
6.72973260809e-08
-2.33869188391e-06
1.87336934006e-08
-2.34038672669e-06
-3.26140011702e-08
-2.3364150655e-06
-8.52026025283e-08
-2.32582066026e-06
-1.38654537043e-07
-2.30806967289e-06
-1.937993194e-07
-2.28286742098e-06
-2.52161034852e-07
-2.24984594679e-06
-3.15533741623e-07
-2.20836309637e-06
-3.85715658091e-07
-2.15746564944e-06
-4.64431978076e-07
-2.09579350533e-06
-5.53655820526e-07
-2.02123771139e-06
-6.56083460916e-07
-1.93041882001e-06
-7.75441051842e-07
-1.81821821222e-06
-9.166083545e-07
-1.67811445217e-06
-1.08517700297e-06
-1.50406614754e-06
-1.28550823313e-06
-1.29270571448e-06
-1.51693070057e-06
-1.03996621646e-06
-1.77380847203e-06
-7.39633221195e-07
-2.03980502848e-06
-3.86553314685e-07
-2.28595259018e-06
-1.30863682516e-08
-2.42068681916e-06
3.18003502522e-07
-2.34427647406e-06
5.75035590672e-07
-2.08312420453e-06
7.67810213207e-07
-1.74452926105e-06
9.11082236912e-07
-1.36701078918e-06
9.88174848387e-07
-9.45174110719e-07
1.00869881589e-06
-4.8869885127e-07
9.60838973319e-07
-2.01681160437e-07
9.19190422104e-07
-2.37905113696e-08
8.29435288685e-07
2.16001216592e-07
6.94712962137e-07
4.56316556151e-07
5.40349674064e-07
6.32243012912e-07
3.64846004298e-07
7.35578218722e-07
2.01651212154e-07
7.51390959367e-07
8.7261508775e-08
6.74444488929e-07
3.75299453014e-08
5.37913718215e-07
2.65240844228e-08
4.0907989831e-07
2.80627124102e-08
3.44709784102e-07
1.25032012168e-08
3.39037104413e-07
3.70793373644e-09
3.46827163812e-07
3.5684376416e-07
-1.46350670926e-07
9.82466144647e-07
-2.42116736703e-07
1.13804530396e-06
-1.99953395333e-07
9.26596673212e-07
-2.81694942115e-07
7.37181529243e-07
-4.5117981707e-07
1.02171532123e-06
-4.83941397901e-07
1.04318637879e-06
-5.5149849714e-07
1.06450070591e-06
-5.86477260477e-07
9.96094449075e-07
-6.51903766286e-07
8.34456198744e-07
-6.52883220544e-07
7.37599643712e-07
-7.34276284648e-07
5.34085673537e-07
-8.36352006161e-07
5.38616920913e-07
-9.52589120578e-07
5.6622781939e-07
-1.09405088632e-06
7.16526821918e-07
-1.17708354698e-06
7.62454813108e-07
-1.21373695304e-06
6.44584853053e-07
-1.30448878869e-06
6.30260285802e-07
-1.40297380776e-06
6.83229142574e-07
-1.48409714102e-06
7.08507422718e-07
-1.558513787e-06
6.96693723413e-07
-1.62788726509e-06
6.64532531927e-07
-1.6881175192e-06
6.17909730141e-07
-1.72331706861e-06
5.58997714119e-07
-1.75051797212e-06
5.09238988716e-07
-1.80948061753e-06
4.66208347155e-07
-1.84324557883e-06
4.0061774585e-07
-1.85038941943e-06
3.48698306264e-07
-1.87433558674e-06
3.23908943457e-07
-1.9290807551e-06
3.15760061181e-07
-2.00339094461e-06
3.18693662782e-07
-2.07224313016e-06
2.96161844103e-07
-2.13000507712e-06
3.01014596244e-07
-2.19525817906e-06
3.32271787823e-07
-2.23226785145e-06
3.23609438786e-07
-2.25980682667e-06
2.92442336897e-07
-2.28534967248e-06
2.53370219057e-07
-2.30779643015e-06
2.12005196453e-07
-2.32608767644e-06
1.69851165882e-07
-2.34055797333e-06
1.25979277816e-07
-2.35182568439e-06
7.85304374265e-08
-2.35962642218e-06
2.64993171261e-08
-2.362911212e-06
-2.93645070717e-08
-2.36056187941e-06
-8.75868132796e-08
-2.35175800992e-06
-1.47492890393e-07
-2.33593211536e-06
-2.09659321178e-07
-2.31259001538e-06
-2.7553772436e-07
-2.28121672316e-06
-3.46942683568e-07
-2.24126051076e-06
-4.25709026257e-07
-2.19202530345e-06
-5.13707947439e-07
-2.13239089536e-06
-6.13334471949e-07
-2.06032213029e-06
-7.28204124668e-07
-1.97216045064e-06
-8.63659077793e-07
-1.86220908538e-06
-1.02662354428e-06
-1.72372810976e-06
-1.22371899174e-06
-1.5513690014e-06
-1.45793318709e-06
-1.34210944635e-06
-1.72626043276e-06
-1.08103979265e-06
-2.03496220254e-06
-7.49389979506e-07
-2.37155024292e-06
-3.38437195373e-07
-2.69700528735e-06
8.77618246211e-08
-2.84699697621e-06
4.45544481582e-07
-2.70217400667e-06
7.28511302686e-07
-2.36620775798e-06
9.65884769235e-07
-1.98202258675e-06
1.16600602495e-06
-1.56725589226e-06
1.34074955005e-06
-1.12004627055e-06
1.4679666966e-06
-6.16051842315e-07
1.32727678753e-06
-6.11083465505e-08
1.0573450493e-06
2.46053240012e-07
9.27522730992e-07
3.45753488961e-07
7.66781901258e-07
6.16991510621e-07
5.62317976787e-07
8.36637705565e-07
3.2460864648e-07
9.73214067224e-07
1.12286454836e-07
9.63629338497e-07