/*--------------------------------*- C++ -*----------------------------------*\
| =========                 |                                                 |
| \\      /  F ield         | OpenFOAM: The Open Source CFD Toolbox           |
|  \\    /   O peration     | Version:  v1806                                 |
|   \\  /    A nd           | Web:      www.OpenFOAM.com                      |
|    \\/     M anipulation  |                                                 |
\*---------------------------------------------------------------------------*/
FoamFile
{
    version     2.0;
    format      ascii;
    class       volScalarField;
    location    "207";
    object      pa;
}
// * * * * * * * * * * * * * * * * * * * * * * * * * * * * * * * * * * * * * //

dimensions      [0 2 -2 0 0 0 0];


internalField   nonuniform List<scalar> 
6400
(
-0.128295000535
-0.128296315781
-0.128299967825
-0.128306886466
-0.128316688837
-0.128329198658
-0.128344504166
-0.128363360406
-0.1283857873
-0.128411713776
-0.128444497367
-0.128485933775
-0.128533820895
-0.1285883386
-0.128650881762
-0.128722989104
-0.128805135057
-0.128896930287
-0.128997722473
-0.129104724316
-0.129213727624
-0.129324515357
-0.129440722481
-0.129566852649
-0.129706355908
-0.129859360438
-0.130023543623
-0.130197431212
-0.130381363496
-0.130576460549
-0.130783810095
-0.131002813614
-0.131229265371
-0.131459024083
-0.131691190109
-0.131922695327
-0.132152508336
-0.132388139556
-0.132629171636
-0.132865308001
-0.133097809269
-0.133341844135
-0.133605910002
-0.133882829055
-0.134165131782
-0.134448599576
-0.134729852786
-0.135007320892
-0.135279764292
-0.135546334765
-0.135807282774
-0.136058025194
-0.136292803416
-0.136502403699
-0.136688117925
-0.136861745772
-0.137020441114
-0.137151884842
-0.137252752709
-0.137331705159
-0.137393619799
-0.137439953248
-0.137471633608
-0.137494953655
-0.137520340862
-0.137549704359
-0.137577882798
-0.137597438982
-0.137605758173
-0.13760473697
-0.13759655886
-0.137582538082
-0.137563543778
-0.137541859637
-0.13751825029
-0.137494616132
-0.137472405096
-0.137456551893
-0.137445637077
-0.137440928161
-0.128293076189
-0.12829445596
-0.128297665487
-0.128304442588
-0.128315185005
-0.128328653389
-0.128344293747
-0.128362177582
-0.12838347904
-0.128409463927
-0.12844204102
-0.128482605363
-0.128530617498
-0.128585792698
-0.128648554052
-0.128719720964
-0.128801382026
-0.128893607094
-0.128995526529
-0.129103504752
-0.129211285432
-0.129320393316
-0.129435877591
-0.129561439109
-0.129700962712
-0.129854555763
-0.130018686563
-0.130192787777
-0.130377363487
-0.130572954826
-0.130779913727
-0.130998891047
-0.13122621667
-0.13145578624
-0.131688217807
-0.131919924413
-0.132149074544
-0.132385003681
-0.132626849004
-0.132862289554
-0.13309012922
-0.133331969157
-0.133601299077
-0.133881817331
-0.134165608296
-0.134450721339
-0.134733343562
-0.135012455717
-0.13528595255
-0.13555066081
-0.135807037357
-0.13605808251
-0.136303156903
-0.136515516469
-0.136702389612
-0.136881087277
-0.137036247909
-0.137161679117
-0.137261898838
-0.137340354573
-0.137399420307
-0.137446480699
-0.137480060665
-0.137504313982
-0.137530586618
-0.137560710832
-0.137589335576
-0.137607911314
-0.13761475137
-0.137612322247
-0.137602750831
-0.13758724886
-0.137566409343
-0.137542324015
-0.137517084741
-0.137492318931
-0.137470246066
-0.137453576972
-0.1374422826
-0.137438293881
-0.128287759779
-0.128290070605
-0.128292794002
-0.128298970334
-0.128309383006
-0.128324647625
-0.128341987492
-0.128359311838
-0.128379265124
-0.128404467639
-0.128436539016
-0.128476538891
-0.128524450118
-0.128579865049
-0.128642572998
-0.128711238266
-0.128791206196
-0.128887834464
-0.128992228804
-0.129099445881
-0.129204283454
-0.129308669431
-0.129422376435
-0.129549614641
-0.129689249961
-0.129841814807
-0.13000651413
-0.130181749071
-0.130367142857
-0.130563364451
-0.130770453442
-0.130989568356
-0.131218786161
-0.131447184661
-0.131677381329
-0.131911735331
-0.132139996825
-0.132373022804
-0.132615236655
-0.132852692388
-0.133087098895
-0.133332870374
-0.133597871657
-0.133875524102
-0.134158961325
-0.134444476169
-0.134729022034
-0.135010513326
-0.135286865803
-0.135556093993
-0.135817379312
-0.136069415225
-0.136307117043
-0.136523295479
-0.136722595173
-0.136902754533
-0.137054171676
-0.137178105644
-0.137277823164
-0.13735623581
-0.137416995387
-0.137464040802
-0.137497105166
-0.137524526339
-0.137554550157
-0.137586368612
-0.137613353937
-0.137629388183
-0.13763367385
-0.137628461698
-0.137615826247
-0.137596680085
-0.137572218847
-0.137544750267
-0.1375164399
-0.137489343095
-0.137465853607
-0.137447690976
-0.137435835981
-0.137431222637
-0.128280626865
-0.128282891022
-0.128284877538
-0.128290521369
-0.128299605392
-0.128314635018
-0.128337478178
-0.128354685636
-0.128373024996
-0.128396876134
-0.128428183262
-0.128467765099
-0.12851564056
-0.128570454395
-0.12863299981
-0.12870565062
-0.128789358863
-0.12888417778
-0.12898356457
-0.129082208993
-0.129182682787
-0.129289003302
-0.129403867145
-0.129530528063
-0.129670328091
-0.129823481454
-0.129989169237
-0.130165571202
-0.130352195634
-0.130549073398
-0.130757404362
-0.130977122646
-0.131206456247
-0.131438904459
-0.131665469629
-0.13189438281
-0.132126967758
-0.132358219703
-0.132593363503
-0.132832073389
-0.133073855936
-0.133325050275
-0.133590522706
-0.133867642068
-0.134151595781
-0.134438595813
-0.134725570306
-0.135010111988
-0.135290052228
-0.135563400532
-0.135828464521
-0.136082974993
-0.136323201853
-0.13654533984
-0.13674856494
-0.136928502436
-0.137080089733
-0.13720401645
-0.137303576777
-0.137382275472
-0.137443766227
-0.137491212848
-0.137527539439
-0.137561507934
-0.137594569854
-0.13762561311
-0.137651091963
-0.137664240255
-0.137664286128
-0.137654252331
-0.137636596989
-0.137612247186
-0.137582540778
-0.137549234024
-0.137514994671
-0.137484108925
-0.137458363886
-0.137436221479
-0.137420405269
-0.137413629374
-0.128269612932
-0.128269726013
-0.128272200803
-0.128277909298
-0.128287881248
-0.128301716454
-0.128321974499
-0.128341498621
-0.128361260792
-0.128385512649
-0.128416251919
-0.128455545244
-0.128503619321
-0.128561900623
-0.128629597391
-0.128703103262
-0.128783272732
-0.128869791787
-0.128960935181
-0.129056785191
-0.129157654646
-0.12926396102
-0.129378874374
-0.129505761981
-0.129645825383
-0.129799685075
-0.129966134346
-0.130143987173
-0.130331990289
-0.13053060171
-0.130739688337
-0.130962094506
-0.13119577548
-0.131423402376
-0.131648498419
-0.131874334501
-0.132100242381
-0.132330713219
-0.132566818229
-0.13280823038
-0.13305522643
-0.133311020448
-0.133578485139
-0.133856598204
-0.134142067131
-0.134431439365
-0.134721633078
-0.135010066609
-0.135294488004
-0.135572803342
-0.135842876485
-0.136102090719
-0.136347186748
-0.136574858824
-0.136781929143
-0.136963557658
-0.137116241398
-0.137241021233
-0.137341388095
-0.13742116694
-0.137484100711
-0.137533774989
-0.137575015541
-0.137615314451
-0.137648939836
-0.137680241083
-0.137705081176
-0.137714967518
-0.137709043638
-0.137691554508
-0.137666136371
-0.137634103168
-0.137596090253
-0.137553635107
-0.137511804497
-0.13747488319
-0.137442050666
-0.137410618767
-0.137389464516
-0.137381104437
-0.128248768436
-0.128248378458
-0.128253096664
-0.128258738843
-0.128269480332
-0.128284375553
-0.128302755877
-0.128322739679
-0.128344416739
-0.128369661882
-0.12839937692
-0.12843891152
-0.128492329129
-0.128555373221
-0.128622691061
-0.12869273327
-0.128766693938
-0.128846931501
-0.128934793716
-0.129029052453
-0.129127625419
-0.12923279281
-0.129347825787
-0.129475275875
-0.129615951306
-0.129769786499
-0.129937689905
-0.130116798656
-0.130306985514
-0.130507217462
-0.130719306899
-0.130942963556
-0.131174320606
-0.131406471472
-0.13162541128
-0.131842608582
-0.132065877198
-0.132296835624
-0.132534913722
-0.132779524634
-0.133030980587
-0.133291129371
-0.133561656093
-0.133842104039
-0.13413015529
-0.134422797124
-0.134717042079
-0.13501025503
-0.135300158152
-0.135584596534
-0.135861216885
-0.136127190317
-0.136379141299
-0.136613217417
-0.136824969596
-0.137009658259
-0.137164888649
-0.137292088776
-0.13739469885
-0.137476622549
-0.137541835448
-0.137595168414
-0.137643947635
-0.137686712922
-0.13772180073
-0.137754333527
-0.137779140376
-0.137785208816
-0.137771189548
-0.13774290283
-0.137706434841
-0.137663248736
-0.137612921588
-0.1375584983
-0.137506154249
-0.137458563992
-0.137412677458
-0.137369401096
-0.137341540106
-0.137328787212
-0.128216793255
-0.128219009294
-0.128227539938
-0.128236101633
-0.128244672653
-0.128259393182
-0.128279025351
-0.128299405975
-0.128322498492
-0.128348802859
-0.128380671688
-0.128421374905
-0.128479006599
-0.128541833412
-0.128606396278
-0.128671201068
-0.128740612807
-0.128819168548
-0.128905965308
-0.128996070803
-0.129091749814
-0.129196409656
-0.129311321893
-0.129438523712
-0.129579522117
-0.129735868
-0.129902922663
-0.130084062263
-0.130276566126
-0.130481650575
-0.130695975694
-0.130918444578
-0.131149553379
-0.131374050003
-0.131589424851
-0.131802836945
-0.132025174204
-0.132257267235
-0.132497660376
-0.132745471365
-0.133001011727
-0.133265466079
-0.13353979146
-0.133823663604
-0.134115328194
-0.13441216846
-0.134711368574
-0.135010370164
-0.135306962703
-0.135598995471
-0.13588397321
-0.136158776814
-0.136419529021
-0.136661555762
-0.136879687782
-0.137069495736
-0.137229357262
-0.137360855531
-0.137467129039
-0.137551768662
-0.137619583721
-0.137677738533
-0.13773132441
-0.137775869584
-0.137821666109
-0.137856744091
-0.137879002842
-0.137877827036
-0.137852645311
-0.137810579062
-0.137759437464
-0.13770091727
-0.137634187539
-0.137564425635
-0.137496828823
-0.137431704502
-0.137367005021
-0.137309979918
-0.137273275449
-0.137254837588
-0.128179504319
-0.128184124016
-0.128194255331
-0.128207302749
-0.128216629259
-0.128231432496
-0.128250313417
-0.128271433289
-0.128296439092
-0.128321088074
-0.12835675844
-0.128404012872
-0.128460184516
-0.128521047696
-0.128580993478
-0.128640719959
-0.128709124885
-0.128788146694
-0.128871067883
-0.128957139887
-0.129050373642
-0.129154228739
-0.129269032403
-0.129397093579
-0.129539241396
-0.129695907781
-0.129865775895
-0.130043770046
-0.130242024518
-0.130454243276
-0.130667872287
-0.130884419529
-0.131112783157
-0.131331284685
-0.13154098343
-0.131755321825
-0.131978646576
-0.132212016496
-0.132454617752
-0.13270557796
-0.132965063397
-0.13323389336
-0.133512598804
-0.133800799117
-0.134097029413
-0.134398996764
-0.13470412737
-0.135010062398
-0.135314753384
-0.135616106597
-0.13591149753
-0.136197424672
-0.136469306839
-0.1367216117
-0.136948689482
-0.137146397579
-0.137313469226
-0.137451098613
-0.13756139959
-0.13764746627
-0.137715917466
-0.137776209444
-0.137833295619
-0.137888120636
-0.137943540408
-0.137990164946
-0.138009907683
-0.137998050179
-0.137958087645
-0.137898466725
-0.137828281086
-0.137749177537
-0.137661757175
-0.137571691561
-0.137482021835
-0.137391907086
-0.137304585708
-0.137230495846
-0.137182525157
-0.137158606531
-0.12813904145
-0.128145248772
-0.128155575951
-0.128165859187
-0.128178504979
-0.128197772744
-0.128215940344
-0.128237352435
-0.128265590766
-0.128292595221
-0.128325670671
-0.128377395372
-0.128434560099
-0.12849180236
-0.128547722727
-0.128606713429
-0.128673700411
-0.128750291027
-0.128829580422
-0.128913064452
-0.129004203936
-0.129106108718
-0.129219381957
-0.129347052515
-0.129494680357
-0.129650198371
-0.129822472526
-0.13000637767
-0.130203088571
-0.130413667871
-0.130630289584
-0.130851794871
-0.131064160322
-0.131274677818
-0.131484893526
-0.131700977831
-0.131925831171
-0.132160626182
-0.132405305955
-0.13265933761
-0.13292277225
-0.133196130169
-0.133479680414
-0.133772962195
-0.134074630942
-0.134382641726
-0.134694736984
-0.135008876884
-0.135323256566
-0.1356358864
-0.135944036397
-0.136243776098
-0.136529751527
-0.136795562934
-0.137035102096
-0.137244180726
-0.137421170268
-0.137565805452
-0.137678241575
-0.137761917955
-0.137828337033
-0.13789194343
-0.137957798753
-0.138023938474
-0.13808697872
-0.138149055035
-0.138181255027
-0.138154288065
-0.138094869191
-0.138012807077
-0.137916920925
-0.13781076887
-0.137697679767
-0.137580912338
-0.137460981863
-0.137338982348
-0.13722415241
-0.137128224018
-0.137063626594
-0.137031850418
-0.128094944246
-0.128102422723
-0.128114350507
-0.128124239889
-0.12813755453
-0.128157080543
-0.128175431373
-0.128196510746
-0.128223152343
-0.128258360582
-0.128293328266
-0.128344201396
-0.128401134886
-0.128455074487
-0.128506867412
-0.128566620448
-0.1286350209
-0.128707208793
-0.128782127798
-0.128863276025
-0.128953368291
-0.129053879991
-0.129165698864
-0.129290282452
-0.129441128327
-0.129602257132
-0.129767214426
-0.129957077018
-0.130155114394
-0.13036863879
-0.130584679076
-0.130801269437
-0.13100944
-0.131212289882
-0.131421929482
-0.131639739018
-0.131866299963
-0.13210265653
-0.132349303882
-0.132606244564
-0.132873622643
-0.133151710648
-0.133440522262
-0.133739508795
-0.134047402217
-0.134362368215
-0.13468250347
-0.135006199983
-0.135331996975
-0.13565807337
-0.135981648445
-0.136298416918
-0.136602258103
-0.136885893625
-0.137142491972
-0.137367093619
-0.137556299709
-0.137706246887
-0.137814388604
-0.137890186382
-0.137956088637
-0.138029787289
-0.138110411626
-0.138189828639
-0.138262597879
-0.138326710013
-0.138367237701
-0.138358014445
-0.138272962784
-0.138158996297
-0.138028709693
-0.137888797573
-0.13774411799
-0.137593197009
-0.137434439333
-0.13727257346
-0.137121336836
-0.136992841317
-0.136899495925
-0.136850654665
-0.128045444588
-0.128052766804
-0.12806532711
-0.128077875963
-0.12809527183
-0.128110980958
-0.128128841417
-0.128150484759
-0.128172134837
-0.128210463416
-0.128251902688
-0.128302360822
-0.128358647091
-0.128411446277
-0.128461768432
-0.128520112293
-0.128588374031
-0.128657373026
-0.128728724077
-0.128806787156
-0.128895595863
-0.128995966108
-0.129109833094
-0.129232187036
-0.129375617541
-0.12954660843
-0.129715758094
-0.129902222335
-0.13009950345
-0.130302458952
-0.13052416298
-0.130738941674
-0.130942093133
-0.131142380417
-0.131352202701
-0.131571392591
-0.13179961723
-0.13203766485
-0.132286242351
-0.132545853638
-0.132817048236
-0.1331000166
-0.133394459022
-0.133699683541
-0.134014490252
-0.134337280961
-0.134666560738
-0.135001219476
-0.135340230625
-0.13568206042
-0.136024028723
-0.13636160845
-0.136688080797
-0.136995229819
-0.137274961268
-0.137519892697
-0.137721601167
-0.137868365739
-0.13796175651
-0.138029464362
-0.138104397886
-0.138199184155
-0.138301613116
-0.138397491444
-0.138477655512
-0.138536467095
-0.138569726701
-0.13857567154
-0.138499414066
-0.138348567546
-0.138169933579
-0.137986632215
-0.137804404172
-0.137611617653
-0.137404516532
-0.137190135256
-0.13698673581
-0.136805017506
-0.13666240734
-0.136582062619
-0.127989304316
-0.127995020075
-0.128003929201
-0.128020384787
-0.128043253313
-0.128057819675
-0.128075413809
-0.128099061327
-0.128119178338
-0.128154345914
-0.128200440017
-0.128251543438
-0.128306486243
-0.128358943211
-0.128412007482
-0.128469813878
-0.128535414305
-0.128601036491
-0.128669540638
-0.128744438903
-0.128829683688
-0.128927060775
-0.129045971048
-0.129175505033
-0.129311552764
-0.129479632837
-0.129653987344
-0.129833167039
-0.130038520301
-0.130243619931
-0.130454011715
-0.130659571713
-0.130859698674
-0.131063518475
-0.131274817969
-0.131495297399
-0.131725159266
-0.131965050946
-0.132215704553
-0.132477790847
-0.132752456017
-0.133040284468
-0.133340685732
-0.133652604017
-0.133974899355
-0.134306312261
-0.134645817796
-0.134992830645
-0.135346826696
-0.135706730938
-0.136070211125
-0.136432894362
-0.1367879064
-0.137126226534
-0.137437216831
-0.137706869715
-0.137914096643
-0.138041907531
-0.138114723459
-0.1381846839
-0.138287099368
-0.138416928033
-0.138549145289
-0.13866642103
-0.138753563813
-0.138807876751
-0.138825909566
-0.138812978863
-0.138749169899
-0.138580385542
-0.138349307616
-0.138107115632
-0.137885111993
-0.137644068687
-0.137375729497
-0.137087218366
-0.136809669181
-0.136545301104
-0.136325676254
-0.136194950297
-0.12792641819
-0.127930484907
-0.12793419114
-0.127952831921
-0.127975124772
-0.127993021361
-0.1280121056
-0.128037894378
-0.128060947997
-0.12809419821
-0.128141424447
-0.128192272269
-0.128245241007
-0.128295017167
-0.128351341903
-0.128412697147
-0.128475526598
-0.128538008903
-0.128604136392
-0.128676682505
-0.128757970472
-0.12884954813
-0.128965291117
-0.129108368895
-0.129246682238
-0.129401805313
-0.129583649574
-0.12976387199
-0.129957628055
-0.130164481532
-0.13037209925
-0.130573188888
-0.130769876119
-0.130975365787
-0.13118867319
-0.131410774704
-0.131642241903
-0.131883833667
-0.132136784519
-0.132401648313
-0.132679547322
-0.132971826736
-0.133278197734
-0.133597184933
-0.133927469743
-0.134268193138
-0.134618911319
-0.134979560467
-0.135350132208
-0.135730190202
-0.136118129191
-0.136510450292
-0.136901270714
-0.137280984398
-0.137633797553
-0.137928393603
-0.138123634369
-0.138213969181
-0.138268806763
-0.138367696983
-0.138528419929
-0.138707698738
-0.138878581032
-0.139030126254
-0.139122186954
-0.139164839462
-0.13915716251
-0.139106074602
-0.139024542984
-0.13883861891
-0.138557777597
-0.138243734904
-0.137997349746
-0.137707818392
-0.137362801095
-0.136961303033
-0.1365866588
-0.136199907613
-0.135853278484
-0.135631685182
-0.127857419627
-0.127862067583
-0.127868696118
-0.127880625788
-0.127899246775
-0.127919070622
-0.12794005858
-0.127966327343
-0.127994880387
-0.128027540711
-0.128074938461
-0.128125134047
-0.128176520031
-0.128224119947
-0.128278593759
-0.128343321425
-0.128406161438
-0.128467341987
-0.128531714615
-0.128602389421
-0.128680884963
-0.128767454378
-0.128876982838
-0.1290245846
-0.129172263983
-0.12932120512
-0.129502721263
-0.129686979501
-0.129871875851
-0.130073587549
-0.130272085186
-0.130468605238
-0.130669465496
-0.130877553196
-0.131092947232
-0.131316820375
-0.131550331516
-0.131793764087
-0.132048501763
-0.132316176241
-0.132597667514
-0.132894220679
-0.133206184295
-0.133532204436
-0.133870795304
-0.134221410079
-0.134584196003
-0.134959518826
-0.135347795148
-0.135749432552
-0.136164020389
-0.13659021744
-0.137025172147
-0.137460033244
-0.137868550787
-0.138175755198
-0.138325093264
-0.138354692896
-0.138426222009
-0.138610755327
-0.138872172585
-0.139104683003
-0.139304501996
-0.139527370388
-0.139575396958
-0.139595782833
-0.139570684734
-0.13947547445
-0.139316384971
-0.139042535496
-0.138825401198
-0.138330135431
-0.138138337982
-0.137808042821
-0.13737254674
-0.136795742265
-0.136332052808
-0.135765233289
-0.135182362616
-0.134764164527
-0.127780524336
-0.127785672351
-0.127797404637
-0.127803239103
-0.127817683064
-0.127837708913
-0.127860058346
-0.127887802307
-0.127923094351
-0.12795440941
-0.128000974846
-0.128050491237
-0.128100862858
-0.128148088248
-0.128201127675
-0.128265893286
-0.128328498567
-0.128389137347
-0.128452268423
-0.128521032121
-0.128597274418
-0.128681037081
-0.128782548502
-0.128924383278
-0.129086141903
-0.12923683026
-0.12940592624
-0.129600728068
-0.129789791866
-0.12997302145
-0.130162555827
-0.130356925666
-0.130559222019
-0.130769341416
-0.13098692965
-0.131212857534
-0.131448114231
-0.13169379713
-0.131950715885
-0.132220654922
-0.132505601767
-0.132806598025
-0.133123932622
-0.133456567027
-0.133803322306
-0.134164184938
-0.134539697117
-0.134930383825
-0.135336786864
-0.135760055526
-0.136201706824
-0.136664536941
-0.137152071966
-0.137659709968
-0.138140694947
-0.138425119537
-0.13843690127
-0.138470108667
-0.13862965022
-0.138988892503
-0.139463629753
-0.139638405729
-0.139738581803
-0.13959270784
-0.139532962711
-0.139459691474
-0.13932636175
-0.139116794787
-0.138870086681
-0.138660668974
-0.138251002106
-0.138341525537
-0.138767016526
-0.138419439597
-0.137834859182
-0.136582953047
-0.136098214186
-0.135245520996
-0.134206883407
-0.13334700411
-0.127694143819
-0.127698649291
-0.127708579117
-0.127715228321
-0.127727722465
-0.127748172731
-0.127770749536
-0.127797335748
-0.12783858824
-0.127873256
-0.127918784218
-0.127968013743
-0.128018160988
-0.128066440528
-0.128118999362
-0.12818225178
-0.128243868224
-0.128304090566
-0.128366166425
-0.128433073556
-0.128506761574
-0.12858833616
-0.128684315122
-0.128817516295
-0.128984791141
-0.129144536532
-0.129302373989
-0.12948729011
-0.129681991471
-0.129864837823
-0.130046850323
-0.130237515601
-0.13043966921
-0.130651239265
-0.130870715728
-0.131098237387
-0.131335328684
-0.131582848149
-0.131842203309
-0.132114642051
-0.132402612752
-0.132707894065
-0.133030624573
-0.133369388937
-0.133723370823
-0.134094105147
-0.134483122275
-0.134890034105
-0.13531350905
-0.135755443019
-0.136221830766
-0.136720651163
-0.13726518181
-0.137867853847
-0.138439161907
-0.13851169498
-0.138515366299
-0.13868184225
-0.13892538978
-0.139472164706
-0.139261973745
-0.138991348748
-0.13881934838
-0.138665291045
-0.138243441418
-0.13766891986
-0.137036617271
-0.136431217813
-0.135935546742
-0.135562525637
-0.13529945678
-0.13493223527
-0.134942166766
-0.134850187973
-0.134648693621
-0.135304611309
-0.136451776786
-0.135227607637
-0.132852753487
-0.130757021407
-0.127599813505
-0.12760363539
-0.127613286626
-0.12761941337
-0.127631432733
-0.127651495068
-0.127673844968
-0.127697481471
-0.127737850981
-0.127779480924
-0.127826689948
-0.127876463608
-0.127927244202
-0.127978652425
-0.128030664301
-0.128092123619
-0.128152520538
-0.128212512668
-0.128273581818
-0.128338713817
-0.12840977164
-0.128488338205
-0.128579726888
-0.128703527874
-0.128865886145
-0.129040197939
-0.129197886901
-0.129368958252
-0.129554085089
-0.129734484243
-0.129913765142
-0.130105469959
-0.13030849002
-0.13052137226
-0.130742948746
-0.130972642834
-0.131211243665
-0.131460673638
-0.131722141629
-0.131997250371
-0.13228820316
-0.132597083984
-0.13292481934
-0.133269617435
-0.1336299851
-0.134010007489
-0.13441307178
-0.134835917132
-0.135272722787
-0.135727794969
-0.136212586977
-0.136739759128
-0.137328764302
-0.138004619766
-0.138598690815
-0.138640721364
-0.138750760598
-0.138704113883
-0.138472703937
-0.138318823976
-0.138035482371
-0.137306957389
-0.136339107472
-0.135250495957
-0.133982003619
-0.132575642187
-0.131151601223
-0.129813306138
-0.128616157712
-0.127620500542
-0.126909657083
-0.126562196091
-0.12684883185
-0.127542107972
-0.128479023183
-0.129672969909
-0.130742868977
-0.130799411757
-0.130843174167
-0.127762158685
-0.127498889749
-0.127501729601
-0.127508468727
-0.12751519146
-0.127529340351
-0.127548747752
-0.127571555921
-0.127593475033
-0.127631735604
-0.127676602356
-0.127724937804
-0.127774818101
-0.127825243533
-0.127880906942
-0.127934167963
-0.127993807956
-0.128053177352
-0.128113734575
-0.128174048399
-0.128237559099
-0.128306047435
-0.128381114477
-0.128467905338
-0.128583216219
-0.128737876522
-0.128917905493
-0.129085863562
-0.129249052893
-0.129420835648
-0.129592747546
-0.129769090443
-0.129960386332
-0.130163423965
-0.130377277149
-0.1306010848
-0.130833480181
-0.131074778515
-0.131326144564
-0.131590077481
-0.131867659499
-0.132161274425
-0.132474038618
-0.132806776994
-0.13315735814
-0.133520481479
-0.133902854197
-0.134318593115
-0.134762897346
-0.13521152227
-0.135668753265
-0.136158813098
-0.136692282271
-0.137298359772
-0.138065303471
-0.139017440953
-0.138742547031
-0.138414811088
-0.137975172411
-0.137305303512
-0.136463480438
-0.135407512448
-0.133930411855
-0.132114187999
-0.130109171325
-0.128016196716
-0.125885899309
-0.123773285912
-0.121699136662
-0.119666402593
-0.117758164224
-0.11612125102
-0.11495128935
-0.114500984558
-0.11481392485
-0.115929049768
-0.118142326373
-0.121286970951
-0.123590738349
-0.123313756979
-0.121823598439
-0.127392936217
-0.127394955499
-0.127398386233
-0.127406087761
-0.12742196411
-0.127440348041
-0.127463068123
-0.127485860916
-0.127520467389
-0.127565963348
-0.127614220457
-0.127663394852
-0.127711993805
-0.127767964363
-0.127825920806
-0.127885211138
-0.127943734314
-0.128004931285
-0.128065902574
-0.128128536841
-0.128194971236
-0.128266028905
-0.128348140659
-0.128455301054
-0.128598857308
-0.12877171676
-0.128949607471
-0.129113762829
-0.129277602952
-0.129443182698
-0.12961337837
-0.129802016121
-0.130005278604
-0.130217664523
-0.130443739678
-0.130679219307
-0.130922738457
-0.131177023475
-0.131444211748
-0.131725703144
-0.132022470924
-0.132337871555
-0.132674045635
-0.133030718504
-0.133404374651
-0.13379713998
-0.134218295415
-0.134657678251
-0.135103021353
-0.135557536387
-0.136039473691
-0.136530996346
-0.137020766119
-0.13790787728
-0.138739842821
-0.138344463425
-0.137366258074
-0.136281958831
-0.134967227968
-0.133321871611
-0.131320082906
-0.12896679072
-0.12637114994
-0.123658815747
-0.120942940467
-0.118280144729
-0.115690393218
-0.113144376944
-0.110595838169
-0.108078793833
-0.105764408877
-0.10378311657
-0.102285042217
-0.101430740417
-0.101479821318
-0.102944245731
-0.105615563419
-0.1075330065
-0.110455593591
-0.129037233783
-0.127282429965
-0.127284083796
-0.127286261059
-0.127295587496
-0.127310750307
-0.127326974182
-0.127347108865
-0.127371909578
-0.127402661447
-0.127447280701
-0.127494882417
-0.127543148296
-0.127590402578
-0.127643807449
-0.127705251228
-0.127765805986
-0.127824201714
-0.127885005943
-0.1279468049
-0.128009763743
-0.128075462814
-0.128142631981
-0.128219703893
-0.128319286315
-0.128451500248
-0.12861351772
-0.128789432514
-0.128956975897
-0.129112997003
-0.129272473163
-0.129442187988
-0.129624657467
-0.129825706126
-0.13003928063
-0.13026841258
-0.130507324794
-0.130753564033
-0.131011127352
-0.131282085526
-0.131568091966
-0.131869877662
-0.132189667192
-0.132533227977
-0.132903619649
-0.133295511044
-0.133696818598
-0.134112228848
-0.134542202911
-0.134981064992
-0.135423499575
-0.135907601668
-0.13626890277
-0.136106075251
-0.137650719749
-0.136862053192
-0.135930273425
-0.134842554796
-0.133225337097
-0.131161840338
-0.128694987024
-0.125879929013
-0.122815103364
-0.119629588878
-0.1164210029
-0.113255661708
-0.110148979039
-0.107076056029
-0.103971413292
-0.100760767673
-0.0974349857618
-0.0941162819586
-0.0909913132716
-0.0880789781853
-0.0854109615658
-0.0832206466771
-0.081988852839
-0.0815381237459
-0.0788929096948
-0.0690885537552
-0.055448785368
-0.12716606523
-0.127167557463
-0.127169719268
-0.127181343888
-0.127195245461
-0.127208988021
-0.127225399361
-0.127251068844
-0.127277067833
-0.12731990779
-0.127366803039
-0.127414152273
-0.127460604628
-0.127512596239
-0.127574380252
-0.127636021478
-0.127694954877
-0.127755344685
-0.127816514922
-0.127879685213
-0.127945689956
-0.128009834466
-0.128081130101
-0.128173500497
-0.128295005165
-0.12844499492
-0.128614800837
-0.128782036233
-0.128941481104
-0.129091969757
-0.129257704457
-0.129437266928
-0.129632175542
-0.129838604658
-0.130066641636
-0.130312938219
-0.130564684064
-0.130827369762
-0.131102205078
-0.13139265076
-0.131701190033
-0.132029668125
-0.132387250221
-0.132778791575
-0.133184744996
-0.133591742689
-0.13400900711
-0.134447167046
-0.134901170423
-0.135320881462
-0.13595949051
-0.136673386904
-0.135628361775
-0.134510088355
-0.133708402793
-0.132692334554
-0.131102965792
-0.128832049233
-0.126062716917
-0.12290063839
-0.119461521463
-0.115860322211
-0.112196413599
-0.108520502556
-0.104842162707
-0.101131299741
-0.0973344108874
-0.0933833366081
-0.0892179090012
-0.0848249571375
-0.0802727195142
-0.0756738781978
-0.0709694295543
-0.0659313656897
-0.0605532590248
-0.0551387802568
-0.0489355474394
-0.0360493414842
-0.00467967521902
0.0368455749825
-0.127040828559
-0.127042079237
-0.127045270216
-0.127059643322
-0.127072477346
-0.127084129169
-0.127098262452
-0.127122504896
-0.127143562866
-0.127183623484
-0.127229610675
-0.127275915252
-0.127321487315
-0.12737199313
-0.127432742301
-0.127494867516
-0.127555329697
-0.127615254372
-0.127674805339
-0.12773725882
-0.127803573297
-0.127865961936
-0.127930601071
-0.128015737026
-0.128127489115
-0.128264621233
-0.128424111258
-0.128582729637
-0.128745510217
-0.128898342173
-0.129056245218
-0.129226647194
-0.129419237145
-0.129627865587
-0.12984704132
-0.130091896082
-0.130350559009
-0.130619719149
-0.130902321937
-0.131198800117
-0.131513769793
-0.131856702001
-0.132238417643
-0.132651459787
-0.133066355451
-0.133482126793
-0.133924081118
-0.13440809716
-0.134896375503
-0.135030502547
-0.136283940609
-0.135093130283
-0.133566135004
-0.131968344245
-0.130646572076
-0.128969640199
-0.126581051703
-0.123563917806
-0.12011307216
-0.116348734844
-0.112391130506
-0.108331061684
-0.104226526261
-0.100093282788
-0.0959176612268
-0.0916633737033
-0.0872819110957
-0.0827157675529
-0.0779048217733
-0.0727939999247
-0.0673324743597
-0.0614512348703
-0.0550085571115
-0.0476350192115
-0.0391365792126
-0.0295793475882
-0.0171226907589
0.00670458561191
0.0550115279793
0.112057338104
-0.126902552043
-0.126903593827
-0.12690774591
-0.126924595064
-0.126936050658
-0.126947537338
-0.126960340782
-0.126981400413
-0.126999341844
-0.127037653154
-0.127082748427
-0.127127799586
-0.12717225897
-0.127220821716
-0.127279309278
-0.127340349103
-0.127403096338
-0.127462731631
-0.127520517665
-0.12758140053
-0.127646507435
-0.127709024437
-0.127767328786
-0.127844149032
-0.127947094009
-0.128071948289
-0.128219041806
-0.128366065262
-0.128519555007
-0.128678412513
-0.128839021216
-0.129002418613
-0.129178986933
-0.129383456915
-0.129607774617
-0.129849432894
-0.130110735726
-0.130385187257
-0.130674949895
-0.130980924699
-0.131308624324
-0.131672610095
-0.132081384141
-0.13251028952
-0.132940659431
-0.133388056946
-0.13389131057
-0.134491068138
-0.135236245852
-0.135043147818
-0.134097020992
-0.13271467296
-0.131196102193
-0.129387364507
-0.127338556124
-0.124728916589
-0.121477004988
-0.117727217935
-0.113655279771
-0.109380636311
-0.105004025432
-0.100587021794
-0.0961594508838
-0.0917201122474
-0.0872468238881
-0.0826976049126
-0.0780109279876
-0.0731040860552
-0.0678768992592
-0.0622127630138
-0.0559580618163
-0.0488820592068