/*--------------------------------*- C++ -*----------------------------------*\
| =========                 |                                                 |
| \\      /  F ield         | OpenFOAM: The Open Source CFD Toolbox           |
|  \\    /   O peration     | Version:  v1806                                 |
|   \\  /    A nd           | Web:      www.OpenFOAM.com                      |
|    \\/     M anipulation  |                                                 |
\*---------------------------------------------------------------------------*/
FoamFile
{
    version     2.0;
    format      ascii;
    class       volVectorField;
    location    "207";
    object      Ua;
}
// * * * * * * * * * * * * * * * * * * * * * * * * * * * * * * * * * * * * * //

dimensions      [0 1 -1 0 0 0 0];


internalField   nonuniform List<vector> 
6400
(
(4.89696355e-05 6.79309282817e-05 0)
(0.000137630706983 5.49010755011e-05 0)
(0.000203266293442 4.72481815169e-05 0)
(0.00028159589729 4.45673882996e-05 0)
(0.000337866712483 2.85961431625e-05 0)
(0.000376937181416 1.4318541432e-05 0)
(0.000390141463792 8.66102132722e-06 0)
(0.00039700115083 1.64403660856e-05 0)
(0.000450535454954 2.73079847611e-05 0)
(0.000510332837422 2.69512593221e-05 0)
(0.000521778722293 2.37372431467e-05 0)
(0.000577924660094 2.82784903381e-05 0)
(0.000627327180244 2.71313859509e-05 0)
(0.000667685062961 2.2473215082e-05 0)
(0.000693615825297 1.97522462996e-05 0)
(0.000722465565144 2.28355441285e-05 0)
(0.000764260203458 2.43068543697e-05 0)
(0.000798555755971 2.16945394378e-05 0)
(0.000819512848754 1.63649854914e-05 0)
(0.00083500807629 1.25579124626e-05 0)
(0.000858094277303 1.77781092621e-05 0)
(0.000893828744919 2.52322433909e-05 0)
(0.000937816573894 2.85653546478e-05 0)
(0.000979410079609 3.00858281389e-05 0)
(0.00102092512048 2.90448376574e-05 0)
(0.00106051835861 2.66220231717e-05 0)
(0.00110192234168 2.67998157968e-05 0)
(0.00114183856722 2.62000208452e-05 0)
(0.00117585551093 2.40301603988e-05 0)
(0.00120493079094 2.21557718679e-05 0)
(0.00122855290616 2.2742069488e-05 0)
(0.0012565850346 2.26333566636e-05 0)
(0.00128580462669 2.0556106308e-05 0)
(0.00130998139075 2.14735114141e-05 0)
(0.00133190724952 2.12112633305e-05 0)
(0.00136392314567 2.17184701394e-05 0)
(0.0013976503246 2.44564674241e-05 0)
(0.00140451783317 2.3149073953e-05 0)
(0.00143326106633 2.15409524958e-05 0)
(0.00147637571994 2.55020409636e-05 0)
(0.00152205507756 4.12284494674e-05 0)
(0.00156423611943 4.62596591811e-05 0)
(0.0016015360655 2.94876372658e-05 0)
(0.0016265023279 1.88029777637e-05 0)
(0.00163881857407 1.43998642396e-05 0)
(0.00164520483745 9.72673528069e-06 0)
(0.00164403006074 5.71710568915e-06 0)
(0.00163294660702 6.02940231419e-07 0)
(0.00161358761045 -2.93519135436e-06 0)
(0.00158969730922 1.96569098362e-06 0)
(0.00157031455337 1.50001642377e-05 0)
(0.00159222212106 1.46731101831e-05 0)
(0.00156375015611 -2.07767703483e-05 0)
(0.00151511852953 -3.37480706257e-05 0)
(0.00143505150011 -4.21535840122e-05 0)
(0.001283745402 -6.27249330259e-05 0)
(0.0011411268183 -5.28375508273e-05 0)
(0.00105023979656 -3.62553207074e-05 0)
(0.00098861746731 -4.21815180562e-05 0)
(0.000844231645064 -4.60658227416e-05 0)
(0.000744369118153 -3.71075474664e-05 0)
(0.000639825055552 -5.28710509447e-05 0)
(0.000557607307071 -8.67548365982e-05 0)
(0.000344893039749 -6.7726329263e-05 0)
(0.000224342457912 -4.30955014413e-05 0)
(0.000155794397938 -3.04761334217e-05 0)
(0.000107002239378 -2.61642911592e-05 0)
(6.31308822311e-05 -2.42289819964e-05 0)
(1.80058654508e-05 -2.33728511782e-05 0)
(-2.77819106742e-05 -2.19384285473e-05 0)
(-7.05582760137e-05 -1.90000557844e-05 0)
(-0.000103802001498 -1.41151275383e-05 0)
(-0.000123641946913 -8.01238619942e-06 0)
(-0.000139361684399 -7.67661925531e-07 0)
(-0.00012675504047 3.58410114682e-06 0)
(-0.000127763845999 6.81303054577e-06 0)
(-9.45736385462e-05 5.65281546973e-06 0)
(-0.00010595199285 1.21941855349e-05 0)
(-4.82789573056e-05 1.05270790168e-05 0)
(-3.65129217946e-05 2.17046896293e-05 0)
(1.7989342044e-05 9.17731899385e-05 0)
(7.79232958557e-05 0.000105321921785 0)
(0.000136813739355 9.89852962188e-05 0)
(0.000173305483831 7.89308710991e-05 0)
(0.000258865513384 7.89156072444e-05 0)
(0.000347846955312 5.61200671349e-05 0)
(0.000402280864309 3.19092126377e-05 0)
(0.000437179734471 4.58512105413e-05 0)
(0.000473644399597 6.53454233523e-05 0)
(0.00051567782426 6.42603003568e-05 0)
(0.000556487366692 6.12581607002e-05 0)
(0.000594023481701 6.32460766369e-05 0)
(0.000629042066719 5.73503703352e-05 0)
(0.000661471597065 4.78244994551e-05 0)
(0.000695840293797 4.34903080232e-05 0)
(0.000730492284375 5.59143320935e-05 0)
(0.000765945368271 6.01680094865e-05 0)
(0.000792071693852 3.62985326987e-05 0)
(0.000773331634103 1.96515014736e-05 0)
(0.000795587999182 1.90584195294e-05 0)
(0.000830217736939 3.6171614514e-05 0)
(0.000876733591439 6.18563885134e-05 0)
(0.000937602309592 7.13139852092e-05 0)
(0.000989214113748 6.4574367044e-05 0)
(0.00101009074076 5.92141666172e-05 0)
(0.00106109352567 5.87896513564e-05 0)
(0.00110739747991 5.59069630124e-05 0)
(0.0011424476158 5.00889960747e-05 0)
(0.00117356987892 4.40169551732e-05 0)
(0.00120280647421 3.92147833899e-05 0)
(0.00123076209488 3.86339907536e-05 0)
(0.00124363526519 3.68046766582e-05 0)
(0.00127105279553 2.91274579421e-05 0)
(0.00129091143994 3.29894626322e-05 0)
(0.00130389642292 3.83404292984e-05 0)
(0.0013557741124 3.21260170875e-05 0)
(0.00137409134781 3.68956971249e-05 0)
(0.00138460000271 4.34521774539e-05 0)
(0.00142706180093 4.16883154021e-05 0)
(0.00149384581017 4.0961128284e-05 0)
(0.00154662396809 3.56069737993e-05 0)
(0.00141997398866 2.5134139393e-05 0)
(0.00139254953851 2.04705125629e-05 0)
(0.00142163827336 1.84849685376e-05 0)
(0.00143942104579 1.56962257373e-05 0)
(0.00146957307299 1.07743061765e-05 0)
(0.00150481198318 2.37447590406e-06 0)
(0.00152246970081 -8.57630011891e-06 0)
(0.00154934938448 -2.01444008565e-05 0)
(0.00155849465142 -2.88450178975e-05 0)
(0.0015233177372 -3.0085038026e-05 0)
(0.00142881128153 -3.27741239814e-05 0)
(0.00133792434904 -4.19120041605e-05 0)
(0.00151147430458 -7.91607167889e-05 0)
(0.00140547128806 -0.000131719882443 0)
(0.00132373442983 -0.000161209621401 0)
(0.00133188674466 -0.0001589339282 0)
(0.0012533795444 -0.000144849668455 0)
(0.00115059997765 -0.000160240425112 0)
(0.00104622584865 -0.000184982200484 0)
(0.000937952614394 -0.000205093211394 0)
(0.00063783030419 -0.000189795908582 0)
(0.000573491168699 -0.000251329155443 0)
(0.000353792118454 -0.000206392643623 0)
(0.000232464359797 -0.000141307968651 0)
(0.000150955563333 -9.46486660836e-05 0)
(9.74910609702e-05 -7.38105831921e-05 0)
(5.54899730978e-05 -7.0757492236e-05 0)
(1.02009967846e-05 -7.02462840576e-05 0)
(-3.54795724805e-05 -6.80723298963e-05 0)
(-7.74870821285e-05 -5.86573795554e-05 0)
(-0.000109397609092 -4.21261399399e-05 0)
(-0.000126103940792 -2.40735152766e-05 0)
(-0.000144617360822 -8.27912178922e-06 0)
(-0.000148786218007 5.57687648038e-06 0)
(-0.000145458854995 1.652533612e-05 0)
(-0.000132911536293 2.27860916168e-05 0)
(-0.000114133456357 3.65081912341e-05 0)
(-7.43222838987e-05 4.8663242815e-05 0)
(-3.51139178524e-05 8.75357070395e-05 0)
(2.73972359473e-05 0.000159167224068 0)
(7.6353257459e-05 0.000176796637445 0)
(0.00011687468113 0.000169615961955 8.46858468633e-29)
(0.000209820247617 0.000179740655552 -8.27819257553e-29)
(0.000301695956422 0.000184748791094 -7.72253430307e-29)
(0.000351830708976 0.000149276678784 7.15988181718e-29)
(0.000384570650912 7.66531350328e-05 -7.32754537269e-29)
(0.000420915585542 8.54770254685e-05 7.39263744291e-29)
(0.000460422785981 0.000107070618673 0)
(0.000505855845748 0.000111563983089 0)
(0.000551294931485 0.00010649821943 0)
(0.000590353822884 0.00010004125929 0)
(0.000625284314684 9.0949351155e-05 0)
(0.000656511015752 8.5147410302e-05 0)
(0.00068790912959 8.04710403307e-05 0)
(0.000720806334468 6.70560640853e-05 0)
(0.000618042711302 4.14227031697e-05 0)
(0.000591507722441 2.74183014949e-05 0)
(0.000613014868678 3.46760121132e-05 0)
(0.000665831732452 6.70770455313e-05 0)
(0.000809297917986 0.00011076614119 0)
(0.000899152813052 0.000129504323984 0)
(0.00091849661521 0.000122218575847 0)
(0.000970220487669 0.000112679141017 0)
(0.00102573512772 0.000107848278022 0)
(0.00106542079506 0.000104444734372 0)
(0.00110047631845 9.56219350465e-05 0)
(0.00113526953352 8.57689175264e-05 0)
(0.0011666094001 7.69535572128e-05 0)
(0.00119120178156 7.05337037587e-05 1.65907136968e-28)
(0.00122399001108 6.45162406495e-05 -1.61478802087e-28)
(0.00122615415525 5.94771519118e-05 0)
(0.00124348225982 5.3383352231e-05 0)
(0.00129504130445 4.74911291954e-05 0)
(0.00124865579958 6.09241422663e-05 0)
(0.00129521507305 7.09721251237e-05 0)
(0.00137845235632 6.61504363614e-05 0)
(0.00133823657834 7.56548567411e-05 0)
(0.0013985527444 9.76850231432e-05 0)
(0.00148942746914 9.54511148508e-05 0)
(0.00155146726273 5.32454254951e-05 0)
(0.00158186631938 2.29637745206e-05 0)
(0.00160753443457 3.29843055804e-05 0)
(0.00162863953834 4.20398517144e-05 0)
(0.00164197537255 4.13902273448e-05 0)
(0.00164956024999 3.59312800082e-05 0)
(0.00165223927532 2.34348529024e-05 0)
(0.00165026332446 7.59249908308e-06 0)
(0.00164385340777 -1.18487400187e-05 0)
(0.00163329566359 -3.86681539746e-05 0)
(0.00161985900904 -6.67793712824e-05 0)
(0.00160081211983 -8.03124262522e-05 0)
(0.00156523625549 -6.87148449269e-05 0)
(0.00148531423412 -0.00010665749428 0)
(0.00138364064164 -0.000167495299456 0)
(0.00137412422307 -0.000196221329107 0)
(0.00132611021128 -0.000211361482447 0)
(0.00123555736683 -0.000233608711874 0)
(0.00112787575765 -0.000263287962273 0)
(0.00101067323284 -0.000303367774023 0)
(0.000877354455963 -0.000358287091224 0)
(0.000735248223319 -0.000407742588038 0)
(0.000597852422763 -0.000464500704389 0)
(0.000356336829692 -0.000352936209135 0)
(0.000212615843055 -0.000220370396539 0)
(0.000143271818025 -0.000158888534678 0)
(9.14011601721e-05 -0.000132277743214 0)
(4.24722797824e-05 -0.000119864107912 0)
(-3.00733008799e-06 -0.000115234790695 0)
(-4.71084247062e-05 -0.000108381276273 0)
(-8.75740785735e-05 -9.21031412559e-05 0)
(-0.000121400046956 -6.88723891765e-05 0)
(-0.000151788004594 -4.65836840078e-05 0)
(-0.000170767365529 -2.07311079415e-05 0)
(-0.000170751540743 6.71300053993e-06 0)
(-0.000160900061587 2.63915145666e-05 0)
(-0.000144193973435 4.16055707692e-05 0)
(-0.000120898927308 7.0458357574e-05 0)
(-8.76282575089e-05 0.000117148659025 0)
(-2.34524661004e-05 0.000127765775511 0)
(2.70125311559e-05 0.000243057436762 0)
(3.28614455288e-05 0.000156500967172 0)
(9.66849637559e-05 0.000261795625565 0)
(0.000188754993741 0.000272164279499 0)
(0.000255790470848 0.000228444884749 0)
(0.0001319926841 7.99882837737e-05 0)
(0.000162572677798 8.1245095627e-05 0)
(0.000324647722806 0.000163555571134 0)
(0.000425935428199 0.00018290430309 0)
(0.000483614161935 0.000167365582172 0)
(0.000539434997592 0.000155285510506 0)
(0.000584326110154 0.000140855129588 0)
(0.000620125088196 0.000125417319948 0)
(0.000641091643094 9.72086514054e-05 0)
(0.000580121062081 5.5275596773e-05 0)
(0.000536352506324 2.78162828646e-05 0)
(0.000535959699805 2.42079220111e-05 0)
(0.000579043182595 5.43681754464e-05 0)
(0.000685183796311 0.000109100857019 0)
(0.00081278190514 0.000174533032849 0)
(0.000849210132753 0.000191445114572 0)
(0.000887923286328 0.000179872843795 0)
(0.000937863451487 0.000169514909781 0)
(0.000981885943639 0.00016194300624 0)
(0.00102049642885 0.000151479991214 0)
(0.00105588991067 0.000139690288236 0)
(0.00108753252536 0.000128518081114 0)
(0.00112727082961 0.000117298028091 0)
(0.00114972024411 0.000105466461776 0)
(0.00118908420429 9.60364315187e-05 0)
(0.00119125111915 8.55754153941e-05 0)
(0.00123381119915 7.52169125917e-05 0)
(0.00120591683751 6.01370980968e-05 0)
(0.00122695464399 6.34881308337e-05 0)
(0.00130509784997 8.26701176734e-05 0)
(0.00127028467821 0.000102953392227 0)
(0.00134627309794 0.00011561950946 0)
(0.00144191477518 0.000131550353837 0)
(0.00148423427459 0.000151883057526 0)
(0.00151409832487 0.000140291276224 0)
(0.00154657913726 0.000100431224075 0)
(0.00157824767196 6.71478339805e-05 0)
(0.00160626786929 5.75099612552e-05 0)
(0.00162846135037 5.49377444139e-05 0)
(0.00164351795293 4.86699736315e-05 0)
(0.00165283893623 3.76311556512e-05 -1.66541407894e-28)
(0.00165732873727 2.15656762044e-05 1.67677634733e-28)
(0.00165714137474 1.48337427736e-06 0)
(0.00165217183898 -2.25618979639e-05 0)
(0.00164214177568 -5.07474658379e-05 0)
(0.0016261785887 -7.9637893606e-05 0)
(0.00160037330239 -0.000105640574702 0)
(0.00155878096432 -0.000134893393761 0)
(0.00150124970757 -0.000181323749549 0)
(0.00144046177092 -0.000222436190764 0)
(0.00138022878217 -0.000253031757688 0)
(0.00130597247324 -0.000293816061482 0)
(0.0012083313888 -0.000339255903298 -3.12136385461e-28)
(0.00108980859026 -0.000387135245087 3.51118796462e-28)
(0.00095571049287 -0.000440397399709 0)
(0.000810878952966 -0.000496570203364 0)
(0.000666844493861 -0.000551415663502 0)
(0.000545567533898 -0.00060048727015 0)
(0.000380950154255 -0.000513786358901 0)
(0.000236152382571 -0.00034810459549 0)
(0.000135515925831 -0.000226168981482 0)
(7.57394139446e-05 -0.000181558279753 0)
(2.50721473904e-05 -0.000167554969634 0)
(-2.21613039793e-05 -0.000160696735471 0)
(-6.86145322998e-05 -0.000153892084884 0)
(-0.000115236834161 -0.000136431320211 0)
(-0.000157045850571 -0.000107628667086 0)
(-0.000181426937438 -6.80500280055e-05 0)
(-0.00017788421824 -2.3006315747e-05 0)
(-0.000172949206078 1.262891073e-05 0)
(-0.000165281903193 4.25930388656e-05 0)
(-0.000141503205825 7.07070723373e-05 0)
(-9.08309583913e-05 8.88983388647e-05 0)
(-6.87041450276e-05 0.000141318827845 0)
(-2.32218695353e-05 0.000177388121806 0)
(2.06487503269e-07 0.000235722548701 0)
(1.47161936565e-05 0.000191548248935 0)
(9.03526951073e-05 0.00035236729613 0)
(0.000159565435063 0.00032367639233 0)
(0.000155831407312 0.000196838004586 0)
(0.000118632300832 0.000105846872277 0)
(0.000207876733786 0.000182834353221 0)
(0.000347968057249 0.000284345436688 0)
(0.000398184036144 0.000259905899568 0)
(0.000459797726495 0.000229268425716 0)
(0.000517579952704 0.000213455177527 0)
(0.000563997684933 0.00018540250133 0)
(0.000554201708685 0.000120816661055 0)
(0.000487624728115 5.83600401364e-05 0)
(0.000498814807954 3.66139992528e-05 0)
(0.000536166309202 4.55479295478e-05 0)
(0.000607124785217 8.33834865507e-05 0)
(0.000708529676674 0.000149286713523 0)
(0.000789645374452 0.000205801277921 0)
(0.000800982675898 0.000216319555285 0)
(0.000838320676268 0.000223166854875 0)
(0.000891972292415 0.000227038402785 0)
(0.000934221365454 0.000216905713361 0)
(0.000974249760046 0.000202005935898 0)
(0.00101034657909 0.000187248329615 0)
(0.00104150757772 0.000174764511187 0)
(0.00108269397744 0.000161910135008 0)
(0.00109942232201 0.000146682875838 0)
(0.00114893621673 0.000134205264494 0)
(0.00114328848759 0.000117353842476 0)
(0.00120337515311 0.000105809891437 1.57310490041e-28)
(0.00115084480493 8.6113474203e-05 -1.42356322483e-28)
(0.0012167656358 8.44754890083e-05 0)
(0.00127422870872 9.12787349677e-05 0)
(0.0012499310979 0.000111030828212 0)
(0.00134905672012 0.000155022383229 0)
(0.00140551859106 0.00018821158919 0)
(0.00145192188156 0.000191127778139 0)
(0.00148686013856 0.000182225468426 0)
(0.00151600283387 0.000163419984608 0)
(0.00154749276114 0.000132389374515 0)
(0.00157941041037 0.000102773832387 0)
(0.00160796855536 8.52912990676e-05 0)
(0.00163104219291 7.40173051961e-05 0)
(0.00164782643372 6.15644496458e-05 0)
(0.00165923731973 4.53648985754e-05 0)
(0.00166581643384 2.47249758574e-05 0)
(0.00166750827082 -2.12596367478e-07 0)
(0.00166379961835 -2.96511492859e-05 0)
(0.00165376400335 -6.3676305844e-05 0)
(0.00163586778441 -0.000100987574226 0)
(0.00160712585079 -0.000140657312512 0)
(0.00156454465889 -0.000184784575164 0)
(0.00150881182707 -0.000235121570648 0)
(0.00144507513903 -0.000283623388545 0)
(0.00137350899162 -0.000332936144899 0)
(0.00128564555233 -0.000392058161123 0)
(0.0011745963931 -0.000457924754315 0)
(0.00104078919716 -0.000524002651064 0)
(0.000892303278867 -0.000586553928816 0)
(0.000741773543516 -0.000642097747634 0)
(0.000606454677124 -0.000689432666359 0)
(0.000501862301773 -0.000713788979401 0)
(0.000388705932087 -0.000655961827736 0)
(0.000243244912104 -0.000476412447134 0)
(0.000139507996461 -0.000321413323716 0)
(6.78321269124e-05 -0.000253044319363 0)
(6.50908436623e-06 -0.000223484511528 0)
(-4.66895505472e-05 -0.000208996559453 0)
(-9.82462967893e-05 -0.000200532998398 0)
(-0.000152678694244 -0.000183768193702 0)
(-0.000190333264975 -0.000137494955306 0)
(-0.000190868899475 -7.14746510764e-05 0)
(-0.000190838573085 -2.05251682782e-05 0)
(-0.000189965253988 2.17909489722e-05 0)
(-0.000178533059415 6.58378658299e-05 0)
(-0.000141117398472 0.000100607563113 0)
(-9.93604603635e-05 0.000126519595699 0)
(-7.15842106523e-05 0.000191385742265 0)
(-2.05743743796e-05 0.000215944179839 0)
(-2.01662273375e-06 0.000217446809587 0)
(2.0221966344e-05 0.000234693591589 0)
(9.30000757251e-05 0.000400326590397 0)
(0.000125209529426 0.0003188494639 0)
(8.76354263572e-05 0.000147822231216 0)
(0.000119373557391 0.000152566498942 0)
(0.000278325996616 0.000314636519218 0)
(0.000338995881075 0.000343478071428 0)
(0.000378882602187 0.000314102278 0)
(0.000430073414092 0.000288061356795 0)
(0.000482074772474 0.000247928441121 0)
(0.000425020261828 0.000155633953196 0)
(0.000379764859979 8.04662186883e-05 0)
(0.000414396640623 6.4003652342e-05 0)
(0.000459528957638 7.79150385714e-05 0)
(0.000551820279737 0.000122937280496 0)
(0.000663887536057 0.000184269379503 0)
(0.000744006029012 0.000223707683709 0)
(0.000737238210132 0.000222455601713 0)
(0.000782725766099 0.000246857754068 0)
(0.000844867753008 0.000273587939188 0)
(0.000885484398642 0.000271995930908 0)
(0.000923706397089 0.000257780130826 0)
(0.000958667541116 0.000240789112737 0)
(0.00100245935377 0.000225891563296 0)
(0.00103408882277 0.000205204775802 0)
(0.00103530087811 0.000188598626382 0)
(0.00110465228848 0.000179023335649 0)
(0.00107753986782 0.000152951160769 0)
(0.00116127519073 0.000137420830812 0)
(0.00107679210546 0.00010788754367 0)
(0.0011819265779 0.000113107623499 0)
(0.00111887167834 0.000111372497504 0)
(0.00121313011537 0.000132617417497 0)
(0.0013151023553 0.000178553421421 0)
(0.00137596021222 0.00022319573231 0)
(0.00141780451592 0.000234402759136 0)
(0.00145396770376 0.00022790423843 0)
(0.00148613197183 0.000213229269637 0)
(0.00151734336918 0.000192325153868 0)
(0.00154934928592 0.00016459506032 0)
(0.00158128358258 0.000136126975894 0)
(0.00161050703237 0.000113386207321 0)
(0.00163478748889 9.49088773227e-05 0)
(0.00165364414233 7.63236344398e-05 0)
(0.00166737842632 5.4941994526e-05 0)
(0.00167636342897 2.95095983071e-05 0)
(0.00168016814493 -6.28485014466e-07 0)
(0.00167774123076 -3.61685206553e-05 0)
(0.0016677817999 -7.75609036315e-05 0)
(0.00164864974811 -0.000124547593946 0)
(0.00161809206434 -0.000176726666415 0)
(0.00157429958938 -0.000233867450466 0)
(0.00151740274508 -0.000294537070668 0)
(0.00144849909329 -0.000356577108027 0)
(0.00136533833345 -0.000424679374707 0)
(0.00126186420586 -0.000503979749014 0)
(0.00113536328711 -0.00058972562486 0)
(0.000991043896602 -0.000671940267698 0)
(0.000836039064255 -0.000737961044576 0)
(0.000689615000923 -0.000783826365507 0)
(0.000568257739272 -0.000797711179552 0)
(0.000431250395359 -0.000735364378189 0)
(0.00039431885311 -0.000810612583972 0)
(0.000227112514794 -0.000578273647116 0)
(0.000129556472163 -0.000400595563362 0)
(5.68519613167e-05 -0.000325198434851 0)
(-1.48713428452e-05 -0.000285537728614 0)
(-7.84605024416e-05 -0.000262753262924 0)
(-0.00014132919275 -0.000257288852619 0)
(-0.000196388572956 -0.000228316290521 0)
(-0.000208102317854 -0.000147731808311 0)
(-0.000208430355824 -7.51486011429e-05 0)
(-0.000218573455245 -2.14984985572e-05 0)
(-0.000216234553309 3.29858613983e-05 0)
(-0.000201852730611 9.36611950555e-05 0)
(-0.00015517274154 0.000130891564814 0)
(-0.000116035036477 0.000164441233877 0)
(-8.32580660182e-05 0.000238267246615 0)
(-2.54379639122e-05 0.00026027420026 0)
(6.90881012237e-06 0.000235716115677 0)
(5.18519366931e-05 0.000312509891578 0)
(0.000125446544808 0.000434773109167 0)
(0.000133119124918 0.00039511071223 0)
(8.07782158145e-05 0.000183160822106 0)
(0.000179933345664 0.000279997129942 0)
(0.00029860639367 0.000394388130849 0)
(0.000323689182473 0.000382733788837 0)
(0.000362419341449 0.000353095689253 0)
(0.000380191115718 0.000317154395479 0)
(0.000447331169807 0.000262069846549 -3.35360079977e-28)
(0.000321890221697 0.000114858444029 1.79904919432e-28)
(0.000377380289914 0.000101087631526 0)
(0.000403639038803 0.000109030106376 0)
(0.000480597891048 0.000155646332273 0)
(0.000601067938315 0.000233579124953 0)
(0.000687250180801 0.000267012193578 0)
(0.000660695625687 0.000234941586398 0)
(0.000710593779294 0.000256654612548 0)
(0.000790966251336 0.000306555974134 0)
(0.000831256170367 0.000320734196895 0)
(0.000873410763067 0.000312953350488 0)
(0.000913052683177 0.000297656175112 0)
(0.000950180435115 0.000277430125232 0)
(0.000973900784584 0.000251510440341 0)
(0.000980828265182 0.000224112953164 0)
(0.00104197162332 0.000215441151397 0)
(0.00100003883755 0.000195064634084 0)
(0.00110525393228 0.000180394743535 0)
(0.00101100833671 0.000127649915608 0)
(0.00112004152374 0.000132311315051 0)
(0.00107273551398 0.000138036824406 -1.33848785933e-28)
(0.00117222038124 0.000158546365039 1.45698930598e-28)
(0.00121295179382 0.000207531406033 0)
(0.00134045809817 0.000263926680798 0)
(0.00138445124219 0.000277406310987 0)
(0.00141830221568 0.000272506127084 0)
(0.00145145460427 0.000260868788743 0)
(0.00148529604856 0.000244642358876 0)
(0.00151872326335 0.000223502767798 0)
(0.00155153992984 0.000197097112394 0)
(0.00158397556997 0.000168671401206 0)
(0.00161405984679 0.000142191666514 0)
(0.0016398719737 0.000117968947455 0)
(0.00166092494564 9.37412455301e-05 0)
(0.00167733059547 6.72297569708e-05 0)
(0.00168906244014 3.67368067944e-05 0)
(0.00169521728749 8.4667890591e-07 0)
(0.00169434067106 -4.16799129282e-05 0)
(0.00168496459039 -9.16416481892e-05 0)
(0.00166546436314 -0.000149170926806 0)
(0.00163387956795 -0.000213776425454 0)
(0.00158856698256 -0.000284297557007 0)
(0.00152854706544 -0.000359366396069 0)
(0.00145247088619 -0.000439624688653 0)
(0.00135711716951 -0.000529407183475 0)
(0.0012389425276 -0.000629762084734 0)
(0.00109934575899 -0.000732190465994 0)
(0.00094643028438 -0.000822522891752 0)
(0.000794431923384 -0.000885969793695 0)
(0.000659750743139 -0.000908313535632 0)
(0.000553965440706 -0.000896246564714 0)
(0.000467690452594 -0.000901603223569 0)
(0.000403728305396 -0.000898431957803 0)
(0.000250478120389 -0.000685165545497 0)
(0.000114752885641 -0.000473816073171 0)
(3.6337775338e-05 -0.000408487654159 0)
(-4.69058354514e-05 -0.000369466348258 0)
(-0.000123683287952 -0.000340188413115 0)
(-0.00019036722787 -0.000315398918415 0)
(-0.000225990492531 -0.000249600125908 0)
(-0.000228421362915 -0.000155699625018 0)
(-0.000244439904907 -8.66508769713e-05 0)
(-0.000256255565799 -2.38867176645e-05 0)
(-0.000255261123442 4.70386359117e-05 0)
(-0.000229077261395 0.000118006915841 0)
(-0.000192209123977 0.000171034041854 0)
(-0.000140313079122 0.000208231313889 0)
(-9.97532032368e-05 0.000287769557679 0)
(-3.38414033826e-05 0.000323266633209 0)
(1.53253750494e-05 0.000275019698672 0)
(7.77248024067e-05 0.000392416329948 0)
(0.000143166892058 0.000446111288394 0)
(7.78798683094e-05 0.000243226997246 0)
(8.37336678546e-05 0.00022929610794 0)
(0.000221898442297 0.000409802602961 0)
(0.000273612948276 0.000433209000122 0)
(0.000312289676806 0.000421056529584 0)
(0.000324486444809 0.000371909675872 0)
(0.000363401631944 0.000338782577244 0)
(0.000275513423935 0.000182666859605 0)
(0.00031836638364 0.000135991185218 0)
(0.000363947349698 0.000138542622698 0)
(0.000399212025726 0.000165913366271 0)
(0.000523583275427 0.00025774641611 0)
(0.000625275192692 0.000314926077491 0)
(0.000594141872382 0.000269584334056 0)
(0.000630234977153 0.000268863913024 0)
(0.000719884475133 0.000326099541151 0)
(0.000779008673072 0.000360929332636 0)
(0.000813448103119 0.000361732712349 0)
(0.000848994254304 0.000351019492998 0)
(0.000895696296827 0.000339445375797 0)
(0.000930190350202 0.000315110248538 0)
(0.000973915483244 0.000276825715104 0)
(0.000952066539547 0.000249927703014 0)
(0.00102912963252 0.000237753996658 0)
(0.00101333172629 0.000209601007234 0)
(0.000992670752514 0.000177449324838 0)
(0.00102424015844 0.000164121002595 0)
(0.0011447655427 0.000174480285199 0)
(0.00111149625239 0.00016708787818 0)
(0.00112763882787 0.000215591828018 0)
(0.00129764156263 0.000301439335528 0)
(0.00134121581946 0.000330441958367 0)
(0.00137976465726 0.000321450110578 0)
(0.00141462423108 0.000308115088903 0)
(0.00144852571034 0.00029447989457 0)
(0.00148401016803 0.00027806626178 0)
(0.00151961125834 0.000256833985065 0)
(0.00155391302976 0.000230558671579 0)
(0.0015871023342 0.000201407584394 0)
(0.00161835914233 0.000171990375484 0)
(0.00164611844525 0.000143153803924 0)
(0.00166971272105 0.000113916643096 -1.61110012352e-28)
(0.00168912952142 8.24686455165e-05 1.60582061795e-28)
(0.00170394145177 4.67079844914e-05 0)
(0.00171281190742 4.55151008897e-06 0)
(0.00171401851213 -4.56738077122e-05 0)
(0.00170603696876 -0.000105000969187 0)
(0.00168718137049 -0.000173783643835 0)
(0.00165539738108 -0.000251616853878 0)
(0.00160866280425 -0.000337503423558 0)
(0.00154471992017 -0.000430880136526 0)
(0.00146054336063 -0.000533112390826 0)
(0.00135301941338 -0.000646119222502 0)
(0.00122163142506 -0.000766425167 0)
(0.00107153509367 -0.000882321268925 0)
(0.000913228447793 -0.000977583614356 0)
(0.000760262244001 -0.00102941367906 0)
(0.000630407987587 -0.00101885775712 0)
(0.000539987768504 -0.00098423958565 0)
(0.000474777205005 -0.000961764948437 0)
(0.000421976349966 -0.000951479635645 0)
(0.000353430735187 -0.000918547964633 0)
(0.000134370375746 -0.000593012608364 0)
(1.20867487461e-05 -0.000501752668091 0)
(-8.66952055327e-05 -0.000455501129697 0)
(-0.000169180418348 -0.000408111469982 0)
(-0.000228205461469 -0.00035332045386 0)
(-0.000251901502473 -0.000264168461129 0)
(-0.000265717849903 -0.00017411483947 0)
(-0.000291603257334 -0.000103352820296 0)
(-0.000304723790246 -2.71257995549e-05 0)
(-0.000303251992242 6.10773744561e-05 0)
(-0.000274034288578 0.000143605640223 0)
(-0.00024381231634 0.000216192457768 0)
(-0.000180969869425 0.000269829684464 0)
(-0.000119656228793 0.000349002981275 0)
(-4.19429658757e-05 0.000405939549046 0)
(2.23163060881e-05 0.000326728593417 0)
(9.24216560321e-05 0.000460888387416 0)
(0.000117088386758 0.000450997476969 0)
(7.38388282109e-05 0.000266276884731 0)
(0.000124890910363 0.000311372784337 0)
(0.000236066142492 0.000472674957717 0)
(0.000247491451327 0.000468568038175 0)
(0.000300764857846 0.000455131749848 0)
(0.000268503185383 0.000355842042031 0)
(0.000363254197031 0.000379029049771 0)
(0.000264128111669 0.000198001562071 0)
(0.000324610367695 0.000178859106633 0)
(0.000356744965703 0.000184635871067 0)
(0.000431006724014 0.000252287214772 0)
(0.000549188811738 0.00035499596512 0)
(0.000606582487766 0.000356584217077 0)
(0.000570339611784 0.000295072564946 0)
(0.00063511637428 0.000330746676382 0)
(0.000710502352746 0.000388763643707 0)
(0.000756765288028 0.000407220426086 0)
(0.000798329345464 0.000401820458382 0)
(0.0008246529095 0.000385063728359 0)
(0.000865043621606 0.000371271925236 0)
(0.000881176799949 0.000341853706131 0)
(0.000882835039573 0.000285876850293 0)
(0.000968359249866 0.00027720978339 0)
(0.000893090324059 0.000246620186513 0)
(0.0010534240349 0.000240057592101 0)
(0.000964127920835 0.000205756477247 0)
(0.00111791517945 0.000224038507737 0)
(0.00102424902307 0.000194565967543 0)
(0.00117611070138 0.000225895864412 0)
(0.00123486699641 0.000302070504424 -1.64702551825e-28)
(0.0012998757713 0.000367197647674 1.73820087604e-28)
(0.00133684877581 0.000373486983711 0)
(0.00137289702953 0.000360294336207 0)
(0.0014098949877 0.000345060575792 0)
(0.00144563522818 0.000330151138384 0)
(0.00148226340703 0.000313426723138 0)
(0.00151937946489 0.000292095844256 0)
(0.00155560345126 0.000265453094401 0)
(0.00159039974021 0.000235158705821 0)
(0.0016232372542 0.00020326690682 0)
(0.00165324665539 0.000170722135179 0)
(0.00167989922576 0.000137129375171 0)
(0.00170274079136 0.000100961083826 0)
(0.00172094392038 5.98234245149e-05 0)
(0.00173301895351 1.10880668623e-05 0)
(0.00173717407523 -4.72763559147e-05 0)
(0.00173174999396 -0.000116496868349 0)
(0.00171488695162 -0.000197228423661 0)
(0.00168424824441 -0.000289612109436 0)
(0.00163706002686 -0.000393475192083 0)
(0.00156957399299 -0.000509004632983 0)
(0.00147731149826 -0.000636513770678 0)
(0.00135763301413 -0.000773761169244 0)
(0.00121275320656 -0.000912563043784 0)
(0.00105078450428 -0.00103912774286 0)
(0.000884967424168 -0.00113694282502 0)
(0.000730142389342 -0.0011750187639 0)
(0.000609810599839 -0.00112256272364 0)
(0.00053476828147 -0.00104707719568 0)
(0.000481459572547 -0.00101233987735 0)
(0.000429565813326 -0.00100534877885 0)
(0.000387418267045 -0.000990869252725 0)
(0.000233590214833 -0.000837351828333 0)
(7.66739486754e-06 -0.00059449526137 0)
(-0.000135357847944 -0.000557986047789 0)
(-0.000219143451379 -0.00048416602039 0)
(-0.000266560114357 -0.000387903961289 0)
(-0.000289656710228 -0.000285589400575 0)
(-0.000318039282646 -0.000201186505192 0)
(-0.000346878912462 -0.000123210111608 0)
(-0.000361335008005 -3.19819332446e-05 0)
(-0.000357916359497 7.09689586081e-05 0)
(-0.000337629456629 0.00017054801129 0)
(-0.00030357042086 0.000264344741217 0)
(-0.000237358189257 0.000351723895334 0)
(-0.000148714699808 0.00043657621982 0)
(-4.97763924722e-05 0.000500353452852 0)
(2.88933727803e-05 0.000394633813991 0)
(0.000106426533378 0.000511805087137 0)