/*--------------------------------*- C++ -*----------------------------------*\
| =========                 |                                                 |
| \\      /  F ield         | OpenFOAM: The Open Source CFD Toolbox           |
|  \\    /   O peration     | Version:  v1806                                 |
|   \\  /    A nd           | Web:      www.OpenFOAM.com                      |
|    \\/     M anipulation  |                                                 |
\*---------------------------------------------------------------------------*/
FoamFile
{
    version     2.0;
    format      ascii;
    class       volScalarField;
    location    "124";
    object      alphak;
}
// * * * * * * * * * * * * * * * * * * * * * * * * * * * * * * * * * * * * * //

dimensions      [0 0 -1 0 0 0 0];


internalField   nonuniform List<scalar> 
6400
(
0.824046593216
1.22325888573
1.86321734834
2.1002832475
2.34568677514
2.64162375962
3.20030360648
3.86523323473
3.92731511634
4.16356134858
5.26356115696
5.67059691358
5.95257817475
6.38198233186
7.10477145509
7.83956474325
8.33459089243
8.82576125606
9.29226338487
9.48149646879
9.34782525034
9.20298487145
9.30623242248
9.74767341804
10.2827430892
10.7140812913
10.9434772782
11.1287250544
11.42427945
11.8388587845
12.3225738607
12.5685951769
12.5281143017
12.4036941214
12.1941402884
11.7426154273
11.473926007
11.7492765009
11.4431075676
10.7400387917
10.470204319
10.8373906449
11.2728856879
11.473053828
11.5254613115
11.4578905851
11.3552229467
11.2919251857
11.264065688
11.2621135142
11.0885768344
10.1888749614
9.45415914389
8.67568569486
8.46516202427
9.14913104933
9.24247932775
8.07757240979
6.61199567539
6.22279036689
5.48683294877
4.63832656944
3.78158416453
5.55520200341
9.64061819741
14.5849714877
17.5745345301
17.2734657483
15.2466893624
13.5264453024
12.528761285
12.5742778285
12.9805981258
12.7766342386
14.7269817826
14.1328882604
15.9770380644
9.87170708857
12.8681220452
4.81011621198
3.07027487946
2.36577008378
2.88288803787
4.0643410578
3.66998987255
3.18590318327
3.12664692272
3.34783542666
3.72075181569
4.22592126104
4.89113025685
5.55492774663
6.10976258006
6.63905202834
7.15668168921
7.77424898394
8.42013773993
9.10729601284
10.221844155
10.1746492673
9.73117658687
9.45225916894
9.37205676555
9.71565012839
10.5864477377
10.8482608948
10.9976339903
11.2761108965
11.6197916368
11.9967110127
12.4029594023
12.9078817812
12.8811180868
12.7961673221
12.712471957
11.9547078377
11.8925698591
12.159077495
11.6476191469
10.5216432386
10.1527656433
12.8466928892
14.3141260273
14.3400633163
14.2517278051
13.8365392275
13.2405324129
12.800203078
12.1161083857
11.5861142863
11.6511081015
12.472182837
12.4755027908
8.89915872891
9.03483388598
8.88890693937
7.20362075803
6.18048402098
5.40717768319
4.64108659961
4.08468783851
4.94468140009
3.9290673006
5.70307588419
9.6762165268
15.4892340307
19.2076815364
18.012882988
15.8214052735
13.8313407538
12.9955222968
13.2606324153
14.2162747782
13.5718994731
13.3563235733
12.7892957303
11.5656363281
9.71672610501
8.16787404886
4.25142534683
3.00825206438
2.52745892195
3.00438292031
3.03118489149
3.21049833438
3.47552411169
3.38177448624
3.30765487593
3.65667599618
4.21325943167
4.86286449957
5.5458374212
6.15725959352
6.70430618473
7.09423695576
7.65012184304
11.057955891
13.2522593834
13.4349707612
12.2990023233
9.62950837297
8.83428016243
9.62604122231
10.035230103
10.3175404318
10.7649777722
11.1482582789
11.4357874703
11.7582620503
12.1796321703
12.4999100559
13.2242951463
13.2938242487
12.6211825639
13.5159838789
12.8099275837
11.7124296461
12.7062272336
12.0686389485
10.7947998137
10.3595150718
10.8349455038
11.3757051889
11.6242521135
11.6968730637
11.668696235
11.5701243353
11.4193599795
11.2149324441
10.9789071742
10.7093565152
10.3296824349
9.80151839168
9.61817685964
9.62997661189
8.30844495203
7.08400792887
6.2156631523
5.49470265533
4.87141081753
4.44395129621
3.99484969047
3.76843680178
6.36467931866
11.6001467746
16.3124844812
18.6236640596
18.7294048457
17.1029069678
15.3587068002
14.560030648
14.3547664672
13.6145760427
12.952730771
12.8626942076
12.4684181211
11.4554506235
9.82212771816
7.38229393569
7.56449905316
2.74048055921
5.27668171383
3.05408967643
2.95866333121
3.56968094394
11.6576643279
9.95489819632
4.20691638093
3.68927064655
4.25158779423
4.88591937287
5.56882527457
6.1606497196
6.83416001391
8.97239359448
11.3844855519
13.0352896607
13.0675889439
11.0396687114
9.03505536442
8.94766311141
9.11865669782
9.36560374178
9.84482211797
10.4086892994
10.9447659834
11.3970885516
11.6189620118
12.0539138191
12.2592540916
13.0330157719
13.1164996685
13.9930625901
13.6072906613
12.4094044437
13.1360636044
12.1969572579
11.1078053492
10.860419511
10.741773083
10.7456181143
11.0325295171
11.4000267495
11.637420072
11.7396064727
11.737441994
11.6553961514
11.5125867227
11.3177451528
11.0815508318
10.802392017
10.4656445236
10.078035968
9.68277331159
9.12046944013
8.22029167855
7.19812364486
6.33278913965
5.66383183297
5.16021763329
4.80697996574
4.55534578104
4.73938835884
6.79890677342
10.7377107634
16.5571237917
20.1479820022
20.3392236212
18.6474870793
16.2593526296
14.5804628828
13.6922542028
13.7671375016
15.0826534949
14.9625576759
13.596608131
13.4178079633
16.6874921574
13.0769372268
11.0832495338
5.18756989909
7.24452190826
3.42410176622
3.74936430417
6.04464031215
11.5342708412
7.56380406576
4.23121699193
4.15543764638
4.46876388143
5.04163116127
5.76953146876
7.30512228967
10.1007792639
11.050785625
11.14340961
10.563029979
9.44075989621
8.7341701022
9.10556391649
9.1031444284
9.03887003908
9.40716875139
9.95093819095
10.5711707656
11.1885146498
11.5273729302
12.1129808772
12.1508614809
13.0140794733
12.9401088387
14.6398437214
13.77728852
12.7096625422
13.0513039899
11.7481535931
11.2237457406
10.9955127501
10.9277611746
10.9258836197
10.9845501815
11.1846030965
11.456123264
11.6724313983
11.7891514797
11.8052009395
11.7372218808
11.6051488786
11.4238703651
11.202106313
10.9378854434
10.6264257227
10.2655931541
9.82601723156
9.18833984383
8.29712171171
7.33651841941
6.52913930875
5.94956416997
5.57085070498
5.35807736708
5.35165572449
5.9115484815
7.1805696245
10.459630457
15.9089268665
20.1357336034
21.5258873205
20.3147986402
17.5129027384
14.9844575146
14.5858418962
16.7512894972
17.557985797
16.4650638251
15.4983559352
18.1000565401
21.0861026707
16.3701295184
15.4683322748
9.5476642002
8.64586102131
4.23114699181
5.12539707333
11.78320404
11.1830830128
5.23686976665
4.62767477449
4.67099336791
4.79042269264
5.39737214017
8.54150399881
12.1449456395
12.385016709
11.7156272141
10.0753627075
8.75043607806
8.35874005323
9.26454969627
9.14598471193
8.81307248475
9.05676479315
9.55536901026
10.1935124119
10.6800365677
11.3291458974
12.3263151644
12.1252358808
13.3722141669
12.863723513
15.1266353519
14.0543484876
15.4492126203
13.5191869582
11.672024677
11.0778963439
11.0062825222
11.0309216006
11.0684641244
11.1059602608
11.1860288389
11.348613863
11.5616904483
11.7528426105
11.8692700625
11.8953925366
11.8379217905
11.7183241492
11.5570953518
11.3618250829
11.1269009421
10.8408955097
10.4809827552
9.99392119155
9.30872060644
8.44593305509
7.57175737466
6.84713772802
6.31969424677
6.02650071177
5.95631974017
6.36618460848
7.90134750394
7.17622627272
11.6070360783
17.4489270657
21.2368094196
22.6448035765
21.6740766114
18.2701037692
16.0667685199
17.836708707
19.9889358747
19.4051181911
18.3485963955
18.3573270456
22.8518892932
24.399634735
19.3417097081
19.1211681449
11.5925279105
8.13675793403
5.14912069504
4.91851712892
11.6261940758
7.47409339237
5.01191022418
5.08066116092
5.14382220761
5.85289956321
6.13135146473
12.1658387371
12.571832059
12.4233012364
10.4739355657
8.44893096826
7.98781370898
9.50547299805
9.35153598148
8.62110942465
8.80856656506
9.16036785619
9.6566901139
10.2896025907
11.1957828561
12.1877415405
12.2360110654
13.9638189587
13.1432846852
15.6487611981
14.3756167903
15.8592225802
14.2422325339
13.1514633456
11.1014943512
10.8235175464
10.9937661371
11.1449720848
11.2167419858
11.2735056324
11.3710413557
11.5190049495
11.6996637722
11.8689292349
11.9797694381
12.0089872839
11.9603411556
11.8581108301
11.7251578789
11.5653383313
11.3651848024
11.100756562
10.7333147982
10.2119213118
9.51082945093
8.69255508236
7.89823894501
7.23505281595
6.73119034831
6.41600404686
6.4824606581
7.03420463799
7.39595809935
8.03550162704
12.4465486824
19.6605102171
22.3583380637
22.7895138105
21.695491053
19.4108458443
19.2201505112
21.7949970098
22.1865262731
21.2782333351
20.6159914731
22.4810899767
25.137581466
26.559937603
21.8892911299
20.7051583353
11.1316920876
7.33694767785
6.1576454471
11.5731285278
11.5541649008
5.74195319951
5.52098496295
5.58183365548
5.83719461882
6.35111435622
12.0042036208
12.8442428214
12.6736570006
11.8986047284
8.73518473923
7.62947028781
9.49034571176
9.77770959261
8.70636009442
8.41933415178
8.86313130856
9.4268641677
9.89672282483
10.6318511941
11.2211345103
12.7703617124
12.3891670158
13.8180096039
15.5755581565
15.6090424096
13.7231913545
14.8510973372
14.6683776619
11.554278234
10.9392050697
10.9148243059
11.0850636825
11.2617809646
11.3636880205
11.4392540617
11.5496768247
11.6987523969
11.8639917067
12.015394517
12.1171840711
12.1462498406
12.108011716
12.0295351042
11.932846417
11.815142995
11.6530251718
11.4093297982
11.0358201753
10.4954173097
9.80134400389
9.03391272736
8.29178888357
7.61021175651
6.98227055475
6.5796496006
6.78091600029
7.44771919862
8.26528013738
9.35004943573
10.5596728773
19.3320488511
23.7431011906
23.9115431586
23.3637752838
22.5142891175
23.501920617
24.8943914755
24.1525715271
23.387013059
23.4803661037
25.6643869936
26.2128638779
26.7422336025
23.7538257009
21.5124344634
10.1437314963
6.82181651744
6.80050115872
12.450544392
10.0933136036
5.931263667
6.07271984608
6.23347831849
8.03646564781
6.24554234378
12.7772197958
13.2340242239
12.6343334718
10.2038587864
7.8622023563
7.73695151187
9.64187885418
9.25259978826
8.44847153809
8.44471915205
8.83348717411
9.5822524235
10.2305087253
11.5959811487
12.8769545548
12.5057721989
15.1477667695
13.2507969422
15.989761076
13.9812418523
16.1305091677
13.3697687257
12.1999017348
11.2854621891
11.0349680369
11.0707273311
11.2051757845
11.375457931
11.5079680494
11.613723122
11.7375111084
11.8891672331
12.0490250895
12.1887356901
12.2791381505
12.3071782361
12.2843877357
12.2373331515
12.183359688
12.112988323
11.9923828712
11.7713850162
11.3971062687
10.8506753994
10.1751018195
9.44702852316
8.69722226042
7.85742232846
6.90450910885
6.32797590295
6.8797436013
8.23954663015
9.60593512764
10.7190462001
11.6956831845
15.2592255322
23.6064117856
25.2652482883
25.4968467438
26.4058969619
27.656752635
27.3373091032
26.2563632262
25.9394524161
26.7505808076
27.7449363341
27.4231842487
26.6912160323
25.5377464378
24.0264554996
9.21284941172
6.88728586211
8.02830316234
12.4214750006
7.3073328826
6.95676444919
6.619119055
6.87289870368
10.8520110862
9.28117809117
13.6020396034
13.4034809799
12.5753599924
9.05182961657
7.65624265166
9.76522029645
9.92925057903
8.83626290619
8.36303873196
8.63862432668
8.9471451556
9.63746104304
10.1294375232
11.7858048908
14.4302635637
12.2569655541
14.9989964265
16.0950028369
16.2151093438
16.4471091183
14.3257471712
14.2228222391
11.5208625218
11.1077867541
11.1686040152
11.2328208187
11.3369049284
11.4883590716
11.6434268292
11.7893942788
11.9391743878
12.0976173856
12.2540606277
12.385787454
12.4677173872
12.4945420645
12.4900324501
12.4825067575
12.4791299289
12.4608455342
12.3852242243
12.1903861275
11.8206397905
11.2765334277
10.6210218506
9.90047230972
9.02512120154
7.76625257858
6.20363755972
5.67690861818
7.27986075073
9.48487193539
11.1912917078
12.4716324087
13.5067456836
13.6845814379
15.0200564948
26.9394664532
29.8161718021
31.1984582323
31.2719905343
29.873491361
28.8657019816
28.9651250971
29.8575476157
29.913956386
29.4201377317
28.9104810437
29.0780359152
29.1507189516
8.72471871714
7.44211470689
11.8404723162
12.2828845206
6.85646673641
7.62448594413
7.12073644991
7.97363335425
9.92861769125
13.1400460556
14.2525848504
13.5081645578
12.6163882961
8.64541489974
7.69889194508
10.4043286551
9.87994165802
8.66700442058
8.35788775127
8.79020981876
9.46222124272
9.93915674224
10.3186344179
11.2967928902
14.529518245
15.7133220904
14.0274072933
16.2803408225
13.8422082273
16.5058155608
16.4218029832
13.9979099847
11.3157465797
11.2044719869
11.3393193229
11.4076657015
11.4910021197
11.620583792
11.7756014599
11.9598394438
12.1515643332
12.32514334
12.4806185151
12.6065464304
12.6821886332
12.711758181
12.7300182334
12.7661515103
12.8181486666
12.8568491852
12.830519726
12.6656095735
12.3062258759
11.7715846618
11.1269576939
10.3394748011
9.05421579249
6.84813340123
4.898779105
5.5021344199
8.59444791023
11.4323740681
13.2807270768
14.5407937048
15.3113674985
15.4288974402
15.0788282669
17.056743406
31.3807777633
36.816796047
35.6664525656
33.3001134485
32.3430774437
32.5442724018
32.9482361052
32.8753499722
32.8075618522
33.0022648343
33.3627369667
33.9280826299
8.64435947094
8.11715170826
13.3682467619
12.6319113247
10.2690949198
8.72162276594
7.79527273312
9.55352115199
8.93495683822
14.0578118906
14.7019358321
13.6582683537
12.395872168
8.89577023882
8.48299584839
10.9430924844
9.73662713575
8.61987250569
8.45501217809
8.81990362519
9.68248733787
10.3528913866
12.4733925571
11.4329775557
13.8564306406
16.0861718457
13.5394682232
16.6077803613
17.0266466831
14.8102799838
14.7464105552
12.0713182516
11.6820101963
11.5260163066
11.552577656
11.6163828106
11.6841941929
11.791478646
11.9143560984
12.1045018898
12.3561068057
12.5799652652
12.7383312068
12.8526545473
12.9242448374
12.962608109
13.0081505981
13.0894058866
13.1975675764
13.295075125
13.3183447805
13.1875037997
12.8544860283
12.336692749
11.659693861
10.5545087057
8.1504377588
5.05282851575
4.01073501716
6.50405689536
10.9513682048
14.0818949492
15.9144105569
17.1627415912
17.8472487534
17.7963119166
17.3659991845
16.4782856619
27.3389201684
37.7688490274
40.6717961881
37.9168424926
36.9697871021
37.0250740406
37.1132821456
36.8460735181
37.230132744
37.5913216349
37.1780111664
37.2188031895
8.95724598048
8.63224366619
12.9194078348
12.8641591969
12.7756646421
9.5475687368
8.60818398858
12.7474073954
8.90565538587
14.8942363946
15.0408659661
13.8274423341
12.2040521407
9.22848397038
11.9522003337
12.0631080204
9.715356615
8.71476730591
8.68398991422
8.98326075701
9.64903876776
10.276767001
14.115046622
15.1910119262
12.9764683412
16.1958844467
16.9479962881
15.9582104286
17.0075738743
16.9091032383
15.4256890084
11.972516899
11.8836079323
11.8498610647
11.811173876
11.833618711
11.8666538915
11.9951114468
12.1358944382
12.2768774453
12.5306343087
12.8212480777
13.0254126687
13.1366109389
13.1997605037
13.2505039015
13.3282593571
13.4541349746
13.6132694708
13.7612391175
13.8276936657
13.7407476248
13.4640332781
12.9532803497
12.1030423259
10.1487088561
6.21181339947
3.12116580224
3.9071647317
8.74280439015
14.1729251934
17.4511596415
19.1901621653
20.5425269828
20.9486855152
20.0920257128
19.1303094562
18.3859498319
23.5103899946
34.9045043467
42.0181470688
43.2298437516
41.3728186636
41.5502723371
41.4474860014
41.5191448134
42.0538028517
42.1699171224
41.7320899892
41.6846525919
9.32311820537
9.13998585533
8.90124093004
13.0464806527
13.1014782777
9.98221988349
9.37235374253
13.521068072
9.23103018734
15.7146359963
15.3210955491
14.0024922845
12.1452908943
9.33665952243
13.174047915
12.315748566
9.85277297174
8.96237770515
8.9742073376
9.33148417661
9.73860343185
10.2062791206
14.7775020502
16.129246709
13.1467953181
16.3392363368
17.4567956363
14.7227069989
16.6241531343
16.0902140335
12.6427535701
12.341148569
12.2959932558
12.1903024646
12.0774103271
12.1206267019
12.134650561
12.1545184834
12.3305503149
12.5270403291
12.7524997424
13.0526256261
13.3092809676
13.4506711446
13.5184203413
13.5834001572
13.6926350458
13.8540174034
14.0565830193
14.2456086163
14.3248797625
14.3015900294
14.1317484174
13.627652599
12.3306560799
8.5481692276
3.21633383476
0.503118834226
5.44977055165
12.5652224074
18.4803930329
21.75093001
21.9222324585
20.7100139768
17.6360510548
15.1026499304
13.569396377
12.4956579507
10.3511216084
13.686212285
41.666516869
45.3606125012
46.5761752053
45.581729548
44.8305057049
46.311821135
46.7980680487
46.7721710638
47.5064177072
47.8402657298
9.85003985722
9.88875104857
13.6090309346
13.4889571026
13.3036588903
10.3093685823
10.2804652936
14.0771233394
10.0144748279
16.381545394
15.5579822865
14.1759370364
12.1328269983
9.56718062039
13.3167510452
12.1670846506
10.004008503
9.25052935918
9.25838840253
9.57319430085
9.96454977721
10.3412267039
13.826890537
16.8740762156
17.0021981316
15.271642456
17.601696948
18.1909161411
14.1719485265
13.0200434799
12.4449612514
12.4962303512
12.5089718575
12.4580941532
12.4307307128
12.3890203426
12.395286645
12.4514856314
12.516536524
12.7461211178
13.0242918564
13.3245714102
13.5991165732
13.7770285273
13.8795815181
13.962897719
14.0928562348
14.3103941116
14.5615628959
14.7223906115
14.765811831
14.8364942729
14.8246130262
14.2134911404
11.8022290057
6.05971932833
0
1.59443715373
9.20674457351
17.7838039248
22.7144730387
20.3050726709
13.9941631717
4.40841801159
4.71363182599
6.20160755375
7.58684100914
8.38953283904
8.70257241111
8.04883870323
5.16400764677
30.8342998435
49.7982444064
51.4054112933
48.3407603452
49.7648665145
52.045805459
53.2886695157
55.2157387684
55.4149868033
10.3024851692
10.4743379479
15.0992848989
13.852262567
12.9775457325
10.675564268
11.2079463018
14.4381503736
14.4507841636
17.1475936019
15.8081324425
14.4025820528
12.1368043114
9.95376511345
13.4553834271
11.9803098985
10.1892643831
9.55865361141
9.51599679863
9.76596388199
10.1512720244
10.6810577797
12.9645175845
17.0942285988
18.3938528693
14.3083694278
17.1896494261
17.9825444201
17.1554738367
13.8671581746
12.6384480059
12.6971326688
12.8112442082
12.868571258
12.6698240761
12.6722265247
12.6310607348
12.7079791133
12.786725534
12.9760334756
13.2975662648
13.6372544479
13.9014472543
14.083833815
14.2483875736
14.4608028702
14.6894505427
14.9441419629
15.0893480242
15.1689179723
15.2682274231
15.3795199429
15.6383147846
15.0452277187
10.0415595322
0.158383453362
0.0160100709912
6.14302541357
14.7497801219
19.3874375334
13.5604356602
0.35065900749
0.0247181143669
0
0
0
0
0
0
0
0
3.43786817783e-06
0.00115952176434
0.173439740901
40.2233328457
56.6943091242
57.1072406284
60.3882041025
64.6169303094
63.9349810741
10.6483234133
10.8497652812
17.4109454419
14.0556620033
12.2723211315
11.0195914417
11.8354761454
14.111834515
15.9975521978
18.0280308401
16.1825092335
14.7250092621
12.3386952009
10.6819791459
13.807446711
11.9684160639
10.483590931
9.93689769733
9.81495160969
9.99249301586
10.316210362
10.8230582364
12.5646388419
16.9440316834
19.3248993065
18.3011310058
16.4161363368
17.284896592
16.4462640917
12.9360725242
13.1046075552
13.2388377776
13.4957238008
13.3260730591
13.1498085903
12.9368848393
12.9733738946
12.9553704844
13.0672686912
13.2518040637
13.544346284
13.9323787277
14.3395642991
14.5525958772
14.7658603084
15.0943619041
15.4702956322
15.7733610594
15.913309612
16.0566342029
16.2384736983
16.444290213
16.4574325968
15.809102847
10.4739427009
0
0.190482797027
9.50831112489
10.1988782474
0.108912231404
0
0
0
0
0
0
0
0
0
0
0
0
0
4.42969275446e-05
0.000440186310561
0.00964983767404
0.467907284991
59.5163643219
68.7515067795
64.7205510258
10.8963482687
11.0838822752
19.5950350027
14.1508313319
11.9166862964
11.3609462568
12.6311259297
12.8271213846
16.955964186
18.6400741738
16.5552920671
15.061564578
12.7664263713
12.9209658112
14.286311895
12.2186878542
10.9979430352
10.5502162377
10.2239132668
10.3133005002
10.5415616297
10.9815009158
12.4245760613
16.8092365113
19.6668110196
19.9547267739
15.0739832878
15.3199932045
13.7906146558
13.0325907047
13.2577644973
13.7988740027
13.9898491764
13.7589614161
13.5654343386
13.6524747005
13.3233560863
13.2810133867
13.3406817629
13.4803729409
13.9108073946
14.3529777768
14.7602576194
14.9320108323
15.3345181296
17.5405892939
20.5148762731
21.4464238208
19.5012156565
19.3470999022
19.6916696666
20.3320493147
20.8158618425
20.8219538339
19.8152406603
0.00785901790764
0.192661515565
0.129585596694
0
0
0
0
0
0
0
0
0
0
0
0
0
0
0
0
0
0
0.000684373642817
0.00463446527142
0.854633819962
62.261751559
11.1522892679
11.3133728828
19.2380302305
12.9703309679
11.7627000218
11.635733704
13.5218365994
12.3646961997
17.7318021951
19.2381018664
16.9309451955
15.3895136417
13.0666244021
15.5115478432
14.9997928755
12.6814656752
11.6130257651
11.7016717353
10.8628148794
10.8113095824
10.8784818551
11.1477370646
12.4648580192
16.6595672155
19.4955892847
21.0690233184
19.013403478
17.5073171806
15.9179886793
13.4185382425
13.607733026
14.7256574333
14.1959989404
14.1249888413
14.641252994
14.0979822892
13.8020090808
13.7329899116
13.7846528265
13.9053197018
14.1100393757
14.6430111437
15.3261827259
16.694694572
18.7703086464
21.5735885937
23.5941185999
23.533093098
23.8817161695
25.5889108958
28.0556789119
31.8668502182
33.8525114465
34.7869948762
32.147775446
29.8221700463
0
0
0
0
0
0
0
0
0
0
0
0
0
0
0
0
0
0
0
0
0
0
0.0021058066663
99.9894677629
11.5216838636
11.6748402786
18.6371877604
12.0990698712
11.8469459666
11.8348934587
14.238304141
12.5614944798
18.3297741401
19.8205033641
17.3158144059
15.7456343286
13.3350113119
16.0627574587
15.6382920314
13.2166080585
12.2070216213
12.4794701894
11.6553872915
11.544997602
11.4613272002
11.2990096806
12.6942730883
16.6251530698
19.1765475125
21.4355452816
20.2800219741
17.6118902532
13.9094846912
13.9706695945
14.3516153549
15.4179640187
15.6264326459
15.5971604924
15.444715001
14.5786644699
14.3153872026
14.3053247819
14.3332722782
14.4724942368
14.6550696685
15.2806183148
16.6505349864
19.4115314941
21.1670965587
21.3821079291
22.4950568493
23.5832804881
27.7253961163
32.5396659242
39.5280433463
44.453448833
45.0763903688
45.5162498658
43.1132884033
32.8332151857
0.183838414038
0
0
0
0
0
0
0
0
0
0
0
0
0
0
0
0
0
0
0
0
0
0.000353887892706
0.000468226005434
12.1636358563
12.3222875924
17.9309824512
12.0173556794
12.2904114507
12.1488523299
13.7934855811
13.207926902
18.6569042416
20.3518907986
17.74004123
16.1623036259
13.7621558078
16.5918741809
16.2431336336
13.9069875502
12.9026180278
13.2622812372
12.4031033165
12.436021175
12.4007067738
11.6493459033
13.1590976015
16.7438794316
19.018566432
21.529403351
20.6911249147
17.7823626039
14.0136945053
14.0807190216
15.2594693993
14.9746935539
14.925047636
15.3085097387
16.4274284552
15.550451904
15.2271759829
14.882096067
14.8605225895
15.1425666909
15.4822175457
16.1471400784
19.3359440996
22.2620883973
22.2129731665
22.3340979227
24.0654482695
29.5313463141
36.4967717076
42.649891707
47.4520014657
43.833832607
34.414236999
3.10156253365
0.0194606415745
0.0394451433759
0.00605730211986
0
0
0
0
0
0
0
0
0
0
0
0
0
0
0
0
0
0
0
0
0
2.61568927458e-05
0.000118770764056
13.2069805949
13.2859220671
17.8022205172
12.7542779152
13.4467209602
12.8479525246
13.6392857919
14.6903452159
18.3080792809
20.6543053575
18.239592612
16.6654472819
14.3225611214
17.1953568447
16.8824502366
14.8009695774
13.8444576093
14.2494882514
13.1467051113
13.4521458569
13.7438006943
12.3247586441
13.6200141705
17.0006841233
19.0331764747
21.2770592893
20.8462642023
18.0233787823
16.9750570861
15.0499323739
15.795144641
16.4587801338
17.4131178382
15.7307329112
15.9850508676
16.7634239983
16.0798854776
16.0580398373
15.7848505855
15.8147320174
16.2575527773
19.0769938554
23.5366019801
24.4322303377
23.7406973509
25.4044221108
32.0277015608
40.8680574474
46.8579188353
45.5796184425
36.5345977546
12.800612
0.221247015053
0
0
0
0
0
0
0
0
0
0
0
0
0
0
0
0
0
0
0
0
0
0
0
0
0
0
0
14.760088105
14.4720852341
18.1814520715
14.744889249
15.5617716932
13.978487513
14.3132749381
16.9278793788
18.1543700379
21.0734274412
18.8861910025
17.2726821092
15.002053953
17.8308033042
17.5159363761
15.8151949885
15.4273013958
15.608311494
13.9692553357
14.6196874119
15.4592563649
13.4372455287
13.8578735072
17.3025627824
19.2135342603
20.9886158881
20.9986799917
17.8875141235
18.1617469364
16.815844578
17.1096755683
15.3365285869
16.012051922
17.4667119868
16.8647075345
17.02941627
16.9925261858
16.8663240897
16.9821231643
16.9353451132
18.712353325
24.1067796949
27.0449028349
26.9723936018
27.6336724567
32.7824002022
42.1710223311
47.8976702318
36.9227049576
19.3815359748
16.8156350218
0.24740933449
0
0
0
0
0
0
0
0
0
0
0
0
0
0
0
0
0
0
0
0
0
0
0
0
0
0
0
0
16.4592222177
15.5628751865
18.6642502266
17.5914542569
17.2208768336
15.371011472
15.0831002966
17.9721067767
16.5356823458
21.3373305067
19.669360154
17.9777257064
15.7947500764
18.4832951328
18.1013497231
16.6373035283
17.9215771507
17.2719337449
14.92766161
16.0062897796
16.8379490125
14.9256503958
13.5719433855
17.157017992
19.2906650335
20.7204551298
20.9811938217
17.8324498119
18.3371851817
18.1483734716
18.2007221582
15.9567994492
16.5699300764
16.6934085384
17.8082830794
18.2885650992
18.2000190588
17.9521386879
17.8985872859
18.9638892802
24.0607297307
28.9844376874
30.6884367652
31.2839372214
34.0891738088
40.6720886811
43.3663841585
26.4131124429
21.9664368802
19.9496700598
0.421944454684
0
0
0
0
0
0
0
0
0
0
0
0
0
0
0
0
0
0
0
0
0
0
0
0
0
0
0
0
0
17.1462697603
16.3191789095
18.9058789673
18.4702530578
18.1194335622
16.737805948
16.1384616676
19.2954884565
17.4027995813
21.7324486371
20.455706008
18.7368350674
16.6909406454
19.1728794627
18.7199152346
17.3382453172
18.7702853923
18.2158565881
15.8927074413
17.4335809819
17.3924432226
15.4367915551
14.7498840307
14.9266353871
18.7473447897
20.1200239246
20.6729969007
17.7397436895
18.2787575793
18.5201248749
18.9990359676
18.2966276683
16.0999926862
16.4674608075
17.9003723862
19.1071570703
19.523605081
19.6770659327
19.6401300926
23.8289578034
29.7891448875
33.3995541661
34.5571410014
35.8303234787
39.334528008
37.5998636563
21.5468424496
24.0831070309
22.6463327788
1.12792027554
0
0
0
0
0
0
0
0
0
0
0
0
0
0
0
0
0
0
0
0
0
0
0
0
0
0
0
0
0
0
16.9993770448
16.8389325739
19.0635595617
18.5077321417
18.7006307719
17.8190643613
17.0767315714
20.584794362
19.1174172222
22.2693196485
21.2948582153
19.5311121395
17.680069077
19.9124378071
19.4172323715
18.2101892976
19.4367893689
19.0442284433
16.9714896409
18.344394563
16.2855121441
16.0026901397
15.6826436255
16.1434936027
17.1271468269
17.8882635858
19.7245506981
17.6237240607
17.4295643602
18.3787997302
19.3141193265
19.6110666944
17.7963656053
17.1395513865
17.6244848509
18.7491642315
20.1535723733
21.4511134578
23.2428686419
29.3684264275
34.5357700279
37.0680013493
37.3672027884
37.4663284068
32.0508052529
23.4052569918
24.1926322881
23.3357911601
3.08156226856
0
0
0
0
0
0
0
0
0
0
0
0
0
0
0
0
0
0
0
0
0
0
0
0
0
0
0
0
0
0
0
17.1275603071
17.2196461585
19.2517306921
16.9845301027
18.8885692715
18.3682193994
17.7015988379
21.023804006
19.8067322884
22.8638368125
22.2023158789
20.3424617472
18.7778866045
20.6896355832
20.1651380771
19.2292029863
20.1295520667
19.9865499366
18.166119809
19.6363027959
17.5641290859
17.8385145304
16.8831217354
17.3415115297
19.2478784878
19.8375769362
19.2996058518
17.4798565944
16.6334928739
18.2851160603
19.284156409
19.7288194095
19.608228674
18.1736635109
19.6349061941
19.5344597934
20.7271971434
23.2628631153
27.7460317009
34.2781993797
38.3750745699
39.5480347057
37.0151339831
28.8018460353
25.9732908834
26.1765496978
27.031096476
19.2807736198
0
0
0
0
0
0
0
0
0
0
0
0
0
0
0
0
0
0
0
0
0
0
0
0
0
0
0
0
0
0
0
0
17.7840660195
17.8610862553
19.392302508
17.3142664223
19.0224882274
18.6028099849
18.1413318645
21.0294300398
20.3128712563
23.2774237464
23.1330516614
21.1251468452
19.9861414542
21.4671206422
20.8956992783
20.2322165209
20.7764912677
21.0316833311
19.4193724234
20.904815395
19.3457205078
20.100985838
19.7265170138
17.9676314901
19.6666394879
20.8000435197
20.9184911073
17.3687697449
15.6887471859
18.1738294935
19.3899105027
18.836725248
18.8261408483
18.3947483844
19.4686437076
19.8689437859
21.4780336493
25.2254891208
32.1345095078
38.7975109921
41.6289723956
40.1833092979
29.8988685671
26.7737730679
27.6373963923
27.3742844481
25.7557666007
0.742565818178
0
0
0
0
0
0
0
0
0
0
0
0
0
0
0
0
0
0
0
0
0
0
0
0
0
0
0
0
0
0
0
0
18.6290900071
20.1031929908
19.6425964579
18.3175626931
19.4691484444
18.8923221934
18.5686644484
21.0187055284
20.8014256417
23.2986830878
24.0786725759
21.8550172179
21.0612650886
22.0441124077
21.6165799523
20.9435013062
20.7070921234
22.0044363896
20.8109109691
21.9979612203
21.4924758653
21.2749276844
20.9772712141
20.5129266655
19.4270356419
20.3850447213
21.8351418842
16.260255198
15.1446483311
17.1922354162
19.3527413277
19.6374049743
20.1578018751
18.3491813815
19.1457714414
20.1181398637
21.8484503366
27.0299824217
36.2078217185
42.900497912
44.3328964031
35.8440298742
28.7336116906
30.076167329
29.7506576053
26.7685895749
3.16789436517
0
0
0
0
0
0
0
0
0
0
0
0
0
0
0
0
0
0
0
0
0
0
0
0
0
0
0
0
0
0
0
0
0
19.2425556519
20.7465438229
20.2607051586
19.2078595575
20.1187538087
19.4065628676
19.0728108921
21.1087019212
21.3014364605
23.0203149635
24.9415742033
22.6176258669
21.6479930819
22.5118707307
22.4750062789
21.5890351453
20.6422746707
22.6776606494
22.349491825
22.9383831009
22.7494751109
22.8040788586
20.8950086647
20.8957068024
20.319963287
22.2298300836
23.1380764964
19.1573190619
14.6809107228
15.9754976608
18.7131486124
19.9834496551
19.97470809
18.9783074271
18.609534388
20.2474478596
21.7965879653
28.4521185524
39.8814252469
46.9675607349
43.7080134072
29.6849437758
30.6164119267
32.6234490461
31.625213036
21.7265429342
0.122989762755
0
0
0
0
0
0
0
0
0
0
0
0
0
0
0
0
0
0
0
0
0
0
0
0
0
0
0
0
0
0
0
0
0
19.7116662458
21.0632439867
20.8249256723
19.8017659576
20.781155126
20.1087798114
19.6701290363
21.3916732211
21.8803933401
22.3204259976
25.5130442996
23.4950923557
22.0627891852
22.2527387813
23.4011054478
22.4271995052
21.1103937551
23.2385368118