/*--------------------------------*- C++ -*----------------------------------*\
| =========                 |                                                 |
| \\      /  F ield         | OpenFOAM: The Open Source CFD Toolbox           |
|  \\    /   O peration     | Version:  v1806                                 |
|   \\  /    A nd           | Web:      www.OpenFOAM.com                      |
|    \\/     M anipulation  |                                                 |
\*---------------------------------------------------------------------------*/
FoamFile
{
    version     2.0;
    format      ascii;
    class       volVectorField;
    location    "666";
    object      U;
}
// * * * * * * * * * * * * * * * * * * * * * * * * * * * * * * * * * * * * * //

dimensions      [0 1 -1 0 0 0 0];


internalField   nonuniform List<vector> 
6400
(
(-0.000112798871905 -0.000147947379021 0)
(-0.000299246662444 -0.000108150344594 0)
(-0.000433935950957 -8.43812412935e-05 0)
(-0.000576897550766 -7.25538118581e-05 0)
(-0.000681582568986 -4.59877472932e-05 0)
(-0.000757636665955 -2.60368083035e-05 0)
(-0.000800648840123 -1.84084414885e-05 0)
(-0.000836408459818 -2.80345869371e-05 0)
(-0.000923333961082 -3.88904097641e-05 0)
(-0.00100836135672 -3.63959748064e-05 0)
(-0.00104905880585 -3.24794757929e-05 0)
(-0.00112519075422 -3.36757515814e-05 0)
(-0.00119353039011 -2.98829314495e-05 0)
(-0.00124833967993 -2.39689459537e-05 0)
(-0.00128929116369 -2.12948646974e-05 0)
(-0.00133151467772 -2.37825564271e-05 0)
(-0.00138266957205 -2.4325178453e-05 0)
(-0.00142668753933 -2.09038228555e-05 0)
(-0.00145950589658 -1.63534971394e-05 0)
(-0.00149063884516 -1.44616261292e-05 0)
(-0.00153023989435 -1.91234658538e-05 0)
(-0.00157750296087 -2.39378708633e-05 0)
(-0.00162623761034 -2.44377424048e-05 0)
(-0.00166976675781 -2.30723675338e-05 0)
(-0.00170994007787 -2.07643461256e-05 0)
(-0.00174798571858 -1.82257029682e-05 0)
(-0.0017851524667 -1.6858080022e-05 0)
(-0.00181866997956 -1.51444035811e-05 0)
(-0.00184667528607 -1.29132512738e-05 0)
(-0.00186983766669 -1.1160664227e-05 0)
(-0.00188863568959 -1.05836823176e-05 0)
(-0.00190775046418 -9.58783649252e-06 0)
(-0.00192685202612 -7.88371004956e-06 0)
(-0.0019425227546 -7.63880108098e-06 0)
(-0.00195713552734 -7.41849246937e-06 0)
(-0.00197575414619 -6.99608993969e-06 0)
(-0.00199080499792 -7.10403993283e-06 0)
(-0.00199583577812 -6.22586133774e-06 0)
(-0.00200826925137 -4.42105846348e-06 0)
(-0.00202465629088 -3.16054851915e-06 0)
(-0.00203275992748 -4.07913979456e-06 0)
(-0.00203101325947 -3.17414445808e-06 0)
(-0.00202671150106 1.60283969772e-06 0)
(-0.00202084026354 5.09666570037e-06 0)
(-0.00201051334349 6.90576575248e-06 0)
(-0.00199619187648 8.95269431326e-06 0)
(-0.00197741237351 1.1196048418e-05 0)
(-0.0019532009592 1.39887805127e-05 0)
(-0.00192352899202 1.67673460088e-05 0)
(-0.00188816349794 1.77377497694e-05 0)
(-0.00184968061876 1.68673624219e-05 0)
(-0.00181323184564 1.93139657489e-05 0)
(-0.00176658105141 2.82728845524e-05 0)
(-0.00171226658331 3.42685376465e-05 0)
(-0.00164099477223 3.9744545172e-05 0)
(-0.00154437079861 4.7729748085e-05 0)
(-0.00144223728696 4.89841040458e-05 0)
(-0.00135106352685 4.90138488702e-05 0)
(-0.00125543499104 5.65798793068e-05 0)
(-0.00112350380136 6.34641749282e-05 0)
(-0.000987622665935 6.62948687382e-05 0)
(-0.000836970946973 8.28987326687e-05 0)
(-0.000695874284614 0.000120122869808 0)
(-0.000418957562074 0.000123501452128 0)
(-0.000173015034593 8.2279877299e-05 0)
(-4.6964440399e-05 5.62211695328e-05 0)
(3.9711833243e-05 4.45826047172e-05 0)
(0.000115879013789 3.79968189013e-05 0)
(0.000189364862034 3.33575413059e-05 0)
(0.000252096829848 2.7045873367e-05 0)
(0.000301413707872 1.8544672109e-05 0)
(0.000323796761443 7.90949128658e-06 0)
(0.000320791059144 -3.64895385983e-06 0)
(0.000317595794365 -1.62681454147e-05 0)
(0.000258154684169 -1.90713556395e-05 0)
(0.00023961160149 -2.10015591392e-05 0)
(0.000164839369955 -1.45099574289e-05 0)
(0.000175712443735 -2.33037591204e-05 0)
(7.6889792055e-05 -1.78856626042e-05 0)
(5.76827214126e-05 -3.42825029306e-05 0)
(-4.30954372621e-05 -0.000210218204869 0)
(-0.000182306170156 -0.000232128835238 0)
(-0.000316243038902 -0.000205935383548 0)
(-0.000403884057963 -0.000164771536634 0)
(-0.000575700796284 -0.00015910454152 0)
(-0.000725045807375 -0.000112122813612 0)
(-0.000811972336508 -7.28973819315e-05 0)
(-0.000872736065837 -9.02778985578e-05 0)
(-0.000937205389317 -0.000112823320851 0)
(-0.00100828947874 -0.000109415481578 0)
(-0.00107510113725 -0.000100989061311 0)
(-0.00113609293286 -9.62855745786e-05 0)
(-0.00119251293992 -8.48952411084e-05 0)
(-0.00124264702246 -7.13791132953e-05 0)
(-0.00129087201019 -6.51890406315e-05 0)
(-0.00133664248115 -7.48801255688e-05 0)
(-0.00138306343983 -7.79272029897e-05 0)
(-0.00142171436556 -5.78016678396e-05 0)
(-0.00142896846892 -4.28825409044e-05 0)
(-0.00146759737814 -4.43259446126e-05 0)
(-0.00151806009272 -5.95750476142e-05 0)
(-0.00157133444695 -7.62375086539e-05 0)
(-0.00162763006489 -7.70486964783e-05 0)
(-0.00167465938313 -6.76890977469e-05 0)
(-0.00170543714159 -6.04495782557e-05 0)
(-0.0017481348086 -5.62748008904e-05 0)
(-0.00178744690125 -5.11430680918e-05 0)
(-0.00181890227541 -4.47900328242e-05 0)
(-0.00184591290961 -3.86600735371e-05 0)
(-0.00186999993933 -3.37765482449e-05 0)
(-0.00189045887509 -3.10471896303e-05 0)
(-0.00190423739479 -2.7683806026e-05 0)
(-0.00192321198138 -2.24526721261e-05 0)
(-0.00193796228969 -2.24966949364e-05 0)
(-0.00195038115606 -2.39796742841e-05 0)
(-0.00197508360443 -2.106417681e-05 0)
(-0.00198702890041 -2.05729908047e-05 0)
(-0.00199222359328 -2.04785312371e-05 0)
(-0.00200873102218 -1.67293798738e-05 0)
(-0.00203260962645 -1.06933305814e-05 0)
(-0.00204213840452 -2.40826891625e-06 0)
(-0.00200732122825 5.09065443771e-06 0)
(-0.00198626898442 9.71733158443e-06 0)
(-0.00198458848618 1.31637615421e-05 0)
(-0.00197713580242 1.70992629446e-05 0)
(-0.00196854727184 2.229889389e-05 0)
(-0.001957084135 2.89985126017e-05 0)
(-0.00193798813561 3.68268841378e-05 0)
(-0.00191725730818 4.5350078108e-05 0)
(-0.00188919211054 5.34704921278e-05 0)
(-0.00184685251032 5.99856672101e-05 0)
(-0.00178387168457 6.61312103597e-05 0)
(-0.0017250816333 7.4842818498e-05 0)
(-0.00171186599766 9.24429967962e-05 0)
(-0.00163341603164 0.000115126889142 0)
(-0.00154798471929 0.000132834946986 0)
(-0.00147775672569 0.000141837629374 0)
(-0.00138547002041 0.000151104766924 0)
(-0.0012764109186 0.000171059173331 0)
(-0.00115768314541 0.000196376164058 0)
(-0.00102224057702 0.000224747471631 0)
(-0.000813506417237 0.000255955532282 0)
(-0.000671469724662 0.00035300519263 0)
(-0.000410280977756 0.000371549555158 0)
(-0.000182521437789 0.000269778355581 0)
(-4.46833328988e-05 0.000169913912148 0)
(4.42809606643e-05 0.000125921219608 0)
(0.00012670110173 0.000114914419202 0)
(0.000201281184575 0.000102616304272 0)
(0.000267880316678 8.40787827186e-05 0)
(0.000312145275007 5.39139934849e-05 0)
(0.000329419401315 1.80504513113e-05 0)
(0.000315951327506 -1.05266368477e-05 0)
(0.000319147275396 -3.55425383953e-05 0)
(0.000295114999677 -5.2048892665e-05 0)
(0.000264095545271 -6.07635207788e-05 0)
(0.000223678724346 -5.98684013232e-05 0)
(0.000181373910163 -7.09496017641e-05 0)
(0.00011361728558 -8.13433926391e-05 0)
(5.31380643771e-05 -0.000136953428713 0)
(-6.28140706843e-05 -0.000362581318296 0)
(-0.000174583512086 -0.0003880160215 0)
(-0.000270760859703 -0.000354974930887 -8.7524923477e-29)
(-0.000448318469576 -0.000350400940064 8.04243538395e-29)
(-0.000609903062723 -0.000338245937116 7.02016743414e-29)
(-0.000715142261183 -0.000270026018873 -6.37740244668e-29)
(-0.000791536217595 -0.00014801665893 6.3719000431e-29)
(-0.000855079079156 -0.000153422874774 -6.13886415343e-29)
(-0.000921938099041 -0.000183988888046 0)
(-0.000997244761476 -0.000184627091491 0)
(-0.00107016050229 -0.000171095859034 0)
(-0.0011341651671 -0.000154561963785 0)
(-0.00119071477503 -0.000135634952444 0)
(-0.00123964585681 -0.000121290229649 0)
(-0.00128916737803 -0.00011315127083 0)
(-0.00133558559917 -0.000101611591467 0)
(-0.00126528587522 -7.94110719764e-05 0)
(-0.001246186631 -6.5602535519e-05 0)
(-0.00129027262011 -7.60944633759e-05 0)
(-0.00137185492117 -0.000108056183031 0)
(-0.00151270932149 -0.000136431773585 0)
(-0.00158663132957 -0.000138704725548 0)
(-0.00161919790545 -0.000126267648386 0)
(-0.00166618339987 -0.000112345646744 0)
(-0.00171334260336 -0.000102152263655 0)
(-0.00175080784795 -9.42371303986e-05 0)
(-0.0017848806384 -8.42627830252e-05 0)
(-0.0018167597198 -7.37642620228e-05 0)
(-0.00184446278675 -6.43172960222e-05 0)
(-0.00186761194319 -5.67105344891e-05 -1.13319797529e-28)
(-0.00189020996723 -5.01036027219e-05 1.09542448969e-28)
(-0.00189932048418 -4.42052915527e-05 0)
(-0.00191650489177 -3.7785365685e-05 0)
(-0.00194286624182 -3.35068315565e-05 0)
(-0.00193548946815 -3.82720758945e-05 0)
(-0.00196104847793 -3.99857794774e-05 0)
(-0.00199248300316 -3.4401502954e-05 0)
(-0.0019855421577 -3.35224376321e-05 0)
(-0.00200430583484 -3.34183953214e-05 0)
(-0.00203049316519 -2.24853335194e-05 0)
(-0.00204127246456 -1.12003865186e-06 0)
(-0.00203776942741 1.5065785139e-05 0)
(-0.00203121984287 1.91776438822e-05 0)
(-0.00202432568122 2.18010939212e-05 0)
(-0.00201383150425 2.78026332791e-05 0)
(-0.00199912683157 3.6147150311e-05 0)
(-0.00198033746376 4.69112358e-05 0)
(-0.00195726913025 5.91327892345e-05 0)
(-0.00192990273478 7.27900115206e-05 0)
(-0.00189763692349 8.86660321206e-05 0)
(-0.00185965042652 0.000105163694256 0)
(-0.00181568378622 0.000118090803843 0)
(-0.00176585830798 0.000128220977264 0)
(-0.00170146746955 0.000151751383723 0)
(-0.00162325345265 0.000183508617042 0)
(-0.0015560365525 0.000207875064418 0)
(-0.00147663914066 0.000228930237942 0)
(-0.00137824106545 0.000254862238129 0)
(-0.0012646507433 0.000288144840748 0)
(-0.00113610036438 0.000330724685986 0)
(-0.000983627863112 0.000388217820679 0)
(-0.000814044330481 0.00047135698232 0)
(-0.000628269128229 0.000594500954912 0)
(-0.000381822668171 0.000574274594527 0)
(-0.000164976987879 0.000399035402593 0)
(-3.34785048256e-05 0.000285619487602 0)
(6.71377471505e-05 0.000229802168242 0)
(0.000150039856601 0.000194830916625 0)
(0.000219976644665 0.000166115585032 0)
(0.000277751163585 0.000129699167037 0)
(0.000317129853857 8.16930009208e-05 0)
(0.000340268494247 3.25382145342e-05 0)
(0.000360807842499 -8.39866880392e-06 0)
(0.000359126229141 -5.16683295078e-05 0)
(0.000323326593164 -8.84369742434e-05 0)
(0.000275337844876 -0.000104511391138 0)
(0.000224434583391 -0.000109041423266 0)
(0.000176418348009 -0.000133981608469 0)
(0.000123334901052 -0.000188940665147 0)
(3.23140905342e-05 -0.00019296058202 0)
(-6.24100701566e-05 -0.000532719680189 0)
(-8.7866080633e-05 -0.000371250341859 0)
(-0.000221434651098 -0.00053033986252 0)
(-0.000385894493373 -0.000518926574208 0)
(-0.000534611718945 -0.000439786300943 0)
(-0.000332122181805 -0.000182783162727 0)
(-0.000421347018279 -0.000182419740403 0)
(-0.000743051134915 -0.000302394253667 0)
(-0.000877102813126 -0.000303335573563 0)
(-0.000972522195052 -0.000273190822555 0)
(-0.00105803832756 -0.000247806986035 0)
(-0.00112980984222 -0.000219368884377 0)
(-0.00119045363939 -0.000190324266844 0)
(-0.00123339603122 -0.000153404799437 0)
(-0.0012001215479 -0.000108593967425 0)
(-0.00116315304539 -7.92670838161e-05 0)
(-0.00117196595912 -7.8000823989e-05 0)
(-0.00123937145448 -0.000113896184056 0)
(-0.00137206804418 -0.000168914968843 0)
(-0.00148592593213 -0.000212477018969 0)
(-0.00153112091948 -0.000214073731765 0)
(-0.00157804510702 -0.000193050029467 0)
(-0.00162774573422 -0.000173716340093 0)
(-0.00167161154122 -0.000158359397115 0)
(-0.00171126619529 -0.000143581838256 0)
(-0.00174737762902 -0.000129541403232 0)
(-0.00178054838525 -0.000116360225578 0)
(-0.00181471406458 -0.000103077358883 0)
(-0.00184026953875 -9.02101269527e-05 0)
(-0.00186828649079 -7.90541324432e-05 0)
(-0.00188117379116 -6.9294828938e-05 0)
(-0.00190440555753 -5.93946854877e-05 0)
(-0.00190369802525 -4.92346994751e-05 0)
(-0.00192473511644 -4.78443782141e-05 0)
(-0.00195881343721 -5.34665297131e-05 0)
(-0.00195615339528 -5.85994301939e-05 0)
(-0.00198618181515 -5.60909222262e-05 0)
(-0.00201496349944 -5.13455187933e-05 0)
(-0.00202621472509 -4.67824368337e-05 0)
(-0.00203417883007 -3.13247644354e-05 0)
(-0.00203957983696 -7.28014638225e-06 0)
(-0.00203938433524 1.27402474199e-05 0)
(-0.00203530595999 2.37092071132e-05 0)
(-0.00202840349498 3.16027411327e-05 0)
(-0.00201761073906 4.1312625018e-05 0)
(-0.00200268785818 5.35746509037e-05 9.73674953185e-29)
(-0.00198368721597 6.81668172394e-05 -9.79160514937e-29)
(-0.00196045458566 8.46417947403e-05 0)
(-0.00193280855365 0.000102984901681 0)
(-0.00190028164305 0.000123157086637 0)
(-0.00186208053434 0.000143947667335 0)
(-0.00181708374956 0.00016446479895 0)
(-0.00176405605534 0.000188264407515 0)
(-0.00170123056947 0.000220095538533 0)
(-0.00163082664593 0.000253814624294 0)
(-0.00155500989224 0.00028621887197 0)
(-0.00146804797459 0.000322603443475 0)
(-0.00136439875076 0.000365363936433 1.87078740839e-28)
(-0.00124249907249 0.000417145622929 -2.17264220045e-28)
(-0.0010998214017 0.000482616078278 0)
(-0.000932180138728 0.000566877561011 0)
(-0.00074456982677 0.000674284565852 0)
(-0.000555531086952 0.000770185357551 0)
(-0.000375398324718 0.000761221561093 0)
(-0.00017907582114 0.000611121928035 0)
(-1.21981039844e-05 0.000408141058861 0)
(9.29508535299e-05 0.000314272102097 0)
(0.000180412475167 0.000269570472003 0)
(0.000254268003913 0.000229596638635 0)
(0.000321479791284 0.000183935253413 0)
(0.000375772150151 0.00012467969116 0)
(0.000410984131997 5.80978245318e-05 0)
(0.000408608788731 -1.63208084859e-05 0)
(0.00035410592623 -8.43901991376e-05 0)
(0.000306233326732 -0.000131267183929 0)
(0.00025748420868 -0.000161838861931 0)
(0.00019462711637 -0.000172124415155 0)
(0.000115427924326 -0.000159405512453 0)
(8.40760729441e-05 -0.000217768572697 0)
(2.83916306381e-05 -0.000258034857016 0)
(-1.01063467202e-05 -0.000543745457095 0)
(-4.87722738359e-05 -0.000451261322347 0)
(-0.000197694965934 -0.000686573789904 0)
(-0.000331584371158 -0.000633601623839 0)
(-0.000377178833011 -0.00043324352571 0)
(-0.000309770950398 -0.000246932796427 0)
(-0.000513833719987 -0.000384286959247 0)
(-0.000732576110087 -0.000494319988892 0)
(-0.00082835086776 -0.000432994376967 0)
(-0.000938257506508 -0.000374824890465 0)
(-0.00103290460502 -0.00033903312639 0)
(-0.00111341261772 -0.000294227597015 0)
(-0.00113871939022 -0.000214362619743 0)
(-0.00107945953348 -0.000131787179038 0)
(-0.00110376538378 -0.000101658497171 0)
(-0.00116520333259 -0.000113692762761 0)
(-0.00126174397958 -0.000159531432793 0)
(-0.00137108680974 -0.000221708209308 0)
(-0.00144626641977 -0.000261458808442 0)
(-0.00147795647593 -0.000264205231982 0)
(-0.00152564121785 -0.000257200419588 0)
(-0.00158010590603 -0.00024362525784 0)
(-0.00162632863636 -0.000222770115138 0)
(-0.00166932403922 -0.000201130486045 0)
(-0.00170807352456 -0.000181654548848 0)
(-0.00174262656237 -0.000165034628368 0)
(-0.00177962448044 -0.00014883446788 0)
(-0.00180585311754 -0.000132366454508 0)
(-0.00184141068514 -0.000116132091545 0)
(-0.0018546329785 -0.000100217951664 0)
(-0.00188645910019 -8.67265949578e-05 -1.08866756263e-28)
(-0.00187337966024 -7.39708988238e-05 1.03809342829e-28)
(-0.00191108992424 -6.79132107398e-05 0)
(-0.00194461205753 -6.62907231518e-05 0)
(-0.00194831357354 -7.22189150126e-05 0)
(-0.00198418620412 -8.06970612074e-05 0)
(-0.00200519932861 -8.09693214537e-05 0)
(-0.00202013278636 -6.99764956407e-05 0)
(-0.00203026172257 -5.46603676004e-05 0)
(-0.00203724144997 -3.49101121461e-05 0)
(-0.0020420155658 -1.08111389849e-05 0)
(-0.00204311832236 1.12671598591e-05 0)
(-0.00204024363156 2.74310633591e-05 0)
(-0.00203355305958 4.06283178378e-05 0)
(-0.00202272191152 5.46575617854e-05 0)
(-0.00200773572041 7.08969336544e-05 0)
(-0.00198861762003 8.94719124331e-05 0)
(-0.00196520640432 0.000110209678185 0)
(-0.00193721027445 0.000133134176141 0)
(-0.00190412467941 0.000158230052562 0)
(-0.00186513029382 0.000185092643094 0)
(-0.00181903164275 0.000213955387982 0)
(-0.00176458192912 0.000246926537215 0)
(-0.00170103981449 0.000285329285761 0)
(-0.00162934103626 0.000326788692122 0)
(-0.00154902005414 0.000371686812589 0)
(-0.00145508097838 0.00042387741351 0)
(-0.00134211909631 0.000486165185992 0)
(-0.00120667584221 0.000561517727709 0)
(-0.00104635349431 0.000653272973276 0)
(-0.000863001017485 0.000759956541296 0)
(-0.000672432327455 0.000865626957232 0)
(-0.000498562688744 0.000926658440397 0)
(-0.00034470454419 0.00093418933686 0)
(-0.000160350887392 0.000808653218036 0)
(6.41672565344e-06 0.000572086534996 0)
(0.000126266279812 0.000432892722975 0)
(0.000223530845931 0.0003568274612 0)
(0.000303462785864 0.000299203225065 0)
(0.000378472952401 0.000243743445485 0)
(0.000449515312258 0.000171961922633 0)
(0.000471120866456 6.13826905001e-05 0)
(0.000413151367346 -5.47124632447e-05 0)
(0.000362165027839 -0.000136242092506 0)
(0.000308852419625 -0.000193748727075 0)
(0.000245067158918 -0.000232356001293 0)
(0.000168071512069 -0.000225917133868 0)
(0.000107909875841 -0.000215316967223 0)
(7.05348191442e-05 -0.000281701531516 0)
(1.89914415241e-05 -0.00029742755097 0)
(-1.41543781655e-06 -0.000513839378425 0)
(-5.66327680011e-05 -0.000546667263306 0)
(-0.000197122207835 -0.000786443527614 0)
(-0.000283182137687 -0.000671314371271 0)
(-0.000227961925652 -0.000351379313389 0)
(-0.000313307821722 -0.000355877609587 0)
(-0.000609767748579 -0.000601709343099 0)
(-0.000700490122103 -0.000604004557057 0)
(-0.000792572223116 -0.000540415394418 0)
(-0.000897422697858 -0.000482401516707 0)
(-0.000996770869278 -0.000414534676845 0)
(-0.000967322753894 -0.000296596184085 0)
(-0.000906829119548 -0.000180877096644 0)
(-0.000972489379221 -0.000151557475638 0)
(-0.00105393487345 -0.000169180749361 0)
(-0.00118892482489 -0.000221166767547 0)
(-0.00131344499386 -0.000273425790835 0)
(-0.00139332190592 -0.000297686250424 0)
(-0.00141598230895 -0.000297106950463 0)
(-0.00147043252073 -0.000306630051728 0)
(-0.00153067458305 -0.0003097637977 0)
(-0.00157786153922 -0.000293210697591 0)
(-0.00162211306511 -0.000268726032058 0)
(-0.00166331199201 -0.00024395671733 0)
(-0.0017066187638 -0.000221008916919 0)
(-0.00174132939569 -0.000198151245691 0)
(-0.00176180253741 -0.000179957686406 0)
(-0.00180932790795 -0.000162695999413 0)
(-0.00181662127632 -0.000140052793097 0)
(-0.00186322607567 -0.000118808734293 0)
(-0.00183895132374 -9.86737994321e-05 0)
(-0.00189008155548 -9.40008413848e-05 0)
(-0.00187466035501 -9.03084301929e-05 0)
(-0.00193016727105 -9.37126918251e-05 0)
(-0.00197681071764 -0.000101775059338 0)
(-0.0019985402034 -0.000106543292036 0)
(-0.00201309633832 -9.79478171483e-05 0)
(-0.00202513641971 -8.18481022699e-05 0)
(-0.0020345598011 -6.23625519433e-05 0)
(-0.00204166132974 -3.97347664735e-05 0)
(-0.00204644306475 -1.44407407258e-05 0)
(-0.00204809194059 9.9331020157e-06 0)
(-0.00204590944025 3.06827746537e-05 0)
(-0.00203955245799 4.90802440694e-05 0)
(-0.00202889558123 6.77567711618e-05 0)
(-0.00201397521559 8.82219803105e-05 0)
(-0.00199481524592 0.000110955305149 0)
(-0.00197119899864 0.000136077382869 0)
(-0.00194272428893 0.000163762168337 0)
(-0.00190883748106 0.000194197599566 0)
(-0.00186872841483 0.00022754636047 0)
(-0.00182128282778 0.000264424071324 0)
(-0.00176539093322 0.000306030874681 0)
(-0.00170035007213 0.000352871818075 0)
(-0.00162569082161 0.000404865123837 0)
(-0.00153909072801 0.000464421358931 0)
(-0.00143539208382 0.000535591533951 0)
(-0.00130946971516 0.00062124843757 0)
(-0.00115875543553 0.000722554373755 0)
(-0.000984439672426 0.000835931202027 0)
(-0.000797344017204 0.000948652823481 0)
(-0.000616663872052 0.00103149674122 0)
(-0.000438814056063 0.0010449810615 0)
(-0.000306090063617 0.00111934192692 0)
(-0.000118850716926 0.000955847786528 0)
(3.37762844738e-05 0.000701476786281 0)
(0.000159364590629 0.000547730693473 0)
(0.000274919475874 0.000451846481311 0)
(0.000370844251581 0.000378459022664 0)
(0.000470517813189 0.000318847367698 0)
(0.000542638346148 0.000206515389613 0)
(0.000504256132512 3.21047986038e-05 0)
(0.000442428556357 -0.000104838675262 0)
(0.000392296488904 -0.000200741956242 0)
(0.000317014491212 -0.000269566249254 0)
(0.000241631980663 -0.000309156851704 0)
(0.000156403955222 -0.000278363190502 0)
(0.000100666805456 -0.000266724286439 0)
(6.22454247935e-05 -0.000328829113164 0)
(1.79225921434e-05 -0.000332434798167 0)
(-2.01101692439e-05 -0.000559856835062 0)
(-0.000116574324487 -0.000702352673506 0)
(-0.000248113985294 -0.000860596657282 0)
(-0.000292747919386 -0.000808071219906 0)
(-0.000219342125299 -0.000445103528382 0)
(-0.000432720409866 -0.000609215193784 0)
(-0.000613471743652 -0.000728882723577 0)
(-0.000675221573403 -0.000687784626999 0)
(-0.000763739581701 -0.00062857370417 0)
(-0.000831312747447 -0.000566998352771 0)
(-0.000962820761034 -0.000469813519332 2.9062904149e-28)
(-0.000801262116806 -0.000254369036244 -1.8905478527e-28)
(-0.000898411519486 -0.00022212558661 0)
(-0.000956633292772 -0.000231573338717 0)
(-0.00108881128638 -0.000287187259125 0)
(-0.00123446996565 -0.000354112276147 0)
(-0.00132351260481 -0.000365309217444 0)
(-0.00133454896082 -0.000336938215153 0)
(-0.00140055354396 -0.000345033044419 0)
(-0.00147649510188 -0.000365908740618 0)
(-0.00152371431243 -0.000361554883715 0)
(-0.00157238350093 -0.000340681009365 0)
(-0.00161892738817 -0.000314478504685 0)
(-0.00166212062163 -0.000285840472757 0)
(-0.00169510519348 -0.000255920387909 0)
(-0.00172131669459 -0.000227905499442 0)
(-0.00176795718332 -0.000208992674459 0)
(-0.00176542993029 -0.000189693084746 0)
(-0.00182891059182 -0.000165164365379 0)
(-0.0017997551851 -0.000128445831517 0)
(-0.001862337353 -0.000118432056408 0)
(-0.0018483532944 -0.000117376893123 1.02544104428e-28)
(-0.00190451019196 -0.000120612158884 -1.03649520172e-28)
(-0.00193849649207 -0.000132619014621 0)
(-0.00198821887246 -0.000137652621495 0)
(-0.00200714920554 -0.000127876476454 0)
(-0.00201916783315 -0.00011173239227 0)
(-0.00203020466499 -9.22916196686e-05 0)
(-0.00203995020143 -7.01343841677e-05 0)
(-0.00204750336201 -4.52277771564e-05 0)
(-0.00205244994584 -1.81797483669e-05 0)
(-0.0020544092828 8.76306276364e-06 0)
(-0.00205265806309 3.37107904885e-05 0)
(-0.00204665283694 5.70632372641e-05 0)
(-0.0020362480582 8.05146801075e-05 0)
(-0.00202147844337 0.000105444877998 0)
(-0.00200229432745 0.000132583278369 0)
(-0.00197838295636 0.000162339833445 0)
(-0.00194926485637 0.000195093938357 0)
(-0.00191437734745 0.000231269186075 0)
(-0.0018729553802 0.000271387818276 0)
(-0.00182395904844 0.000316226279999 0)
(-0.00176624849958 0.000366739137493 0)
(-0.00169862643856 0.000423842535799 0)
(-0.00161925807496 0.000489291306877 0)
(-0.00152450967062 0.00056679429345 0)
(-0.00140923253468 0.000660173489406 0)
(-0.00126961789279 0.000770375522631 0)
(-0.0011067221217 0.000893075698264 0)
(-0.000928957815046 0.00101745884523 0)
(-0.000749597294334 0.00112378676073 0)
(-0.000580421496434 0.00119292186997 0)
(-0.000421495292884 0.00124151863668 0)
(-0.000282114489746 0.0012570086453 0)
(-0.000108685248032 0.00110959949559 0)
(6.97767134676e-05 0.000824091735614 0)
(0.000217156485905 0.000688005065766 0)
(0.000358352974579 0.000587636506137 0)
(0.000480210037761 0.000496756794035 0)
(0.000584623843056 0.000392172345518 0)
(0.000616313187708 0.000204497504507 0)
(0.000558725730046 -7.4617964166e-06 0)
(0.000512771182982 -0.000167270113825 0)
(0.000434267683524 -0.000285461787921 0)
(0.00033553320299 -0.000365725793881 0)
(0.000234189242854 -0.000377685005279 0)
(0.00015545068161 -0.000350506953949 0)
(8.66518211202e-05 -0.000319638011014 0)
(4.85185243949e-05 -0.000364952287229 0)
(1.59850924017e-05 -0.000372331064924 0)
(-3.93423071623e-05 -0.000652167500636 0)
(-0.000158996503787 -0.000845115910143 0)
(-0.000273410921423 -0.000904176837692 0)
(-0.000198045716234 -0.000584940936213 0)
(-0.000232043634788 -0.000553375375016 0)
(-0.000484679923594 -0.000815501208843 0)
(-0.000571700349386 -0.000812815049109 0)
(-0.000654129481641 -0.000771020217103 0)
(-0.000716750426125 -0.000697420755308 0)
(-0.000807548185293 -0.000629545580352 0)
(-0.000700799673639 -0.000393801629192 0)
(-0.000791924836263 -0.000304488322899 0)
(-0.000879463043494 -0.000297268802613 0)
(-0.000956615780833 -0.000331566392082 0)
(-0.0011407465923 -0.000424216992409 0)
(-0.00124611312768 -0.000451445795088 0)
(-0.0012485794937 -0.000404325807087 0)
(-0.00131052909848 -0.000391398090464 0)
(-0.00140640007227 -0.000417295865854 0)
(-0.00146918949897 -0.000424976355419 0)
(-0.00151463330712 -0.000410390178693 0)
(-0.00156013120662 -0.000387241725484 0)
(-0.00161007937988 -0.000361892867903 0)
(-0.00165319463262 -0.000329567806589 0)
(-0.00169939214101 -0.000289255486524 0)
(-0.00170827759789 -0.000260525837038 0)
(-0.00176874213422 -0.000237222413224 0)
(-0.00177632976361 -0.000209254796733 0)
(-0.00177253380382 -0.000180962350471 0)
(-0.0018076705281 -0.000159562464931 0)
(-0.00188152539629 -0.000149277470038 0)
(-0.00187550447532 -0.000139980499134 0)
(-0.00189441493623 -0.000157712557286 0)
(-0.001969961237 -0.000173855920567 0)
(-0.00199391990051 -0.000167562452833 0)
(-0.00201110933784 -0.000147064442291 0)
(-0.0020248380139 -0.00012510362739 0)
(-0.00203632676387 -0.000102784141901 0)
(-0.00204644054439 -7.84400266356e-05 0)
(-0.00205452535627 -5.13622524325e-05 0)
(-0.00205983908727 -2.21386830597e-05 0)
(-0.00206204793699 7.62786713231e-06 0)
(-0.00206063516838 3.65691309982e-05 0)
(-0.0020550137132 6.46637683469e-05 0)
(-0.0020449299044 9.293702643e-05 9.45414524434e-29)
(-0.00203034842371 0.000122553768873 -9.42384271423e-29)
(-0.00201110562654 0.000154402697657 0)
(-0.00198678370014 0.000189135510229 0)
(-0.00195686079533 0.000227319651702 0)
(-0.00192080140306 0.000269581437111 0)
(-0.00187788656379 0.000316723309793 0)
(-0.00182708588694 0.000369796029791 0)
(-0.00176705452158 0.000430139188787 0)
(-0.00169587387469 0.00049966723435 0)
(-0.00161049445346 0.000581539822355 0)
(-0.00150653303418 0.000679805589549 0)
(-0.00137972116621 0.000796575305714 0)
(-0.0012290382945 0.000928924480728 0)
(-0.00106018665399 0.0010665243644 0)
(-0.000883997242612 0.00119474281346 0)
(-0.000710971078885 0.00129457429679 0)
(-0.000547338785529 0.00135889490105 0)
(-0.000395768338992 0.00138791621458 0)
(-0.000263199259596 0.00137679029999 0)
(-0.000128755920692 0.00135479053369 0)
(9.25558112015e-05 0.00100422620023 0)
(0.000282620766457 0.00083789446247 0)
(0.000449900824641 0.000728532090123 0)
(0.000581385555532 0.000602032632436 0)
(0.000678298915274 0.00043933846394 0)
(0.000698521530623 0.000198464042909 0)
(0.000666952722606 -4.51235648833e-05 0)
(0.000612685543066 -0.000250812431386 0)
(0.000492403482902 -0.000404226115035 0)
(0.000354447877657 -0.000483873613966 0)
(0.00022570615416 -0.000467959225014 0)
(0.000137992178959 -0.00043303998407 0)
(6.27042117109e-05 -0.000384946095582 0)
(2.19335567878e-05 -0.000393655622233 0)
(5.89315767386e-06 -0.000403219207907 0)
(-5.35069476725e-05 -0.00076571593624 0)
(-0.00017676810753 -0.000959108134805 0)
(-0.000237231022078 -0.000942867257201 0)
(-0.000192262260083 -0.000642081495127 0)
(-0.000307141153129 -0.000720217218668 0)
(-0.000491062884559 -0.000920745297771 0)
(-0.000535560748619 -0.000891812603861 0)
(-0.000635189758373 -0.000850182325557 0)
(-0.000637163219809 -0.000719829434164 0)
(-0.00081134946963 -0.00070862009469 0)
(-0.000681262740532 -0.000437566948591 0)
(-0.000795355475621 -0.000389479597332 0)
(-0.000870144256194 -0.000388118125503 0)
(-0.00100792891047 -0.000465576278194 0)
(-0.00115161240152 -0.00054460272887 0)
(-0.00122919600417 -0.000519146984535 0)
(-0.00123163047248 -0.000454911481109 0)
(-0.00131368817732 -0.000465519968123 0)
(-0.00139609012098 -0.000488070907339 0)
(-0.00145520210502 -0.000482329071348 0)
(-0.00150828274076 -0.000460336086889 0)
(-0.00155084621772 -0.000431702518451 0)
(-0.00159808837362 -0.000404200788889 0)
(-0.00162517230748 -0.000370535598589 0)
(-0.00165463026011 -0.000319844208855 0)
(-0.00172179334133 -0.000290412013097 0)
(-0.0016926489877 -0.000263476970749 0)
(-0.00179884766292 -0.000237294631797 0)
(-0.00176541645529 -0.000208490925668 0)
(-0.00185417921844 -0.000199676729562 0)
(-0.00182476512948 -0.000176728066144 0)
(-0.00191218375678 -0.000176555340827 0)
(-0.00194768743687 -0.000196232281182 1.07933875715e-28)
(-0.00197608115626 -0.000206894721724 -1.07557404941e-28)
(-0.00199779859278 -0.000190381222274 0)
(-0.00201573832204 -0.00016509514719 0)
(-0.00203104639114 -0.000139441148841 0)
(-0.00204351200453 -0.000114111041125 0)
(-0.00205403726537 -8.7397163917e-05 0)
(-0.0020625474628 -5.81069467961e-05 0)
(-0.0020683726913 -2.6454606402e-05 0)
(-0.00207100614863 6.35488329728e-06 0)
(-0.00206996546966 3.92128900935e-05 0)
(-0.00206475716846 7.19004461784e-05 0)
(-0.00205508006942 0.00010503447913 0)
(-0.00204072122129 0.000139578271627 0)
(-0.00202135789864 0.000176490914573 0)
(-0.00199650665107 0.000216594017894 0)
(-0.00196564701819 0.000260594951534 0)
(-0.00192827349995 0.000309281833599 0)
(-0.00188371263142 0.000363759124429 0)
(-0.00183091845522 0.000425598136416 0)
(-0.0017682601288 0.000497011385721 0)
(-0.00169304882211 0.00058113955192 0)
(-0.00160126976319 0.000681932116566 0)
(-0.0014883852202 0.000802397106829 0)
(-0.00135189291605 0.000941287090271 0)
(-0.00119343552092 0.00109271875634 0)
(-0.00102095716959 0.00124241878065 0)
(-0.000844767721124 0.00137344592786 0)
(-0.000676666674704 0.0014637421355 0)
(-0.000517548555758 0.00151696833492 0)
(-0.000363974431707 0.00153252681469 0)
(-0.000218332476135 0.00151420675214 0)
(-9.87326435317e-05 0.00146701912666 0)
(8.75420530077e-05 0.00130854592866 0)
(0.000329383277826 0.000974788919234 0)
(0.000549569910379 0.000889710978536 0)
(0.000695716994361 0.000727001222303 0)