/*--------------------------------*- C++ -*----------------------------------*\
| =========                 |                                                 |
| \\      /  F ield         | OpenFOAM: The Open Source CFD Toolbox           |
|  \\    /   O peration     | Version:  v1806                                 |
|   \\  /    A nd           | Web:      www.OpenFOAM.com                      |
|    \\/     M anipulation  |                                                 |
\*---------------------------------------------------------------------------*/
FoamFile
{
    version     2.0;
    format      ascii;
    class       volScalarField;
    location    "605";
    object      alphak;
}
// * * * * * * * * * * * * * * * * * * * * * * * * * * * * * * * * * * * * * //

dimensions      [0 0 -1 0 0 0 0];


internalField   nonuniform List<scalar> 
6400
(
0.885502518839
1.41040913382
2.23062650699
2.76499414182
3.27629968537
3.79159028443
4.45628327573
5.20268427823
5.61839762419
6.26827840079
7.50693747905
8.35478305657
9.06100042882
9.85955496044
10.8531805878
11.8943712353
12.817004894
13.6840033968
14.4137605159
14.8331177079
15.0250555752
15.3408299741
15.9900676206
16.9591690272
18.0240806635
18.9788627505
19.7595253072
20.4805003548
21.2460608653
22.0711937732
22.9007888381
23.5365833003
23.9017814853
24.1214171022
24.2344942221
24.2300511089
24.3987087153
24.80766064
24.8887303402
24.7400004513
24.9756333599
25.729217873
26.4901543874
26.8989105504
27.007778792
26.9097044058
26.672474405
26.3429249851
25.9341549037
25.4665091354
24.8490623285
23.8488626077
22.5279304434
20.9509747561
19.585111667
18.4956810567
16.953476964
14.6402162624
12.202225399
10.3023352725
8.35327483679
6.32021134954
4.29205129557
4.80717225195
8.56071368707
13.41582247
16.37058926
16.061199581
14.0751738565
12.4960598647
11.6815295079
11.9497198811
12.5548204486
12.4786631043
14.583335136
14.044453403
15.9473699477
9.84856635359
12.8648915608
4.80809388662
3.14895249667
2.51785400363
3.13387097828
4.39046317558
4.3108253713
4.22127407206
4.45036149274
4.90589038361
5.55322208958
6.37707110969
7.37110885855
8.36265538102
9.23806271296
10.0759820434
10.9296711702
11.9057088461
12.9312340816
13.9119556563
14.9422923532
15.1878958994
15.1846374478
15.4683147836
16.084386125
17.0370972501
18.2374944371
19.1301526111
19.8783471847
20.6402585453
21.4226831303
22.2166227525
23.0144343772
23.7477193575
24.1081131531
24.3235690222
24.4731228709
24.371021204
24.5927803626
25.0256453868
25.0512055359
24.7510679009
24.9539220618
26.3190553107
27.4178912001
27.7250311789
27.7690859131
27.5793338027
27.224813909
26.813477074
26.220823514
25.5694785858
25.0302796186
24.6174801031
23.5301952896
21.1753584101
19.9433699027
18.6033719449
16.4148180735
14.1653798124
11.9963005387
9.85690847486
7.9042746757
6.67884045605
4.7032448485
5.26327472901
8.7225616117
14.4756030414
18.1923747955
16.8906430181
14.7249180664
12.8258467314
12.1814557797
12.6662522799
13.8337743733
13.2920089745
13.1813615394
12.6885364594
11.5170558992
9.69533698524
8.16011961565
4.24410515622
3.24153820693
2.85151001127
3.36852235483
3.65962449555
4.20465362146
4.65083074881
4.64700131325
4.80967902187
5.45687837748
6.35386313122
7.35554117487
8.36684845899
9.28873381159
10.1307979986
10.8394505599
11.7229995153
14.3447026541
16.3496018237
16.7845375178
16.2259508133
14.9917279159
15.1293483348
16.211620262
17.2171221608
18.1570515169
19.1212657626
19.9813579821
20.7458896919
21.5075359071
22.2992926456
23.0605789547
23.8904323132
24.2506390103
24.2191421588
24.7130620125
24.6265358304
24.5010314123
25.1435782948
25.2114511123
24.9698715457
25.1865240437
25.9274524759
26.6713696345
27.0839433717
27.2177993818
27.1623032821
26.9589475826
26.6283275972
26.173333369
25.6168274393
24.9603429131
24.0914069794
22.882499577
21.6071169143
20.3417993989
18.470870103
16.3219400286
14.1576419232
12.0246670323
9.98398468685
8.17143566947
6.46090883707
5.31942663382
6.65688835086
11.1342444091
15.4935785355
17.6270814537
17.7232792223
16.1490801962
14.5124237541
13.8772896452
13.8377499561
13.2181482832
12.6632142656
12.6777029329
12.3692062485
11.4133997957
9.80343032038
7.37130247991
7.56016387215
3.25896206874
5.51438441391
3.69453316309
3.82173872619
4.5220311464
11.8848445347
10.2787452926
5.37052534299
5.42876780779
6.3523682349
7.3793690788
8.41017217657
9.307552673
10.1688637797
11.8698282712
13.965991497
15.6456856078
16.096176077
15.1150756038
14.3975132478
14.7618973358
15.3775533452
16.1866554882
17.1927588013
18.2440714268
19.2433873269
20.1327548656
20.8747369648
21.6590317137
22.3750459059
23.2753963293
23.8822836173
24.547114972
24.5174878431
24.2509187721
24.7168092136
24.6864541612
24.6780296847
24.9280702371
25.1592666009
25.5082355222
26.0974824152
26.7105958918
27.1184656878
27.291578423
27.2727247477
27.0975599956
26.7879258928
26.3533126159
25.8014438909
25.1171826255
24.2420137167
23.1374784822
21.8646273551
20.3698412594
18.5125827356
16.3993272745
14.2419068697
12.1562965955
10.2365895341
8.59680924794
7.37138781085
7.04291529543
8.03023544796
10.6495950814
15.9212376773
19.3498318798
19.4975945647
17.8323927575
15.48709393
13.915199736
13.174010517
13.391617387
14.8402431686
14.8035439644
13.5022126143
13.3783325558
16.6781030042
13.0771525421
11.0921898013
5.68917932582
7.58441966286
4.46842588186
4.78687454838
6.6111264001
11.7782251825
8.26426782835
5.83856437655
5.95277661451
6.57436389792
7.52387587917
8.56880102329
9.99086535148
12.2680055037
13.3083174115
13.7315082539
13.8098087727
13.6924482731
13.8514258513
14.447629705
14.8941926553
15.4262876164
16.2802881824
17.2972639776
18.3655918284
19.3969693134
20.2546910502
21.1268040631
21.7746073375
22.6890201366
23.3175287634
24.524474752
24.4781992721
24.1513334598
24.3725371476
24.2294013983
24.4061647048
24.727209414
25.0657048907
25.3896545942
25.7757220074
26.2859234096
26.8127574776
27.2041540243
27.4023903627
27.415672846
27.2687002145
26.9830620379
26.5708860356
26.0333620215
25.3521887609
24.4914953185
23.4270423235
22.1479981093
20.5827524768
18.6839037713
16.5830819867
14.4807963235
12.5234302698
10.8378606192
9.5639348278
8.87162602201
8.99418689029
9.31829874942
10.9561669587
15.4802934055
19.4476967038
20.8153076362
19.6443776151
16.8823191615
14.4166937103
14.1255592838
16.4233877173
17.3169287405
16.296831558
15.3957552154
18.06609094
21.0866807745
16.3940371679
15.509151607
9.98167541468
9.15037864902
5.56697424634
6.11598480754
12.0622336725
11.5400620199
6.68364073804
6.43901322068
6.58209036444
6.92674591483
7.77089800727
10.3806663172
13.5739884545
14.0372461164
13.7283057895
12.8905373984
12.6186357903
13.0353221494
13.9959677332
14.4213982157
14.788192989
15.4982837335
16.4266807658
17.4766101122
18.4754800059
19.517791478
20.6322413356
21.2332000899
22.3063404366
22.7403989479
24.189097384
24.3077956057
25.1251667787
24.3863231931
23.7962361871
23.9568276296
24.3977885819
24.8495794041
25.2537498457
25.6282838819
26.0345727279
26.5046813464
26.9767555546
27.3494900113
27.5613177628
27.6005907381
27.4807719418
27.2221071794
26.8382006884
26.3276750924
25.6715209256
24.8389041044
23.7959589929
22.4987656062
20.892461377
18.9969345915
16.9684809601
15.005228734
13.2649533395
11.8872200896
10.9866673776
10.7242782948
11.2555908514
10.4390366338
12.8229503227
17.4350329772
20.7869580724
22.1040961838
21.1712416599
17.793582751
15.5981370754
17.4225977284
19.6514080468
19.1437203783
18.1642520098
18.2551906113
22.8396910626
24.4301217443
19.4206977359
19.2228376307
12.1038033898
9.01855605874
6.76826384811
6.34513185555
12.0108933315
8.45469109563
6.9174516006
7.03589505901
7.16772964644
7.86401929518
8.36940400591
13.294103806
14.0024754198
14.0655290297
12.7847408388
11.8802265041
12.2224767162
13.5538632503
13.9642046143
14.131480055
14.803624768
15.6131326786
16.544137488
17.5917545512
18.7777827644
19.9142937588
20.6597756352
22.0531623263
22.3876844627
23.9550070089
23.9294935205
24.992636496
24.5824726465
24.1529005182
23.6220151348
23.9052507795
24.4786726905
25.0136130476
25.4619459683
25.8720023518
26.2972521259
26.7508778005
27.1918597571
27.5501228618
27.7700501765
27.8303853621
27.7376598458
27.5111061862
27.1646753965
26.6948799218
26.0797894225
25.2839050108
24.2613281061
22.9615373145
21.3622304511
19.5352230137
17.655230294
15.9090969838
14.4231735904
13.2746696734
12.5741353467
12.3568455905
12.1448590927
12.1524422999
14.4268795777
20.1079457571
22.2413891557
22.4807792573
21.3787491916
19.0855604807
18.8027457705
21.3633096899
21.807055989
20.988800697
20.4215067237
22.4179614676
25.1804897112
26.6502169521
22.0619047183
20.9240042225
11.8263872129
8.68696666717
7.9146576936
12.1828892865
12.1213785305
7.50692290556
7.57301193151
7.7218119777
7.82244777555
8.39536756894
13.0446252994
13.99146266
14.0984650568
13.6463147892
11.6424373551
11.4757505644
13.0403713917
13.6926719124
13.6044794609
14.009079932
14.8462268306
15.7906337539
16.7511787217
17.8541146619
18.8790928936
20.2695354896
20.7561713401
22.0721251112
23.6233569789
24.0947083079
23.6319789587
24.475269175
24.6583705061
23.6145998746
23.6106768999
24.0516587504
24.6291859798
25.1916212063
25.6810245724
26.1261665638
26.5720797637
27.0253620566
27.4527317443
27.8025549361
28.0285796382
28.1078257581
28.0443140816
27.856879907
27.558745066
27.143547077
26.5845865838
25.8388812683
24.853773944
23.5892471661
22.0623656768
20.383644509
18.722413255
17.2043398334
15.8638639322
14.7559217902
14.0486821111
13.764789625
13.7406366114
14.0804926829
14.1341493726
20.3338930452
24.1079739627
23.9873697662
23.3193828641
22.3080772535
23.077070688
24.4091430263
23.7235713727
23.0633440536
23.3072875487
25.6734220599
26.3647542941
26.956870403
24.0781136483
21.9400813679
11.1130354709
8.6234822121
8.5835954938
13.1642256538
11.1141395425
8.13526016651
8.28402222457
8.56343249484
9.74275931467
8.50992207328
13.8177094974
14.5160550077
14.1411585232
12.4339555481
11.2862797221
11.6153769492
13.1197256252
13.413918436
13.4948423362
14.0341623941
14.8505138196
15.8731651429
16.9356478227
18.439932354
19.7100740506
20.2369344144
22.1534578817
21.9751470649
23.8194372963
23.5436499955
24.767653403
23.8284934218
23.5459866336
23.53189043
23.7841211013
24.2530561083
24.8143434174
25.3853504065
25.9114685658
26.3958516204
26.8669425921
27.3292133568
27.7555941769
28.1042649491
28.3370804029
28.4357456986
28.4060524048
28.2663717546
28.028089275
27.6820688628
27.1969069203
26.523584883
25.6103078748
24.4385729622
23.0632991959
21.6101485198
20.1930455468
18.8069345584
17.4036867391
16.1901446305
15.5493834973
15.5654103241
15.8674200871
16.0648286625
15.9010079403
17.324755294
24.3567328818
25.9032547349
25.7513474723
26.2534426221
27.198087246
26.7763454963
25.7471171135
25.5786466599
26.6267411799
27.8680526224
27.7411523395
27.14077963
26.1281662989
24.7598575245
10.5921968095
9.07168967433
9.73755895828
13.2377572686
9.18533596001
9.15398998937
9.00140052088
9.26886821331
12.3295875687
11.0726537562
14.6527106709
14.7897322276
14.2174299012
11.7632403593
11.3255821792
12.9079012158
13.3517784516
13.1738865779
13.463450388
14.1875106148
14.9822230415
15.9500729185
16.8733024576
18.59722122
20.7312574077
20.1865206871
22.1051399513
23.3976913107
24.0611869131
24.6909498147
24.0410091731
24.0797341073
23.2627946974
23.449824886
23.9528916367
24.4759722051
25.0266529051
25.5975400814
26.1529962589
26.6801873405
27.1854243638
27.6656848379
28.0994024718
28.4534694657
28.697015194
28.8179331451
28.8275597486
28.7453394494
28.579663621
28.3187841922
27.9291679074
27.3603218385
26.5690664826
25.5639329539
24.4263238212
23.2531489977
22.0194359806
20.5438143297
18.9209536394
17.7644568704
17.5430157074
18.0578195075
18.5742195348
18.6953344177
18.3674169901
17.0058744086
16.7625193444
27.6798144676
30.3415027227
31.1054093888
30.7516819999
29.1769404847
28.2124690884
28.5434815058
29.7861665794
30.1903504969
29.9850109262
29.7111716346
30.0625285737
30.2529575935
10.5850435365
9.91904151748
13.1355229853
13.4138032251
9.30909189092
9.91636596291
9.71528368179
10.1924469504
11.8535099113
14.5482512277
15.486679884
15.0645814597
14.4643302735
11.7886299735
11.4861832907
13.4214234669
13.4580791107
13.1540402449
13.4909140299
14.3225133168
15.3416743104
16.3093976492
17.0560669977
18.232133126
20.9022713045
22.1130562235
21.7430759533
23.52122135
22.9625557124
24.7181500106
25.0712109861
24.0357012609
23.2375615463
23.5631115721
24.1519757251
24.7097819785
25.2632665163
25.8346237858
26.4087498922
26.9772861099
27.5268566031
28.0358874276
28.4847515505
28.8500554876
29.1093519394
29.2584242759
29.3147442783
29.2990914041
29.2180949705
29.0594375849
28.7912075072
28.3680083481
27.7634859484
27.0130853398
26.1944398564
25.2897780275
24.0361525724
22.2835886431
20.7008252584
20.0496391283
20.5633162316
21.6085275813
22.2925376634
22.3489814837
21.7074763245
20.0779883777
17.5436058329
17.9929113011
31.7286985613
36.7015739525
35.0518304162
32.3275930009
31.400641253
31.9662269098
32.8952654187
33.3567781023
33.7435464184
34.2880836365
34.9071291445
35.5829757744
10.9511570842
10.7956734953
14.7812539328
14.134934566
12.2528938312
11.1432141932
10.6554786354
11.648696923
11.3427940354
15.5140733837
16.1445064063
15.4149138456
14.5628966679
12.417452351
12.2484078418
13.8836396449
13.4872206357
13.2419975731
13.6094498692
14.366550704
15.4869044663
16.7671323597
18.473145657
18.3665922609
20.4077970152
22.4874497141
21.6425595731
23.7800038805
24.6324182184
23.9260268683
24.1836796515
23.4185137087
23.52879615
23.8901904905
24.4082430538
24.9675091038
25.5293576662
26.1056290693
26.6867411841
27.2831542426
27.8847057279
28.44114825
28.9145433856
29.2948316905
29.5757247499
29.7612376296
29.8728543391
29.931972717
29.9455300333
29.9045402887
29.7841181636
29.5549772046
29.2176326223
28.8177617118
28.3548818998
27.5534365701
26.0501015465
24.3547315147
23.3957699765
23.6298585974
25.0334956061
26.5043824786
27.4814808968
27.6981593988
27.0855239902
25.2612402678
22.0620379537
17.3690526841
26.6360581651
37.2341599163
39.8431428685
36.5810505198
35.694314123
36.2230147701
37.0370468413
37.6190964744
38.7141459073
39.5379409844
39.5156355668
39.7403340073
11.5619644361
11.4518855297
14.5357438509
14.6333080351
14.6493676012
12.2885534253
11.7273487169
14.4950121416
11.72702911
16.3754250387
16.6468786307
15.7752490219
14.6611029997
13.0374238941
14.8292480412
14.9374010145
13.6841397581
13.466407862
13.8616149794
14.5095231051
15.4476436385
16.7586767831
19.7435259902
20.6948008011
19.9059059786
22.552865707
23.5113715878
23.3586339042
24.5994998298
25.0023832978
24.5264602097
23.4560258854
23.7348161055
24.2222727393
24.7200183227
25.2584906766
25.8138432865
26.4082456386
27.0139547061
27.620509782
28.2537396769
28.8669156236
29.3864809011
29.791781132
30.0992395482
30.329918063
30.5064466104
30.6467804993
30.7595404784
30.8445325376
30.8944123913
30.9134344142
30.9346097785
30.9643303447
30.778760222
29.7562848062
28.3015613278
28.0664189646
28.307501942
29.620401475
31.6516020067
32.8865398934
32.7026057954
32.1644779127
30.3337441662
27.5693877812
24.2662535841
17.9387967897
17.6508883878
31.5969302343
38.4804237003
38.5482002501
37.047388506
38.812989599
40.5493086274
42.5767657038
44.3755613706
45.0459505878
45.0388328501
45.2377868855
12.2313342703
12.1588558247
11.8112429269
14.9661003623
15.1907429879
13.0684298563
12.692198617
15.4879821559
12.3935582172
17.2655819675
17.1006298433
16.1499169876
14.8683341256
13.3580119266
15.9864023487
15.5171297155
14.1270094996
13.8669421852
14.2145138192
14.8221112949
15.5330729111
16.6510104026
20.2520603517
21.7666918229
20.2533256616
22.5876104135
24.0310316558
22.8678936903
24.2301951614
24.5685183614
23.5745638983
23.8060840137
24.1817797437
24.6057885484
25.0644117999
25.6022100863
26.1533639669
26.7229258219
27.356376532
28.0080818636
28.6648034502
29.3154052735
29.8873388189
30.3358761715
30.6828589371
30.9692618154
31.2191047352
31.4413889607
31.6497122637
31.8585781565
32.0876792827
32.4091060116
32.8821365127
33.377208037
33.1706862571
31.6789537592
31.5034443464
28.7202802364
25.8817310882
24.6182158408
21.3853827785
12.0643680632
0.0791815755259
0.00807872099797
0.000641094348933
0.00018058334354
0.0021256018278
0.0217184018877
0.245332283483
0.640785276294
38.9645638654
47.9700240008
49.4663272912
44.7897988931
41.0299146346
43.4008598252
48.405160061
50.4369605315
51.8555781982
52.3232251763
13.0806450454
13.1722989545
15.6082700491
15.6158938834
15.6479295024
13.7337322627
13.7379916444
16.3432829075
13.4142663896
18.0386229877
17.5351026317
16.5485774103
15.1575605855
13.7561986329
16.274330274
15.7244512749
14.5677005271
14.3264319169
14.6042320723
15.1425603929
15.7887232581
16.6726220215
19.6696219179
22.5803459219
22.7391314174
21.9745633873
24.2447326184
25.0533990321
23.1192187188
23.0910758047
23.5170724542
24.0447788016
24.5390962778
24.9942651406
25.4669764052
25.9727127142
26.5245415378
27.1104853351
27.7254759059
28.4118564737
29.1209174564
29.8083076941
30.4206480501
30.917468405
31.3226160636
31.6800688518
32.0110197428
32.3177287513
32.6046249599
32.9012960491
33.3027238304
33.9711891042
34.9627111014
35.8316749102
35.2527419266
31.4833414519
21.7346311923
2.68514078577e-05
2.95337641489e-08
5.53652498838e-10
9.38478926557e-12
2.71525238268e-14
7.71615456555e-17
1.33565175064e-21
1.04475076214e-21
2.53641460579e-21
1.7097439812e-20
8.00834535176e-20
2.95828677045e-19
1.87994501194e-18
1.47195497827e-18
1.27700097236e-16
7.26826926981e-14
7.30616153543e-12
5.54414240765e-10
1.27668202763e-07
0.00214905759463
52.775017802
57.8511090283
59.2246728895
13.8800665648
14.0712160078
17.2282457205
16.2944095572
15.773959131
14.4049565242
14.751653865
17.0679518647
17.0410060094
18.9994532617
18.0321957662
17.0406185177
15.5320567954
14.2992008757
16.5804422479
15.8705300428
14.9913369786
14.7944495554
15.0002996678
15.4570498076
16.0705152154
16.9159784094
19.1609700146
22.8420947414
24.1071463688
21.7138940369
23.772600635
25.1236716156
24.8968291437
23.533368664
23.6090393894
24.2705689208
24.901672186
25.4305202412
25.8606765001
26.3731677359
26.9177048424
27.5214951822
28.1550143316
28.8506923325
29.6074238903
30.3498710418
30.9957446863
31.5244859662
31.9975334084
32.4760972334
32.9279672578
33.2939915864
33.5668500786
33.9014635461
34.4861384301
35.4813566146
36.9635954936
38.1849947833
29.9663567379
0.0503128035569
1.48485780799e-11
6.01295755284e-14
1.73884998763e-15
2.53144683679e-17
2.05674706033e-20
3.43187957142e-23
2.41914765992e-24
0
0
0
0
0
0
0
0
3.36462184537e-28
1.13481729277e-25
1.69744478527e-23
9.84803105248e-21
1.37552825072e-17
7.44883703602e-13
1.13119582605e-08
0.0881923594733
61.9520321758
14.5345858432
14.7476793355
19.3760103325
16.8216538859
15.6529508825
15.0008628011
15.4813303832
17.1337468478
18.6320691906
20.105004421
18.6866202799
17.6675437822
16.1569105152
15.1346474682
17.0930359336
16.1696533887
15.493497689
15.3119246513
15.4363151942
15.8087091523
16.3516840947
17.1349862764
18.9560216367
22.718958257
25.09951252
24.337508109
23.2637701701
24.4948835963
24.6516387294
23.5337906405
24.0596835969
24.7493286078
25.4276242295
25.9201036214
26.3680101107
26.8108175542
27.367345492
27.9624644293
28.6225641438
29.3407625976
30.1212832686
30.9209468445
31.6448095047
32.2067320489
32.7373823961
33.3468358161
33.9337947842
34.3233739227
34.5378419937
34.8794140831
35.5933655349
36.7284233685
38.3762386828
30.5116112747
9.83289305751e-08
2.14973372354e-14
7.05019060115e-18
2.85080590311e-19
3.88698803019e-21
1.065917755e-23
0
0
0
0
0
0
0
0
0
0
0
0
0
4.33531486344e-27
4.30807814592e-26
9.44424072211e-25
4.57938173091e-23
2.54303575508e-19
2.11673041474e-10
4.08033954256e-15
15.0460911147
15.2487482401
21.4322638544
17.2275902731
15.7855957006
15.5551836063
16.2890833443
16.5104828401
19.5837078935
20.8978654952
19.3222805666
18.3100864313
16.9809789084
17.0180708544
17.8091650843
16.7104909485
16.1912437324
16.0255278952
15.980901912
16.2476656327
16.6861683708
17.3919261176
18.9409695434
22.5810233917
25.5144004466
25.983156584
23.0622371225
23.4298608533
23.415179181
23.6550738107
24.3692042872
25.2465392693
25.9279951044
26.4526304717
26.9186231658
27.4340176246
27.8828986944
28.4705308031
29.1328782492
29.855825067
30.7035914759
31.5731305074
32.3485394827
32.8866644918
33.4237594345
34.6329765704
36.2398889358
36.7873061514
36.0177778753
36.1252923375
36.8371606391
37.9723297082
29.0386970595
1.13760063777e-08
1.71451318094e-13
7.69157569964e-25
7.77243252946e-22
1.26824679403e-23
0
0
0
0
0
0
0
0
0
0
0
0
0
0
0
0
0
0
6.69792554544e-26
4.53572454998e-25
8.3642521228e-23
94.9324082573
15.493902627
15.6624884632
21.2728171881
16.6762606748
16.0009121038
16.0359539046
17.2064285329
16.5222952634
20.3897509324
21.6371758631
19.9283986296
18.9078825586
17.6221694244
19.2370767655
18.8061143337
17.4552491091
16.9948957959
17.0987691789
16.7480334957
16.8559819124
17.1203898563
17.6910142881
19.0679415178
22.4308331628
25.3877675979
27.0863022788
25.7584391501
24.7856645205
24.3866567655
23.9171785315
24.674191378
25.8860053567
26.3824109822
26.9893517456
27.7132746899
28.0453072797
28.4935966365
29.083896231
29.7610450895
30.487510869
31.2892064185
32.212800942
33.1249091515
34.0522896181
35.1479599664
36.7079381796
37.967993829
37.950976955
37.8696023898
38.4634699881
39.5700844072
32.955742659
5.17336381826e-08
4.72224808073e-13
6.20655676345e-17
8.42969370724e-19
0
0
0
0
0
0
0
0
0
0
0
0
0
0
0
0
0
0
0
0
0
0
2.06094089274e-25
1.50006329353e-14
16.0102462089
16.1558301162
20.9169067988
16.3626897523
16.3068279802
16.4294033623
17.996241152
16.9982821565
21.0922761635
22.3638236801
20.5327268586
19.509704427
18.1625569396
19.9965831652
19.7312580469
18.2720203494
17.7871853202
17.9982881523
17.6661337381
17.6856136554
17.7556177331
18.0401777905
19.3556969725
22.4123324725
25.1147594899
27.4169463867
26.9635204919
25.3190446009
23.8301488232
24.429551092
25.200490039
26.3737788648
27.2489046707
27.9772170482
28.558236628
28.7637518061
29.188331726
29.7914676856
30.4816410906
31.2392928542
32.0483615076
33.050329405
34.2904855682
35.8344742356
36.8921434242
37.3208799292
38.0130532646
38.4781782336
40.027382815
42.1505102928
39.1750027678
4.71394048313e-07
6.25921302803e-13
1.07936919582e-16
2.21384180534e-19
5.3601368668e-21
1.79921600217e-23
0
0
0
0
0
0
0
0
0
0
0
0
0
0
0
0
0
0
0
0
0
3.46348048563e-26
4.58250102959e-26
16.7712996647
16.9170307402
20.6003457859
16.6622985591
16.878389001
16.9228748531
18.0161673012
17.7348886352
21.6018958377
23.0564306729
21.1728865406
20.1627322901
18.8236219369
20.6902794546
20.5673427031
19.1801630939
18.6403019081
18.8764666355
18.5626434036
18.6616959366
18.6656308998
18.550099763
19.8376120855
22.5860239818
24.9901222111
27.5120849429
27.517884567
26.0549116445
24.3321704477
24.6674899317
25.8331903444
26.5410068556
27.2871370319
28.2251792142
29.4965746931
29.8094832741
30.1465160966
30.6065851725
31.2564806531
32.0898237192
33.0100895883
34.1455731252
36.0889618751
37.8410246243
38.1166408699
38.3733895914
39.5232518483
42.34040484
46.0346749903
43.5017044737
1.34678747704e-07
2.23725046334e-14
9.25826559023e-19
3.03548144247e-22
1.90460181657e-24
3.86047353275e-24
5.92824680361e-25
0
0
0
0
0
0
0
0
0
0
0
0
0
0
0
0
0
0
0
0
0
2.55996007371e-27
1.16240264798e-26
17.9158899583
18.0216466601
20.9041031061
17.6179416513
18.052494314
17.7903726258
18.3400552493
19.0646016422
21.6611533703
23.5801675931
21.878018822
20.8886308965
19.5931776088
21.4788916831
21.4318066012
20.2514853056
19.6792250168
19.9021485513
19.4677755655
19.7364500538
19.890057982
19.2889824438
20.3914336907
22.953244978
25.058764564
27.3799377879
27.7724230124
26.7108760035
26.3535621006
25.5464633629
26.2566549887
27.3766179566
28.7087179143
28.8316980326
29.7528756377
30.8597759464
31.2161098282
31.7483272079
32.2910877377
33.0284833913
34.0894969435
36.0419329295
38.697750987
39.6283814708
39.5005546757
40.7096394927
45.1207182026
51.4725985905
49.276962951
4.84441754524e-09
3.38955521842e-16
3.1646119706e-21
2.1653318323e-23
0
0
0
0
0
0
0
0
0
0
0
0
0
0
0
0
0
0
0
0
0
0
0
0
0
0
0
19.5118604771
19.3864057309
21.7356740772
19.5228189573
20.0228812617
19.0702966645
19.2964191758
20.9852989717
21.8948408069
24.2119481986
22.7013103673
21.6977495038
20.4469838231
22.3055933512
22.2922248113
21.4319708663
21.1968810504
21.2410638651
20.4662919384
20.9084642003
21.4162256113
20.3448369688
20.8314734013
23.4089125359
25.327915475
27.2658013739
27.9595379825
26.8834986114
27.5524345309
27.1500466852
27.3431357159
27.1182617942
28.4461437404
30.0887863544
30.7295265998
31.6007669372
32.2873868636
32.8462645196
33.5377073106
34.2949332966
35.8322328079
38.9808049242
41.2422953626
41.6461169441
42.392256958
46.2783516956
54.7130067658
52.2532363926
11.1672689055
3.02489779972e-18
5.28815980815e-21
2.42138095038e-23
0
0
0
0
0
0
0
0
0
0
0
0
0
0
0
0
0
0
0
0
0
0
0
0
0
0
0
0
21.2021096541
20.6731363757
22.6379861154
22.0420789891
21.7548314466
20.5551172675
20.3542511953
22.1409104348
21.1679629856
24.7094894026
23.6250231602
22.582427706
21.3758191253
23.1458923087
23.093532245
22.4219161908
23.2922486183
22.8543699219
21.5900535647
22.2034207574
22.7788729057
21.7007285937
21.0179480372
23.4260844239
25.5274236772
27.1918378824
28.0428599034
26.9888312119
27.9609574557
28.4555015048
28.7204308707
27.918959853
28.7202970378
30.0388792881
31.678220051
32.8439572787
33.5920266657
34.1164015674
34.7835599657
35.9890831158
38.9014231631
42.2865718607
43.9906849999
44.8821670955
47.3950352264
53.0988171726
50.123468543
26.2893639998
8.14479935543e-18
1.17913154643e-20
4.1295461499e-23
0
0
0
0
0
0
0
0
0
0
0
0
0
0
0
0
0
0
0
0
0
0
0
0
0
0
0
0
0
22.0572021814
21.5849151948
23.2257317473
23.1188709073
22.849263416
21.9636634506
21.5728678953
23.541231716
22.2366688455
25.3417859025
24.5602603854
23.5124436137
22.374915205
24.0173707292
23.9072436693
23.2559725609
24.2855304763
23.9871903451
22.688330362
23.4823482247
23.5492274981
22.5472055092
22.0677536316
22.2976471502
25.055964051
26.7262576149
27.8575391604
26.9873260815
28.0596435598
29.0287756552
29.8567986233
29.7622893412
29.1018711096
30.1325390042
31.9496995085
33.748671216
35.0139329463
35.801875689
36.4742104922
38.8924633051
42.7111580982
45.6752138572
47.1215303432
48.846774365
52.6933796784
47.2962305157
21.9233203826
4.30277905249e-17
3.87594463133e-20
1.10388909714e-22
0
0
0
0
0
0
0
0
0
0
0
0
0
0
0
0
0
0
0
0
0
0
0
0
0
0
0
0
0
0
22.1882404788
22.1694514607
23.5981667201
23.3748452223
23.5581381775
23.0652459205
22.640987666
24.9199371961
23.943966793
26.1539204549
25.5554164211
24.474704203
23.4396297189
24.9352845455
24.7914930759
24.2206678532
25.1190481987
24.9805817903
23.8395409058
24.5360109218
23.4169406154
23.3355727198
23.1372104783
23.4073867056
24.2425433151
25.2647834652
27.0568095183
26.8149112318
27.6677281912
29.0970729764
30.3514028113
31.1495873818
30.6646495699
30.9607911695
32.1884169993
33.9608934169
35.94290954
37.5641070282
39.0476523894
42.6436855266
46.4709839864
48.8698539145
49.9233127021
51.5026203491
46.2946169553
27.2102368561
17.9092723852
1.34633096175e-19
3.01590729788e-22
0
0
0
0
0
0
0
0
0
0
0
0
0
0
0
0
0
0
0
0
0
0
0
0
0
0
0
0
0
0
0
22.4788364207
22.5952671306
23.9275777317
22.5628115848
23.8847571048
23.6921204048
23.3732834063
25.5726128919
24.8350633163
26.9857762787
26.5887059881
25.4400597242
24.5764595881
25.8869104789
25.7195866076
25.3194659786
26.0444992361
26.0838825666
25.1138877639
25.9674144802
24.7902292472
24.985204261
24.4203371344
24.7255206111
26.0548257399
26.6869797846
26.7307620634
26.5772534643
27.2450025755
29.0716069816
30.3889565925
31.4430724211
32.0346694588
32.0965521811
33.5583646725
34.7414594368
36.7167800845
39.2188593513
42.2632402472
46.5683905263
49.9488163001
51.4560230357
50.4796179057
46.0620459357
38.6014937692
26.8603009981
1.12974160065e-18
2.57191203527e-21
0
0
0
0
0
0
0
0
0
0
0
0
0
0
0
0
0
0
0
0
0
0
0
0
0
0
0
0
0
0
0
0
23.218262061
23.2986987922
24.2818996089
23.0116825958
24.1774624595
24.0594085426
23.9008749346
25.8248537861
25.467933395
27.6146212349
27.5991572121
26.3493628401
25.7712484851
26.8269594376
26.6109483302
26.3855451144
26.9393677961
27.2711626909
26.4341315516
27.4130891952
26.5813476283
27.0541339248
26.8416076222
25.7528179634
26.8459434231
27.8127962327
27.9617762026
26.4528691063
26.7614357519
29.0050454176
30.5652735686
31.1589031892
31.9050958735
32.4829502809
33.9662081531
35.432353503
37.6159992697
40.9157456108
45.6694462625
50.5467479596
53.1828521741
53.0833954126
49.7421713764
43.3573376513
26.9114533907
13.0342602502
1.7922094152e-20
7.26744902429e-23
0
0
0
0
0
0
0
0
0
0
0
0
0
0
0
0
0
0
0
0
0
0
0
0
0
0
0
0
0
0
0
0
24.1451329879
25.1400057388
24.7892829375
24.0049147518
24.7475166923
24.4844886139
24.408830947
26.0461171612
26.0439907483
27.9041770853
28.5744029856
27.1632689766
26.8329053612
27.6064381067
27.4524064556
27.2038861115
27.3005844612
28.3526875419
27.8136043583
28.68067639
28.5316300203
28.4203100234
28.2886867162
27.9231127306
27.2587508296
28.0166216544
28.9384696842
26.0516674375
26.3170753119
28.381934252
30.6446627603
31.7361621306
32.6422240556
32.561907766
33.8925918857
35.734079766
38.1853760152
42.5004656086
49.0436447842
54.3217642277
55.798989102
51.287229449
48.2742944067
43.7669468626
31.396201045
1.21477579908e-19
3.10040002511e-22
0
0
0
0
0
0
0
0
0
0
0
0
0
0
0
0
0
0
0
0
0
0
0
0
0
0
0
0
0
0
0
0
0
24.854645884
25.8859446912
25.5229790184
24.9043957555
25.469786379
25.0786301212
24.9807598922
26.3433715693
26.5996763621
27.9348239483
29.4414538228
27.9384147403
27.4931014909
28.2534307391
28.3512616423
27.945725036
27.5974958419
29.1334196754
29.2168525816
29.7897671677
29.8897533873
30.0601152821
28.9460036894
28.9477165001
28.5105105429
29.6418158686
30.2994017174
27.8031094157
25.9577264957
27.4541813672
30.0080803132
31.9411268871
32.9436895584
33.1698733916
33.6286250728
35.5834986874
38.201112232
43.733010315
52.2392994741
58.111541137
56.7795060477
50.8060179986
44.3704850936