/*--------------------------------*- C++ -*----------------------------------*\
| =========                 |                                                 |
| \\      /  F ield         | OpenFOAM: The Open Source CFD Toolbox           |
|  \\    /   O peration     | Version:  v1806                                 |
|   \\  /    A nd           | Web:      www.OpenFOAM.com                      |
|    \\/     M anipulation  |                                                 |
\*---------------------------------------------------------------------------*/
FoamFile
{
    version     2.0;
    format      ascii;
    class       volScalarField;
    location    "191";
    object      p;
}
// * * * * * * * * * * * * * * * * * * * * * * * * * * * * * * * * * * * * * //

dimensions      [0 2 -2 0 0 0 0];


internalField   nonuniform List<scalar> 
6400
(
0.151071361692
0.151073439591
0.151079285079
0.151090358141
0.151106003959
0.151125929805
0.151150269679
0.151180184744
0.151215554047
0.151256158766
0.151307299217
0.1513716713
0.151445581538
0.151529211941
0.151624548647
0.151733722517
0.151857113597
0.151993897568
0.1521428572
0.152299540929
0.152457368587
0.15261576355
0.152779856586
0.152955995707
0.153148870809
0.15335835069
0.1535808249
0.153813934462
0.154057837976
0.154313709414
0.154582614471
0.154863315339
0.15514987527
0.155436583053
0.15572197992
0.15600196395
0.156275051095
0.1565504615
0.156827642357
0.157094105842
0.157351459174
0.157617226687
0.157900995626
0.158194429415
0.15848931648
0.158781210532
0.159066685421
0.159344377296
0.159613325341
0.15987294386
0.160123740799
0.160361309639
0.160580460785
0.160772879705
0.160940008526
0.161093269364
0.161229626435
0.161337664902
0.161415235684
0.161469945588
0.161505807233
0.161523865665
0.161527938635
0.161516188777
0.161480371138
0.161402878624
0.16127903088
0.161130303804
0.160981978076
0.160843217241
0.160712786785
0.160585593958
0.160458268547
0.160337833553
0.160223995821
0.160120888841
0.160031700728
0.159971539691
0.159931997373
0.159915233762
0.151068187671
0.151070343694
0.151075467145
0.151086302224
0.151103457586
0.151124916894
0.151149817024
0.151178191609
0.151211767627
0.151252478154
0.151303310061
0.151366314541
0.151440498771
0.151525274005
0.151621093327
0.151728962566
0.151851725935
0.151989335129
0.152140256281
0.152298630029
0.15245476174
0.152610713896
0.152773732469
0.152949092122
0.153142139576
0.153352611628
0.15357515538
0.153808766313
0.154053805623
0.154310625347
0.154579285435
0.154860248914
0.155148279186
0.155435084978
0.155721056879
0.156001440361
0.1562738757
0.156549736518
0.156827847714
0.157093296142
0.157345109355
0.157608648609
0.157898783513
0.15819628437
0.158492741646
0.158786260554
0.159072968559
0.159352140556
0.159621893521
0.159879330671
0.16012538386
0.160363356038
0.160592773477
0.16078757743
0.160955836624
0.161114156002
0.16124742694
0.161350390925
0.161427566653
0.161482254085
0.16151703042
0.161536520033
0.161541221284
0.161529909251
0.161495079161
0.16141906216
0.161293523479
0.161141781598
0.16099027643
0.160847982511
0.160714059273
0.160582956241
0.160450492681
0.160323597388
0.160207234205
0.16010392421
0.16001878502
0.159958452181
0.159919030886
0.159905596312
0.151059510245
0.151063195074
0.151067565251
0.151077458107
0.151094138503
0.151118600822
0.151146383591
0.151174001304
0.151205534159
0.151245131141
0.151295304584
0.151357625362
0.151431937444
0.151517440255
0.151613545626
0.151718013885
0.151838938254
0.151984075298
0.152139271073
0.152296726516
0.152448391078
0.152597415891
0.152758162279
0.15293635476
0.153129945377
0.15333941738
0.153563341129
0.15379914561
0.154045954746
0.154304316092
0.154573829947
0.154855739371
0.15514697336
0.155432945901
0.155716855381
0.156000983992
0.15627251915
0.156545154737
0.156823743824
0.157091371705
0.157350761052
0.157618883763
0.15790401622
0.158198313757
0.158494276582
0.158788012098
0.159076473322
0.159357768434
0.159630055064
0.159891703878
0.160142314529
0.160380941387
0.16060288566
0.160801504903
0.160981988415
0.161141844324
0.161272039551
0.161374269614
0.161451564711
0.161506552655
0.161542523339
0.161562949529
0.161567772106
0.161559546734
0.161526695505
0.161449216027
0.161324565419
0.161170645775
0.161010798133
0.160858800911
0.160714930591
0.160573754026
0.160434913503
0.160303809224
0.160182999493
0.160077565543
0.159993666782
0.159933170258
0.159894764909
0.159880558021
0.151047906493
0.151051523179
0.151054690472
0.151063744585
0.151078402844
0.151102747313
0.151139742252
0.151167226498
0.151196248565
0.151233861596
0.15128306396
0.151345021139
0.151419679409
0.151504776161
0.151601514572
0.151713240462
0.151840955053
0.15198395842
0.15213174203
0.152276291125
0.152421733849
0.152574094634
0.15273704249
0.15291496224
0.153109478005
0.153320583971
0.153546774689
0.153785105121
0.154034590687
0.154294836042
0.154567138877
0.154850856686
0.155143512304
0.155435946013
0.155715864855
0.155993880348
0.156271086684
0.156541432999
0.156811327832
0.157080552607
0.157348712654
0.157623080069
0.157908766816
0.158202475148
0.158498869995
0.15879393888
0.159084579927
0.159368533925
0.159643902032
0.159909074721
0.160162819925
0.160403364488
0.160627534891
0.160832145498
0.161016713302
0.161176957193
0.16130833988
0.161411706173
0.161489979544
0.161546130887
0.161583254797
0.161603922885
0.161610502207
0.161607264098
0.161578999135
0.161505277698
0.161377830299
0.161215031704
0.161041313997
0.160874000484
0.160717275092
0.160567071809
0.160420537632
0.160276560791
0.160142834197
0.160033712245
0.15995151963
0.159885640414
0.159839664095
0.159820585082
0.151030018007
0.151030149031
0.151034101202
0.151043390409
0.151059700647
0.151082510617
0.151115528931
0.151146760964
0.151178262714
0.151216821447
0.15126546513
0.151327366933
0.151403055143
0.151494739757
0.151600789628
0.151714867122
0.151837632926
0.1519681177
0.152103659954
0.152244677149
0.152391548308
0.152544568705
0.152708289125
0.152887389981
0.15308328785
0.153296494252
0.153524910602
0.153766557744
0.154019204975
0.15428330463
0.15455800007
0.154847056391
0.155146734202
0.155434040659
0.155713252674
0.155987923694
0.156256860767
0.156526315749
0.156797741357
0.157070644998
0.157345270007
0.157625166898
0.15791325922
0.158208108976
0.158506003015
0.158803246451
0.159096705021
0.159383932421
0.159662974877
0.159932183472
0.1601899823
0.160434396928
0.160662867088
0.16087276734
0.161061412285
0.161224291194
0.161358196101
0.161464112673
0.161544995623
0.161603850167
0.161643530537
0.161666655568
0.16167647774
0.161678442569
0.161651661551
0.161581320563
0.161454357517
0.16128215188
0.1610893949
0.160900539093
0.160726411997
0.160561235538
0.160393504616
0.160225407157
0.160078468049
0.15996338183
0.159871210838
0.1597869732
0.159733204886
0.159713682193
0.150996122245
0.150995435337
0.151003104879
0.151012444637
0.151030358764
0.15105528887
0.151085183752
0.151117407935
0.151152328266
0.151192855627
0.15124035732
0.151303479739
0.15138905465
0.15148967803
0.151596132173
0.151705302088
0.151818609553
0.151939867667
0.152071512311
0.152211297276
0.152355524069
0.152507705138
0.152672610954
0.15285365623
0.153051657265
0.153266228982
0.153498391762
0.153743263562
0.154000801774
0.154268790278
0.154549929309
0.154842451336
0.155140873126
0.155435327253
0.155707329925
0.155971153193
0.156237377311
0.156508138341
0.156782644675
0.157059992714
0.157340350034
0.157625631896
0.157917437347
0.158214966292
0.158515520715
0.15881582519
0.159112811766
0.159403972405
0.159687363571
0.159961356603
0.160224290132
0.160474160678
0.160708499468
0.160924334062
0.161117926114
0.161285007615
0.161423360809
0.16153412451
0.161619973774
0.161683690688
0.16172795904
0.161756430852
0.161773778617
0.161777378614
0.161754961074
0.161685133062
0.161555850008
0.161373658001
0.161158922636
0.160943064602
0.16074316043
0.160546814083
0.160341596202
0.160146830422
0.15998398346
0.15985392843
0.159738388209
0.159636480162
0.159576032853
0.159549978524
0.150943976319
0.150947576935
0.150961644041
0.150975951836
0.150990719402
0.151015500774
0.151047579028
0.15108082934
0.151118487206
0.151161299718
0.151212883101
0.151279343293
0.151373402533
0.151474797791
0.151577696017
0.151678887441
0.15178554423
0.151905528131
0.152037027064
0.152171432213
0.152312295524
0.152464867531
0.152630844781
0.152812900557
0.153013017472
0.153233086392
0.153466052086
0.153715917352
0.153978667928
0.154255959051
0.154542982631
0.154835751283
0.155135768361
0.155421411272
0.155688825192
0.155948516
0.1562146421
0.156487884732
0.156766194752
0.15704823249
0.157334105754
0.157624909957
0.157921403399
0.158222907474
0.158527273033
0.158831576899
0.159132877703
0.159428728645
0.159717285364
0.15999701028
0.160266254368
0.160522959529
0.160764454991
0.160987291451
0.161187347549
0.161360863967
0.161506337169
0.161624823454
0.161718323481
0.161788801991
0.16183922021
0.161875301109
0.161900428583
0.161906747842
0.161900109475
0.161834587915
0.161696802471
0.16149815039
0.161257172463
0.161005624327
0.160760973242
0.160512068154
0.160260806462
0.160036594954
0.159849907751
0.159691998109
0.159546125759
0.159430394894
0.159364538018
0.159332301926
0.150883016204
0.150890535686
0.150907459945
0.150929520285
0.150945964066
0.150970759553
0.151001990002
0.151036922871
0.151078234098
0.151119162069
0.151177978335
0.151256938589
0.151349757491
0.151449226666
0.15154523954
0.151638949935
0.151745415306
0.151867936225
0.151994557189
0.152123889875
0.152262430683
0.152415241937
0.15258257771
0.152767500791
0.15297119418
0.153194327133
0.153433209991
0.153681823592
0.153955205987
0.154245865824
0.154532963246
0.154821156487
0.155119425358
0.155397683448
0.155658437799
0.155920671437
0.15618950534
0.156465779622
0.156748090647
0.157035052626
0.157326555388
0.157623215955
0.157925262686
0.158231895217
0.158541191565
0.158850474225
0.159156970617
0.159458392588
0.159753063803
0.160039572428
0.16031630881
0.160581123439
0.160831077004
0.161062391919
0.161270994485
0.161453770036
0.161609630515
0.161738983213
0.161842200998
0.161919808995
0.161975996632
0.162018856836
0.162051135565
0.162071044935
0.162079257118
0.162040334603
0.161898242414
0.161673248762
0.161392296553
0.161084903043
0.160770974182
0.160451467533
0.160148184446
0.159885836746
0.159664293628
0.159468391987
0.159297638192
0.159170143586
0.159101701709
0.159070003299
0.150816649858
0.150826812416
0.150844321247
0.150862286014
0.150884456741
0.150916778191
0.15094729419
0.150983259049
0.151030670287
0.151076286521
0.151132484655
0.151220208984
0.151315950868
0.151410615838
0.151500717635
0.151594235557
0.151700574565
0.151820960741
0.151943184737
0.152069970991
0.152206938134
0.152358602295
0.152525592145
0.152712078643
0.152926067452
0.15315043669
0.153395659283
0.153655124669
0.153930068322
0.154220342275
0.154514891227
0.154811828954
0.155090633079
0.155359441637
0.155622716142
0.155889018094
0.156161631937
0.156441483846
0.156728013014
0.157020167537
0.157317647406
0.157620666611
0.157929086286
0.158241924915
0.158557271348
0.158872576362
0.159185268364
0.159493284963
0.159795139304
0.160089543921
0.160374929054
0.160649073852
0.160908851144
0.161150411858
0.161370077128
0.161565354681
0.161735075072
0.161877860501
0.161990971468
0.16207372671
0.162135380662
0.162189938899
0.162239513791
0.162277855956
0.16229574637
0.1622857396
0.162178294416
0.161917840346
0.161576453285
0.161185353143
0.160771084058
0.160361966957
0.159994489695
0.159681828061
0.159414999938
0.159181074031
0.158991292721
0.158856523012
0.15878494445
0.158756461671
0.150744061289
0.150756387759
0.150776880674
0.150794659751
0.150817985938
0.15085128878
0.150882705645
0.150918758702
0.150964590969
0.151024661584
0.151085762946
0.151173498092
0.151270182549
0.151360325301
0.151444771652
0.151541252623
0.151652049517
0.151767039431
0.151884010284
0.152008899897
0.152146012535
0.152297595905
0.152464663883
0.152649508563
0.152871318705
0.153106029555
0.153345206078
0.153616143935
0.153897138877
0.154193631252
0.154490329276
0.154782515241
0.155057209858
0.155317990445
0.1555828835
0.155853676764
0.156130689319
0.156414688074
0.156705733092
0.157003326575
0.157307203268
0.15761723086
0.157932896726
0.158252999359
0.158575552263
0.158898047668
0.159218092325
0.159533880044
0.159844107402
0.160147558446
0.160442697404
0.160727287047
0.160998208062
0.161251898857
0.161485318552
0.161696476142
0.161883128249
0.162039719403
0.162158375292
0.162242887954
0.162316466615
0.162396809763
0.162476788955
0.162541741877
0.1625753782
0.162565194096
0.162484245874
0.162263668062
0.161830841678
0.16131097831
0.160758035033
0.160233434702
0.159781132456
0.159404707917
0.15908819452
0.158821668256
0.158613096411
0.158470095189
0.15839040008
0.158359389252
0.150662225706
0.150674373846
0.150696316729
0.150719000416
0.150749299923
0.150776856305
0.150808173951
0.150846057661
0.150884828497
0.150951437361
0.151024997337
0.151113337097
0.151210344099
0.151299515908
0.151382879214
0.151479567869
0.151592299114
0.151703884746
0.151817089778
0.151939229523
0.152076443646
0.152229901156
0.152402126035
0.152587056264
0.152801932874
0.153054618013
0.153303982063
0.153574058762
0.153856296694
0.154143014929
0.154450629821
0.154743332403
0.155011630398
0.15527129638
0.155539237789
0.155814539945
0.156096342458
0.156385094315
0.156681094732
0.156984367626
0.157295021354
0.157612754852
0.1579366199
0.158265109118
0.1585961056
0.158927114568
0.159255902126
0.15958086467
0.159900795088
0.160214474442
0.160520343995
0.16081624575
0.161099369048
0.161366858232
0.161616651863
0.161846683233
0.16205111407
0.162215051823
0.162331333606
0.162422699731
0.1625282275
0.16265682427
0.162782977774
0.162888779302
0.162946083798
0.162925884896
0.162817438322
0.162618537711
0.162183711325
0.161485714106
0.160727999871
0.160040444872
0.159474433506
0.159025193158
0.158665744029
0.158370178968
0.158133269218
0.1579731692
0.157883795707
0.157848537118
0.150569074015
0.150578619698
0.150594789795
0.150624296911
0.150664498467
0.150690806488
0.150722332339
0.150764652115
0.150801999051
0.150864916813
0.15094802921
0.151039025174
0.151135309922
0.151225063943
0.151314276159
0.151412952875
0.151523776278
0.151631881532
0.151742700626
0.151862260004
0.15199652394
0.152147792548
0.152330119443
0.152528886378
0.152737728875
0.152990858561
0.153250091195
0.153514946057
0.153812633828
0.154106557603
0.154402297428
0.154684030354
0.154950392182
0.155217834727
0.155490858188
0.155771022886
0.156058076614
0.156352250526
0.156653875414
0.156963177485
0.15728086294
0.157606961013
0.157940092495
0.158278201792
0.158619004769
0.158960070024
0.15929929662
0.159635154295
0.159966355783
0.160291485578
0.160608864909
0.160916443415
0.161212169941
0.161494604893
0.1617627538
0.162012287988
0.162227279719
0.162385437544
0.16250059077
0.162620989488
0.162796716466
0.163002664149
0.163188491013
0.163358728085
0.163460979941
0.163440931967
0.16328261062
0.163014650683
0.162548806395
0.161704913976
0.160667359478
0.159734324044
0.15901416241
0.158497056649
0.158120934388
0.157802428499
0.157511823934
0.157328612687
0.157250087001
0.157229087724
0.150464262836
0.150471160054
0.150478795188
0.150512416168
0.150552528211
0.150585149855
0.150619879909
0.150667203178
0.150710554474
0.150771785579
0.150858926102
0.150951337266
0.151046034794
0.151132931424
0.151229740853
0.151337382578
0.151445646824
0.151550739975
0.151660175808
0.151778685681
0.151909760313
0.152055068524
0.152235970024
0.152459129625
0.152675487758
0.152913738125
0.15318899412
0.1534613662
0.15374732768
0.1540470489
0.154342676937
0.154619006314
0.154884135269
0.155157362581
0.155436596727
0.155722487049
0.156015244817
0.15631524751
0.156623345348
0.156939617332
0.157264775403
0.15759962102
0.157942951817
0.158292076138
0.158644277666
0.158997224813
0.159348987821
0.159697930929
0.160042344326
0.160380306084
0.160709654825
0.161028495525
0.161336156525
0.16163330854
0.161919708137
0.162181838796
0.162389379924
0.162529977857
0.162661679897
0.162859770994
0.163173145217
0.163485768833
0.163722987825
0.164012167324
0.164212366314
0.164197150205
0.163962748764
0.16356019296
0.162972313864
0.161926143774
0.160510091735
0.159217730325
0.15829485961
0.157749691511
0.157437457394
0.157116530541
0.156698277007
0.15649113876
0.156476724786
0.156512761152
0.150348753215
0.150356792038
0.150369600863
0.150392295349
0.150427107937
0.150463757234
0.150502611738
0.150552217234
0.150605948173
0.150668023001
0.150757754018
0.15085113581
0.150945204848
0.151030522187
0.151127472049
0.151243363875
0.151353583969
0.151458915095
0.151568276826
0.151686835237
0.151816758525
0.15195775984
0.152133769004
0.152368401137
0.152601348045
0.152837091957
0.153118097535
0.153399297676
0.153679622923
0.153977845928
0.154261448362
0.154533817804
0.154808773694
0.155089530499
0.155375554982
0.155667904624
0.15596746934
0.156273987919
0.156588604415
0.156912590423
0.157246398771
0.15759073214
0.157944982509
0.15830637635
0.158671753896
0.159038803273
0.159405762377
0.159770628253
0.160130829563
0.160483314028
0.160824889665
0.16115356104
0.161470596317
0.16177971628
0.162080439594
0.162332056445
0.162500480352
0.162615589744
0.162825326326
0.163204474326
0.163767048671
0.164212972875
0.164394554077
0.164921504178
0.165256196302
0.165211835415
0.164863033153
0.164252644339
0.163365536136
0.162056582793
0.160108872624
0.15829784386
0.15716489244
0.156715275775
0.156681037097
0.156404089866
0.155588361108
0.155361696296
0.155538006107
0.155721309087
0.150219204473
0.150228171955
0.150250266534
0.150263265556
0.150291571396
0.150329344438
0.150371517852
0.150425003583
0.150491584624
0.150553666346
0.150644328365
0.150738747386
0.150833288657
0.150920194232
0.151017948178
0.151136847335
0.151249180354
0.151356425314
0.151466920891
0.151585813633
0.151715724472
0.151856140136
0.152024413019
0.152254364948
0.152514283958
0.152759229798
0.153026665468
0.153328885409
0.153619380636
0.153894323416
0.154168530701
0.154443558839
0.154725274692
0.15501338506
0.155307054649
0.155606803139
0.155913337742
0.156227452086
0.156549682017
0.156881511326
0.157224683977
0.157579723569
0.157945948698
0.158320769825
0.158701056117
0.159084733088
0.159470185133
0.159854871491
0.16023461447
0.160603960606
0.160957844859
0.161294164274
0.161615366103
0.161929428092
0.162236218806
0.162418764367
0.162499825885
0.162619720945
0.163179287295
0.163820350393
0.164892389114
0.165211937298
0.164378465741
0.164563425267
0.16501772583
0.165164310248
0.165047096346
0.164734777105
0.164036395669
0.162079079391
0.159103594698
0.156791598589
0.154869401009
0.154867724745
0.155894785323
0.155874457793
0.153947219664
0.153733890086
0.154432006276
0.154970619694
0.150072849483
0.150080819252
0.150100449039
0.150115489586
0.150141037791
0.150180380679
0.150224082919
0.150276744519
0.150355759068
0.150426438961
0.150517219345
0.150613338982
0.15070968696
0.150800761465
0.150901043694
0.151020630534
0.15113430843
0.151244140106
0.151356484302
0.151476148803
0.151605979227
0.151747218734
0.151911269112
0.152133220196
0.152408972748
0.152671154149
0.152929791977
0.153224605358
0.153526836132
0.153805284948
0.15407292081
0.154347734805
0.154634428725
0.154929907509
0.155231323736
0.155538430884
0.155852629274
0.156174513047
0.156505268465
0.156845985346
0.157198984938
0.157565669984
0.157945234991
0.158334774601
0.158731339067
0.159134205801
0.159542818162
0.159953336111
0.160357450742
0.160746188181
0.161113819305
0.161455695276
0.161771352032
0.162074812495
0.162362207649
0.162345287621
0.162456582595
0.163017830527
0.164172711655
0.164111786282
0.164367165387
0.164808863665
0.164787672855
0.164627336352
0.16474497488
0.16470256539
0.164392380388
0.16376874604
0.16254357292
0.160407139834
0.15813304562
0.156312182581
0.15551920976
0.156060675422
0.158025245633
0.158420376307
0.149899499644
0.150324218825
0.153141737693
0.154638501388
0.149912046326
0.149918954377
0.14993875751
0.149953606414
0.149978834522
0.150018477417
0.150063174625
0.150112169398
0.15019196014
0.150277190928
0.150373120272
0.150472477176
0.150572128827
0.150671115462
0.150774323489
0.150894237669
0.151009197492
0.151122328986
0.151237055226
0.15135803578
0.151488110885
0.151629290064
0.151790597129
0.152003601653
0.152278521624
0.152569848194
0.152837304305
0.153118200259
0.153413728396
0.153690645272
0.153958529137
0.154240279526
0.154534170287
0.154837259304
0.155146945918
0.155462507541
0.155784622173
0.156114925489
0.156454501238
0.156805048927
0.157168643607
0.15754730506
0.157941405054
0.158347767503
0.158762565465
0.159187011491
0.159623473483
0.160066676369
0.160502132609
0.160916207852
0.161302838319
0.161650815211
0.161940821411
0.162169179909
0.162329825879
0.162263256522
0.162394998794
0.16293230483
0.163653195753
0.164218765841
0.164287488236
0.164431032155
0.164368336167
0.164158152109
0.164017082352
0.16377660074
0.163304475819
0.162547581378
0.161374570796
0.15969136449
0.157837692074
0.156259230546
0.155328890124
0.15507763588
0.155064988356
0.152652547125
0.151411029945
0.153178628407
0.153914701317
0.155264553818
0.149738954358
0.149744300839
0.149759710381
0.149776206486
0.149805683696
0.149845244376
0.149892323608
0.149939676671
0.150017816943
0.150111656789
0.150212131919
0.150314169236
0.150415539875
0.150525149858
0.150634855743
0.150754885746
0.150871715921
0.150989820284
0.151107816048
0.151230776147
0.151361657002
0.151502435311
0.151661523699
0.151867565679
0.152138416334
0.152447731306
0.152734720228
0.15301026972
0.153291816674
0.153562624753
0.153833486797
0.154121123076
0.154422109388
0.154732492562
0.15505082124
0.15537650973
0.155708446688
0.156047417007
0.156396745378
0.156757471621
0.157132321765
0.157524507505
0.157934593914
0.15835916735
0.158791787216
0.159239428469
0.159716914912
0.160213698246
0.160689434474
0.161135166038
0.161552853607
0.161920326737
0.162176418993
0.162280356267
0.162223833915
0.162099276576
0.162131880528
0.162818142122
0.163358365201
0.163702145331
0.163765755403
0.163759789228
0.163629498902
0.163365511335
0.163034000134
0.162582549185
0.161923126011
0.160999543892
0.159769074788
0.158216393838
0.156469546212
0.154814004753
0.15351330905
0.152574373572
0.151755443982
0.150548595425
0.150182919761
0.150942411154
0.152876887007
0.1594192435
0.149555996047
0.149560105266
0.149570361898
0.149588979333
0.149622214867
0.149661131299
0.149709735758
0.149760004369
0.149833892398
0.149931992455
0.150035241093
0.150138893891
0.150239790793
0.150354195113
0.150476203879
0.150599001265
0.150718297836
0.150842165598
0.150966175732
0.151092671305
0.151225698071
0.151365825627
0.151523097355
0.151723255002
0.151984761471
0.152290965634
0.152600248527
0.152885906948
0.153163256351
0.153430924181
0.153699310732
0.153991028557
0.154299059285
0.154613732878
0.154942358972
0.155279325735
0.155620250719
0.155969533043
0.156329961665
0.156703124547
0.15709033596
0.157495326362
0.157921020158
0.158368834485
0.158838816003
0.159335263988
0.159862170697
0.16039793754
0.160918097375
0.161432794598
0.161931994031
0.162405864848
0.162681066066
0.162659287917
0.162855629426
0.16211128281
0.16178490769
0.162475765137
0.162925984656
0.163083539709
0.163055365603
0.162907477486
0.162634805353
0.162228776124
0.161704724935
0.161040704422
0.160185025385
0.159096046619
0.157752997714
0.15617649049
0.154426442364
0.152613411876
0.150903783801
0.149354111608
0.147879946003
0.146336939948
0.145034259564
0.144640609476
0.146220247979
0.135818612408
0.149363719346
0.149367405326
0.149375961703
0.149397906108
0.149430806381
0.149467169649
0.149512868783
0.149568333396
0.149637773529
0.149737489355
0.149842748056
0.149947988165
0.150049736267
0.150164005055
0.150296193251
0.150425243102
0.15054879632
0.150677269086
0.150807999516
0.15094057211
0.151078549157
0.151218814473
0.151374372741
0.151570327177
0.151822831998
0.152122226401
0.152440149285
0.152739363364
0.153010041726
0.153274658978
0.153550653371
0.153843354173
0.15415624333
0.154480403528
0.154819977136
0.155167335603
0.155518367617
0.155879051909
0.156251672116
0.156638203635
0.157040046485
0.15746088167
0.157909669977
0.15839819785
0.158923824093
0.159465388391
0.16002449547
0.160602800505
0.161210737375
0.161866948587
0.162559130657
0.163374874697
0.163862382483
0.163101821824
0.162498498308
0.162484151375
0.162167225551
0.162270741915
0.162372329112
0.162312563256
0.162114729148
0.1617956725
0.161351481535
0.160773428613
0.160057369135
0.159185959153
0.158126704917
0.15684991405
0.155341356347
0.153612050039
0.151710597255
0.14963874637
0.147418839673
0.145093234571
0.142563560593
0.139606720086
0.136088550002
0.131584558856
0.125763513022
0.116661546939
0.149159453885
0.149163067344
0.149172043155
0.149198744242
0.149230532986
0.149263904632
0.149304440156
0.149363369169
0.149427064029
0.14952664981
0.149634001567
0.149741051605
0.149844842403
0.149960789715
0.150098221003
0.150233785039
0.150363283295
0.150496875587
0.150632611436
0.150771673489
0.150917235551
0.151059833644
0.151213502039
0.151406401373
0.151651270466
0.15194253475
0.152261921302
0.152568295384
0.152848342081
0.153110345679
0.153391375721
0.153689499544
0.15400191633
0.154325501634
0.154671862697
0.155035266597
0.155400763309
0.155775097236
0.156160152301
0.15656044164
0.156979469401
0.157421228021
0.157905987041
0.158449992291
0.159020207866
0.159593017724
0.160191080952
0.160854483048
0.16162283879
0.162511633927
0.163474718051
0.164944908499
0.163695833578
0.163200318926
0.1629692727
0.162520894433
0.162066207333
0.161826968413
0.161641282188
0.161367518836
0.160977349586
0.160467869837
0.159831520696
0.159057387383
0.158133976642
0.157044031309
0.155763046441
0.154266693031
0.152538658461
0.150575186542
0.148385951448
0.145954781686
0.143169287439
0.139937973711
0.136096756048
0.131212792958
0.12451383824
0.114163291656
0.095837117633
0.0530650469267
0.148937527648
0.148940898793
0.148952088038
0.148984654901
0.149015865027
0.149047035544
0.149084853339
0.14914361496
0.149201354223
0.149298580475
0.149407910335
0.149516829077
0.149622848889
0.149740523538
0.149881025197
0.150022513344
0.150160220657
0.150299686605
0.150439378638
0.15058402547
0.150738422119
0.150886564654
0.151038073886
0.151228132977
0.151467390749
0.151749498091
0.152063720175
0.152365593581
0.152659521124
0.152935605648
0.153216086217
0.1535124272
0.153832307939
0.154166546718
0.154509270263
0.154879164856
0.155261441162
0.155651456417
0.156053878282
0.156469612013
0.156904833142
0.15737820814
0.157919666633
0.158516331069
0.159115897029
0.159724080944
0.1604026481
0.161226993014
0.162203265197
0.163330190057
0.163886199171
0.164126029843
0.164204461755
0.16337418529
0.162765214172
0.162214238502
0.161684545045
0.161223150761
0.160777206497
0.160268133787
0.159660076288
0.158938493021
0.158090527627
0.157101887295
0.15595683893
0.154636211022
0.153116551739
0.151372827296
0.149381734198
0.147122382532
0.144571642527
0.141695340347
0.13832952122
0.134203005438
0.129054563583
0.122332445902
0.112942443107
0.0987302378715
0.0756638522835
0.0379264536739
0.148689996764
0.148693167035
0.148706429507
0.148744677234
0.148774968682
0.148807481162
0.148844406744
0.148900234155
0.148955094997
0.149051582697
0.149163147344
0.149273881249
0.149382058298
0.149500953088
0.149642592182
0.14978759701
0.149935601723
0.150082401796
0.150226228567
0.150375707732
0.150537919818
0.150695928852
0.150846657838
0.151032511934
0.151268140527
0.151542430943
0.151849586816
0.1521448589
0.152437241085
0.152732438747
0.153029453598
0.153327467906
0.153634763497
0.153973067687
0.154331331796
0.154706220775
0.155100184945
0.155505596591
0.155925042488
0.156359912922
0.15682153637
0.157345374952
0.157948992072
0.158582653196
0.159219114355
0.159901524488
0.160720056333
0.16174188408
0.162752486494
0.163533122519
0.163729143763
0.163783398819
0.163609446765
0.162981583251
0.162341944282
0.161716477816
0.161060468012
0.160397112232
0.159716425614
0.158977301281
0.158147838101
0.157208041517
0.15614105524
0.154929570996
0.153554646211
0.151994369674
0.150223031056
0.148211484554
0.145927395985
0.143333193702
0.140379530807
0.136991195885
0.133051155082
0.128216308516
0.122007107063
0.113913809922
0.102976981199
0.087571792037
0.0649521754555
0.0341145654501
0.148410017148
0.148415194301
0.148429035577
0.14846631586
0.148499481574
0.148538897087
0.148578844738
0.148634449338
0.148693717923
0.148784945436
0.148898138826
0.149010669419
0.149121039948
0.149240870408
0.149382328461
0.149527036579
0.149681000902
0.149838805208
0.149989704306
0.150145301383
0.150313002918
0.150483690033
0.150642603554
0.15081919149
0.151051739116
0.151320376505
0.151620445296
0.151910939606
0.152196961775
0.152500293204
0.152814217392
0.153127782346
0.153434937338
0.15376399781
0.154122505646
0.15450932668
0.154916911108
0.155339202895
0.155774051562
0.156230919203
0.156737964215
0.157328598766
0.157982377159
0.158655675361
0.159355285683
0.16014990356
0.161099676699
0.162106863526
0.163092684747
0.163325173351
0.163352708134
0.16325412664
0.162969945759
0.162413938719
0.161722244353
0.160973717139
0.160173320388
0.15933183755
0.158445726984
0.157492299554
0.156447293486
0.155290660718
0.154003813665
0.152567286795
0.150959462202
0.149155396013
0.147125769103
0.144836004738
0.142244761619
0.139300397567
0.135933813048
0.132045996682
0.127488307101
0.122039103599
0.115185131493
0.106248664243
0.0944692562887
0.0787343006115
0.057073658761
0.0300128752928
0.1481023746
0.148111372338
0.14812495364
0.148154808662
0.148194413462
0.148240919502
0.148286810262
0.148346661292
0.148415850503
0.148500659494
0.148612336483
0.148725887012
0.148838534807
0.148959516925
0.149101007705
0.149246060189
0.149399856228
0.149567071871
0.14972820044
0.149892279249
0.150065510062
0.150248283392
0.150425665302
0.150604594558
0.150822470808
0.151084816521
0.151378355808
0.151665221183
0.151943780295
0.152246197182
0.152567563545
0.152902980852
0.153222161003
0.153545115156
0.153896746972
0.154284387128
0.154702687439