/*--------------------------------*- C++ -*----------------------------------*\
| =========                 |                                                 |
| \\      /  F ield         | OpenFOAM: The Open Source CFD Toolbox           |
|  \\    /   O peration     | Version:  v1806                                 |
|   \\  /    A nd           | Web:      www.OpenFOAM.com                      |
|    \\/     M anipulation  |                                                 |
\*---------------------------------------------------------------------------*/
FoamFile
{
    version     2.0;
    format      ascii;
    class       surfaceScalarField;
    location    "191";
    object      phi;
}
// * * * * * * * * * * * * * * * * * * * * * * * * * * * * * * * * * * * * * //

dimensions      [0 3 -1 0 0 0 0];
oriented        oriented;


internalField   nonuniform List<scalar> 
12640
(
-1.79967845552e-07
1.79616376381e-07
-3.50120202907e-07
1.69807739786e-07
-5.04740489208e-07
1.5433871844e-07
-6.36467884075e-07
1.31461277252e-07
-7.27555723536e-07
9.08490972632e-08
-7.73129795366e-07
4.53835053143e-08
-7.95880850483e-07
2.25835365422e-08
-8.50872537044e-07
5.48355101238e-08
-9.41391527265e-07
9.03544759688e-08
-1.02395369096e-06
8.24030284742e-08
-1.09942705543e-06
7.53178623023e-08
-1.18650001293e-06
8.69188184371e-08
-1.26337528896e-06
7.67181492667e-08
-1.32021275309e-06
5.66867148576e-08
-1.36705800951e-06
4.67071134665e-08
-1.42589656938e-06
5.87279128125e-08
-1.48747835654e-06
6.14730640059e-08
-1.53174841167e-06
4.41678051487e-08
-1.55388898225e-06
2.2014150689e-08
-1.56342069497e-06
9.380632334e-09
-1.5908510819e-06
2.72578006093e-08
-1.64439075203e-06
5.33617421239e-08
-1.70808740814e-06
6.3510665221e-08
-1.77312085946e-06
6.48544133609e-08
-1.83212548057e-06
5.88280458612e-08
-1.88264544011e-06
5.03489086944e-08
-1.93061302664e-06
4.77901249722e-08
-1.97253304139e-06
4.1746101049e-08
-2.00459168194e-06
3.1875292922e-08
-2.02862644638e-06
2.38554267219e-08
-2.05277467768e-06
2.39567245419e-08
-2.07397089965e-06
2.10056946155e-08
-2.08466744885e-06
1.05027776432e-08
-2.09526208276e-06
1.0389459015e-08
-2.10356492858e-06
8.06406415915e-09
-2.10765473884e-06
3.84663215462e-09
-2.11652178603e-06
8.59719085803e-09
-2.12425493349e-06
7.43503382627e-09
-2.12601368897e-06
1.42733158273e-09
-2.13348322372e-06
7.11762448042e-09
-2.1745614486e-06
4.0712203291e-08
-2.22293450764e-06
4.80356752852e-08
-2.23349856686e-06
1.02370092546e-08
-2.22178873349e-06
-1.20422352321e-08
-2.20109629925e-06
-2.10354492764e-08
-2.17028309624e-06
-3.11607665141e-08
-2.13025779989e-06
-4.03852438068e-08
-2.07907117741e-06
-5.15479045355e-08
-2.01986112393e-06
-5.95773923371e-08
-1.97070989635e-06
-4.95139750325e-08
-1.94893993483e-06
-2.21528296051e-08
-1.92397868232e-06
-2.53439082372e-08
-1.83175461182e-06
-9.26223887385e-08
-1.6984445708e-06
-1.33764557738e-07
-1.54313336684e-06
-1.55773182893e-07
-1.34494297591e-06
-1.98656808908e-07
-1.15399965151e-06
-1.91482114929e-07
-9.86829203958e-07
-1.67826034208e-07
-7.94880732582e-07
-1.92733002672e-07
-5.75325912071e-07
-2.20468628977e-07
-3.37523101951e-07
-2.38872699325e-07
-7.71414988897e-08
-2.61617343033e-07
2.59498298034e-07
-3.38040013502e-07
5.05340226346e-07
-2.46851723606e-07
6.59380717373e-07
-1.5466211095e-07
7.65254649225e-07
-1.06318339541e-07
8.4404229083e-07
-7.91787559828e-08
9.10803902787e-07
-6.71829336284e-08
9.65241222895e-07
-5.4921438787e-08
9.99872979053e-07
-3.51855392582e-08
1.0079972081e-06
-8.70960494188e-09
9.84769237609e-07
2.2656997667e-08
9.27349853205e-07
5.6855358876e-08
8.24607054213e-07
1.02176700072e-07
7.09029399217e-07
1.15026611449e-07
5.8600749699e-07
1.22511546425e-07
4.86792347641e-07
9.86743414024e-08
3.5355024788e-07
1.32728710118e-07
2.18292088947e-07
1.34207102937e-07
2.17685774722e-07
-8.84562660338e-08
2.67811844536e-07
-2.05336395141e-07
2.86427333134e-07
-3.19663170503e-07
2.68430419723e-07
-4.43962879418e-07
2.55559941042e-07
-6.17461761329e-07
2.64161491604e-07
-7.60600096376e-07
1.88321303991e-07
-8.41653145475e-07
1.03454823516e-07
-9.10016572941e-07
1.23006891776e-07
-9.81977351582e-07
1.62135877605e-07
-1.06533798943e-06
1.65579824739e-07
-1.14631227303e-06
1.56127008626e-07
-1.20860171081e-06
1.49039651804e-07
-1.26441064931e-06
1.3238213965e-07
-1.31999621296e-06
1.12136217356e-07
-1.37377970628e-06
1.00383705317e-07
-1.43628229146e-06
1.21114855608e-07
-1.4850486658e-06
1.10148740251e-07
-1.48437920672e-06
4.3374964719e-08
-1.47649750326e-06
1.40044354188e-08
-1.49584199334e-06
2.85630242239e-08
-1.54521397167e-06
7.64526932802e-08
-1.63033445976e-06
1.38278840248e-07
-1.71673802004e-06
1.49732954966e-07
-1.77418145591e-06
1.22104922804e-07
-1.82625867489e-06
1.107346171e-07
-1.88789463737e-06
1.11797236993e-07
-1.93773163739e-06
9.7457643389e-08
-1.97416211695e-06
7.79854963827e-08
-2.00409801589e-06
6.16371401693e-08
-2.02850696319e-06
4.80670960439e-08
-2.04455613257e-06
3.98261492546e-08
-2.05494813972e-06
3.12087744509e-08
-2.0553236234e-06
1.06871965626e-08
-2.05762566441e-06
1.24695489867e-08
-2.07576522972e-06
2.59943923324e-08
-2.07968544527e-06
7.4926049258e-09
-2.08229496334e-06
1.09214818566e-08
-2.10638578336e-06
3.12141850321e-08
-2.138959362e-06
3.367508599e-08
-2.15294033506e-06
2.07251705315e-08
-2.0783155398e-06
-3.4255114178e-08
-1.96822474273e-06
-6.23758201819e-08
-1.92548710452e-06
-3.28011908721e-08
-1.92233378885e-06
-1.55224160247e-08
-1.92989140491e-06
-1.38039488921e-08
-1.9442919777e-06
-1.71114568627e-08
-1.95478670643e-06
-3.02408024599e-08
-1.96006611011e-06
-4.66372740726e-08
-1.9531389796e-06
-6.68727068311e-08
-1.90548705101e-06
-9.75425920063e-08
-1.79952269682e-06
-1.2847372856e-07
-1.69069231768e-06
-1.34526954008e-07
-1.68642194624e-06
-9.72802726645e-08
-1.6719374604e-06
-1.48692487259e-07
-1.57615521707e-06
-2.52009855302e-07
-1.48347457264e-06
-2.91854257986e-07
-1.36359646924e-06
-3.11998608019e-07
-1.18445862281e-06
-3.4772977683e-07
-9.76202320955e-07
-4.01915676246e-07
-7.25644089791e-07
-4.72125329017e-07
-4.09711854238e-07
-5.56030567112e-07
-8.99128399963e-08
-5.82693963615e-07
2.44919208448e-07
-6.74280939474e-07
4.90370232415e-07
-4.93286484634e-07
6.36606059712e-07
-3.01523199153e-07
7.25388722383e-07
-1.95529057847e-07
8.12661996585e-07
-1.66844942092e-07
9.01165681255e-07
-1.5610905013e-07
9.68953727077e-07
-1.23200533868e-07
1.00602291591e-06
-7.27995312908e-08
1.00379367984e-06
-7.05502153559e-09
9.64149964624e-07
6.17437114559e-08
9.13053446635e-07
1.07392049481e-07
8.63950586764e-07
1.50690153962e-07
7.88131043034e-07
1.90250164375e-07
6.95826137755e-07
2.1421474735e-07
5.71555198591e-07
2.22306330917e-07
4.36573902197e-07
2.66910574691e-07
2.3552912051e-07
3.34453940314e-07
4.5228534749e-07
-1.21242407852e-07
3.88906053047e-07
-1.72116549979e-07
3.37071266709e-07
-3.27551260722e-07
4.23631881866e-07
-5.19846736379e-07
4.47644842622e-07
-6.89769800202e-07
4.33896506767e-07
-7.65811502487e-07
2.64203139754e-07
-7.98570100797e-07
1.36027000402e-07
-8.73822443362e-07
1.98044229689e-07
-9.64774977797e-07
2.52873476821e-07
-1.0555745584e-06
2.56181562503e-07
-1.13934449547e-06
2.39716711126e-07
-1.20681655266e-06
2.16367428313e-07
-1.26327735279e-06
1.88725650183e-07
-1.31909137018e-06
1.67848043411e-07
-1.34873013267e-06
1.29925633361e-07
-1.27972621104e-06
5.20181260782e-08
-1.16773320693e-06
-1.94817975547e-09
-1.1388994049e-06
1.4431578984e-08
-1.1975192159e-06
7.24884017828e-08
-1.35473142044e-06
1.85608506276e-07
-1.53606997113e-06
2.57599997116e-07
-1.63689832704e-06
2.38920144464e-07
-1.69675288035e-06
2.09400149877e-07
-1.77325702969e-06
1.98431205539e-07
-1.84395199001e-06
1.81247643351e-07
-1.8926658579e-06
1.60338120483e-07
-1.93167627041e-06
1.36287125308e-07
-1.96632830862e-06
1.12462033691e-07
-1.99333195531e-06
8.84554320185e-08
-2.01632890708e-06
7.08859864712e-08
-2.02586978938e-06
4.91894365211e-08
-2.02835490725e-06
3.35070834015e-08
-2.03691919663e-06
1.90698415666e-08
-2.00992345694e-06
-1.47262775337e-08
-1.99458747468e-06
1.04092308331e-08
-2.03370922951e-06
4.63478874843e-08
-2.04244701462e-06
1.9359802594e-08
-2.04856824234e-06
3.70194309326e-08
-2.10769880758e-06
9.24624783994e-08
-2.16834372239e-06
8.10223516136e-08
-2.21532249245e-06
1.23670651574e-08
-2.24247026558e-06
-3.55793689796e-08
-2.23914245429e-06
-3.64913688543e-08
-2.22391701087e-06
-3.11108486304e-08
-2.20371262225e-06
-3.43847830168e-08
-2.17673029906e-06
-4.44717075501e-08
-2.14579100376e-06
-6.15680623063e-08
-2.10987339952e-06
-8.29413359061e-08
-2.06845778195e-06
-1.08677498643e-07
-2.02644867062e-06
-1.3993298318e-07
-1.98471067607e-06
-1.70595732775e-07
-1.92637175694e-06
-1.93258252757e-07
-1.80635494409e-06
-2.17700407258e-07
-1.67622848325e-06
-2.79235674207e-07
-1.59279975655e-06
-3.35889823847e-07
-1.50019702677e-06
-3.8499117279e-07
-1.35817814044e-06
-4.54661315706e-07
-1.17214230705e-06
-5.34536254213e-07
-9.51758294035e-07
-6.2321420793e-07
-7.01624430824e-07
-7.23327261589e-07
-4.37886723332e-07
-8.20969095265e-07
-1.13200832316e-07
-9.08747202435e-07
1.75005559172e-07
-9.63834028273e-07
4.01517372732e-07
-7.20677788508e-07
5.6997274684e-07
-4.70534274627e-07
7.12800122808e-07
-3.38785777037e-07
8.20500393838e-07
-2.74938444896e-07
8.93597781713e-07
-2.29616173653e-07
9.43366204726e-07
-1.73426423639e-07
9.69022700401e-07
-9.89708043655e-08
9.79932710818e-07
-1.85035659506e-08
9.92055493525e-07
4.90574990028e-08
9.85585210927e-07
1.13268350678e-07
9.3216542104e-07
2.03502421249e-07
8.28475626653e-07
2.93323459068e-07
7.00520963005e-07
3.41534702744e-07
5.70254707355e-07
3.51951425475e-07
4.45562016588e-07
3.91034102585e-07
2.00399333774e-07
5.78314375044e-07
6.52488239815e-07
-8.44670295291e-08
4.73128279381e-07
-1.0137800375e-07
3.53834270051e-07
-2.94696523266e-07
6.16736518244e-07
-4.41632428911e-07
5.94393256716e-07
-4.19034362131e-07
4.11161238137e-07
-3.33763393924e-07
1.7885662099e-07
-4.72773830474e-07
2.74903570225e-07
-7.30663061133e-07
4.55701658668e-07
-9.11077850928e-07
4.33058408327e-07
-1.02828566476e-06
3.73188392506e-07
-1.12741304165e-06
3.38687929524e-07
-1.20616274228e-06
2.95000111949e-07
-1.24532024354e-06
2.27791606934e-07
-1.19498690898e-06
1.17441333761e-07
-1.08580110196e-06
2.06581484304e-08
-1.03335435614e-06
-5.36378579633e-10
-1.07342447407e-06
3.79995298168e-08
-1.20103955285e-06
1.41900164005e-07
-1.39255864264e-06
2.63835969605e-07
-1.52763088931e-06
3.20500160244e-07
-1.58584069045e-06
3.15629801238e-07
-1.65156813954e-06
3.0446172331e-07
-1.72659056448e-06
2.84241756301e-07
-1.78688067947e-06
2.58542334342e-07
-1.83733628831e-06
2.31534325559e-07
-1.87986938981e-06
2.02697834087e-07
-1.92015195956e-06
1.76402902894e-07
-1.95292292568e-06
1.45054158241e-07
-1.98162005887e-06
1.16980425698e-07
-1.99611447924e-06
8.52092709671e-08
-2.01031603553e-06
6.32183517398e-08
-2.00383491335e-06
2.68647067383e-08
-1.97238182827e-06
-1.25741122963e-08
-1.99711594152e-06
9.77825642773e-09
-2.0079657482e-06
2.10074313504e-08
-2.01402036498e-06
5.21141767173e-08
-2.10074885388e-06
1.05766341237e-07
-2.18036729777e-06
1.16296826108e-07
-2.19811026948e-06
1.09867671239e-07
-2.19823025455e-06
8.07922011648e-08
-2.21364370179e-06
2.74217354426e-08
-2.23281512013e-06
-1.67757874443e-08
-2.23524866013e-06
-3.44235277526e-08
-2.22431084502e-06
-4.24212203393e-08
-2.20560954308e-06
-5.34609231539e-08
-2.18060020295e-06
-6.98648670495e-08
-2.15086193081e-06
-9.16929931411e-08
-2.11631068579e-06
-1.17885448149e-07
-2.07687961979e-06
-1.48499505005e-07
-2.03343640294e-06
-1.83767042667e-07
-1.98286463085e-06
-2.21553052689e-07
-1.91550959585e-06
-2.60998526755e-07
-1.82501447977e-06
-3.0858904563e-07
-1.73258064047e-06
-3.72081465199e-07
-1.63114464254e-06
-4.37784353795e-07
-1.50414899582e-06
-5.12521150565e-07
-1.34753364751e-06
-6.11921937411e-07
-1.15455118383e-06
-7.28293256326e-07
-9.25532101488e-07
-8.53130867199e-07
-6.70753155754e-07
-9.79111473886e-07
-4.00832317287e-07
-1.09199977863e-06
-1.3298318087e-07
-1.17776843047e-06
7.48223012145e-08
-1.17267169086e-06
3.43663627825e-07
-9.90349098751e-07
5.61620094258e-07
-6.89097775821e-07
6.95050793016e-07
-4.72654450028e-07
8.00079989911e-07
-3.80349812779e-07
8.90641027274e-07
-3.20571911018e-07
9.64378043258e-07
-2.47598049746e-07
1.02334448738e-06
-1.58430664085e-07
1.06569003618e-06
-6.14156226699e-08
1.06723757529e-06
4.69066550534e-08
9.96539618455e-07
1.83388290252e-07
8.84122634726e-07
3.15365797308e-07
7.64275670916e-07
4.12608872357e-07
6.15216246211e-07
4.9001690334e-07
4.44782194312e-07
5.21855328638e-07
3.08182777121e-07
5.27020862322e-07
1.6113623504e-07
7.25143594219e-07
8.13036543619e-07
-7.8782277655e-09
4.80947142438e-07
-9.35629067526e-08
4.39391278441e-07
-2.53653279046e-07
7.76668767823e-07
-3.37285336403e-07
6.77908649434e-07
-2.85422010082e-07
3.59204685785e-07
-3.5306236251e-07
2.46394730502e-07
-5.62184456131e-07
4.83843903727e-07
-7.34107637058e-07
6.27410565236e-07
-8.61546181731e-07
5.6028494122e-07
-9.81396021268e-07
4.92867878636e-07
-1.09061838074e-06
4.47789888323e-07
-1.11927114469e-06
3.23563770266e-07
-1.04512142266e-06
1.53578492214e-07
-9.83690653304e-07
5.59309179878e-08
-1.01123548417e-06
4.80876179878e-08
-1.10724188964e-06
9.53310660976e-08
-1.26326924284e-06
1.93864399743e-07
-1.41975050133e-06
2.98201653816e-07
-1.49309578004e-06
3.37006651823e-07
-1.52297613344e-06
3.50208999009e-07
-1.58590362459e-06
3.7838082097e-07
-1.65986408602e-06
3.7824394207e-07
-1.7249817687e-06
3.49185033215e-07
-1.77872409244e-06
3.12120072404e-07
-1.82506195586e-06
2.77706328144e-07
-1.87039540427e-06
2.47874945347e-07
-1.90232348241e-06
2.08159638105e-07
-1.93556789458e-06
1.78135991871e-07
-1.95378875441e-06
1.3504284651e-07
-1.97038517727e-06
1.01647583356e-07
-1.9619005644e-06
5.45777880973e-08
-1.96654375258e-06
3.13311198612e-08
-2.01248401834e-06
3.31613244044e-08
-2.00543587924e-06
2.48021383838e-09
-2.03621929131e-06
5.1502653544e-08
-2.11447879491e-06
1.3005647164e-07
-2.16400648327e-06
1.54966944759e-07
-2.1934601747e-06
1.45422151767e-07
-2.20478415092e-06
1.20854144404e-07
-2.20935567634e-06
8.50153912968e-08
-2.22087718479e-06
3.85810143006e-08
-2.23399735619e-06
-4.02507642756e-09
-2.2367835924e-06
-3.20134851124e-08
-2.22807665433e-06
-5.15070685082e-08
-2.21101163162e-06
-7.09112240101e-08
-2.18758015065e-06
-9.36859996793e-08
-2.15896483037e-06
-1.20705149579e-07
-2.12534421872e-06
-1.51905460786e-07
-2.0864695281e-06
-1.87775705636e-07
-2.04163595062e-06
-2.28995700559e-07
-1.98791205621e-06
-2.75665621688e-07
-1.92056953935e-06
-3.28722213991e-07
-1.83855953977e-06
-3.9098188082e-07
-1.74727403736e-06
-4.63777002804e-07
-1.64001477203e-06
-5.45499046579e-07
-1.50644595146e-06
-6.4663701039e-07
-1.34161191382e-06
-7.77417678475e-07
-1.14020576227e-06
-9.30467669977e-07
-9.04274087441e-07
-1.08993227527e-06
-6.47999744504e-07
-1.236329314e-06
-3.89886637121e-07
-1.35108903304e-06
-1.62552333505e-07
-1.40603650294e-06
6.58334475397e-10
-1.33677365187e-06
3.12298203893e-07
-1.30281278567e-06
5.52566528638e-07
-9.29955352762e-07
7.07718604854e-07
-6.28254257989e-07
8.21515679031e-07
-4.94544258761e-07
9.16684145788e-07
-4.16117792878e-07
1.00143456132e-06
-3.32771631062e-07
1.08062250267e-06
-2.38127338741e-07
1.12220534391e-06
-1.03579711673e-07
1.07443481919e-06
9.41125094579e-08
9.72672532977e-07
2.84638328147e-07
8.60241016141e-07
4.27299836544e-07
7.24915897126e-07
5.47399777054e-07
5.60899621119e-07
6.53503805933e-07
4.25859676418e-07
6.564937699e-07
2.86906247035e-07
6.65756617112e-07
1.28843523943e-07
8.82235090204e-07
9.41837514201e-07
-1.71897487527e-09
4.82539121169e-07
-1.27889135348e-07
5.65463335043e-07
-2.0649899483e-07
8.55155684802e-07
-2.39092832366e-07
7.10387532415e-07
-2.18200705714e-07
3.38238004565e-07
-4.11086527807e-07
4.3914955724e-07
-6.32818062328e-07
7.05383732212e-07
-7.26335906632e-07
7.20724924305e-07
-8.23368453121e-07
6.57156806941e-07
-9.05288267785e-07
5.7465835845e-07
-9.18876664157e-07
4.61278388383e-07
-8.32019734808e-07
2.36651849947e-07
-8.08902438599e-07
1.30387338757e-07
-8.73351932837e-07
1.20274459876e-07
-9.92218201731e-07
1.66816080332e-07
-1.17543090578e-06
2.78372128529e-07
-1.35218324948e-06
3.70433520358e-07
-1.41899896408e-06
3.64852009787e-07
-1.44157091519e-06
3.5941755991e-07
-1.51647238252e-06
4.24941049334e-07
-1.5959434677e-06
4.57679252331e-07
-1.65644992273e-06
4.38581550349e-07
-1.71241458177e-06
4.04986810919e-07
-1.7693479915e-06
3.68891649241e-07
-1.8185076064e-06
3.26715076771e-07
-1.83679861211e-06
2.6600930362e-07
-1.87225666495e-06
2.43468885381e-07
-1.89302370392e-06
1.98753985945e-07
-1.91310672854e-06
1.54971128559e-07
-1.89718322503e-06
8.557545226e-08
-1.89027465103e-06
4.75132564971e-08
-1.90481119568e-06
4.56814990746e-08
-1.91174516543e-06
3.98730020763e-08
-2.00514579906e-06
9.56098886194e-08
-2.10144063269e-06
1.47482385391e-07
-2.15598046041e-06
1.84275204848e-07
-2.18447713462e-06
1.83144216645e-07
-2.20105247771e-06
1.61675477424e-07
-2.21106965927e-06
1.30540571081e-07
-2.21901457396e-06
9.26136319934e-08
-2.22924190639e-06
4.84450123472e-08
-2.23887740891e-06
5.23458336846e-09
-2.2411061654e-06
-3.01672358181e-08
-2.23375168232e-06
-5.92497802909e-08
-2.21818356299e-06
-8.68733616392e-08
-2.19602035895e-06
-1.16250839627e-07
-2.1682874751e-06
-1.4884584087e-07
-2.13511976803e-06
-1.85486676495e-07
-2.09608753965e-06
-2.27221227326e-07
-2.05024542607e-06
-2.75248737423e-07
-1.99566404045e-06
-3.30644694113e-07
-1.93008730689e-06
-3.94690720336e-07
-1.85259658272e-06
-4.6886869838e-07
-1.76207918223e-06
-5.54705530455e-07
-1.65137610514e-06
-6.56690598026e-07
-1.51254239198e-06
-7.86043795792e-07
-1.34164093665e-06
-9.48989866837e-07
-1.13718369308e-06
-1.13569362677e-06
-9.02177841921e-07
-1.32575829523e-06
-6.51360162828e-07
-1.48799558187e-06
-4.14831236128e-07
-1.5884526908e-06
-2.19165792888e-07
-1.60250999138e-06
-2.34322324228e-08
-1.53327405918e-06
2.49574667252e-07
-1.57655116035e-06
4.93613503737e-07
-1.17459953049e-06
6.69812679523e-07
-8.04927084099e-07
8.2538076756e-07
-6.50510503365e-07
9.60588042367e-07
-5.51748800111e-07
1.08166677967e-06
-4.54280770062e-07
1.17183291309e-06
-3.28775306258e-07
1.16554265323e-06
-9.77940639688e-08
1.08222645268e-06
1.76966780887e-07
9.82059474414e-07
3.8436742324e-07
8.63104131593e-07
5.45782979583e-07
7.16553119764e-07
6.93468509569e-07
5.69378934175e-07
8.00244213006e-07
4.23995691148e-07
8.01506985114e-07
2.79133546624e-07
8.10006193256e-07
1.37987627786e-07
1.02336175201e-06
1.07928275089e-06
-4.54718050305e-08
5.27962956122e-07
-2.06681636572e-07
7.26572103124e-07
-2.72737556009e-07
9.21118782341e-07
-2.14299490852e-07
6.51855799141e-07
-2.7281818243e-07
3.96657110334e-07
-5.12039227924e-07
6.78206494983e-07
-6.36699156895e-07
8.29851988657e-07
-7.08688150511e-07
7.92567114761e-07
-7.5878481044e-07
7.07110852969e-07
-8.37083201149e-07
6.52867576061e-07
-7.90420706046e-07
4.1454811477e-07
-7.4327374704e-07
1.89439016206e-07
-8.00608889335e-07
1.87625839491e-07
-8.91832955004e-07
2.11364749269e-07
-1.05877217394e-06
3.3358665342e-07
-1.24731467529e-06
4.66737899728e-07
-1.31555040518e-06
4.38510633566e-07
-1.33279949178e-06
3.81949380335e-07
-1.42351990574e-06
4.49973412655e-07
-1.52033627685e-06
5.21587999898e-07
-1.58903662546e-06
5.26215522858e-07
-1.6491067421e-06
4.98491970902e-07
-1.70592225403e-06
4.61641049191e-07
-1.74577430235e-06
4.08597719736e-07
-1.76824948769e-06
3.49046858753e-07
-1.79567614368e-06
2.93293797375e-07
-1.8046418968e-06
2.52288157088e-07
-1.83112335286e-06
2.25088688468e-07
-1.83177720219e-06
1.5548577181e-07
-1.81770738895e-06
7.13624387976e-08
-1.84079634845e-06
7.04239269869e-08
-1.88031854243e-06
8.5008382783e-08
-1.94910021845e-06
1.08411177127e-07
-2.03485677475e-06
1.8107512028e-07
-2.13047583509e-06
2.42790068475e-07
-2.1737199109e-06
2.27207439447e-07
-2.19354577998e-06
2.02658302922e-07
-2.2074712899e-06
1.752829694e-07
-2.21928804762e-06
1.42026331437e-07
-2.22947197417e-06
1.02449351942e-07
-2.23926133275e-06
5.78697086256e-08
-2.2469929776e-06
1.25875971371e-08
-2.24854590674e-06
-2.90034007226e-08
-2.24185139377e-06
-6.6343129067e-08
-2.22732720391e-06
-1.01806048615e-07
-2.20606378583e-06
-1.37932886959e-07
-2.17877509125e-06
-1.76562917863e-07
-2.14552770442e-06
-2.19169001778e-07
-2.10600862179e-06
-2.67179571956e-07
-2.05963252126e-06
-3.22052530412e-07
-2.00539905554e-06
-3.85300995629e-07
-1.94195603962e-06
-4.5853726008e-07
-1.86747469106e-06
-5.43748040067e-07
-1.778107278e-06
-6.4453470206e-07
-1.6667774872e-06
-7.68522719927e-07
-1.52718027565e-06
-9.26243282906e-07
-1.35632968718e-06
-1.12052193293e-06
-1.15336516479e-06
-1.33937135649e-06
-9.21672303063e-07
-1.55819677592e-06
-6.784546783e-07
-1.7319675637e-06
-4.68815418555e-07
-1.79887332141e-06
-2.96849824852e-07
-1.77523712428e-06
-7.3303035432e-08
-1.75756098751e-06
9.52847831551e-08
-1.74591950811e-06
4.1788419295e-07
-1.49786306759e-06
6.51050760674e-07
-1.03854960987e-06
8.72431458414e-07
-8.72383770605e-07
1.0710843854e-06
-7.50827102957e-07
1.21690132314e-06
-6.00515617777e-07
1.26715291558e-06
-3.79419550755e-07
1.2173100161e-06
-4.83210000586e-08
1.13429298091e-06
2.59634672462e-07
1.02922840553e-06
4.89038775828e-07
8.94687903728e-07
6.79910774415e-07
7.40673609954e-07
8.47034162456e-07
6.09179250603e-07
9.31312031418e-07
4.42489128964e-07
9.67796930388e-07
2.76085957393e-07
9.76274097721e-07
1.50024641206e-07
1.14838192015e-06
1.2292933416e-06
-8.87282503435e-08
6.16562419931e-07
-2.40815598994e-07
8.7856274127e-07
-2.56993617153e-07
9.37183704081e-07
-1.53407429484e-07
5.4819647454e-07
-3.19591602317e-07
5.6272996759e-07
-5.30677714248e-07
8.8912050379e-07
-6.0852424846e-07
9.07555121007e-07
-6.87844829883e-07
8.71749311178e-07
-6.73575783591e-07
6.92765879418e-07
-6.8341618505e-07
6.62611953663e-07
-6.29830839164e-07
3.60906217244e-07
-7.17950601568e-07
2.77469990918e-07
-7.97270690603e-07
2.66827336886e-07
-9.34155005175e-07
3.48105114212e-07
-1.11861995014e-06
5.17875376269e-07
-1.20583544824e-06
5.53785229112e-07
-1.22127597755e-06
4.53811878465e-07
-1.31426526596e-06
4.74788231832e-07
-1.42939593544e-06
5.64937356891e-07
-1.50654784193e-06
5.98574876246e-07
-1.56615305644e-06
5.85662411462e-07
-1.62360639241e-06
5.55786112372e-07
-1.68777676865e-06
5.25669792869e-07
-1.74569142211e-06
4.66375949561e-07
-1.75554862059e-06
3.58765820676e-07
-1.78793678094e-06
3.25549890488e-07
-1.80068183905e-06
2.64894790051e-07
-1.77290690349e-06
1.9717513952e-07
-1.77366191795e-06
1.5610044243e-07
-1.85946854138e-06
1.57006721099e-07
-1.90385081616e-06
1.14624207413e-07
-1.89695013568e-06
7.78827038982e-08
-1.98735907176e-06
1.98559568781e-07
-2.10178082186e-06
2.95199792052e-07
-2.14914876641e-06
2.89855703375e-07
-2.17885941354e-06
2.56615400748e-07
-2.19930511975e-06
2.2279661484e-07
-2.21521546597e-06
1.90877290155e-07
-2.22916849444e-06
1.55648684611e-07
-2.24122594293e-06
1.1415908104e-07
-2.2511606378e-06
6.74380039817e-08
-2.2578708462e-06
1.89161479605e-08
-2.2589864261e-06
-2.82840411385e-08
-2.25270538643e-06
-7.30329670083e-08
-2.23882796641e-06
-1.16106638931e-07
-2.21795899949e-06
-1.59238565972e-07
-2.19053422753e-06
-2.04438165766e-07
-2.15662894926e-06
-2.53536625342e-07
-2.11626213589e-06
-3.08008439714e-07
-2.06948400987e-06
-3.69300478347e-07
-2.01603746685e-06
-4.39188684184e-07
-1.95495529438e-06
-5.20059899336e-07
-1.88374710657e-06
-6.15423102134e-07
-1.79753387081e-06
-7.31203384926e-07
-1.6899656537e-06
-8.76690521883e-07
-1.55603910551e-06
-1.06078691651e-06
-1.39269696374e-06
-1.28448951562e-06
-1.19560960253e-06
-1.53707506031e-06
-9.60592655545e-07
-1.7938549055e-06
-7.14887031107e-07
-1.97836550928e-06
-5.18626942395e-07
-1.9958909618e-06
-3.55488149712e-07
-1.93914033788e-06
-1.97146706402e-07
-1.91668753125e-06
-4.31454508622e-08
-1.9007455147e-06
2.85005478261e-07
-1.8267198329e-06
6.48136868785e-07
-1.40233895539e-06
9.2965792755e-07
-1.15434907041e-06
1.17193913066e-06
-9.93596461529e-07
1.32659403248e-06
-7.55530507486e-07
1.36057752466e-06
-4.13712504242e-07
1.31490983101e-06
-2.91164494013e-09
1.2306767627e-06
3.43558492356e-07
1.10470812806e-06
6.14662881926e-07
9.50378071121e-07
8.33785487758e-07
7.98695032585e-07
9.98271462699e-07
6.5144577936e-07
1.07812528092e-06
4.75195016239e-07
1.14363884747e-06
2.75135201243e-07
1.17557410176e-06
1.39146265382e-07
1.28443748412e-06
1.36801384479e-06
-1.22124125987e-07
7.38623048987e-07
-2.41086112455e-07
9.97420208889e-07
-2.02740297525e-07
8.9876614643e-07
-2.04141917772e-07
5.49520014929e-07
-4.0919982823e-07
7.67667785126e-07
-4.98068804058e-07
9.77849561381e-07
-5.69497935445e-07
9.78870903397e-07
-6.38921978271e-07
9.4108318584e-07
-6.44373999164e-07
6.98127644343e-07
-6.55837097486e-07
6.7399923392e-07
-6.56497731171e-07
3.61486207599e-07
-7.29364438014e-07
3.50239491569e-07
-8.24953366767e-07
3.62284791708e-07
-9.9007864461e-07
5.13062298343e-07
-1.15239318105e-06
6.80029226878e-07
-1.18553014119e-06
5.86783053476e-07
-1.22013646034e-06
4.88278903696e-07
-1.31890465921e-06
5.73397930256e-07
-1.41644241694e-06
6.62309991665e-07
-1.48862105792e-06
6.70590589134e-07
-1.54574342355e-06
6.42619857795e-07
-1.58712007011e-06
5.97023470672e-07
-1.6204831169e-06
5.58905117599e-07
-1.65494381123e-06
5.00715351771e-07
-1.6838728472e-06
3.87583134481e-07
-1.69975677724e-06
3.41302924496e-07
-1.74553256325e-06
3.10541507469e-07
-1.79793075232e-06
2.49434504842e-07
-1.83896435832e-06
1.96996479722e-07
-1.86002539121e-06
1.77904250084e-07
-1.90474356838e-06
1.59137676688e-07
-2.0220975821e-06
1.94985139568e-07
-2.08699746421e-06
2.63172611221e-07
-2.12638613389e-06
3.34294243951e-07
-2.1578613669e-06
3.21040472384e-07
-2.18457100905e-06
2.83030551081e-07
-2.20684728327e-06
2.44769644248e-07
-2.22485794067e-06
2.08571601965e-07
-2.24031857346e-06
1.70778026998e-07
-2.25387594208e-06
1.27366749634e-07
-2.26473908475e-06
7.79346144458e-08
-2.27147836175e-06
2.52703275506e-08
-2.2725284026e-06
-2.76357662207e-08
-2.26661943859e-06
-7.93633409305e-08
-2.25313755141e-06
-1.30028215055e-07
-2.23210014916e-06
-1.80737182988e-07
-2.2037971355e-06
-2.33222086101e-07
-2.16852752002e-06
-2.89302511446e-07
-2.12676875261e-06
-3.50283870223e-07
-2.07925933451e-06
-4.17298431166e-07
-2.02662212498e-06
-4.92331468962e-07
-1.96836846815e-06
-5.78797467536e-07
-1.90195255393e-06
-6.82271891856e-07
-1.82267039492e-06
-8.11112413677e-07
-1.72473551095e-06
-9.75155485712e-07
-1.60361276863e-06
-1.18246399432e-06
-1.45325146045e-06
-1.43529689236e-06
-1.26112278546e-06
-1.72966303375e-06
-1.0151974471e-06
-2.04030428261e-06
-7.73446379152e-07
-2.2208441861e-06
-6.1286757958e-07
-2.15730405594e-06
-4.78252451945e-07
-2.07463765429e-06
-3.2499358062e-07
-2.07082695353e-06
-1.32660248915e-07
-2.09384113656e-06
1.1036097612e-07
-2.07064674173e-06
5.68782586764e-07
-1.86130764742e-06
1.02850137889e-06
-1.61474295603e-06
1.31903868495e-06
-1.28450893382e-06
1.48690689486e-06
-9.23762112485e-07
1.52035885494e-06
-4.47396541087e-07
1.47800078983e-06
3.91829177052e-08
1.36950475543e-06
4.51763869471e-07
1.20195345716e-06
7.81747086564e-07
1.01694786766e-06
1.01833264637e-06
8.53776378367e-07
1.16092593023e-06
6.8086257385e-07
1.25048551143e-06
4.90796834905e-07
1.33317468888e-06
2.75637694044e-07
1.39064494077e-06
1.16579767591e-07
1.44267528424e-06
1.48468607261e-06
-1.49817975454e-07
8.88289026325e-07
-2.55209328904e-07
1.10268562518e-06
-1.86423450084e-07
8.29889779512e-07
-2.56347085386e-07
6.19366009704e-07
-4.39744124421e-07
9.50949933324e-07
-4.55604475544e-07
9.93619995073e-07
-5.20676601314e-07
1.04382776351e-06
-5.30067164155e-07
9.50402015235e-07
-5.82984838647e-07
7.50973289825e-07
-5.61596544579e-07
6.52527005025e-07
-6.35939902186e-07
4.3574859293e-07
-7.29609407789e-07
4.43790707361e-07
-8.39617714604e-07
4.72165930843e-07
-9.95633948389e-07
6.68927139472e-07
-1.0794759277e-06
7.63715799542e-07
-1.08661008597e-06
5.93794061342e-07
-1.1823572376e-06
5.83887536148e-07
-1.2962446523e-06
6.87126640044e-07
-1.38584879072e-06
7.51750750115e-07
-1.46385503269e-06
7.48434298684e-07
-1.53110565617e-06
7.09733815946e-07
-1.5882880709e-06
6.54071312924e-07
-1.60815614329e-06
5.78646376951e-07
-1.61598833418e-06
5.08438978024e-07
-1.67886947997e-06
4.50350393465e-07
-1.69459183755e-06
3.56900385687e-07
-1.66782166884e-06
2.83655675239e-07
-1.67580335656e-06
2.57295394277e-07
-1.73659872575e-06
2.57641846675e-07
-1.83633809144e-06
2.77470504105e-07
-1.92049143284e-06
2.43076020988e-07
-1.99408998531e-06
2.68324755871e-07
-2.09505946054e-06
3.6384572871e-07
-2.13847642284e-06
3.77426983691e-07
-2.16624718279e-06
3.4852930687e-07
-2.19303488179e-06
3.09528015169e-07
-2.21721646555e-06
2.68647890421e-07
-2.23710862255e-06
2.28147388509e-07
-2.25357181494e-06
1.86908907921e-07
-2.26802392077e-06
1.41470884315e-07
-2.27998371068e-06
8.95272799868e-08
-2.28760756046e-06
3.25085794024e-08
-2.28923973e-06
-2.64114957785e-08
-2.28380086371e-06
-8.5231433932e-08
-2.27057818382e-06
-1.43706931328e-07
-2.24909148458e-06
-2.02704264764e-07
-2.21925015786e-06
-2.63571208908e-07
-2.18160894562e-06
-3.27478445513e-07
-2.13737794323e-06
-3.95042907664e-07
-2.08829580389e-06
-4.66952886928e-07
-2.0360292487e-06
-5.45115448953e-07
-1.9812077749e-06
-6.34111828406e-07
-1.92217431323e-06
-7.41968365119e-07
-1.85447799228e-06
-8.79279315443e-07
-1.77293712538e-06
-1.05731570379e-06
-1.67184670519e-06
-1.2839819597e-06
-1.53868946061e-06
-1.56874205583e-06
-1.34644040976e-06
-1.92224389337e-06
-1.09567302217e-06
-2.29165201072e-06
-9.09973958506e-07
-2.40747372797e-06
-8.02103810539e-07
-2.26621276137e-06
-6.61583877276e-07
-2.21605578339e-06
-4.7325540036e-07
-2.25995564836e-06
-2.21013803717e-07
-2.34698266677e-06
9.25635980745e-08
-2.38479186892e-06
5.65980095164e-07
-2.33554921985e-06
1.08941860755e-06
-2.13857646756e-06
1.46925931587e-06
-1.66485853301e-06
1.67321883803e-06
-1.12802833228e-06
1.74895123974e-06
-5.2340328786e-07
1.70606631575e-06
8.17615039671e-08
1.54255215547e-06
6.14844767933e-07
1.30896725569e-06