/*--------------------------------*- C++ -*----------------------------------*\
| =========                 |                                                 |
| \\      /  F ield         | OpenFOAM: The Open Source CFD Toolbox           |
|  \\    /   O peration     | Version:  v1806                                 |
|   \\  /    A nd           | Web:      www.OpenFOAM.com                      |
|    \\/     M anipulation  |                                                 |
\*---------------------------------------------------------------------------*/
FoamFile
{
    version     2.0;
    format      ascii;
    class       volVectorField;
    location    "191";
    object      U;
}
// * * * * * * * * * * * * * * * * * * * * * * * * * * * * * * * * * * * * * //

dimensions      [0 1 -1 0 0 0 0];


internalField   nonuniform List<vector> 
6400
(
(-8.11911435152e-05 -0.000110232611079 0)
(-0.00022548962703 -8.78485232364e-05 0)
(-0.00033230825029 -7.42069067635e-05 0)
(-0.00045962599509 -6.7842661328e-05 0)
(-0.000548971099358 -3.94805185005e-05 0)
(-0.000609695936245 -1.50646383913e-05 0)
(-0.000627578966028 -6.37531514798e-06 0)
(-0.000636053702314 -1.96583861863e-05 0)
(-0.000720341743876 -3.52197379111e-05 0)
(-0.00081162865427 -3.27032755542e-05 0)
(-0.00082421116579 -2.87424514752e-05 0)
(-0.000910179400001 -3.48985261719e-05 0)
(-0.000982621406479 -3.14158178568e-05 0)
(-0.00103921259307 -2.28463190392e-05 0)
(-0.00107148323314 -1.82650188762e-05 0)
(-0.00110775709551 -2.2686024796e-05 0)
(-0.00116328567249 -2.40089243258e-05 0)
(-0.00120548865163 -1.90532462176e-05 0)
(-0.00122579512336 -1.03002210886e-05 0)
(-0.00123651413207 -3.67789664048e-06 0)
(-0.00125716489282 -1.0466324651e-05 0)
(-0.0012953716297 -2.03421525679e-05 0)
(-0.00134495435417 -2.42887491763e-05 0)
(-0.00139045533224 -2.59888533089e-05 0)
(-0.00143553491232 -2.3956447582e-05 0)
(-0.00147697584186 -1.96418080282e-05 0)
(-0.00151990138177 -1.88756512232e-05 0)
(-0.00155920233323 -1.68238068469e-05 0)
(-0.00158857742481 -1.27805894034e-05 0)
(-0.00160964413825 -9.48461884992e-06 0)
(-0.00162198329211 -9.80806890543e-06 0)
(-0.00163936508556 -8.78078876905e-06 0)
(-0.00165645471366 -4.57424038039e-06 0)
(-0.00166439827369 -4.32390831762e-06 0)
(-0.00166752599225 -2.7082775513e-06 0)
(-0.0016819069778 -1.55066869466e-06 0)
(-0.00169590020351 -3.62483823221e-06 0)
(-0.00167521343018 -2.23907238704e-06 0)
(-0.00168281402693 5.95666196228e-07 0)
(-0.00170577726644 -2.80799951649e-06 0)
(-0.00173052245381 -2.08297436681e-05 0)
(-0.00175216989054 -2.68004438003e-05 0)
(-0.00176893057621 -6.58057129712e-06 0)
(-0.00177085463519 5.59664327076e-06 0)
(-0.00175847685757 1.02614805967e-05 0)
(-0.00173999096921 1.51738164001e-05 0)
(-0.00171360859246 1.90679146324e-05 0)
(-0.0016772831874 2.37198192672e-05 0)
(-0.0016332862374 2.62584096776e-05 0)
(-0.00158594390151 1.96135726253e-05 0)
(-0.00154511827602 5.38318149667e-06 0)
(-0.00154796259495 7.53718159044e-06 0)
(-0.00149669499421 4.45739579424e-05 0)
(-0.00142371596543 5.80487598671e-05 0)
(-0.00131673479899 6.51138640746e-05 0)
(-0.00114250440045 8.19265962731e-05 0)
(-0.000977667999154 7.10816552924e-05 0)
(-0.00085309325535 5.89438269757e-05 0)
(-0.000739092619017 6.92517891089e-05 0)
(-0.000549363959283 7.50907803077e-05 0)
(-0.000374946271136 7.93389579402e-05 0)
(-0.000183080357745 0.000104879508617 0)
(7.563102133e-05 0.000136203504374 0)
(0.000332529639494 9.82172314814e-05 0)
(0.000463290825312 6.10962452868e-05 0)
(0.000546550222527 4.42479372722e-05 0)
(0.000614827517101 3.28760015471e-05 0)
(0.000681576018597 2.64748704891e-05 0)
(0.000745069543222 2.16399878656e-05 0)
(0.000785966625811 1.4000908807e-05 0)
(0.000810292191852 4.07752744061e-06 0)
(0.000797058109838 -8.16294545429e-06 0)
(0.000751873919664 -2.35202178717e-05 0)
(0.000721340121512 -4.35170993322e-05 0)
(0.000582705370105 -4.48564843034e-05 0)
(0.0005368486164 -4.7208672171e-05 0)
(0.000371460895618 -3.22777609135e-05 0)
(0.000395571428904 -5.19073064827e-05 0)
(0.00017454585811 -4.02390149984e-05 0)
(0.00013056113598 -7.79477232127e-05 0)
(-2.9169978898e-05 -0.000149384260199 0)
(-0.000125725501246 -0.000171479057257 0)
(-0.000221174828005 -0.000160842889921 0)
(-0.000279745128277 -0.000127967478886 0)
(-0.000418987534465 -0.000127331520634 0)
(-0.00056409466129 -8.95221225077e-05 0)
(-0.000650967892647 -4.94336897605e-05 0)
(-0.000703794540439 -7.1142395179e-05 0)
(-0.000758280586647 -0.000101595142268 0)
(-0.000821580676962 -9.87312817508e-05 0)
(-0.000882065951447 -9.30298872274e-05 0)
(-0.00093649912023 -9.54312211866e-05 0)
(-0.000986170700158 -8.42315329792e-05 0)
(-0.00103075005763 -6.71195789856e-05 0)
(-0.00107710359209 -5.85391244583e-05 0)
(-0.00112197997243 -7.59597917961e-05 0)
(-0.00116711315524 -8.01966922354e-05 0)
(-0.00119604215342 -4.03265887947e-05 0)
(-0.00115507700339 -1.3545952541e-05 0)
(-0.00117729023468 -1.11611378782e-05 0)
(-0.00121528958172 -3.57123703435e-05 0)
(-0.00126982432236 -7.31028743636e-05 0)
(-0.00134539247109 -8.59295907353e-05 0)
(-0.00140576987111 -7.48874613701e-05 0)
(-0.00142038991833 -6.66136814305e-05 0)
(-0.00147935505725 -6.4579364097e-05 0)
(-0.00152923867139 -5.8456161555e-05 0)
(-0.00156155269305 -4.81075045817e-05 0)
(-0.00158703224714 -3.74726173195e-05 0)
(-0.00160849517382 -2.8725446862e-05 0)
(-0.00162662857456 -2.59007429675e-05 0)
(-0.0016228306552 -2.13924565033e-05 0)
(-0.00163796188913 -8.3051075895e-06 0)
(-0.00163982799396 -1.0346605419e-05 0)
(-0.00163117903851 -1.44991452675e-05 0)
(-0.00167204394098 -3.08414304752e-06 0)
(-0.00166542579283 -7.7257489549e-06 0)
(-0.00164997059259 -1.56656935408e-05 0)
(-0.00167491681709 -1.20428362702e-05 0)
(-0.00172740071463 -9.11626101358e-06 0)
(-0.00175818093484 -2.29848631159e-06 0)
(-0.00157516066451 4.77832113577e-06 0)
(-0.00152116475536 7.85685346043e-06 0)
(-0.00153069419454 1.00337409905e-05 0)
(-0.00152755333526 1.28718047581e-05 0)
(-0.00153898936947 1.80860683121e-05 0)
(-0.0015558483617 2.69513774471e-05 0)
(-0.00155366636639 3.79097336873e-05 0)
(-0.0015619227019 4.95038170747e-05 0)
(-0.00155066534731 5.76260574834e-05 0)
(-0.00149264174803 5.72198467932e-05 0)
(-0.00137591828772 5.78098363109e-05 0)
(-0.00126790280004 6.72257189116e-05 0)
(-0.0014224220681 0.000112678515044 0)
(-0.00129035961539 0.000165700083429 0)
(-0.00118652611661 0.000197083315984 0)
(-0.0011558606736 0.000207501029733 0)
(-0.00102950149254 0.000210157457441 0)
(-0.000871264468026 0.000241355081078 0)
(-0.000696313229682 0.000286784343167 0)
(-0.000488892320154 0.000332462127573 0)
(-0.000194207074994 0.000313800924077 0)
(6.29598969732e-05 0.000400566374592 0)
(0.000319223840309 0.00030572110129 0)
(0.000456292252317 0.000192901675972 0)
(0.000519587225133 0.000120513818906 0)
(0.000576673819459 9.52585636734e-05 0)
(0.000671882574987 8.97383911813e-05 0)
(0.00074074839844 7.29528829304e-05 0)
(0.000795568501573 4.51585883628e-05 0)
(0.000811623081543 6.88992326623e-06 0)
(0.000790713420883 -3.5080527622e-05 0)
(0.000726854165866 -6.50991571841e-05 0)
(0.000712941368774 -9.93649760332e-05 0)
(0.00065412688913 -0.000121834837165 0)
(0.00058614034126 -0.000134542238174 0)
(0.000500088621016 -0.000130981047804 0)
(0.00040854290528 -0.000157166930037 0)
(0.000257940966067 -0.000182964122309 0)
(0.000120950131171 -0.000309784013051 0)
(-4.57286846636e-05 -0.0002576719498 0)
(-0.000124151290352 -0.000288058220371 0)
(-0.000190406831676 -0.000274065500536 -1.0005670606e-28)
(-0.000342349099408 -0.000289929388048 9.80507490624e-29)
(-0.000492151693238 -0.000297137938612 9.17544703479e-29)
(-0.00057338896646 -0.000238243864573 -8.5130519627e-29)
(-0.000624748444158 -0.000115898251241 8.71951883104e-29)
(-0.000680596554688 -0.000128291488164 -8.81556468886e-29)
(-0.000739667053118 -0.000161616424714 0)
(-0.000808529139795 -0.000167220451931 0)
(-0.000876844023551 -0.00015749657971 0)
(-0.000934137633777 -0.000145256079287 0)
(-0.000984112594996 -0.000127989607624 0)
(-0.00102685758844 -0.000115343222835 0)
(-0.00106882900809 -0.000103244927183 0)
(-0.00110895288408 -7.67553216237e-05 0)
(-0.000937241039782 -3.7909460042e-05 0)
(-0.000889549335698 -1.62785706704e-05 0)
(-0.000912845205063 -2.55207735528e-05 0)
(-0.000981750513712 -7.14734354816e-05 0)
(-0.00118570837805 -0.000130170792471 0)
(-0.00130538271781 -0.000153905025734 0)
(-0.00131850182349 -0.000142369452806 0)
(-0.00138127420602 -0.000126659074776 0)
(-0.00144746687046 -0.000117193457299 0)
(-0.00148904753752 -0.000109763988139 0)
(-0.00152306470275 -9.37838748212e-05 0)
(-0.00155541313163 -7.6069915135e-05 0)
(-0.00158125552941 -6.00036591777e-05 0)
(-0.00159620546925 -4.75693114161e-05 -2.00442289298e-28)
(-0.00162128812905 -3.55887081346e-05 1.95159169304e-28)
(-0.00160241730897 -2.60413145934e-05 0)
(-0.00160449283543 -1.29746615228e-05 0)
(-0.0016490726652 2.27069286889e-06 0)
(-0.00155962939726 -1.41810574017e-05 0)
(-0.00159481909698 -2.14069484082e-05 0)
(-0.00167279526654 -8.90837298623e-06 0)
(-0.00159078671987 -2.42547806505e-05 0)
(-0.00163900245832 -4.92578202987e-05 0)
(-0.00172202758649 -4.07811737085e-05 0)
(-0.00176859436396 1.22519069801e-05 0)
(-0.00177597043894 4.57358759242e-05 0)
(-0.00177717803802 3.04472405477e-05 0)
(-0.00177308386221 1.86628014837e-05 0)
(-0.00176073409977 1.83980453856e-05 0)
(-0.0017426542911 2.31617594017e-05 0)
(-0.00172007922087 3.52225730713e-05 0)
(-0.00169351321847 5.0325030365e-05 0)
(-0.0016634277546 6.87864618116e-05 0)
(-0.00163047019319 9.47639224461e-05 0)
(-0.00159590780553 0.000121837044688 0)
(-0.00155594761707 0.000134599142689 0)
(-0.00149780385682 0.000124392165099 0)
(-0.00139527947896 0.000164651908216 0)
(-0.00127418118881 0.000227690362411 0)
(-0.00123836061054 0.000268235587359 0)
(-0.00115394034207 0.000303042045674 0)
(-0.00102059334945 0.000349533629855 0)
(-0.000859748509031 0.000407169224793 0)
(-0.000676169166192 0.000476800539871 0)
(-0.000468376539285 0.000551837954833 0)
(-0.000237454201548 0.00063290721617 0)
(2.93785088461e-05 0.000695823133212 0)
(0.000251820505285 0.00048454536492 0)
(0.000378867213274 0.000291594999019 0)
(0.000494201914033 0.000212340631438 0)
(0.00059655899867 0.000181450163956 0)
(0.000668338305208 0.000156618352184 0)
(0.000727152925751 0.000119516415612 0)
(0.000767794324081 6.80408811308e-05 0)
(0.00077992598954 9.36689588892e-06 0)
(0.000776756756047 -4.35486799464e-05 0)
(0.000787859131145 -8.72066219062e-05 0)
(0.000771703758737 -0.000143851706006 0)
(0.000698485601013 -0.000198340736025 0)
(0.000603660398842 -0.000223573047533 0)
(0.000501385848009 -0.000233680484042 0)
(0.000399986562944 -0.000294217141565 0)
(0.000281680260351 -0.000423176024047 0)
(7.48685587422e-05 -0.000438756315191 0)
(-4.71403707926e-05 -0.000395335933401 0)
(-5.3285887003e-05 -0.00025458454632 0)
(-0.000158988243693 -0.000424177335777 0)
(-0.000310243848883 -0.000440465779004 0)
(-0.000416777471131 -0.000367538042132 0)
(-0.000213979596838 -0.000125946767902 0)
(-0.000263606794443 -0.000125750507998 0)
(-0.000526519228822 -0.000251664153077 0)
(-0.000688003714773 -0.000279705110631 0)
(-0.000776682678117 -0.000252471763147 0)
(-0.000862469169271 -0.00023092827358 0)
(-0.000929598594425 -0.000205300796907 0)
(-0.000981552302044 -0.000176117728008 0)
(-0.00100711142242 -0.000124714915182 0)
(-0.000901191529795 -5.50927967037e-05 0)
(-0.000826138762142 -1.13547260142e-05 0)
(-0.000817771252164 -4.79143768697e-06 0)
(-0.000874341323117 -4.8822355078e-05 0)
(-0.00102549542892 -0.000125595290933 0)
(-0.00120723469631 -0.000216162880644 0)
(-0.00124739038514 -0.000237059992617 0)
(-0.00129255740507 -0.000216197866215 0)
(-0.00135318267012 -0.000197796639621 0)
(-0.0014034370957 -0.000184168470926 0)
(-0.001444875682 -0.000165859991636 0)
(-0.00148075857711 -0.000145095669106 0)
(-0.0015101636857 -0.000124658812659 0)
(-0.00154997102326 -0.000103293650341 0)
(-0.00156330716125 -8.17901395304e-05 0)
(-0.00159942060635 -6.28780785366e-05 0)
(-0.00158156577081 -4.47099547829e-05 0)
(-0.00161950264348 -2.41005283951e-05 0)
(-0.0015585645147 -6.34234709745e-07 0)
(-0.0015636822011 2.9024699276e-06 0)
(-0.001639481405 -1.08290521158e-05 0)
(-0.00156328568642 -3.67332159872e-05 0)
(-0.00163401350233 -4.68401165702e-05 0)
(-0.00172579777776 -6.04823194545e-05 0)
(-0.00174676321909 -8.37621429136e-05 0)
(-0.0017531683754 -6.67795066252e-05 0)
(-0.00176337928672 -1.73631403963e-05 0)
(-0.00177216424204 1.99373356835e-05 0)
(-0.00177582427486 2.83325801526e-05 0)
(-0.00177251520015 2.94937306543e-05 0)
(-0.00176147016286 3.50262685154e-05 0)
(-0.00174463534808 4.5494682504e-05 2.03210126221e-28)
(-0.00172330597398 6.07887417546e-05 -2.04579366756e-28)
(-0.00169799555503 7.95289602573e-05 0)
(-0.00166895117541 0.000101725485719 0)
(-0.00163621897702 0.000127663403922 0)
(-0.00159899294732 0.000154155392131 0)
(-0.00155299571138 0.000178627903203 0)
(-0.00149208002358 0.000208805822593 0)
(-0.00141614691722 0.000259175595511 0)
(-0.00133573900924 0.00030761950304 0)
(-0.00125133610274 0.000354170636789 0)
(-0.00114697804639 0.000421619863531 0)
(-0.00101123425986 0.000501245094874 3.77438143563e-28)
(-0.000844499876071 0.000588453122332 -4.23515734932e-28)
(-0.000652079033681 0.000681517732954 0)
(-0.000441047528149 0.000770306067636 0)
(-0.000224205597804 0.000843742540354 0)
(-2.96256655278e-05 0.000860132435039 0)
(0.000178111247202 0.000685385984552 0)
(0.000375403265168 0.00046582533636 0)
(0.000483995450853 0.000320232386145 0)
(0.000574550287663 0.000258175538874 0)
(0.000659779897385 0.00021946433634 0)
(0.000729012902895 0.000168715068805 0)
(0.000793600584556 0.000102949382368 0)
(0.000837239568603 3.19963839002e-05 0)
(0.000860467641398 -3.59418414513e-05 0)
(0.000837225868995 -0.000118975451053 0)
(0.00073255859499 -0.000206097117783 0)
(0.00064597403757 -0.000277346676865 0)
(0.000559741085146 -0.000333334186773 0)
(0.000439343669348 -0.000362352611607 0)
(0.000268562923512 -0.000349912762998 0)
(0.000198355608368 -0.000491368344073 0)
(6.77112837912e-05 -0.000589707534601 0)
(-2.19621756846e-06 -0.000384657199782 0)
(-2.38422243386e-05 -0.000311417873072 0)
(-0.00015016478425 -0.000573684548093 0)
(-0.000263313318814 -0.000524899233392 0)
(-0.000256863303657 -0.000315036094138 0)
(-0.000194693926806 -0.00016604371748 0)
(-0.000338754909881 -0.000287192069631 0)
(-0.000566893179919 -0.000446133801519 0)
(-0.000645842598923 -0.000401618660616 0)
(-0.000743594959619 -0.000348527881941 0)
(-0.000832763182454 -0.000319877591774 0)
(-0.000902914466539 -0.000270310799166 0)
(-0.000880474877425 -0.000160457451668 0)
(-0.00076951369368 -5.91440961388e-05 0)
(-0.000782832167348 -1.98361115542e-05 0)
(-0.000833257992527 -2.88935693699e-05 0)
(-0.000933124115194 -8.34640577559e-05 0)
(-0.00107814213243 -0.000179067473742 0)
(-0.00118997406744 -0.0002584104895 0)
(-0.00119330543875 -0.000269021339822 0)
(-0.00123770320968 -0.00027309732609 0)
(-0.00130523842485 -0.000273111175491 0)
(-0.00135414108529 -0.000254011377448 0)
(-0.00139916549307 -0.000228384417179 0)
(-0.00143727745193 -0.000202872404389 0)
(-0.0014673554133 -0.000180218754604 0)
(-0.00151102550745 -0.000155220117324 0)
(-0.00151759926619 -0.000128110823559 0)
(-0.00157052712861 -0.000102374412689 0)
(-0.00154275154609 -7.41833341487e-05 0)
(-0.00160715290521 -4.87133694227e-05 -1.8996567105e-28)
(-0.00151262942503 -2.14187524849e-05 1.71226348918e-28)
(-0.00158246531491 -7.01206270685e-06 0)
(-0.00163326351769 -2.05302339547e-06 0)
(-0.00157090161021 -2.46869835612e-05 0)
(-0.00167126458058 -7.02050646546e-05 0)
(-0.00171097454531 -0.000106754836472 0)
(-0.00173963909811 -0.000106667680139 0)
(-0.0017531588051 -9.20046049013e-05 0)
(-0.00175885998937 -6.554654787e-05 0)
(-0.00176719916816 -2.62391169082e-05 0)
(-0.00177534056113 8.17346523122e-06 0)
(-0.00177866763271 2.65774425759e-05 0)
(-0.0017753339622 3.75533168637e-05 0)
(-0.00176506766368 4.95423430578e-05 0)
(-0.0017493200679 6.49770909826e-05 0)
(-0.00172905428025 8.42118145802e-05 0)
(-0.00170466453224 0.000106808378634 0)
(-0.00167614253226 0.000132968955463 0)
(-0.0016430584136 0.000163045177056 0)
(-0.00160420642137 0.00019634156157 0)
(-0.00155667106983 0.000233014105257 0)
(-0.00149741172414 0.000276510192352 0)
(-0.00142658956295 0.000329874896503 0)
(-0.00134739415456 0.000387946530591 0)
(-0.00125741984707 0.000458091701899 0)
(-0.0011461731815 0.000550373386295 0)
(-0.00100460110506 0.0006593192713 0)
(-0.000831206812804 0.000774157737304 0)
(-0.000633822402281 0.000884597957525 0)
(-0.00042647126009 0.000978296542258 0)
(-0.000228827078682 0.0010415179311 0)
(-7.65108668595e-05 0.00102536183544 0)
(0.000129814494657 0.000911163893513 0)
(0.000363345555541 0.000666880367396 0)
(0.000492415169332 0.000452623295735 0)
(0.000591696392823 0.000353970613839 0)
(0.000675627505288 0.000294775519871 0)
(0.000748401718281 0.000231481357563 0)
(0.000824889214513 0.000157672546637 0)
(0.000899028588444 6.9109917793e-05 0)
(0.000905243413045 -5.44546703665e-05 0)
(0.000797713925383 -0.000186518606323 0)
(0.000714088735945 -0.000293173807569 0)
(0.000633061963434 -0.000382917228453 0)
(0.000531961349847 -0.000460169300135 0)
(0.000388633028624 -0.000468343925156 0)
(0.000261205633603 -0.000471009943027 0)
(0.00017806271351 -0.000638936434312 0)
(5.00645701302e-05 -0.000688587997713 0)
(2.44864382169e-06 -0.000354817127199 0)
(-3.31542197993e-05 -0.000382079678374 0)
(-0.000155004906633 -0.000653738522474 0)
(-0.000208232206802 -0.000515139197974 0)
(-0.000146572465924 -0.000236058912521 0)
(-0.00019781953926 -0.000241594522902 0)
(-0.000458006645526 -0.000499723987824 0)
(-0.000555817131357 -0.00054271012105 0)
(-0.000619475926908 -0.000488298172083 0)
(-0.000701535458769 -0.000439823094127 0)
(-0.000780359640966 -0.00036922440639 0)
(-0.000683230434438 -0.000219922393474 0)
(-0.00060934634054 -9.73820214576e-05 0)
(-0.000661658867539 -6.41596816683e-05 0)
(-0.000726523889669 -7.8427304052e-05 0)
(-0.000862427451312 -0.000140175291819 0)
(-0.00102671645277 -0.000227843070302 0)
(-0.0011397420187 -0.000281379835549 0)
(-0.00111608914297 -0.000274199259705 0)
(-0.00117438911817 -0.000303076934122 0)
(-0.00125568887684 -0.000335265762915 0)
(-0.00130311730887 -0.000326945135847 0)
(-0.00134674767552 -0.000301005101648 0)
(-0.00138469941397 -0.000271657534845 0)
(-0.00143523906307 -0.000243921829547 0)
(-0.00146604851254 -0.000207828111812 0)
(-0.00145139798826 -0.000178631754585 0)
(-0.00153543385803 -0.000154357661719 0)
(-0.00147796092664 -0.000113495968066 0)
(-0.0015794502261 -7.82286586475e-05 0)
(-0.00144038513755 -3.76243873009e-05 0)
(-0.00156586894194 -2.98801376658e-05 0)
(-0.00145479609303 -2.6857141466e-05 0)
(-0.00155837614404 -3.51841205706e-05 0)
(-0.00166268958279 -7.63417795699e-05 0)
(-0.00170844182644 -0.000126748372847 0)
(-0.0017311926284 -0.000135736873791 0)
(-0.00174699905905 -0.00012275796697 0)
(-0.00175699896288 -0.000100039341335 0)
(-0.00176491330001 -7.04662666991e-05 0)
(-0.00177300306477 -3.45683762438e-05 0)
(-0.00178011571652 -4.85603575724e-07 0)
(-0.00178309213314 2.48765708441e-05 0)
(-0.00177979660349 4.42625277653e-05 0)
(-0.00177028676366 6.28942336786e-05 0)
(-0.00175536999029 8.34814256461e-05 0)
(-0.00173594553174 0.000106968462354 0)
(-0.00171215811864 0.000133667743962 0)
(-0.00168367344861 0.00016419164036 0)
(-0.00164999350142 0.000199299398365 0)
(-0.00161019166426 0.000239512354667 0)
(-0.00156249973033 0.00028573334476 0)
(-0.00150522093091 0.000339544729152 0)
(-0.0014378103065 0.000402002190762 0)
(-0.00135961109748 0.000474658153705 0)
(-0.00126617117096 0.000566344870614 0)
(-0.00114916968522 0.000683776091919 0)
(-0.00100307367877 0.000820256123059 0)
(-0.000829669488932 0.00096108975126 0)
(-0.000634258098724 0.00108363626982 0)
(-0.000438575378551 0.00117146643349 0)
(-0.000265190529893 0.00119057745324 0)
(-0.000103327061057 0.0010767841388 0)
(9.32565362296e-05 0.00118359162581 0)
(0.000308508239634 0.000842750176181 0)
(0.000452109745688 0.000579569242162 0)
(0.000583497818969 0.000456625174406 0)
(0.000698000717328 0.00038131675526 0)
(0.000791012013272 0.000309138844634 0)
(0.000903910520551 0.000229011285999 0)
(0.000977256008509 8.58684267136e-05 0)
(0.000894956400682 -0.00010842677034 0)
(0.000796574567763 -0.000263211455578 0)
(0.000732910788799 -0.000386110536413 0)
(0.000634924297567 -0.000494293402098 0)
(0.000531837669838 -0.000586178974072 0)
(0.000379376934317 -0.000566118194618 0)
(0.000265276836602 -0.000582024133774 0)
(0.000177655336069 -0.000755828909055 0)
(5.38662171825e-05 -0.000786206486807 0)
(-1.23650875964e-05 -0.000385205704622 0)
(-8.62396052728e-05 -0.000510454231928 0)
(-0.000210819396258 -0.000712894446811 0)
(-0.000226049836321 -0.000643254823748 0)
(-0.0001372971278 -0.000292386426013 0)
(-0.000300940687498 -0.000446944807513 0)
(-0.000496847041959 -0.000631603425619 0)
(-0.000535929677459 -0.000605816148782 0)
(-0.000599216791581 -0.000550445583328 0)
(-0.000625481126128 -0.000484646707133 0)
(-0.00073498146545 -0.000387343401849 3.99086215276e-28)
(-0.000526307064248 -0.0001532047445 -2.12427723897e-28)
(-0.000615180577103 -0.000124000941842 0)
(-0.000650927004224 -0.000129271033026 0)
(-0.000765648244373 -0.000191516038185 0)
(-0.000945829896881 -0.000301183114259 0)
(-0.00107092186217 -0.000344544859751 0)
(-0.00101801307479 -0.00029137056032 0)
(-0.0010859630739 -0.000314865914362 0)
(-0.00119659826513 -0.000379644818443 0)
(-0.00124368939367 -0.000393809292785 0)
(-0.00129492284 -0.000375285524099 0)
(-0.00134120598994 -0.000346417311574 0)
(-0.00138282725659 -0.000311226941569 0)
(-0.00140340403938 -0.000268227257106 0)
(-0.00139971549363 -0.0002218485173 0)
(-0.00147314301926 -0.000198657986595 0)
(-0.00139474679807 -0.000166415032068 0)
(-0.00153075178219 -0.000128571913436 0)
(-0.00137954323524 -5.60972099119e-05 0)
(-0.00151416119328 -4.43979599228e-05 0)
(-0.00142368530516 -5.09260459547e-05 1.60584545974e-28)
(-0.00153769593077 -5.68169282574e-05 -1.75516600051e-28)
(-0.00156096298498 -0.000106475990283 0)
(-0.0017003567843 -0.000157400461184 0)
(-0.00172538928619 -0.000165280263717 0)
(-0.00173896685104 -0.000153995971453 0)
(-0.00175082848642 -0.000134086496489 0)
(-0.0017625141169 -0.000108267129936 0)
(-0.00177241209355 -7.73695821488e-05 0)
(-0.0017804344316 -4.21298136367e-05 0)
(-0.0017869189229 -6.95427367432e-06 0)
(-0.00178950731254 2.37584232449e-05 0)
(-0.00178628658039 5.02300735475e-05 0)
(-0.00177722112908 7.52655381568e-05 0)
(-0.00176295052299 0.000101165640548 0)
(-0.00174405212867 0.000129252874112 0)
(-0.00172037899313 0.000160454703397 0)
(-0.00169149580963 0.000195765353754 0)
(-0.00165714654074 0.000236248631407 0)
(-0.00161691010787 0.000282942676209 0)
(-0.00156979592922 0.000336971174531 0)
(-0.00151462962801 0.000399659982209 0)
(-0.00145004209095 0.000473127028117 0)
(-0.00137331047555 0.000562489489337 0)
(-0.00127909258101 0.00067657729962 0)
(-0.00116074720005 0.00081888260298 0)
(-0.00101487199224 0.00097997828264 0)
(-0.000843235486069 0.00114057845251 0)
(-0.000655071365167 0.00127386052979 0)
(-0.000471932560743 0.00134230011448 0)
(-0.000316357627405 0.0013410081288 0)
(-0.000158876897087 0.00136153235698 0)
(-2.76455463453e-06 0.00134552274643 0)
(0.000222174229191 0.00101940258155 0)
(0.000408810472761 0.000719885367296 0)
(0.000597376274429 0.000610838619455 0)
(0.000766521170642 0.000524126792735 0)
(0.000901456952794 0.000428096182657 0)
(0.00101310249951 0.000290143186655 0)
(0.00101875139187 5.8398336848e-05 0)
(0.000913170927123 -0.000172896664 0)
(0.000852228424254 -0.000345760383152 0)
(0.000767656733241 -0.000486594486281 0)
(0.000664182956703 -0.000614750334763 0)
(0.000537386634485 -0.00068058770476 0)
(0.000414051956343 -0.000696544833427 0)
(0.000272453098987 -0.000698552508082 0)
(0.000177904732237 -0.00085872015332 0)
(6.13180243727e-05 -0.000912170732606 0)
(-2.67322247531e-05 -0.000450734870591 0)
(-0.000130575597852 -0.000644127315469 0)
(-0.000242038328542 -0.000733066849472 0)
(-0.000133887647294 -0.000395008207104 0)
(-0.000143993778052 -0.00036854952731 0)
(-0.000375514690829 -0.000660093225232 0)
(-0.000460351469756 -0.000695569392415 0)
(-0.000523393932629 -0.00066809375866 0)
(-0.00054452768253 -0.0005795248884 0)
(-0.000605286559982 -0.000514827921791 0)
(-0.000458930598167 -0.000267390227266 0)
(-0.000530860956999 -0.000183099920614 0)
(-0.000600782412517 -0.000179756190622 0)
(-0.00065054825764 -0.000214110577697 0)
(-0.000842003690729 -0.000341295937406 0)
(-0.000993123884661 -0.000418495151484 0)
(-0.000933362386887 -0.000345963042299 0)
(-0.000983131882441 -0.000334265909782 0)
(-0.00111155441747 -0.000407418027564 0)
(-0.00118885778807 -0.000449617448666 0)
(-0.00122786810979 -0.00044336571536 0)
(-0.00126932558592 -0.00042068200752 0)
(-0.00132704620582 -0.0003957548356 0)
(-0.00136569168046 -0.000353344200052 0)
(-0.00141882862712 -0.000288910865252 0)
(-0.00137015621997 -0.000244503634047 0)
(-0.00147083893685 -0.000212059640779 0)
(-0.00142822707956 -0.000165979838905 0)
(-0.0013832500949 -0.000118916348967 0)
(-0.0014118419905 -8.68391343121e-05 0)
(-0.00156241736892 -7.60687089015e-05 0)
(-0.00148978306031 -6.13591135596e-05 0)
(-0.00148329926187 -0.000116469898692 0)
(-0.00168307297983 -0.000193322912012 0)
(-0.00170674922756 -0.000215012177605 0)
(-0.00172887901222 -0.000193277138868 0)
(-0.00174406224882 -0.000169265977902 0)
(-0.00175635132367 -0.00014550554996 0)
(-0.00176929855666 -0.000118211621982 0)
(-0.00178096624612 -8.5904875971e-05 0)
(-0.00178963771311 -4.95713095204e-05 0)
(-0.00179561428757 -1.22470768142e-05 0)
(-0.00179792757789 2.31379306093e-05 0)
(-0.00179491946419 5.58419050712e-05 0)
(-0.00178621333821 8.703503207e-05 1.96786195233e-28)
(-0.00177231648809 0.000118407868296 -1.96153420056e-28)
(-0.00175348710157 0.000151507786052 0)
(-0.00172936394429 0.000187652352213 0)
(-0.00169960371655 0.000227989022043 0)
(-0.00166440465641 0.00027366965073 0)
(-0.00162390483472 0.000325984447014 0)
(-0.00157773581373 0.000386487826028 0)
(-0.00152507298655 0.000457353792433 0)
(-0.00146397953635 0.000542476619102 0)
(-0.00139062589599 0.000648785021835 0)
(-0.00129951939386 0.000784051816516 0)
(-0.00118525200551 0.000949376023166 0)
(-0.00104476829284 0.00113448555637 0)
(-0.000877572447273 0.00131869616664 0)
(-0.000689645493443 0.00145912249845 0)
(-0.000508729425398 0.00150408447227 0)
(-0.000362994661233 0.00149525743408 0)
(-0.000233609889206 0.00148298831145 0)
(-0.000114171305499 0.00146167230504 0)
(0.000105023430343 0.00140540681442 0)
(0.000367656711082 0.000926652076952 0)
(0.000612144400721 0.000806080254866 0)
(0.000838790693218 0.000697645557657 0)
(0.00099834146572 0.000542617988008 0)
(0.00109385118644 0.000316925287821 0)
(0.00107055219658 1.79806809396e-05 0)
(0.000994803628616 -0.000238860108794 0)
(0.000930431961031 -0.000437245392579 0)
(0.000821823822847 -0.000601294890079 0)
(0.000705796093337 -0.00073372838436 0)
(0.000567677961173 -0.000789482195395 0)
(0.000451821858928 -0.000839067244827 0)
(0.000291436001139 -0.000851597368309 0)
(0.000167379325127 -0.000965654922589 0)
(5.79479881352e-05 -0.00104986001622 0)
(-3.93704776813e-05 -0.000537534139321 0)
(-0.000156900357805 -0.000760895459834 0)
(-0.000202196637098 -0.000742935314895 0)
(-0.000129155882954 -0.000432746927763 0)
(-0.000214877520151 -0.000504137791657 0)
(-0.000403986191045 -0.000768062917389 0)
(-0.000422118063827 -0.000753772910112 0)
(-0.000511324510215 -0.000724358915398 0)
(-0.000456474682468 -0.000555526025288 0)
(-0.000621914481728 -0.000576164868548 0)
(-0.00044887824826 -0.000287646009721 0)
(-0.000549311237385 -0.000249952602116 0)
(-0.000596997144507 -0.000249909792664 0)
(-0.000710965714154 -0.000342385663988 0)
(-0.000892832293844 -0.000486676123773 0)
(-0.000977833985313 -0.000476838901778 0)
(-0.000910629922539 -0.000375468699719 0)
(-0.00100433317847 -0.000417978919384 0)
(-0.00110916421894 -0.000491787054745 0)
(-0.00116760473342 -0.000508240759421 0)
(-0.00121899014305 -0.000491118259674 0)
(-0.00124590921385 -0.000459392769472 0)
(-0.00129421377835 -0.000430994627341 0)
(-0.00130386002112 -0.000383036887103 0)
(-0.00129719934176 -0.000295215151824 0)
(-0.00141149595178 -0.000265342309414 0)
(-0.00128276631423 -0.000222716183233 0)
(-0.00150764977233 -0.000185158624809 0)
(-0.00135644002153 -0.000139135547001 0)
(-0.00156042918249 -0.000139035795476 0)
(-0.0014031190181 -0.00010104853234 0)
(-0.00159722419518 -0.000108144316681 0)
(-0.00164123327742 -0.000186857343133 1.9960094604e-28)
(-0.00169398554368 -0.000253004932409 -2.11474522087e-28)
(-0.00171325947297 -0.000243851625855 0)
(-0.0017322156373 -0.000214896857304 0)
(-0.0017501663016 -0.000185934462819 0)
(-0.00176417993987 -0.000158714217165 0)
(-0.00177760996224 -0.00012961662734 0)
(-0.00179009267491 -9.57675532391e-05 0)
(-0.00179990040627 -5.74360986885e-05 0)
(-0.00180630830854 -1.71188390606e-05 0)
(-0.00180861234554 2.27720237866e-05 0)
(-0.00180584148729 6.12050694207e-05 0)
(-0.00179761081292 9.84763515732e-05 0)
(-0.00178385045837 0.000135672323962 0)
(-0.00176447218581 0.000174287093834 0)
(-0.00173920385009 0.000215789844733 0)
(-0.00170802578232 0.000261264362631 0)
(-0.00167156029666 0.000311694468843 0)
(-0.00163061273871 0.000368545495237 0)
(-0.0015856022364 0.000434081544723 0)
(-0.00153620256967 0.000511897901855 0)
(-0.00148035653326 0.000607741702541 0)
(-0.00141363272751 0.000729306386927 0)
(-0.00133035834392 0.00088319917233 0)
(-0.00122500908706 0.00106969706417 0)
(-0.0010927561097 0.00128010182778 0)
(-0.000930540065659 0.00149416059708 0)
(-0.000744762583828 0.00164867318304 0)
(-0.000576785203419 0.00166253788735 0)
(-0.000452631243479 0.00161469386377 0)
(-0.000336575240072 0.00160141959493 0)
(-0.000196798205054 0.00161166982169 0)
(-2.71620619718e-05 0.00158042763936 0)
(0.000295295566497 0.00133322977111 0)
(0.000616393647392 0.000987578697277 0)
(0.000940409745789 0.000923628129557 0)
(0.00113639368146 0.000680772745441 0)