/*--------------------------------*- C++ -*----------------------------------*\
| =========                 |                                                 |
| \\      /  F ield         | OpenFOAM: The Open Source CFD Toolbox           |
|  \\    /   O peration     | Version:  v1806                                 |
|   \\  /    A nd           | Web:      www.OpenFOAM.com                      |
|    \\/     M anipulation  |                                                 |
\*---------------------------------------------------------------------------*/
FoamFile
{
    version     2.0;
    format      ascii;
    class       volScalarField;
    location    "678";
    object      pa;
}
// * * * * * * * * * * * * * * * * * * * * * * * * * * * * * * * * * * * * * //

dimensions      [0 2 -2 0 0 0 0];


internalField   nonuniform List<scalar> 
6400
(
-0.123433786495
-0.123434551478
-0.123436717382
-0.123440979473
-0.123447371258
-0.123455937762
-0.123466750773
-0.123480235077
-0.123496845954
-0.123517189677
-0.12354315528
-0.123575951183
-0.123615171387
-0.123661176389
-0.123715019731
-0.123778063902
-0.123851475081
-0.123935824649
-0.124031015014
-0.124135758986
-0.124248603482
-0.12437065279
-0.124505341056
-0.1246564507
-0.124826794201
-0.125017176457
-0.12522695783
-0.125455815138
-0.125704431625
-0.125974026901
-0.126265773934
-0.126579633967
-0.126913299295
-0.12726424577
-0.127631646956
-0.128014462102
-0.12841339672
-0.128832580953
-0.129271564802
-0.129724872057
-0.130193384063
-0.130685943017
-0.131207447899
-0.13175270737
-0.132314041905
-0.132885847001
-0.133463670715
-0.134043915886
-0.134623139885
-0.135198225411
-0.135766481916
-0.136322938827
-0.136859041732
-0.137363805072
-0.137834311511
-0.138273784749
-0.138676796642
-0.139031343642
-0.139331638792
-0.139582740395
-0.139788857542
-0.139950949737
-0.140066672537
-0.140159175067
-0.14026555084
-0.140422886968
-0.140625860348
-0.14082967094
-0.141000321829
-0.141135330952
-0.141243752585
-0.141335695801
-0.141417605066
-0.141487735174
-0.141548136764
-0.141599008857
-0.141639964659
-0.141666202019
-0.141682677054
-0.141689571556
-0.123432700259
-0.123433512061
-0.123435461421
-0.123439596655
-0.123446326436
-0.123455211961
-0.12346604751
-0.12347896235
-0.123494927241
-0.123515079935
-0.12354076829
-0.123573048846
-0.123612073518
-0.123658029602
-0.123711545569
-0.123773752101
-0.123846544277
-0.123930706248
-0.124025887486
-0.124130400467
-0.124242124127
-0.12436300932
-0.124497095543
-0.124647756027
-0.124817769312
-0.125007940439
-0.125217307652
-0.125445850973
-0.125694304701
-0.125963642355
-0.126254808276
-0.126568287612
-0.126901889641
-0.127252316853
-0.127619326312
-0.128001920979
-0.128400439532
-0.128819669396
-0.129259204964
-0.129712912859
-0.130180747514
-0.130673296306
-0.131196812701
-0.131743690015
-0.132305854041
-0.132878666163
-0.133457618371
-0.13403929202
-0.134619903837
-0.135195240033
-0.135762482132
-0.136319665898
-0.136860114796
-0.137367193971
-0.137839455181
-0.138281872404
-0.138683673843
-0.139035545734
-0.139336216079
-0.139587284112
-0.139790825911
-0.139953360921
-0.140072652953
-0.140169487423
-0.140279771069
-0.140437993704
-0.140643751868
-0.140847043031
-0.141015955955
-0.141150020169
-0.141257722814
-0.141349449094
-0.141431716085
-0.14150246849
-0.141561556621
-0.141610129784
-0.141647561677
-0.141672537592
-0.141688302061
-0.141693516307
-0.123429601586
-0.123430915306
-0.123432625799
-0.123436354565
-0.123442761106
-0.123452496115
-0.123463953004
-0.123476189124
-0.123491111433
-0.123510500482
-0.123535559448
-0.123567173869
-0.123605651576
-0.123651111781
-0.123703850552
-0.123764082268
-0.123834980138
-0.12391956845
-0.124014787255
-0.124118068066
-0.124227706505
-0.124345871178
-0.124478602532
-0.124629153073
-0.124798418317
-0.124987323715
-0.125195954856
-0.125424007767
-0.125671858897
-0.12594045571
-0.126230677508
-0.126543337748
-0.126876786643
-0.127225804946
-0.127590956
-0.127973701878
-0.128371651595
-0.12878969863
-0.129229504848
-0.129684918008
-0.130156418768
-0.130651597975
-0.131174661258
-0.131721106585
-0.132284047975
-0.132858248294
-0.133439333518
-0.134023462814
-0.134606802366
-0.135185548196
-0.135756393019
-0.136315193031
-0.136854214722
-0.137364624912
-0.137844250197
-0.138289007359
-0.138689546542
-0.139040700859
-0.139341404351
-0.139592761577
-0.139797954789
-0.139960307822
-0.140083826318
-0.140190983863
-0.140315079505
-0.140481545595
-0.14068014501
-0.140876475059
-0.141045527277
-0.14118090132
-0.141289763306
-0.141381496003
-0.14146022484
-0.141526406429
-0.141582696053
-0.141628393179
-0.141662025899
-0.141684609163
-0.14169854519
-0.141703468363
-0.123425193028
-0.123426494579
-0.123427872132
-0.123431211836
-0.123436680929
-0.123446042249
-0.123459949166
-0.123471958671
-0.123485476816
-0.123503639372
-0.123527715068
-0.123558493126
-0.123596225819
-0.123640574225
-0.123691854071
-0.123751791334
-0.123822328643
-0.123904604334
-0.123995998669
-0.12409438798
-0.124201403679
-0.124319593365
-0.124451799902
-0.124601002769
-0.124769002054
-0.124956680128
-0.125164199822
-0.125391282857
-0.125638167733
-0.125905596772
-0.126194754222
-0.126506234084
-0.126838474898
-0.127187338313
-0.127549602662
-0.127929318832
-0.128328331124
-0.128745917008
-0.12918397191
-0.129641281178
-0.130117480466
-0.130616448674
-0.131140901964
-0.131688090156
-0.132252522014
-0.132829026165
-0.133413097771
-0.134000687793
-0.13458788468
-0.135170829779
-0.135745640765
-0.136307475995
-0.136849596219
-0.137365144651
-0.13784939276
-0.13829604073
-0.138697287383
-0.13904878615
-0.139349819347
-0.139601899679
-0.139808518038
-0.139974910673
-0.140111362836
-0.140237533675
-0.140373270951
-0.140536206399
-0.140732279382
-0.14092769892
-0.14109694409
-0.141232604235
-0.141339029571
-0.141424422341
-0.141496275271
-0.141560689347
-0.141616261569
-0.141657745437
-0.141685787704
-0.141706512676
-0.141720648985
-0.141726413962
-0.123418304149
-0.123418489725
-0.123420119936
-0.123423378002
-0.123429153276
-0.123437233129
-0.123449458935
-0.123462405874
-0.123476305561
-0.123493951497
-0.123516921979
-0.1235467146
-0.123583454397
-0.123627551
-0.123679004822
-0.123737251775
-0.123804130939
-0.12388083661
-0.123967134055
-0.124062787204
-0.124168330801
-0.124285143353
-0.12441595943
-0.124563620339
-0.12472987819
-0.124915824228
-0.125121638413
-0.125347274465
-0.125592829842
-0.125858883556
-0.126146323904
-0.126456751135
-0.126788676878
-0.127134010322
-0.12749362293
-0.127870907205
-0.128267408331
-0.12868516654
-0.129124433294
-0.129584292108
-0.130064660717
-0.130567594279
-0.13109457883
-0.131643703131
-0.13221056938
-0.132790302479
-0.133378324393
-0.133970423237
-0.134562585425
-0.135150812481
-0.135730837975
-0.13629754874
-0.136844735272
-0.137365973918
-0.137855016502
-0.138304505714
-0.138707459175
-0.139060282787
-0.139362798853
-0.139617377316
-0.139828949882
-0.140005506793
-0.140160128614
-0.140305460954
-0.140449657906
-0.140614068537
-0.140807264252
-0.141000518039
-0.141168924641
-0.141302197915
-0.141401915544
-0.141479517069
-0.141549763399
-0.141615307468
-0.141666838437
-0.141702262891
-0.141727118228
-0.141748939916
-0.141761688695
-0.141765670547
-0.123405943643
-0.123405773526
-0.123408399447
-0.123411541344
-0.123417428375
-0.123425283505
-0.123436474677
-0.12344908059
-0.123463459295
-0.123480858023
-0.123502407472
-0.123530929415
-0.123567859905
-0.123611986181
-0.123661205777
-0.123716080481
-0.123778519484
-0.123850559078
-0.123932845926
-0.124025234193
-0.124127787716
-0.124242252213
-0.124371140023
-0.124516876106
-0.12468102925
-0.124864457379
-0.125068065081
-0.125291717023
-0.125535588654
-0.125799972814
-0.126085748372
-0.126393860208
-0.126722440432
-0.127067173037
-0.127422700954
-0.127795657796
-0.128190888254
-0.128609326187
-0.129050359342
-0.129513138614
-0.129997579164
-0.130504741178
-0.131035256923
-0.131587540525
-0.13215793322
-0.132741912007
-0.133334911887
-0.133932612948
-0.134530899065
-0.135125631406
-0.13571230394
-0.136285660863
-0.136839585514
-0.137367381019
-0.137861802354
-0.13831517437
-0.138721285195
-0.139077365227
-0.139384051877
-0.139644913779
-0.139866413119
-0.140058158727
-0.140233805635
-0.140394063078
-0.140547576255
-0.140719677119
-0.140915368418
-0.141104800939
-0.141267272319
-0.141391810376
-0.141481983889
-0.141556762128
-0.141629738651
-0.141691840541
-0.141736412713
-0.141766234378
-0.141790343968
-0.141809619611
-0.141818844174
-0.141822376479
-0.123387400718
-0.123388526511
-0.123392722478
-0.123397167195
-0.12340141347
-0.123408985991
-0.123420214422
-0.12343252568
-0.123446848448
-0.12346383978
-0.123485253401
-0.123512276254
-0.123548390201
-0.123590080776
-0.123636068165
-0.123687072748
-0.123745737188
-0.123814275909
-0.123892881573
-0.12398081718
-0.124079569839
-0.12419124342
-0.124317505748
-0.124460479047
-0.124621892877
-0.124803005797
-0.12500295528
-0.125223975158
-0.125465920313
-0.125729145413
-0.126012320207
-0.126316650926
-0.126641926306
-0.126981215529
-0.127333983433
-0.127704695633
-0.12809918242
-0.128518397423
-0.128961375059
-0.129427214748
-0.129915763265
-0.130427489178
-0.130962427863
-0.131519054531
-0.132094154231
-0.13268350966
-0.133282625459
-0.133887134033
-0.134492843315
-0.135095497955
-0.135690413896
-0.136272151237
-0.136834366762
-0.13736986552
-0.137870838319
-0.138329790003
-0.138741440762
-0.139104013843
-0.139419099949
-0.139691149267
-0.139927605415
-0.140138581707
-0.140332218024
-0.14050845528
-0.140681025668
-0.140863614417
-0.141060723267
-0.141241812278
-0.141391180095
-0.141503433476
-0.141588435513
-0.141665911429
-0.141737424188
-0.14179143975
-0.141828180646
-0.141853226084
-0.141874793234
-0.141887317446
-0.141890400252
-0.141892162551
-0.123365879847
-0.123368207304
-0.123372764563
-0.123378793954
-0.123382729083
-0.123390473238
-0.123400609636
-0.12341258472
-0.123426859221
-0.123441852166
-0.123463451817
-0.123490533732
-0.123523864402
-0.123562167414
-0.123604483893
-0.123651404553
-0.123706879536
-0.123772125264
-0.123846089936
-0.123929231939
-0.124023756211
-0.124131822834
-0.12425475766
-0.124394807385
-0.124553181368
-0.124730525382
-0.12492771084
-0.12514315284
-0.125383447087
-0.125645698818
-0.125925735706
-0.126223288981
-0.126543442102
-0.126878296978
-0.127227427104
-0.127597530716
-0.127992047011
-0.128411988199
-0.128856843775
-0.129325815071
-0.129818613801
-0.130335309746
-0.130875517827
-0.131437640366
-0.132018687332
-0.13261466832
-0.133221186592
-0.13383387968
-0.13444850953
-0.135060719555
-0.13566564973
-0.136257597542
-0.136829822073
-0.137374645748
-0.137884091265
-0.138351277245
-0.138772039903
-0.139145416815
-0.13947330175
-0.139760281465
-0.140014023484
-0.140243790507
-0.140456667224
-0.140658302722
-0.140851491175
-0.141048653876
-0.141242589917
-0.141412815159
-0.141547815012
-0.141649771005
-0.141732723948
-0.141809385337
-0.141872469097
-0.141916592262
-0.141944884863
-0.141964095418
-0.141975776914
-0.141977802112
-0.141971585606
-0.141968043746
-0.123342619608
-0.123345537252
-0.123349750625
-0.123353963924
-0.123358935222
-0.123368069082
-0.123377275813
-0.123388484386
-0.123403127808
-0.123417647873
-0.123435846797
-0.12346239788
-0.123493775656
-0.123528168764
-0.123566851842
-0.123611008457
-0.123662380776
-0.123723007182
-0.123792089624
-0.123870590056
-0.123960542823
-0.124063992851
-0.124182213278
-0.124318045807
-0.124474409512
-0.124646581506
-0.124839919241
-0.125053331991
-0.125287855595
-0.125545560249
-0.125822625562
-0.126118120424
-0.126427977698
-0.126756475713
-0.127104105006
-0.127473973815
-0.127868648582
-0.128289313203
-0.128735980625
-0.129208128206
-0.129705389013
-0.130227525426
-0.130773834806
-0.131342595104
-0.131930893067
-0.132534882025
-0.133150276131
-0.133772758158
-0.134398063494
-0.135021733294
-0.135638717429
-0.136242991181
-0.136827377699
-0.13738385601
-0.13790465407
-0.138383791839
-0.138818130606
-0.139206466982
-0.139549930227
-0.139853411215
-0.140125774211
-0.140376518673
-0.140612985407
-0.140840520835
-0.141058173268
-0.141273957154
-0.141475390314
-0.141629766223
-0.141749352974
-0.141841364832
-0.141918844424
-0.141985251878
-0.142036304465
-0.142070174192
-0.142089056631
-0.142096642526
-0.142091088439
-0.14207654892
-0.142058167713
-0.142046655647
-0.123317468774
-0.123320629866
-0.123325137737
-0.123328258424
-0.123333301646
-0.123341589322
-0.123349984564
-0.123359838021
-0.123372527416
-0.123388992108
-0.123405145731
-0.123428879761
-0.123457686961
-0.123488695592
-0.123523119303
-0.123564414748
-0.123612381711
-0.123667560987
-0.123730904336
-0.123804328393
-0.123889663743
-0.123988356424
-0.124101301691
-0.124230460364
-0.124383131629
-0.12455308159
-0.124737283334
-0.124947399887
-0.125176944479
-0.125430976973
-0.125703393739
-0.125992620976
-0.126297040673
-0.126618975223
-0.12696390009
-0.127333236854
-0.127728050995
-0.12814944248
-0.128597872909
-0.129073214802
-0.129575166777
-0.130103268408
-0.130656534325
-0.131233087919
-0.131830016683
-0.132443558844
-0.133069531976
-0.13370368845
-0.134341749515
-0.134979153205
-0.135610647923
-0.136229893324
-0.13682932097
-0.13740075896
-0.137936869067
-0.138432562096
-0.138885116775
-0.13929068924
-0.139649564291
-0.139970854213
-0.14026719555
-0.14054515737
-0.140807380447
-0.141059580728
-0.141302283896
-0.141533961867
-0.141740485846
-0.141906731607
-0.14200990824
-0.142086471956
-0.142146852367
-0.142191486531
-0.142230774216
-0.142256262342
-0.142264477322
-0.142253073529
-0.14222305467
-0.14218413915
-0.142148714565
-0.142127133288
-0.123289508745
-0.123292276727
-0.123296630897
-0.123299949262
-0.123306119757
-0.123311970179
-0.123319005398
-0.12332756121
-0.123336220127
-0.123352100563
-0.123368095923
-0.123389141079
-0.123415004377
-0.123443478728
-0.123474375214
-0.123511197876
-0.123554983241
-0.123604964578
-0.123662439168
-0.123729829502
-0.123809700218
-0.123903757572
-0.124013001625
-0.124134963229
-0.124277869357
-0.124446008687
-0.124625791076
-0.124827887295
-0.125051545562
-0.125294704569
-0.125563850879
-0.125848234773
-0.126146961866
-0.126464361684
-0.126806491266
-0.127174619962
-0.12756925269
-0.127991308742
-0.128441477107
-0.128920012285
-0.129426855949
-0.129961462091
-0.130522574683
-0.131108123024
-0.131715156537
-0.132339981066
-0.132978517056
-0.133626583506
-0.134279890576
-0.134933786428
-0.135582869243
-0.136220545627
-0.136838983883
-0.137429962786
-0.137986494609
-0.138503606939
-0.138978292365
-0.139399837644
-0.139771524064
-0.140115707743
-0.14045060315
-0.140767085597
-0.14105233961
-0.141325033604
-0.141585657564
-0.141828919619
-0.142043896889
-0.14223008246
-0.142337021183
-0.142397102411
-0.142420777898
-0.142423769313
-0.14245762807
-0.142480939089
-0.142478293131
-0.14244202061
-0.14237757147
-0.142301685497
-0.142239000686
-0.142201576616
-0.123258176167
-0.123259962796
-0.123262374908
-0.123266778678
-0.123273912415
-0.123278273478
-0.1232840156
-0.123291721428
-0.123297621137
-0.123309590597
-0.123324514169
-0.123342993983
-0.123365407782
-0.123391265647
-0.123420355557
-0.123452469965
-0.123490741718
-0.123535032372
-0.123586546426
-0.123647276441
-0.123719886044
-0.123807217158
-0.123913718895
-0.124032941241
-0.124164402243
-0.124323629799
-0.124499969593
-0.124691401455
-0.124911197339
-0.12514855067
-0.125406020342
-0.125682124767
-0.125975781022
-0.126290902637
-0.126630627034
-0.126997022067
-0.127391053583
-0.127813638625
-0.12826556805
-0.128747324287
-0.12925919651
-0.12980080321
-0.130370684082
-0.130966493069
-0.131585216062
-0.132223260029
-0.132876663265
-0.133541291849
-0.134212829292
-0.134886600577
-0.135557181436
-0.136217931072
-0.1368609372
-0.137477799453
-0.13806089663
-0.138602804928
-0.139103899203
-0.139537700438
-0.139916114308
-0.140292781465
-0.140699423322
-0.141072852268
-0.141365359538
-0.141651169691
-0.141927291645
-0.142185335713
-0.142408795788
-0.142589283572
-0.142725620717
-0.142769536641
-0.142741261252
-0.1426595611
-0.142721684244
-0.142760523033
-0.142750186442
-0.142680763456
-0.142563802552
-0.14242355386
-0.142314917108
-0.142248557144
-0.12322365096
-0.123224513491
-0.123224503496
-0.123229004638
-0.123234702723
-0.123238992793
-0.123243877506
-0.123250331144
-0.123255223843
-0.123263727496
-0.123275625373
-0.123290774002
-0.123309196203
-0.1233307993
-0.123357436228
-0.123386068937
-0.123419116166
-0.123457485727
-0.123502803453
-0.12355673107
-0.123621235569
-0.123699275239
-0.123798422676
-0.12391719699
-0.12404217439
-0.124187372891
-0.124358796435
-0.124542112319
-0.124748389513
-0.124979452021
-0.125229641967
-0.125498465045
-0.125785757976
-0.126097290958
-0.126434493369
-0.126798962515
-0.12719203118
-0.127614851139
-0.128068539134
-0.128553720495
-0.129070825781
-0.129619816977
-0.130199312851
-0.130806705575
-0.131438839247
-0.13209226411
-0.132763192171
-0.133447495644
-0.134140807654
-0.13483854181
-0.135535587661
-0.136225704469
-0.136901213608
-0.137552790688
-0.138169001947
-0.138732759002
-0.139276351191
-0.139719232164
-0.140080117668
-0.140498666026
-0.141075754778
-0.141624169055
-0.14183690674
-0.142133343263
-0.142435232073
-0.14272427068
-0.142963015878
-0.143105150745
-0.143235813388
-0.14336109353
-0.143286728221
-0.142831240115
-0.142991614741
-0.143084889748
-0.143085674194
-0.142978236083
-0.142782257356
-0.142530643515
-0.142355208494
-0.142233897356
-0.123186614256
-0.123187316348
-0.123187686286
-0.12318906583
-0.123191871414
-0.123195378136
-0.123199224315
-0.123203424109
-0.123208134203
-0.123213385398
-0.123221625928
-0.123232916223
-0.123247051736
-0.1232637788
-0.123284852066
-0.12330989744
-0.123338683555
-0.123371556846
-0.123410502251
-0.123457389798
-0.123513843319
-0.123581991003
-0.123670066901
-0.123783832227
-0.123906898303
-0.124038938243
-0.124200343551
-0.12437862626
-0.124570732001
-0.124789485774
-0.125030035419
-0.125291239053
-0.125574654023
-0.125882495069
-0.126216560113
-0.126578671401
-0.126970540406
-0.127393381237
-0.127848542803
-0.128337226474
-0.128859988568
-0.129416871609
-0.13000673527
-0.130626960977
-0.131274308983
-0.131945514785
-0.132637005971
-0.133344580921
-0.134063715347
-0.134790161246
-0.135519813867
-0.136247818596
-0.136967434062
-0.137666914417
-0.138323554644
-0.13888683929
-0.139549038169
-0.140033789354
-0.140239150879
-0.140649627482
-0.141520909937
-0.141464331694
-0.141414517324
-0.141507995783
-0.14162330227
-0.141761064462
-0.141908304956
-0.142070803677
-0.142170843621
-0.142065932299
-0.14188995054
-0.142302944267
-0.143535113796
-0.143883618037
-0.143852211077
-0.143614167923
-0.143228283354
-0.142604504024
-0.142325432726
-0.142090603992
-0.12314667475
-0.123147337796
-0.123148628875
-0.123146663704
-0.123146710091
-0.123148606458
-0.123150931475
-0.123153174955
-0.123157581489
-0.123158679833
-0.12316273638
-0.123169852018
-0.123179571005
-0.123191660567
-0.123206665991
-0.12322630244
-0.123249915832
-0.123277032577
-0.123309287692
-0.123348618456
-0.123396836877
-0.12345557837
-0.123530760364
-0.123633915227
-0.123754999846
-0.123877626891
-0.124022861045
-0.124196156712
-0.124381878297
-0.124583604983
-0.124811429428
-0.125063798153
-0.1253412585
-0.125644580272
-0.125974977412
-0.126334292147
-0.12672444619
-0.127147137588
-0.127603742717
-0.128095770218
-0.128624412692
-0.129189846919
-0.129790954543
-0.130425196292
-0.13108951329
-0.131781067421
-0.132496555468
-0.133231447847
-0.133980787219
-0.13474092066
-0.135510251806
-0.136287315465
-0.137067961445
-0.137835921896
-0.138538852228
-0.138973519699
-0.140038389041
-0.140024499276
-0.139965914647
-0.140015581126
-0.140316845751
-0.140626994651
-0.140588827035
-0.140408118713
-0.140139342451
-0.139842828064
-0.139569648621
-0.139391477875
-0.139299056172
-0.139211797964
-0.139139381121
-0.139286645562
-0.139977132341
-0.140817925648
-0.141542254412
-0.141924346698
-0.141999753832
-0.142295554388
-0.142344137378
-0.141748336128
-0.123103526425
-0.123103664468
-0.123103567278
-0.123100543856
-0.123098583861
-0.123098757713
-0.123098887967
-0.123098370039
-0.123101149326
-0.123098888183
-0.123098878463
-0.123101742545
-0.123107068985
-0.123114640736
-0.123123554892
-0.123136580138
-0.123153803294
-0.123174350572
-0.123199266997
-0.123230389932
-0.123269588313
-0.123318721696
-0.123381769533
-0.123470717218
-0.123584172218
-0.123703120405
-0.123830259152
-0.123986638648
-0.124166345244
-0.124359459856
-0.124574066633
-0.124815518299
-0.125084960625
-0.125382311158
-0.125708122322
-0.126063838311
-0.126451716598
-0.126873716284
-0.127331636427
-0.127827052179
-0.12836163462
-0.128936138937
-0.129549525172
-0.130199049717
-0.130881893097
-0.131596284352
-0.132339654248
-0.133106519955
-0.133890233515
-0.134688038472
-0.135504170078
-0.136344160105
-0.137212429458
-0.138103999275
-0.138995472676
-0.139103537835
-0.139309224209
-0.139577115331
-0.139539353781
-0.139407566479
-0.139343794286
-0.139324800382
-0.13901400963
-0.138471181791
-0.137763259542
-0.136994778685
-0.136253377474
-0.135625203678
-0.135137244115
-0.134748607184
-0.134406806501
-0.134337335433
-0.134928340524
-0.136083232549
-0.137522307563
-0.138908684865
-0.139953782204
-0.140409383594
-0.140473880197
-0.14037870154
-0.123058036063
-0.123057605284
-0.123056441081
-0.123051913397
-0.123048473304
-0.123046500909
-0.123043904433
-0.123039605401
-0.123038249695
-0.123033686905
-0.123029894878
-0.123028427579
-0.123029361702
-0.123032682335
-0.123034795848
-0.123040667733
-0.123050681781
-0.123063868487
-0.12308060735
-0.123102745681
-0.123132017594
-0.123170491467
-0.123221449096
-0.123294709688
-0.123394690436
-0.123510106529
-0.123624831
-0.12376120547
-0.123923947318
-0.124107398495
-0.124311483825
-0.124543062407
-0.124803449946
-0.125093457171
-0.125413741037
-0.125765243948
-0.126150019171
-0.126570740582
-0.127029505614
-0.127528226962
-0.128068871176
-0.128652734691
-0.129279290916
-0.129945551531
-0.130648544924
-0.131388313383
-0.132163884032
-0.132967511591
-0.133788727101
-0.134625314246
-0.135492169835
-0.136404688407
-0.137372197648
-0.138461581736
-0.13861273873
-0.138811154676
-0.138957246556
-0.13906651549
-0.138943193173
-0.138638304334
-0.138222736727
-0.137686874764
-0.136941689875
-0.136043333147
-0.135031939142
-0.133983127415
-0.132955569853
-0.1319902381
-0.131091160704
-0.130259388872
-0.129536871307
-0.129057938446
-0.129104634836
-0.129843111822
-0.13127698685
-0.133241075443
-0.135267293612
-0.136699958188
-0.137994053453
-0.140509953484
-0.123011318072
-0.123010150506
-0.123006898525
-0.123001344199
-0.122997042107
-0.122992716284
-0.122987262776
-0.122979432282
-0.122973461379
-0.122964696235
-0.122956313964
-0.122949857415
-0.122945648827
-0.122944226287
-0.122939273292
-0.122937723936
-0.122939972445
-0.122945316922
-0.122953127027
-0.122965499456
-0.122983932215
-0.123010610135
-0.123048654403
-0.123105558708
-0.123188130266
-0.123293391399
-0.123403666366
-0.123523467562
-0.123666402337
-0.12383302492
-0.124023773036
-0.124243842125
-0.124493641562
-0.124774968293
-0.125088755145
-0.12543518835
-0.125816435644
-0.126235245521
-0.126694434381
-0.127196111364
-0.127742636333
-0.128336229505
-0.128976955096
-0.129661685608
-0.13038577774
-0.13115092887
-0.131962151064
-0.132810594315
-0.133673885483
-0.134543317264
-0.135458137106
-0.136443956179
-0.137535175447
-0.137706796704
-0.138010602504
-0.138435298437
-0.138567722489
-0.138389939343
-0.137945689897
-0.137287107419
-0.136438702175
-0.135397255106
-0.134178121254
-0.132848657037
-0.131444419732
-0.130014560467
-0.128599056403
-0.127225460521
-0.125902907236
-0.124665999332
-0.12361817417
-0.122850973377
-0.122538233494
-0.122888024878
-0.124072940656
-0.126142165879
-0.128627690154
-0.130575748191
-0.133444923529
-0.143948898708
-0.122964481887
-0.122962537918
-0.122957084995
-0.122950706147
-0.122945130105
-0.12293812358
-0.122929432577
-0.122918498145
-0.12290716329
-0.122892936384
-0.122878875893
-0.122866464693
-0.122855859695
-0.122847184081
-0.12283585484
-0.122826857676
-0.122820775972
-0.122817395174
-0.122815940736
-0.122818051418
-0.122824895324
-0.122838560307
-0.122862700736
-0.122902459734
-0.122964868836
-0.123052670689
-0.123155346654
-0.123262785996
-0.123387688634
-0.123536851537
-0.123710835813
-0.123916037795
-0.124153788288
-0.124424211386
-0.124729899366
-0.125070269817
-0.125446959918
-0.125863296875
-0.126322485349
-0.126827134924
-0.12737953127
-0.127982560423
-0.128637397038
-0.129341671997
-0.130090814733
-0.130887043461
-0.1317369471
-0.132628076181
-0.133535727344
-0.134423133548
-0.135374014555
-0.13642667537
-0.136571182935
-0.136878713814
-0.137595294842
-0.137953271884
-0.137800882515
-0.137245893289
-0.136365318881
-0.13523255276
-0.133882273526
-0.13233451783
-0.130628379147
-0.128818215506
-0.126935158648
-0.125012662605
-0.123077693487
-0.121147190588
-0.119226347534
-0.117348827673
-0.115626458216
-0.114209155988
-0.11318260259
-0.112704269117
-0.112990738351
-0.114285618233
-0.116337141951
-0.11764984825
-0.117689025565
-0.121924300724
-0.12291855239
-0.122915945575
-0.122908995831
-0.12290160503
-0.122893720443
-0.122883434986
-0.122870614142
-0.122856342292
-0.122839188389
-0.122818785265
-0.12279828766
-0.122779126987
-0.122761323045
-0.122743804897
-0.122725314857
-0.122708325237
-0.122693199182
-0.122679780069
-0.122668211395
-0.122659524772
-0.122654230399
-0.12265381404
-0.122662868251
-0.122684727603
-0.122725747486
-0.122791192824
-0.122876408706
-0.122971904186
-0.123080726199
-0.123212218746
-0.123369679186
-0.123556279124
-0.123778340496
-0.124036216299
-0.124332815883
-0.124666527462
-0.125037754702
-0.125450573146
-0.125908857322
-0.1264159626
-0.126974460159
-0.12758724461
-0.128257289415
-0.128983817051
-0.129762412309
-0.130591915155
-0.13148086019
-0.132425512246
-0.133404568515
-0.134253791358
-0.135212245978
-0.135384093241
-0.135636971764
-0.136496740856
-0.137182673767
-0.137148466751
-0.136537309013
-0.135493107531
-0.13409570433
-0.132417880828
-0.130505666206
-0.128394768516
-0.126122673944
-0.123722209178
-0.121211390786
-0.118608258324
-0.115927987331
-0.113180709714
-0.110370921143
-0.107525268037
-0.104738017208
-0.102155042937
-0.0997814550064
-0.0975869779779
-0.0957026905769
-0.094527769723
-0.0939230949058
-0.0900691960155
-0.0748999832511
-0.0562732847674
-0.122873774594
-0.122870556842
-0.122862528152
-0.1228538749
-0.122843207334
-0.122829168992
-0.122811904421
-0.12279350641
-0.122769710451
-0.12274271695
-0.122715222729
-0.122688684265
-0.122663170185
-0.122636808543
-0.122609184068
-0.122583074212
-0.122558040207
-0.122533446854
-0.12251003979
-0.12248937154
-0.122471057197
-0.122455518143
-0.122447858126
-0.122450966412
-0.122469975775
-0.122510847719
-0.122574402627
-0.122654661397
-0.122751350079
-0.122861694836
-0.122998618124
-0.123165915397
-0.123369089897
-0.123608352136
-0.123890960914
-0.124217683899
-0.124583501567
-0.124992506529
-0.125448788896
-0.12595702618
-0.126521335125
-0.127145002948
-0.127832032303
-0.128581582219
-0.129385954815
-0.130245494101
-0.131179542193
-0.132207214532
-0.133356584817
-0.134003520984
-0.134284226449
-0.134493400532
-0.13531414601
-0.136225818856
-0.136443440602
-0.13585565132
-0.134677729351
-0.133048698879
-0.131055366196
-0.128764891635
-0.126223940331
-0.123469310295
-0.120530987805
-0.117428925407
-0.114174614961
-0.110780147573
-0.107256824026
-0.103611924949
-0.0998448324341
-0.0959574122423
-0.0919777971475
-0.0879516640874
-0.0838128586227
-0.0792648125824
-0.0742237397265
-0.0690408371944
-0.0630882552388
-0.0494847134832
-0.0123750453519
0.0420770764602
-0.122830187954
-0.122826307489
-0.122817384629
-0.122807177624
-0.122793414547
-0.122775383771
-0.122753906773
-0.122730139665
-0.122699257549
-0.122665496472
-0.12263032684
-0.122595617133
-0.122561615164
-0.122525762988
-0.122487841509
-0.122451429616
-0.122415702045
-0.122378547163
-0.122341663506
-0.122307378007
-0.122274436536
-0.122242575326
-0.122216167672
-0.122199449038
-0.1221958191
-0.122210593622
-0.122248918843
-0.122307103896
-0.122388253555
-0.122481862379
-0.12259567123
-0.122737754338
-0.12291974931
-0.12314256904
-0.123405624687
-0.123718174965
-0.124076937429
-0.124481479482
-0.124936116627
-0.125444952472
-0.126013792004
-0.126649174148
-0.127354633587
-0.128125297939
-0.12894831357
-0.129828151057
-0.13081302723
-0.132004717052
-0.134124295262
-0.133478685455
-0.133611677644
-0.134189529002
-0.135190267466
-0.135624203222
-0.135190387823
-0.133953572449
-0.132128583899
-0.129845822203
-0.127195092503
-0.124241104646
-0.121031111364
-0.117602773527
-0.113986599125
-0.110205359855
-0.106276345053
-0.102213337388
-0.0980218346714
-0.0936926262773
-0.0891955448966
-0.0844770123366
-0.0794575339314
-0.074023702257
-0.0679996016268
-0.0609855273798
-0.0527183310321
-0.0433212514655
-0.0310148493676
-0.0062371301013
0.0478993954931
0.116871205805
-0.122787495531
-0.122782942757
-0.122773086475
-0.122760940817
-0.122743563294
-0.122721618609
-0.12269580564
-0.122665608375
-0.122627926589
-0.122587551845
-0.122544057533
-0.122500349572
-0.122456942123
-0.122410639721
-0.122361312698
-0.122313213416
-0.122265736237
-0.122214356351
-0.122162762662
-0.122113241095
-0.122063179344
-0.122014029165
-0.121967297336
-0.12192872604
-0.121901725393
-0.1218896414
-0.121899792121
-0.121930650988
-0.121986719401
-0.122063618685
-0.122157989402
-0.122274093854
-0.1224257661
-0.122625376714
-0.122871960594
-0.123166945976
-0.123513673471
-0.123910725148
-0.124361727219
-0.124871365933
-0.125445571905
-0.126092313151
-0.126814971152
-0.127602904979
-0.128438901991
-0.129315527965
-0.130233753564
-0.131122714852
-0.13194420067
-0.132539356114
-0.132661851044
-0.134053419495
-0.134697563629
-0.134479492306
-0.133313465002
-0.131364365051
-0.128840252378
-0.125867463652
-0.122538427113
-0.118921478409
-0.11507079442
-0.111031277588
-0.106840016182
-0.102524579115
-0.0981011943775
-0.0935705641629
-0.0889107495269
-0.0840717481206
-0.0789741018236
-0.0735057261994
-0.0674987451867