/*--------------------------------*- C++ -*----------------------------------*\
| =========                 |                                                 |
| \\      /  F ield         | OpenFOAM: The Open Source CFD Toolbox           |
|  \\    /   O peration     | Version:  v1806                                 |
|   \\  /    A nd           | Web:      www.OpenFOAM.com                      |
|    \\/     M anipulation  |                                                 |
\*---------------------------------------------------------------------------*/
FoamFile
{
    version     2.0;
    format      ascii;
    class       volVectorField;
    location    "678";
    object      U;
}
// * * * * * * * * * * * * * * * * * * * * * * * * * * * * * * * * * * * * * //

dimensions      [0 1 -1 0 0 0 0];


internalField   nonuniform List<vector> 
6400
(
(-0.000113916063432 -0.000149313108576 0)
(-0.00030198134405 -0.000109011182403 0)
(-0.000437784138768 -8.4959246368e-05 0)
(-0.000581715809924 -7.30007495265e-05 0)
(-0.000687190304723 -4.63323777856e-05 0)
(-0.000763877537491 -2.63311803106e-05 0)
(-0.000807444617033 -1.8670889995e-05 0)
(-0.000843745883753 -2.82863921184e-05 0)
(-0.00093111353921 -3.9124057775e-05 0)
(-0.00101648806213 -3.6614345594e-05 0)
(-0.00105768208791 -3.26745914941e-05 0)
(-0.0011340618855 -3.38173197194e-05 0)
(-0.00120265969083 -3.00006260856e-05 0)
(-0.00125769262365 -2.40849572958e-05 0)
(-0.0012988954712 -2.14131655457e-05 0)
(-0.00134133539839 -2.38842082329e-05 0)
(-0.00139263008911 -2.44191193917e-05 0)
(-0.00143682341191 -2.10036241179e-05 0)
(-0.0014698958172 -1.64792718684e-05 0)
(-0.00150135123092 -1.46180019226e-05 0)
(-0.00154124379064 -1.92506588632e-05 0)
(-0.00158867527769 -2.40089799866e-05 0)
(-0.00163746603093 -2.44691334749e-05 0)
(-0.00168102245122 -2.30741783872e-05 0)
(-0.00172119551037 -2.07593973892e-05 0)
(-0.00175924200217 -1.82287598271e-05 0)
(-0.0017963856597 -1.68532861051e-05 0)
(-0.00182987342462 -1.51383225911e-05 0)
(-0.00185786902815 -1.29160559482e-05 0)
(-0.00188103596569 -1.11699872098e-05 0)
(-0.001899859244 -1.05822559742e-05 0)
(-0.00191896243918 -9.58248330648e-06 0)
(-0.00193804063832 -7.88974030788e-06 0)
(-0.00195371592546 -7.63578510982e-06 0)
(-0.00196833505732 -7.41204932276e-06 0)
(-0.0019868673536 -6.98200640524e-06 0)
(-0.00200180234998 -7.06308092169e-06 0)
(-0.00200685656112 -6.17714452403e-06 0)
(-0.00201915081774 -4.37383640987e-06 0)
(-0.00203527881951 -3.08667130205e-06 0)
(-0.00204311010527 -3.91343022349e-06 0)
(-0.00204110586657 -2.97642718593e-06 0)
(-0.00203654772963 1.71043648538e-06 0)
(-0.00203047968926 5.14311026561e-06 0)
(-0.00202003197547 6.93134389324e-06 0)
(-0.00200561942617 8.95363187461e-06 0)
(-0.00198678765899 1.11739193415e-05 0)
(-0.00196258320237 1.39339528559e-05 0)
(-0.00193297510192 1.66838857866e-05 0)
(-0.00189772249142 1.76729063815e-05 0)
(-0.00185933313819 1.68656273012e-05 0)
(-0.00182280436572 1.92804493648e-05 0)
(-0.00177637476556 2.80131448249e-05 0)
(-0.00172244573134 3.38958062501e-05 0)
(-0.00165180193181 3.92856134925e-05 0)
(-0.00155632276756 4.71022645403e-05 0)
(-0.00145545482678 4.8368984167e-05 0)
(-0.00136529873323 4.84287521333e-05 0)
(-0.00127063614918 5.58048411634e-05 0)
(-0.00114061374809 6.25442693142e-05 0)
(-0.00100648583733 6.53108171839e-05 0)
(-0.000858335142472 8.1418089783e-05 0)
(-0.000720390430342 0.00011755511649 0)
(-0.000450469994144 0.000122531288085 0)
(-0.000201615301858 8.27201501153e-05 0)
(-7.32639225716e-05 5.66447245092e-05 0)
(1.43382277651e-05 4.5162942778e-05 0)
(9.12599643878e-05 3.87179177277e-05 0)
(0.000165813069249 3.4264756939e-05 0)
(0.000230643387216 2.82015590657e-05 0)
(0.000282571849573 1.98856421395e-05 0)
(0.000308144117839 9.30176493304e-06 0)
(0.000308228992576 -2.26204808869e-06 0)
(0.000307371230979 -1.48776315099e-05 0)
(0.000251119244278 -1.80340037856e-05 0)
(0.000234091593931 -2.01793179747e-05 0)
(0.00016152580356 -1.40488468424e-05 0)
(0.000172656821789 -2.280870218e-05 0)
(7.56765718115e-05 -1.76068512198e-05 0)
(5.68476889175e-05 -3.38279747575e-05 0)
(-4.35573496604e-05 -0.000212340774919 0)
(-0.00018419974645 -0.000234316703949 0)
(-0.000319446703234 -0.000207702498844 0)
(-0.000408029182998 -0.000166190606397 0)
(-0.000581149099654 -0.000160376379141 0)
(-0.000731294857255 -0.000113024713729 0)
(-0.000818720018832 -7.36120982017e-05 0)
(-0.000879919543173 -9.09931638326e-05 0)
(-0.00094483529975 -0.000113523734995 0)
(-0.00101635290683 -0.000110071064291 0)
(-0.00108354775495 -0.000101558337645 0)
(-0.00114488969395 -9.67409056053e-05 0)
(-0.00120162838277 -8.5282709851e-05 0)
(-0.00125203456526 -7.17341683245e-05 0)
(-0.00130047638064 -6.55280108596e-05 0)
(-0.00134642264477 -7.51475729672e-05 0)
(-0.00139300464377 -7.8171871418e-05 0)
(-0.0014318797829 -5.81721470926e-05 0)
(-0.00143965496009 -4.3337748351e-05 0)
(-0.00147859756862 -4.48040323961e-05 0)
(-0.00152929732545 -5.99433788537e-05 0)
(-0.00158265114714 -7.63907865344e-05 0)
(-0.00163887020733 -7.70766658355e-05 0)
(-0.00168585667547 -6.77077120821e-05 0)
(-0.00171677583687 -6.04604308139e-05 0)
(-0.00175939412166 -5.62580219813e-05 0)
(-0.00179865246213 -5.11210545803e-05 0)
(-0.00183011162696 -4.47836878155e-05 0)
(-0.00185713230836 -3.86729394689e-05 0)
(-0.00188122227325 -3.38026722422e-05 0)
(-0.00190167774388 -3.1059550506e-05 0)
(-0.00191554534984 -2.76917428731e-05 0)
(-0.00193450775934 -2.24983737045e-05 0)
(-0.00194929273321 -2.24999400049e-05 0)
(-0.00196177200463 -2.39267147243e-05 0)
(-0.00198625655922 -2.10260832303e-05 0)
(-0.00199817402721 -2.04650303436e-05 0)
(-0.00200337090668 -2.02854666461e-05 0)
(-0.00201964155148 -1.65117000097e-05 0)
(-0.00204310218994 -1.04565734459e-05 0)
(-0.00205232707295 -2.19071048853e-06 0)
(-0.00201817862147 5.27543834195e-06 0)
(-0.00199729509887 9.89604491551e-06 0)
(-0.00199534181973 1.33429977206e-05 0)
(-0.00198771474712 1.72692209698e-05 0)
(-0.00197887174866 2.24381648712e-05 0)
(-0.00196713281573 2.90766837598e-05 0)
(-0.00194788090884 3.68201098861e-05 0)
(-0.00192695335888 4.52419906825e-05 0)
(-0.00189881388273 5.32683171433e-05 0)
(-0.00185666996607 5.97257899857e-05 0)
(-0.00179432191521 6.58150073361e-05 0)
(-0.00173613687357 7.44124909877e-05 0)
(-0.00172200460165 9.16579969196e-05 0)
(-0.00164436292882 0.000113910596997 0)
(-0.00155969034042 0.0001312991708 0)
(-0.00148975552936 0.000140117946241 0)
(-0.00139839673651 0.000149195098295 0)
(-0.00129060176618 0.000168659354786 0)
(-0.0011733501923 0.000193262481639 0)
(-0.00103956083614 0.000220696772429 0)
(-0.000835154726452 0.000251568333665 0)
(-0.000695996912829 0.000345885591985 0)
(-0.000440175904504 0.000368324598823 0)
(-0.000210774637746 0.000271104722289 0)
(-6.94773868249e-05 0.000171775717536 0)
(2.09889886084e-05 0.000127431307841 0)
(0.000102955557202 0.000116567739487 0)
(0.000178398680872 0.000105055798938 0)
(0.000246559246547 8.76065713872e-05 0)
(0.000293670514242 5.82169541032e-05 0)
(0.000314306607122 2.24835031548e-05 0)
(0.000304305666779 -6.62752006535e-06 0)
(0.000309602800604 -3.19345455725e-05 0)
(0.000287803109757 -4.89743067325e-05 0)
(0.000258601963485 -5.82815225204e-05 0)
(0.000219729143548 -5.80456052773e-05 0)
(0.000178622342379 -6.94974911099e-05 0)
(0.000112064826133 -8.01245217586e-05 0)
(5.24887069347e-05 -0.000135276178785 0)
(-6.34163269543e-05 -0.00036619566627 0)
(-0.000176303484044 -0.000391627084131 0)
(-0.000273490940771 -0.000358088660277 -8.71274751996e-29)
(-0.000452352971267 -0.000353106135407 7.99890707575e-29)
(-0.000614973913645 -0.000340576255656 6.97635718245e-29)
(-0.000721117255498 -0.000271843328142 -6.33552258727e-29)
(-0.000798276116336 -0.000149265929504 6.32732018289e-29)
(-0.000862282633281 -0.000154557193586 -6.09211794362e-29)
(-0.000929571654626 -0.000185185820684 0)
(-0.00100531764718 -0.000185727880157 0)
(-0.00107862850575 -0.000172059041299 0)
(-0.00114299798389 -0.000155377462007 0)
(-0.00119986896606 -0.000136325734428 0)
(-0.00124907733569 -0.000121877009963 0)
(-0.00129887261194 -0.000113707765783 0)
(-0.00134551260936 -0.00010224415875 0)
(-0.00127611477078 -8.01758003733e-05 0)
(-0.00125743268198 -6.64308004577e-05 0)
(-0.00130190837407 -7.69192658219e-05 0)
(-0.00138377925638 -0.000108709747087 0)
(-0.00152414622294 -0.000136737217816 0)
(-0.00159783731222 -0.000138791426812 0)
(-0.00163059057076 -0.000126304210233 0)
(-0.00167751825791 -0.000112365703427 0)
(-0.00172458758171 -0.000102143177262 0)
(-0.00176205637106 -9.42017367633e-05 0)
(-0.00179614915652 -8.42460214609e-05 0)
(-0.00182803427298 -7.37754939373e-05 0)
(-0.00185574863472 -6.43513764586e-05 0)
(-0.00187893329203 -5.67553564685e-05 -1.12063346142e-28)
(-0.00190149362976 -5.01612365908e-05 1.08310828104e-28)
(-0.00191076931681 -4.4266838671e-05 0)
(-0.00192800875561 -3.78666960754e-05 0)
(-0.00195419429347 -3.36085297154e-05 0)
(-0.00194729583518 -3.82337298961e-05 0)
(-0.00197263301097 -3.98309830349e-05 0)
(-0.00200361126099 -3.42281235108e-05 0)
(-0.00199699017308 -3.32055203542e-05 0)
(-0.00201539927705 -3.29065132924e-05 0)
(-0.00204104150232 -2.19692422638e-05 0)
(-0.00205146718564 -8.36488407806e-07 0)
(-0.00204776691904 1.52001747321e-05 0)
(-0.00204102361716 1.93993370522e-05 0)
(-0.00203394660041 2.21044152819e-05 0)
(-0.0020233149672 2.81125161442e-05 0)
(-0.0020085025443 3.64225722005e-05 0)
(-0.00198963114307 4.70967404461e-05 0)
(-0.00196651154375 5.91933953053e-05 0)
(-0.00193912862349 7.26886581962e-05 0)
(-0.00190688622926 8.83414404962e-05 0)
(-0.00186896427605 0.000104587161118 0)
(-0.00182513331331 0.000117336120843 0)
(-0.00177557426881 0.000127403288839 0)
(-0.00171175282394 0.000150562687626 0)
(-0.00163431493701 0.000181771510083 0)
(-0.00156741611142 0.000205714983196 0)
(-0.00148866015339 0.000226346392999 0)
(-0.00139131807899 0.000251696807945 0)
(-0.00127908723814 0.000284170069604 0)
(-0.00115219298917 0.000325595055615 0)
(-0.00100183697559 0.000381450826047 0)
(-0.000835003005234 0.000462542950182 0)
(-0.000651893297671 0.000584105784383 0)
(-0.000407393357418 0.000570678273012 0)
(-0.00018858485632 0.000400988907472 0)
(-5.6760395331e-05 0.000288058580973 0)
(4.35609649506e-05 0.000231984755315 0)
(0.000127208677913 0.000197385746467 0)
(0.000198277572846 0.000170045965112 0)
(0.00025794015676 0.000135365469239 0)
(0.000300170542224 8.84830622495e-05 0)
(0.000326364840624 3.94337798845e-05 0)
(0.000349374959435 -1.86774605168e-06 0)
(0.000350057816317 -4.56312182074e-05 0)
(0.00031661414332 -8.32242456115e-05 0)
(0.000270677526485 -0.000100333741161 0)
(0.000221405701424 -0.000105893534134 0)
(0.000174470605225 -0.000131448054326 0)
(0.000122188147857 -0.000186512019716 0)
(3.20615066219e-05 -0.000190846268336 0)
(-6.29641577927e-05 -0.00053767486756 0)
(-8.89274026178e-05 -0.000375167080585 0)
(-0.000223635571077 -0.000534757797059 0)
(-0.000389216528874 -0.000522837291082 0)
(-0.000539312868942 -0.00044310204053 0)
(-0.000335936773604 -0.000184666048862 0)
(-0.000426330928288 -0.000184271777596 0)
(-0.000750291445439 -0.000304550337704 0)
(-0.000884665104002 -0.000305117404164 0)
(-0.000980617531646 -0.000274752640299 0)
(-0.00106653633528 -0.000249167763455 0)
(-0.00113868451527 -0.000220537666487 0)
(-0.00119968523689 -0.000191322494125 0)
(-0.00124299379659 -0.000154369555339 0)
(-0.00121043764067 -0.00010967890001 0)
(-0.00117394673525 -8.0452614964e-05 0)
(-0.00118305829134 -7.92301832816e-05 0)
(-0.00125075865162 -0.000115049220485 0)
(-0.00138343481228 -0.000169800797532 0)
(-0.00149689201764 -0.000212877201548 0)
(-0.00154226542009 -0.000214244507408 0)
(-0.00158930972846 -0.00019316061687 0)
(-0.00163901122337 -0.000173769118813 0)
(-0.00168288942596 -0.000158356655029 0)
(-0.00172257139953 -0.000143565285699 0)
(-0.00175871533365 -0.000129536812377 0)
(-0.00179192983188 -0.000116372462944 0)
(-0.00182607077883 -0.000103112061425 0)
(-0.00185169927418 -9.02709830751e-05 0)
(-0.0018796565636 -7.91347865103e-05 0)
(-0.00189271385743 -6.94027039902e-05 0)
(-0.00191583284049 -5.95438710403e-05 0)
(-0.0019155189751 -4.94498236387e-05 0)
(-0.00193657673771 -4.7994582793e-05 0)
(-0.00197026925393 -5.34321626551e-05 0)
(-0.00196796707839 -5.83358328203e-05 0)
(-0.0019975516817 -5.56672472666e-05 0)
(-0.00202580314601 -5.07584210756e-05 0)
(-0.00203684934946 -4.60030301343e-05 0)
(-0.00204464519163 -3.05656279586e-05 0)
(-0.0020498319418 -6.71943164852e-06 0)
(-0.00204941002624 1.31514647044e-05 0)
(-0.00204511016187 2.41105012812e-05 0)
(-0.00203801081185 3.20237957296e-05 0)
(-0.00202705969138 4.17130587188e-05 0)
(-0.00201200786475 5.39081640493e-05 9.60659511845e-29)
(-0.00199290467302 6.83839528041e-05 -9.65947541047e-29)
(-0.00196960047812 8.46974471896e-05 0)
(-0.00194192012304 0.000102831655149 0)
(-0.00190940431371 0.000122745214984 0)
(-0.00187127395079 0.00014324850414 0)
(-0.00182644485293 0.000163472901253 0)
(-0.00177372467973 0.000186921453588 0)
(-0.00171136178589 0.000218245570903 0)
(-0.00164151061719 0.000251441139768 0)
(-0.0015663280005 0.000283300151995 0)
(-0.00148021760387 0.00031894530817 0)
(-0.0013777367951 0.000360755094682 1.83976230428e-28)
(-0.00125735500451 0.000411298948204 -2.1348512084e-28)
(-0.00111656720375 0.000475129305392 0)
(-0.000951174582577 0.000557502673268 0)
(-0.000765783833757 0.000663586346279 0)
(-0.000577140560966 0.000760538877385 0)
(-0.000397399071302 0.000756471335005 0)
(-0.000203102472937 0.000612200509342 0)
(-3.47207172653e-05 0.000410580219542 0)
(7.1023128281e-05 0.000316732985126 0)
(0.000158734089743 0.000272968091712 0)
(0.000233386671568 0.000234913770556 0)
(0.000301823212083 0.000191831167417 0)
(0.000358591733942 0.00013444742094 0)
(0.000397063036299 6.8280150184e-05 0)
(0.000398084532438 -6.72817895496e-06 0)
(0.000346876300441 -7.61689266312e-05 0)
(0.000301394727669 -0.000124222575435 0)
(0.000254595606586 -0.000155919653478 0)
(0.000193238562498 -0.00016778108802 0)
(0.000114860758249 -0.000156787813568 0)
(8.37725197313e-05 -0.000215300795939 0)
(2.83183261163e-05 -0.000255615408587 0)
(-1.03196993881e-05 -0.000549196546131 0)
(-4.94950424229e-05 -0.000455972878763 0)
(-0.000199568264027 -0.000691991588265 0)
(-0.000334507594643 -0.000638594231924 0)
(-0.000381190032598 -0.000437335944726 0)
(-0.000313455103281 -0.000249558150022 0)
(-0.000519454127206 -0.000387668668832 0)
(-0.00073911945941 -0.000497422877767 0)
(-0.000835674965028 -0.000435521016541 0)
(-0.000946262320552 -0.000376942742932 0)
(-0.00104140815259 -0.000340830488806 0)
(-0.0011223778687 -0.000295813438104 0)
(-0.00114831177295 -0.000215914920988 0)
(-0.00108962105289 -0.000133304091694 0)
(-0.00111424326132 -0.00010317069029 0)
(-0.00117602925599 -0.000115216258824 0)
(-0.00127272922047 -0.000160958207386 0)
(-0.00138190836779 -0.000222787404235 0)
(-0.00145697661477 -0.000262152135301 0)
(-0.00148901946806 -0.000264741166926 0)
(-0.0015368664555 -0.000257554190965 0)
(-0.00159135395281 -0.000243793162447 0)
(-0.00163764007161 -0.000222849591887 0)
(-0.0016806810205 -0.00020117513029 0)
(-0.00171947915348 -0.000181688714367 0)
(-0.00175409465984 -0.000165064343433 0)
(-0.00179107380272 -0.000148880383838 0)
(-0.00181743718252 -0.000132441499708 0)
(-0.00185288825226 -0.000116227949492 0)
(-0.00186636477401 -0.000100359667026 0)
(-0.0018979636117 -8.69103947099e-05 -1.07672328042e-28)
(-0.00188546040235 -7.42332938755e-05 1.0270124475e-28)
(-0.00192287681061 -6.81488744053e-05 0)
(-0.00195619718834 -6.64308466059e-05 0)
(-0.00196020811911 -7.21174929218e-05 0)
(-0.0019955231634 -8.02135950997e-05 0)
(-0.00201626432899 -8.01802606554e-05 0)
(-0.00203096925669 -6.90814079154e-05 0)
(-0.00204091425267 -5.37350347195e-05 0)
(-0.00204772074411 -3.40255271042e-05 0)
(-0.00205228137594 -1.00508251851e-05 0)
(-0.00205314521392 1.19115177022e-05 0)
(-0.00205003413015 2.80276373499e-05 0)
(-0.00204312922076 4.11999135126e-05 0)
(-0.0020321145853 5.5177350446e-05 0)
(-0.00201697175173 7.1320971142e-05 0)
(-0.00199772361005 8.97492843529e-05 0)
(-0.00197421462746 0.000110287138174 0)
(-0.00194616234701 0.000132954032034 0)
(-0.00191307519976 0.000157731222059 0)
(-0.00187415346231 0.000184219371647 0)
(-0.00182823366025 0.000212653563782 0)
(-0.00177409990845 0.00024511879218 0)
(-0.00171102235045 0.000282920316934 0)
(-0.00163992429651 0.000323713450502 0)
(-0.00156036551451 0.00036781150251 0)
(-0.0014674379913 0.000418960359863 0)
(-0.00135580873791 0.000479926407764 0)
(-0.0012220304499 0.000553654939425 0)
(-0.00106360179793 0.00064359380061 0)
(-0.000882030754384 0.000748817836083 0)
(-0.000692420957361 0.000854293206746 0)
(-0.000517940927043 0.000917190030102 0)
(-0.000364943767564 0.0009276147671 0)
(-0.000183729896172 0.000807646860793 0)
(-1.66132488988e-05 0.000574757729408 0)
(0.000104014613091 0.000436146510159 0)
(0.000202026078741 0.000361045224169 0)
(0.000282877765998 0.000305586251364 0)
(0.000359065230401 0.000253348227189 0)
(0.000432426992298 0.000184766455076 0)
(0.000458050728778 7.53802577968e-05 0)
(0.000404546817899 -4.21817390274e-05 0)
(0.000356813051268 -0.000125295446346 0)
(0.00030616960798 -0.000184348877596 0)
(0.000244341040777 -0.000224877714072 0)
(0.000168208671615 -0.000221145663944 0)
(0.000108217956282 -0.000212390278401 0)
(7.09453764551e-05 -0.000279093831194 0)
(1.91638365346e-05 -0.000295203188642 0)
(-1.51411108083e-06 -0.00051922138409 0)
(-5.73621050276e-05 -0.000552276744458 0)
(-0.000198906179045 -0.000792735716391 0)
(-0.000285947406274 -0.00067723489363 0)
(-0.000230647432865 -0.000355162676274 0)
(-0.000317024712977 -0.000359599872279 0)
(-0.000615425052432 -0.000606199161681 0)
(-0.000706658871467 -0.000607917711794 0)
(-0.000799637882933 -0.00054377655415 0)
(-0.000905322520326 -0.000485240511058 0)
(-0.00100535589982 -0.000416978919005 0)
(-0.000976673042293 -0.000298891297584 0)
(-0.000916320913913 -0.000182864734623 0)
(-0.000982468151597 -0.000153432128446 0)
(-0.00106445186846 -0.000171051543265 0)
(-0.00119975936746 -0.000222907973922 0)
(-0.00132414178368 -0.000274775721731 0)
(-0.00140395999527 -0.000298726997256 0)
(-0.00142710240986 -0.00029809983737 0)
(-0.00148166450244 -0.000307363825531 0)
(-0.0015418909019 -0.00031017157755 0)
(-0.00158918417457 -0.000293449815931 0)
(-0.001633525322 -0.000268879330406 0)
(-0.00167480895894 -0.000244059963557 0)
(-0.0017181174229 -0.000221078785228 0)
(-0.00175289387233 -0.000198254274295 0)
(-0.00177362663582 -0.000180076635392 0)
(-0.00182091984056 -0.000162808002601 0)
(-0.0018286563791 -0.000140243782577 0)
(-0.00187488503149 -0.000119051776961 0)
(-0.00185146886913 -9.9045124637e-05 0)
(-0.00190198858992 -9.4288864185e-05 0)
(-0.00188728266927 -9.05272039341e-05 0)
(-0.0019422412455 -9.37056998476e-05 0)
(-0.00198832928265 -0.000101368531085 0)
(-0.00200978528481 -0.000105728550969 0)
(-0.00202415130068 -9.69496513419e-05 0)
(-0.00203601218828 -8.07818646649e-05 0)
(-0.00204525774228 -6.12807159513e-05 0)
(-0.00205216498985 -3.86840046245e-05 0)
(-0.00205672137861 -1.34712165111e-05 0)
(-0.00205812022105 1.0811035076e-05 0)
(-0.00205568429697 3.14937494389e-05 0)
(-0.00204908971532 4.98326184764e-05 0)
(-0.00203821824862 6.84274549457e-05 0)
(-0.00202310714026 8.87683929767e-05 0)
(-0.0020037821419 0.000111323245127 0)
(-0.00198003486528 0.000136204311779 0)
(-0.00195147648174 0.000163576829646 0)
(-0.00191757016335 0.000193621165575 0)
(-0.00187752784197 0.000226495935286 0)
(-0.00183026468632 0.000262812055116 0)
(-0.00177469990767 0.000303760300767 0)
(-0.001710152224 0.00034984030462 0)
(-0.00163617255494 0.000400953220085 0)
(-0.00155047948088 0.000459429115106 0)
(-0.00144796717122 0.00052924512831 0)
(-0.0013235045588 0.000613289909449 0)
(-0.00117438888674 0.000712862883694 0)
(-0.00100152415683 0.000824772621659 0)
(-0.000815281588389 0.000936854005443 0)
(-0.000634562124126 0.00102040285577 0)
(-0.000456340784168 0.00103662626137 0)
(-0.00032499911329 0.00111040538386 0)
(-0.000139677134321 0.000953279788193 0)
(1.26401909267e-05 0.000703500454326 0)
(0.000137710068501 0.000551242361861 0)
(0.000253278800196 0.00045665172676 0)
(0.000349849862593 0.000385657305132 0)
(0.000450142499188 0.000330486412865 0)
(0.00052501696101 0.000223399453963 0)
(0.00049231862039 5.01017257902e-05 0)
(0.000435493840134 -8.84546840172e-05 0)
(0.000389425139756 -0.000186351250566 0)
(0.000317198892918 -0.000257913944721 0)
(0.000243258146386 -0.000300791320123 0)
(0.000158001490064 -0.000273642834435 0)
(0.000102049308694 -0.00026390907966 0)
(6.33700631967e-05 -0.000326646264737 0)
(1.82830997096e-05 -0.000330781332141 0)
(-2.03630415697e-05 -0.000565765421081 0)
(-0.000117703370163 -0.000709178206372 0)
(-0.000250101825429 -0.000867578575188 0)
(-0.000295477259562 -0.000814876462003 0)
(-0.000222032839473 -0.000449993738074 0)
(-0.000437226373297 -0.000614841297525 0)
(-0.000618756169051 -0.000734113293767 0)
(-0.000681234367073 -0.000692480923879 0)
(-0.000770594949576 -0.000632761577621 0)
(-0.00083903840613 -0.000570740428711 0)
(-0.000971452717553 -0.000473011954649 2.88562451066e-28)
(-0.000810069751518 -0.000257021634472 -1.88212510463e-28)
(-0.000907749937967 -0.000224512724723 0)
(-0.000966557873161 -0.000233942087901 0)
(-0.00109937108016 -0.000289447539572 0)
(-0.00124501251376 -0.000355874488512 0)
(-0.00133403162206 -0.000366686127754 0)
(-0.00134573110753 -0.000338380876927 0)
(-0.00141188911065 -0.00034622510646 0)
(-0.00148772385233 -0.000366645045432 0)
(-0.00153506747303 -0.000362030785661 0)
(-0.00158382422553 -0.000341014512079 0)
(-0.00163045342001 -0.000314715163876 0)
(-0.00167372178139 -0.000286024691609 0)
(-0.00170684884353 -0.000256116076461 0)
(-0.00173331144151 -0.000228157254141 0)
(-0.00177979323188 -0.000209206995042 0)
(-0.00177784431254 -0.000189933682287 0)
(-0.00184078557958 -0.000165436808574 0)
(-0.0018126403244 -0.000128984619736 0)
(-0.00187458590533 -0.00011886083442 0)
(-0.00186120440294 -0.000117663431514 1.0150246043e-28)
(-0.00191678109717 -0.000120689211117 -1.0250508355e-28)
(-0.00195065227124 -0.000132235974528 0)
(-0.00199967346522 -0.000136808298928 0)
(-0.00201842557581 -0.000126820200198 0)
(-0.00203029335407 -0.00011056919694 0)
(-0.00204115836929 -9.10671904953e-05 0)
(-0.00205070699264 -6.88830764994e-05 0)
(-0.00205804210799 -4.39864717714e-05 0)
(-0.00206274689072 -1.69880679763e-05 0)
(-0.00206444005232 9.88336509902e-06 0)
(-0.00206241410007 3.47573804078e-05 0)
(-0.00205614228407 5.80292544107e-05 0)
(-0.0020454865708 8.13741267616e-05 0)
(-0.00203048488021 0.000106153238177 0)
(-0.00201109271076 0.00013308045814 0)
(-0.00198700907591 0.000162551492884 0)
(-0.00195777131263 0.000194931961611 0)
(-0.00192283629089 0.000230633052013 0)
(-0.00188146342022 0.000270167063305 0)
(-0.00183264391288 0.000314301933285 0)
(-0.00177527239586 0.000363983743414 0)
(-0.00170818847065 0.000420114569783 0)
(-0.00162959765352 0.000484411827845 0)
(-0.00153590354202 0.000560527718446 0)
(-0.00142194870669 0.000652297780732 0)
(-0.00128379493756 0.000760826541496 0)
(-0.00112221324618 0.000882088657703 0)
(-0.00094527053712 0.00100559737897 0)
(-0.000766061565874 0.00111191648141 0)
(-0.000596547548582 0.00118187926534 0)
(-0.000437805385246 0.00123117368369 0)
(-0.00029871782392 0.00124755990064 0)
(-0.000127222249905 0.00110563071681 0)
(5.06298365987e-05 0.000824905175613 0)
(0.000195791632464 0.000690390960307 0)
(0.000335345646767 0.000592025038076 0)
(0.00045669406596 0.000504613868601 0)
(0.000561645028853 0.000406381076165 0)
(0.000597445294527 0.000225936526315 0)
(0.000547158237141 1.6072200299e-05 0)
(0.000508021470852 -0.000145110666429 0)
(0.000435158344184 -0.000267051913301 0)
(0.000339488746158 -0.000352206587382 0)
(0.000238451392277 -0.000369545879595 0)
(0.000159007493282 -0.000346175908738 0)
(8.93278622736e-05 -0.000317426393495 0)
(5.04308072966e-05 -0.000363712188106 0)
(1.66118276181e-05 -0.000371661160831 0)
(-3.97592242015e-05 -0.000659019648914 0)
(-0.000160319110048 -0.000852858996578 0)
(-0.000275476600703 -0.00091178730276 0)
(-0.000200286363396 -0.000591205346251 0)
(-0.000234909469285 -0.000559335434537 0)
(-0.000489136570052 -0.000822104866354 0)
(-0.000576755418041 -0.000818834301438 0)
(-0.000659959675498 -0.000776499114578 0)
(-0.000723510376931 -0.000702493867482 0)
(-0.000815169082663 -0.00063406153768 0)
(-0.000708675231948 -0.000397547787266 0)
(-0.000800555192562 -0.000307684778015 0)
(-0.000888737902195 -0.000300246283622 0)
(-0.000966586674096 -0.000334484927975 0)
(-0.00115115532802 -0.000426710227422 0)
(-0.00125646194383 -0.000453340501555 0)
(-0.00125960825182 -0.000406239149407 0)
(-0.00132188713272 -0.000393124874901 0)
(-0.00141769642968 -0.000418486215367 0)
(-0.00148054584585 -0.000425767920138 0)
(-0.00152615486821 -0.000410976209816 0)
(-0.00157178315809 -0.000387681353335 0)
(-0.00162176248198 -0.000362199307589 0)
(-0.00166497160745 -0.000329829582145 0)
(-0.00171119029463 -0.000289597310337 0)
(-0.00172053402954 -0.000260889804491 0)
(-0.00178073795842 -0.000237569160332 0)
(-0.00178871345751 -0.000209681177114 0)
(-0.00178532150813 -0.000181498920895 0)
(-0.00182048895108 -0.000160081286627 0)
(-0.00189368224042 -0.000149635725389 0)
(-0.0018881597397 -0.000140276813162 0)
(-0.00190712528744 -0.000157519480804 0)
(-0.00198164752629 -0.000173020475064 0)
(-0.00200548292882 -0.000166403848322 0)
(-0.00202251106752 -0.000145815321058 0)
(-0.00203607209774 -0.000123780775446 0)
(-0.00204737718136 -0.000101389715248 0)
(-0.00205727460903 -7.69966371859e-05 0)
(-0.00206511616018 -4.99050173515e-05 0)
(-0.00207016516566 -2.07051239783e-05 0)
(-0.00207208673831 9.0088755574e-06 0)
(-0.00207037214909 3.78783961786e-05 0)
(-0.0020644481789 6.58808119015e-05 0)
(-0.00205406986274 9.40292608617e-05 9.32947368765e-29)
(-0.00203920681368 0.000123471409353 -9.29891214042e-29)
(-0.00201970371591 0.000155076624514 0)
(-0.00199515784538 0.000189476812789 0)
(-0.00196506677043 0.000227220754655 0)
(-0.00192891674247 0.000268917671775 0)
(-0.00188601607697 0.000315354041859 0)
(-0.00183537025197 0.000367565258542 0)
(-0.00177567853696 0.000426872713115 0)
(-0.00170507505282 0.000495165381397 0)
(-0.00162056346151 0.000575570911359 0)
(-0.0015177801463 0.000672155081128 0)
(-0.00139237098717 0.000787185086799 0)
(-0.00124308442238 0.000918026547368 0)
(-0.00107530550606 0.0010546469009 0)
(-0.000899633391626 0.00118254726068 0)
(-0.000726497086589 0.0012827916741 0)
(-0.000562473043675 0.00134774455959 0)
(-0.000410728407781 0.00137754482444 0)
(-0.000277784130179 0.0013673934754 0)
(-0.000145562471038 0.00134620362255 0)
(7.4286133615e-05 0.00100348224959 0)
(0.000261913661959 0.000837793448847 0)
(0.000425679929853 0.000730820892818 0)
(0.000555017025571 0.00060924565301 0)
(0.000651475621669 0.000455595496685 0)
(0.000676542855756 0.000225776912006 0)
(0.000655130380225 -1.23655781253e-05 0)
(0.000611942691103 -0.000220432068317 0)
(0.000499129121212 -0.000381290405009 0)
(0.000363528524349 -0.000469554132762 0)
(0.000233539965427 -0.000460816341598 0)
(0.000144215264622 -0.000429981844334 0)
(6.69959374199e-05 -0.000384055375596 0)
(2.46312987737e-05 -0.000393929725278 0)
(6.79736738846e-06 -0.000404133631893 0)
(-5.40124254034e-05 -0.000773603270513 0)
(-0.000178098340079 -0.000967535545336 0)
(-0.000239215755492 -0.000951159882268 0)
(-0.000194494429578 -0.000648980642561 0)
(-0.000310440752259 -0.000727489644683 0)
(-0.000495327358134 -0.00092802819445 0)
(-0.000540505703624 -0.000898606738047 0)
(-0.000640875203875 -0.000856444068735 0)
(-0.000643678180835 -0.000725737144788 0)
(-0.000818961843798 -0.000713836526764 0)
(-0.000688979843776 -0.000441904384967 0)
(-0.000803814687812 -0.000393327704514 0)
(-0.00087937009933 -0.000391767451553 0)
(-0.00101795862873 -0.00046898816226 0)
(-0.00116171268862 -0.000547266950795 0)
(-0.00123961024265 -0.000521418856299 0)
(-0.00124281217519 -0.000457227202631 0)
(-0.00132500534763 -0.000467365536522 0)
(-0.00140744284875 -0.000489336347101 0)
(-0.00146673002982 -0.000483256906744 0)
(-0.00151995935767 -0.000461056975522 0)
(-0.00156273768297 -0.000432276647644 0)
(-0.00161005217353 -0.000404634040525 0)
(-0.00163731816263 -0.000370951366967 0)
(-0.00166713781793 -0.000320437890489 0)
(-0.00173400657582 -0.000290897484304 0)
(-0.00170571716595 -0.000264016340608 0)
(-0.00181098559359 -0.00023780200903 0)
(-0.00177852719071 -0.000209090510479 0)
(-0.00186635082532 -0.000200043457605 0)
(-0.00183796883881 -0.000177135977828 0)
(-0.00192444699643 -0.000176648201495 0)
(-0.00195975003807 -0.000195672338219 1.06669257787e-28)
(-0.00198789288877 -0.000205758720286 -1.06228241223e-28)
(-0.00200949522888 -0.000189055894491 0)
(-0.00202728839225 -0.000163681105169 0)
(-0.00204241296915 -0.000137943322269 0)
(-0.00205467738534 -0.000112525749424 0)
(-0.00206496960438 -8.57386404795e-05 0)
(-0.00207321402177 -5.64076031879e-05 0)
(-0.0020787465178 -2.47532526049e-05 0)
(-0.002081063057 8.02358192371e-06 0)
(-0.00207968658631 4.08191533166e-05 0)
(-0.00207413271721 7.34127018405e-05 0)
(-0.00206410825094 0.000106411365041 0)
(-0.00204940822961 0.000140761617077 0)
(-0.00202972126185 0.000177400000284 0)
(-0.00200458060308 0.000217123284406 0)
(-0.0019734865999 0.000260615482516 0)
(-0.00193595720527 0.000308642736375 0)
(-0.0018913489973 0.000362286262021 0)
(-0.00183865634787 0.000423089730717 0)
(-0.00177630281674 0.000493231777702 0)
(-0.00170166786899 0.000575817316711 0)
(-0.00161080554097 0.000674796498768 0)
(-0.00149919066097 0.000793299785006 0)
(-0.00136418989204 0.00093039732854 0)
(-0.00120723007124 0.00108052790713 0)
(-0.00103597748691 0.00122967144935 0)
(-0.000860369340184 0.00136096507776 0)
(-0.000691669598756 0.00145245466856 0)
(-0.000531420755768 0.00150631577675 0)
(-0.000377265999126 0.00152235225298 0)
(-0.000231767486618 0.00150429267441 0)
(-0.000112988212857 0.00145765199142 0)
(6.9566095254e-05 0.00130306902133 0)
(0.000309196184166 0.000973039430967 0)
(0.000523524355564 0.000887542588556 0)
(0.000664357744727 0.000731504009527 0)