/*--------------------------------*- C++ -*----------------------------------*\
| =========                 |                                                 |
| \\      /  F ield         | OpenFOAM: The Open Source CFD Toolbox           |
|  \\    /   O peration     | Version:  v1806                                 |
|   \\  /    A nd           | Web:      www.OpenFOAM.com                      |
|    \\/     M anipulation  |                                                 |
\*---------------------------------------------------------------------------*/
FoamFile
{
    version     2.0;
    format      ascii;
    class       volScalarField;
    location    "750";
    object      alphak;
}
// * * * * * * * * * * * * * * * * * * * * * * * * * * * * * * * * * * * * * //

dimensions      [0 0 -1 0 0 0 0];


internalField   nonuniform List<scalar> 
6400
(
0.899729828946
1.45255659118
2.31242971046
2.90745787183
3.47485033266
4.03893750102
4.73660863506
5.51459452465
6.00681874927
6.74213205447
8.03131734808
8.97145868575
9.77148249083
10.656839883
11.7272383709
12.853682388
13.8816493106
14.8506338034
15.6708704546
16.1844873403
16.4943841548
16.9521131327
17.7551167272
18.8747094515
20.0896277898
21.1967619163
22.1358838689
23.0141805277
23.9296239187
24.8975261903
25.8626640001
26.6403849451
27.1537822319
27.5171322298
27.7763158978
27.9385945624
28.2669253238
28.799396318
29.0350208101
29.0624236233
29.4442875383
30.3013907419
31.1523163751
31.6437644962
31.8154934618
31.7622182266
31.5494593583
31.2191615251
30.7844059584
30.2647732336
29.5823673536
28.5311823993
27.1128930824
25.4091247948
23.8417946017
22.4344120208
20.5644588477
18.0011672979
15.3217497202
13.0387101957
10.729058716
8.31204206929
6.06129461721
5.8577198587
8.96015569377
13.5577546531
16.3699325859
15.9514443007
13.8741471335
12.2378057602
11.3986270532
11.6856424126
12.333513495
12.2868153275
14.4681922134
13.9523339671
15.9061774878
9.80326779995
12.8561420981
4.80181437632
3.16784290792
2.5539518675
3.19343910493
4.47065336417
4.46206162635
4.45140505999
4.73845111161
5.24683330287
5.95735392247
6.85406787194
7.92388721079
8.99298428799
9.94759471307
10.8647657903
11.8039550112
12.8721119391
13.9970384068
15.069025311
16.145171788
16.4959614478
16.6308155365
17.0694492615
17.8543914116
18.9639755935
20.2914281214
21.3470608495
22.2588985783
23.1720237685
24.1008955116
25.0399340674
25.9786173497
26.836940275
27.3443445492
27.7007053306
27.9890200033
28.0753876359
28.44539724
29.0025889645
29.1987416763
29.1055984226
29.4609818378
30.7837151234
31.8952326165
32.3007681781
32.4183259339
32.2978602397
32.0009722444
31.6124541046
31.0369650298
30.369722601
29.7466535535
29.1500527225
27.9043488405
25.6321586963
24.1654224561
22.5664522235
20.2127973918
17.7121115984
15.239292163
12.7843425293
10.4837641638
8.61606949337
6.45257689512
6.37649189528
9.22348825619
14.6412361758
18.2014159165
16.7866618001
14.5335484433
12.5718301052
11.9092993701
12.4134863314
13.6309475341
13.10484347
13.0322863202
12.5748378307
11.4385882275
9.642017989
8.13314751288
4.21444842199
3.29706367426
2.92579076526
3.45138812344
3.79508398784
4.41000053991
4.89905364119
4.92471316192
5.1403138963
5.85472128533
6.82746032232
7.90797379074
8.9965869364
9.99500603031
10.9134381426
11.7081052783
12.6819769024
15.230655761
17.2337132308
17.7640659777
17.3745953078
16.4368033467
16.7681495731
17.9658827159
19.1239718032
20.2275762424
21.3416714438
22.3503594413
23.2656162352
24.1745772081
25.1080059388
26.0161190645
26.9562537395
27.4568113352
27.605474098
28.1715687189
28.276286014
28.3712188792
29.0921008531
29.3403180485
29.3136064851
29.6837025545
30.5185687291
31.3440413557
31.8363926005
32.0330989652
32.0208066788
31.8416813521
31.5156972209
31.0460158857
30.453039027
29.7349493389
28.7788727927
27.4597926784
26.0106814416
24.5146463347
22.4828082664
20.1309425291
17.6944240156
15.2475603875
12.8623352684
10.6452147744
8.52549462039
7.06276758475
7.80858794485
11.647480431
15.6999958327
17.6525855463
17.6304312358
15.9834746063
14.3028267069
13.6503608145
13.6100940456
12.9876415752
12.4468987551
12.5026533497
12.2411609611
11.3260072907
9.73646962049
7.3027230031
7.5089983396
3.37566430149
5.57370973186
3.83089958587
3.99579835423
4.72337952012
11.9457201563
10.368934043
5.65236643937
5.81462276957
6.81769052271
7.92844096334
9.03855935729
10.0121073979
10.9356715582
12.6098937123
14.679169518
16.3944071132
16.9694316806
16.2338322874
15.764107769
16.2575852704
17.0039626464
17.9597326182
19.1108629086
20.3060567007
21.4489324761
22.4826135864
23.3796860714
24.3036316995
25.1743298218
26.1913054362
26.951898424
27.6989396271
27.8311737417
27.7846198445
28.3455909284
28.530479344
28.7403152456
29.1442033098
29.5143016751
29.9913496668
30.6875547116
31.3929722316
31.8808941276
32.1157755742
32.1391749081
31.9872397301
31.6814403603
31.2308414147
30.6415426704
29.8953804959
28.9293503076
27.700803914
26.2656860854
24.5847978996
22.5312058326
20.1885412071
17.7486647853
15.3298587869
13.0281324101
10.9599031086
9.32436424035
8.70194739899
9.39059285507
11.4561019266
16.1882013349
19.3995589009
19.4316299283
17.6957898292
15.2973276084
13.6847270244
12.919690274
13.1450002246
14.6438056677
14.6418197454
13.3715119909
13.2862748711
16.626609896
13.0058565798
11.0046792611
5.80778942969
7.66784044959
4.67704643298
4.99800528492
6.74786909414
11.8441846673
8.44152703546
6.18276667557
6.34262200545
7.03490057489
8.06668827553
9.18833565695
10.6279537317
12.8390949408
13.9174979753
14.437843602
14.6808700682
14.7767700034
15.1120877892
15.8064753935
16.3812067694
17.0607334705
18.051735255
19.2069425908
20.4133965175
21.5822255426
22.5917574848
23.5957013249
24.4084756557
25.4324641027
26.2329314341
27.4803494624
27.6402982401
27.5216838568
27.8610606194
27.9575740454
28.3232029582
28.8074669099
29.2912093218
29.7485404083
30.2596756463
30.8819556516
31.5061485273
31.9786857065
32.2387805658
32.294190029
32.1699386365
31.8872628607
31.4574200435
30.8799261453
30.133556332
29.1780276131
27.9853988084
26.5450436058
24.7939777598
22.6869611207
20.3378793976
17.930245413
15.607567646
13.5068626233
11.8073094282
10.7735011427
10.6839014637
10.858676581
12.0201405562
15.9238625823
19.5798676556
20.7947982871
19.545400529
16.7287247681
14.2059882406
13.8782956026
16.2009734108
17.1144384318
16.116327584
15.2421195484
17.9620467578
21.0125206733
16.2873601748
15.3977673682
10.0865599082
9.27122080426
5.83220274908
6.33314090132
12.1345179178
11.6339731395
6.99693352034
6.81269955932
6.98875677425
7.39048524422
8.29759267577
10.8472275748
13.9659857155
14.4918817454
14.2861934648
13.6425433642
13.586358593
14.1674500423
15.2030994476
15.7673128716
16.291084956
17.1319263566
18.1886540574
19.3686254168
20.5117599647
21.6874042124
22.9103416947
23.6967439538
24.8532522555
25.4872248969
26.9388734997
27.297767372
28.1575028809
27.6991780729
27.3827292496
27.736799929
28.3393695036
28.9414239462
29.4867997108
29.9945380581
30.52579978
31.1100458551
31.6821498526
32.1374312415
32.4120687446
32.4939382806
32.3966921624
32.1399329377
31.7359149768
31.1814901477
30.4550758993
29.5224013115
28.3472722474
26.8866899471
25.088532578
22.9677181391
20.6648164987
18.3669551018
16.2398443114
14.4543959158
13.1941152613
12.6806270873
12.9537431216
12.2220506298
14.043649466
18.0298186885
21.0441661714
22.164397049
21.128923705
17.6880284186
15.4196893571
17.2006951394
19.4195647268
18.9095861669
17.9476069958
18.0611629148
22.7138133186
24.3314495065
19.2852938905
19.0895591073
12.2268302472
9.21794706626
7.08553605152
6.6415181144
12.1120629788
8.68510738334
7.29945062213
7.43545903556
7.5941191563
8.31248774593
8.87445053759
13.6023501833
14.3822009853
14.5145015791
13.404970954
12.730170353
13.2287372474
14.5948372345
15.1477344776
15.4983323844
16.3003404079
17.2377885338
18.2978179532
19.4745744537
20.7749406426
22.0183249684
22.9348517601
24.3837200557
24.9469364888
26.4916670971
26.723990221
27.8377003825
27.6995027027
27.4952074986
27.2515276585
27.7107982464
28.4328105454
29.1135247007
29.7042295269
30.2493535694
30.8004072299
31.3693964809
31.9119674602
32.3541644341
32.6381069447
32.7418582264
32.6715884196
32.4453182003
32.0752928401
31.556375347
30.864660656
29.9622519985
28.8016374071
27.3318116484
25.5283374142
23.4547995868
21.2749274017
19.1772806247
17.317158156
15.8280889342
14.8696754298
14.4828642612
14.189227007
14.180385739
15.9653830502
20.8618890459
22.6540303441
22.6707806926
21.4345893899
19.0558842614
18.6625772921
21.1393693716
21.5321197883
20.7030497684
20.142616532
22.1902449824
25.0119593438
26.5241718121
21.9060114259
20.764848122
11.9908059172
8.97245976765
8.26110846564
12.3332941306
12.2665623864
7.87290314664
7.98326093167
8.15410332057
8.25180876738
8.85164047321
13.3209279412
14.294715494
14.4739746286
14.1187877273
12.3676904989
12.3731873633
13.943570199
14.703800216
14.8156851312
15.3753925469
16.3301424541
17.3923364598
18.4861642795
19.7116332929
20.8676620558
22.3254511277
23.0091257219
24.4020989691
26.0019080526
26.6336055678
26.4630624359
27.3805517965
27.7391544914
27.0678221363
27.2587305623
27.8610057546
28.5906299363
29.3006943144
29.9345653819
30.5174199772
31.0910286969
31.6608156777
32.1910565875
32.6263632383
32.9178865974
33.0414985707
33.0000735901
32.8105624095
32.4842677321
32.0134825208
31.3701745432
30.5097502191
29.3780784902
27.9329114211
26.1863440321
24.2418253816
22.2678482474
20.4099442106
18.7495115479
17.3905724193
16.5109834817
16.1188819717
16.0417106989
16.3546380387
16.3941559644
21.450607112
24.7328929681
24.3645660028
23.5284611642
22.3777693755
22.9697109598
24.1611925409
23.3873171735
22.6921643717
22.9460488607
25.3915183112
26.1447243293
26.7916409048
23.9085931624
21.7638207214
11.3352338772
8.98295094704
8.94393911124
13.3389110174
11.354681386
8.56909188939
8.72700656379
9.03095463238
10.1330436638
8.99995144812
14.0908645256
14.8408624415
14.5325444403
13.0014471239
12.0790648608
12.5074946922
14.0028653671
14.4488237174
14.7122068886
15.38873172
16.3262980415
17.4543153704
18.6402282925
20.2315291592
21.5800200916
22.2983627993
24.202407687
24.3331411376
26.1554886033
26.1959662147
27.4145495517
26.8305778527
26.7936480585
27.0039233574
27.4346112189
28.0646142013
28.7827419242
29.505297417
30.1783907963
30.8030949297
31.4046305361
31.9854971925
32.516383474
32.952355444
33.2525999566
33.3967355906
33.3883905787
33.2435301954
32.9715930122
32.5623987253
31.98380942
31.1859318011
30.1156471679
28.7513476012
27.1431104915
25.4151745629
23.6934622252
22.0060625108
20.3562598041
18.9798863581
18.2346364252
18.1636384522
18.4028741691
18.5639009659
18.4176619387
19.3260649846
25.268807382
26.5711797786
26.1856487962
26.4412757077
27.1363534785
26.5021645356
25.3153694601
25.071536198
26.1543549427
27.4968850535
27.4615849273
26.9293990172
25.9503908385
24.5966884458
10.892585673
9.48954881972
10.0945478774
13.4388042652
9.57933035969
9.59705344639
9.47677818992
9.7581457639
12.679570085
11.4872277087
14.9259489616
15.1357624566
14.6388915518
12.4135089397
12.1432954627
13.6880772926
14.2163617156
14.2248409981
14.6755907253
15.523185921
16.4458855305
17.5190808708
18.5659612608
20.3632804432
22.49566892
22.2516898571
24.1463368408
25.5404746913
26.3731006535
27.1594629473
26.8186514987
27.0189223228
26.5511609075
26.9350970548
27.6030257291
28.290623013
29.0030606863
29.7301852696
30.4359227897
31.1060412179
31.7446371542
32.3464899121
32.8873775917
33.3312506978
33.6446180602
33.8125495103
33.8428536327
33.7518655289
33.5463228007
33.2139247136
32.7210241221
32.0172263477
31.0588838037
29.8521453228
28.476471025
27.0352341223
25.5264004703
23.8049920919
22.0070351409
20.7648875351
20.504048185
20.9534743295
21.3764418259
21.3931886106
20.9746389717
19.5929558144
18.9877432363
28.5789394619
30.9941465339
31.4742400989
30.8026653211
28.8956076603
27.6272629404
27.8091264923
29.1198921373
29.6748252376
29.6259450842
29.4735382509
29.9000622405
30.1321835679
10.9683859862
10.3836692972
13.4242082953
13.6766814633
9.79024200495
10.3831623938
10.2264749907
10.6684976688
12.2887102143
14.8865401376
15.7948729857
15.4462046202
14.9284394284
12.5036269294
12.315341044
14.1736882773
14.3358061498
14.2145839613
14.6944638061
15.6404511612
16.7723156079
17.8653040301
18.7262142625
19.9969260013
22.6481794126
23.9376944671
23.8384991476
25.6361124116
25.4277382548
27.1670221246
27.6938867751
26.9951877614
26.5406254422
27.0452141948
27.7985419064
28.5263259458
29.2472804927
29.9805510467
30.710118291
31.4249536642
32.1107817484
32.7451280339
33.3050162935
33.7637345391
34.0961902024
34.2945262871
34.371366476
34.3436978943
34.2167369727
33.9783286995
33.5974739963
33.0305283359
32.2525137916
31.2985840286
30.2487234299
29.1005844149
27.6303647868
25.6915629094
23.9451350177
23.2759752407
23.8609977108
24.8952238916
25.4290158144
25.2826747621
24.4491100792
22.7187199688
20.2619199213
20.3279671872
32.6702244184
37.3109785736
35.36594811
32.0986511891
30.5497002138
30.7918606767
31.8353346691
32.5897858379
33.2825374595
34.0470857988
34.7740451769
35.5108278067
11.4053770933
11.296081532
15.0911703455
14.4630364372
12.671627711
11.6358368153
11.208526116
12.1120857358
11.8606625808
15.8619718125
16.4927080594
15.8376541148
15.0892186014
13.1843072259
13.0739762417
14.6199404225
14.3849654448
14.3113174063
14.8035246762
15.6712778334
16.8950294165
18.3086813665
20.0244284888
20.1016792982
22.1579619411
24.2818297159
23.7612666267
25.8539028017
26.8615214935
26.4821766597
26.9198594542
26.509966676
26.8141458485
27.3566510977
28.0495779619
28.783628981
29.5190647518
30.2639457445
31.0083316757
31.7571763272
32.4978593709
33.1825507104
33.7721281862
34.2514195823
34.610321221
34.8486513347
34.9820046767
35.0273023057
34.9902878242
34.8631312208
34.6237373425
34.2467492545
33.7361650338
33.1404685659
32.4658095263
31.4750384842
29.8781264102
28.0084918712
26.7519637584
27.0814500427
29.013644727
30.8403394993
31.5228244346
31.3531036489
30.3849288622
28.3411809314
25.1447411708
20.7041133097
28.2768118443
38.5269250204
40.7152248131
36.5536679871
34.4661251928
34.3755136259
35.3615560683
36.4562609961
38.1206419926
39.3020244628
39.4077469499
39.7183014267
12.0617942517
11.9793011008
14.8891677761
15.0092117301
15.0484996988
12.8272066779
12.3195892558
14.8987775772
12.3083519519
16.7294847213
17.026979684
16.2371170348
15.2435224685
13.845269507
15.524247408
15.6582679653
14.6126545934
14.5460612789
15.0476278887
15.7975964181
16.840335279
18.2966720298
21.2158031578
22.1996421954
21.6841791973
24.3146064333
25.3810663989
25.44829607
26.8112581821
27.4047244363
27.2127815268
26.5543938258
27.0117808137
27.6752200337
28.3552639
29.0746947395
29.8107425074
30.5783882357
31.3529055654
32.1221985356
32.90216381
33.6469878361
34.2870140075
34.7984261347
35.1913835048
35.4809030021
35.6829350164
35.8105845871
35.8716543099
35.8687523249
35.7998881719
35.6749920311
35.5319795458
35.3818725456
35.0128220284
33.924090902
32.6917160858
32.2346410139
31.3880684327
32.7526396384
34.3832841732
34.3376088119
32.9348856017
31.2910093806
28.4534877245
24.947505354
21.5580369678
14.3737577432
13.9035806449
30.5898428505
38.2424295148
37.0483935791
32.5516993207
32.0281852913
35.6553129943
39.9782082045
43.4143704333
44.7961556897
44.9439358864
45.2217169631
12.7728048995
12.7144320663
12.363829833
15.3735821587
15.6272957626
13.6542364723
13.3145760974
15.9281514256
13.0228936943
17.6343751835
17.5142462506
16.6505186484
15.4984143954
14.1976104133
16.667894053
16.2872860997
15.096734909
14.9622819817
15.4002298645
16.0938683912
16.9081497288
18.1672683775
21.6834119884
23.2592229653
22.0196122105
24.3011941688
25.8686333702
25.0314344783
26.4238945578
27.0149284487
26.4556475748
26.8858956914
27.4378044289
28.0452477011
28.6936773074
29.4152416453
30.1534348459
30.9090666677
31.7164995233
32.5357288249
33.3498076007
34.1406613088
34.8388935812
35.4010344009
35.8433843
36.1985016246
36.4821561781
36.6981500165
36.8593991503
36.9864373781
37.1091836834
37.3027160747
37.6296321611
37.955728839
37.5922103085
36.3049102582
36.822355511
31.6042819196
26.4171664856
19.9747194356
0.0260980665109
5.29992944214e-06
1.83564209181e-08
1.87286502111e-09
1.48622929502e-10
4.18640806628e-11
4.92771728729e-10
5.03491025623e-09
5.68746281e-08
1.48551278143e-07
0.000246680975768
0.0647525490197
27.6831970868
43.2381213967
43.1097753296
42.2346032467
45.9784908148
49.7622485635
51.7230677542
52.1188954083
13.6624365055
13.7596872836
16.0273824215
16.0591361272
16.1248248236
14.3617592362
14.3792081094
16.8258397503
14.0726092292
18.4299000955
17.9861730163
17.089987057
15.8356367218
14.6169269263
16.9784651088
16.5474519382
15.5747368043
15.4412327164
15.797837095
16.4142529095
17.1512918329
18.1576157048
21.1410479692
24.0555005791
24.2760432118
23.7263922821
26.0575410352
26.9934244944
25.4750720873
25.7184941553
26.3946729371
27.1130548208
27.7881824365
28.4274752104
29.0871522095
29.7852621817
30.5296363904
31.3060347486
32.1093101323
32.9703324145
33.843655475
34.6821570448
35.4309456939
36.0512555514
36.5638116811
37.0051609869
37.3853563217
37.6977863039
37.9498777094
38.1858312837
38.5121087787
39.0873085765
39.9609150579
40.658408568
39.8307032399
36.3755725809
24.1229255447
6.22487922986e-12
6.84672163206e-15
1.28351554557e-16
2.17564680726e-18
6.2946860181e-21
1.78881236113e-23
3.09640033958e-28
2.42201353243e-28
5.88009190491e-28
3.96364684243e-27
1.85655005168e-26
6.8581051582e-26
4.35821865286e-25
3.41238791653e-25
2.96043204568e-23
1.68498049169e-20
1.69376493899e-18
1.28528146843e-16
2.95969264594e-14
4.98209406953e-10
49.1614589901
56.8377185756
56.146748018
14.5024475117
14.6958883742
17.6623623664
16.7835098506
16.3155638639
15.0683497669
15.4058731898
17.6004781048
17.5767350907
19.4227498552
18.5276997342
17.626401223
16.2627151776
15.1769653461
17.3084084163
16.7385895239
16.0252652793
15.9255677232
16.2057059321
16.7356718782
17.4316281402
18.3726377617
20.6590484076
24.3000363093
25.6060300564
23.523269729
25.5508952802
27.0761670645
27.0716776968
26.1020746339
26.4577263803
27.3184002139
28.1349196832
28.8487768359
29.4801242667
30.1859995773
30.9307621157
31.730452209
32.5594965523
33.4419148593
34.3717100209
35.2754679648
36.0718828247
36.7390854765
37.3347066871
37.9127948208
38.4335612467
38.8287469848
39.0995130592
39.4114212844
39.9716088746
40.9494479614
42.4088219162
43.3717417823
33.4928425121
7.11396512967
3.44230014949e-18
1.39396544044e-20
4.03112240119e-22
5.86857527895e-24
4.76809339936e-27
7.95602077059e-30
5.60823555398e-31
0
0
0
0
0
0
0
0
7.80009925461e-35
2.63081199798e-32
3.93513399508e-30
2.28303872477e-27
3.18884480226e-24
1.72684096111e-19
2.62241646316e-15
2.04453632237e-08
61.8252543986
15.1891521629
15.4043416228
19.7793252436
17.3538331791
16.2688440707
15.6907708975
16.1490573267
17.7225786981
19.1635047471
20.5568690824
19.2251236885
18.2991444708
16.9399130027
16.0216947295
17.843666019
17.0777595009
16.548440727
16.4547863832
16.651993034
17.094152841
17.7156156473
18.5855714649
20.458545504
24.1633993148
26.5779101609
25.9231009053
25.0503524573
26.4363143143
26.8711673357
26.1743950818
26.8788198225
27.7581883091
28.6202019531
29.3197020982
29.9731389133
30.6260430817
31.3835910143
32.1866600016
33.0488381508
33.9640994505
34.9320000067
35.9046217607
36.7861001737
37.5025036141
38.1771335867
38.9123474334
39.5984351814
40.0539800023
40.3058699538
40.6680399018
41.4380453011
42.7273223722
44.5301206436
33.7937248938
2.27952932999e-14
4.98366151836e-21
1.63442398523e-24
6.60893557192e-26
9.01108470145e-28
2.47108432042e-30
0
0
0
0
0
0
0
0
0
0
0
0
0
1.00504269986e-33
9.98728495478e-33
2.18942925542e-31
1.06162397046e-29
5.89544151149e-26
4.90715096347e-17
9.45932556084e-22
15.7217998477
15.9280879728
21.8067377467
17.7934849433
16.4516088956
16.2621546117
16.9538909538
17.18257069
20.1060737098
21.3700168387
19.8965749246
18.9844864208
17.8082250114
17.8549881463
18.5917931773
17.6562793831
17.2638464774
17.1747345095
17.2059416858
17.5384675631
18.0521342617
18.8402160042
20.4390821352
24.0013747593
26.9742716743
27.536430297
24.9695983583
25.4644664674
25.7686579135
26.2706850757
27.173505711
28.2204262011
29.0944102758
29.8370572772
30.5148139254
31.2264459244
31.9027332857
32.7067122077
33.5824002955
34.5154307479
35.5555784001
36.6106489778
37.5619566612
38.2796034884
38.9798352168
40.2335871694
41.7965629269
42.4229258752
41.9191072588
42.1149766218
42.988347127
44.3162440468
33.088518349
2.63726454101e-15
3.97470313138e-20
1.7831143183e-31
1.80185910827e-28
2.94013750352e-30
0
0
0
0
0
0
0
0
0
0
0
0
0
0
0
0
0
0
1.5527594617e-32
1.05150306059e-31
1.93905882286e-29
97.6754074027
16.1759559159
16.3484028634
21.6717568023
17.3071289565
16.6946919265
16.754081202
17.8626634524
17.2412899551
20.9086388821
22.1211719646
20.528939219
19.6159594489
18.4864988581
20.0117106801
19.619119417
18.4349332242
18.0857038841
18.2334624561
17.9801844507
18.1508476921
18.4873517856
19.1416269515
20.5581591882
23.8284091104
26.831171897
28.6116708599
27.4813114565
26.6903765036
26.5822383899
26.4862513021
27.4405057091
28.7968089731
29.5422388153
30.3654146549
31.2633733619
31.8337347118
32.5116994507
33.3252946089
34.2242249902
35.1725398409
36.1929199352
37.3137919343
38.4022783069
39.448082509
40.6076632798
42.1883304231
43.5487314926
43.8097848099
43.8712173998
44.3728403662
45.3880297931
36.5626420308
1.19932500938e-14
1.09474423657e-19
1.4388469495e-23
1.95422994394e-25
0
0
0
0
0
0
0
0
0
0
0
0
0
0
0
0
0
0
0
0
0
0
4.77781583193e-32
3.47755055856e-21
16.686400001
16.8346416734
21.3400316145
17.0347572399
17.0077404587
17.154244613
18.645563809
17.73352731
21.6167971885
22.857554541
21.1523746926
20.240721913
19.0505418539
20.7875628051
20.5683326831
19.2764826894
18.8937312477
19.1385451538
18.9027174711
18.9804165151
19.1176881068
19.5008162119
20.8370421912
23.7898096812
26.5362572866
28.9066595307
28.6525930492
27.2720998475
26.1658168122
26.9545403682
27.9048217821
29.2288294423
30.3189242452
31.2767010479
32.0855123103
32.553063535
33.2057536164
34.0322267898
34.9529246751
35.9413614519
36.9822744919
38.1867691166
39.565643389
41.1284213272
42.2815042427
43.0028477972
44.0051963436
44.8483250009
46.254614752
47.7810096679
41.8864641572
1.09281831179e-13
1.45105408923e-19
2.50226838162e-23
5.13228131102e-26
1.2426240303e-27
4.17106707451e-30
0
0
0
0
0
0
0
0
0
0
0
0
0
0
0
0
0
0
0
0
0
8.02928019726e-33
1.06234710787e-32
17.431933163
17.5796792676
21.0578526159
17.3450385398
17.5710849655
17.6478167042
18.6987501366
18.4627716131
22.1403912463
23.5585203941
21.8049874096
20.9084599922
19.7229246401
21.4871082208
21.4169122638
20.1936981587
19.7507609644
20.0156923153
19.8038454931
19.9520356783
20.0105372221
20.0164061981
21.308772653
23.9516470536
26.3880234066
28.9681601793
29.2013716147
28.0623173209
26.6905686447
27.1715557979
28.4633887076
29.4150602111
30.3980866213
31.5474180919
32.9861351139
33.5764531422
34.1477432889
34.8508509748
35.7385355247
36.801842955
37.9538927578
39.2910130915
41.2416858044
42.9776362139
43.5009743723
44.0972909779
45.6130961535
48.7560953834
52.6414421667
45.7179765798
3.12221595132e-14
5.18654888231e-21
2.14631521307e-25
7.03706319015e-29
4.41537976407e-31
8.94961695821e-31
1.3743272082e-31
0
0
0
0
0
0
0
0
0
0
0
0
0
0
0
0
0
0
0
0
0
5.93467663841e-34
2.69476227784e-33
18.553015574
18.663886895
21.387423728
18.287229623
18.7192187957
18.5061094715
19.046409733
19.7573554922
22.2388893276
24.095570338
22.5153945131
21.6414854601
20.4962922418
22.2819314374
22.2902963002
21.2636444731
20.7803626924
21.0299453615
20.7126258322
21.0163688638
21.2024279848
20.7481792503
21.8620058485
24.3183176143
26.4399266045
28.8235192286
29.4438528461
28.7478052315
28.5944271307
28.0130367749
28.8356200869
30.1377819497
31.6651481746
32.1395972506
33.2880098963
34.5868618839
35.210722592
35.9693341459
36.7656200723
37.7525448326
39.041071123
41.0495302265
43.5808237044
44.6295615934
44.7543300568
46.0881095761
50.374654559
57.6912610641
51.900574801
15.751185428
7.85790152585e-23
7.33642251862e-28
5.01982213375e-30
0
0
0
0
0
0
0
0
0
0
0
0
0
0
0
0
0
0
0
0
0
0
0
0
0
0
0
20.1144562328
20.0055698491
22.2343325798
20.1459344148
20.6407747042
19.7658507434
19.9995902027
21.6197070572
22.4973727952
24.7325914289
23.3344232168
22.4494910533
21.3455158361
23.1131849166
23.1591254724
22.4383703119
22.2663126172
22.3473457094
21.7147368726
22.16991379
22.6812503304
21.7782445234
22.308448869
24.7780810504
26.7000711222
28.7058417147
29.6040494743
28.9314175719
29.7706943013
29.5713112893
29.8578430672
29.9210890604
31.4709744585
33.3012992681
34.2371875735
35.3471631718
36.2734459827
37.0713105143
37.9963585513
39.0076214113
40.6812981183
43.6667904018
45.8963634229
46.4672041465
47.2120579551
50.5924744102
57.8894592857
54.8974597841
30.4486804295
7.01252745695e-25
1.22593781035e-27
5.61341292252e-30
0
0
0
0
0
0
0
0
0
0
0
0
0
0
0
0
0
0
0
0
0
0
0
0
0
0
0
0
21.7611917924
21.2649368949
23.1402736539
22.5945242477
22.3351812656
21.2137969508
21.0416505649
22.7511065429
21.8348142222
25.2355898277
24.2441550097
23.3240794154
22.259838059
23.9527835146
23.9657112509
23.4231012671
24.2862797836
23.9252261
22.8329139696
23.4297655255
24.0099076167
23.0866473301
22.5150591223
24.7878218919
26.8830186502
28.6237581296
29.6630583972
29.0156484102
30.1727483813
30.8463051078
31.2350759794
30.6980252777
31.6721108614
33.2733981137
35.1438939201
36.5559270648
37.561217775
38.3370320068
39.2482959366
40.633041762
43.4199607785
46.6396454975
48.4313540221
49.4524591822
51.7902653036
56.7163478605
52.5985932633
30.3754925196
1.88818376332e-24
2.73354436816e-27
9.57339972396e-30
0
0
0
0
0
0
0
0
0
0
0
0
0
0
0
0
0
0
0
0
0
0
0
0
0
0
0
0
0
22.5816856511
22.139046366
23.7165894117
23.6416645031
23.3949462783
22.5719724776
22.2205399031
24.1096754015
22.8802608189
25.8696843608
25.1635882516
24.2368299555
23.2339415395
24.8153714558
24.7737351773
24.2436321011
25.2630497945
25.040150654
23.9060080441
24.6542254142
24.7647684701
23.9170121467
23.5033212139
23.7386655531
26.3677397239
28.1114489463
29.4343829277
28.9659898497
30.2361444781
31.3963014124
32.3710429901
32.4593180095
32.0864835204
33.3431308967
35.3831523696
37.4289479966
38.9618512855
39.9923257194
40.8987379414
43.2545235396
46.8278693902
49.7410299373
51.3720852569
53.3429794455
57.3567287433
53.910814775
26.7054788641
5.06388060991
8.98548312981e-27
2.55911211407e-29
0
0
0
0
0
0
0
0
0
0
0
0
0
0
0
0
0
0
0
0
0
0
0
0
0
0
0
0
0
0
22.675614076
22.6707323517
24.0564340914
23.8627774037
24.0573761638
23.6166924035
23.2400918897
25.4445399548
24.5339779287
26.6709593607
26.1348141766
25.1732183232
24.2630698461
25.7162528923
25.642619206
25.1818682513
26.0761426893
26.0063010562
25.013406134
25.6763960049
24.6898719261
24.6760790083
24.5276145151
24.7840493693
25.5924628127
26.6647333662
28.5611408554
28.6989380462
29.8142312564
31.4142190742
32.8217952129
33.8012191333
33.5928267592
34.1330183906
35.6099453931
37.6456508092
39.8833318099
41.7153447143
43.3073784854
46.6388538257
50.2609943093
52.7069844956
54.0519998526
55.969023197
51.6505677997
33.7981197881
35.8888173115
3.12115762598e-26
6.99168505326e-29
0
0
0
0
0
0
0
0
0
0
0
0
0
0
0
0
0
0
0
0
0
0
0
0
0
0
0
0
0
0
0
22.90711111
23.0318970737
24.334675026
23.0323487597
24.3339102245
24.1855490151
23.9156489461
26.0593267724
25.3798170008
27.4723100204
27.1288333718
26.1009490257
25.3523345366
26.6425664688
26.5474926124
26.2482770677
26.9861004803
27.0818108147
26.247048309
27.0752346761
26.0267304979
26.2637159784
25.7803941223
26.0850555321
27.3336925651
27.9679146388
28.1555603693
28.3529933949
29.3317733107
31.3022164505
32.7724013004
34.0287450551
34.8490029925
35.2147654938
36.8577074166
38.3649375219
40.6275152722
43.3025023453
46.2732773922
50.2517134398
53.5139049912
55.2237955686
54.8562281696
51.7926514307
48.8716190927
30.4820089514
2.61904517717e-25
5.96238450299e-28
0
0
0
0
0
0
0
0
0
0
0
0
0
0
0
0
0
0
0
0
0
0
0
0
0
0
0
0
0
0
0
0
23.5684231344
23.6576141274
24.6268714249
23.4088361662
24.5686416876
24.4899570503
24.3758124944
26.2650083068
25.9542076561
28.0588198367
28.0848513597
26.9596111044
26.4862422439
27.5454967968
27.4043355366
27.2752635804
27.8619519136
28.2360326664
27.527045825
28.4975360696
27.7820187882
28.2683670159
28.1123371055
27.1161843986
28.1344441048
29.0592940505
29.2560853714
28.1149511507
28.7782816669
31.1323225143
32.8427926378
33.6839107311
34.6631825362
35.5089716304
37.227717398
39.0098925663
41.4731098922
44.897445147
49.4183909989
53.9562762244
56.5385108462
56.8407997649
54.5177047793
49.3290917361
31.2191868463
34.3457469391
4.15482391962e-27
1.6847903367e-29
0
0
0
0
0
0
0
0
0
0
0
0
0
0
0
0
0
0
0
0
0
0
0
0
0
0
0
0
0
0
0
0
24.4051199381
25.3918282896
25.0574817256
24.3095707302
25.0613873316
24.8384653318
24.8044122643
26.4263226321
26.4629728566
28.2999121449
28.9916278823
27.7084001277
27.4776753511
28.2762542294
28.1916805054
28.0469582478
28.2117210037
29.2740033608
28.8525228541
29.7351445974
29.6648234748
29.6079644025
29.5206166795
29.1838555294
28.5504083836
29.2508030889
30.1392495134
27.6322193489
28.1920060386
30.401070739
32.8036362971
34.1042463754
35.1985426575
35.4388457893
37.0244032689
39.1891099813
41.9655459727
46.3685447625
52.5573209076
57.5185809362
59.0608243872
55.4196850911
53.3929480891
53.2134801704
35.523364336
2.81617734187e-26
7.18756194196e-29
0
0
0
0
0
0
0
0
0
0
0
0
0
0
0
0
0
0
0
0
0
0
0
0
0
0
0
0
0
0
0
0
0
25.0123308967
26.0410497594
25.6925382735
25.1035631553
25.6861649133
25.3365969651
25.2818936153
26.6470772233
26.9406715343
28.2716948671
29.777505639
28.3990954385
28.0645194079
28.856984277
29.0094599022
28.7215739142
28.4764677326
30.0070980889
30.182502669
30.8053917984
30.9726313912
31.1977440089
30.1888837213
30.2174712535
29.7777759152
30.7801268636
31.3980032882
29.1312414927
27.6388715556
29.2987697324
31.9745637734
34.1176042012
35.3681656912
35.8544601243
36.5581370015
38.7942410973
41.815188838
47.4608191704
55.5388774359
61.1117750776