/*--------------------------------*- C++ -*----------------------------------*\
| =========                 |                                                 |
| \\      /  F ield         | OpenFOAM: The Open Source CFD Toolbox           |
|  \\    /   O peration     | Version:  v1806                                 |
|   \\  /    A nd           | Web:      www.OpenFOAM.com                      |
|    \\/     M anipulation  |                                                 |
\*---------------------------------------------------------------------------*/
FoamFile
{
    version     2.0;
    format      ascii;
    class       volVectorField;
    location    "780";
    object      U;
}
// * * * * * * * * * * * * * * * * * * * * * * * * * * * * * * * * * * * * * //

dimensions      [0 1 -1 0 0 0 0];


internalField   nonuniform List<vector> 
6400
(
(-0.00011950741408 -0.00015569450103 0)
(-0.000315001286723 -0.000112501958467 0)
(-0.000455687939926 -8.69376488323e-05 0)
(-0.000603110271312 -7.43028243065e-05 0)
(-0.000711704484993 -4.75936207781e-05 0)
(-0.000791111855899 -2.77352189187e-05 0)
(-0.00083772089034 -2.00168391048e-05 0)
(-0.000877094630505 -2.92819839347e-05 0)
(-0.000965241352995 -3.96770176259e-05 0)
(-0.00105075610821 -3.71100699832e-05 0)
(-0.00109448052498 -3.31067950487e-05 0)
(-0.0011704680608 -3.38154244395e-05 0)
(-0.00123890313905 -2.99174268197e-05 0)
(-0.0012939007068 -2.41415612309e-05 0)
(-0.0013356586206 -2.15463958893e-05 0)
(-0.00137832168029 -2.38038361962e-05 0)
(-0.00142896047006 -2.4252840159e-05 0)
(-0.00147294340521 -2.09706039783e-05 0)
(-0.00150669458432 -1.67593200569e-05 0)
(-0.00153929994669 -1.51484689721e-05 0)
(-0.00157972601269 -1.93852162855e-05 0)
(-0.00162647163604 -2.35503245623e-05 0)
(-0.00167370119724 -2.36902503994e-05 0)
(-0.00171567135033 -2.2120139359e-05 0)
(-0.00175417330612 -1.98272566684e-05 0)
(-0.00179059851045 -1.7427455561e-05 0)
(-0.00182594605661 -1.6034659058e-05 0)
(-0.00185770083825 -1.4360460913e-05 0)
(-0.00188429414561 -1.22726401096e-05 0)
(-0.00190633369747 -1.06285819195e-05 0)
(-0.00192433662345 -9.98483551155e-06 0)
(-0.00194234397024 -8.99300596984e-06 0)
(-0.00196022651272 -7.44083227823e-06 0)
(-0.00197503188508 -7.13087831056e-06 0)
(-0.00198883156585 -6.88992660015e-06 0)
(-0.00200572924743 -6.424065702e-06 0)
(-0.00201901526059 -6.32244788839e-06 0)
(-0.00202382540263 -5.42516197806e-06 0)
(-0.00203446326584 -3.71587683162e-06 0)
(-0.00204795776035 -2.31727629737e-06 0)
(-0.00205351670387 -2.51964218811e-06 0)
(-0.00204986623206 -1.42545602658e-06 0)
(-0.00204379683397 2.46169233887e-06 0)
(-0.00203666446587 5.34002975173e-06 0)
(-0.00202585769715 6.91722566304e-06 0)
(-0.00201146054312 8.69842444139e-06 0)
(-0.0019930903526 1.06817494292e-05 0)
(-0.00196996967652 1.31208250333e-05 0)
(-0.00194204565438 1.55809193367e-05 0)
(-0.00190902971748 1.66765814682e-05 0)
(-0.00187283656075 1.63622285761e-05 0)
(-0.00183723339533 1.85153538086e-05 0)
(-0.00179403909985 2.54514907552e-05 0)
(-0.00174461541252 3.04089857054e-05 0)
(-0.00168072128928 3.5078043756e-05 0)
(-0.00159645305248 4.15146308747e-05 0)
(-0.00150772182511 4.2913354244e-05 0)
(-0.00142723944788 4.33100226575e-05 0)
(-0.00134196664366 4.91628074716e-05 0)
(-0.00122944624455 5.4578585668e-05 0)
(-0.0011123696962 5.67794878626e-05 0)
(-0.000988254584523 6.83486235402e-05 0)
(-0.000875897464585 9.40693706858e-05 0)
(-0.000674792105686 0.000106112015667 0)
(-0.000431331694797 7.97145226419e-05 0)
(-0.000291497122501 5.56246987198e-05 0)
(-0.000203795240839 4.56991824335e-05 0)
(-0.000129519974835 4.03215680627e-05 0)
(-5.65846018317e-05 3.72614938563e-05 0)
(1.50627763981e-05 3.3545723902e-05 0)
(7.89125968308e-05 2.77673826853e-05 0)
(0.000125443558464 1.93494373304e-05 0)
(0.000150316199383 9.90783127934e-06 0)
(0.000168364823117 -1.82460046084e-07 0)
(0.000148816029188 -5.6641357548e-06 0)
(0.000147555781658 -9.16097514277e-06 0)
(0.000106283951776 -7.25004749693e-06 0)
(0.000117796935382 -1.4147657576e-05 0)
(5.26674956481e-05 -1.18797323039e-05 0)
(3.9960220589e-05 -2.35780512655e-05 0)
(-4.60159390629e-05 -0.000222770401632 0)
(-0.000194023043624 -0.000244576173162 0)
(-0.000335772548132 -0.000215366912167 0)
(-0.000429203243771 -0.000172333437396 0)
(-0.000607479046543 -0.000165489790226 0)
(-0.000759584653325 -0.000116568679968 0)
(-0.000848416618067 -7.6696987982e-05 0)
(-0.000911158524095 -9.35009781336e-05 0)
(-0.000977539873211 -0.000115273752344 0)
(-0.00105023683478 -0.000111559021293 0)
(-0.00111835550936 -0.000102627518686 0)
(-0.00118050682593 -9.70894895919e-05 0)
(-0.0012379056075 -8.54190879438e-05 0)
(-0.00128877908277 -7.19725234517e-05 0)
(-0.00133729970982 -6.57686910955e-05 0)
(-0.00138304855758 -7.45234580515e-05 0)
(-0.00142926618544 -7.72389961728e-05 0)
(-0.00146846593428 -5.87051362047e-05 0)
(-0.00147970064418 -4.49071133521e-05 0)
(-0.00151948001304 -4.64155852709e-05 0)
(-0.0015699241258 -6.01691165581e-05 0)
(-0.00162173957721 -7.44419263606e-05 0)
(-0.00167519876651 -7.41524481008e-05 0)
(-0.00171999431398 -6.49917940688e-05 0)
(-0.00175058221975 -5.7906872377e-05 0)
(-0.00179084836791 -5.36195409629e-05 0)
(-0.00182801151053 -4.85885879275e-05 0)
(-0.00185804732592 -4.25535064318e-05 0)
(-0.00188383639684 -3.67708138155e-05 0)
(-0.0019067377552 -3.21499295766e-05 0)
(-0.00192609874257 -2.9399921766e-05 0)
(-0.00193976805491 -2.61233403609e-05 0)
(-0.00195760840275 -2.13796146195e-05 0)
(-0.00197175270199 -2.10798279735e-05 0)
(-0.00198385394776 -2.20577923357e-05 0)
(-0.00200554905428 -1.93673854988e-05 0)
(-0.00201652243466 -1.83671060403e-05 0)
(-0.00202132615914 -1.76388253124e-05 0)
(-0.0020350998398 -1.38771385066e-05 0)
(-0.00205451913632 -7.98537632303e-06 0)
(-0.00206120277427 -2.45649443912e-07 0)
(-0.00203294254167 6.64271782541e-06 0)
(-0.00201412720846 1.10008344575e-05 0)
(-0.0020103946553 1.42952929127e-05 0)
(-0.00200191590828 1.79956993032e-05 0)
(-0.00199176237928 2.27548461114e-05 0)
(-0.00197870529925 2.87311688389e-05 0)
(-0.00195925942439 3.56207141132e-05 0)
(-0.00193792492006 4.3068301889e-05 0)
(-0.00191047347819 5.02085663993e-05 0)
(-0.00187139039852 5.6114825047e-05 0)
(-0.00181590001925 6.17138109813e-05 0)
(-0.00176402411956 6.93775036858e-05 0)
(-0.00174405648386 8.38162186947e-05 0)
(-0.00167472153501 0.00010249735987 0)
(-0.00159825771894 0.000117306955173 0)
(-0.00153245979445 0.000124992421447 0)
(-0.00145015905393 0.000132868194809 0)
(-0.00135430591849 0.000148501009195 0)
(-0.00125067678106 0.00016734482644 0)
(-0.00113282291435 0.000187046871917 0)
(-0.000968005080358 0.000211861324604 0)
(-0.000852950137039 0.000279428894505 0)
(-0.000652998447185 0.000318062114503 0)
(-0.000433450084024 0.000259988445743 0)
(-0.000273961472619 0.000172989870096 0)
(-0.00017863595345 0.00012793047685 0)
(-0.000110131258599 0.000117027459179 0)
(-3.8360845792e-05 0.00011113105551 0)
(3.09441980939e-05 0.000103276844224 0)
(9.20365829466e-05 8.39348503872e-05 0)
(0.000135212522168 5.5273404984e-05 0)
(0.000154588608899 2.73764369941e-05 0)
(0.00017549292541 5.07374789845e-06 0)
(0.000176234525488 -1.27155039248e-05 0)
(0.00016788701983 -2.50649964474e-05 0)
(0.000149327235563 -3.04964527584e-05 0)
(0.000125636818617 -4.3491679905e-05 0)
(8.03096970439e-05 -5.4550273406e-05 0)
(3.81730815403e-05 -9.58157205198e-05 0)
(-6.63236144918e-05 -0.000383851869727 0)
(-0.000184895877414 -0.000408383779234 0)
(-0.00028741340015 -0.000371831116886 -8.45056839398e-29)
(-0.000471371481211 -0.000363769499874 7.70679546189e-29)
(-0.000637445232694 -0.000348719099366 6.67937811136e-29)
(-0.000747680832751 -0.000277899340804 -6.04994904961e-29)
(-0.000828685473536 -0.000154076863071 6.02112771586e-29)
(-0.000894361942042 -0.000158176498014 -5.76931302944e-29)
(-0.000962857023161 -0.000188398041205 0)
(-0.00103970150811 -0.000188200011836 0)
(-0.0011138517113 -0.00017387555895 0)
(-0.00117906790725 -0.000156542414561 0)
(-0.0012366471156 -0.000137048972983 0)
(-0.00128641976519 -0.000122170218286 0)
(-0.00133665703026 -0.000113899711571 0)
(-0.00138343590739 -0.000103218360456 0)
(-0.0013229092 -8.28015359706e-05 0)
(-0.00130797964596 -6.9935555359e-05 0)
(-0.00135376862321 -7.99536296971e-05 0)
(-0.00143475807136 -0.000109290836566 0)
(-0.00156642732566 -0.000133658071361 0)
(-0.00163569574802 -0.000133948118347 0)
(-0.00166843473738 -0.000121445994608 0)
(-0.00171308493418 -0.000107792683208 0)
(-0.00175759589444 -9.76456347582e-05 0)
(-0.00179348179804 -8.97322050368e-05 0)
(-0.00182619269186 -8.01923769015e-05 0)
(-0.00185664434693 -7.02322149379e-05 0)
(-0.00188309476859 -6.12573285159e-05 0)
(-0.00190533247771 -5.39785000769e-05 -1.02816259647e-28)
(-0.00192645928793 -4.7692263122e-05 9.92383452941e-29)
(-0.00193623669121 -4.20402307471e-05 0)
(-0.00195285714747 -3.60077342065e-05 0)
(-0.00197646331388 -3.20233706787e-05 0)
(-0.00197283478051 -3.55012077539e-05 0)
(-0.00199527538128 -3.62338516681e-05 0)
(-0.00202157176199 -3.0743547471e-05 0)
(-0.00201717735338 -2.88369876849e-05 0)
(-0.00203222251132 -2.72909968085e-05 0)
(-0.0020529142402 -1.68544306344e-05 0)
(-0.00206043385017 1.76065701106e-06 0)
(-0.00205557168637 1.60553535505e-05 0)
(-0.00204784211894 2.06052717963e-05 0)
(-0.00203985770832 2.37204883944e-05 0)
(-0.00202878990349 2.95167604701e-05 0)
(-0.0020139313315 3.72629942874e-05 0)
(-0.00199536231398 4.69281223885e-05 0)
(-0.0019729302377 5.77481609235e-05 0)
(-0.00194663768935 6.96896832911e-05 0)
(-0.00191594275597 8.33248319098e-05 0)
(-0.00188006323851 9.73817853058e-05 0)
(-0.00183895630596 0.000108659549953 0)
(-0.00179312878216 0.000118210446489 0)
(-0.0017355767936 0.00013831329585 0)
(-0.0016662760827 0.000164986323913 0)
(-0.00160375940213 0.000185728491367 0)
(-0.00153173345527 0.000203441122333 0)
(-0.0014444605166 0.000224603661897 0)
(-0.00134474315076 0.000250869492284 0)
(-0.00123285254053 0.000282889703025 0)
(-0.00110228562798 0.000324258645608 0)
(-0.000961062345089 0.000384778740127 0)
(-0.000805397882531 0.000482438102144 0)
(-0.000591396735528 0.000506734643965 0)
(-0.000373399254287 0.000387403335559 0)
(-0.000246789426547 0.000284944749242 0)
(-0.000157808151696 0.00022796512672 0)
(-7.77099796339e-05 0.000195791993746 0)
(-7.77077623398e-06 0.000179060317667 0)
(5.62425486704e-05 0.000160236216688 0)
(0.000111767728852 0.000128201743878 0)
(0.000155250182477 8.8469157877e-05 0)
(0.000192000038191 5.30897837925e-05 0)
(0.000211183887579 1.53405174345e-05 0)
(0.00020401403021 -2.07985190976e-05 0)
(0.000184750714801 -4.30748613585e-05 0)
(0.000159083633898 -5.67507905606e-05 0)
(0.000129823643075 -8.39694484047e-05 0)
(9.28615016959e-05 -0.000131005461681 0)
(2.47928676688e-05 -0.000138251178324 0)
(-6.55723063825e-05 -0.000560753906229 0)
(-9.49221900546e-05 -0.000394900847106 0)
(-0.000234838922639 -0.000553508687891 0)
(-0.000404485320842 -0.000537950666877 0)
(-0.000561170148433 -0.000455883151503 0)
(-0.000356788487265 -0.000193866723179 0)
(-0.000453897974603 -0.000193016968131 0)
(-0.000785827993492 -0.000311588380568 0)
(-0.000918780948538 -0.000309175785903 0)
(-0.00101601125322 -0.000277989932225 0)
(-0.00110249811039 -0.000251608487495 0)
(-0.00117539560126 -0.000222323049106 0)
(-0.00123727584828 -0.000192580343688 0)
(-0.00128204205814 -0.000156301421545 0)
(-0.00125585972152 -0.000113734807372 0)
(-0.00122415258696 -8.61137783049e-05 0)
(-0.00123517745192 -8.52062625611e-05 0)
(-0.00130271434977 -0.000119208301091 0)
(-0.00143054805812 -0.000169975128134 0)
(-0.00153707102909 -0.000207878677558 0)
(-0.00158201569314 -0.000207362601054 0)
(-0.00162812771112 -0.000186386672922 0)
(-0.00167590212582 -0.000167100294869 0)
(-0.00171810050177 -0.000151708120736 0)
(-0.00175631934797 -0.000137225154091 0)
(-0.00179112711683 -0.000123670096591 0)
(-0.00182314570145 -0.00011099310202 0)
(-0.0018555405119 -9.82714760831e-05 0)
(-0.00188038948175 -8.60028925211e-05 0)
(-0.00190654181072 -7.53516618706e-05 0)
(-0.00191993977058 -6.61397417856e-05 0)
(-0.00194106465814 -5.69148329136e-05 0)
(-0.00194317925832 -4.76524787779e-05 0)
(-0.00196314471486 -4.57637390658e-05 0)
(-0.00199244944331 -4.9676220695e-05 0)
(-0.00199235461776 -5.28367471022e-05 0)
(-0.00201737406679 -4.92289100016e-05 0)
(-0.0020406033533 -4.34903742657e-05 0)
(-0.00204961585525 -3.77380500959e-05 0)
(-0.00205579759576 -2.31894215731e-05 0)
(-0.00205923233962 -1.78658348128e-06 0)
(-0.00205729160671 1.61482829288e-05 0)
(-0.00205171158556 2.65103032105e-05 0)
(-0.00204363624219 3.41879110886e-05 0)
(-0.00203215393869 4.33247563168e-05 0)
(-0.00201695869074 5.45820597108e-05 8.62829990303e-29)
(-0.00199806756758 6.77264873728e-05 -8.66596649308e-29)
(-0.00197536100709 8.23649659647e-05 0)
(-0.00194870522964 9.84693281149e-05 0)
(-0.00191770866481 0.000115992355275 0)
(-0.00188171328505 0.000133953516732 0)
(-0.0018399166379 0.000151705614505 0)
(-0.0017914345698 0.000172268325631 0)
(-0.00173466559046 0.000199459436321 0)
(-0.00167115811886 0.000228489990028 0)
(-0.00160279823468 0.000256326265239 0)
(-0.001525092938 0.000286702030809 0)
(-0.00143347875057 0.000321597360452 1.60305478253e-28)
(-0.00132672443314 0.000362655291408 -1.84612623347e-28)
(-0.00120281595728 0.0004128252545 0)
(-0.00105835870563 0.000476951561676 0)
(-0.000895906254252 0.000563778891586 0)
(-0.000719927241922 0.00065515675711 0)
(-0.000550340314059 0.000676938611376 0)
(-0.000382159939782 0.000577407494383 0)
(-0.000215484082181 0.000398052777886 0)
(-0.000114168644751 0.000306922057059 0)
(-3.49713708249e-05 0.000268934237433 0)
(3.43148835195e-05 0.00024483851394 0)
(9.84534514353e-05 0.000223243917939 0)
(0.000159911290779 0.000187073405056 0)
(0.000211920794469 0.000136416791983 0)
(0.000236812035074 7.38143133205e-05 0)
(0.000221933489313 9.71967345912e-06 0)
(0.000206050701746 -3.67020024377e-05 0)
(0.000186411658667 -7.10995882691e-05 0)
(0.000150558611383 -9.55777743303e-05 0)
(9.25836245169e-05 -0.000104197889716 0)
(6.86402595767e-05 -0.000155044186634 0)
(2.34687262941e-05 -0.000189630664752 0)
(-1.17980020128e-05 -0.00057591867496 0)
(-5.39532688182e-05 -0.00047961965349 0)
(-0.000208860061831 -0.000714022583839 0)
(-0.000348222837767 -0.000658781222418 0)
(-0.000402340358958 -0.000456329117467 0)
(-0.000334080389594 -0.000262575594045 0)
(-0.000549253768584 -0.000402269998818 0)
(-0.00076964522773 -0.000506305334076 0)
(-0.000869546734787 -0.000441542316148 0)
(-0.000982171861321 -0.000381394275909 0)
(-0.00107834759037 -0.000343829868795 0)
(-0.00116049289332 -0.000298439676988 0)
(-0.00119048117344 -0.000220434648469 0)
(-0.00113801984269 -0.000139929531696 0)
(-0.00116433499015 -0.000110514671322 0)
(-0.00122668560442 -0.000122110615499 0)
(-0.00132124527866 -0.000165520132621 0)
(-0.00142543536786 -0.000222627443615 0)
(-0.0014970795377 -0.000257709308061 0)
(-0.00153046029671 -0.000258831040362 0)
(-0.0015776977072 -0.000250314606743 0)
(-0.00163029632891 -0.000235457940764 0)
(-0.00167522673827 -0.000214402034506 0)
(-0.00171685859394 -0.000193056656528 0)
(-0.00175437509506 -0.000174022270689 0)
(-0.00178790800551 -0.000157812266313 0)
(-0.00182310323255 -0.000142176282146 0)
(-0.00184909912123 -0.000126411601527 0)
(-0.00188213673874 -0.000110815984643 0)
(-0.00189650602568 -9.57778338032e-05 0)
(-0.00192495823733 -8.30588258246e-05 -9.88568034684e-29)
(-0.00191662696931 -7.14025763614e-05 9.44762505698e-29)
(-0.00195011174652 -6.52975726654e-05 0)
(-0.00198025987953 -6.29151814658e-05 0)
(-0.00198580134921 -6.66986506238e-05 0)
(-0.00201547440116 -7.1884279356e-05 0)
(-0.00203316913072 -6.98679698396e-05 0)
(-0.0020454604729 -5.86294440648e-05 0)
(-0.00205354700986 -4.38516130557e-05 0)
(-0.00205875194698 -2.53870440568e-05 0)
(-0.00206160030457 -3.40328424223e-06 0)
(-0.0020608071385 1.67231996621e-05 0)
(-0.00205627789583 3.17401850392e-05 0)
(-0.00204830286001 4.41313512581e-05 0)
(-0.00203663140934 5.7155546441e-05 0)
(-0.00202120828548 7.20035134096e-05 0)
(-0.00200204203578 8.87440462726e-05 0)
(-0.00197901287599 0.000107194408877 0)
(-0.00195190650536 0.000127345868351 0)
(-0.00192033535669 0.000149166244575 0)
(-0.0018836622849 0.000172328828979 0)
(-0.00184098032107 0.00019710316233 0)
(-0.00179131078789 0.000225368725397 0)
(-0.00173398467109 0.000258307309011 0)
(-0.00166970412652 0.000293948725882 0)
(-0.00159808720115 0.000332205601631 0)
(-0.00151492426929 0.000375896144318 0)
(-0.00141553512123 0.000427164544163 0)
(-0.0012967384111 0.000488164122843 0)
(-0.00115571242017 0.000561970369187 0)
(-0.0009920974554 0.000650116144011 0)
(-0.000815477199671 0.000743816365641 0)
(-0.000642965105389 0.000808804655215 0)
(-0.000499891626855 0.00082951299637 0)
(-0.000350117486148 0.000745985249332 0)
(-0.000194218035402 0.00054999742024 0)
(-7.91323281898e-05 0.00042007341242 0)
(1.22941200184e-05 0.000351602321621 0)
(8.64915657094e-05 0.000311070842378 0)
(0.000154340724783 0.000283257665814 0)
(0.000223763450694 0.000245831152116 0)
(0.000266304032928 0.000167394824676 0)
(0.000254037951438 6.74663854156e-05 0)
(0.000241867840129 -5.52799266317e-06 0)
(0.0002260810303 -6.17898314916e-05 0)
(0.000196535076642 -0.00011044678098 0)
(0.00014378734213 -0.00013435288369 0)
(9.57861880496e-05 -0.000146956902947 0)
(6.54821583218e-05 -0.000206969275239 0)
(1.84326423476e-05 -0.000225335089008 0)
(-2.3738327411e-06 -0.000546408930046 0)
(-6.16674466282e-05 -0.000580205720383 0)
(-0.000207490663888 -0.000818740994158 0)
(-0.000299861826179 -0.00070359022468 0)
(-0.000245717488523 -0.000374367600324 0)
(-0.000337813805002 -0.000378050547543 0)
(-0.000642685155075 -0.000623015621204 0)
(-0.00073538187222 -0.000619960593172 0)
(-0.000832731712742 -0.000553144708753 0)
(-0.00094181042639 -0.000492046592352 0)
(-0.00104424053215 -0.000422628100274 0)
(-0.00102239150357 -0.000306805981008 0)
(-0.000965189084907 -0.00019181628809 0)
(-0.00103314779849 -0.00016215668359 0)
(-0.00111663478766 -0.000178920358015 0)
(-0.00124985650863 -0.000227875734026 0)
(-0.00136906377591 -0.0002749775189 0)
(-0.00144579617765 -0.000295689735292 0)
(-0.00147155419665 -0.000294470888333 0)
(-0.00152496108663 -0.000301261721864 0)
(-0.00158287344591 -0.00030134006841 0)
(-0.00162913604663 -0.000283695294326 0)
(-0.00167239230383 -0.000259099658246 0)
(-0.00171260714216 -0.000234558272267 0)
(-0.00175413448385 -0.000211933441286 0)
(-0.00178784429462 -0.000189953534277 0)
(-0.00180931433579 -0.000172366022199 0)
(-0.00185287683297 -0.000155488336822 0)
(-0.00186304393816 -0.000134177950232 0)
(-0.00190451930063 -0.000113998359808 0)
(-0.00188762548406 -9.55964361964e-05 0)
(-0.00193148001391 -9.03390320216e-05 0)
(-0.00192191385373 -8.6215572099e-05 0)
(-0.001970290678 -8.75823941737e-05 0)
(-0.00201014782479 -9.21582604472e-05 0)
(-0.00202844426688 -9.36413784301e-05 0)
(-0.00204058377447 -8.41101326093e-05 0)
(-0.00205045666778 -6.8317259433e-05 0)
(-0.00205789499282 -4.97087014712e-05 0)
(-0.00206305053905 -2.84647641642e-05 0)
(-0.00206581987513 -5.05533005577e-06 0)
(-0.0020654759245 1.74106871451e-05 0)
(-0.00206150448536 3.6631725151e-05 0)
(-0.00205371209624 5.37137178224e-05 0)
(-0.00204202142945 7.09417838489e-05 0)
(-0.0020264584225 8.96158559145e-05 0)
(-0.00200704528313 0.000110106582146 0)
(-0.00198362679863 0.000132463306727 0)
(-0.00195591458081 0.000156784004199 0)
(-0.00192350838455 0.000183195115207 0)
(-0.00188580818975 0.000211840471403 0)
(-0.00184197691114 0.000243313579021 0)
(-0.00179116151009 0.000278758476534 0)
(-0.00173280246816 0.000318715239337 0)
(-0.00166649383726 0.000363094849304 0)
(-0.00159016917402 0.000413679899331 0)
(-0.00149912600215 0.000473708789925 0)
(-0.00138831131645 0.000545692560917 0)
(-0.00125422348885 0.000631159536077 0)
(-0.00109575683756 0.000728795412976 0)
(-0.000919406454775 0.000829895688307 0)
(-0.000740996366541 0.000909251766959 0)
(-0.000564062463128 0.000934380253924 0)
(-0.000442863439497 0.00099034044722 0)
(-0.000280901983346 0.000873163784301 0)
(-0.000142611430414 0.000663375963715 0)
(-3.35846134287e-05 0.000524382034539 0)
(6.693508527e-05 0.000437725098712 0)
(0.000150857693417 0.000381127073889 0)
(0.000231385018982 0.000354356843387 0)
(0.000298016516176 0.000296120903962 0)
(0.000298936892108 0.000168708860964 0)
(0.000285160085621 5.9134007447e-05 0)
(0.000282065877351 -2.19145844808e-05 0)
(0.000256581908639 -9.5493633759e-05 0)
(0.00021656456358 -0.000159424832121 0)
(0.000149954335062 -0.000175842092699 0)
(0.000102542428556 -0.000190030843054 0)
(6.76453286092e-05 -0.000251432711395 0)
(2.01120503068e-05 -0.000262040672628 0)
(-2.18365116635e-05 -0.000595835919763 0)
(-0.000123346667815 -0.000742117682187 0)
(-0.000258802185122 -0.00089699593715 0)
(-0.000308994502791 -0.000844218059275 0)
(-0.000237469222207 -0.000475113344395 0)
(-0.000460736019961 -0.0006406362435 0)
(-0.000643162208858 -0.000753122943786 0)
(-0.000709650750126 -0.00070825021279 0)
(-0.000803114726964 -0.000645997162271 0)
(-0.000876268889898 -0.000582064502275 0)
(-0.00101208051771 -0.000482786867545 2.74288896043e-28)
(-0.000857046057275 -0.000269049509778 -1.82569482917e-28)
(-0.000956059957375 -0.000235216137238 0)
(-0.00101754417176 -0.000243920847088 0)
(-0.0011509424988 -0.000296453033582 0)
(-0.00129170288859 -0.00035672110168 0)
(-0.00137774302244 -0.000364091832597 0)
(-0.00139387366796 -0.000336880206491 0)
(-0.00145888246162 -0.000342294969917 0)
(-0.00153126573979 -0.000358406781941 0)
(-0.00157775144693 -0.000351746786757 0)
(-0.00162531694479 -0.00033008451624 0)
(-0.00167074911472 -0.000303677111971 0)
(-0.00171281396178 -0.000275323033906 0)
(-0.00174553182194 -0.000246286653895 0)
(-0.00177250933803 -0.000219456577543 0)
(-0.001815831146 -0.000200676093419 0)
(-0.00181763091042 -0.00018211388455 0)
(-0.00187402992446 -0.000158519287389 0)
(-0.00185369088275 -0.000125197110116 0)
(-0.00190827420322 -0.000114494636871 0)
(-0.00189914417859 -0.000112295033493 9.37340799853e-29)
(-0.00194788151877 -0.000113579572313 -9.40089226712e-29)
(-0.00197892594305 -0.000121401133967 0)
(-0.00202058577175 -0.000122628613138 0)
(-0.00203687843458 -0.000111717898094 0)
(-0.00204685209531 -9.55954657823e-05 0)
(-0.00205578003207 -7.67099033323e-05 0)
(-0.00206334943647 -5.55166157298e-05 0)
(-0.00206873998128 -3.19932758669e-05 0)
(-0.00207154289211 -6.72634070535e-06 0)
(-0.00207139082507 1.82926953346e-05 0)
(-0.00206770585474 4.14263700919e-05 0)
(-0.00206008321627 6.30408931167e-05 0)
(-0.00204842425236 8.46239617067e-05 0)
(-0.00203276591778 0.000107361029528 0)
(-0.00201307960912 0.000131830634804 0)
(-0.00198914027637 0.000158308791516 0)
(-0.00196061124717 0.000187042408903 0)
(-0.0019271108051 0.000218335756104 0)
(-0.00188811431892 0.000252623559383 0)
(-0.00184289108809 0.000290629532859 0)
(-0.00179062712169 0.000333297552915 0)
(-0.0017304235133 0.000381551808686 0)
(-0.00166071909466 0.000436980997864 0)
(-0.00157810830603 0.000502852702519 0)
(-0.00147731475815 0.000582850416881 0)
(-0.00135346319322 0.000678651639217 0)
(-0.00120509312141 0.000787959443721 0)
(-0.00103685587663 0.000902574968455 0)
(-0.000858845925028 0.00100485566896 0)
(-0.000684780274776 0.00107231859408 0)
(-0.000525765350151 0.00111349670935 0)
(-0.000389609082941 0.0011205342349 0)
(-0.000239637036205 0.00100657722727 0)
(-8.10290826916e-05 0.000765938249479 0)
(3.45862811046e-05 0.000640005376294 0)
(0.000144062549098 0.000550057552903 0)
(0.000239005901288 0.000479646605271 0)
(0.000317489743386 0.000420707398115 0)
(0.00035076372926 0.000310153140171 0)
(0.00033732692363 0.000166676795464 0)
(0.000344965638971 5.73573882062e-05 0)
(0.000337983544222 -4.34019716337e-05 0)
(0.000303457509735 -0.00014281425676 0)
(0.000237931465424 -0.0002097908128 0)
(0.000172832055562 -0.000235233372541 0)
(0.000108262509797 -0.000239508231212 0)
(6.75335932652e-05 -0.000293151790311 0)
(2.23649569031e-05 -0.000308792387275 0)
(-4.19668005775e-05 -0.000693863001567 0)
(-0.000166306524655 -0.000888910762983 0)
(-0.000284151448492 -0.000945008073688 0)
(-0.000212659135753 -0.000623141737126 0)
(-0.000251348252862 -0.00058971860245 0)
(-0.000510805774465 -0.000849552688206 0)
(-0.00060070368491 -0.000841616592412 0)
(-0.000687748925946 -0.000796045857718 0)
(-0.00075681244883 -0.000720604791723 0)
(-0.000852621547561 -0.000649588126902 0)
(-0.000751413175471 -0.000414231349729 0)
(-0.000846759288243 -0.000322436006611 0)
(-0.000937364761522 -0.000313226655477 0)
(-0.00101812750003 -0.000345555313993 0)
(-0.00120019752149 -0.000431145761034 0)
(-0.00130181953114 -0.00045213133453 0)
(-0.00130990330914 -0.000406340925877 0)
(-0.001372616509 -0.000391855434238 0)
(-0.00146474291476 -0.00041204918448 0)
(-0.00152581929041 -0.000415808084011 0)
(-0.00157096063096 -0.000399646134466 0)
(-0.00161581887453 -0.000375704310762 0)
(-0.00166410188804 -0.000349768236022 0)
(-0.00170624225708 -0.000317856899097 0)
(-0.00175075100774 -0.000279242795598 0)
(-0.00176266237425 -0.000251415951332 0)
(-0.00181844506902 -0.000228461342334 0)
(-0.00182844407701 -0.000201936939273 0)
(-0.00182766403676 -0.000175429850825 0)
(-0.00186118548681 -0.000154437624556 0)
(-0.00192629338897 -0.000142959603538 0)
(-0.00192391123253 -0.00013341092362 0)
(-0.00194180036787 -0.000146459740193 0)
(-0.00200550086941 -0.000156784428161 0)
(-0.00202688859252 -0.000148266060787 0)
(-0.0020416020891 -0.000128060766235 0)
(-0.00205300585725 -0.000106672763876 0)
(-0.00206221413408 -8.50158139278e-05 0)
(-0.00206994201741 -6.16352287298e-05 0)
(-0.00207562267333 -3.59332503694e-05 0)
(-0.00207859872789 -8.47043870008e-06 0)
(-0.00207854565657 1.93121542655e-05 0)
(-0.00207502461813 4.62078313852e-05 0)
(-0.00206756585203 7.22119137186e-05 0)
(-0.0020559714503 9.82326909478e-05 8.39446647305e-29)
(-0.00204021701132 0.000125264503632 -8.36156191675e-29)
(-0.00202017961464 0.000154009156189 0)
(-0.00199554970601 0.000184924365492 0)
(-0.00196596509239 0.000218383562944 0)
(-0.00193109147037 0.000254826257993 0)
(-0.00189049112326 0.000294887928165 0)
(-0.00184351828289 0.000339493284633 0)
(-0.00178928923026 0.000389905820302 0)
(-0.0017263901773 0.000447987271227 0)
(-0.00165220671236 0.000516855375317 0)
(-0.00156237935206 0.000600817749211 0)
(-0.00145161402561 0.000703146868084 0)
(-0.00131664276597 0.000822748231091 0)
(-0.0011599308202 0.00095189942664 0)
(-0.000988901561044 0.00107775986229 0)
(-0.000810450331619 0.00118172748988 0)
(-0.000635203861694 0.00124326688899 0)
(-0.000476107738933 0.00126203764496 0)
(-0.000340249226858 0.00123902946338 0)
(-0.000224577199834 0.00120237555698 0)
(-3.6409294723e-05 0.000916909654449 0)
(0.000115624831706 0.00075387606977 0)
(0.00023504636683 0.000653032087838 0)
(0.000324552960512 0.000553377957696 0)
(0.000383425242022 0.000452407475404 0)
(0.00039660814504 0.000314514835773 0)
(0.000401615242261 0.000179309261616 0)
(0.000425492539958 6.15443472202e-05 0)
(0.000416306605575 -7.26794646939e-05 0)
(0.000364621563553 -0.000206070133463 0)
(0.000272743860613 -0.000279691978143 0)
(0.000195063426261 -0.000310751741693 0)
(0.000113304708224 -0.000307733630272 0)
(5.88398191322e-05 -0.000337047079035 0)
(1.88853165546e-05 -0.000357445924844 0)
(-5.64724115408e-05 -0.000813314303108 0)
(-0.000183684326732 -0.00100580982412 0)
(-0.000248413157107 -0.00098868678831 0)
(-0.000207009060307 -0.000684316092017 0)
(-0.000328105076368 -0.000763310772576 0)
(-0.000515415407108 -0.000957903099493 0)
(-0.000564742285541 -0.000925247612499 0)
(-0.000668242240422 -0.000879933202234 0)
(-0.000677480622533 -0.000749894888104 0)
(-0.00085668601324 -0.000732553087331 0)
(-0.000731340900998 -0.000461924221184 0)
(-0.000848823340954 -0.00041072126624 0)
(-0.000928133275238 -0.00040722727459 0)
(-0.00106865065391 -0.000479660840135 0)
(-0.00120850753417 -0.000549403390122 0)
(-0.00128654361684 -0.000520947632824 0)
(-0.00129537728364 -0.00045863240634 0)
(-0.00137593238602 -0.000464519639401 0)
(-0.00145585698969 -0.000481062253545 0)
(-0.00151437402784 -0.000472256844625 0)
(-0.00156681162293 -0.000448835709998 0)
(-0.00160953764663 -0.000419516569646 0)
(-0.00165553977152 -0.000391373036126 0)
(-0.00168291476341 -0.000358382638209 0)
(-0.0017140328026 -0.000310483256774 0)
(-0.00177611103257 -0.00028074964945 0)
(-0.00175447795766 -0.000254980935388 0)
(-0.00184883551456 -0.000229015993875 0)
(-0.00182394072941 -0.000201841412518 0)
(-0.00190122187311 -0.000191126230413 0)
(-0.00188057569343 -0.000169215139026 0)
(-0.001956310254 -0.000166158315443 0)
(-0.00198794781405 -0.000179731536004 9.7342122876e-29)
(-0.00201245295718 -0.000185417997825 -9.64517757764e-29)
(-0.00203168422635 -0.000168171491731 0)
(-0.00204712634738 -0.00014343258393 0)
(-0.00205982584881 -0.00011848503861 0)
(-0.00206975224307 -9.39001970972e-05 0)
(-0.00207768275731 -6.81592771323e-05 0)
(-0.00208355857762 -4.02394322031e-05 0)
(-0.00208679909547 -1.03687043169e-05 0)
(-0.00208694773413 2.03647242982e-05 0)
(-0.00208358015722 5.09746400586e-05 0)
(-0.00207627881339 8.12740083941e-05 0)
(-0.00206478951039 0.000111809256495 0)
(-0.00204893083827 0.00014339327099 0)
(-0.00202843535361 0.000176773128993 0)
(-0.00200292505411 0.000212521142777 0)
(-0.00197203465271 0.000251083762255 0)
(-0.00193547167045 0.000292977287494 0)
(-0.00189288791004 0.000339021324444 0)
(-0.00184371924719 0.000390509633567 0)
(-0.00178698383133 0.00044942191268 0)
(-0.0017207751664 0.000518814034065 0)
(-0.001641721975 0.000603041481736 0)
(-0.00154509654687 0.000706646982243 0)
(-0.00142638978921 0.00083130484246 0)
(-0.00128462518516 0.00097273316417 0)
(-0.00112502065658 0.00111931627804 0)
(-0.00095371361966 0.00125689758008 0)
(-0.000770543880006 0.00136783784544 0)
(-0.000584694695243 0.0014178077622 0)
(-0.000415493317983 0.0014136987449 0)
(-0.000268820382941 0.00137189464114 0)
(-0.000156640349722 0.00130377959224 0)
(-1.02000207937e-05 0.00115667771002 0)
(0.000183422880397 0.000860452139565 0)
(0.000335240116026 0.000758407935348 0)
(0.000416578343471 0.000626054628178 0)