/*--------------------------------*- C++ -*----------------------------------*\
| =========                 |                                                 |
| \\      /  F ield         | OpenFOAM: The Open Source CFD Toolbox           |
|  \\    /   O peration     | Version:  v1806                                 |
|   \\  /    A nd           | Web:      www.OpenFOAM.com                      |
|    \\/     M anipulation  |                                                 |
\*---------------------------------------------------------------------------*/
FoamFile
{
    version     2.0;
    format      ascii;
    class       volVectorField;
    location    "780";
    object      Ua;
}
// * * * * * * * * * * * * * * * * * * * * * * * * * * * * * * * * * * * * * //

dimensions      [0 1 -1 0 0 0 0];


internalField   nonuniform List<vector> 
6400
(
(2.4302668588e-05 3.10749123841e-05 0)
(6.50979722965e-05 2.31224168882e-05 0)
(9.46490615747e-05 1.86798370952e-05 0)
(0.000126398799822 1.6970978845e-05 0)
(0.000151140140135 1.23419754423e-05 0)
(0.000170722844415 8.91598287499e-06 0)
(0.000184691955849 8.01810913476e-06 0)
(0.000198510668359 1.08304230878e-05 0)
(0.000225027995633 1.4288778244e-05 0)
(0.000252877481418 1.46465970629e-05 0)
(0.00027160440072 1.41509480338e-05 0)
(0.000299518089906 1.52875169285e-05 0)
(0.000327647175761 1.54726026689e-05 0)
(0.000354385465586 1.51031030741e-05 0)
(0.000379574885071 1.54139012605e-05 0)
(0.000406876602763 1.70463131048e-05 0)
(0.000438220630796 1.80586467637e-05 0)
(0.000469196632824 1.79888736422e-05 0)
(0.00049864051279 1.76778011436e-05 0)
(0.000529681461513 1.83076684938e-05 0)
(0.000565757330077 2.10364862137e-05 0)
(0.000606173365892 2.36022556995e-05 0)
(0.000648201358142 2.44332447982e-05 0)
(0.00068926094913 2.44862364206e-05 0)
(0.000729917845934 2.42345120924e-05 0)
(0.000770926800912 2.40057230008e-05 0)
(0.000813022295635 2.42811415405e-05 0)
(0.00085520833814 2.44599792643e-05 0)
(0.000896642932369 2.43536507733e-05 0)
(0.000937398649969 2.43461372223e-05 0)
(0.00097747916871 2.47429601548e-05 0)
(0.00101879752221 2.50156865265e-05 0)
(0.00106154543655 2.51082186737e-05 0)
(0.00110433927258 2.59027757317e-05 0)
(0.00114805474198 2.65943203985e-05 0)
(0.00119497213099 2.71388137798e-05 0)
(0.00124099514896 2.76716553553e-05 0)
(0.00128214893807 2.73733464312e-05 0)
(0.00132721764546 2.66960572864e-05 0)
(0.00137516952426 2.63329852222e-05 0)
(0.00141870097781 2.6767163845e-05 0)
(0.00145566266638 2.59669557472e-05 0)
(0.00149021706142 2.30903837693e-05 0)
(0.00152385456988 2.10065216004e-05 0)
(0.00155498434303 1.9946516914e-05 0)
(0.00158368886577 1.87873244334e-05 0)
(0.00160970695937 1.74788154511e-05 0)
(0.00163239518568 1.58020143825e-05 0)
(0.00165172561438 1.4092932298e-05 0)
(0.00166749478462 1.35764440114e-05 0)
(0.00168132164463 1.44918064625e-05 0)
(0.00169680997679 1.35885520016e-05 0)
(0.00170691780046 8.37101533648e-06 0)
(0.00171394242455 5.11295395723e-06 0)
(0.00171005330116 1.93273544317e-06 0)
(0.00168769108844 -3.31853931354e-06 0)
(0.00166360464817 -2.64008081183e-06 0)
(0.00165473865373 9.9684311971e-07 0)
(0.00165008713563 -4.14030304359e-07 0)
(0.00162217886991 -1.57190683209e-06 0)
(0.0016000175622 4.02392091939e-06 0)
(0.00158337876732 1.35361435609e-06 0)
(0.00163629483419 -1.86499808915e-05 0)
(0.00159231342297 -5.14582250167e-05 0)
(0.0013456285925 -5.66548974966e-05 0)
(0.00119167096527 -4.36654278331e-05 0)
(0.00111313437872 -4.44051326977e-05 0)
(0.0010536048138 -4.52813559223e-05 0)
(0.000990163055598 -4.79458875568e-05 0)
(0.000895505520652 -5.23875857061e-05 0)
(0.000792957090936 -5.47562899821e-05 0)
(0.000673630916107 -5.35601535221e-05 0)
(0.000560180880744 -5.27209936655e-05 0)
(0.000483416056538 -5.54561251731e-05 0)
(0.000351813827669 -4.31293370824e-05 0)
(0.000300785598522 -3.70075809764e-05 0)
(0.000194125889293 -2.24053275264e-05 0)
(0.000197788610319 -2.98709022111e-05 0)
(8.38254815999e-05 -2.04985951928e-05 0)
(6.23862101559e-05 -3.7557821921e-05 0)
(9.4384644214e-06 4.38526784231e-05 0)
(4.01754084877e-05 4.87027016596e-05 0)
(6.95710913241e-05 4.37723634129e-05 0)
(8.94581103945e-05 3.60460339491e-05 0)
(0.000127701033766 3.61649256409e-05 0)
(0.000161881855342 2.79133955352e-05 0)
(0.000184561139036 2.20533117695e-05 0)
(0.00020403513457 2.85997566817e-05 0)
(0.000225981649373 3.5753965194e-05 0)
(0.000250455581081 3.69112182898e-05 0)
(0.000275052760017 3.68211835435e-05 0)
(0.000299553348803 3.78056625812e-05 0)
(0.000324546248995 3.77213435314e-05 0)
(0.000349872559887 3.73397831308e-05 0)
(0.000376845501747 3.87770994869e-05 0)
(0.000405426445974 4.42462078042e-05 0)
(0.000435688950845 4.79530156002e-05 0)
(0.000465095749514 4.52151036558e-05 0)
(0.000487080015078 4.33044460732e-05 0)
(0.000520330228591 4.65823574512e-05 0)
(0.000559997280316 5.39897406275e-05 0)
(0.000602319234348 6.14033934416e-05 0)
(0.00064649429627 6.33521203399e-05 0)
(0.000688499694821 6.15845769223e-05 0)
(0.000725854313124 6.03477224492e-05 0)
(0.000768455528726 6.06855592762e-05 0)
(0.00081140069936 6.08995549095e-05 0)
(0.00085283685578 6.05801901273e-05 0)
(0.000893918405601 6.0187635906e-05 0)
(0.000935160326671 6.01385314873e-05 0)
(0.000976104077987 6.07843532848e-05 0)
(0.0010153254469 6.10813273302e-05 0)
(0.00105808404492 6.08537228338e-05 0)
(0.00110074385195 6.30761590516e-05 0)
(0.0011437305214 6.57247007322e-05 0)
(0.00119358571116 6.59912137691e-05 0)
(0.00123840906461 6.6495347239e-05 0)
(0.00127972981727 6.66095284697e-05 0)
(0.00132691358093 6.50567181083e-05 0)
(0.00137881947134 6.23014714835e-05 0)
(0.00142322823724 5.74601474082e-05 0)
(0.00144288478245 5.16125356568e-05 0)
(0.00146787815109 4.77379510753e-05 0)
(0.00150370137425 4.54385204748e-05 0)
(0.00153630817615 4.30328902601e-05 0)
(0.00156798237311 3.99594547009e-05 0)
(0.00159796673048 3.6004695831e-05 0)
(0.00162342525282 3.1281177602e-05 0)
(0.00164809512442 2.62317492094e-05 0)
(0.00166859665719 2.14954305163e-05 0)
(0.00167999366952 1.77170978089e-05 0)
(0.00167735133505 1.40879288939e-05 0)
(0.00167871888561 9.74546264559e-06 0)
(0.00171406041931 1.3137927032e-06 0)
(0.00170472233317 -1.32260053691e-05 0)
(0.00169038176137 -2.35658612275e-05 0)
(0.00169299325255 -2.32173697065e-05 0)
(0.00168547427388 -2.07697312581e-05 0)
(0.00167097075902 -2.52595163559e-05 0)
(0.00165800371619 -3.04576338462e-05 0)
(0.00164243632963 -3.29682969737e-05 0)
(0.00157108055918 -4.07117601361e-05 0)
(0.00161978177221 -9.48698577162e-05 0)
(0.00155064246689 -0.000185127154858 0)
(0.00134442217106 -0.000210561391652 0)
(0.00112715246899 -0.000164490193113 0)
(0.0010168135961 -0.000124089580187 0)
(0.00100486107189 -0.000116971718224 0)
(0.000947675900699 -0.000133193267409 0)
(0.000876235223936 -0.000158776798891 0)
(0.00076533721736 -0.000172755724978 0)
(0.00064277324406 -0.000167765877759 0)
(0.000516788736114 -0.000143991370964 0)
(0.000456513480731 -0.000136751078199 0)
(0.000380811965725 -0.000123435778427 0)
(0.000315424213255 -0.000108928059859 0)
(0.00025137115613 -9.01696085275e-05 0)
(0.000194815944514 -8.9205354766e-05 0)
(0.000118958965651 -9.19516022089e-05 0)
(5.45561048586e-05 -0.00014745699898 0)
(1.26652298647e-05 7.56112817349e-05 0)
(3.69913778011e-05 8.08414327974e-05 0)
(5.79427852689e-05 7.55978919863e-05 7.10217399974e-29)
(9.58852346417e-05 7.62084503169e-05 -6.47708387048e-29)
(0.000131423050047 7.58241545413e-05 -5.61191849204e-29)
(0.00015577677123 6.45127071201e-05 5.08308457549e-29)
(0.000175474117824 4.46404548893e-05 -5.05630636171e-29)
(0.000195283992146 5.0213359861e-05 4.84484358243e-29)
(0.0002178885594 5.9931534371e-05 0)
(0.000243044934289 6.30019310195e-05 0)
(0.000268672739954 6.29870681549e-05 0)
(0.00029345954706 6.26647247776e-05 0)
(0.000318020032771 6.25118735664e-05 0)
(0.000342783147465 6.40191559736e-05 0)
(0.00036999531311 6.8074358625e-05 0)
(0.000398868634599 7.11311527707e-05 0)
(0.000397183801222 6.67497768168e-05 0)
(0.000408491276954 6.48102620594e-05 0)
(0.000440694791577 7.20590386727e-05 0)
(0.00048729515571 8.73975803172e-05 0)
(0.000554621140177 0.000103416033848 0)
(0.000602857548006 0.000108373492238 0)
(0.00063868748215 0.000106396641768 0)
(0.000680138659415 0.000104157613789 0)
(0.000723138188695 0.000103520684396 0)
(0.000764063111485 0.00010377240698 0)
(0.000805061564238 0.000103546629241 0)
(0.000846704851105 0.00010314395958 0)
(0.000888208786558 0.000102950725319 0)
(0.000929308957631 0.000103148839077 8.41598643719e-29)
(0.000971362931254 0.00010356058401 -8.1231179824e-29)
(0.00100890556857 0.000103755921209 0)
(0.00105116485255 0.000104618946221 0)
(0.00109936001753 0.000107036280272 0)
(0.00113417163396 0.000111706894855 0)
(0.00118472741653 0.000115343414738 0)
(0.00123899944731 0.000114629013058 0)
(0.00127505283364 0.000113853850593 0)
(0.0013234205131 0.00011431067945 0)
(0.00137627913724 0.000109453691318 0)
(0.00142089795548 9.75544099776e-05 0)
(0.00145705774719 8.68824621099e-05 0)
(0.00149104312111 8.28151573711e-05 0)
(0.00152472879602 8.04490921365e-05 0)
(0.00155615931856 7.66052997988e-05 0)
(0.00158488655242 7.14965535335e-05 0)
(0.00161102139646 6.50122118752e-05 0)
(0.0016345075145 5.76862903568e-05 0)
(0.00165541073045 4.95408847861e-05 0)
(0.00167333242721 4.00272172723e-05 0)
(0.00168770131282 3.02536996548e-05 0)
(0.00169876151714 2.36109643406e-05 0)
(0.00170748169307 2.00401503241e-05 0)
(0.00170717944487 7.06317980818e-06 0)
(0.00169752627993 -1.21782113739e-05 0)
(0.00169911086173 -2.25221236559e-05 0)
(0.00169735812483 -2.6235297e-05 0)
(0.00168669687007 -3.03675114846e-05 0)
(0.00167133516118 -3.65826976242e-05 0)
(0.00165334079246 -4.53399603576e-05 0)
(0.00162466976386 -6.13495534447e-05 0)
(0.00159865901338 -9.11277386803e-05 0)
(0.00156759782186 -0.000197474065667 0)
(0.00140532795586 -0.000327777950742 0)
(0.00115569299232 -0.000318579698048 0)
(0.00105721726222 -0.000256259839759 0)
(0.00101465332327 -0.000207255010735 0)
(0.00094305503227 -0.000191656351428 0)
(0.000869696978142 -0.000217336715844 0)
(0.000782497072652 -0.00025368449029 0)
(0.000675802462496 -0.000267012909329 0)
(0.000577604924993 -0.000250826675189 0)
(0.000514772898452 -0.000228701675671 0)
(0.000453864452943 -0.000216765117228 0)
(0.000376335855789 -0.000203785403176 0)
(0.000298916543825 -0.00018168111039 0)
(0.000228731840754 -0.000157858506052 0)
(0.000172584973519 -0.000162710129954 0)
(0.000118402635014 -0.000205336050418 0)
(2.98852930172e-05 -0.000200723226248 0)
(1.15727426845e-05 0.000108970415004 0)
(1.81761148755e-05 7.72325137129e-05 0)
(4.51670304009e-05 0.000111204031988 0)
(7.91148116312e-05 0.000111461884777 0)
(0.000111927754869 9.90845497496e-05 0)
(7.16519800232e-05 4.56859008705e-05 0)
(9.23771950389e-05 5.05563798268e-05 0)
(0.000165769842843 8.80306759872e-05 0)
(0.000201489054479 9.36492852737e-05 0)
(0.000230180912602 9.09403294662e-05 0)
(0.000258034622572 8.94368333795e-05 0)
(0.000283995786846 8.76184596217e-05 0)
(0.000308853484845 8.72562841188e-05 0)
(0.000331459134704 8.66630901769e-05 0)
(0.000337399743522 8.17885618621e-05 0)
(0.00034279207727 7.79692451706e-05 0)
(0.000361751167254 8.11008096757e-05 0)
(0.000399763116953 9.68693596163e-05 0)
(0.000459648208032 0.000122344118202 0)
(0.000516122068881 0.000144643611353 0)
(0.000553361529672 0.000151205389746 0)
(0.000591988990765 0.000149520178596 0)
(0.000633106875344 0.000147431293421 0)
(0.00067374834591 0.000146033411269 0)
(0.00071417107233 0.000144891698951 0)
(0.00075460465412 0.000144286887226 0)
(0.00079539146085 0.000144247233616 0)
(0.000838014344942 0.0001444025122 0)
(0.00087892591929 0.000144215653677 0)
(0.00092215306442 0.000144661810038 0)
(0.000960726127929 0.000144661316534 0)
(0.00100443597896 0.000145150690571 0)
(0.0010395334313 0.000144797457633 0)
(0.0010860872482 0.000150028059724 0)
(0.00114047089145 0.000158311984157 0)
(0.00117913372136 0.000162790932335 0)
(0.00123293192238 0.000163742087488 0)
(0.00128670564233 0.000162778828504 0)
(0.00133212125494 0.000160737108594 0)
(0.00137572752829 0.000152745547771 0)
(0.00141762745244 0.000139027834506 0)
(0.00145602341996 0.000126026432624 0)
(0.0014919198899 0.000117842682761 0)
(0.00152597667323 0.000112084156495 0)
(0.00155749624834 0.00010577176087 0)
(0.00158630086384 9.81857102598e-05 -6.95369543366e-29)
(0.00161248010027 8.93364265297e-05 6.9840518506e-29)
(0.00163601287469 7.94448057016e-05 0)
(0.0016568613833 6.85200100302e-05 0)
(0.00167478708452 5.65830296088e-05 0)
(0.00168938313211 4.45934496155e-05 0)
(0.001700179944 3.36064612986e-05 0)
(0.00170659297361 2.14648000036e-05 0)
(0.00170735001803 4.47910747249e-06 0)
(0.001704768504 -1.26604457064e-05 0)
(0.00170223548451 -2.49728053209e-05 0)
(0.00169666769523 -3.49699817517e-05 0)
(0.00168457411257 -4.50013356433e-05 -1.30072280025e-28)
(0.00166585854623 -5.68391345916e-05 1.49795142213e-28)
(0.00163894393293 -7.40887857265e-05 0)
(0.00159815561328 -0.00010530562023 0)
(0.00153894315162 -0.000177330071613 0)
(0.00143342332563 -0.0003253004417 0)
(0.00130659468353 -0.000466678395897 0)
(0.0012006128577 -0.000466679091567 0)
(0.00101383712918 -0.000335939649845 0)
(0.000919765520995 -0.000271499332342 0)
(0.000858784924092 -0.000268495116548 0)
(0.00079243791355 -0.000300180951723 0)
(0.000730811538813 -0.000349271309311 0)
(0.000649474881175 -0.00036799501219 0)
(0.000564675653923 -0.000346000454093 0)
(0.000480624744849 -0.000314440094551 0)
(0.000379900949744 -0.000282901589779 0)
(0.000306733758123 -0.000268842276233 0)
(0.000239727259209 -0.00025850075602 0)
(0.000168734140305 -0.000228796282307 0)
(9.67705877406e-05 -0.000180976372528 0)
(7.05069608616e-05 -0.000226328268591 0)
(2.35162229466e-05 -0.0002597586948 0)
(1.01334956058e-06 0.000109791602294 0)
(9.2537069965e-06 9.25924749171e-05 0)
(3.7366010702e-05 0.000141124725445 0)
(6.40118459589e-05 0.000134380520584 0)
(7.36023248967e-05 9.86565736142e-05 0)
(6.2332137234e-05 6.23610201571e-05 0)
(0.000107631935552 9.91253216782e-05 0)
(0.000157086654916 0.000132325139521 0)
(0.000182316150506 0.000126942902634 0)
(0.000212612723018 0.000120726330698 0)
(0.000242030330486 0.000118633310111 0)
(0.000269025603969 0.000115232980657 0)
(0.00028434107992 0.000105620002394 0)
(0.000280899370881 9.18381080321e-05 0)
(0.000299519558119 9.30876277753e-05 0)
(0.000332040374455 0.000104963472547 0)
(0.000377471431516 0.000125279379946 0)
(0.000428759580026 0.000151306410652 0)
(0.000471772705137 0.000171881188665 0)
(0.000503230806986 0.000180895551241 0)
(0.000540570447315 0.000187055456889 0)
(0.000581683616971 0.000189994873189 0)
(0.000621652116558 0.000188846614508 0)
(0.000661808828126 0.000186725774347 0)
(0.000701885914137 0.000185260744 0)
(0.000741903528145 0.000185081162369 0)
(0.000784204342284 0.000185746752848 0)
(0.000824203252785 0.000185695573125 0)
(0.000869008379449 0.000186332098914 0)
(0.000906886641527 0.000185566287594 0)
(0.000953259703796 0.000186754518201 8.07473592738e-29)
(0.0009826790937 0.000185090540693 -7.71692752638e-29)
(0.00103481289179 0.000190439796224 0)
(0.00108813781223 0.000198091529374 0)
(0.00113022348389 0.000205579648748 0)
(0.00118733815438 0.000214068659932 0)
(0.00123814181348 0.000216262772292 0)
(0.00128553535634 0.000211573231801 0)
(0.00133052444871 0.000204161375089 0)
(0.0013739153176 0.000193816954689 0)
(0.00141589914174 0.000179885462995 0)
(0.00145556131584 0.0001656868594 0)
(0.0014927177267 0.00015435757967 0)
(0.00152738654061 0.000145114484559 0)
(0.00155927695155 0.000135871414349 0)
(0.00158836197426 0.000125644623634 0)
(0.00161472250468 0.000114243489973 0)
(0.00163834711071 0.000101718588586 0)
(0.00165914168002 8.80547015587e-05 0)
(0.00167688556843 7.33209152848e-05 0)
(0.00169120098371 5.80054585793e-05 0)
(0.00170151794329 4.23146715083e-05 0)
(0.00170720542818 2.50161965156e-05 0)
(0.00170809305269 5.30292321506e-06 0)
(0.00170589489757 -1.39179529165e-05 0)
(0.00170179698296 -3.05494064704e-05 0)
(0.00169304863236 -4.65405727414e-05 0)
(0.00167595065511 -6.44835782429e-05 0)
(0.00164762561776 -8.76170945492e-05 0)
(0.00160346565881 -0.000122781796886 0)
(0.00153660321455 -0.000183374043111 0)
(0.00144292715532 -0.000288433905074 0)
(0.00131664540566 -0.000434255059965 0)
(0.00124035394863 -0.000557835557637 0)
(0.00118249232384 -0.000576486147046 0)
(0.0010274962057 -0.000470237770855 0)
(0.000902652006247 -0.00038741696644 0)
(0.000801571519992 -0.000358567611081 0)
(0.000717435549136 -0.000375313875453 0)
(0.000651814826443 -0.000419889518566 0)
(0.000586295350265 -0.000453483176093 0)
(0.000499987520864 -0.000437783085141 0)
(0.000392311070391 -0.00038378085798 0)
(0.000318572724933 -0.000359195505842 0)
(0.000249682968006 -0.000349827423861 0)
(0.000181792684111 -0.000333394707175 0)
(0.000119089338994 -0.000272164318265 0)
(7.53360371397e-05 -0.000229071053417 0)
(4.68405192833e-05 -0.000280448119699 0)
(1.13668910882e-05 -0.000287373789409 0)
(-5.77114593844e-07 0.000102396892428 0)
(9.63393619976e-06 0.000110023090817 0)
(3.42942762696e-05 0.000158855371663 0)
(5.00205754481e-05 0.00014191188523 0)
(4.03427060278e-05 8.0005172139e-05 0)
(5.84808171364e-05 8.60477768272e-05 0)
(0.000119808108328 0.00014742144458 0)
(0.000141788787419 0.00015708559541 0)
(0.000164275812782 0.000153748732207 0)
(0.000191793421126 0.000151111939976 0)
(0.000220896278204 0.000144180185687 0)
(0.00022238351354 0.000122842230025 0)
(0.000215594632932 0.000101262243455 0)
(0.000240643743841 0.000106539693373 0)
(0.000275077187538 0.000124544306629 0)
(0.000327527642041 0.000151726176897 0)
(0.000380064987605 0.000176374641786 0)
(0.00042164281698 0.000192920320675 0)
(0.000448979759766 0.000201942042089 0)
(0.000486893583644 0.00021570598049 0)
(0.000528433187466 0.00022689799718 0)
(0.000567234862421 0.000229920739552 0)
(0.000606319070835 0.000228976323333 0)
(0.000645800104114 0.000227133686102 0)
(0.000687290383476 0.000226359318413 0)
(0.000727385903309 0.0002256111643 0)
(0.000764263115018 0.000226237693686 0)
(0.000812150423512 0.000228818680216 0)
(0.000846798120047 0.000226587771176 0)
(0.000897313406427 0.000227639769153 0)
(0.000922095559898 0.000224338079666 0)
(0.000978814298661 0.000231717204137 0)
(0.00101016891601 0.000235622909906 0)
(0.00107385764762 0.000248748069145 0)
(0.00113650704303 0.000261526685669 0)
(0.00118834338481 0.000267378109626 0)
(0.00123621498925 0.000264804009569 0)
(0.00128270075998 0.000257656984257 0)
(0.00132794910098 0.0002481300768 0)
(0.00137199946384 0.000236110317934 0)
(0.00141462819392 0.000221351071493 0)
(0.00145526292808 0.000205767301278 0)
(0.00149345174166 0.000191602496555 0)
(0.00152888244826 0.000178922540674 0)
(0.0015613614057 0.000166489615331 0)
(0.00159088549089 0.000153387911671 0)
(0.00161752873914 0.000139255047252 0)
(0.0016412497413 0.000123969673372 0)
(0.00166189846271 0.00010743207869 0)
(0.00167925082759 8.96265397421e-05 0)
(0.00169296304825 7.06867081585e-05 0)
(0.00170253543458 5.05411927528e-05 0)
(0.00170754045327 2.87412981995e-05 0)
(0.00170810702957 5.61484178439e-06 0)
(0.00170500353715 -1.72317059712e-05 0)
(0.00169766509414 -3.97152905076e-05 0)
(0.00168262494397 -6.44855168386e-05 0)
(0.00165527330847 -9.52640621781e-05 0)
(0.00161098909276 -0.000137127138208 0)
(0.00154430862754 -0.000197513178499 0)
(0.00145328595176 -0.000285208750268 0)
(0.00134364272032 -0.000400503742259 0)
(0.00120523748329 -0.000512858293933 0)
(0.00118712020491 -0.000646756082467 0)
(0.00107130784564 -0.000653940263245 0)
(0.000936628118848 -0.000562552633873 0)
(0.000842135218222 -0.000497741094547 0)
(0.000740139562068 -0.000457897922094 0)
(0.000642642637914 -0.000452892947456 0)
(0.000580887622134 -0.000503131401006 0)
(0.000513867950184 -0.000549398718325 0)
(0.000410321015771 -0.000503936938015 0)
(0.00032860329915 -0.000454629382423 0)
(0.00026329822931 -0.00043907993983 0)
(0.000191111815643 -0.00042308148495 0)
(0.000136128511107 -0.000391793983447 0)
(8.66523718265e-05 -0.000304026039992 0)
(5.281238553e-05 -0.000265108803986 0)
(2.95071991595e-05 -0.000310025725839 0)
(7.8215586971e-06 -0.000305691275774 0)
(2.69418692151e-06 0.000109452445538 0)
(1.9134800197e-05 0.000137658656471 0)
(4.0380608063e-05 0.00016970317688 0)
(4.4457693511e-05 0.000166702027284 0)
(3.40666740832e-05 0.000100182430858 0)
(7.45138554761e-05 0.000140411045521 0)
(0.000111636875551 0.000173012052397 0)
(0.000125958170782 0.000175665042521 0)
(0.000146089371585 0.000175458697818 0)
(0.000165588687788 0.00017348242778 0)
(0.000195796649239 0.00016517330423 -2.30080694521e-28)
(0.000168949277843 0.000117141647904 1.53144182352e-28)
(0.000197137012101 0.000122715132396 0)
(0.000223165660476 0.000139177585002 0)
(0.000270560981765 0.0001717559076 0)
(0.000325464056318 0.000205543833821 0)
(0.000366556473185 0.00022021452499 0)
(0.000388415851123 0.000221251199444 0)
(0.00042712294271 0.000236964818112 0)
(0.000471892101818 0.000256691158866 0)
(0.00050975831748 0.000265884963255 0)
(0.000548614406112 0.00026896406019 0)
(0.000588316684733 0.000269233316027 0)
(0.00062833282242 0.00026756814892 0)
(0.000666299990425 0.00026501851966 0)
(0.000703383727166 0.000264232178716 0)
(0.000749690718999 0.000267699001883 0)
(0.000780418642426 0.000267988886863 0)
(0.000835470398401 0.000270500094635 0)
(0.000857074995154 0.000261689346889 0)
(0.000917023306348 0.000269942668524 0)
(0.000949413915045 0.000275965186616 -7.63684045808e-29)
(0.00101197993141 0.000290647724577 7.65923400561e-29)
(0.00106908228812 0.000307319596808 0)
(0.00113363301821 0.000319439903333 0)
(0.00118445181656 0.000318956868368 0)
(0.00123165240707 0.000312577646236 0)
(0.001278499192 0.000303744384349 0)
(0.00132481988196 0.000292893072713 0)
(0.00136998940084 0.000279561630188 0)
(0.00141356834852 0.000263657723517 0)
(0.00145519639904 0.000246456985142 0)
(0.00149437839784 0.000229611012993 0)
(0.00153067362479 0.000213592893079 0)
(0.00156386881923 0.000197820790714 0)
(0.00159394102209 0.000181593825592 0)
(0.00162089918949 0.000164465606125 0)
(0.00164463240094 0.000146159735754 0)
(0.00166495021205 0.000126473155791 0)
(0.00168165227033 0.000105282801326 0)
(0.00169446890942 8.25274644447e-05 0)
(0.00170302262304 5.80931793357e-05 0)
(0.00170699865875 3.19279920932e-05 0)
(0.00170628366497 4.41035635624e-06 0)
(0.00170044765166 -2.4210125715e-05 0)
(0.00168730304747 -5.55470362114e-05 0)
(0.00166236730793 -9.33209142696e-05 0)
(0.00162060813905 -0.000141964645471 0)
(0.00155866920767 -0.000205834435776 0)
(0.00147719793697 -0.000288288634341 0)
(0.00138090402042 -0.000388638295644 0)
(0.00127884032601 -0.000499436915186 0)
(0.00119401817665 -0.000613437778943 0)
(0.00112601861568 -0.00073152232531 0)
(0.00102032570425 -0.000756030904038 0)
(0.000840435388429 -0.000638130101532 0)
(0.000776439316666 -0.000592683004789 0)
(0.000692434978333 -0.000568138614268 0)
(0.000594378128081 -0.0005623072413 0)
(0.000514023517594 -0.000602034492989 0)
(0.000432818858164 -0.000619250053533 0)
(0.000343900560955 -0.000564982561821 0)
(0.000277431141493 -0.000536361333758 0)
(0.00020359651292 -0.000514941122241 0)
(0.000139187439193 -0.000488124910545 0)
(9.38137383955e-05 -0.000418284980117 0)
(6.01129895848e-05 -0.00034613962094 0)
(2.49472908696e-05 -0.000295059172218 0)
(8.60490680112e-06 -0.000323331453868 0)
(2.99369986284e-06 -0.000322969451266 0)
(5.74274503117e-06 0.000124158261707 0)
(2.4751096963e-05 0.00016066465718 0)
(4.12933828116e-05 0.000174534172201 0)
(2.66827113613e-05 0.000120030788092 0)
(3.19210380473e-05 0.000120050732696 0)
(7.57570625048e-05 0.000180269885949 0)
(9.40316334361e-05 0.000189120733522 0)
(0.000110252140613 0.000192658780654 0)
(0.000122777483345 0.000192486372606 0)
(0.000144452016577 0.000192869044711 0)
(0.00012919900523 0.000141216441556 0)
(0.000149551680005 0.00013665967868 0)
(0.000177346546937 0.000149932403115 0)
(0.000208148593165 0.000175659600527 0)
(0.000266430215953 0.000223828760674 0)
(0.000309363278909 0.000247227631368 0)
(0.000327439748804 0.000243642473947 0)
(0.000361366919119 0.000255255072475 0)
(0.000408744024176 0.000280455858687 0)
(0.000449849804457 0.000296917732022 0)
(0.000486881877896 0.000303916326622 0)
(0.000524865966064 0.000307297952048 0)
(0.000565669100328 0.000309651386557 0)
(0.000605500080769 0.000308303985255 0)
(0.000646903113032 0.000304866068039 0)
(0.000679078425365 0.000304470168033 0)
(0.000729760238605 0.00031022573064 0)
(0.00076478735179 0.000308713959353 0)
(0.000795723005914 0.000304609339577 0)
(0.000843137949221 0.000308714292942 0)
(0.000908667406607 0.00032188426477 0)
(0.000945608036445 0.000326672027097 0)
(0.000995892148282 0.00034512309387 0)
(0.00107192796682 0.000369412424669 0)
(0.00112613496133 0.000375252390829 0)
(0.00117621853602 0.000369709449596 0)
(0.00122515417166 0.000361038603262 0)
(0.00127342681675 0.000350983861007 0)
(0.00132114291565 0.000339004291729 0)
(0.00136773413496 0.000324380976891 0)
(0.00141259328949 0.000307053333253 0)
(0.00145536469861 0.00028798342193 0)
(0.00149563332771 0.000268467868491 0)
(0.0015329257878 0.000249156908925 0)
(0.00156695950813 0.000229918112314 -6.74666948019e-29)
(0.00159764117016 0.000210292410936 6.72022445347e-29)
(0.00162487242009 0.000189814561809 0)
(0.00164845255319 0.000168106994982 0)
(0.00166817236915 0.000144900628606 0)
(0.00168389163378 0.000120010949569 0)
(0.00169544194136 9.32659991008e-05 0)
(0.00170254421696 6.44782466801e-05 0)
(0.00170482256044 3.34939695027e-05 0)
(0.00170155356451 2.56437230892e-08 0)
(0.00169090131844 -3.71696062626e-05 0)
(0.00166916832764 -8.11004298513e-05 0)
(0.00163153591155 -0.000135650491334 0)
(0.00157529729143 -0.000203444956095 0)
(0.00150285999116 -0.00028541458585 0)
(0.00141897733065 -0.000380978796295 0)
(0.00132796096779 -0.000483140024907 0)
(0.00124028259611 -0.000585412810887 0)
(0.00116624035839 -0.00069151818519 0)
(0.00109036451248 -0.000802377399071 0)
(0.00107294751139 -0.000911952338769 0)
(0.000840148742802 -0.00076961143874 0)
(0.000695970594351 -0.000680473113596 0)
(0.00061402161641 -0.000660156415124 0)
(0.000515483185153 -0.000653108318106 0)
(0.000436012056222 -0.000678061354714 0)
(0.000363996268834 -0.000676332569895 0)
(0.000290244350615 -0.000639464063874 0)
(0.000217317132557 -0.000617244253379 0)
(0.000143608470427 -0.000585838611205 0)
(8.9275465572e-05 -0.000536455030229 0)
(5.05086300304e-05 -0.000449033470687 0)
(1.9452145291e-05 -0.00038523059474 0)
(-1.07364332976e-05 -0.000327656406178 0)
(-2.11633632615e-05 -0.000324466131605 0)
(-8.7037229251e-06 -0.000325705655374 0)
(7.21571596073e-06 0.000140984947298 0)
(2.47045288742e-05 0.000176311399982 0)
(2.94084682695e-05 0.000178097768654 0)
(2.1531767918e-05 0.000128977479302 0)
(3.94139374097e-05 0.000149643121351 0)
(6.88209447554e-05 0.000196632967439 0)
(7.69029714256e-05 0.000203155266833 0)
(9.46200983895e-05 0.000207332472054 0)
(9.64301851585e-05 0.000194131361304 0)
(0.000122147437984 0.000216306044243 0)
(0.000108416339012 0.000157521947256 0)
(0.000134041542078 0.000161014238125 0)
(0.00015853891219 0.000179314314194 0)
(0.000200823067741 0.000223592059658 0)
(0.000249219492849 0.000267075372431 0)
(0.00028115954046 0.000279202831537 0)
(0.000298302963648 0.000275230703611 0)
(0.000338485199437 0.000296602275822 0)
(0.000382945029583 0.000322032281563 0)
(0.00042248780027 0.000336085879986 0)
(0.000461219201047 0.00034270315752 0)
(0.000498372371821 0.000345544648751 0)
(0.000538501696263 0.000348545733723 0)
(0.000574113714082 0.000346405073073 0)
(0.000609205227592 0.000340081007657 0)
(0.000659658675221 0.000346322354597 0)
(0.000681892166687 0.000344309782235 0)
(0.000749698262833 0.000355003190292 0)
(0.000772716095525 0.000350829905767 0)
(0.000841522076655 0.000365272343217 0)
(0.000868590308669 0.000363794519548 0)
(0.000943423573584 0.000385721730996 0)
(0.00100374905845 0.000410192722543 -7.9075993389e-29)
(0.00106146836767 0.000426678365312 7.83527366465e-29)
(0.00111478719827 0.000427798023755 0)
(0.00116629312403 0.000420913671134 0)
(0.00121727133036 0.000411230705515 0)
(0.00126746169963 0.000400012837282 0)
(0.00131686656513 0.000386797085468 0)
(0.00136510440432 0.000370788750994 0)
(0.00141156703276 0.000351817497593 0)
(0.00145578865595 0.000330639240898 0)
(0.00149734660352 0.00030836071657 0)
(0.0015357994035 0.000285712685291 0)
(0.00157081514668 0.000262835912828 0)
(0.00160215119343 0.000239464200345 0)
(0.00162955198087 0.000215168796072 0)
(0.00165273494961 0.000189553311483 0)
(0.00167150231042 0.000162360735034 0)
(0.00168579745065 0.000133406739198 0)
(0.00169557680255 0.00010242481861 0)
(0.00170064488657 6.89616961359e-05 0)
(0.00170041826989 3.22476717083e-05 0)
(0.00169328793402 -9.24009694353e-06 0)
(0.00167588191306 -5.8291744312e-05 0)
(0.00164332922 -0.000118290177931 0)
(0.00159217405846 -0.000190605811204 0)
(0.00152611992926 -0.000273088259326 0)
(0.00145413221473 -0.000365978259534 0)
(0.00137399315251 -0.00047236234897 0)
(0.00128129081804 -0.000575643520091 0)
(0.00119130717707 -0.000664387685908 0)
(0.00112160374099 -0.00075507361736 0)
(0.00107035500041 -0.000855010621399 0)
(0.00104966894298 -0.000971148066552 0)
(0.000973947649198 -0.00100178403947 0)
(0.000674368123011 -0.000797503304238 0)
(0.00053327639372 -0.000761051444618 0)
(0.00044989382273 -0.00075363163928 0)
(0.000375520257458 -0.000749948052497 0)
(0.000306127449549 -0.00073820096591 0)
(0.00023122350944 -0.000724944719524 0)
(0.000149905088028 -0.000697289708079 0)
(8.2760557168e-05 -0.000646809245948 0)
(3.44936683639e-05 -0.000574237689749 0)
(-5.71572717602e-06 -0.000489822250753 0)
(-4.06638389594e-05 -0.000417458220719 0)
(-6.13411528457e-05 -0.000353757453763 0)
(-5.60589006181e-05 -0.000314204228032 0)
(-2.27612495093e-05 -0.000295572196718 0)
(7.68972782296e-06 0.000159314302491 0)
(2.42650260691e-05 0.000185124835585 0)
(2.21149973272e-05 0.000174779656505 0)
(1.75754815723e-05 0.000136380260278 0)
(4.15024028708e-05 0.000187593384219 0)