/*--------------------------------*- C++ -*----------------------------------*\
| =========                 |                                                 |
| \\      /  F ield         | OpenFOAM: The Open Source CFD Toolbox           |
|  \\    /   O peration     | Version:  v1806                                 |
|   \\  /    A nd           | Web:      www.OpenFOAM.com                      |
|    \\/     M anipulation  |                                                 |
\*---------------------------------------------------------------------------*/
FoamFile
{
    version     2.0;
    format      ascii;
    class       surfaceScalarField;
    location    "163";
    object      phi;
}
// * * * * * * * * * * * * * * * * * * * * * * * * * * * * * * * * * * * * * //

dimensions      [0 3 -1 0 0 0 0];
oriented        oriented;


internalField   nonuniform List<scalar> 
12640
(
-1.76639257656e-07
1.76018263156e-07
-3.44211029731e-07
1.67000699656e-07
-4.97070702571e-07
1.52399450085e-07
-6.27645312885e-07
1.30151007379e-07
-7.17645084299e-07
8.96103822815e-08
-7.61795297782e-07
4.38194628239e-08
-7.82901111306e-07
2.08137474694e-08
-8.36783531775e-07
5.36122579897e-08
-9.26931800644e-07
8.98733199873e-08
-1.0090442563e-06
8.18530711445e-08
-1.08418648578e-06
7.48994922074e-08
-1.17182227823e-06
8.74002129637e-08
-1.24930405459e-06
7.72470021226e-08
-1.30627954017e-06
5.67529595823e-08
-1.3529316418e-06
4.64504401934e-08
-1.41202656172e-06
5.89255822e-08
-1.47405251283e-06
6.18626309697e-08
-1.51833008696e-06
4.41239536574e-08
-1.53969667318e-06
2.1192432191e-08
-1.54759924421e-06
7.70549505344e-09
-1.57366204165e-06
2.58445917202e-08
-1.6268083755e-06
5.29219673475e-08
-1.69092437367e-06
6.38860353108e-08
-1.75711861612e-06
6.59745649074e-08
-1.81742020371e-06
6.00901056322e-08
-1.86908026532e-06
5.14574934998e-08
-1.9185162536e-06
4.92329245234e-08
-1.96194271539e-06
4.32316265933e-08
-1.99518982016e-06
3.30518452487e-08
-2.02012914096e-06
2.47545608693e-08
-2.04556442026e-06
2.52485490847e-08
-2.06818941103e-06
2.24444656463e-08
-2.07970685099e-06
1.13419174452e-08
-2.09127926468e-06
1.13942053434e-08
-2.10022657932e-06
8.75591409871e-09
-2.10458274778e-06
4.1668131546e-09
-2.11421454332e-06
9.43375132173e-09
-2.12257593259e-06
8.15624674092e-09
-2.12472956882e-06
1.93668403816e-09
-2.13435042288e-06
9.39479533655e-09
-2.18351923809e-06
4.89398978418e-08
-2.24157245631e-06
5.78469105106e-08
-2.25717225357e-06
1.54042581593e-08
-2.2483480211e-06
-9.02085350088e-09
-2.22966175365e-06
-1.88877262719e-08
-2.19992924173e-06
-2.99403779247e-08
-2.16029658443e-06
-3.98497937115e-08
-2.10882097432e-06
-5.16998060463e-08
-2.04945259629e-06
-5.9600414402e-08
-2.00288598332e-06
-4.68047441872e-08
-1.98871308711e-06
-1.44240730735e-08
-1.97196343521e-06
-1.70105702516e-08
-1.87965374815e-06
-9.25876614465e-08
-1.74284970195e-06
-1.37124438225e-07
-1.58315273916e-06
-1.60021105125e-07
-1.37695217361e-06
-2.0652274808e-07
-1.18146533393e-06
-1.95847262751e-07
-1.01610376631e-06
-1.65793617653e-07
-8.27074805384e-07
-1.89537732213e-07
-6.11022636077e-07
-2.16639503764e-07
-3.79886508815e-07
-2.31815390551e-07
-1.27197615504e-07
-2.53457797909e-07
2.02680399788e-07
-3.30738101716e-07
4.43229980867e-07
-2.41168426599e-07
5.93895985239e-07
-1.51066900162e-07
6.96703704629e-07
-1.03107254887e-07
7.72742097188e-07
-7.63197728757e-08
8.36616750089e-07
-6.41924465915e-08
8.88403463571e-07
-5.21672435229e-08
9.21622290329e-07
-3.36651354758e-08
9.30466437791e-07
-9.33494127333e-09
9.10653017985e-07
1.93140103116e-08
8.59484789953e-07
5.06603769468e-08
7.66410661088e-07
9.2547008548e-08
6.61138429825e-07
1.04753784302e-07
5.48387777111e-07
1.12257205935e-07
4.57098478127e-07
9.07654600732e-08
3.32929928822e-07
1.23690455186e-07
2.05854886581e-07
1.2609125522e-07
2.05285794127e-07
-8.64561445339e-08
2.62079542481e-07
-2.0068621327e-07
2.80811126297e-07
-3.12515029813e-07
2.63862961744e-07
-4.34523217363e-07
2.51843354033e-07
-6.06401573786e-07
2.61179123871e-07
-7.49383024596e-07
1.86465638381e-07
-8.3060533317e-07
1.01718188175e-07
-8.98541376956e-07
1.21227259057e-07
-9.69745152985e-07
1.60779871337e-07
-1.05268970729e-06
1.64508501203e-07
-1.13346937976e-06
1.55420715841e-07
-1.1952389823e-06
1.48917244833e-07
-1.25067248746e-06
1.32458340136e-07
-1.30628712463e-06
1.12162412425e-07
-1.36026073716e-06
1.00251209721e-07
-1.42310484711e-06
1.21595333052e-07
-1.47139003697e-06
1.10004664987e-07
-1.46831427618e-06
4.08803611103e-08
-1.45801637566e-06
1.07237719204e-08
-1.47591476382e-06
2.54013085485e-08
-1.5247044398e-06
7.44097778842e-08
-1.61133355729e-06
1.39303262164e-07
-1.69990073116e-06
1.52224925585e-07
-1.75807502942e-06
1.23918657193e-07
-1.81104690922e-06
1.12853391559e-07
-1.87479699546e-06
1.14992694481e-07
-1.92624140542e-06
1.00478823292e-07
-1.96365955612e-06
8.0443783635e-08
-1.99448487406e-06
6.36878820876e-08
-2.01969159881e-06
4.976509022e-08
-2.03611642881e-06
4.14936020696e-08
-2.046732931e-06
3.28856628991e-08
-2.04678765917e-06
1.12216143055e-08
-2.04905345585e-06
1.34768522492e-08
-2.06869655272e-06
2.82263948557e-08
-2.07250470657e-06
7.77320160127e-09
-2.07510324586e-06
1.18281869061e-08
-2.10168723461e-06
3.45335783337e-08
-2.13793538517e-06
3.79688087792e-08
-2.15415438213e-06
2.53771934537e-08
-2.07117234632e-06
-3.42601450087e-08
-1.9496089786e-06
-6.39072283389e-08
-1.90503150648e-06
-2.93513810817e-08
-1.90456022225e-06
-9.67683688721e-09
-1.91674691241e-06
-6.8891982838e-09
-1.9375653312e-06
-9.32217996099e-09
-1.95519529251e-06
-2.24285356295e-08
-1.96817615603e-06
-3.89407533416e-08
-1.96848176984e-06
-5.95280540449e-08
-1.92378458561e-06
-9.17451935173e-08
-1.81450492013e-06
-1.23945697829e-07
-1.70335901441e-06
-1.2839737792e-07
-1.71295882044e-06
-8.32590751092e-08
-1.71288227527e-06
-1.37516853951e-07
-1.62206613874e-06
-2.51159194428e-07
-1.53730610531e-06
-2.91644291393e-07
-1.42417004071e-06
-3.09421213848e-07
-1.24633568504e-06
-3.44145333298e-07
-1.03839616533e-06
-3.98087179265e-07
-7.87027535024e-07
-4.68726147665e-07
-4.65828439846e-07
-5.53787496406e-07
-1.43902278915e-07
-5.7618245019e-07
1.88558509333e-07
-6.64063525702e-07
4.29894009303e-07
-4.8311827453e-07
5.73947191582e-07
-2.95514737484e-07
6.61590439225e-07
-1.91043917788e-07
7.45422765945e-07
-1.6043570804e-07
8.28939436806e-07
-1.48035512996e-07
8.92526556924e-07
-1.16147052908e-07
9.27465915133e-07
-6.90611932228e-08
9.26354090071e-07
-8.71759496172e-09
8.91217397199e-07
5.39568673151e-08
8.46137663544e-07
9.52256371616e-08
8.03411062712e-07
1.3471785457e-07
7.35896645268e-07
1.71689144525e-07
6.52556064802e-07
1.95017843939e-07
5.38322429176e-07
2.04395143542e-07
4.12410074437e-07
2.48842976694e-07
2.23010902545e-07
3.14751338169e-07
4.27467286233e-07
-1.18831733565e-07
3.8061904771e-07
-1.68081770312e-07
3.29696609197e-07
-3.21431568323e-07
4.16843400802e-07
-5.12255858165e-07
4.42321050322e-07
-6.80618617162e-07
4.29223217533e-07
-7.55222862938e-07
2.6080229178e-07
-7.87165525978e-07
1.33362687563e-07
-8.61842115963e-07
1.95560735068e-07
-9.52318960176e-07
2.50918763409e-07
-1.04280685579e-06
2.54690700276e-07
-1.12630614094e-06
2.38644311837e-07
-1.19335862668e-06
2.1574179377e-07
-1.24944529619e-06
1.88352063704e-07
-1.30510320076e-06
1.67647593251e-07
-1.33362523982e-06
1.2861411077e-07
-1.26043170786e-06
4.82560673503e-08
-1.14388229683e-06
-6.68860640455e-09
-1.11315155429e-06
1.00039294603e-08
-1.17058734316e-06
6.79865600061e-08
-1.32929729095e-06
1.83899872193e-07
-1.51468375206e-06
2.59554908869e-07
-1.61762690769e-06
2.4200754368e-07
-1.67814561375e-06
2.12510830587e-07
-1.7570183258e-06
2.02570398101e-07
-1.83006133373e-06
1.85677771791e-07
-1.87981631205e-06
1.64541768018e-07
-1.91946492998e-06
1.39921398223e-07
-1.95481257976e-06
1.15595109777e-07
-1.98223167334e-06
9.09102449589e-08
-2.00576921886e-06
7.31177321913e-08
-2.0150320568e-06
5.05790768653e-08
-2.01684855448e-06
3.45245700175e-08
-2.02576059602e-06
1.99685452049e-08
-1.99588366499e-06
-1.65721520358e-08
-1.97831078682e-06
1.04609038085e-08
-2.02037151473e-06
4.96369931631e-08
-2.02911486521e-06
2.03616550478e-08
-2.03578984506e-06
4.09948711623e-08
-2.10280622599e-06
1.04761512219e-07
-2.17301661001e-06
9.53621428827e-08
-2.22921582409e-06
2.17158451667e-08
-2.26337845125e-06
-2.99577645502e-08
-2.26328215411e-06
-2.96572479063e-08
-2.25039740844e-06
-2.27698928068e-08
-2.23236837843e-06
-2.51317374031e-08
-2.20726932366e-06
-3.4640055317e-08
-2.17834113043e-06
-5.15844251248e-08
-2.14457658815e-06
-7.29410309006e-08
-2.1055512848e-06
-9.87983242243e-08
-2.06703666346e-06
-1.30512768064e-07
-2.02989794961e-06
-1.61347868373e-07
-1.97530637195e-06
-1.83267707124e-07
-1.85228321767e-06
-2.06576160558e-07
-1.71946255788e-06
-2.7064352985e-07
-1.64280962463e-06
-3.28141142724e-07
-1.55856082926e-06
-3.76273460923e-07
-1.42088908754e-06
-4.4754342147e-07
-1.23645459918e-06
-5.29101147767e-07
-1.0164670258e-06
-6.18682701914e-07
-7.66242787383e-07
-7.19646369855e-07
-5.03167793246e-07
-8.17634867927e-07
-1.75636925206e-07
-9.04570435736e-07
1.19958591817e-07
-9.60496547145e-07
3.49603077238e-07
-7.13313269468e-07
5.15694939997e-07
-4.61971629464e-07
6.52953054733e-07
-3.28600138337e-07
7.55432610184e-07
-2.6320989741e-07
8.24158920297e-07
-2.17088360536e-07
8.70111614559e-07
-1.6248452936e-07
8.93406031223e-07
-9.27990298794e-08
9.03680511855e-07
-1.94668530401e-08
9.1642312829e-07
4.07053742109e-08
9.13392180602e-07
9.77099235364e-08
8.67506684514e-07
1.80021600008e-07
7.74996501562e-07
2.63613492439e-07
6.59369146756e-07
3.10045269035e-07
5.40078745546e-07
3.23097845592e-07
4.23664852862e-07
3.6474896697e-07
1.9131798316e-07
5.45939326283e-07
6.18612840169e-07
-8.2627866089e-08
4.62886988268e-07
-9.84666617392e-08
3.45297368249e-07
-2.90381239329e-07
6.08408510288e-07
-4.35593094853e-07
5.87214132655e-07
-4.11072063549e-07
4.04473922522e-07
-3.24895902879e-07
1.74508732464e-07
-4.60973608723e-07
2.69237606203e-07
-7.17239308867e-07
4.51475942138e-07
-8.97904179129e-07
4.3123192291e-07
-1.01507425393e-06
3.71551858207e-07
-1.11412767313e-06
3.37448317357e-07
-1.19248874814e-06
2.93901927629e-07
-1.23014585291e-06
2.25843011915e-07
-1.17632813e-06
1.13695027584e-07
-1.06344077023e-06
1.55953419258e-08
-1.00946577511e-06
-5.86918078566e-09
-1.04862041569e-06
3.23032068014e-08
-1.17592670761e-06
1.37120177833e-07
-1.37050793405e-06
2.62344146228e-07
-1.50862744583e-06
3.21782513278e-07
-1.56722480206e-06
3.17915966913e-07
-1.63370964552e-06
3.08253076692e-07
-1.71044099819e-06
2.89010942329e-07
-1.77173751339e-06
2.63643305635e-07
-1.82282458791e-06
2.3655562094e-07
-1.86572700167e-06
2.07237801293e-07
-1.90662794066e-06
1.80626447328e-07
-1.93971065279e-06
1.48478909009e-07
-1.96893276549e-06
1.19943868328e-07
-1.98308710973e-06
8.70915350996e-08
-1.99734986976e-06
6.46654595834e-08
-1.9896658631e-06
2.66819466778e-08
-1.95476037112e-06
-1.51083508597e-08
-1.98113355411e-06
9.61061384955e-09
-1.99212731454e-06
2.12578466685e-08
-1.99818595848e-06
5.54847344826e-08
-2.09429825763e-06
1.16246845722e-07
-2.18412848541e-06
1.30591785373e-07
-2.20578284494e-06
1.2618863201e-07
-2.2076592446e-06
9.70123626181e-08
-2.2270629899e-06
4.08976538507e-08
-2.25150008714e-06
-5.73698613344e-09
-2.25778278117e-06
-2.35844488752e-08
-2.24974098378e-06
-3.10210547464e-08
-2.23351738734e-06
-4.15667721318e-08
-2.21074582764e-06
-5.76292928298e-08
-2.18327700239e-06
-7.92782861487e-08
-2.15112067932e-06
-1.0533177562e-07
-2.11432713743e-06
-1.35835762901e-07
-2.07402291562e-06
-1.71071438331e-07
-2.0268942793e-06
-2.08742388657e-07
-1.9625361109e-06
-2.47905212808e-07
-1.87406566464e-06
-2.95342799195e-07
-1.78552033269e-06
-3.59505128416e-07
-1.68898486083e-06
-4.25021861742e-07
-1.56610553355e-06
-4.99549278076e-07
-1.41315034915e-06
-6.00951333219e-07
-1.22245262038e-06
-7.20330714429e-07
-9.93906779816e-07
-8.47829750504e-07
-7.38282909139e-07
-9.75935858054e-07
-4.66082214077e-07
-1.09055602558e-06
-1.92776712275e-07
-1.17863593836e-06
2.19369840483e-08
-1.17588361629e-06
2.95762109435e-07
-9.87679516498e-07
5.11333984809e-07
-6.77946446529e-07
6.41251773689e-07
-4.58830297601e-07
7.40983562893e-07
-3.632396138e-07
8.24698178774e-07
-3.01135479293e-07
8.9108972891e-07
-2.29259131845e-07
9.43347198622e-07
-1.45498959539e-07
9.81490495384e-07
-5.81113792351e-08
9.84326666616e-07
3.7338216556e-08
9.22215226861e-07
1.59287794618e-07
8.22581624971e-07
2.79146186961e-07
7.16569218379e-07
3.69086192498e-07
5.82373067673e-07
4.43699921967e-07
4.24693935594e-07
4.80308711167e-07
2.95842223145e-07
4.93054822906e-07
1.55369744264e-07
6.86234834806e-07
7.73504303567e-07
-7.18747795175e-09
4.69945635495e-07
-9.112258775e-08
4.29028114955e-07
-2.50367846586e-07
7.67377887719e-07
-3.31249001272e-07
6.67878563504e-07
-2.78022025665e-07
3.51095625744e-07
-3.43746660939e-07
2.40082696361e-07
-5.51182113873e-07
4.76405353516e-07
-7.22952395747e-07
6.22917958126e-07
-8.49097632386e-07
5.5705364408e-07
-9.68036684034e-07
4.9021765831e-07
-1.07629549388e-06
4.45495239159e-07
-1.10217578377e-06
3.19618147572e-07
-1.02467996334e-06
1.48226609853e-07
-9.61737120698e-07
5.06248231218e-08
-9.88757926527e-07
4.24546173777e-08
-1.08413368623e-06
8.93186725289e-08
-1.24106932151e-06
1.89022212754e-07
-1.4006254293e-06
2.96436329101e-07
-1.47491484935e-06
3.36399369601e-07
-1.50360818244e-06
3.50245344705e-07
-1.56724847187e-06
3.81320756054e-07
-1.64255247461e-06
3.83321779792e-07
-1.70854968602e-06
3.54781023987e-07
-1.76266051969e-06
3.17540879263e-07
-1.80926231802e-06
2.82950029905e-07
-1.85519374831e-06
2.52975151669e-07
-1.88681294704e-06
2.12047244018e-07
-1.92034623298e-06
1.8182429267e-07
-1.93799279302e-06
1.37413391181e-07
-1.9546485871e-06
1.0357375128e-07
-1.94491072683e-06
5.47655775608e-08
-1.94904677858e-06
3.06495333861e-08
-1.99788532426e-06
3.35506713505e-08
-1.98913433471e-06
6.56715685738e-10
-2.02238594451e-06
5.42873050223e-08
-2.10874933647e-06
1.41612066223e-07
-2.16435468663e-06
1.71616422861e-07
-2.19817822594e-06
1.64185127293e-07
-2.21228188462e-06
1.40065581721e-07
-2.21921953283e-06
1.03726855021e-07
-2.23429446842e-06
5.5752356167e-08
-2.25174472932e-06
1.1498136505e-08
-2.25833115941e-06
-1.72091578406e-08
-2.25276333594e-06
-3.6797913594e-08
-2.238422857e-06
-5.61181707778e-08
-2.21749380593e-06
-7.87740218053e-08
-2.19133392336e-06
-1.05661575087e-07
-2.16023097773e-06
-1.36667662507e-07
-2.12402183353e-06
-1.72289048582e-07
-2.0821006175e-06
-2.13248772725e-07
-2.03149142147e-06
-2.59620922767e-07
-1.9673614108e-06
-3.12319763102e-07
-1.88885451153e-06
-3.74151520398e-07
-1.80226581585e-06
-4.46418595096e-07
-1.70041928294e-06
-5.27229058208e-07
-1.57209079382e-06
-6.28276829116e-07
-1.41196763631e-06
-7.61547857732e-07
-1.21347923444e-06
-9.19342486857e-07
-9.77693173703e-07
-1.08420830433e-06
-7.19004379531e-07
-1.23526722386e-06
-4.55962681588e-07
-1.35426363767e-06
-2.21709694666e-07
-1.41351882821e-06
-5.35006982602e-08
-1.34469076588e-06
2.69155944353e-07
-1.31088824742e-06
5.08440288643e-07
-9.17654352687e-07
6.59725037339e-07
-6.10460320102e-07
7.6730652583e-07
-4.71153083979e-07
8.53416509366e-07
-3.87585877473e-07
9.27174132087e-07
-3.03399427608e-07
9.95079285515e-07
-2.13845104348e-07
1.03032766964e-06
-9.38532078773e-08
9.87013630108e-07
8.01540982609e-08
8.97264719978e-07
2.48591269272e-07
8.00261875372e-07
3.75660566176e-07
6.82639309229e-07
4.86216419766e-07
5.3566823602e-07
5.90194728691e-07
4.11166421513e-07
6.04448071634e-07
2.79948597121e-07
6.24106272116e-07
1.27152339549e-07
8.38240997086e-07
9.0063738811e-07
-1.3503231819e-09
4.71121232927e-07
-1.25507264766e-07
5.53019821521e-07
-2.03022463265e-07
8.44671883582e-07
-2.33917595512e-07
6.98578233516e-07
-2.12450383592e-07
3.29511854439e-07
-4.02002920343e-07
4.29441165456e-07
-6.23295953156e-07
6.97406601234e-07
-7.16100398774e-07
7.1541444226e-07
-8.11401142513e-07
6.52090394001e-07
-8.90828248328e-07
5.69422788645e-07
-9.01147092844e-07
4.5563192748e-07
-8.11992884173e-07
2.30358136302e-07
-7.8846325593e-07
1.24579313271e-07
-8.52093372398e-07
1.14104117757e-07
-9.6989129394e-07
1.60064385587e-07
-1.15371722879e-06
2.72913176602e-07
-1.33325677453e-06
3.683113178e-07
-1.39983979987e-06
3.62790867477e-07
-1.42046621639e-06
3.56804171424e-07
-1.49666391626e-06
4.26210493915e-07
-1.57775753632e-06
4.62178585901e-07
-1.63866548385e-06
4.44000450276e-07
-1.69482237734e-06
4.10719228513e-07
-1.75225906139e-06
3.74766021327e-07
-1.80179319439e-06
3.32287032521e-07
-1.81846813457e-06
2.69457373285e-07
-1.85394825245e-06
2.4734484595e-07
-1.87370508212e-06
2.01406246262e-07
-1.89339551781e-06
1.56927982142e-07
-1.87549452143e-06
8.55100370164e-08
-1.86725026955e-06
4.63597838254e-08
-1.88201877006e-06
4.52464133938e-08
-1.88829651221e-06
3.96408635059e-08
-1.98778864261e-06
9.99295294195e-08
-2.09258549701e-06
1.58836923348e-07
-2.15335535378e-06
2.02136499674e-07
-2.18580709836e-06
2.03831963007e-07
-2.20524544951e-06
1.83394845065e-07
-2.2178685811e-06
1.5246503606e-07
-2.22865406605e-06
1.14290550264e-07
-2.24235846452e-06
6.92374922518e-08
-2.25591652151e-06
2.48408006687e-08
-2.26187639446e-06
-1.14600531233e-08
-2.25782025951e-06
-4.10623950429e-08
-2.24518005298e-06
-6.89673395937e-08
-2.22569407406e-06
-9.84729814054e-08
-2.20051268494e-06
-1.31063081553e-07
-2.16984671322e-06
-1.67563777222e-07
-2.13334093088e-06
-2.0903753324e-07
-2.09016820563e-06
-2.56678727109e-07
-2.03855732232e-06
-3.11504499908e-07
-1.97648310816e-06
-3.74683971298e-07
-1.9033855694e-06
-4.47560007854e-07
-1.81852017483e-06
-5.31622631811e-07
-1.71438484295e-06
-6.31732628878e-07
-1.58240626356e-06
-7.60688943654e-07
-1.41787076461e-06
-9.26543756522e-07
-1.2178535221e-06
-1.11990494741e-06
-9.83475517562e-07
-1.31916651022e-06
-7.29121853102e-07
-1.49021962916e-06
-4.86142474886e-07
-1.59782852369e-06
-2.81277370375e-07
-1.61895536243e-06
-7.53757243044e-08
-1.55111133468e-06
2.12624051345e-07
-1.5994400345e-06
4.61729349425e-07
-1.16719497378e-06
6.3455014295e-07
-7.83648834462e-07
7.80673832992e-07
-6.1761356364e-07
9.00894789404e-07
-5.08160505779e-07
1.00338596106e-06
-4.06250476537e-07
1.07606080349e-06
-2.86923857938e-07
1.06370509588e-06
-8.19317894989e-08
9.87353810531e-07
1.5611261888e-07
9.01769044214e-07
3.33722858648e-07
8.03060004292e-07
4.73948768528e-07
6.7904729807e-07
6.0974894393e-07
5.49583165712e-07
7.19252247866e-07
4.16481198931e-07
7.37239755138e-07
2.79365391014e-07
7.60713983004e-07
1.39938577995e-07
9.7767817547e-07
1.04015657178e-06
-4.44087796432e-08
5.15436151637e-07
-2.04207083805e-07
7.1264862004e-07
-2.69075511695e-07
9.0935744807e-07
-2.09859967033e-07
6.39199102631e-07
-2.66182102779e-07
3.85684488232e-07
-5.03659048804e-07
6.66671973574e-07
-6.28417976014e-07
8.21875919251e-07
-6.98972682184e-07
7.85724529202e-07
-7.46393400758e-07
6.99279872127e-07
-8.21748439874e-07
6.44603060427e-07
-7.7302900708e-07
4.06782009396e-07
-7.24908858296e-07
1.82127040136e-07
-7.80972054551e-07
1.80500400513e-07
-8.70727057086e-07
2.03676677284e-07
-1.03727348393e-06
3.26380325019e-07
-1.22815554836e-06
4.63544478335e-07
-1.29556316565e-06
4.3549218957e-07
-1.31002747657e-06
3.77042012827e-07
-1.40197833723e-06
4.48525162285e-07
-1.50094090319e-06
5.24934853981e-07
-1.5703983371e-06
5.31404973982e-07
-1.63061727929e-06
5.03997414739e-07
-1.68742961487e-06
4.67313035689e-07
-1.72638517082e-06
4.13520735679e-07
-1.74715340334e-06
3.52866272693e-07
-1.7736527403e-06
2.95773512773e-07
-1.78105555361e-06
2.5456779364e-07
-1.80713402449e-06
2.27311472257e-07
-1.80633931884e-06
1.55972474921e-07
-1.79009883747e-06
6.91098643796e-08
-1.81367785304e-06
6.97589728781e-08
-1.85464528806e-06
8.60346002874e-08
-1.92623736432e-06
1.11026656892e-07
-2.01884884229e-06
1.92300969329e-07
-2.12345826161e-06
2.63192627605e-07
-2.1712701671e-06
2.49701660029e-07
-2.19393743743e-06
2.26262881077e-07
-2.210498023e-06
1.99727121661e-07
-2.22521127154e-06
1.66954152888e-07
-2.23856887453e-06
1.27427021578e-07
-2.25190080473e-06
8.23514915497e-08
-2.2634448619e-06
3.61715971685e-08
-2.26872570323e-06
-6.38803791599e-09
-2.26545277845e-06
-4.45409148654e-08
-2.25401286133e-06
-8.06124506703e-08
-2.23554087655e-06
-1.17153421035e-07
-2.21079960617e-06
-1.56020081724e-07
-2.17989407757e-06
-1.98696692221e-07
-2.14259826596e-06
-2.46576061815e-07
-2.09853155456e-06
-3.01004559149e-07
-2.04701680574e-06
-3.63297627024e-07
-1.9871560037e-06
-4.34843330023e-07
-1.91761666882e-06
-5.1742073015e-07
-1.83488747803e-06
-6.14701120363e-07
-1.7318354713e-06
-7.35186055973e-07
-1.60157122657e-06
-8.91360106129e-07
-1.43999212615e-06
-1.08863158017e-06
-1.24401604422e-06
-1.31638385422e-06
-1.01473802782e-06
-1.5489811644e-06
-7.69223068595e-07
-1.73627857662e-06
-5.56140148873e-07
-1.81147545707e-06
-3.76233122569e-07
-1.79935979753e-06
-1.31001921081e-07
-1.79690598357e-06
5.92161648982e-08
-1.79017115106e-06
4.01389307776e-07
-1.50985893378e-06
6.32948605311e-07
-1.01554286511e-06
8.41026799999e-07
-8.26041895671e-07
1.01504732874e-06
-6.82496902921e-07
1.13101461808e-06
-5.2253554156e-07
1.15740152484e-06
-3.13627481278e-07
1.10016408974e-06
-2.50143233622e-08
1.02419036538e-06
2.31680981317e-07
9.38665339728e-07
4.18900237683e-07
8.32325143593e-07
5.79781956086e-07
7.07520476718e-07
7.34116376153e-07
5.96832026256e-07
8.2953234239e-07
4.46289885749e-07
8.87413138472e-07
2.87694724274e-07
9.19197972048e-07
1.58593743664e-07
1.10595706658e-06
1.1987467626e-06
-8.70215047231e-08
6.02278903455e-07
-2.38891506172e-07
8.64350739545e-07
-2.53526910834e-07
9.2380909401e-07
-1.49297933811e-07
5.3485316813e-07
-3.12823775064e-07
5.49041168528e-07
-5.23732659179e-07
8.77319215286e-07
-6.00343486091e-07
8.98252444024e-07
-6.78114879439e-07
8.63271759988e-07
-6.60684110742e-07
6.81691807033e-07
-6.68621492027e-07
6.52371702962e-07
-6.13438528532e-07
3.51496222339e-07
-7.00191067782e-07
2.68745219805e-07
-7.77947939678e-07
2.58090352459e-07
-9.13305639844e-07
3.38832358171e-07
-1.09869729795e-06
5.11520342541e-07
-1.18578273114e-06
5.50383578223e-07
-1.19827134379e-06
4.47776875409e-07
-1.29156631316e-06
4.7012067165e-07
-1.40868863687e-06
5.65408535952e-07
-1.48654554393e-06
6.02553514362e-07
-1.54617375728e-06
5.9080620349e-07
-1.60358868188e-06
5.61189513344e-07
-1.6680790361e-06
5.31598494705e-07
-1.7259110749e-06
4.71163124234e-07
-1.73323614098e-06
3.60003121638e-07
-1.7648905377e-06
3.27252772121e-07
-1.77591095683e-06
2.65412756853e-07
-1.74525068253e-06
1.96482373857e-07
-1.74451444335e-06
1.5507416496e-07
-1.83366128961e-06
1.58077023314e-07
-1.87910596697e-06
1.15017291368e-07
-1.87060946709e-06
7.73314938032e-08
-1.96759655497e-06
2.07785818692e-07
-2.0910593689e-06
3.15506798273e-07
-2.14222482687e-06
3.14101785196e-07
-2.174867712e-06
2.82097273453e-07
-2.19802537803e-06
2.49182955837e-07
-2.21681260719e-06
2.18284048024e-07
-2.2339866021e-06
1.83902692122e-07
-2.24953920773e-06
1.42757456389e-07
-2.26318562083e-06
9.57800042232e-08
-2.27376175398e-06
4.65348461368e-08
-2.27870832301e-06
-1.64853398808e-09
-2.27601606019e-06
-4.74356384522e-08
-2.26537948823e-06
-9.14497637589e-08
-2.24737009011e-06
-1.35365679822e-07
-2.22239114249e-06
-1.81209493194e-07
-2.19050754355e-06
-2.30803756515e-07
-2.15184719037e-06
-2.85476308505e-07
-2.10674431876e-06
-3.46368130069e-07
-2.055439953e-06
-4.14882382742e-07
-1.99761181814e-06
-4.92974694212e-07
-1.9315006942e-06
-5.8386257009e-07
-1.85290767251e-06
-6.93665214236e-07
-1.75572824669e-06
-8.32742306666e-07
-1.63478793996e-06
-1.01278920494e-06
-1.48558857486e-06
-1.23826847556e-06
-1.30090622792e-06
-1.50158957335e-06
-1.07248958002e-06
-1.77791926082e-06
-8.28229706488e-07
-1.98108094067e-06
-6.32680602194e-07
-2.00751649603e-06
-4.5605239986e-07
-1.97654793059e-06
-2.66949027547e-07
-1.98645936326e-06
-7.71486000747e-08
-1.98057428763e-06
2.88777242951e-07
-1.87621011337e-06
6.5714693881e-07
-1.38432469535e-06
9.21552664955e-07
-1.09073755649e-06
1.12684378919e-06
-8.88100390296e-07
1.23481420161e-06
-6.3076457134e-07
1.23157614401e-06
-3.10659748489e-07
1.17052848181e-06
3.56985974994e-08
1.09381468022e-06
3.08112122235e-07
9.96707413279e-07
5.1546475224e-07
8.83557888757e-07
6.92542733629e-07
7.71115233327e-07
8.46073973189e-07
6.54373822067e-07
9.45862345636e-07
4.98938737894e-07
1.04249759615e-06
3.06157904887e-07
1.11135683377e-06
1.59796790055e-07
1.25237026504e-06
1.35816588412e-06
-1.20316007887e-07
7.22475598841e-07
-2.39711961719e-07
9.83568028059e-07
-1.99418522718e-07
8.83379629183e-07
-1.996623131e-07
5.34974164569e-07
-4.03202220071e-07
7.52394819193e-07
-4.91474755361e-07
9.65367843227e-07
-5.61547669132e-07
9.68131103803e-07
-6.28853543595e-07
9.3041086808e-07
-6.32060281582e-07
6.84741640333e-07
-6.41685717244e-07
6.61850225927e-07
-6.40847999602e-07
3.50531905989e-07
-7.12128288163e-07
3.39879640468e-07
-8.05909789604e-07
3.51687844186e-07
-9.70367727483e-07
5.03053379407e-07
-1.13442839688e-06
6.7533483386e-07
-1.16521862985e-06
5.80958804222e-07
-1.19777746663e-06
4.80128886039e-07
-1.29719007351e-06
5.69302572484e-07
-1.39577814262e-06
6.63754668148e-07
-1.46775879303e-06
6.74295776013e-07
-1.5241978747e-06
6.47008420727e-07
-1.56437449446e-06
6.01155491505e-07
-1.59642908019e-06
5.63462892222e-07
-1.62930594284e-06
5.03860695457e-07
-1.65682104811e-06
3.87356889895e-07
-1.67214115434e-06
3.42395872552e-07
-1.71839636648e-06
3.11499369624e-07
-1.7716752241e-06
2.49592437071e-07
-1.81353047775e-06
1.96763946579e-07
-1.83420171762e-06
1.78564583323e-07
-1.8802614418e-06
1.60870696464e-07
-2.00336431281e-06
2.00200263489e-07
-2.0731270436e-06
2.77287818715e-07
-2.11582860915e-06
3.57943144855e-07
-2.14953508463e-06
3.47551735332e-07
-2.1786325173e-06
3.109465112e-07
-2.20369350851e-06
2.74002766221e-07
-2.2247970999e-06
2.39153210885e-07
-2.24371446178e-06
2.02590812623e-07
-2.2610687909e-06
1.59887825808e-07
-2.27595113731e-06
1.10444007969e-07
-2.28680054947e-06
5.71732369043e-08
-2.29191766995e-06
3.26503843951e-09
-2.28986109952e-06
-4.96894191633e-08
-2.27983786674e-06
-1.01666504516e-07
-2.26171409278e-06
-1.53684983386e-07
-2.23566536268e-06
-2.07462531995e-07
-2.20193165704e-06
-2.64756942458e-07
-2.16107671074e-06
-3.26571813255e-07
-2.11420468429e-06
-3.93499929146e-07
-2.06255469267e-06
-4.66819389118e-07
-2.0065630747e-06
-5.49277729109e-07
-1.94482538711e-06
-6.45944431254e-07
-1.87372440658e-06
-7.65130437834e-07
-1.78868078475e-06
-9.18253304579e-07
-1.68535041546e-06
-1.11651146392e-06
-1.55694947946e-06
-1.36719804851e-06
-1.38765109267e-06
-1.67136279694e-06
-1.15856750661e-06
-2.00752955759e-06
-9.28816179581e-07
-2.2113627515e-06
-7.76410265376e-07
-2.16052316043e-06
-6.18499593601e-07
-2.13489456774e-06
-4.12773779377e-07
-2.19278599604e-06
-1.54054852049e-07
-2.23962490965e-06
1.48261893676e-07
-2.17907672366e-06
6.34090592813e-07
-1.87045866488e-06
1.06351875574e-06
-1.52055176226e-06
1.2950369485e-06
-1.11987643505e-06
1.38700539928e-06
-7.23035297229e-07
1.35698982011e-06
-2.80947789573e-07
1.28522152448e-06
1.07204281668e-07
1.18765483317e-06
4.0511583932e-07
1.06664232137e-06
6.36171410572e-07
9.44173482044e-07
8.14422660968e-07
8.38776998432e-07
9.51049817141e-07
7.11901817913e-07
1.07227884705e-06
5.49599941905e-07
1.20435488895e-06
3.38414789944e-07
1.32244952872e-06
1.55827172216e-07
1.43422518428e-06
1.51404022684e-06
-1.4843338596e-07
8.70696332866e-07
-2.53887607846e-07
1.08882292444e-06
-1.83470251141e-07
8.12817115584e-07
-2.51566150891e-07
6.02941780428e-07
-4.3432884718e-07
9.34967741868e-07
-4.48407719645e-07
9.79283357597e-07
-5.12813982999e-07
1.03234466981e-06
-5.19548977935e-07
9.37005933836e-07
-5.70813668076e-07
7.35879622854e-07
-5.47750560823e-07
6.38647911504e-07
-6.20790631479e-07
4.23443643153e-07
-7.12717651407e-07
4.31640145529e-07
-8.20898934598e-07
4.59684343165e-07
-9.76825958196e-07
6.58749925658e-07
-1.06021233328e-06
7.58482019963e-07
-1.06401016406e-06
5.84563811285e-07
-1.15951905756e-06
5.75428337196e-07
-1.27436634944e-06
6.83913080851e-07
-1.36447666559e-06
7.53620797775e-07
-1.44235435737e-06
7.51932693706e-07
-1.50866168323e-06
7.13100361458e-07
-1.56506705023e-06
6.57355868293e-07
-1.5831274256e-06
5.81323657924e-07
-1.58904424831e-06
5.09608254545e-07
-1.65213645914e-06
4.50286432337e-07
-1.66572978065e-06
3.5581095931e-07
-1.63604792952e-06
2.81663306763e-07
-1.64255563891e-06
2.5594334216e-07
-1.70478264724e-06
2.5881272526e-07
-1.80766139212e-06
2.81254848787e-07
-1.89416395057e-06
2.47156634768e-07
-1.97134791903e-06
2.77137823351e-07
-2.07951919621e-06
3.85178648914e-07
-2.12583834219e-06
4.03993058069e-07
-2.15564395974e-06
3.77098013192e-07
-2.18490490846e-06
3.39953975418e-07
-2.2120099123e-06
3.00860523512e-07
-2.23516671349e-06
2.62069038039e-07
-2.2552619643e-06
2.22451703493e-07
-2.27377757777e-06
1.78175710777e-07
-2.29012830977e-06
1.26575063038e-07
-2.30228008875e-06
6.91138205054e-08
-2.30840091501e-06
9.18401680395e-09
-2.30722755671e-06
-5.10562721686e-08
-2.29781017026e-06
-1.1127296592e-07
-2.27938764248e-06
-1.72298625659e-07
-2.25159517451e-06
-2.35455678013e-07
-2.21482833567e-06
-3.01741432134e-07
-2.17036410732e-06
-3.71270945976e-07
-2.12027946e-06
-4.43847897108e-07
-2.06703765831e-06
-5.20341908394e-07
-2.01247384252e-06
-6.04154386903e-07
-1.95647184429e-06
-7.02292628861e-07
-1.89680096663e-06
-8.25206055015e-07
-1.83023106108e-06
-9.85196725887e-07
-1.75314068611e-06
-1.19411714309e-06
-1.65446635678e-06
-1.46630959386e-06
-1.50573617103e-06
-1.82065495589e-06
-1.29482583088e-06
-2.21903116129e-06
-1.14673966865e-06
-2.36017498804e-06
-1.0506711838e-06
-2.2571081233e-06
-8.68145996436e-07
-2.31800138464e-06
-5.92234675024e-07
-2.46895851544e-06
-2.25469321733e-07
-2.60690572545e-06
2.01799687475e-07
-2.60654168912e-06
7.63665035759e-07
-2.43278802309e-06
1.25376781085e-06
-2.01098297084e-06
1.48872604653e-06
-1.35525044933e-06
1.56326546278e-06
-7.97922744263e-07
1.52488970945e-06
-2.42862152174e-07
1.42973566685e-06
2.01801055603e-07
1.28857414653e-06
5.46045873342e-07