/*--------------------------------*- C++ -*----------------------------------*\
| =========                 |                                                 |
| \\      /  F ield         | OpenFOAM: The Open Source CFD Toolbox           |
|  \\    /   O peration     | Version:  v1806                                 |
|   \\  /    A nd           | Web:      www.OpenFOAM.com                      |
|    \\/     M anipulation  |                                                 |
\*---------------------------------------------------------------------------*/
FoamFile
{
    version     2.0;
    format      ascii;
    class       volVectorField;
    location    "558";
    object      U;
}
// * * * * * * * * * * * * * * * * * * * * * * * * * * * * * * * * * * * * * //

dimensions      [0 1 -1 0 0 0 0];


internalField   nonuniform List<vector> 
6400
(
(-0.000102251322398 -0.000134943100976 0)
(-0.000273592086734 -0.000100195225922 0)
(-0.000397905574774 -7.92266515853e-05 0)
(-0.000532295093908 -6.87385743498e-05 0)
(-0.000629911649968 -4.29252889798e-05 0)
(-0.000700180001005 -2.32313130057e-05 0)
(-0.00073764234274 -1.58585251718e-05 0)
(-0.000767921172617 -2.57512560541e-05 0)
(-0.000851422814852 -3.69847207418e-05 0)
(-0.00093411085577 -3.46336272143e-05 0)
(-0.000969819480694 -3.09091551264e-05 0)
(-0.00104464081048 -3.27608683233e-05 0)
(-0.0011114375369 -2.92000313124e-05 0)
(-0.00116490507232 -2.32269588103e-05 0)
(-0.00120393182678 -2.04950807547e-05 0)
(-0.00124469012108 -2.32355913781e-05 0)
(-0.0012954851925 -2.38906766023e-05 0)
(-0.00133864067648 -2.03708102837e-05 0)
(-0.00136954891609 -1.54597609539e-05 0)
(-0.00139799412755 -1.31764737595e-05 0)
(-0.0014354133684 -1.82438552962e-05 0)
(-0.0014820493533 -2.37895367679e-05 0)
(-0.00153149495701 -2.47676739451e-05 0)
(-0.00157596742088 -2.37473396551e-05 0)
(-0.00161736936531 -2.14880967022e-05 0)
(-0.00165658970464 -1.88097317565e-05 0)
(-0.00169522391968 -1.75174042215e-05 0)
(-0.00173022786974 -1.5790365627e-05 0)
(-0.00175934306264 -1.34008175186e-05 0)
(-0.00178330962308 -1.15207371125e-05 0)
(-0.00180251995872 -1.10442292905e-05 0)
(-0.00182247362966 -1.00535797297e-05 0)
(-0.00184248965502 -8.13932346637e-06 0)
(-0.00185857261134 -7.95767387702e-06 0)
(-0.00187341386196 -7.70580017535e-06 0)
(-0.00189333355865 -7.30084498441e-06 0)
(-0.00190987388773 -7.67836180499e-06 0)
(-0.00191420735245 -6.80074939065e-06 0)
(-0.00192800035693 -4.87208753915e-06 0)
(-0.00194716653829 -3.89130004511e-06 0)
(-0.00195804050981 -6.01969884474e-06 0)
(-0.00195868736991 -5.48747491204e-06 0)
(-0.00195657007226 6.34758379906e-07 0)
(-0.00195186999303 5.04560194782e-06 0)
(-0.00194151951182 7.20934080889e-06 0)
(-0.00192662630073 9.64954885219e-06 0)
(-0.00190661426091 1.22409749467e-05 0)
(-0.00188027318423 1.54866493121e-05 0)
(-0.00184765307442 1.86274801915e-05 0)
(-0.00180869776327 1.92853889668e-05 0)
(-0.00176694639153 1.74806848804e-05 0)
(-0.00172983929419 2.02626677741e-05 0)
(-0.00167847805165 3.21723801157e-05 0)
(-0.00161741685949 3.94256690065e-05 0)
(-0.00153670833208 4.56558486727e-05 0)
(-0.00142467650785 5.53172580402e-05 0)
(-0.00130676256254 5.564123384e-05 0)
(-0.00120413867332 5.42406529834e-05 0)
(-0.0011000009421 6.27012046773e-05 0)
(-0.000950671435256 6.92247745257e-05 0)
(-0.000804304305039 6.98989707295e-05 0)
(-0.000640252324723 8.78239305431e-05 0)
(-0.000485361592165 0.000131199817206 0)
(-0.000179173156647 0.000113358251941 0)
(8.90172799426e-06 6.65234882073e-05 0)
(0.000102786410431 4.37236254669e-05 0)
(0.000168270369889 3.20185112988e-05 0)
(0.000223653602663 2.45695627737e-05 0)
(0.00027214201441 1.84424828693e-05 0)
(0.000303918831059 1.09934652743e-05 0)
(0.000320484467049 2.86497680079e-06 0)
(0.000313537149411 -5.21344562158e-06 0)
(0.000289702954539 -1.2955480711e-05 0)
(0.000270182444999 -2.10197223483e-05 0)
(0.000209599434387 -2.01121769117e-05 0)
(0.000186248472214 -1.96376833706e-05 0)
(0.000124071481348 -1.27997485757e-05 0)
(0.000128386594805 -1.83624430155e-05 0)
(5.52259751471e-05 -1.31908002575e-05 0)
(4.10392803733e-05 -2.47009185901e-05 0)
(-3.86558000044e-05 -0.000190033264343 0)
(-0.000164183694677 -0.000211420048394 0)
(-0.000285616540153 -0.000189461055266 0)
(-0.000364220034142 -0.000151548959849 0)
(-0.00052404822859 -0.000147386343349 0)
(-0.000666821106245 -0.000103908156042 0)
(-0.000749744068787 -6.63052764444e-05 0)
(-0.000806759447982 -8.4010538097e-05 0)
(-0.000867362229212 -0.000107085345065 0)
(-0.000934807800879 -0.000104124244893 0)
(-0.000998478060986 -9.65537054856e-05 0)
(-0.00105664197846 -9.31114184546e-05 0)
(-0.00111055995239 -8.23602166288e-05 0)
(-0.00115867006133 -6.90588825509e-05 0)
(-0.00120552570287 -6.3013469487e-05 0)
(-0.00125038420439 -7.37312898048e-05 0)
(-0.0012960765056 -7.713416537e-05 0)
(-0.00133316033582 -5.52698325382e-05 0)
(-0.00133483878127 -3.91902380157e-05 0)
(-0.00137102413529 -4.04050998285e-05 0)
(-0.00142011102907 -5.7140635058e-05 0)
(-0.00147393821397 -7.65825738929e-05 0)
(-0.00153273566566 -7.89300095998e-05 0)
(-0.00158167067267 -6.95428141099e-05 0)
(-0.00161172194904 -6.2275740593e-05 0)
(-0.0016567171505 -5.83841788728e-05 0)
(-0.00169793536172 -5.32375048429e-05 0)
(-0.00173042269751 -4.6572513368e-05 0)
(-0.00175828345267 -4.00708665831e-05 0)
(-0.00178321213073 -3.48873451928e-05 0)
(-0.00180449397172 -3.22110175389e-05 0)
(-0.00181772184366 -2.87580276343e-05 0)
(-0.00183747028683 -2.2849589825e-05 0)
(-0.0018522320742 -2.32856751961e-05 0)
(-0.00186412998106 -2.5310383927e-05 0)
(-0.00189197351572 -2.19208481891e-05 0)
(-0.00190415764372 -2.20931860714e-05 0)
(-0.00190896613876 -2.28552425843e-05 0)
(-0.00192818014549 -1.91287398097e-05 0)
(-0.00195703395976 -1.30669526771e-05 0)
(-0.00196976517599 -4.2637975708e-06 0)
(-0.00192408965025 3.90127191604e-06 0)
(-0.00189934588351 8.81486137378e-06 0)
(-0.00189981981852 1.24578928094e-05 0)
(-0.00189305101052 1.66946832044e-05 0)
(-0.00188615650847 2.24496514353e-05 0)
(-0.0018765864251 3.00720203746e-05 0)
(-0.00185764187774 3.90825482693e-05 0)
(-0.00183758223508 4.8944789067e-05 0)
(-0.00180845328353 5.82220098549e-05 0)
(-0.00176137795348 6.52817522863e-05 0)
(-0.00168802060042 7.1828436775e-05 0)
(-0.00161920127451 8.15880341108e-05 0)
(-0.00161697809321 0.000103387189565 0)
(-0.00152658244598 0.000130673853458 0)
(-0.00143091224189 0.000151036877465 0)
(-0.00135742263888 0.000160490924079 0)
(-0.00125469636647 0.00016915612456 0)
(-0.00113313724159 0.000190878731019 0)
(-0.00100203299674 0.000218792750446 0)
(-0.000857474598227 0.000250021984663 0)
(-0.000612471410348 0.000270494198582 0)
(-0.000460503260387 0.000380337512134 0)
(-0.00017994397818 0.000345707327257 0)
(2.85350766068e-06 0.00021935474253 0)
(9.93409247127e-05 0.00012904030641 0)
(0.000163548498163 9.11624781208e-05 0)
(0.000230169191448 7.6974758456e-05 0)
(0.000280200323888 5.82991780793e-05 0)
(0.000316789433687 3.39682466845e-05 0)
(0.000327384515614 5.10141632075e-06 0)
(0.000314809573 -2.1342667236e-05 0)
(0.000280882770789 -3.69294898033e-05 0)
(0.000266440460401 -5.10550201806e-05 0)
(0.000234082516203 -5.74175460172e-05 0)
(0.000200571038504 -5.8105743632e-05 0)
(0.000163754749577 -5.22139007076e-05 0)
(0.000128902508862 -5.55268039623e-05 0)
(7.94454071521e-05 -5.96244983567e-05 0)
(3.66841205124e-05 -9.71218823122e-05 0)
(-5.7143126886e-05 -0.00032807707367 0)
(-0.000158220930624 -0.000353879749435 0)
(-0.000244649916992 -0.000325884721553 -9.14454465848e-29)
(-0.000410436475189 -0.000325665530931 8.49167170525e-29)
(-0.000563059600725 -0.000317487524724 7.48838593439e-29)
(-0.000659849903566 -0.000254016046787 -6.82906238177e-29)
(-0.000728934589004 -0.000136914160615 6.85747972193e-29)
(-0.000788515893851 -0.000143773011728 -6.65570562275e-29)
(-0.000851767282637 -0.000174035462872 0)
(-0.000923442520528 -0.000175746296467 0)
(-0.00099319360143 -0.000163569450455 0)
(-0.00105423987493 -0.000148497570864 0)
(-0.00110823967435 -0.000130780855375 0)
(-0.00115505685016 -0.000117512859214 0)
(-0.00120255286339 -0.000109710986739 0)
(-0.00124748701377 -9.72010043543e-05 0)
(-0.00116574710581 -7.3131420861e-05 0)
(-0.0011421812393 -5.844265959e-05 0)
(-0.00118293329522 -6.9115696649e-05 0)
(-0.00126281760343 -0.000103481404065 0)
(-0.00141219951712 -0.000136504411497 0)
(-0.00149090486714 -0.000141538054735 0)
(-0.0015222324707 -0.000129492798643 0)
(-0.00157131792957 -0.000115570212505 0)
(-0.00162098868841 -0.000105598220418 0)
(-0.00165962330362 -9.78817154077e-05 0)
(-0.00169459065333 -8.75030995781e-05 0)
(-0.00172749462727 -7.64588169655e-05 0)
(-0.00175606094488 -6.65188810264e-05 0)
(-0.00177962950693 -5.85628188369e-05 -1.27637416326e-28)
(-0.0018035465929 -5.15631211612e-05 1.23583041044e-28)
(-0.00181108175151 -4.53514993141e-05 0)
(-0.00182813895796 -3.83961461941e-05 0)
(-0.00185746688858 -3.3527770374e-05 0)
(-0.00184379765087 -3.98050661283e-05 0)
(-0.00187250506877 -4.26575226068e-05 0)
(-0.0019101752064 -3.6835485212e-05 0)
(-0.00189835859334 -3.74125797994e-05 0)
(-0.00192150913959 -3.94958301937e-05 0)
(-0.00195452732313 -2.81458759972e-05 0)
(-0.00196925264975 -3.09720567787e-06 0)
(-0.00196725785833 1.55551118e-05 0)
(-0.00196194987875 1.88013762277e-05 0)
(-0.00195594726244 2.06407025588e-05 0)
(-0.00194556618167 2.6838136366e-05 0)
(-0.00193042230481 3.58722068886e-05 0)
(-0.00191071289466 4.80095036896e-05 0)
(-0.00188620916875 6.19864837961e-05 0)
(-0.00185686861693 7.77950360826e-05 0)
(-0.00182206543656 9.65239674932e-05 0)
(-0.001781027471 0.000116102081404 0)
(-0.00173312790872 0.000130956680836 0)
(-0.00167761534215 0.000141175364624 0)
(-0.00160365997889 0.000168498997482 0)
(-0.00151363909335 0.000205758462977 0)
(-0.00144128858682 0.000233399586344 0)
(-0.00135305693807 0.000256691429621 0)
(-0.00124175085016 0.00028513432661 0)
(-0.00111344671562 0.000321285266682 0)
(-0.000969613007066 0.000367483911346 0)
(-0.000801825568856 0.00042956905369 0)
(-0.000615749055306 0.000513796124436 0)
(-0.000421301872983 0.000628984648751 0)
(-0.000179767836382 0.000529156313713 0)
(-3.71982489087e-06 0.000326003365205 0)
(0.000105762428702 0.000221056851571 0)
(0.000189271992992 0.000169150937107 0)
(0.000249179974885 0.00013123356475 0)
(0.000293263315797 9.32369990607e-05 0)
(0.000320093307153 4.91335503474e-05 0)
(0.000324919417776 3.89144200376e-06 0)
(0.00031590575816 -3.21262163609e-05 0)
(0.000308587445504 -5.75870161004e-05 0)
(0.000287993877066 -8.20134935457e-05 0)
(0.000246588807425 -9.84823185315e-05 0)
(0.000200365318218 -9.99014726111e-05 0)
(0.000156146160618 -9.39275715537e-05 0)
(0.000118772088175 -0.000103107852294 0)
(8.13295800874e-05 -0.000134616025997 0)
(2.09318159261e-05 -0.000133753352988 0)
(-5.71390843516e-05 -0.000485771987729 0)
(-7.74857813548e-05 -0.00033377790731 0)
(-0.000200431938013 -0.00048945303157 0)
(-0.000355116450352 -0.000483517422684 0)
(-0.000490647819573 -0.000409642144493 0)
(-0.000295244031504 -0.000164972398484 0)
(-0.000373048689896 -0.000165086184647 0)
(-0.000674116710398 -0.00028349499116 0)
(-0.000806994703762 -0.000288844166261 0)
(-0.000898007023985 -0.000260717807289 0)
(-0.000980490106107 -0.000237230640787 0)
(-0.00104927698005 -0.000210580688074 0)
(-0.00110699672585 -0.000183140126155 0)
(-0.00114662296244 -0.000146200016433 0)
(-0.00110465064479 -9.94595222826e-05 0)
(-0.00106216101454 -6.86822741446e-05 0)
(-0.00106819686608 -6.69329416829e-05 0)
(-0.00113360665258 -0.000104167320482 0)
(-0.00126885627812 -0.000163055084158 0)
(-0.00139008628813 -0.000213174476412 0)
(-0.00143454655583 -0.000217616818421 0)
(-0.00148140657315 -0.000197089088032 0)
(-0.0015325491526 -0.000178218385551 0)
(-0.00157759973345 -0.00016332295127 0)
(-0.00161816597631 -0.000148483085534 0)
(-0.00165506970829 -0.000134062979275 0)
(-0.00168883616788 -0.000120441023013 0)
(-0.00172449114411 -0.000106632778969 0)
(-0.00175009472795 -9.31460582919e-05 0)
(-0.00177989956611 -8.14497626114e-05 0)
(-0.0017912661896 -7.09951838217e-05 0)
(-0.00181681506645 -6.02033579544e-05 0)
(-0.00181137753756 -4.87462157027e-05 0)
(-0.00183268430851 -4.77857097255e-05 0)
(-0.00187249090699 -5.53703203509e-05 0)
(-0.00186495601068 -6.29813760173e-05 0)
(-0.00190103560055 -6.19963124228e-05 0)
(-0.00193693043824 -5.88200804853e-05 0)
(-0.00195049656943 -5.6221001935e-05 0)
(-0.00195999260947 -3.97929498061e-05 0)
(-0.0019673087955 -1.23489915982e-05 0)
(-0.00196895601786 1.03355735527e-05 0)
(-0.00196642626686 2.19842533207e-05 0)
(-0.00196053876339 3.0100949985e-05 0)
(-0.00195006457177 4.05145130639e-05 0)
(-0.00193490111364 5.40215648901e-05 1.1280993984e-28)
(-0.001915160599 7.04249676751e-05 -1.13593546702e-28)
(-0.00189065489614 8.91958477354e-05 0)
(-0.00186114691925 0.00011032890232 0)
(-0.00182609043582 0.000133789020635 0)
(-0.00178453758136 0.000158056748207 0)
(-0.00173489879678 0.000181902113688 0)
(-0.00167538424509 0.000209473956748 0)
(-0.00160412110897 0.000246637069906 0)
(-0.001524258504 0.00028517776289 0)
(-0.00143809251587 0.00032177530105 0)
(-0.00133842472542 0.000363420869782 0)
(-0.00121903592735 0.000411643580826 2.24198593231e-28)
(-0.00107891618434 0.00046865877847 -2.6236683016e-28)
(-0.000916925063443 0.000538630973401 0)
(-0.000731627120213 0.000622656883133 0)
(-0.000533454295288 0.000715791877151 0)
(-0.000357457515269 0.000777240916523 0)
(-0.000189368903552 0.000708372509069 0)
(-2.18065692261e-06 0.000513115410511 0)
(0.000127875092443 0.000321591426362 0)
(0.000209700303348 0.000233775200206 0)
(0.000275154992695 0.000181092025775 0)
(0.00032239260159 0.000126990571463 0)
(0.000357048792608 6.66856237764e-05 0)
(0.000370375858737 6.00892964702e-06 0)
(0.000364172044019 -4.47315340616e-05 0)
(0.000333327225991 -8.96855169692e-05 0)
(0.000271672324884 -0.000121901261015 0)
(0.000221694871262 -0.000141335875442 0)
(0.000175050856741 -0.000150573857472 0)
(0.000124354429362 -0.000142658668025 0)
(7.11020444566e-05 -0.000118720514402 0)
(5.09436108286e-05 -0.000151511504143 0)
(1.70377349711e-05 -0.000174722038276 0)
(-7.93764470492e-06 -0.000491627855461 0)
(-4.16019417665e-05 -0.000406169295093 0)
(-0.00017999162776 -0.000637105430495 0)
(-0.000304314118717 -0.000587968664266 0)
(-0.000338424546102 -0.000394610036668 0)
(-0.000273914794241 -0.000222061596319 0)
(-0.000459494003933 -0.000352815422588 0)
(-0.000671397711445 -0.000467820533849 0)
(-0.000760085727883 -0.000412206928524 0)
(-0.000864153609095 -0.000357815116909 0)
(-0.000954797617066 -0.000325127885614 0)
(-0.00103141465175 -0.000282066881031 0)
(-0.00104985651599 -0.000201476585187 0)
(-0.000983529138818 -0.000118336204202 0)
(-0.00100504783561 -8.81018930898e-05 0)
(-0.00106380950356 -0.000100294451106 0)
(-0.00116026914848 -0.000147830845557 0)
(-0.00127371488659 -0.00021494923266 0)
(-0.00135217479777 -0.000259998620794 0)
(-0.00138073229184 -0.000264708511824 0)
(-0.00142790242229 -0.000259898965947 0)
(-0.0014836846728 -0.000248491386501 0)
(-0.00153052830736 -0.000228433214037 0)
(-0.00157428884193 -0.000206896264109 0)
(-0.00161369197391 -0.000187243757508 0)
(-0.00164865981752 -0.000170407606091 0)
(-0.00168715893329 -0.000153743443126 0)
(-0.00171271577346 -0.000136574041771 0)
(-0.00175086845333 -0.000119753434423 0)
(-0.00176159548541 -0.000102826585153 0)
(-0.00179746604896 -8.84141109294e-05 -1.22442353796e-28)
(-0.0017772879582 -7.41060631875e-05 1.16243951648e-28)
(-0.00181979188988 -6.79366255894e-05 0)
(-0.00185677130047 -6.702223243e-05 0)
(-0.00185655629284 -7.54785514176e-05 0)
(-0.00190037370057 -8.83890074958e-05 0)
(-0.00192510550137 -9.20083528311e-05 0)
(-0.00194291931708 -8.15736813306e-05 0)
(-0.00195504853468 -6.57439800027e-05 0)
(-0.00196361896224 -4.4508654036e-05 0)
(-0.00197027192354 -1.78155680879e-05 0)
(-0.00197333356067 6.67533190888e-06 0)
(-0.00197213366328 2.42377374206e-05 0)
(-0.00196660124828 3.84414567158e-05 0)
(-0.00195631773037 5.37481042496e-05 0)
(-0.00194134141282 7.17489040942e-05 0)
(-0.0019217186835 9.26407378414e-05 0)
(-0.00189723753121 0.000116257815143 0)
(-0.00186750663802 0.000142660505037 0)
(-0.00183187132565 0.000171854964876 0)
(-0.00178927163015 0.000203340867769 0)
(-0.00173810047571 0.000237286664222 0)
(-0.00167670528421 0.000275999576385 0)
(-0.00160419975334 0.000320868881389 0)
(-0.00152165218992 0.000368911633537 0)
(-0.00142825237531 0.00042105218555 0)
(-0.00131809784739 0.000481666358787 0)
(-0.00118549428872 0.00055252052899 0)
(-0.00102807803457 0.000634652725489 0)
(-0.00084681534565 0.000727526489476 0)
(-0.000649819059526 0.000822515105897 0)
(-0.000460030302019 0.000898891206468 0)
(-0.000306627596941 0.000916350159573 0)
(-0.00016087121075 0.000877249570531 0)
(2.46062560597e-05 0.000697622812466 0)
(0.000160402418995 0.000454338679571 0)
(0.000252009948701 0.000321159556021 0)
(0.000320472322894 0.000238590544392 0)
(0.00036862069107 0.000164003148584 0)
(0.000404794767639 8.70847252517e-05 0)
(0.000424709823752 5.5232713083e-06 0)
(0.000399381682094 -7.87137797087e-05 0)
(0.00032310238679 -0.000140816366775 0)
(0.000262485178142 -0.000178737569074 0)
(0.000205776447477 -0.000201379092463 0)
(0.000149114176219 -0.000207960652993 0)
(9.53314846074e-05 -0.000178810376466 0)
(5.87221774334e-05 -0.000154637354543 0)
(3.63334137118e-05 -0.000190456159387 0)
(9.20965021921e-06 -0.000195788412557 0)
(-3.32603527272e-07 -0.000462208233104 0)
(-4.94017811664e-05 -0.000492990491957 0)
(-0.000180330705027 -0.000728805296131 0)
(-0.000256766555087 -0.000615847655743 0)
(-0.000201785387907 -0.000315236817151 0)
(-0.000277059057063 -0.000320460412568 0)
(-0.0005561844489 -0.000561146596138 0)
(-0.000642947423716 -0.000570233171419 0)
(-0.000726499150314 -0.000511966214157 0)
(-0.000823726952221 -0.000459044083907 0)
(-0.000916925723482 -0.000394567259035 0)
(-0.000878240998465 -0.000276480784876 0)
(-0.000815779589957 -0.000162903015588 0)
(-0.000877170492874 -0.000134759236154 0)
(-0.000954051431436 -0.000152850382876 0)
(-0.00108759951111 -0.000207110477723 0)
(-0.00121612158828 -0.000264768652551 0)
(-0.00129859879111 -0.000293221375123 0)
(-0.00131629333405 -0.000293193767546 0)
(-0.00137093110769 -0.000306108962142 0)
(-0.00143309679216 -0.000313399957311 0)
(-0.00148042853329 -0.000298711520213 0)
(-0.00152495418047 -0.000274926169059 0)
(-0.00156641831655 -0.000250391216054 0)
(-0.00161108167891 -0.000227533736973 0)
(-0.00164620446126 -0.000203903701656 0)
(-0.00166438610019 -0.000185157096535 0)
(-0.00171635674859 -0.000167712692357 0)
(-0.00171873583211 -0.000143533567502 0)
(-0.00177162062944 -0.000121232204504 0)
(-0.00173661231358 -9.88226027322e-05 0)
(-0.00179696514596 -9.47953246697e-05 0)
(-0.00177264343083 -9.13636587219e-05 0)
(-0.00183631515288 -9.71029073799e-05 0)
(-0.00189116595968 -0.000109760188516 0)
(-0.00191694873601 -0.000119130424154 0)
(-0.00193410559583 -0.000111971711174 0)
(-0.0019483451902 -9.56710432871e-05 0)
(-0.0019596858243 -7.52278567968e-05 0)
(-0.00196865822991 -5.10034965417e-05 0)
(-0.00197544727257 -2.3462799354e-05 0)
(-0.00197914738843 3.2268188751e-06 0)
(-0.00197878602726 2.58589492421e-05 0)
(-0.00197378863642 4.59166884552e-05 0)
(-0.00196396192745 6.64461011664e-05 0)
(-0.00194935474432 8.92010440736e-05 0)
(-0.00192999100657 0.000114792924594 0)
(-0.0019055699118 0.000143428796449 0)
(-0.00187553716435 0.000175377286081 0)
(-0.00183913717231 0.000210909628074 0)
(-0.00179527853947 0.000250224600032 0)
(-0.00174245313234 0.000293966969803 0)
(-0.00167913562152 0.000343381713617 0)
(-0.00160426578365 0.000398915805457 0)
(-0.00151697922861 0.000460486027667 0)
(-0.00141430923863 0.000531018768076 0)
(-0.00129053958381 0.00061431674128 0)
(-0.00114118912857 0.000710929520967 0)
(-0.000966603299734 0.000817491215507 0)
(-0.000773227214048 0.000923490871783 0)
(-0.000578524135381 0.00101077480782 0)
(-0.000405363201722 0.00105082283835 0)
(-0.000247517159595 0.0010073309478 0)
(-0.000117475834842 0.00106028650811 0)
(5.78957590037e-05 0.000834350664796 0)
(0.000187044602064 0.000564934143409 0)
(0.000292774826133 0.000408746308422 0)
(0.000379316908501 0.000301549209828 0)
(0.000437066478728 0.000205448701768 0)
(0.000487544908611 0.000108328002294 0)
(0.000495693302452 -1.81059133776e-05 0)
(0.000413542695847 -0.000137295584097 0)
(0.000328679715574 -0.000207852628604 0)
(0.000260885470222 -0.000250570532657 0)
(0.000186400136796 -0.000269536270383 0)
(0.000126184024905 -0.000263688664884 0)
(7.48950825546e-05 -0.000210208969317 0)
(4.40830126561e-05 -0.000184169412415 0)
(2.44344972973e-05 -0.000214009711278 0)
(6.65932276957e-06 -0.000210651286399 0)
(-1.76085614038e-05 -0.000503044938694 0)
(-0.000105735848385 -0.000637319011157 0)
(-0.000229788571404 -0.000796393876743 0)
(-0.000266738195023 -0.000744870205349 0)
(-0.000192924359005 -0.000398143337656 0)
(-0.000389098505119 -0.000556126167046 0)
(-0.000564154552379 -0.000682282230274 0)
(-0.00061885397467 -0.000646628027833 0)
(-0.000699385391812 -0.00059226977337 0)
(-0.000758263803142 -0.000534663324463 0)
(-0.000881507950421 -0.000442380748395 3.1313594446e-28)
(-0.000716040505415 -0.000230073229567 -1.97242194001e-28)
(-0.000808722978878 -0.000200622144456 0)
(-0.000861532862396 -0.000210581407178 0)
(-0.000988595807795 -0.000268336066535 0)
(-0.0011370854006 -0.000342188228286 0)
(-0.00122845423279 -0.000358334564115 0)
(-0.00123211564255 -0.000328701001455 0)
(-0.00129789492499 -0.000340110187254 0)
(-0.00137711154435 -0.000367063322291 0)
(-0.00142427724857 -0.00036589408554 0)
(-0.00147333660938 -0.000346501391102 0)
(-0.00152025049016 -0.000321119295311 0)
(-0.00156387996675 -0.000292690523237 0)
(-0.00159630484044 -0.00026215055037 0)
(-0.00162046281323 -0.000233006441561 0)
(-0.00167063481323 -0.000214311457678 0)
(-0.0016614977929 -0.00019419306327 0)
(-0.0017335834544 -0.000168914108241 0)
(-0.00169195044141 -0.000127998710545 0)
(-0.00176426837259 -0.000118982936283 0)
(-0.00174313111581 -0.000119147165034 1.14105249354e-28)
(-0.00180808464928 -0.000124537453104 -1.16575318341e-28)
(-0.00184443028118 -0.000141898926393 0)
(-0.0019045693784 -0.000152255632578 0)
(-0.00192625898658 -0.000144170214365 0)
(-0.00194037462318 -0.00012816200287 0)
(-0.00195353235889 -0.000108171440471 0)
(-0.00196547388705 -8.4953951043e-05 0)
(-0.00197521466378 -5.84725535921e-05 0)
(-0.00198235417473 -2.93393011508e-05 0)
(-0.00198651714493 -9.0264525049e-08 0)
(-0.00198677637632 2.70839857e-05 0)
(-0.00198238850869 5.26220533432e-05 0)
(-0.00197313877928 7.84598418841e-05 0)
(-0.00195905018244 0.000106205175441 0)
(-0.00194003664071 0.000136770035707 0)
(-0.00191566239122 0.000170728765007 0)
(-0.00188525838113 0.000208625384821 0)
(-0.00184803078753 0.000251040116562 0)
(-0.00180290520884 0.000298628300294 0)
(-0.00174841488161 0.000352275347524 0)
(-0.00168289901452 0.000413025165872 0)
(-0.00160453448063 0.000481908897249 0)
(-0.00151072250239 0.000560953610001 0)
(-0.00139706856998 0.000653964464748 0)
(-0.00125836195703 0.000763136885942 0)
(-0.00109254575037 0.000884932052884 0)
(-0.000904693874152 0.00100834303065 0)
(-0.000708260017944 0.00111632701432 0)
(-0.000521056964016 0.00118540413653 0)
(-0.000358924602338 0.00120110257755 0)
(-0.000214048342359 0.00120137932108 0)
(-9.37079208174e-05 0.00117865034977 0)
(6.74940549952e-05 0.000973655424506 0)
(0.000220524242509 0.000675531554618 0)
(0.000360866735625 0.000528047012669 0)
(0.000480642819838 0.000400069562848 0)
(0.000559953658059 0.000266745740739 0)
(0.00060040833507 0.000110652935385 0)
(0.000556113192637 -7.76372688661e-05 0)
(0.000443037583824 -0.000216897673478 0)
(0.000353013043795 -0.000299155193986 0)
(0.000254797277473 -0.000340283276065 0)
(0.000164795625559 -0.000347784933418 0)
(9.74227397518e-05 -0.000305298774753 0)
(5.50187706035e-05 -0.000250876960752 0)
(2.25070986651e-05 -0.000209925861004 0)
(8.16280020492e-06 -0.000225900220804 0)
(2.80843933102e-06 -0.00022418017355 0)
(-3.5233504959e-05 -0.000586203346758 0)
(-0.000146546747355 -0.000771969390405 0)
(-0.000254547752375 -0.000833567980744 0)
(-0.000176145682335 -0.000524677156285 0)
(-0.000203780289169 -0.000496054606375 0)
(-0.000442293159113 -0.000754729822456 0)
(-0.000524195871122 -0.000758758705406 0)
(-0.000599296551349 -0.000722440696506 0)
(-0.000652465169503 -0.00065219355958 0)
(-0.000734984713428 -0.000589588924683 0)
(-0.000624216315941 -0.000359132885542 0)
(-0.000708235085837 -0.000275062712477 0)
(-0.000789994850994 -0.000270369306415 0)
(-0.000860702966504 -0.000305919997781 0)
(-0.00104269751041 -0.000405031103172 0)
(-0.00115112350641 -0.000439989686101 0)
(-0.00114594186319 -0.000391852132676 0)
(-0.00120543132754 -0.00038116308138 0)
(-0.00130422940386 -0.000414255831112 0)
(-0.00136805070817 -0.00042710455497 0)
(-0.00141287679695 -0.0004148669804 0)
(-0.00145818079094 -0.000393200042714 0)
(-0.00150925682346 -0.000369168042941 0)
(-0.00155258380974 -0.000336909773423 0)
(-0.00159997315958 -0.000295049727731 0)
(-0.0016040161508 -0.000265545345955 0)
(-0.00166952328413 -0.000242255765464 0)
(-0.00167315603779 -0.0002127252271 0)
(-0.00166518509475 -0.000182387861154 0)
(-0.00170126445715 -0.000160692791173 0)
(-0.00178546537735 -0.00015207653652 0)
(-0.00177379982798 -0.000142793670647 0)
(-0.00179293327462 -0.000166232351988 0)
(-0.00188363406145 -0.000190292177653 0)
(-0.0019100261571 -0.000187169487125 0)
(-0.001929825073 -0.000166440855214 0)
(-0.00194595303199 -0.000143906864203 0)
(-0.00195977780134 -0.000120910156691 0)
(-0.00197237941545 -9.55256631918e-05 0)
(-0.00198299201859 -6.69021663003e-05 0)
(-0.00199077155221 -3.56424308393e-05 0)
(-0.00199539321632 -3.52322163419e-06 0)
(-0.00199624107279 2.79077468046e-05 0)
(-0.00199256436326 5.8610467179e-05 0)
(-0.00198402646123 8.97457752654e-05 1.09327347507e-28)
(-0.00197056613574 0.00012268124519 -1.09048170218e-28)
(-0.00195195300104 0.000158533287482 0)
(-0.00192761708164 0.000198188585238 0)
(-0.0018968302836 0.000242446504561 0)
(-0.00185881846614 0.000292165589043 0)
(-0.00181253249062 0.000348386592645 0)
(-0.00175646283867 0.000412408910269 0)
(-0.00168861232037 0.000485859952711 0)
(-0.001606189641 0.000571013889808 0)
(-0.00150511204658 0.000671299939162 0)
(-0.00138020375998 0.000790025706626 0)
(-0.00122750302431 0.000925963590859 0)
(-0.00104789225783 0.00107013425314 0)
(-0.000849954498358 0.00120525375842 0)
(-0.000647597707525 0.00131068801522 0)
(-0.000457463934902 0.00136183310308 0)
(-0.00029656359948 0.00135658128157 0)
(-0.000168533800912 0.00132137027703 0)
(-7.24928367334e-05 0.00126959637852 0)
(6.01476270222e-05 0.00122566112845 0)
(0.00025461482365 0.000838475714894 0)
(0.00043892950136 0.000671106789071 0)
(0.000600675893059 0.000514940534502 0)
(0.000691904344193 0.000316676050147 0)
(0.000710701294729 7.92357321647e-05 0)
(0.000628581701779 -0.000163225584323 0)
(0.000502380346217 -0.000326649116754 0)
(0.000377019244478 -0.000421335892716 0)
(0.000241132383412 -0.00045480743787 0)
(0.000131603820334 -0.000432016859953 0)
(5.81866533344e-05 -0.000355158045649 0)
(1.67208262732e-05 -0.000290267239906 0)
(-9.45521082538e-06 -0.000235772438647 0)
(-1.62110497564e-05 -0.000227159544877 0)
(-6.16131447582e-06 -0.000226172186028 0)
(-4.86206322678e-05 -0.000689813628874 0)
(-0.000164558183386 -0.000880173719433 0)
(-0.000218657457871 -0.000865158391757 0)
(-0.000170330901879 -0.000575568833482 0)
(-0.000274956513376 -0.00065055828446 0)
(-0.000450957607175 -0.000854219715991 0)
(-0.00048857813938 -0.000830325878208 0)
(-0.00058151744663 -0.000794053608118 0)
(-0.000574207454108 -0.000665421426417 0)
(-0.000738600179215 -0.000662340448132 0)
(-0.00060585600783 -0.000397148668409 0)
(-0.000713282825328 -0.000354044080785 0)
(-0.000780804325168 -0.000355075759327 0)
(-0.000911595146114 -0.000436460105817 0)
(-0.00105717582823 -0.000525702280686 0)
(-0.00113285945439 -0.000504785230721 0)
(-0.00112660544692 -0.000439002587962 0)
(-0.00120891334458 -0.000455668061552 0)
(-0.00129293493397 -0.000485910849423 0)
(-0.00135156803674 -0.000484389582018 0)
(-0.00140436677779 -0.000464688196644 0)
(-0.00144564282262 -0.000437435098492 0)
(-0.00149345262175 -0.000411319419065 0)
(-0.00151943971669 -0.000377296471538 0)
(-0.00154557776472 -0.000323661798257 0)
(-0.00161832698877 -0.000295410657461 0)
(-0.00157905553071 -0.000267165713561 0)
(-0.0016993866953 -0.000241327619655 0)
(-0.00165422304477 -0.000210580149442 0)
(-0.00175718347285 -0.000204471407564 0)
(-0.00171524042922 -0.000180032295423 0)
(-0.00181686119393 -0.000183479615566 0)
(-0.00185639622091 -0.000211102466062 1.22497283087e-28)
(-0.00188937364082 -0.000228441183813 -1.23018646355e-28)
(-0.00191347932781 -0.000213042915512 0)
(-0.00193395598315 -0.000187260355891 0)
(-0.00195200047957 -0.000160900275676 0)
(-0.00196712377217 -0.000134815375567 0)
(-0.00198040659431 -0.000107077161177 0)
(-0.00199175518169 -7.62752068473e-05 0)
(-0.0020003901671 -4.25895948425e-05 0)
(-0.00200575450022 -7.34889368294e-06 0)
(-0.00200729880212 2.82098587526e-05 0)
(-0.00200442962714 6.38400385321e-05 0)
(-0.00199677634146 0.000100247416986 0)
(-0.00198406770939 0.000138578865803 0)
(-0.00196589062815 0.000180052270054 0)
(-0.00194161233834 0.000225784501332 0)
(-0.00191051975587 0.000276777204984 0)
(-0.00187188007314 0.000334127092334 0)
(-0.00182469473146 0.000399304207093 0)
(-0.0017674192856 0.000474338967158 0)
(-0.00169767991623 0.000562021446263 0)
(-0.001611725721 0.000666098935817 0)
(-0.00150427029207 0.000790613908793 0)
(-0.00136974012522 0.000936957645905 0)
(-0.00120547011766 0.00109934256649 0)
(-0.0010130571498 0.00126582060672 0)
(-0.000800612507099 0.00141499018047 0)
(-0.000581685946716 0.00152099313083 0)
(-0.000380546861543 0.00154701245209 0)
(-0.000224549392625 0.00149482391036 0)
(-0.000115393563878 0.00142193764723 0)
(-2.39542757184e-05 0.00136959618653 0)
(7.2338715671e-05 0.00132634903819 0)
(0.000283325455147 0.00114526607284 0)
(0.000516145742794 0.000803806774503 0)
(0.000756360624243 0.00066817961892 0)