/*--------------------------------*- C++ -*----------------------------------*\
| =========                 |                                                 |
| \\      /  F ield         | OpenFOAM: The Open Source CFD Toolbox           |
|  \\    /   O peration     | Version:  v1806                                 |
|   \\  /    A nd           | Web:      www.OpenFOAM.com                      |
|    \\/     M anipulation  |                                                 |
\*---------------------------------------------------------------------------*/
FoamFile
{
    version     2.0;
    format      ascii;
    class       volScalarField;
    location    "81";
    object      alphak;
}
// * * * * * * * * * * * * * * * * * * * * * * * * * * * * * * * * * * * * * //

dimensions      [0 0 -1 0 0 0 0];


internalField   nonuniform List<scalar> 
6400
(
0.81227582529
1.18600506749
1.78881133931
1.95850979327
2.14512644376
2.39452955294
2.94301581782
3.60651761835
3.5896836534
3.72135603758
4.8153470086
5.10803632757
5.28524240411
5.62422816827
6.29626691075
6.96960219532
7.35904423181
7.76628868207
8.19351127755
8.36784400854
8.20204998522
7.98343226733
7.97669727982
8.30823742731
8.72334169665
9.04068430726
9.14294214561
9.20015919751
9.39153662818
9.72217944818
10.1482464991
10.3092009791
10.1830745151
10.0033487262
9.7592310575
9.2322906523
8.86271858128
9.20873316937
8.84237703735
8.01915230839
7.53718159749
7.62852366725
7.82886489405
7.90087244118
7.90927243143
7.83001640231
7.76642004297
7.80444908756
7.92000661044
8.04052253023
7.95967825903
6.71910326603
6.13173846243
5.60155460314
5.79466850688
7.22019270173
7.849947461
6.95996110483
5.60429550841
5.50557389003
4.89361663036
4.15600688996
3.35453997098
5.35429230528
9.52890497562
14.5184723411
17.5371795882
17.2604202301
15.2558605449
13.5531000043
12.5659226343
12.6128923035
13.0142455143
12.8056071653
14.7441314322
14.1458902414
15.9825020171
9.87712551247
12.8691290304
4.81083338761
3.05569755183
2.33745089321
2.83589562558
4.00579943173
3.5499351491
2.97458509263
2.84371494306
3.01231382771
3.3249188928
3.75906484864
4.34970452889
4.94010668119
5.4270326463
5.89150580535
6.33317143894
6.86830716756
7.43061489316
8.06970821713
9.28426912263
9.20067062729
8.6923545499
8.30011593728
8.0387631716
8.22494792768
9.07222752183
9.16155432841
9.15889510577
9.33535159457
9.59151500358
9.88916278582
10.2143704778
10.7266022124
10.6285989723
10.5196109934
10.4617281323
9.50702589119
9.46219052747
9.76178546768
9.1150953735
7.73168541062
7.11487258094
10.7709759264
12.3746085749
12.3341993038
12.1984323972
11.6559245688
10.8764987799
10.320789116
9.43864425999
8.79677535369
9.04193776248
10.3068768748
10.7161190068
5.88138813315
6.49969795139
6.5939158371
4.56910524181
3.85595030858
3.41802977216
2.9543945199
2.66085179656
4.37466582879
3.35966245339
5.4481309389
9.53321711603
15.4140134798
19.1678380166
17.9955734672
15.8252868583
13.852269296
13.0266126579
13.2942144383
14.245243506
13.5987053921
13.3771926151
12.8044614924
11.5753300739
9.72279635966
8.17077672442
4.25443388049
2.96532166831
2.46524237334
2.93271429618
2.89806067565
2.98494349105
3.21616093902
3.11710316299
2.98983263935
3.27141636484
3.74948384365
4.31692101862
4.92690028578
5.47185567737
5.95706294118
6.28641090965
6.78012733877
10.48980106
12.7482448804
12.9060593006
11.6801993161
8.65599984948
7.57696400801
8.35544768084
8.60955359948
8.70885337751
9.03794530248
9.32691586132
9.51831740078
9.75697326031
10.1310291602
10.3474672545
11.1358369366
11.1996598983
10.3270862804
11.5716402665
10.7338172088
9.27803289062
10.6167596689
9.72349785344
7.99021247366
7.18275162628
7.47951261067
7.87474168406
8.02779619753
8.048240697
7.99451034352
7.89129166238
7.75128130589
7.57122738479
7.36289104896
7.10901930641
6.76229294161
6.39532315554
6.67963802219
7.16425958849
5.61541884807
4.46944178355
3.8957856416
3.49278802876
3.16701643749
3.01584394482
2.83524369224
2.83716886121
5.99520766749
11.437571681
16.2176421033
18.5666220791
18.7015031894
17.0950371417
15.3654595715
14.5772955493
14.3783696856
13.6414917597
12.9789682369
12.8841519349
12.4835605807
11.4648993912
9.82891722301
7.38916672962
7.56951486776
2.63987804168
5.23532225172
2.91724889845
2.75790918165
3.36280702256
11.6207136097
9.90496358943
3.99571569424
3.31947185066
3.80055284654
4.33861718893
4.94194086013
5.47297338457
6.12901333855
8.44931912734
10.9582418381
12.619201696
12.5856565702
10.3440236525
7.96661555426
7.7840397666
7.86875254806
7.97619022053
8.33071735305
8.79334803153
9.23970463752
9.6201481331
9.72229606094
10.1310912247
10.203164867
11.0557473397
10.9743103504
12.0773136553
11.682153829
10.1610837688
11.1826935625
9.9390318409
8.33032973988
7.86620548024
7.65820398706
7.56350831918
7.70762784803
7.93393334681
8.06848182497
8.10688097893
8.06794741356
7.96821574064
7.82279664674
7.63961675556
7.42679598491
7.18521314635
6.9264545098
6.70111856977
6.51327915999
6.13139208962
5.40949733291
4.60132773406
4.01120759398
3.65981178698
3.46340863812
3.37536884928
3.33406210568
3.63953975958
6.16726816735
10.4514080118
16.4268444587
20.0728435779
20.2938147325
18.6214020939
16.2466031529
14.5807932967
13.7040476329
13.7853711602
15.1007347293
14.9786057343
13.6092663239
13.4263393649
16.6924069515
13.0834879245
11.090975197
5.09578145471
7.18429545302
3.1803399325
3.51279496531
5.9421654899
11.4954388498
7.44268692843
3.87415530973
3.75716260116
4.00835286115
4.49579682195
5.16442877952
6.78692468963
9.73418583825
10.6719940136
10.7096531116
10.0017319391
8.63466505102
7.67014072461
8.04380788555
7.95058297273
7.72801444981
7.9902299646
8.43680780975
8.97253437295
9.52369652307
9.74343544786
10.3397708061
10.2024160154
11.1894841528
10.8667043332
12.8961273925
11.7875916143
10.5154829797
11.1070173112
9.33238871637
8.54429496965
8.09681785065
7.90208328792
7.8246634938
7.78492584305
7.85628222559
7.99965173668
8.11290723986
8.15758117429
8.12472191604
8.02596044253
7.87881293267
7.69913216527
7.49879968564
7.2819688166
7.05822884939
6.83736329882
6.57107562974
6.11854273714
5.43012324142
4.70114727451
4.16749491919
3.90303589597
3.82479470116
3.84738633704
3.98085333594
4.59901115244
6.21028675906
10.007503616
15.6895873998
20.0095091528
21.4479548322
20.2615004649
17.4719562513
14.9551938577
14.5750806124
16.7563597769
17.5692333541
16.4770832799
15.5096291621
18.1083978668
21.0920041107
16.3782156598
15.4761631457
9.46995947909
8.55441161144
3.91905027079
4.92403367228
11.7364018906
11.1245996312
4.93164466801
4.20261249365
4.23965429308
4.32215486189
4.89882387437
8.22683595186
11.9193547764
12.1208542134
11.3923895243
9.59691286406
8.0094557594
7.38044877547
8.35926592465
8.11702600764
7.58014829271
7.72251687622
8.13775130489
8.70696664381
9.07709240665
9.66596501254
10.7453075244
10.2872706138
11.7616583917
10.9133233636
13.6357309929
12.143914524
13.88989034
11.6420221953
9.36503586454
8.46166384594
8.20513139215
8.09880411399
8.04264551519
7.99032953296
7.96859527999
8.01280519144
8.10603012415
8.19540638127
8.23207459138
8.19889256483
8.09806090652
7.95143723051
7.78383073232
7.60748862163
7.4212787483
7.22001454056
6.98363864195
6.65198690744
6.14991467928
5.50006639586
4.86848888943
4.40884382092
4.14339871983
4.12391696384
4.25212199721
4.79067415696
6.76480587846
5.68541749227
10.9930420697
17.1401766232
21.0393851605
22.5153948115
21.5797803267
18.1828431703
15.9930932081
17.8036391231
19.9814396186
19.4069987385
18.3550056676
18.3670572497
22.8591144922
24.4047106629
19.3479067788
19.1265594423
11.5010244423
7.96669449166
4.76717395474
4.60983528082
11.5638496934
7.29211650719
4.55949368004
4.61989817854
4.68656393466
5.43769213492
5.68491424132
11.9906607106
12.3368056941
12.1603259333
10.0933037285
7.79944491836
7.09727728312
8.76214184233
8.49026530841
7.49054912158
7.5630534251
7.81817051394
8.23433957015
8.79721741576
9.68833912758
10.7418234302
10.5900250397
12.5736445652
11.3635405515
14.3339502517
12.6737612802
14.4082143014
12.4414833309
11.2737108212
8.56691858608
8.10837374612
8.16378998269
8.21761275593
8.18838454556
8.14327017301
8.13755236312
8.17167008183
8.23794806933
8.30567033491
8.33126834406
8.29096504228
8.18684087765
8.04681492399
7.90011962876
7.75459717949
7.59874036527
7.41105931073
7.15338330158
6.77399334926
6.24827547771
5.63672482632
5.07068960563
4.64277774438
4.37383749899
4.27074367076
4.49965856361
5.14948624391
5.48163177303
6.08646754892
11.5200942011
19.2558842086
22.0620414574
22.5706954303
21.5215812356
19.2529276079
19.1054006628
21.7396917774
22.1594213478
21.2651541767
20.6138949904
22.4854471703
25.1406630696
26.5608414751
21.8890111625
20.7032042098
11.0060591017
7.0546699858
5.75012944601
11.4673588769
11.4604386419
5.35583693901
5.03439976626
5.07590461485
5.41516374939
5.93753431939
11.837063907
12.659558684
12.4399131601
11.6188628557
8.2108345323
6.82318855638
8.84146887478
9.07390772639
7.73346711794
7.24814695726
7.61880947424
8.11974535013
8.479083343
9.16813484022
9.6757124092
11.4022522728
10.7709498709
12.3500104005
14.2306352207
14.2107285809
11.884844704
13.227389359
13.0491469931
9.12185171308
8.3300799139
8.18218788459
8.25616396639
8.33838448194
8.33198772821
8.2957977997
8.2988338991
8.33794730146
8.39197405133
8.44028244843
8.45121799161
8.40097944539
8.29610957993
8.17010327976
8.05222071641
7.9417645492
7.81535068352
7.63657638958
7.35713624986
6.94162656935
6.40547933512
5.82185070141
5.2721512245
4.7819260567
4.35709632814
4.18737808943
4.59603063912
5.2618552839
5.99659245957
6.96644506172
8.34671461552
18.646224592
23.2970549931
23.5711207565
23.0891661394
22.2835841426
23.345648071
24.8029342006
24.0928937587
23.3510377767
23.4636894135
25.6569616312
26.2035495625
26.7319215872
23.7393162608
21.4923273259
9.96376535424
6.41623514396
6.40499629524
12.3265838381
9.9075804717
5.41086778912
5.55396210731
5.68534060032
7.7058320463
5.77413225878
12.6098133328
13.0165722339
12.3844807175
9.82278845583
7.163411441
6.91596574533
9.01723777506
8.46176195472
7.40455401566
7.27097382891
7.57650881507
8.31291012435
8.88599588745
10.2783570587
11.6681958926
11.028495112
14.0134757611
11.553122902
14.7252589354
12.1261114756
14.7543885911
11.4113766389
10.0193707059
8.7525268839
8.39746582367
8.34349842365
8.37777779291
8.44928336173
8.47175449867
8.46216850836
8.47301220632
8.51331483526
8.56295970387
8.59724830468
8.589344859
8.52851773363
8.42995363978
8.32695871423
8.24320895333
8.17035810675
8.0729424523
7.89989921019
7.59750063365
7.14956312655
6.6018295228
6.02171725534
5.4246088213
4.74322784768
3.98274678816
3.68105067961
4.43350390481
5.75552277178
6.9724092549
7.9008925108
8.70458573591
13.4777508805
22.9507910242
24.735271903
25.0750938864
26.0896251375
27.4407728801
27.1853111008
26.1475369569
25.8698433273
26.7097249324
27.7140759652
27.390020714
26.6545587644
25.4939453101
23.9714080889
8.94341361689
6.36954444675
7.67215539537
12.2840180498
6.91589314362
6.46257435223
6.0614531277
6.33152546963
10.5794880107
8.94415511474
13.4328392521
13.1659585579
12.3020006272
8.55224654566
6.86180387619
9.19245660871
9.31913881002
7.98610502492
7.28987270893
7.47468425848
7.68060421921
8.36248308805
8.77275665542
10.4740740851
13.3631779067
10.6980072754
13.8258266071
14.9052711534
14.9244183109
15.1068988887
12.550186635
12.5819369713
9.15296130831
8.57728377878
8.54830917457
8.50956101523
8.50759674953
8.55395497904
8.59892333315
8.63062241595
8.66494027331
8.70823424563
8.75160052346
8.77398180073
8.75035862674
8.67755463474
8.58777750676
8.51759814546
8.47630396409
8.44315228343
8.37346530681
8.20221535592
7.87094034019
7.38552580513
6.81625498158
6.20634725134
5.4599913332
4.38220669963
3.03313379548
2.69403993246
4.50326744106
6.51705811441
8.02261686491
9.17044626405
10.1469787843
10.3493916544
12.6869649812
26.2469397949
29.2757036595
30.7762479107
30.9563246962
29.6289895817
28.6888191635
28.8483031742
29.7784577374
29.8447706199
29.3470405802
28.8269304247
28.9815661578
29.0431037362
8.33887719406
6.84633124873
11.5959007941
12.0803403278
6.29892427435
7.12224195567
6.5079861847
7.51350277512
9.55701875355
12.8868112738
14.0432473898
13.2361832153
12.3021843338
8.01831404287
6.86988878769
9.86898681887
9.21773844294
7.7575775293
7.26598058277
7.62247904879
8.25991838803
8.62180517194
8.95918888681
9.95865910209
13.4207055582
14.6677451571
12.6297598232
15.1090161282
12.0923581253
15.1815679287
15.0442706947
12.3089612699
8.84374901416
8.7055515701
8.73952983588
8.69346457237
8.66429201277
8.68342282254
8.72307229824
8.79470036309
8.87109389158
8.92336713924
8.96044304575
8.97179563346
8.93335630519
8.85271953919
8.77671164097
8.74315271042
8.74846866981
8.75821474603
8.71610488133
8.54082570589
8.171284249
7.63901255872
7.02803725983
6.32845801757
5.24328905506
3.40170932166
0.956832968666
2.25820738149
5.372475828
7.83980470508
9.49650999347
10.662864667
11.4515911994
11.7103174093
11.4536397165
14.6691992833
30.6399716243
36.2773021406
35.204413077
32.9262672539
32.0778238446
32.3630040206
32.8121957518
32.7498635443
32.6706831924
32.8429243057
33.1781516429
33.7319098363
8.14121907783
7.47892656009
13.0995324474
12.3435845565
9.87089003737
8.19839068964
7.1124976046
9.14400020834
8.44258728247
13.7973807045
14.4482624555
13.3457133656
12.0131386415
8.14076993524
7.67590219098
10.4369594588
9.02632632932
7.65859643991
7.35299719161
7.64339687351
8.51188465653
8.99882771608
11.3761186488
10.0842300671
12.7023110866
15.0178176613
11.9859186675
15.4392396968
15.792911772
13.1742664739
13.1547273962
9.74189816429
9.27523833922
9.03325964322
8.96442810307
8.92171554314
8.8708606312
8.85940863114
8.8512564051
8.92261952319
9.06779696348
9.17473809606
9.20448648901
9.19341030766
9.14132345767
9.05907628731
9.00141849716
9.00516678198
9.05670441624
9.10984280517
9.08987905037
8.90193739918
8.49482137239
7.90285950253
7.19817829231
6.24221633282
4.26681886975
1.09732237584
0.0750044315367
3.00672769222
7.03922194063
9.73998941923
11.4150859031
12.5746344027
13.2860378796
13.4091700703
13.1939628859
12.3884838874
25.9035407918
36.931517809
40.0266036138
37.3684184528
36.6027160985
36.7613089439
36.9012626118
36.6389392122
36.9929065179
37.3142667623
36.8461619649
36.8626735733
8.3784002712
7.97455176727
12.6190725571
12.5199749602
12.4083592734
8.93479138701
7.85925849805
12.430781168
8.30154515789
14.6340285414
14.7549532277
13.4778870777
11.7592934794
8.38345238608
11.4302002637
11.5734326872
8.94463114292
7.70613333115
7.57411106347
7.81701544903
8.48222843584
8.91015187496
13.1166042501
14.2904326853
11.7037673482
15.13652677
15.8940272719
14.7406715341
15.788669027
15.6390698503
13.9734869047
9.58898163548
9.52682685944
9.38111561143
9.23200682284
9.14541952877
9.05425750417
9.07864417678
9.09407812344
9.08608527392
9.22251154595
9.40603548676
9.48454242735
9.45745861579
9.38170934777
9.30025656093
9.26619596969
9.30621673683
9.39746889902
9.48288546586
9.47201371397
9.26904783832
8.84419175506
8.15474724636
7.22523170893
5.67988716594
2.53332432554
0
0
4.48147505627
9.22187433255
12.1689729142
13.8510080323
15.0061437301
15.5584321535
15.2137278118
14.6720515798
14.2715654644
21.5413819604
33.8674845974
40.9297339151
42.4751878512
40.8751836229
41.1650952889
41.114597382
41.193438457
41.6584442569
41.7158154518
41.1786005853
41.086389104
8.66263849072
8.43595673638
8.26033973458
12.6817160117
12.6915025332
9.27193208693
8.58055305844
13.1584170912
8.53595783662
15.4465358799
15.0023837992
13.6146898831
11.6420410875
8.43890659958
12.673801291
11.7388057895
8.98708835139
7.90450171405
7.84832147478
8.1865241739
8.57022284185
8.8646191951
13.8298900542
15.1561492702
11.7859523171
15.3092254344
16.3774043215
13.2510523789
15.4174606152
14.7255166489
10.3768645308
9.98528150754
9.92917399035
9.72584343583
9.49238384643
9.45663384497
9.35080051196
9.22406817575
9.29329414668
9.35783856593
9.44170673916
9.62452565224
9.75835214306
9.75593709024
9.66768048201
9.58398442645
9.56939312111
9.63347629632
9.76198220736
9.87823905598
9.8262973277
9.6222659349
9.22000505996
8.41305495688
7.13484395166
4.63203447889
0.0078654616309
0
0.0728121252269
7.13722668526
12.1884680933
15.3601107804
16.2910714249
15.9687686623
13.9980664305
12.1777889206
11.0741532586
10.4616979272
8.69408672856
12.9527756733
41.1545256191
44.1073185877
46.2150764896
45.1230594511
44.2729738005
45.7959750723
46.1429147496
46.0622811631
46.6072410679
46.8910485976
9.09936522672
9.11283057216
13.235000208
13.0839950865
12.8370686182
9.49800182046
9.46591717289
13.6406958294
9.25628006419
16.0999406162
15.2026319016
13.7436061298
11.5577254218
8.62832717422
12.7918368755
11.4997444979
9.05124641921
8.14626764093
8.11003348292
8.40893721872
8.7851375572
9.05467294602
12.7818456945
15.8646225216
16.0566101293
14.1105915768
16.4802842091
17.0849342256
12.5185513025
11.039628063
10.1387965155
10.1507581386
10.0981985066
9.97183007885
9.87937139119
9.73174651976
9.62164355898
9.56301647691
9.47275755262
9.58281158987
9.72941746382
9.89878906501
10.0421634298
10.0678112916
9.99701677565
9.90213600921
9.88749691587
10.0270736837
10.227775055
10.2779459182
10.1110727699
9.94344851725
9.63416098248
8.61626798521
6.44992595073
3.35426522319
0
0
2.97500525902
10.4272751166
15.451388106
15.646707357
11.955555116
5.81787649164
0.487498026863
0.261642893815
0.147308320628
0.157531970654
0.186889184056
0.245831353564
0.883116247391
34.5050882052
49.7114275152
50.8549961378
47.510559487
49.8379793051
51.201467612
52.302472981
53.7757591575
54.0049189935
9.45387469901
9.61479468423
14.6960653588
13.3744981448
12.3971158183
9.77325884814
10.3923940875
13.9079880846
13.9394818528
16.8263587389
15.4041909984
13.9143665322
11.4639848844
8.97793496914
12.8979155981
11.2253511222
9.16561024925
8.41630957925
8.33604408339
8.57351154045
8.94639509988
9.44098639814
11.8039988102
16.0736749734
17.4279267525
12.8961024044
16.1074908863
16.7838653166
15.9160652881
12.1045629428
10.4154298689
10.3751620678
10.4151533731
10.4360454755
10.0968395946
10.030244076
9.85449748689
9.83003772328
9.76641427625
9.82115710266
10.0209987125
10.223938457
10.3319174637
10.3497313759
10.3356971156
10.3918128695
10.4956915932
10.7077125885
10.7656351065
10.6917049536
10.6024774503
10.398776508
10.3196601652
9.19888645303
5.31611750042
0
0
0
6.55408372664
11.7155230303
10.286356802
0
0
0
0
0
0
0
0
0
0
0.000319051884477
0.107609595502
16.0961018035
53.4898965228
55.4110862299
56.4569705787
60.4158527917
62.2189130752
62.1504265404
9.71553323818
9.91170109515
17.0557084962
13.5033038627
11.5303362638
10.0491513069
11.0144336269
13.4888976084
15.4738989201
17.6527280691
15.7167567386
14.1668423829
11.5401154695
9.68749827858
13.2195036374
11.1293656446
9.39898427631
8.76581707076
8.60599904264
8.77316207501
9.08557904877
9.5631478409
11.3383211105
15.9304430102
18.3277139868
17.3127683101
15.2746228858
16.0980371119
15.0804160568
10.707480006
10.8992251579
10.9592570421
11.2314624126
10.9264430945
10.6330888983
10.276826529
10.250002702
10.0811652366
10.0743358303
10.1206653547
10.2721286206
10.5351990199
10.8487710474
10.8988788508
10.897277007
11.0302371035
11.3582676739
11.7413468276
11.9030423081
12.0112528554
12.1073326324
12.2195220824
12.0898501835
11.396919152
8.37085297994
0
0
0.746035362136
5.41887518073
0.00777464628155
0
0
0
0
0
0
0
0
0
0
0
0
0
0.00411098316706
0.0408515581869
0.89555466805
38.6035925138
63.3868240632
66.8124257307
66.6301610743
9.89103007001
10.0742918923
19.2727841245
13.5235503709
11.0284319842
10.3379110415
11.8329429055
12.0213738796
16.4444857214
18.2250611326
16.0310944923
14.432078106
11.8456054549
12.0690902136
13.6423911936
11.3005919938
9.86035044032
9.36461654564
8.98717564376
9.07090694587
9.29088860059
9.69888488797
11.1596025694
15.8027661956
18.6432887181
18.9435818919
13.5314747333
13.8552789265
11.865878595
10.8427894889
11.0176449871
11.6023807696
11.7719705631
11.3507215347
11.0338933612
11.1458052458
10.6039994244
10.4284524818
10.356621909
10.3553054247
10.7239828609
11.0442317352
11.3263160975
11.3639233791
11.7861670518
14.6612141863
18.2262793018
19.3181157928
16.9768410342
16.7825089603
17.1401698447
17.9555372171
18.8093728794
19.3997996185
19.8639950641
0.729357364468
0
0
0
0
0
0
0
0
0
0
0
0
0
0
0
0
0
0
0
0
0.0635134010766
0.430102261606
46.9346991913
63.8599928134
10.0953877999
10.2561374779
18.8805799201
12.1661214398
10.7600866846
10.562273002
12.731783114
11.4180866706
17.2238255736
18.7933389126
16.3551682448
14.6972010124
12.0499887125
14.7793919011
14.2767458453
11.6854241182
10.4252188384
10.5729513261
9.59774011299
9.54888136094
9.6156912099
9.83308386953
11.1812549207
15.6634973438
18.4718976084
20.0538140537
17.8849472513
16.3348261082
14.4885014617
11.3059368663
11.4264885875
12.6939689138
11.8790856016
11.6853949067
12.35117166
11.5825773001
11.110229373
10.9128776322
10.8469643318
10.8595532311
10.923988198
11.4056906584
12.0998227948
13.8713022612
16.5020069263
19.7241748868
21.8818904246
21.7215857802
22.1241725169
24.0594873218
26.7752952602
30.9446983176
33.35122048
35.0562703542
35.7582160083
31.7391386037
0
0
0
0
0
0
0
0
0
0
0
0
0
0
0
0
0
0
0
0
0
0
0.195429711226
99.022554117
10.423710482
10.5820600158
18.2302090889
11.1149822834
10.783703925
10.7153113692
13.4372024576
11.5330984138
17.8060761307
19.345352908
16.6891937032
14.9935224652
12.2447867279
15.2816467694
14.8342011009
12.1384282891
10.9704654691
11.327621164
10.3618593249
10.2658124962
10.2045265987
9.9293377616
11.4096666902
15.6365859648
18.1500847619
20.4386901769
19.1709878485
16.3378260656
11.9155965351
11.8857413174
12.3175736975
13.5236202539
13.6182701417
13.4472413343
13.171849142
12.0118586418
11.6337871414
11.5502938413
11.4615001707
11.5132543709
11.6030634253
12.2494085315
13.8828622806
17.2750886698
19.2978635796
19.4445864976
20.5885618647
21.7032804079
26.2911888137
31.4193690857
38.7338515358
43.9043244176
44.8514743926
45.6570633104
45.3334051229
47.7962600604
17.0611522618
0
0
0
0
0
0
0
0
0
0
0
0
0
0
0
0
0
0
0
0
0
0.0328426202579
0.0434537863779
11.0319490315
11.1959511766
17.4328989798
10.8975546846
11.2004865361
10.9846577486
12.8505038896
12.1656288175
18.0960610125
19.8407100507
17.0602124919
15.3488778123
12.6053445825
15.7735330999
15.3752411165
12.7651518329
11.6309697394
12.101009602
11.0762008492
11.1444796103
11.1762968681
10.2449388545
11.8949441289
15.7522471507
17.9924922225
20.5353201798
19.550231293
16.3231040439
11.8918305734
12.0114000089
13.3757914091
12.8335279991
12.6351882581
12.98067
14.2114470414
13.0020675862
12.6312855991
12.1263943308
12.0296978243
12.2910178549
12.5943919495
13.2916686922
17.2097215636
20.5432568305
20.4315212027
20.5071581589
22.3274616821
28.1996867918
35.4855122837
41.7931325844
46.7404274011
43.1468295093
34.0766955184
18.661900683
1.80604783147
3.6607125918
0.562148853946
0
0
0
0
0
0
0
0
0
0
0
0
0
0
0
0
0
0
0
0
0
0.00242749445032
0.0110225390075
12.04492419
12.1111367951
17.1871062828
11.552742892
12.363848592
11.6345362542
12.5317365218
13.7173259604
17.6456387285
20.0906092591
17.5060685474
15.7911937161
13.105747654
16.3315533532
15.9519964857
13.6049960983
12.5572669257
13.0965700357
11.7821887853
12.159850244
12.574970648
10.9256578751
12.3487952356
15.9913503767
18.0044403546
20.2598440421
19.694680092
16.4335844122
15.2878547784
13.0813579458
14.00461991
14.6301781813
15.6033148303
13.3889792899
13.5589993308
14.3964966807
13.4734175631
13.450957883
13.0559070658
13.0258382503
13.452340713
16.9227007825
21.9979957684
22.9224667227
22.1355053209
23.9119529081
30.9061573118
39.9909810046
46.085644199
44.6782536787
35.3305157132
10.929186822
5.18122889221
0
0
0
0
0
0
0
0
0
0
0
0
0
0
0
0
0
0
0
0
0
0
0
0
0
0
0
13.5860231182
13.2310435451
17.4282890882
13.5768235319
14.5314356496
12.7147067062
13.1069620305
16.0655375038
17.3879766487
20.4551953012
18.103876773
16.3408379427
13.7369550446
16.9191883214
16.5240604131
14.567925155
14.1788719925
14.4776113333
12.5620533794
13.3491443013
14.359521623
12.0848601657
12.5430421622
16.2622643131
18.1752433315
19.9385942713
19.8534553521
16.237075734
16.4947988804
14.9379118292
15.4365353194
13.20065923
13.763580059
15.3554556039
14.4664651728
14.557027636
14.4436700789
14.2660742231
14.3806506092
14.2559132336
16.4611095088
22.6533462968
25.7760316526
25.6605553398
26.3571124692
31.7511104109
41.3607211858
47.1037511327
35.7062461736
14.946214876
15.3199291329
6.40998149639
0
0
0
0
0
0
0
0
0
0
0
0
0
0
0
0
0
0
0
0
0
0
0
0
0
0
0
0
15.2891800576
14.2485307692
17.7767980224
16.5370833706
16.1565663879
14.0741270973
13.767453319
17.076985544
15.4983465072
20.6624717902
18.8473178092
16.9925249598
14.4935917061
17.5235855482
17.0539762078
15.3473687122
16.8177210526
16.1600381976
13.4777961016
14.7883262071
15.7473517969
13.6315784894
12.1062233684
16.0966349307
18.2275660699
19.6321601954
19.8243666901
16.1649825889
16.6382430065
16.3279701069
16.4441564438
13.8098899958
14.5672027623
14.3516117747
15.4742553803
15.9215294207
15.7318335116
15.4259329999
15.3187131416
16.6281544868
22.5775958642
27.8695768191
29.6188720069
30.2183287992
33.1184869591
39.8542630502
42.5359165095
24.1421682722
18.3537021618
18.2819409002
9.95572462608
0
0
0
0
0
0
0
0
0
0
0
0
0
0
0
0
0
0
0
0
0
0
0
0
0
0
0
0
0
15.9161932378
14.9482057
17.9055640973
17.340516497
16.9796981573
15.423301913
14.7571835584
18.3688788957
16.2967561498
20.9998667972
19.5921795958
17.69902503
15.3637545378
18.1638434466
17.6206763435
16.0231070628
17.6291968288
17.0421757138
14.4094375443
16.2818442592
16.2458475089
14.0216810406
13.3493001637
13.5473995237
17.6923412769
19.00386193
19.4933386234
16.0752304199
16.569410983
16.6725782532
17.160215602
16.4068272341
13.8014600878
14.0971357254
15.6171490388
16.8133564688
17.1320296887
17.2959934184
17.2636337316
22.2178954131
28.7015722315
32.4637662535
33.6357173525
34.9140627144
38.4540694902
36.5922987638
18.2778480919
21.3408140285
20.6984007977
16.2366345126
0
0
0
0
0
0
0
0
0
0
0
0
0
0
0
0
0
0
0
0
0
0
0
0
0
0
0
0
0
0
15.6647037282
15.4467807778
17.9910689353
17.3062635807
17.5115160993
16.4940322598
15.6401150052
19.6198775038
18.0034455212
21.455782068
20.3836151633
18.4383038407
16.3334950923
18.8518390983
18.2647558215
16.8776900556
18.2514400954
17.8191031114
15.4722151694
17.1519528751
14.813617948
14.5251596763
14.2380471483
14.8128806032
15.860890455
16.5694024932
18.5181396872
16.0049938523
15.589914056
16.4957942924
17.4638942728
17.7226353012
15.6238489774
14.7979789039
15.2319087418
16.3638340769
17.7958853356
19.216705115
21.349691955
28.1714141281
33.612714895
36.2230151864
36.5001918936
36.5193053385
30.6572178545
20.4819907356
21.3269374055
21.5323418256
18.9200386734
0
0
0
0
0
0
0
0
0
0
0
0
0
0
0
0
0
0
0
0
0
0
0
0
0
0
0
0
0
0
0
15.7236257985
15.8112780411
18.1263614747
15.5030975603
17.6496441161
17.0106690989
16.2181530806
19.9836412046
18.6132725754
21.9718639115
21.2467918153
19.1950915595
17.4208273475
19.5746161619
18.9583919091
17.8803053477
18.873383382
18.710156571
16.6469389186
18.3931294769
16.0671138382
16.4452829999
15.4379406885
15.997868508
18.0848807541
18.6866796841
18.0826863305
15.9222923363
14.6881828667
16.4199480113
17.4634467292
17.8474909283
17.6605810209
15.8703903719
17.578370299
17.268775586
18.446892522
21.2386965088
26.2558331851
33.2688760913
37.5234181526
38.7232672588
36.0558479522
27.1233865987
23.6412811485
23.6336347369
24.271611992
23.7125075968
0
0
0
0
0
0
0
0
0
0
0
0
0
0
0
0
0
0
0
0
0
0
0
0
0
0
0
0
0
0
0
0
16.3287710482
16.4141344893
18.1766583351
15.7745200953
17.7217976908
17.1887514492
16.6158927076
19.8988552771
19.0668223431
22.3101352685
22.1425490364
19.9283274639
18.6322978699
20.2959022717
19.6373550869
18.8714371035
19.4425091482
19.7084945538
17.8875705863
19.6060638604
17.8588290506
18.7767672851
18.4178347905
16.5185266347
18.4302692663
19.6109204991
19.8079973451
15.8439591883
13.5905020861
16.3417639325
17.581420832
16.7976951461
16.7123947115
16.1284877259
17.2936632124
17.5776525726
19.2838519614
23.4103164145
30.8953245142
37.8892095871
40.809382345
39.3021606117
28.2895143041
24.6564018751
25.5855892527
25.1304807657
25.8424854541
19.5604661541
0
0
0
0
0
0
0
0
0
0
0
0
0
0
0
0
0
0
0
0
0
0
0
0
0
0
0
0
0
0
0
0
17.1149461395
18.7943376859
18.3061507013
16.7584197523
18.1055237652
17.412152609
16.9983613184
19.7953849842
19.5139770216
22.2351184388
23.0640122629
20.6194918526
19.705765698
20.7949215019
20.3125111021
19.5510500474
19.230597518
20.6456663228
19.2917963108
20.6491040196
20.0828207609
19.9060556278
19.6085202124
19.1780843291
18.0072664237
19.0290590836
20.6968811361
14.491702248
13.0547438234
15.281641177
17.5391895462
17.7233022473
18.3178033606
16.1237759564
16.9825109132
17.9214452731
19.7294113759
25.3835054987
35.1304336405
42.0571790672
43.5511686282
34.6359518843
26.75722445
28.2378617274
27.8251510654
25.1314916356
23.6405917881
0
0
0
0
0
0
0
0
0
0
0
0
0
0
0
0
0
0
0
0
0
0
0
0
0
0
0
0
0
0
0
0
0
17.6613605101
19.3711124398
18.8503159026
17.6172142058
18.7016949135
17.8730744906
17.4552244511
19.7920225394
19.9812129187
21.8405278919
23.9065803201
21.3615586673
20.2574803799
21.1845562235
21.1401876147
20.1560732383
19.0401171952
21.2908613135
20.8816005592
21.5387410357
21.3084825457
21.3926127918
19.2932815692
19.3666130995
18.8015421673
20.9570570426
21.962106884
17.7651393884
12.581149444
14.0047760318
16.9434938626
18.1407080665
17.9971504437
16.8105595723
16.4179989355
18.2145775004
19.7528517559
26.9366132428
38.9097509924
46.1786883463
42.8088724215
27.7821446723
28.7418991882
30.9198224875
29.7759240042
26.7063004766
10.4272714463
0
0
0
0
0
0
0
0
0
0
0
0
0
0
0
0
0
0
0
0
0
0
0
0
0
0
0
0
0
0
0
0
0
18.0776374008
19.6259871123
19.3535335178
18.1597543641
19.3180106989
18.5410892124
18.006027616
19.9857357621
20.5366269491
20.9941173907
24.4465527191
22.2354824696
20.6366324433
20.7986144562
22.0504293311
20.9653812991
19.4469808054
21.8290751372
21.60109617
22.2282071307
22.1818715421
22.4396496519
22.3832784435
22.3236909973
21.8062303093
21.1967260618
22.9599674272
19.7586682046
12.4136603246
13.0406299487