/*--------------------------------*- C++ -*----------------------------------*\
| =========                 |                                                 |
| \\      /  F ield         | OpenFOAM: The Open Source CFD Toolbox           |
|  \\    /   O peration     | Version:  v1806                                 |
|   \\  /    A nd           | Web:      www.OpenFOAM.com                      |
|    \\/     M anipulation  |                                                 |
\*---------------------------------------------------------------------------*/
FoamFile
{
    version     2.0;
    format      ascii;
    class       volVectorField;
    location    "100";
    object      Ua;
}
// * * * * * * * * * * * * * * * * * * * * * * * * * * * * * * * * * * * * * //

dimensions      [0 1 -1 0 0 0 0];


internalField   nonuniform List<vector> 
6400
(
(0.000124223579111 0.00016880660782 0)
(0.00035203802962 0.000139172017558 0)
(0.000521495160617 0.000123102610263 0)
(0.000728489029541 0.000118257779184 0)
(0.000875092522995 7.28481177468e-05 0)
(0.000975580748819 3.0036219475e-05 0)
(0.000998875296385 1.3078486541e-05 0)
(0.00100226189505 3.61800969739e-05 0)
(0.00113958898947 6.81800059059e-05 0)
(0.0013011268922 6.68455057885e-05 0)
(0.00131373618034 5.79861016173e-05 0)
(0.00146573510647 7.3581698994e-05 0)
(0.00159385402244 7.04774328225e-05 0)
(0.00169674729723 5.54667657745e-05 0)
(0.00175297873914 4.56847141152e-05 0)
(0.00181727840419 5.40279606396e-05 0)
(0.00192144840679 5.84047098642e-05 0)
(0.0020012428776 5.06971757913e-05 0)
(0.00203859453031 3.35065985715e-05 0)
(0.00205370189313 1.88807683499e-05 0)
(0.00208395656944 3.17786452944e-05 0)
(0.00214964757186 5.25728663019e-05 0)
(0.00224297846758 6.31354871263e-05 0)
(0.00233228688819 7.01354226899e-05 0)
(0.00242520833712 6.82050050801e-05 0)
(0.00251111158268 6.03674055139e-05 0)
(0.00260262967483 6.18409167549e-05 0)
(0.00269121105869 6.03947899904e-05 0)
(0.00276190007687 5.35693882594e-05 0)
(0.00281798034348 4.71996227922e-05 0)
(0.00285686184767 4.96439184431e-05 0)
(0.00291113976965 4.95919227376e-05 0)
(0.00296595679499 4.16989345424e-05 0)
(0.00300284580398 4.32034160178e-05 0)
(0.00302879746394 3.9996724417e-05 0)
(0.00307953306762 3.9933053734e-05 0)
(0.00314193702961 4.79249528324e-05 0)
(0.00311329467415 4.25381462522e-05 0)
(0.00315514314797 3.81226900567e-05 0)
(0.00323294944823 5.57386591214e-05 0)
(0.00334582286377 0.000123377610299 0)
(0.00347813170934 0.000151195501289 0)
(0.00359318999623 8.78169175431e-05 0)
(0.00365688182131 5.08918433928e-05 0)
(0.00368039555726 3.54875553177e-05 0)
(0.00368867823785 1.95598804759e-05 0)
(0.00367458396115 7.0232542277e-06 0)
(0.00363178245847 -8.07771643804e-06 0)
(0.00356787562712 -1.44009232394e-05 0)
(0.00350487938555 1.15817328993e-05 0)
(0.00346046077049 6.77539294453e-05 0)
(0.0035955386907 7.58937121398e-05 0)
(0.00353304569135 -5.81847779743e-05 0)
(0.00340880320407 -9.46511723156e-05 0)
(0.00320057182923 -0.000113879264151 0)
(0.00278023242046 -0.00017593889875 0)
(0.0024182347049 -0.00012835285383 0)
(0.00221168433446 -6.24326600857e-05 0)
(0.00212033312201 -6.2066745925e-05 0)
(0.00183393606084 -6.23717424067e-05 0)
(0.00170074624329 -2.02291886361e-05 0)
(0.00157028297315 -4.12950948916e-05 0)
(0.0015464416395 -0.000111834947691 0)
(0.00119798543255 -9.33526560799e-05 0)
(0.00100206068418 -6.26759158769e-05 0)
(0.000889238683495 -4.52069038149e-05 0)
(0.000811630142485 -4.48529745664e-05 0)
(0.00074346869287 -4.56105656074e-05 0)
(0.000669425940161 -4.71627916767e-05 0)
(0.000577376458541 -4.90835776197e-05 0)
(0.000483230722151 -4.83512173091e-05 0)
(0.000387247619727 -4.42841524855e-05 0)
(0.000302033903562 -4.01980474087e-05 0)
(0.000240819695367 -3.82149555191e-05 0)
(0.000163527164341 -2.76652688058e-05 0)
(0.000128394309242 -2.17276985491e-05 0)
(7.66200832354e-05 -1.20091814175e-05 0)
(7.02489615949e-05 -1.31215912168e-05 0)
(2.88624652938e-05 -8.37803840019e-06 0)
(2.24581460517e-05 -1.15850426236e-05 0)
(4.49615654817e-05 0.000229123064857 0)
(0.000194738133556 0.000262749393471 0)
(0.000342884133977 0.000251390856902 0)
(0.000433420582167 0.000200008392396 0)
(0.000653238946349 0.000199316572406 0)
(0.000892904945542 0.000136935680105 0)
(0.00104132512998 6.64472088482e-05 0)
(0.00112997537854 0.000105132012765 0)
(0.00122030932506 0.000162370155215 0)
(0.00132623148316 0.000158430228912 0)
(0.00142946266638 0.000151647831357 0)
(0.00152245709365 0.000161275805615 0)
(0.00160638859832 0.000143889255449 0)
(0.00168310553548 0.00011355811627 0)
(0.00176617798474 9.73862480091e-05 0)
(0.00184846835905 0.000133295945384 0)
(0.00193032180854 0.000143278378758 0)
(0.00198272282344 6.43010664806e-05 0)
(0.00189351316949 1.31191466838e-05 0)
(0.00192918838263 6.73069711111e-06 0)
(0.00199168984242 5.24004360888e-05 0)
(0.00209133136808 0.000129400938529 0)
(0.00224126955385 0.000161697928926 0)
(0.00236721348244 0.000143403528709 0)
(0.0023910147041 0.000129951573841 0)
(0.0025170866384 0.000131130625564 0)
(0.0026252527405 0.000123064198812 0)
(0.00269751585475 0.000104872515591 0)
(0.00275827373153 8.56300114318e-05 0)
(0.00281253736184 6.96127267769e-05 0)
(0.00286575773643 6.81567767345e-05 0)
(0.00286695691505 6.30522700238e-05 0)
(0.00291496372113 3.50331651742e-05 0)
(0.00293497350102 4.47578618146e-05 0)
(0.0029270613377 5.8179460779e-05 0)
(0.00304771045962 2.94051543828e-05 0)
(0.00304906244565 4.43309805015e-05 0)
(0.00303690366498 6.81305933364e-05 0)
(0.00312285717359 6.32476863773e-05 0)
(0.00327631140608 6.81976528898e-05 0)
(0.00341551436622 6.56994668117e-05 0)
(0.00291418093145 4.58330975794e-05 0)
(0.00282502158532 3.85686879729e-05 0)
(0.00288028957103 3.56747203846e-05 0)
(0.00291649154478 3.09490001907e-05 0)
(0.00300028597638 2.12417088317e-05 0)
(0.00311148828848 1.91831396865e-06 0)
(0.00317631505764 -2.3301332443e-05 0)
(0.00328110459733 -4.76768545545e-05 0)
(0.00333529793262 -6.00485826013e-05 0)
(0.00324290461786 -4.31981799446e-05 0)
(0.00298675794481 -4.06355266147e-05 0)
(0.00272704748587 -6.08680622519e-05 0)
(0.00338358890129 -0.000167636875447 0)
(0.00310407298203 -0.000332268422606 0)
(0.00293912048415 -0.000409163537081 0)
(0.00308066247996 -0.000375717598468 0)
(0.00291554427357 -0.00029119970174 0)
(0.00270422858994 -0.000296946068451 0)
(0.00250398172876 -0.000325412650485 0)
(0.00232598927949 -0.000333004836322 0)
(0.00160336543141 -0.000275634468313 0)
(0.00162852718663 -0.000359073435186 0)
(0.00122088031038 -0.000296870069182 0)
(0.00102266244298 -0.000220677769848 0)
(0.000856645274766 -0.000159502884764 0)
(0.000755538602864 -0.000124879635103 0)
(0.000714530649314 -0.000120624574575 0)
(0.000643097679015 -0.000131425225528 0)
(0.000562144174224 -0.000145221567568 0)
(0.000463064924333 -0.000147372598616 0)
(0.000365405942677 -0.000134569602429 0)
(0.000274794790516 -0.000109584785459 0)
(0.000221755251698 -9.56997056721e-05 0)
(0.000168804507555 -7.91645731783e-05 0)
(0.00012703254726 -6.35043547202e-05 0)
(9.1305054864e-05 -4.70053709453e-05 0)
(6.45155249374e-05 -3.80897840686e-05 0)
(3.66502778098e-05 -3.39346238635e-05 0)
(1.42025426358e-05 -4.64772198045e-05 0)
(7.12142186787e-05 0.000394704010121 0)
(0.000193228489334 0.000441593102157 0)
(0.000293226136862 0.000429870140915 7.31163820244e-29)
(0.000539308386041 0.000463274657009 -7.27034785032e-29)
(0.000788528208543 0.00048491092896 -6.93283445561e-29)
(0.000916572815944 0.000388137957264 6.45800174094e-29)
(0.000993026203362 0.000179927255024 -6.64160448403e-29)
(0.0010850901176 0.000202648946128 6.80166575159e-29)
(0.00118484811412 0.000263052602314 0)
(0.00130101155938 0.000277633757705 0)
(0.00141775831304 0.000265442798236 0)
(0.00151520049124 0.000249535450844 0)
(0.00160036427832 0.000223226309898 0)
(0.00167442681465 0.000205420310945 0)
(0.00174375718191 0.000184634255581 0)
(0.0018171977834 0.000132747618307 0)
(0.00148779821274 5.89463545082e-05 0)
(0.00140332063209 1.86036326556e-05 0)
(0.00143741491433 3.3108121803e-05 0)
(0.00154828315686 0.000118657106302 0)
(0.00191704489684 0.000238297277139 0)
(0.00216118793067 0.000299197571459 0)
(0.00218043705225 0.00028258582804 0)
(0.0023084701927 0.000257733591278 0)
(0.0024483439381 0.00024684588056 0)
(0.00253652575001 0.00023941051801 0)
(0.00260802765467 0.000211367573734 0)
(0.00267862564871 0.000179929049935 0)
(0.00273899865747 0.000151204957366 0)
(0.00277526978108 0.000130696234635 1.67698331972e-28)
(0.00284416520933 0.00010951440208 -1.63698877721e-28)
(0.00281126278421 9.42702707108e-05 0)
(0.00282108984527 7.23506547777e-05 0)
(0.00294718301837 4.07071405521e-05 0)
(0.00274215229115 8.24817423071e-05 0)
(0.00283230055817 0.000106470996768 0)
(0.00305359662825 8.0519892135e-05 0)
(0.00286173004404 0.000121076627525 0)
(0.00301382074663 0.000205686404088 0)
(0.00326990878896 0.000216316235391 0)
(0.00345944526135 8.45017025207e-05 0)
(0.00354600577959 -4.78131011534e-06 0)
(0.00361488075346 5.33814013572e-05 0)
(0.00366189772909 9.48684872304e-05 0)
(0.00368794050048 0.000105026261764 0)
(0.00370101671209 0.000102414873586 0)
(0.00370389051603 7.8258289741e-05 0)
(0.00369836979755 4.60764350363e-05 0)
(0.00368530622858 3.79901727509e-06 0)
(0.00366818414611 -6.34293353668e-05 0)
(0.00365347716077 -0.00013284798943 0)
(0.00363068874846 -0.0001530050948 0)
(0.00355201172439 -7.44420601176e-05 0)
(0.0033261403728 -0.000181609653706 0)
(0.00305672903254 -0.000356363767606 0)
(0.00313151636494 -0.0004093232093 0)
(0.0030670268364 -0.000419822502282 0)
(0.00288010125801 -0.000449907369874 0)
(0.00266351618773 -0.000485150681948 0)
(0.00244186241268 -0.000539952832738 0)
(0.00220031775997 -0.00063761511451 0)
(0.00195459204686 -0.00069145356002 0)
(0.00175304783532 -0.000758264017908 0)
(0.00120009508026 -0.000573192711476 0)
(0.000915390810791 -0.000361454469512 0)
(0.000819163280482 -0.000262688377956 0)
(0.000755984541503 -0.000217588238408 0)
(0.000674426169008 -0.000203251315702 0)
(0.000592887803169 -0.000218185340554 0)
(0.000503201647036 -0.000236294514018 0)
(0.00040525599105 -0.000233529061415 0)
(0.000318133824547 -0.000208136861492 0)
(0.00025529270428 -0.000179067403932 0)
(0.000201837662954 -0.000155421738624 0)
(0.000151084995406 -0.000131352744627 0)
(0.000106132994127 -0.000105764796587 0)
(6.88849438794e-05 -8.07853878803e-05 0)
(4.45459015708e-05 -6.80210384524e-05 0)
(2.81105886218e-05 -7.10563520213e-05 0)
(6.08446150104e-06 -6.27825820172e-05 0)
(6.9913508296e-05 0.0006078894052 0)
(7.91897172624e-05 0.000386192144686 0)
(0.000244211654125 0.000671383488871 0)
(0.000495109673932 0.000709197773806 0)
(0.000662336244798 0.000586847516898 0)
(0.000327021583724 0.000193662490316 0)
(0.000398024562341 0.0001926357655 0)
(0.000805318413251 0.000402219570906 0)
(0.00108878566457 0.000464062103629 0)
(0.00123943156066 0.000422504745833 0)
(0.00138822953785 0.000390421967314 0)
(0.00150396008569 0.000350845537804 0)
(0.00159010301486 0.000303896375534 0)
(0.00163048814381 0.000211838925221 0)
(0.00142606628906 8.476503488e-05 0)
(0.00129295101586 5.17018654571e-06 0)
(0.00127731636488 -8.53597045282e-06 0)
(0.00137036977576 6.95916449769e-05 0)
(0.00162712771591 0.000209911551301 0)
(0.00197450221416 0.000395273752123 0)
(0.00205165087076 0.000449057379105 0)
(0.00213481801927 0.000418902238544 0)
(0.00225508849851 0.000393985440563 0)
(0.00235675737844 0.000377571481724 0)
(0.00243999575535 0.000348400825977 0)
(0.00251322228463 0.000312175506449 0)
(0.00257211683787 0.000277005232388 0)
(0.00266002259314 0.000240480868186 0)
(0.00268658698858 0.000202535195274 0)
(0.00277711994399 0.000170425915748 0)
(0.00273644784839 0.000136652706588 0)
(0.00284293027067 9.98365624998e-05 0)
(0.00270931345631 5.09594147838e-05 0)
(0.00272156790956 5.06306747725e-05 0)
(0.00292622592751 9.16469795275e-05 0)
(0.00275242573014 0.000158182052246 0)
(0.00294333521699 0.000197497003443 0)
(0.00322665600887 0.000260251277853 0)
(0.00333081620086 0.000354286883039 0)
(0.00338368209275 0.000338422365758 0)
(0.00345017984257 0.000223291440821 0)
(0.00352855773493 0.000129022761491 0)
(0.00359896336454 0.000113716231756 0)
(0.00365003555568 0.000118928663554 0)
(0.00368203110241 0.000114289488303 0)
(0.00370093011179 9.77621196226e-05 -1.90626511755e-28)
(0.00371021260201 6.84548956869e-05 1.91919703167e-28)
(0.00371124225677 2.96407102194e-05 0)
(0.00370410149371 -1.8680891029e-05 0)
(0.00368933483738 -7.80971713571e-05 0)
(0.00366557244866 -0.000138862417567 0)
(0.00362058623411 -0.0001928932711 0)
(0.00353115314801 -0.000256923331355 0)
(0.00340396808684 -0.000370709312168 0)
(0.00328334104413 -0.000453379721727 0)
(0.00316990006219 -0.000495719923906 0)
(0.00302357424163 -0.000575388811605 0)
(0.00282477305729 -0.000656606793856 -3.54011018372e-28)
(0.00258441634352 -0.00072363643555 3.90973636808e-28)
(0.00232381588513 -0.000791431103541 0)
(0.00205871736749 -0.000866070563675 0)
(0.0018079798489 -0.000943852351135 0)
(0.00160776930608 -0.00105707819035 0)
(0.00124518156457 -0.000905961012198 0)
(0.000987577221908 -0.000584280336771 0)
(0.000795077681338 -0.000365411526153 0)
(0.000696785233486 -0.000296307994542 0)
(0.000617311448888 -0.000288451108318 0)
(0.000536285639409 -0.000305613727505 0)
(0.00045784684826 -0.000331137142924 0)
(0.000368574090622 -0.000328881548894 0)
(0.000283524040306 -0.000294004245733 0)
(0.000212614990377 -0.000248681392866 0)
(0.000149869529113 -0.00020236211586 0)
(0.000104103584923 -0.0001722510274 0)
(6.30437260878e-05 -0.000147777328949 0)
(3.02138956849e-05 -0.000112414400483 0)
(1.35840567416e-05 -7.26413142213e-05 0)
(8.50393159434e-06 -7.42726871934e-05 0)
(1.23168317524e-06 -7.66707364189e-05 0)
(-2.05393535282e-07 0.000586403460027 0)
(3.37290170797e-05 0.000475673760183 0)
(0.00023480871448 0.000919660183738 0)
(0.00042059502914 0.000839163910675 0)
(0.00039375381794 0.000486013515336 0)
(0.000294246946692 0.000252437424091 0)
(0.00051411627927 0.00044893657223 0)
(0.000893504490006 0.000734484341053 0)
(0.00102360850387 0.000670655724462 0)
(0.00118247657396 0.000584647725134 0)
(0.00133263732934 0.000541465305144 0)
(0.00144886716459 0.000456944588315 0)
(0.00139434557769 0.000259581045504 0)
(0.00119742745228 8.4282945559e-05 0)
(0.00121895801161 1.6639550035e-05 0)
(0.00130156827032 3.23882329616e-05 0)
(0.00147059080413 0.000127464266982 0)
(0.00173103968937 0.00030615223999 0)
(0.00195092263135 0.000468648898048 0)
(0.00194741504437 0.000493449032579 0)
(0.00202645923331 0.000512863106045 0)
(0.00215835826035 0.000530693214733 0)
(0.00225310371497 0.000506008183853 0)
(0.00234096033093 0.000464647862092 0)
(0.00241633924725 0.000421833712836 0)
(0.00247488016961 0.000384667204435 0)
(0.00256809179409 0.000342571844343 0)
(0.00257377364276 0.000294239700345 0)
(0.00269747955274 0.000252273872767 0)
(0.00262850459142 0.000199372371879 0)
(0.00279281673364 0.000157666744777 1.58339732263e-28)
(0.00258613067444 9.89160988365e-05 -1.38803586861e-28)
(0.0027517560906 7.96733875967e-05 0)
(0.00288510287227 8.25233045566e-05 0)
(0.00273882855293 0.00013777881765 0)
(0.00301552727699 0.000273370643955 0)
(0.00315181830347 0.000398746547387 0)
(0.00326555183996 0.000427582271128 0)
(0.00333775016313 0.000415192448015 0)
(0.00338820169934 0.000372786863974 0)
(0.00345167164794 0.000292896442651 0)
(0.00352510870282 0.000218118673233 0)
(0.00359251813514 0.000182186794075 0)
(0.00364530451866 0.000165083338492 0)
(0.00368236472166 0.000146040508441 0)
(0.00370782970454 0.000118683338315 0)
(0.00372399064956 8.10953957819e-05 0)
(0.00373150562233 3.38718935551e-05 0)
(0.00372948862408 -2.40964653087e-05 0)
(0.00371594394344 -9.40966885036e-05 0)
(0.0036871697549 -0.00017327281092 0)
(0.00363467533468 -0.000259462892507 0)
(0.00354920367802 -0.000356142772539 0)
(0.00343547419025 -0.00046754807932 0)
(0.00330889067628 -0.000564779816464 0)
(0.00316690622294 -0.000656660523419 0)
(0.00298880596159 -0.000773034656833 0)
(0.00275922257779 -0.000895543656583 0)
(0.00248072310704 -0.000995105085359 0)
(0.00218332200041 -0.00106758020547 0)
(0.00190233554866 -0.0011263135919 0)
(0.00166928592487 -0.00119578246694 0)
(0.00148943218008 -0.00129004451907 0)
(0.00128306201056 -0.00117966243533 0)
(0.00101535315515 -0.000800605445434 0)
(0.00082321749439 -0.000536746951665 0)
(0.000691537359778 -0.00042887894028 0)
(0.000574717350592 -0.000390981006861 0)
(0.000475591179994 -0.000392552417945 0)
(0.000389746789921 -0.000413346569067 0)
(0.000302872670799 -0.000418422125598 0)
(0.000218772141092 -0.000375087314975 0)
(0.000149120459371 -0.000299859565584 0)
(0.000100236670717 -0.000252518375957 0)
(5.44872663295e-05 -0.000220466766419 0)
(1.64955523226e-05 -0.000183909137914 0)
(-8.04906354034e-07 -0.000125725676264 0)
(-5.21317431793e-06 -8.42926579114e-05 0)
(-8.73401208849e-06 -8.32575722022e-05 0)
(-4.30766086868e-06 -7.48489514403e-05 0)
(-6.24385608383e-06 0.000541535569976 0)
(4.91042602869e-05 0.0005860900872 0)
(0.000245771208423 0.00104547415612 0)
(0.000325302780656 0.000807188715526 0)
(0.000222687036961 0.000360055669038 0)
(0.0002982279676 0.000368787225184 0)
(0.000713865724704 0.000800613268833 0)
(0.000884774462229 0.000893683483411 0)
(0.000981131083823 0.000808009705797 0)
(0.00110792250698 0.000731780849524 0)
(0.00123534597705 0.000613338378203 0)
(0.00105351689605 0.000350397025684 0)
(0.000932885110797 0.00014550025871 0)
(0.00101641743529 9.09312140248e-05 0)
(0.00112016279545 0.000115787198544 0)
(0.00134491700028 0.00022462376666 0)
(0.00163802996377 0.000391783438421 0)
(0.00185688715739 0.000504456644922 0)
(0.00179556289688 0.000487986295808 0)
(0.00189945188695 0.000553556078648 0)
(0.00205901769194 0.000636685262543 0)
(0.00214849092329 0.000635352225625 0)
(0.00223103947588 0.000596227318673 0)
(0.00230164110957 0.000548457570321 0)
(0.00240251101438 0.000505581166569 0)
(0.00246451894441 0.000440033575798 0)
(0.00242072496046 0.000386994117897 0)
(0.00260821365619 0.000352968580701 0)
(0.00246882769886 0.000273287480218 0)
(0.00270693048796 0.000219528645462 0)
(0.00239911563635 0.000133756084307 0)
(0.00269378053401 0.000132981473533 0)
(0.00245636074177 0.000131401544324 0)
(0.00268253978794 0.000167420789687 0)
(0.00294620620468 0.000298094802572 0)
(0.00310213601401 0.000456327504991 0)
(0.00319595924193 0.000509816869331 0)
(0.00326988531801 0.000506321381407 0)
(0.00332957894823 0.000476359181285 0)
(0.003388016965 0.000429599272198 0)
(0.00345259698081 0.000364082610924 0)
(0.00352244785168 0.000297321685292 0)
(0.00358854313226 0.000248862783338 0)
(0.00364304657138 0.000214085527464 0)
(0.00368539458261 0.000181202630573 0)
(0.0037171532142 0.000143365616127 0)
(0.00374033999162 9.73178153434e-05 0)
(0.00375445702632 4.1085752442e-05 0)
(0.00375703973126 -2.80114950166e-05 0)
(0.00374504173046 -0.000112321068953 0)
(0.00371468148085 -0.000211850714125 0)
(0.00366033389344 -0.000325401265368 0)
(0.00357728716527 -0.000450246079928 0)
(0.00346677907124 -0.000580122247018 0)
(0.00333144273308 -0.00070592061721 0)
(0.00316404052032 -0.000841621252284 0)
(0.00294918237554 -0.00100268569296 0)
(0.00268105249543 -0.00116812625802 0)
(0.00237787624896 -0.00130007561869 0)
(0.00205844113967 -0.00136383594727 0)
(0.00178280347079 -0.00138822751846 0)
(0.00157975302315 -0.00139334601218 0)
(0.00125650114147 -0.00127057260085 0)
(0.00135005368442 -0.00147035404918 0)
(0.000945902085498 -0.000984107363241 0)
(0.000774526912045 -0.000678512219309 0)
(0.000656372232037 -0.000567704045471 0)
(0.000525619353225 -0.000508854666676 0)
(0.000407174868911 -0.000486790522237 0)
(0.000314288876587 -0.000511193636842 0)
(0.000224798890184 -0.000514679622616 0)
(0.000147599930009 -0.000429481657978 0)
(9.40270832995e-05 -0.000350416271165 0)
(4.42485235302e-05 -0.000305386231294 0)
(-1.52888920714e-06 -0.000261278805313 0)
(-2.71780977506e-05 -0.000205811266585 0)
(-2.95484096096e-05 -0.000129826140263 0)
(-2.84584104161e-05 -8.68724454162e-05 0)
(-2.58524766858e-05 -7.68917518788e-05 0)
(-9.56686443641e-06 -6.4146352637e-05 0)
(1.73558504473e-05 0.000588092734148 0)
(0.000135035224053 0.000789390272429 0)
(0.000340928441364 0.00113851761987 0)
(0.000355917675883 0.00101078240592 0)
(0.000206124022791 0.000442276389086 0)
(0.000461001659926 0.000693932066659 0)
(0.000791589165587 0.00102673153394 0)
(0.00085185303157 0.000994293226613 0)
(0.000947882742238 0.000901513703044 0)
(0.000974144687368 0.000790339392541 0)
(0.00114870814044 0.000627110514752 -3.03627028601e-28)
(0.000798589508405 0.00023387043278 1.54472290189e-28)
(0.00094332528058 0.000188053369791 0)
(0.00099714467386 0.000197643234923 0)
(0.00117900241268 0.000305965102805 0)
(0.00149094384148 0.000513592317014 0)
(0.00173049664921 0.000611314293377 0)
(0.00161300140045 0.00050670644874 0)
(0.00172737875278 0.000558997356136 0)
(0.00194051948776 0.000705915532953 0)
(0.00202985987831 0.000750057738446 0)
(0.00212493954574 0.000726465231853 0)
(0.00220990409424 0.00068173479727 0)
(0.00228729966658 0.000623486652768 0)
(0.00232427577906 0.000546661217388 0)
(0.00230176452084 0.000459588431444 0)
(0.00246009057632 0.000430184728914 0)
(0.00228341032687 0.000368691396116 0)
(0.00257989041316 0.000314944007192 0)
(0.00225431424725 0.000164192816536 0)
(0.00254766195385 0.000161807906657 0)
(0.00236575743687 0.000181404451405 -1.27850603083e-28)
(0.00261965499722 0.000213332246939 1.4344083347e-28)
(0.00266809107911 0.000353541110625 0)
(0.00303659940018 0.000532570769502 0)
(0.00313007792035 0.000590064898341 0)
(0.00319573448649 0.00059088676693 0)
(0.00325688797818 0.000570358995694 0)
(0.0033212575328 0.000537124373066 0)
(0.00338618629668 0.000492189404466 0)
(0.003451803973 0.00043399892205 0)
(0.00352063030334 0.00037129934541 0)
(0.00358647200317 0.000315542931007 0)
(0.00364331573817 0.000268022544622 0)
(0.00369040807832 0.00022323072717 0)
(0.003728768225 0.000175595980438 0)
(0.00375923577291 0.000120694938904 0)
(0.00377994761625 5.42487253444e-05 0)
(0.00378739118014 -2.80511623873e-05 0)
(0.00377833415162 -0.000129294921317 0)
(0.00374938773905 -0.00025027125184 0)
(0.00369608174175 -0.000389168197246 0)
(0.00361463031395 -0.000541102333592 0)
(0.00350264524368 -0.000700315012735 0)
(0.00335578037826 -0.000867224732876 0)
(0.00316416381506 -0.0010549025795 0)
(0.00291674899731 -0.0012666399093 0)
(0.00261523859724 -0.00147151942768 0)
(0.00228143037569 -0.00161559892201 0)
(0.00196956688459 -0.00165268617123 0)
(0.00173340370498 -0.00160036488056 0)
(0.00157464707202 -0.00154978355949 0)
(0.00146041106415 -0.00159170537145 0)
(0.00138797235862 -0.0016430613202 0)
(0.000996592133723 -0.00119978909457 0)
(0.000707971049384 -0.000800614729974 0)
(0.00061102573846 -0.000706604328322 0)
(0.00047723872298 -0.000653609342704 0)
(0.000344686698286 -0.000621536744281 0)
(0.000234550045795 -0.000623277466195 0)
(0.000149007647414 -0.000580353931132 0)
(8.79679761945e-05 -0.000477576801467 0)
(3.39440866317e-05 -0.000411131133703 0)
(-2.14396980647e-05 -0.000355434948458 0)
(-6.07473276722e-05 -0.000293413258602 0)
(-7.01820122006e-05 -0.000208010695471 0)
(-6.69196820695e-05 -0.000133110097759 0)
(-6.00394772933e-05 -8.14580522764e-05 0)
(-4.70759734654e-05 -5.93486355699e-05 0)
(-1.54570120793e-05 -4.21517368753e-05 0)
(3.82803630084e-05 0.000688633672433 0)
(0.000207585177113 0.0010074319763 0)
(0.000395763642208 0.00116456794186 0)
(0.000204287313855 0.00060038210709 0)
(0.000214079763046 0.000558728664982 0)
(0.000587613641666 0.00104961413261 0)
(0.000730011519924 0.00112806845372 0)
(0.000831466273686 0.00109155315729 0)
(0.000847027692508 0.000931774789579 0)
(0.000941375012981 0.000829611673754 0)
(0.000693066267956 0.000415873573904 0)
(0.000805792298358 0.000278584974141 0)
(0.000917066092069 0.000276483018957 0)
(0.000991040675605 0.000335194355652 0)
(0.001303132015 0.000565590208785 0)
(0.00158689144672 0.000728982132882 0)
(0.00146384175646 0.000593225393253 0)
(0.00154056427297 0.000577069942348 0)
(0.00177324688039 0.000736722915488 0)
(0.00192129751932 0.000840403646857 0)
(0.00199114617076 0.00084227542853 0)
(0.00206398585394 0.000809325204358 0)
(0.00217349332301 0.000774631365578 0)
(0.00224104760876 0.000702001363351 0)
(0.00234390159287 0.000582284437069 0)
(0.00223104349826 0.000501723711147 0)
(0.00243468079684 0.000454463285346 0)
(0.00234354529236 0.000372733499583 0)
(0.00225963042508 0.00028265293192 0)
(0.00231100299593 0.000235429719297 0)
(0.00263312730769 0.000242036557502 0)
(0.00249082955323 0.000216839196964 0)
(0.00247817175768 0.000351413982169 0)
(0.00295785944933 0.000601119453764 0)
(0.00304039513235 0.000702238890592 0)
(0.00311744322436 0.000686332022392 0)
(0.00318136617014 0.000659889266405 0)
(0.00324276368998 0.000634520195705 0)
(0.00331104949047 0.00060308683346 0)
(0.00338152583133 0.000560134519441 0)
(0.00345002651392 0.000504938481872 0)
(0.00351847948422 0.000443379997948 0)
(0.00358504486704 0.000382756659604 0)
(0.00364514157027 0.000325988439955 0)
(0.00369732922102 0.000271428336986 -1.83909119522e-28)
(0.00374247762937 0.000214972708881 1.83590467454e-28)
(0.0037803082862 0.000151040400913 0)
(0.00380778696908 7.33746711896e-05 0)
(0.0038208581797 -2.33812007392e-05 0)
(0.00381658646373 -0.000142600256415 0)
(0.00379178012189 -0.000285353524213 0)
(0.0037420990701 -0.000450000331635 0)
(0.00366307711637 -0.000632501878309 0)
(0.0035490119822 -0.000830106636597 0)
(0.00339089409081 -0.00104686534056 0)
(0.00317787771122 -0.00129120521521 0)
(0.00290360380204 -0.00155573481089 0)
(0.00257389814428 -0.00180027601568 0)
(0.00221597618161 -0.00195342863438 0)
(0.00189654157653 -0.00191919428889 0)
(0.00168622797193 -0.00174063395197 0)
(0.00159686683761 -0.00164516841601 0)
(0.00153028779953 -0.00166111142219 0)
(0.00144636380098 -0.00174714690803 0)
(0.0013620315071 -0.00172859950314 0)
(0.000761643516683 -0.001037617715 0)
(0.000555883105548 -0.000863963936742 0)
(0.000402087611068 -0.000795255905459 0)
(0.000258199071625 -0.000742389178648 0)
(0.00015190045341 -0.000708472550181 0)
(8.1894870295e-05 -0.000632116392544 0)
(2.38602386498e-05 -0.000539032804451 0)
(-4.02856817422e-05 -0.000473581591347 0)
(-9.4963908577e-05 -0.000401281118083 0)
(-0.000124499657007 -0.000312678889751 0)
(-0.000125186599722 -0.000209049951619 0)
(-0.000121926084848 -0.000128923478963 0)
(-0.000102848413053 -6.67136905344e-05 0)
(-7.52954664674e-05 -2.6859454808e-05 0)
(-2.79232540481e-05 -9.79758549683e-07 0)
(5.74929162675e-05 0.00082347573512 0)
(0.000254889591711 0.00120203873849 0)
(0.000325389958823 0.00116869748843 0)
(0.000195949629084 0.000658555261416 0)
(0.000329691803349 0.000774301308016 0)
(0.00064288375616 0.00123232861455 0)
(0.000662727923354 0.00121943669416 0)
(0.000811576325831 0.00117629704086 0)
(0.000697606878143 0.00087674650363 0)
(0.00096471624004 0.00092291493828 0)
(0.000676083501915 0.000443843612106 0)
(0.000837754151984 0.000385588154391 0)
(0.000908833150184 0.000387746190743 0)
(0.00108415502785 0.000548520558686 0)
(0.00140065713809 0.000827678528387 0)
(0.00155498311771 0.000825556056759 0)
(0.00141440297615 0.000636313318935 0)
(0.00157626812355 0.000729404638271 0)
(0.00176838394899 0.000895044001893 0)
(0.00187208823327 0.000946891035294 0)
(0.00196337742463 0.000928330277621 0)
(0.00200373500389 0.00087705925232 0)
(0.00209143233237 0.000834511410259 0)
(0.00210733597715 0.000748077381773 0)
(0.00207370275912 0.000577272042043 0)
(0.00230600535545 0.000545062564227 0)
(0.00204161303193 0.000463877622481 0)
(0.00249941624858 0.000418634874784 0)
(0.00218565446839 0.000329540570832 0)
(0.00262232106253 0.000362145900935 0)
(0.00228916662856 0.000284930399712 0)
(0.0027019309643 0.000335621591979 0)
(0.00281448657841 0.000558858980435 -1.69454427243e-28)
(0.00297328489362 0.000764978567438 1.8479143422e-28)
(0.0030329583596 0.000790304098149 0)
(0.00309641050681 0.0007616227784 0)
(0.00316459037213 0.000730466370168 0)
(0.0032294974556 0.000703082460801 0)
(0.00329910935453 0.00067307333802 0)
(0.00337211395928 0.00063206904978 0)
(0.00344452922574 0.000578068680054 0)
(0.00351538011798 0.000515982479337 0)
(0.00358373719343 0.000451679270532 0)
(0.00364750844339 0.000388309938924 0)
(0.0037057914152 0.000325934151211 0)
(0.00375803531398 0.000261423146678 0)
(0.00380292661505 0.000188444939378 0)
(0.00383734003923 9.92249110361e-05 0)
(0.00385740991 -1.23162511343e-05 0)
(0.00386020528898 -0.000149580120211 0)
(0.00384260571052 -0.000314100506978 0)
(0.00380006395705 -0.000505721021877 0)
(0.00372682204348 -0.000723145399877 0)
(0.00361366042148 -0.000966816203967 0)
(0.00344738656148 -0.00124053670173 0)
(0.00321605665422 -0.00154528576442 0)
(0.00291510709973 -0.00186339092871 0)
(0.00255264131319 -0.00215079051608 0)
(0.00216382930551 -0.0023114797706 0)
(0.00184379279054 -0.00215978069357 0)
(0.00168649171045 -0.00182968482502 0)
(0.00163755079312 -0.00168412596667 0)
(0.00158693374331 -0.00172254560508 0)
(0.00151101125578 -0.00182989302467 0)
(0.00147350336724 -0.0019036474908 0)
(0.00111055853708 -0.00157531298417 0)
(0.000544588670633 -0.00104032294956 0)
(0.000307306037723 -0.000965911735369 0)
(0.000173807636285 -0.000881524274662 0)
(7.87497280246e-05 -0.000788724939772 0)
(1.23058529545e-05 -0.000689715991914 0)
(-5.49667183242e-05 -0.000611056739001 0)
(-0.000125310065611 -0.000536808970977 0)
(-0.000176023640304 -0.000440651310991 0)
(-0.00019773956033 -0.000324425745781 0)
(-0.000200293241024 -0.000210905762548 0)
(-0.000192416944266 -0.000115002333827 0)
(-0.000162972745793 -3.48625423411e-05 0)
(-0.000109533096392 2.56663043932e-05 0)
(-3.85318984565e-05 6.43509981389e-05 0)
(7.69127945828e-05 0.00100629709222 0)
(0.000300867470226 0.0013524575406 0)
(0.000296909258216 0.00111636696067 0)
(0.000200312352548 0.00069618556378 0)
(0.000470464110052 0.00111923356611 0)
(0.000565082915445 0.00123455608343 0)
(0.000612602846264 0.00130217301098 0)
(0.000711864605059 0.00122960206815 0)
(0.000588003588843 0.000834525823873 0)