/*--------------------------------*- C++ -*----------------------------------*\
| =========                 |                                                 |
| \\      /  F ield         | OpenFOAM: The Open Source CFD Toolbox           |
|  \\    /   O peration     | Version:  v1806                                 |
|   \\  /    A nd           | Web:      www.OpenFOAM.com                      |
|    \\/     M anipulation  |                                                 |
\*---------------------------------------------------------------------------*/
FoamFile
{
    version     2.0;
    format      ascii;
    class       volScalarField;
    location    "132";
    object      alpha;
}
// * * * * * * * * * * * * * * * * * * * * * * * * * * * * * * * * * * * * * //

dimensions      [0 0 -1 0 0 0 0];


internalField   nonuniform List<scalar> 
6400
(
0.824788206034
1.22560088358
1.86787624239
2.10906088609
2.35808083432
2.65689999824
3.21639418422
3.88162870073
3.94855469007
4.19095928124
5.29165443194
5.70533555531
5.99347341725
6.42812487113
7.15403184869
7.89251886406
8.39358332232
8.88961915288
9.35858877485
9.54911862747
9.41789904983
9.27784305321
9.38771738342
9.83563117721
10.3775116022
10.8153892836
11.0519389609
11.2442062042
11.5454469625
11.964546665
12.4513990196
12.7017411439
12.6657056773
12.5442129556
12.3366936077
11.8895078942
11.6257346638
11.898338796
11.5954764463
10.899167222
10.6381246192
11.0146538224
11.4580636987
11.6620765669
11.7146267223
11.6456635554
11.5395125929
11.4701419694
11.4343740268
11.4241748161
11.2441651692
10.3505254485
9.60728451977
8.81559034278
8.58554640744
9.23881596195
9.30817637358
8.12905489178
6.65389268973
6.24903701355
5.50325582989
4.64683214609
3.78380698649
5.55389405983
9.63973861651
14.5851452784
17.5758983201
17.2762703847
15.2512763165
13.5328629699
12.5369311418
12.5834013107
12.9896673583
12.7858151911
14.7334670877
14.1387951333
15.9800180672
9.87527803542
12.8688628592
4.81065940128
3.07119488417
2.36756618322
2.8858697774
4.06809213002
3.67763556691
3.19912122275
3.14413323885
3.36850315141
3.74507412367
4.25453459263
4.92420388827
5.59239164353
6.15135697306
6.68456766201
7.20666470314
7.82902663018
8.4798560541
9.17006792019
10.2797709255
10.2350245572
9.79589157863
9.52385330997
9.45386901255
9.80617649129
10.6790340165
10.9501545758
11.1078693972
11.3921127561
11.7406993177
12.1220683946
12.5325684349
13.037628564
13.0147403804
12.9313971565
12.8471701918
12.0991993067
12.0371908264
12.3023058111
11.7978203567
10.6852568127
10.3270699617
12.9796520276
14.4386588624
14.4682556281
14.3815040612
13.9712994278
13.3820436219
12.9445391358
12.2660972407
11.7373670453
11.7921910655
12.5910753957
12.5750593086
9.03856323903
9.1506263878
8.98962913318
7.30554132747
6.26499249455
5.47296220126
4.69030653449
4.11839737834
4.95691093378
3.93672924672
5.70478250646
9.67652597775
15.4898777533
19.2092540814
18.0160400115
15.8263556947
13.8382570583
13.0039490381
13.269772792
14.2249360262
13.5811441323
13.3648683118
12.7967683574
11.5714939428
9.72112123662
8.17022723367
4.25405994082
3.01097533899
2.53138099429
3.00886907852
3.03939641544
3.22418447875
3.49139375191
3.39822571236
3.32733814732
3.6804167833
4.24170202521
4.8962013527
5.5835625466
6.19900999505
6.7497935842
7.14352617287
7.70329119892
11.0945348298
13.2850078818
13.4695466874
12.3394921012
9.6911482159
8.91149302803
9.70475249402
10.1225386058
10.4147678052
10.8688315081
11.257628472
11.5507064916
11.8779876618
12.3024262789
12.62811832
13.3498354692
13.4203974811
12.7577072023
13.6364142846
12.9379077641
11.8580347657
12.8363238062
12.2108114293
10.9578725003
10.5370551702
11.0181123275
11.562948242
11.8139328547
11.8868830956
11.8576212449
11.7568381529
11.6029210015
11.394545793
11.154110478
10.8801637397
10.4948889275
9.95617144375
9.75282026897
9.74367859254
8.42185328766
7.18747484647
6.30216260281
5.56358944688
4.92438432322
4.48336429226
4.02383722011
3.79037604424
6.37254026753
11.6025342146
16.3142736938
18.6263449513
18.7334113427
17.108412305
15.3657040098
14.5682272943
14.3639767221
13.6252317715
12.964100245
12.8731006651
12.4771709851
11.4623436591
9.82792288079
7.38855737242
7.56936788577
2.74681552066
5.27933540958
3.06248988076
2.9707383946
3.58237471035
11.6600751523
9.95819755736
4.22047120697
3.7120556348
4.27931193416
4.91933190326
5.60701137636
6.20264216932
6.87760031343
9.00590031654
11.4122276798
13.0625008905
13.0990864287
11.084504608
9.10102134695
9.01919809233
9.19539595362
9.45018377747
9.93641048988
10.5061771305
11.0475591479
11.5043753433
11.732912519
12.1701262379
12.3824094355
13.15323992
13.2447600663
14.1108269986
13.7265289461
12.5447687637
13.2579924145
12.3342863022
11.2680578976
11.0290200929
10.9141178609
10.9223871306
11.2144994904
11.5864798798
11.8266264921
11.9296335632
11.9268696788
11.8431447426
11.6977323098
11.4994441323
11.2590459305
10.9747843226
10.6309773775
10.2330388609
9.82533923081
9.2509538199
8.33910093003
7.30414205123
6.42361737443
5.73851422932
5.22023460952
4.85517050246
4.59533856335
4.77358675869
6.81738017052
10.744953095
16.560950986
20.1519142667
20.3443736388
18.6541016802
16.2677431116
14.5907390999
13.7043717143
13.7798250131
15.093527765
14.9724145314
13.6056502933
13.425190882
16.6921432324
13.0839220504
11.0921991319
5.19340865226
7.24836845293
3.43872963015
3.76365546964
6.05118839659
11.536816555
7.5716105114
4.25289712605
4.17961099114
4.49687250035
5.07493895678
5.80668778861
7.33795560188
10.1246396498
11.075403148
11.1715512415
10.5991751642
9.49147940081
8.79917154132
9.1711729406
9.17417982781
9.11868980072
9.49312849141
10.0426238273
10.6679263797
11.289435147
11.6349867761
12.2211798021
12.2682238793
13.1264236439
13.0647307083
14.7484105409
13.8987479386
12.8418184955
13.1725669283
11.8918963584
11.3792487432
11.1601408188
11.0977854299
11.0992911522
11.1621532367
11.3670868527
11.642884533
11.8620345704
11.979955728
11.9959151571
11.9267937508
11.7926311221
11.6083185626
11.382502932
11.1129840827
10.7943843624
10.4241436965
9.97357896562
9.32437229959
8.42141159292
7.44840362594
6.62746091782
6.03374705089
5.64223734329
5.4194768001
5.40639322565
5.95940720534
7.21373386484
10.4749333322
15.9163828064
20.1420172025
21.5329798851
20.3232620916
17.5233943462
14.9976452269
14.6000448194
16.7632612259
17.5691584859
16.4760286731
15.5089796371
18.1086347434
21.0932676436
16.3814729372
15.4809217515
9.55262016879
8.65167818714
4.24988113292
5.1379167406
11.7862297979
11.1868917756
5.25570772379
4.65307810749
4.69705359783
4.81898802043
5.42824456172
8.56200473347
12.1598496547
12.4023944792
11.7368322071
10.1063670348
8.79702002842
8.4185390801
9.32129233838
9.21000981406
8.88824749223
9.1378337461
9.64143090138
10.2839117503
10.7771029236
11.4300562217
12.4241294426
12.2365129347
13.4732350404
12.9820809692
15.2220299981
14.1714838132
15.548603062
13.6364362038
11.8112454144
11.2306455169
11.1668677057
11.1972075597
11.2390013561
11.280422517
11.3647461345
11.5319156548
11.7491400333
11.9432337781
12.0612629585
12.0877815073
12.0297105752
11.9085321559
11.7446365261
11.5455091342
11.3053991264
11.0126267675
10.6442765406
10.1474605047
9.4516460344
8.57777441189
7.69232679409
6.95658856639
6.41876698398
6.11505754643
6.03557927893
6.43510890282
7.95031584486
7.23183264234
11.631411602
17.4605983378
21.2460036472
22.6545816972
21.6854538357
18.2846464277
16.0835675752
17.8508111465
20.001330868
19.4180243143
18.3616689783
18.371059286
22.8630450048
24.4102104298
19.3580643653
19.1384744945
11.5983667991
8.14744567071
5.17200222494
4.93746607756
11.6302601176
7.48566201717
5.03894627322
5.10817607924
5.17147433655
5.87865481829
6.15944022427
12.1774663223
12.5872235242
12.4405919653
10.4988200707
8.48997370108
8.04228256809
9.55267494322
9.4059571358
8.6903904773
8.88434558078
9.24188258141
9.74316678813
10.3805169597
11.2882287041
12.2780384779
12.3371614556
14.0524533728
13.2527251769
15.7341425283
14.4821147456
15.9525649122
14.3547258558
13.2695204442
11.250550131
10.9806539804
11.1559453766
11.3116414352
11.3879993783
11.4492004962
11.5510520899
11.703475214
11.8882056352
12.0605499975
12.1733380722
12.2034492137
12.1547438375
12.0514130946
11.9161623606
11.7527946514
11.5478328263
11.2772826795
10.9024393764
10.3725507483
9.66218646876
8.83447905853
8.03140008791
7.36069589535
6.85003452719
6.52688399163
6.58142436095
7.11945682607
7.47489262506
8.10710460782
12.4819107165
19.6774520764
22.3727569056
22.8047752359
21.7128698928
19.4306618421
19.2384282507
21.8095983658
22.2013409067
21.2938731586
20.6328622301
22.4982563072
25.1542713098
26.5753295291
21.9115639526
20.7301622218
11.1396999414
7.35437431309
6.18216825293
11.5799280838
11.5602633557
5.76559706124
5.55005741865
5.61206172644
5.86318757158
6.37695250256
12.0151838275
12.8564080636
12.6889741186
11.9170197803
8.76883433922
7.67897979318
9.53162457924
9.82269317069
8.76677273737
8.49063068653
8.93886268793
9.50661520468
9.98291910164
10.7213802442
11.3157456531
12.8565508354
12.4892424994
13.9108883225
15.6616833833
15.6988770668
13.8371117712
14.9539795328
14.7719308327
11.6983084398
11.0913487491
11.0729070878
11.2478370432
11.42900153
11.5358057816
11.6162597116
11.7312085528
11.8846591594
12.0539624539
12.2086502433
12.3127521091
12.343203506
12.3054217962
12.2262995657
12.1277054038
12.0068800651
11.8405323509
11.5915771956
11.2119039262
10.6646008034
9.96324043397
9.18903771142
8.4419023158
7.75761555101
7.12756785283
6.71679752966
6.89915209516
7.54985544716
8.35703442296
9.43366909383
10.6298772556
19.358648628
23.7653052944
23.9342857602
23.3873665901
22.5374907261
23.5213237663
24.9116196595
24.1710458488
23.4068289738
23.502450985
25.6872176748
26.2376085798
26.7661385412
23.7840431226
21.5487949976
10.1551569618
6.84642362341
6.82459108784
12.4585153303
10.1051573903
5.9624651971
6.1037988521
6.26632048848
8.05728725695
6.27485129659
12.7882273747
13.2481732138
12.6506630445
10.2286387558
7.90556473922
7.7872797252
9.68189267127
9.30242649697
8.51248096087
8.51618375908
8.9100393354
9.66029624897
10.3132480314
11.6778994185
12.9540826422
12.5977663899
15.2214706349
13.3554617673
16.0716951698
14.0948589099
16.2194124097
13.4902968859
12.3323331534
11.4337319625
11.1886993973
11.2291694216
11.3686203114
11.5436112677
11.6811186971
11.7919653114
11.9205809857
12.0767610194
12.2407628271
12.3839965054
12.4771514775
12.5070759615
12.4851951278
12.437910071
12.3824697566
12.3095096945
12.1854148855
11.9602526387
11.5813935065
11.0301924675
10.3500848533
9.61878190063
8.86847419932
8.03149376386
7.08169805986
6.49552730829
7.01822268603
8.35574783421
9.71179075932
10.8179142148
11.7830029232
15.3132152403
23.6364127714
25.299384152
25.5286764231
26.4327615062
27.6790585554
27.3591674182
26.2798156618
25.9649598394
26.7789841114
27.7763986836
27.4582264923
26.7289831292
25.5809883925
24.0765146635
9.22979485832
6.9182988543
8.05035980406
12.4304024287
7.33161804541
6.98678588865
6.65254515385
6.90572274516
10.869339814
9.30259393635
13.6131718789
13.4189033236
12.5932193939
9.08377720372
7.70471388237
9.8017710576
9.96844470076
8.88942480497
8.4284972383
8.70954166983
9.02430564358
9.71604412545
10.2131126286
11.8675696006
14.4989848965
12.3535901009
15.0750499176
16.1721293775
16.2983636707
16.5335036001
14.4362431967
14.3277868443
11.6622837374
11.256690693
11.3222480345
11.3918345311
11.5012685455
11.6577902338
11.8179218999
11.9689811589
12.1237719158
12.2870137785
12.447857206
12.5834186032
12.6685498864
12.6978178348
12.6946952616
12.6872983752
12.6828696703
12.6625995068
12.584371828
12.3867250602
12.0144353546
11.4683466261
10.8117678489
10.0919997057
9.22062563817
7.96889206621
6.41813277671
5.88100154943
7.43420002959
9.61853998883
11.3187216356
12.5909027279
13.6113126972
13.7750196269
15.0950978
26.9765293338
29.8541532267
31.2296519159
31.299340696
29.9012099173
28.8952324929
28.9977986294
29.8945451424
29.9568954571
29.4691589367
28.965784701
29.1388509232
29.2154644024
8.74867978203
7.47768826506
11.8559590627
12.2958713193
6.89034502969
7.65521245664
7.15738218431
8.00215987543
9.95205662419
13.1562499706
14.2661887101
13.5257357002
12.6368281117
8.68469294662
7.74941122562
10.4387768024
9.92206932827
8.72331492237
8.42427875826
8.86123108355
9.53613063736
10.0197841178
10.4026292626
11.3807112318
14.6005497982
15.7814552853
14.1161071699
16.3565393481
13.9508656871
16.5916092294
16.5109715697
14.1055790208
11.4612323744
11.3525794737
11.4927034739
11.5670619553
11.6561596212
11.7911973865
11.9516266456
12.1409382825
12.3377053668
12.5164470473
12.6767197175
12.8068792538
12.8862381755
12.9188298563
12.9389662051
12.9756040665
13.0269516213
13.0642590915
13.0362650079
12.8701320917
12.5107300378
11.9775583923
11.3358603776
10.5525827427
9.27278430473
7.08338280496
5.15912010458
5.72171442523
8.75961479688
11.5914016241
13.4400679739
14.6936573908
15.4484993692
15.5463945404
15.1787062642
17.1415672954
31.4222884349
36.8517796917
35.6994260222
33.3336386574
32.378833791
32.5852998129
32.9974371521
32.9338938953
32.8755664845
33.0799194432
33.4486781079
34.0169700517
8.67524353075
8.15537996064
13.3852457744
12.6501219401
10.294039294
8.75377030484
7.83603460366
9.57929099472
8.96563848364
14.0745106645
14.7182951114
13.6783784699
12.4205716027
8.94209695343
8.53252267707
10.9759803933
9.78159420281
8.67894555532
8.52194795305
8.89143325545
9.75480786662
10.4352370003
12.5431072978
11.5176384853
13.9306079377
16.1553974114
13.6367179598
16.6837504875
17.1067440197
14.9135375993
14.8484515492
12.2100788425
11.8247359218
11.6741711028
11.706142389
11.7757558652
11.8497166999
11.9629482499
12.0921025097
12.2877548888
12.5440879326
12.773001902
12.9367530501
13.055978674
13.1318902217
13.1738899494
13.2218394163
13.3040162117
13.4119184574
13.5085401815
13.5310711904
13.4007392934
13.070499495
12.5581746514
11.8881195362
10.7878850165
8.3968397673
5.33033589705
4.25912870238
6.71037911044
11.1384556771
14.2828247197
16.1232459551
17.3696757236
18.0361451897
17.9610738329
17.5001950696
16.5899967933
27.3918506264
37.8096920618
40.7084002144
37.9548310978
37.0103894938
37.0751680466
37.1781222256
36.9265058709
37.3243038688
37.6996364554
37.301903361
37.3491096602
8.99264869456
8.67190958178
12.938570133
12.8858705867
12.7987840954
9.58491066407
8.65289163594
12.7676877623
8.94292489508
14.9110074513
15.0592662738
13.849902267
12.232605651
9.27986187546
11.9855930819
12.0949778821
9.76383994135
8.77636287661
8.75138694289
9.05436961119
9.72124597702
10.360128016
14.1789792482
15.2500673952
13.05778099
16.264730795
17.017195118
16.037708763
17.0870522942
16.9922858539
15.5200949542
12.1136951471
12.0249396868
11.9974803532
11.9650761415
11.9935496647
12.0331679357
12.1671126897
12.3140634957
12.4620462993
12.7212073006
13.016546551
13.2260953543
13.3429530065
13.4113169648
13.4664450331
13.5472078321
13.6744712905
13.8337135167
13.9812137257
14.0477138173
13.9628396345
13.6914688622
13.1907276598
12.3503589334
10.3969641088
6.47928001264
3.34114780282
4.01666972709
8.9607398158
14.4093837973
17.7205074724
19.4714828987
20.8279058336
21.185122167
20.2882476133
19.2853600902
18.4916173643
23.5704306895
34.9517597639
42.0588208067
43.2680503457
41.4179036367
41.6140416915
41.5396877982
41.6329955587
42.1846338418
42.3205897714
41.9066646314
41.8702261198
9.3633396925
9.18250427112
8.94068153925
13.0696772531
13.1273435651
10.025236733
9.41980037598
13.5442635466
9.27372459516
15.7320129819
15.3416034007
14.0274077903
12.1774730054
9.39124894258
13.2062315712
12.3527978362
9.90663533538
9.02671759041
9.04261497939
9.40164207472
9.8109080063
10.2886374917
14.8387731162
16.192107535
13.2328455784
16.4066888751
17.5272702328
14.8167792362
16.7035616228
16.179330262
12.7782112808
12.4812682693
12.4382806701
12.3383362951
12.2322911217
12.2804337383
12.3010183591
12.3284051155
12.5099896805
12.7128996079
12.9450613907
13.250591846
13.5126399815
13.6600928475
13.7340425622
13.8044680609
13.917567251
14.0809983872
14.2838590005
14.4723399692
14.552455818
14.5319310093
14.3689219232
13.8784508418
12.5873478058
8.79358977753
3.40916572001
0.282427665435
5.6748046897
12.8723338436
18.7997214452
22.1096048137
22.2421506716
20.9536493725
17.9244632861
15.4910212138
14.0050454844
12.8771138152
10.6880190448
13.8624880474
41.6971357718
45.3944699934
46.5964678608
45.6671254453
44.9787061944
46.4813993056
46.9781247764
46.9799951792
47.7528057095
48.0984726221
9.89553378169
9.93551182004
13.6329468279
13.5147439119
13.3330399885
10.3581689575
10.3295291518
14.1047966016
10.0609352913
16.3999133132
15.5808667305
14.2037061686
12.1694076961
9.62430871587
13.3506601336
12.2096149025
10.0628830136
9.3176499584
9.3283208849
9.64461079953
10.0375281269
10.4209272018
13.8941730673
16.9389928887
17.0643454036
15.3471226867
17.674421312
18.2633962135
14.2766803555
13.1419886577
12.5829882067
12.6372242182
12.6541969115
12.6081225288
12.5852318661
12.5496472808
12.5623632177
12.6249434101
12.6978646767
12.9335263063
13.2181598726
13.5247428309
13.8053005816
13.9897552772
14.099364207
14.1897453332
14.3251317438
14.5447555081
14.7954200976
14.956071311
15.0011693715
15.0734900086
15.0671024673
14.4728994212
12.0613152388
6.20117271851
0
1.4416058376
9.63071704007
18.2292249165
23.0499993904
20.4828456447
14.0090542017
3.94758797225
3.95060165823
5.81235276033
7.75256309837
9.03917072502
9.75285846601
9.49635595118
6.09504505134
30.8782887286
49.7917617963
51.2608853886
48.4775492554
49.9132906637
52.1570093646
53.5492877856
55.5633930085
55.7521796375
10.3537108674
10.5260881904
15.1250190595
13.8825466143
13.0137915037
10.7295731786
11.257476659
14.4714388679
14.4830563652
17.1684796395
15.8341272582
14.4338892149
12.1792296318
10.0132332762
13.4914513097
12.0281146927
10.2522541687
9.62820936906
9.58800562258
9.8392394594
10.2258836649
10.7584912696
13.0385025042
17.160044872
18.4569204307
14.3981120671
17.260718264
18.0603032048
17.2368187442
13.9783263564
12.7727288953
12.8377226079
12.956752847
13.0173938719
12.8265179763
12.8335359982
12.7996802085
12.8824738971
12.9687303782
13.1650904875
13.492874664
13.8392241381
14.110736189
14.3005812526
14.472722976
14.6922026553
14.9269220998
15.1836364553
15.3296758422
15.4093750348
15.5073539105
15.6174713167
15.8715101655
15.2839853286
10.1936151215
0.0681788832791
0.00689181059149
6.53525054808
15.3181189116
19.559861987
13.0633198327
0.150947204615
0.010640337728
0
0
0
0
0
0
0
0
1.47988952286e-06
0.000499136098829
0.0746601213686
32.3793796936
56.2292857244
57.1902863052
60.2327347515
65.0857456661
64.2659143345
10.7045602407
10.9062651329
17.4339156062
14.0905874544
12.3181128352
11.0776440475
11.885740975
14.1508374686
16.030570674
18.0522306864
16.2123654815
14.7606581884
12.3884105325
10.7427855685
13.8455436463
12.0212420523
10.5501427367
10.0084359177
9.88894091197
10.0675960631
10.3925803634
10.9017708761
12.6424123257
17.009840116
19.3898028709
18.3665273245
16.4913741563
17.3627722501
16.5352636418
13.0698674094
13.2381902236
13.3777492099
13.6358508471
13.4741694619
13.3049771532
13.1002749481
13.1413246408
13.1314293762
13.2500487629
13.4419762788
13.7418602612
14.136457428
14.5487553318
14.769468848
14.9914107512
15.3285790147
15.7102250368
16.01402002
16.1521721292
16.2911496264
16.4666103855
16.6580227827
16.6415461533
15.9306316924
10.4729899538
0
0.45140386357
9.76408301756
9.2119023331
0.0468831443874
0
0
0
0
0
0
0
0
0
0
0
0
0
1.90683748117e-05
0.000189485772988
0.0041539387005
0.201418743509
56.5061370078
69.134337175
62.7935110882
10.9569208152
11.1446950932
19.616055184
14.1903921695
11.9709718451
11.4222623108
12.6805328023
12.8769651417
16.988458491
18.6667861713
16.5888193992
15.1016398851
12.8231697942
12.9741368693
14.3278704023
12.2762019719
11.0675945827
10.6229477002
10.2998186371
10.3900285693
10.6193978005
11.0616993564
12.5046405321
16.8748695234
19.7334088734
20.0211550996
15.1717491472
15.414098061
13.9095970581
13.1655333818
13.3941509359
13.9348743659
14.1286743342
13.9081126527
13.7221497311
13.8100934511
13.492407944
13.4577873372
13.5251246572
13.6728629151
14.1076884528
14.5565559725
14.9704557994
15.1496335084
15.5537437093
17.7312912625
20.6759311577
21.5997491942
19.6777271976
19.5233687579
19.8605523559
20.4737416272
20.893289564
20.7312353268
19.6878836623
0.00338304951204
1.32806666933
0.0557823502651
0
0
0
0
0
0
0
0
0
0
0
0
0
0
0
0
0
0
0.000294600412621
0.00199498533523
0.367891836051
61.7926138836
11.2160156394
11.377136921
19.2614168676
13.0204165326
11.8235994508
11.7002342227
13.5710785629
12.4227752845
17.7642969389
19.2667327675
16.9677316453
15.4335080579
13.1290543208
15.5579445308
15.0460553749
12.743594513
11.6857143196
11.7717790109
10.9406056466
10.8894894647
10.9573831854
11.2299453597
12.5461613815
16.7248375269
19.5625274991
21.1356672587
19.0875707071
17.5849412507
16.0108313213
13.5476911741
13.7418417251
14.8538126196
14.339936491
14.2764173036
14.787632061
14.2570113101
13.9708491246
13.9097428145
13.9689250223
14.0969963066
14.3103318654
14.8476259414
15.5327349355
16.8855421865
18.9360529791
21.7163705101
23.7273971477
23.6709994008
24.0164658161
25.7113436776
28.1623576651
31.9400229031
33.8632270121
34.5510061842
31.2928318316
29.53479174
0
0
0
0
0
0
0
0
0
0
0
0
0
0
0
0
0
0
0
0
0
0
0.000906480720441
99.9954662173
11.5879340824
11.7408198875
18.6638032849
12.159504191
11.9115392726
11.9023637565
14.2884144362
12.6244146092
18.3634334207
19.8511058917
17.3558103035
15.7933517456
13.4018925285
16.1122797031
15.6894123537
13.283600143
12.2828045511
12.551233064
11.7350735296
11.6244496991
11.5403156994
11.3844749649
12.7759060389
16.6902190557
19.2439458919
21.5014327012
20.353147324
17.6958466082
14.0326038984
14.0986333387
14.4792678311
15.5398004705
15.7553144445
15.7347428306
15.5903312101
14.7408492226
14.4849652395
14.4807199688
14.5164489416
14.662472332
14.8527946415
15.4811255522
16.8429715617
19.573565932
21.3161331321
21.5384932014
22.6497171906
23.7386686887
27.8546323241
32.6521319935
39.6198637276
44.5214284013
45.1092337064
45.4299195081
42.0776440106
23.3011711992
0.0791364091819
0
0
0
0
0
0
0
0
0
0
0
0
0
0
0
0
0
0
0
0
0
0.000152337133826
0.000201555942209
12.2319889156
12.3903267787
17.9633160309
12.0854237054
12.3568661137
12.2191667122
13.8518855366
13.2719376956
18.6930052404
20.3848000475
17.7833620831
16.2138018027
13.8330451956
16.6438357692
16.2981405935
13.9778114185
12.9807879043
13.3350417622
12.4850358861
12.5165491283
12.4782756743
11.7370397579
13.2398935431
16.8093042926
19.086165663
21.5953058727
20.7664059913
17.8767844425
14.1441890713
14.2093848321
15.3799889748
15.1097485947
15.069085392
15.4561788644
16.570385762
15.7121580471
15.3937597101
15.0588804901
15.043886071
15.3300080868
15.6752505235
16.3447798523
19.4991220047
22.4028843657
22.3609227678
22.4880208311
24.2184103409
29.660970863
36.6088525219
42.756654178
47.5536057303
43.9482574765
34.2556919703
1.3351209705
0.00837716808338
0.0169798408171
0.00260746994366
0
0
0
0
0
0
0
0
0
0
0
0
0
0
0
0
0
0
0
0
0
1.12596846425e-05
5.11269194327e-05
13.2772189817
13.3567777683
17.8416448043
12.8269245754
13.5130888503
12.9212522142
13.7069850278
14.7507602219
18.3504312409
20.6905111611
18.2862349796
16.7206655909
14.3970846371
17.2502038415
16.9412742207
14.8750568553
13.923945055
14.322210423
13.2311248789
13.5331581464
13.8185337419
12.4125599078
13.7014362568
17.0672956343
19.1011241966
21.3445610827
20.922478865
18.1252119244
17.0830713321
15.1742810806
15.9112034463
16.5777566703
17.5321199955
15.8798565356
16.1402017973
16.9170597364
16.2480113489
16.2286514921
15.964761808
16.0012951277
16.4501047012
19.2404489914
23.6645794879
24.5611138913
23.8790453906
25.5394304726
32.1405139272
40.9676176726
46.9555423843
45.6906184754
36.6628146886
10.8070385338
0.0952395852908
0
0
0
0
0
0
0
0
0
0
0
0
0
0
0
0
0
0
0
0
0
0
0
0
0
0
0
14.8311638221
14.546690572
18.2289951784
14.8158250659
15.625326766
14.0547423148
14.3865757804
16.982143885
18.2030393787
21.1130037497
18.9358325917
17.3314059977
15.0795755262
17.8886728424
17.5785390616
15.8923911027
15.5050378447
15.6801088583
14.0564542903
14.699969669
15.530262981
13.5228970602
13.942072773
17.3711145561
19.2822587884
21.0583622415
21.0747852791
17.9935125811
18.268942047
16.9357631585
17.2197621743
15.4724518302
16.154534449
17.6037091152
17.0192110175
17.1897666552
17.1591338799
17.0381370345
17.1566736131
17.118222896
18.8782233905
24.2263320742
27.1543692864
27.0873267608
27.7495920539
32.8854000311
42.2618412352
47.9901160563
37.0606406896
19.7552826953
14.8651152209
0.106501605946
0
0
0
0
0
0
0
0
0
0
0
0
0
0
0
0
0
0
0
0
0
0
0
0
0
0
0
0
16.5302270088
15.6416421827
18.719627195
17.6561338532
17.2863493063
15.4492831901
15.1625135582
18.0284344955
16.6002824593
21.3804788275
19.7214646996
18.0396970887
15.8746035716
18.5442060666
18.1674356611
16.7172705601
17.9914477857
17.3428534138
15.0176743625
16.0840689434
16.9086809355
15.0084883614
13.664924313
17.2272187644
19.3610722992
20.7928173238
21.0583327154
17.9400845274
18.4471107411
18.2660001104
18.3158746702
16.0943926675
16.7012332282
16.8434337154
17.959803778
18.4443052154
18.3635052907
18.1215129174
18.0736365806
19.1304889886
24.1788329735
29.0796561868
30.7824842835
31.3798644378
34.1822183422
40.7594654978
43.4578122565
26.6441594406
22.2948331409
18.8786601862
0.181633252183
0
0
0
0
0
0
0
0
0
0
0
0
0
0
0
0
0
0
0
0
0
0
0
0
0
0
0
0
0
17.2207975357
16.401273389
18.9678681891
18.5392092207
18.189221205
16.8172403437
16.2216246773
19.3537134601
17.4714436172
21.7792579452
20.5104010238
18.8020087289
16.7725800227
19.2368963111
18.7892817282
17.4201199243
18.8426456029
18.2905843163
15.9851496856
17.5080850921
17.4669626184
15.5269697756
14.8399807097
15.0161213811
18.8178588481
20.1945024023
20.7519359882
17.847945517
18.3901105244
18.6401484562
19.1196305882
18.421077648
16.2476978218
16.6201696643
18.0506482216
19.2598689627
19.6838737248
19.8393154296
19.8059991365
23.9521705107
29.8793089237
33.4808880327
34.6391759997
35.9144824507
39.4202317947
37.7006673834
21.8406077505
24.348591065
22.3428191928
0.485532694113
0
0
0
0
0
0
0
0
0
0
0
0
0
0
0
0
0
0
0
0
0
0
0
0
0
0
0
0
0
0
17.0798858404
16.9224928648
19.1298445026
18.581011792
18.7733347311
17.8992810392
17.1630729867
20.6452728155
19.1865454205
22.3210414133
21.3524832548
19.5996123232
17.7631179856
19.9796789586
19.4899509778
18.293484911
19.5120984926
19.122264639
17.0654295094
18.4217279908
16.3791763505
16.0971930792
15.7758912437
16.2307597745
17.2109620244
17.9755094698
19.8056532572
17.7300183759
17.5489491593
18.501674382
19.4363627192
19.7359120714
17.9382187414
17.291532638
17.7813698367
18.9079821057
20.3132523707
21.6064729922
23.3815955316
29.4638415712
34.6139416644
37.1422605319
37.4450787346
37.5526499979
32.1764533914
23.6453224481
24.4245138443
23.2456422463
1.32651151219
0
0
0
0
0
0
0
0
0
0
0
0
0
0
0
0
0
0
0
0
0
0
0
0
0
0
0
0
0
0
0
17.2120435855
17.3044259758
19.3211852142
17.0732875798
18.964306174
18.450449944
17.7906930685
21.0887390678
19.8804569896
22.9202519232
22.2626339734
20.4142492692
18.8618243128
20.7602417307
20.2412574052
19.3138321119
20.2092623726
20.0678577482
18.2617185857
19.7168801245
17.6597752192
17.9288891092
16.9771603965
17.430114077
19.3258508554
19.9150835862
19.3818098855
17.5831508548
16.7594504231
18.4078782521
19.4057421771
19.8545808469
19.7383407271
18.3242882896
19.7735990707
19.6872422687
20.8835031104
23.4075539418
27.8598321403
34.3609120772
38.4483636101
39.6210692112
37.1003724889
28.9459548872
26.1642388909
26.3726389523
27.1147720435
11.312253946
0
0
0
0
0
0
0
0
0
0
0
0
0
0
0
0
0
0
0
0
0
0
0
0
0
0
0
0
0
0
0
0
17.8713896556
17.9480903626
19.4669003378
17.4063560273
19.1018938922
18.6883619455
18.2329188061
21.0996671227
20.3897188231
23.3383316795
23.1954855038
21.1999163842
20.0701615571
21.541159577
20.9750557302
20.3179251963
20.8610070098
21.115991617
19.5162200406
20.9889717559
19.4412957615
20.1877746769
19.8129601375
18.0630711822
19.7497265313
20.8803582734
20.9945581223
17.4709732861
15.8236615142
18.2957429258
19.5118085915
18.9729078875
18.9670149435
18.5447226532
19.6147853332
20.0237504878
21.6302707129
25.3586907834
32.2321937344
38.873508571
41.7001837219
40.26045021
30.036205008
26.952511534
27.8185466072
27.5361449877
24.6350421557
0.319650235992
0
0
0
0
0
0
0
0
0
0
0
0
0
0
0
0
0
0
0
0
0
0
0
0
0
0
0
0
0
0
0
0
18.7195805795
20.1827301986
19.7238594897
18.4107124738
19.5521218334
18.9816457607
18.6628631878
21.0943080634
20.8807454346
23.3652742873
24.142549072
21.9321460261
21.1456094134
22.1227781462
21.698798042
21.0314050007
20.800140205
22.0911326154
20.9075375888
22.0854832431
21.584131479
21.3650181473
21.0678876773
20.6022037885
19.5220006731
20.476332089
21.9134560381
16.3774281821
15.2799620003
17.3195676513
19.4757819967
19.7676083922
20.2844373622
18.4984639748
19.2925323867
20.2682791929
21.9971107577
27.1533901692
36.2948112576
42.972105527
44.4007589297
35.9471553259
28.8979669303
30.2341271755
29.9291705156
26.4275972856
1.36367464895
0
0
0
0
0
0
0
0
0
0
0
0
0
0
0
0
0
0
0
0
0
0
0
0
0
0
0
0
0
0
0
0
0
19.3366831145
20.8297313515
20.3459978912
19.3027367543
20.2046917214
19.4988939444
19.1697033082
21.1896149642
21.3827375516
23.0936843739
25.0066398141
22.6960326584
21.7345516803
22.5951146568
22.5591269444
21.6795400521
20.7428628558
22.7664322805
22.4436326592
23.0293232483
22.8434725693
22.8971504304
21.0001975852
20.9974096413
20.4217332801
22.3168941459
23.2192808606
19.2533798194
14.81799484
16.1069873901
18.8345566303
20.1103127147
20.1106806546
19.1256545167
18.7587069129
20.3880846406
21.9407952379
28.5671502852
39.9611511598
47.0349635694
43.784748792
29.8405992161
30.7711441063
32.7682749216
31.6889345603
15.5766048896
0.0529430600319
0
0
0
0
0
0
0
0
0
0
0
0
0
0
0
0
0
0
0
0
0
0
0
0
0
0
0
0
0
0
0
0
0
19.8086655523
21.1498966968
20.9135040153
19.8994250115
20.8696076102
20.2030189185
19.7696035346
21.4775452732
21.9631329699
22.4022933033
25.5799587528
23.5737307463
22.1515989352
22.3434002083
23.4862165964