/*--------------------------------*- C++ -*----------------------------------*\
| =========                 |                                                 |
| \\      /  F ield         | OpenFOAM: The Open Source CFD Toolbox           |
|  \\    /   O peration     | Version:  v1806                                 |
|   \\  /    A nd           | Web:      www.OpenFOAM.com                      |
|    \\/     M anipulation  |                                                 |
\*---------------------------------------------------------------------------*/
FoamFile
{
    version     2.0;
    format      ascii;
    class       volScalarField;
    location    "127";
    object      p;
}
// * * * * * * * * * * * * * * * * * * * * * * * * * * * * * * * * * * * * * //

dimensions      [0 2 -2 0 0 0 0];


internalField   nonuniform List<scalar> 
6400
(
0.14748563178
0.147487572773
0.147493023658
0.147503300085
0.147517716275
0.147535971175
0.147558219441
0.14758561097
0.147617933107
0.147654799623
0.147701328148
0.147760120424
0.147827444349
0.147903523553
0.147990340964
0.148089986592
0.148202702039
0.14832761996
0.148463734136
0.148606874937
0.148750530078
0.148893912901
0.1490417807
0.149200206967
0.149373828614
0.149562549535
0.149762823323
0.149972401919
0.150191586884
0.150421698898
0.150663975331
0.150917363005
0.151176000296
0.151434310506
0.151691146939
0.151942208982
0.152185670185
0.152431399973
0.152678953179
0.152914990136
0.153141059041
0.153375591785
0.153628626662
0.153891598123
0.154156790767
0.154420066991
0.154678140032
0.154929983799
0.155174964242
0.155412772911
0.155644401436
0.155864679559
0.156068519777
0.156247592574
0.156404029072
0.156551021017
0.156684986782
0.156792677485
0.156871518473
0.156929501368
0.156970538665
0.156995162901
0.15700606922
0.157002748865
0.15698134039
0.156928606844
0.156839501798
0.156728606168
0.156614737044
0.156505397608
0.15640005349
0.156294866232
0.156187211417
0.156083398653
0.155983330069
0.155891124629
0.155810029076
0.155754670746
0.155717899492
0.155702205205
0.147482656056
0.14748466213
0.147489414593
0.147499468756
0.147515351267
0.14753511472
0.147557923166
0.147583824944
0.147614406992
0.14765140561
0.147697628482
0.147755027962
0.147822609051
0.14789982962
0.147987150551
0.148085502456
0.148197588885
0.148323295068
0.148461383599
0.14860632242
0.14874835518
0.148889317112
0.149036075412
0.149193590491
0.149367300995
0.149557008119
0.149757253035
0.149967254533
0.150187538454
0.150418570991
0.150660471175
0.150914018181
0.151174154905
0.151432511371
0.151690011895
0.151941491905
0.152184234869
0.152430479257
0.152678953411
0.152913576477
0.153132951714
0.153364482459
0.153624726072
0.153892135723
0.154159086285
0.154424193556
0.154683636146
0.154937069061
0.155182730692
0.155417666252
0.155643377647
0.155863901822
0.156079942408
0.156261547854
0.156419141291
0.156572054879
0.156702075705
0.156803626428
0.156881986843
0.15694001169
0.156979709465
0.157006050695
0.157018276318
0.157015640804
0.156995359236
0.156944116601
0.156854006618
0.156740725382
0.156624203506
0.15651193105
0.156403633062
0.156295047829
0.156182761805
0.156072852079
0.155970017085
0.155876993178
0.155799019418
0.155742935937
0.155705920248
0.155693229558
0.147474548701
0.147477986275
0.147482004112
0.14749117807
0.147506637324
0.147529224749
0.147554783223
0.147580013165
0.147608678124
0.147644634693
0.147690220847
0.14774692026
0.147814591241
0.147892491517
0.147980092332
0.14807509541
0.148185414212
0.14831882416
0.14846117571
0.148605193955
0.148742820531
0.148876778114
0.149021103667
0.149181469128
0.149355584466
0.149544062825
0.149745608586
0.149957742022
0.150179702369
0.150412193861
0.150654837051
0.150909161358
0.151172588196
0.151429923681
0.15168510863
0.151940807391
0.152182479911
0.152425030261
0.152673939536
0.152910675779
0.153138067165
0.15337423551
0.1536282373
0.153891921487
0.154158060891
0.154423079987
0.154684122476
0.154939519936
0.155187617089
0.155426933932
0.155657328644
0.155878076672
0.156084738674
0.156270723253
0.156442331077
0.156596530014
0.156722822895
0.156823646522
0.156902253656
0.156960894695
0.157002436593
0.157029913473
0.157042357768
0.157043319503
0.157025867304
0.156974281043
0.156884854662
0.156769695288
0.156646510791
0.156526406227
0.156409867481
0.156292499584
0.1561740619
0.156059488589
0.155951683049
0.155855636912
0.155777570403
0.155720217434
0.15568349701
0.15566975295
0.147463793426
0.147467147648
0.147469983766
0.147478380059
0.147491967567
0.147514446294
0.147548681804
0.147573750263
0.147600128041
0.147634228311
0.147678898714
0.147735215263
0.147803164262
0.14788058854
0.147968862696
0.148071269184
0.14818847725
0.148319798503
0.148455058093
0.148586277886
0.148717489383
0.148854594444
0.149000949065
0.149160793922
0.149335683641
0.149525680072
0.149729395441
0.149943934516
0.150168461887
0.150402663844
0.150648036278
0.150904041137
0.151168607585
0.151432919221
0.151683836508
0.151932812695
0.152180772701
0.152420549495
0.152659218683
0.152896991012
0.153133377864
0.15337591968
0.153630142765
0.153892901618
0.154159166191
0.154425216095
0.154688160202
0.154945941797
0.155196846798
0.155439439116
0.155672695043
0.15589509259
0.156103813113
0.15629593966
0.156471343954
0.156625365396
0.156752916284
0.156855038042
0.156934807102
0.156994956427
0.157038146849
0.157066409573
0.157081585853
0.157088913143
0.157076350043
0.15702805649
0.156936709569
0.156814661922
0.15668041695
0.156547926308
0.156420676821
0.156295175681
0.156169175619
0.156042220007
0.155921359895
0.155820102834
0.155741638174
0.155677288812
0.155631928778
0.155612981228
0.147447250474
0.147447301899
0.147450844224
0.147459464533
0.147474566638
0.147495590894
0.147526041381
0.147554644583
0.147583362407
0.147618406859
0.147662569785
0.147718806502
0.14778772529
0.14787166677
0.147969131993
0.148073936389
0.148186536974
0.148305748001
0.148428853597
0.148556471758
0.14868902744
0.148826568906
0.148973460791
0.149134279692
0.149310356674
0.149502306151
0.149708065078
0.149925781288
0.150153273393
0.150391221355
0.150638803401
0.150900125282
0.151172027588
0.151430541857
0.15168087962
0.151926178002
0.152164665741
0.152402974324
0.15264273653
0.152883776143
0.153126408107
0.153374279859
0.153630571317
0.153894119421
0.154161534343
0.154429406016
0.154694817267
0.154955514984
0.155209731513
0.155456005427
0.155692970872
0.155918915753
0.156131621753
0.1563287669
0.156507832298
0.156664085034
0.156794044598
0.156898783473
0.156981338559
0.157044506935
0.157090741728
0.157122205171
0.15714208445
0.157156595832
0.157146093024
0.157101258714
0.157010953518
0.156881809611
0.156732512895
0.156582656921
0.156440896636
0.156302261128
0.156157375854
0.156007953356
0.155872773367
0.155762899968
0.155671731496
0.155586709002
0.155531411626
0.155510864541
0.147415756293
0.147415048239
0.147422099638
0.147430709724
0.147447266831
0.147470333091
0.147497744948
0.147527344781
0.147559238866
0.147596159628
0.147639231298
0.147696704839
0.14777528321
0.14786784941
0.147965773734
0.148065910277
0.148169326655
0.14827945921
0.148398823681
0.148525308642
0.148655071769
0.148791546519
0.148939397728
0.149101950727
0.149279924308
0.149472956522
0.149682348742
0.149903050802
0.150135254055
0.150376808334
0.15063070356
0.150895462065
0.151165640249
0.151431786301
0.151674229884
0.151907580183
0.152142597125
0.152381619667
0.152623999819
0.152869028358
0.153116975153
0.15336985389
0.153629462797
0.153895289372
0.154164958796
0.154435475916
0.154703991428
0.15496818577
0.155226305131
0.155476919496
0.155718581648
0.155949542347
0.156167633984
0.15637015237
0.156553503143
0.156713362083
0.156847438346
0.156956926467
0.157044472467
0.157112670824
0.157163931993
0.157201823654
0.157231695541
0.157249564089
0.157244080316
0.157200932451
0.157109751293
0.15697313683
0.156806555323
0.156635088139
0.156472332666
0.156307867595
0.156130714665
0.155955580932
0.155801912039
0.155673085323
0.155554586342
0.155447066549
0.155381303052
0.155352468401
0.147367255125
0.147370568955
0.147383712652
0.147396934793
0.147410492064
0.147433360397
0.147462895795
0.147493371877
0.147527838908
0.147566918607
0.147613935046
0.147674549945
0.147761371719
0.147854793393
0.147949347339
0.148041681854
0.148138523662
0.148247471278
0.14836686124
0.148487928358
0.148614237483
0.1487509593
0.14889965314
0.149062924322
0.149242711132
0.149441167309
0.14965098223
0.149876545441
0.150113651061
0.150364255661
0.1506238885
0.150888616675
0.151160251625
0.151416899886
0.151654071917
0.15188238676
0.152116628049
0.152357545261
0.152603176242
0.152852312407
0.15310520486
0.153363080091
0.153626878488
0.15389619686
0.154169197202
0.154443228286
0.154715563889
0.154983945062
0.155246719757
0.155502546512
0.155749972834
0.155987154667
0.156211663682
0.156420286289
0.156609085533
0.156774417884
0.156914869778
0.157031572795
0.157126479471
0.15720141375
0.157259515443
0.157307195312
0.157347162646
0.157369450128
0.157381816775
0.15734332466
0.157245453307
0.157095340411
0.156908033089
0.156708941121
0.15651155215
0.156305554447
0.156089003164
0.155884163521
0.155702335816
0.15553918328
0.155382983195
0.155253623485
0.155176388334
0.155138306611
0.147310618325
0.147317567519
0.147333523312
0.147354114665
0.147369243296
0.14739193351
0.147420726411
0.147452699368
0.147490621088
0.147527866171
0.147581748962
0.147654437601
0.147740054312
0.14783171683
0.147919530661
0.148004488256
0.148101149434
0.148212736216
0.148327232214
0.148443241009
0.148567127483
0.148703987566
0.148853870311
0.149019785893
0.149202866199
0.149403983315
0.149619589936
0.149843310372
0.150090965013
0.150354833613
0.15061400742
0.150873568304
0.151143423187
0.151391547171
0.151621101705
0.151851420129
0.152087696162
0.15233095058
0.152579893203
0.152833246127
0.153091059974
0.15335412385
0.153622857499
0.153896718596
0.154174079768
0.15445252665
0.154729498834
0.155002896585
0.155271230183
0.155533259463
0.155787518224
0.156031995024
0.156263904258
0.156479656894
0.15667543033
0.156848399236
0.156997762246
0.157124122479
0.157227872704
0.157309672163
0.157374760813
0.15743240682
0.157483226278
0.157522794424
0.157551372122
0.157537407267
0.157434683146
0.157261835941
0.157043195187
0.156802776175
0.156554788536
0.156295316314
0.156034490293
0.155790399801
0.155566131887
0.155353657484
0.155158987248
0.155005823548
0.154916893112
0.154874761761
0.147249042326
0.147258469157
0.147275031156
0.147291688108
0.147312278038
0.147342178098
0.147370156763
0.147403070709
0.147446714247
0.147488429842
0.147539671231
0.147620841355
0.147709275387
0.147796348914
0.147878333067
0.147963087625
0.148059554415
0.148169074253
0.148279187998
0.148392623482
0.14851482607
0.148650349694
0.148799715617
0.148966926288
0.149160232229
0.149362140571
0.149583824494
0.149818158024
0.150066832439
0.150329735045
0.150596064128
0.150864384727
0.151113276907
0.151351191621
0.151582512365
0.151816169963
0.152055455285
0.152301452417
0.1525537638
0.152811462991
0.153074414557
0.153343026467
0.153617375332
0.153896737012
0.154179477613
0.154463301374
0.154745852976
0.155025261656
0.155300207402
0.15556951838
0.15583167602
0.156084460218
0.156324750245
0.156548796242
0.156753194957
0.156935954945
0.157096465645
0.157233856748
0.157345733007
0.157432212565
0.157505128695
0.157580616931
0.157655648773
0.157717842073
0.157756524812
0.1577683103
0.157692609486
0.157486060506
0.157220379991
0.156921126003
0.156604442851
0.156281016426
0.155967297318
0.155670636197
0.155387168841
0.155115647824
0.154879995694
0.154701510194
0.154596435713
0.154550608745
0.14718180268
0.147193328926
0.147212698363
0.147229286483
0.147250828886
0.147281788842
0.14731049309
0.147343498079
0.147385412942
0.147440953109
0.147496922401
0.147578044357
0.14766737987
0.147749948972
0.147826397237
0.147913968125
0.148014861863
0.148118959445
0.148223877547
0.14833539254
0.148457677948
0.148592873348
0.148742096675
0.14890740828
0.149108205043
0.14932008798
0.149534917127
0.14978075293
0.150034823779
0.150303743349
0.150571535367
0.150834641953
0.151078544883
0.151307367755
0.151539545732
0.151776819787
0.152019564885
0.152268715374
0.152524513302
0.152786629666
0.153054983838
0.153329643593
0.153610328228
0.153896107227
0.154185270874
0.154475558648
0.154764800715
0.155051392516
0.155334170176
0.155611946826
0.155883079404
0.156145118166
0.156394692393
0.156628112175
0.156842603861
0.157036867142
0.157209619937
0.157356484858
0.157470320731
0.157557626788
0.157648080624
0.157761726723
0.157879106711
0.157972531111
0.158023858339
0.158027705496
0.157965449988
0.157788627135
0.157451166263
0.157065611959
0.156662496274
0.156264842551
0.155885390373
0.155520451438
0.155160932136
0.154818706663
0.154530755661
0.154317232477
0.154183471293
0.154123720812
0.147106116847
0.147117559471
0.147138228308
0.147159621691
0.147187781956
0.147213097334
0.147241631635
0.147276353045
0.147311479992
0.147373107395
0.147441023146
0.147522728301
0.147612387893
0.147693799739
0.147769172184
0.147856754137
0.147959532628
0.148060186448
0.148161368483
0.148270119546
0.148392524469
0.148529373697
0.148683423867
0.148848532306
0.149041866795
0.149271578463
0.149496052122
0.149740465786
0.149995224852
0.150253196938
0.150531818719
0.150794417545
0.151031252269
0.151258073072
0.151492431794
0.151733211978
0.151979662379
0.152232415151
0.152491952394
0.152758511203
0.153032447911
0.15331367532
0.153601475029
0.153894632025
0.154191323833
0.15448931324
0.154786607613
0.155081822477
0.155373863064
0.15566142101
0.155942619893
0.156214736509
0.156474260304
0.156717817985
0.156943376926
0.157149827896
0.157332819051
0.157478890825
0.157582533018
0.157677967253
0.157812607156
0.157997988555
0.158182205087
0.158320206198
0.158382318079
0.158356476518
0.158250153076
0.158078096558
0.157744469994
0.157248845162
0.156733181472
0.156245523688
0.155785709391
0.155337934145
0.15488341494
0.154443043947
0.154076773875
0.153807061211
0.153630443246
0.153547464777
0.147020133498
0.147029156011
0.147044250593
0.147072077255
0.147109846329
0.147133752122
0.147162392387
0.147201211284
0.147234987777
0.14729301069
0.147370094087
0.147454314966
0.147543259695
0.147625016783
0.147705955428
0.147795340569
0.147896116622
0.147993246501
0.14809200998
0.1481981721
0.148317639988
0.148452186865
0.148615931478
0.14879446516
0.148981375069
0.149211102048
0.149444932183
0.149683136708
0.149953288475
0.150217899924
0.150483953715
0.150734072495
0.150967988425
0.151201850271
0.151440208614
0.151684708905
0.151935184458
0.152192052929
0.152455825868
0.152726934316
0.153006431981
0.153294654064
0.153590441322
0.15389201941
0.154197440496
0.154504574065
0.154811600623
0.155117243135
0.155420310434
0.155719192792
0.156011582415
0.156294368232
0.156564107998
0.156818035782
0.157054756189
0.157271388308
0.157452858809
0.157577603165
0.157670149854
0.157800488185
0.158027523971
0.158331417665
0.158614019909
0.158815563071
0.158887576092
0.158819124284
0.158627208071
0.158366739589
0.158004895355
0.157448154356
0.156817212234
0.156220321193
0.155666319024
0.155129676523
0.154551668143
0.153952468883
0.153465840239
0.153123231352
0.152905199243
0.152807645626
0.146923523196
0.146930013992
0.14693686546
0.14696862662
0.147006197963
0.147036107489
0.147067821786
0.14711129297
0.147150766639
0.147207092775
0.147288054113
0.147373573768
0.147460905531
0.147539746903
0.147627836855
0.147725823626
0.147823826571
0.147917903978
0.148015198971
0.148120276543
0.148236550792
0.148365223065
0.148527004385
0.148729366567
0.148923222584
0.149137535951
0.149386982264
0.14963194703
0.149889560314
0.150159516231
0.150424331197
0.150668373133
0.150899870799
0.151138499496
0.151381824697
0.151630717677
0.151885462297
0.152146611531
0.15241528782
0.152691711189
0.152976910434
0.153272158898
0.15357657995
0.15388774787
0.154203295243
0.154521267673
0.154840100653
0.155158485237
0.155474858295
0.15578699231
0.156091799966
0.156385599901
0.156665281239
0.15692881985
0.157174728487
0.157392411666
0.15754848133
0.157637452109
0.157729772693
0.157947519851
0.158340672873
0.158825042632
0.159248440793
0.159554015934
0.1596393391
0.159489858864
0.159153536371
0.158715198301
0.158225068314
0.1575979014
0.15688191113
0.156179685514
0.155522768838
0.154925802149
0.154187582629
0.15329346683
0.15262419889
0.152216698378
0.151971117023
0.151884015693
0.146817209906
0.146824779777
0.146836701827
0.146857835897
0.146890320571
0.146924032821
0.146959679501
0.147005266179
0.147054640573
0.147111612149
0.147195014573
0.14728137796
0.1473679723
0.147445204014
0.147533080941
0.147639009142
0.147738655137
0.147832768411
0.147929817659
0.148034827322
0.148149887327
0.148274361422
0.148431090009
0.14864416387
0.148853849182
0.149065065982
0.149319760928
0.149572808041
0.149823922804
0.150091995719
0.150343416884
0.150582534529
0.150822807785
0.151067672706
0.15131639837
0.151570216104
0.151830175062
0.152096069417
0.152369319223
0.152651531938
0.1529433843
0.153246037356
0.153559393546
0.153881052775
0.154208237784
0.154539087766
0.154872324852
0.15520642861
0.155539107587
0.155867110617
0.156185925431
0.15649099912
0.156779670067
0.157050446338
0.157300630664
0.157498261274
0.157596300522
0.157645734561
0.157740099323
0.158182744377
0.158827906428
0.159586880249
0.160192857972
0.160672840751
0.160657779813
0.160294566268
0.159713060354
0.15900895508
0.158310243088
0.157627178748
0.156858854471
0.156086434443
0.155351602895
0.154826805204
0.153909658522
0.152348483525
0.151414675564
0.151025123588
0.150756614922
0.150735129228
0.146698068007
0.146706481111
0.146727372254
0.146739138028
0.146765320755
0.146800100947
0.146838910151
0.146888181169
0.146949882172
0.147006671124
0.147090852051
0.147178098146
0.147264978136
0.147343663971
0.147432165451
0.147540873528
0.147642310028
0.147738012407
0.147835935103
0.147941072918
0.148055945476
0.148179797369
0.148328923544
0.148536824529
0.14877243302
0.148992033412
0.149232827545
0.149506370769
0.149766842818
0.150010636654
0.150251974298
0.150492359144
0.150738029779
0.15098866766
0.151243394268
0.151502861444
0.151767858393
0.152039366783
0.152318045616
0.152605722202
0.152904557112
0.153215468781
0.153538339129
0.153871135274
0.154211265996
0.154557242203
0.154908016678
0.155261784162
0.155615081382
0.155962489732
0.156297568742
0.156614956938
0.156911176969
0.157183364081
0.15742484717
0.157548954869
0.157569652589
0.157619411284
0.157875615759
0.158703012274
0.159614523779
0.160710392768
0.161129029152
0.161238012538
0.161262337579
0.160954634015
0.160281829397
0.159372470029
0.158370153837
0.157383385893
0.156676551866
0.1559693553
0.154861815258
0.155028819479
0.153955068199
0.150853334563
0.149608853573
0.149514476857
0.149126985448
0.149356810107
0.146563564021
0.146570960982
0.146589300227
0.146603072537
0.146626545188
0.146662876488
0.146703104269
0.146751462266
0.14682515533
0.146890123586
0.146974229028
0.147062989482
0.147151404202
0.147234044206
0.147324862466
0.147434079009
0.147536601167
0.147634553402
0.147734020822
0.147839684959
0.147954243462
0.148078744034
0.148223780328
0.14842351935
0.148673889386
0.148909549127
0.149140886001
0.149406403381
0.149677875437
0.149924038313
0.150158151022
0.15039720867
0.150646414604
0.150902705732
0.151163288198
0.151428027464
0.151698503137
0.151975372374
0.152260078558
0.15255390244
0.152859652487
0.153179242939
0.153512455121
0.153857005756
0.154210722627
0.154573823879
0.154946529669
0.155325971106
0.155705063725
0.156075684541
0.15643165185
0.156765152368
0.157068389281
0.157333974481
0.157553695684
0.157519770458
0.157522237413
0.157621152136
0.158346108806
0.159747469173
0.159991038497
0.160350700417
0.160835622153
0.161025423783
0.160920256481
0.160497730199
0.159790345908
0.158917983525
0.158012976488
0.157153992727
0.1563832396
0.155699266782
0.155725977935
0.157386520632
0.157287459353
0.146827081845
0.145598187086
0.147582972735
0.146799171458
0.147932390768
0.14641603872
0.146422374296
0.146440764934
0.146454267817
0.146477323528
0.146513955449
0.146555070534
0.146599785071
0.14667403512
0.146753057079
0.146842016884
0.146933787069
0.147025148341
0.147115367559
0.147208861126
0.147318197683
0.147421759362
0.147522688065
0.147624219063
0.147730925554
0.147845489244
0.147969693986
0.148111989322
0.148302768478
0.148551611889
0.148814997602
0.149053885144
0.149305161813
0.149569150313
0.149812677824
0.150045802139
0.150290767785
0.150545721909
0.150807832534
0.151074689332
0.151345641378
0.151621482441
0.151904059311
0.152194603288
0.152495081904
0.152807983224
0.153135827205
0.153479759022
0.15383737211
0.154205736702
0.154587695871
0.15498653945
0.155397922667
0.155809326911
0.156210263069
0.156596586611
0.156956222064
0.157265897562
0.157486270962
0.15757859337
0.157475620619
0.157462657775
0.157770173886
0.158568802349
0.159279909297
0.159952504894
0.16020879586
0.160455846902
0.16051856952
0.160318896183
0.159862312895
0.159180107924
0.158342205107
0.157432989284
0.156528426793
0.155657018692
0.154884618608
0.15434347466
0.153790384996
0.150407598486
0.147416705211
0.149120288965
0.149886834328
0.141818414214
0.146833788551
0.146257546508
0.146262376077
0.146276506035
0.14629135427
0.146318427117
0.146354908437
0.146398238771
0.146441284176
0.14651385101
0.146601178539
0.146694404356
0.14678862751
0.146881367625
0.146981717389
0.147081398946
0.147190599372
0.14729576886
0.147401338808
0.147505774028
0.147614152988
0.147729271914
0.147852838146
0.147992826005
0.148176641404
0.148421223953
0.148701288846
0.148958242013
0.149203570018
0.149452931584
0.149689495628
0.149924076121
0.150173480221
0.150433751267
0.150701228455
0.150974528064
0.151253112751
0.151536069921
0.151824246065
0.152121187989
0.152428100795
0.152748124163
0.153085120217
0.153440274076
0.153811143321
0.154191806994
0.154591471544
0.15502768431
0.155491611326
0.155944966812
0.156383420635
0.156817228802
0.157230302137
0.157579470699
0.157769552698
0.157567799222
0.157387324139
0.15733240868
0.157557917178
0.158474005484
0.159013339682
0.159447965226
0.15966551709
0.159764996221
0.159695891155
0.159398914365
0.1588689323
0.158131345254
0.157236158997
0.156245662811
0.155218578167
0.154174001721
0.153088214295
0.151929837317
0.150554080945
0.148446857947
0.146673004358
0.146075944999
0.144203206501
0.145707629153
0.153076087448
0.146090331065
0.146093978412
0.146103182355
0.146119803591
0.146150482028
0.146186212485
0.146230914935
0.14627675318
0.14634509438
0.14643653026
0.146532336198
0.146627993828
0.146720078278
0.146824747525
0.146936268363
0.14704790605
0.147155233126
0.14726619189
0.147376229416
0.147487762125
0.147604737912
0.147727384527
0.147865400093
0.148043267445
0.148278510798
0.14855461151
0.148832402311
0.149086210374
0.149330503145
0.14956323558
0.1497942739
0.150046264246
0.150311848918
0.15058132115
0.150862473692
0.151149497609
0.151438400791
0.151733569647
0.152037889692
0.152353155359
0.152680786189
0.153025151323
0.153389879243
0.153777541602
0.154189003703
0.154629555195
0.155106829807
0.155603165262
0.156099194682
0.156610047729
0.157144192228
0.157707153687
0.158248131219
0.158640750272
0.158453363329
0.15696362565
0.157001816124
0.157431521487
0.158112412641
0.158552720876
0.158821391517
0.158925226717
0.15886748336
0.158632419551
0.158193645947
0.157545857472
0.156705867264
0.155706581722
0.154587662173
0.153382676964
0.152110623594
0.150699260973
0.149085999116
0.147248299907
0.145047293584
0.142671036305
0.140867231235
0.139778347082
0.141569736049
0.133219713974
0.145914820839
0.145918044269
0.145925617656
0.14594534502
0.145975705644
0.146008862824
0.14605065043
0.146101589091
0.146165519875
0.146258463341
0.146356118108
0.146453198985
0.146545971331
0.146650284507
0.146771555261
0.146888983392
0.147000182691
0.147115319608
0.147231646227
0.147348783858
0.147470328304
0.147592807225
0.14772888063
0.147902389726
0.148128606021
0.148397504734
0.148682486106
0.148948367162
0.149184540222
0.149413347813
0.149650834888
0.149901924363
0.150170617498
0.15044749882
0.150737045129
0.151031508738
0.151327134538
0.151629974323
0.151942356053
0.152266398963
0.152603546502
0.152957667413
0.153338636697
0.153758343703
0.154215433124
0.154691043337
0.155190201368
0.155718216617
0.156288839047
0.156926623409
0.157657451931
0.158540529102
0.159545524156
0.160981172088
0.161317861152
0.157501765586
0.156419240487
0.157196499268
0.157796161765
0.158007092943
0.158044083254
0.157950334493
0.157702269779
0.157281930517
0.156674266604
0.155872935589
0.154884467509
0.153725579972
0.152416196843
0.150969929612
0.149387792361
0.147602350382
0.145484976127
0.142971563436
0.139975874558
0.136500001594
0.132777491352
0.128335696435
0.123067927873
0.115832612309
0.14572845012
0.14573156016
0.145739539322
0.145763931334
0.145793172259
0.145823363724
0.145860053103
0.145914468731
0.145972805359
0.146065553793
0.146165153101
0.146263895447
0.146358539565
0.146464341043
0.146590569356
0.146714062685
0.146830774544
0.146950619222
0.147071505554
0.147194615894
0.147323227236
0.147447686342
0.147581569334
0.147751813089
0.14797031498
0.148230926484
0.148516623874
0.148788306537
0.149032785679
0.149257206388
0.14949831835
0.149753205876
0.150019308999
0.150293028266
0.150586603915
0.150894254334
0.151200613107
0.151513104862
0.151833289633
0.152165914416
0.152514560305
0.152883108755
0.153291157483
0.153755102933
0.154245338314
0.154741796388
0.155266866467
0.15585893134
0.156558920019
0.157371980462
0.158329123702
0.159507768057
0.160380701753
0.160270296787
0.160277655464
0.15951695162
0.157785304966
0.157444881593
0.15746170312
0.157343854007
0.157111352916
0.156778134284
0.156311492016
0.155684104254
0.154879178687
0.153887046635
0.152705201544
0.15133630988
0.149782740008
0.148038737135
0.146081203778
0.143864414152
0.141201428499
0.137892978434
0.133804765563
0.128665715918
0.121908918932
0.111759386036
0.0940830901652
0.0531292776668
0.145525842563
0.145528654893
0.145538755238
0.145569016582
0.145597596327
0.145625611206
0.145659605129
0.145713875826
0.145766492247
0.145856926288
0.145958416602
0.146058917756
0.146155658716
0.146263017853
0.146392104055
0.14652112172
0.14664557027
0.14677084545
0.146895267855
0.147023475954
0.147160272574
0.147289819747
0.147421219211
0.147588392545
0.147801119723
0.148052512219
0.148332647432
0.148598676629
0.148855783762
0.149092357762
0.149331151135
0.149582608043
0.149854275179
0.150136543028
0.150423333828
0.150734037597
0.15105322919
0.151376911171
0.151709624654
0.152052055183
0.152410531494
0.152802678289
0.153255369907
0.153758725546
0.154266704157
0.154785042115
0.155368546729
0.156082706905
0.156950357955
0.157890600336
0.158813343583
0.159531011163
0.1598860156
0.160120711497
0.159835171965
0.159059164832
0.157865413876
0.157195630474
0.156838784693
0.156459425033
0.155984889268
0.155408783477
0.154706515058
0.153851152709
0.152823140256
0.151608332551
0.150195902579
0.148575960938
0.146734964283
0.144648875139
0.142274467935
0.139540630172
0.136300772986
0.132232242913
0.126998543295
0.120170033015
0.110804465305
0.0968298206149
0.0742998132517
0.0377378236545
0.145299476355
0.145302043592
0.145314096058
0.145350034289
0.145377612854
0.145406934515
0.145440015435
0.145491332651
0.145541175506
0.145630970896
0.14573466964
0.145836921168
0.145935741971
0.146044208396
0.146174296918
0.146306541344
0.146440778694
0.146572881439
0.146701016082
0.146833613584
0.146977520434
0.147116276829
0.147246544704
0.147409398701
0.147618278091
0.147861774845
0.148134560642
0.148393320444
0.148647309989
0.148901242904
0.14915432243
0.149405551927
0.149662930734
0.149947157179
0.150246876237
0.150558740226
0.150885483982
0.151219464089
0.151563676348
0.151919263657
0.152296856368
0.152727174353
0.153227098432
0.153754322855
0.154285533556
0.154856090697
0.155540954396
0.156394315735
0.157348432707
0.158142508541
0.158920878583
0.159237237845
0.159452384186
0.15946523353
0.159113671413
0.158439923937
0.157534878936
0.156728422384
0.156064367814
0.15540401592
0.15467137437
0.153841612741
0.152890815322
0.1517924339
0.150523427563
0.14906404531
0.147395331338
0.14549618976
0.143339044828
0.140883535606
0.138068148926
0.134799074008
0.130939100878
0.126192595876
0.120058501908
0.111973906694
0.101110367452
0.0859429950737
0.0637839739043
0.0337060906498
0.145042792759
0.145047327819
0.145059870714
0.145094858863
0.145125224855
0.14516130507
0.14519726858
0.145248217278
0.145302361093
0.145387071508
0.145492454038
0.145596472938
0.145697448078
0.145806787183
0.145936626678
0.146068468236
0.146208275092
0.146350829101
0.146485551464
0.146623780731
0.146772552841
0.146923140229
0.147061087743
0.14721454488
0.147420348498
0.147658075634
0.147923550815
0.148177069134
0.148423771504
0.148684245199
0.148951878096
0.149216683347
0.149471746377
0.149744488029
0.150041885374
0.150362077643
0.15069778741
0.151043359289
0.151396702405
0.151767462748
0.152178874145
0.152659645014
0.153194094697
0.153746526308
0.154321655669
0.15497207123
0.155746154676
0.156517585804
0.157326765628
0.158243257671
0.158655937924
0.158816153496
0.158868121329
0.1587340887
0.158324530118
0.157648111403
0.156780356812
0.155873180474
0.154992869056
0.154093982868
0.153124303254
0.15205461768
0.150861174652
0.149518745354
0.148002496681
0.146288138707
0.144349832561
0.14215716513
0.139670977602
0.136837489512
0.133580320359
0.129789748037
0.125307391817
0.119910189597
0.113161545086
0.104381720349
0.0927520075444
0.0772414206377
0.0559879647614
0.0294645313455
0.144760429402
0.144768766489
0.144781016961
0.144808685369
0.144845413515
0.144888405632
0.144930121975
0.144985070086
0.145048812515
0.145127301719
0.145231304038
0.145336365598
0.14543961218
0.145550076189
0.145679904553
0.145812050958
0.145951519078
0.146103083908
0.146247507938
0.146393594398
0.146547368755
0.146709305211
0.146864774761
0.14702019553
0.14721143336
0.147442987304
0.147701885612
0.147951436654
0.14819002384
0.148448563133
0.148721841672
0.14900587704
0.149270186796
0.149534824647
0.149822548488