/*--------------------------------*- C++ -*----------------------------------*\
| =========                 |                                                 |
| \\      /  F ield         | OpenFOAM: The Open Source CFD Toolbox           |
|  \\    /   O peration     | Version:  v1806                                 |
|   \\  /    A nd           | Web:      www.OpenFOAM.com                      |
|    \\/     M anipulation  |                                                 |
\*---------------------------------------------------------------------------*/
FoamFile
{
    version     2.0;
    format      ascii;
    class       volScalarField;
    location    "466";
    object      alphak;
}
// * * * * * * * * * * * * * * * * * * * * * * * * * * * * * * * * * * * * * //

dimensions      [0 0 -1 0 0 0 0];


internalField   nonuniform List<scalar> 
6400
(
0.865319884846
1.35017732093
2.11327984188
2.55784945777
2.98760566371
3.43379613576
4.05709806016
4.76682947016
5.07445295175
5.60282559075
6.78224210968
7.50095145586
8.07944797739
8.76405967286
9.66419370989
10.6014467398
11.3902919695
12.1330450829
12.761981112
13.0815893223
13.1429534811
13.2928857261
13.7576029835
14.5479834753
15.4356423243
16.2125098398
16.8081486393
17.3480248617
17.9467049065
18.61818382
19.3077406283
19.7946441417
20.0044186187
20.0793913873
20.0479088595
19.8679624607
19.869455022
20.1715506439
20.094021188
19.7505562946
19.8270128845
20.4746961581
21.1466949878
21.4822783967
21.5502518742
21.4361832517
21.2111546571
20.9292599972
20.6024373008
20.2498093777
19.7574197374
18.8422746266
17.6898203115
16.3277133214
15.2759543895
14.6656867866
13.6032418189
11.6485837431
9.53446487356
8.1483893228
6.63994824133
5.07624338065
3.39642415871
4.6828796525
8.75977779957
13.7325062655
16.7538069501
16.4922380018
14.5340175984
12.938889886
12.0840584613
12.2812845567
12.8102791593
12.6856966156
14.7023783019
14.1357361691
15.987180383
9.89112912895
12.87302885
4.81388251112
3.12249313212
2.46716962053
3.05044652028
4.27994518763
4.09880503885
3.89180382019
4.03629327769
4.41880506499
4.97968476624
5.70377623287
6.59497542296
7.48300225505
8.25498371037
8.99191785832
9.73737961231
10.5979990566
11.4999059306
12.3742545238
13.3800229625
13.5095689476
13.3450661646
13.4404291461
13.8434611731
14.6041670033
15.6672614343
16.3624407463
16.9164881604
17.5077791219
18.1293479443
18.7666008827
19.4153010373
20.0297402274
20.2374066899
20.3145945971
20.334095482
20.0178107226
20.0953894845
20.4184615957
20.2566508604
19.7083398983
19.7405978486
21.2774880778
22.4249326648
22.6344240037
22.6202946392
22.3683770074
21.9622664778
21.5523211753
20.9617871544
20.3629746276
19.9818101343
19.8808794683
19.0695785468
16.553636884
15.6879121288
14.7212074714
12.7508384213
10.8621631077
9.1149460241
7.40362799314
5.8873738772
5.4946409407
3.79327013252
5.02619885543
8.85832815116
14.7408983691
18.516339787
17.2976689153
15.16413361
13.2687437181
12.5772129414
12.9889488223
14.0698329834
13.493878573
13.3338207202
12.8000903422
11.5916076582
9.74476102758
8.18487755351
4.27108619435
3.16329697662
2.74529249751
3.2501285547
3.46240218246
3.90173780838
4.28838098747
4.24817231869
4.33745581457
4.8918631395
5.68391563269
6.57722916339
7.4849053076
8.30676860509
9.05191609252
9.65329249885
10.4257862693
13.2065122802
15.2441291622
15.5747132514
14.8096831588
13.1603977696
13.0378598957
13.9955777041
14.814120663
15.5521954318
16.3417814099
17.0330347225
17.6278683829
18.2276903767
18.8699239555
19.4720304698
20.2083181721
20.4303438158
20.193354883
20.6774890085
20.37502991
19.976456851
20.5970122222
20.4540966555
19.9414647084
19.9818610199
20.635675399
21.308605912
21.6544271273
21.7470042164
21.6769222385
21.4839927006
21.1894129983
20.7955013256
20.3275103354
19.7898507
19.0736937301
18.0558474586
17.0664348113
16.1579572316
14.5134607908
12.6627662813
10.8943964186
9.20471140967
7.63175974128
6.32415850826
5.1113998303
4.30191283044
6.20751664922
11.1286849478
15.7001108972
17.9578281062
18.1053022898
16.548690284
14.9015078531
14.2251805504
14.1361639863
13.4854476141
12.8941694786
12.8548870474
12.4935923842
11.4954402224
9.86473514115
7.43292027455
7.60603242951
3.09029318728
5.43245266225
3.49409300521
3.56159713316
4.22676531391
11.8040322155
10.1611372943
4.98098158916
4.88092656907
5.69309217698
6.6024386673
7.52525685878
8.32289442611
9.11088926698
10.8897118041
13.0544723619
14.7072535941
15.0071419364
13.6956616567
12.6263383838
12.8372403889
13.2988348636
13.9287206146
14.7615932383
15.645252599
16.4805928671
17.2086264207
17.7729905474
18.4103038657
18.9526012
19.7497442642
20.1853218667
20.8136122876
20.6199774161
20.0837135226
20.5047613538
20.2102840443
19.9245043823
20.0093715192
20.1008330768
20.3206598331
20.8055597357
21.3332228464
21.6737458157
21.8058828333
21.7725312889
21.6079502919
21.3342846078
20.9614838046
20.4991906868
19.9364974951
19.2233270921
18.3288171243
17.3169138354
16.1107574992
14.5554709077
12.7902164858
11.0495227204
9.43722733102
8.02652371236
6.89949995655
6.09837954215
5.97337765926
7.28516407753
10.4750093875
16.0809344283
19.6318414399
19.8413279953
18.2024441798
15.8744477121
14.2913302871
13.515910247
13.6809872284
15.0528230371
14.9685078337
13.6297882769
13.4648329219
16.7250735738
13.1406405012
11.1692944882
5.52094790205
7.46815936841
4.15401140947
4.47135926552
6.42011552874
11.6907997002
8.02289761454
5.34123778983
5.39424351274
5.91767979808
6.75189756973
7.69338458772
9.11362473378
11.5156954107
12.5176354485
12.8229341938
12.6857654335
12.2728424814
12.1906202577
12.6830143176
12.9766730124
13.3247822576
14.015770101
14.8705756448
15.7802534206
16.6578814634
17.3400472782
18.0770388704
18.5312380585
19.3549853552
19.7777794494
21.0137107044
20.7188400172
20.150051612
20.2911853197
19.8399660269
19.7985406463
19.9402407826
20.1283766357
20.3198335955
20.5812301549
20.9809152638
21.4161866867
21.7386669318
21.8948057209
21.892444304
21.7553509967
21.5055109728
21.15633497
20.7115013279
20.1572704531
19.465091003
18.6161737028
17.5978583136
16.3269609142
14.7549790972
13.0348140738
11.3806354766
9.92524861393
8.75378967163
7.93295026881
7.54062630414
7.80654162346
8.36112255753
10.5930510479
15.5703226587
19.7097689961
21.1393340088
19.992290361
17.2529090085
14.803888697
14.4834865622
16.6971504488
17.5407905953
16.4829256567
15.5456199987
18.1625703365
21.1529695299
16.4872773993
15.60565471
9.83413478633
8.97984698075
5.16537008809
5.79939017551
11.9642521256
11.4137979421
6.2289060026
5.89084594215
5.99372579493
6.26186742772
7.02227159919
9.74993259289
13.0629420132
13.4477994566
13.0105976417
11.9123596549
11.335467053
11.525787448
12.4197110688
12.6715263987
12.8345068674
13.3883712432
14.1669712878
15.0679297517
15.8963242445
16.7907383194
17.8070124042
18.1759252877
19.2031529258
19.3811465501
20.9250950045
20.7263455888
21.5831623493
20.4870787492
19.5449596256
19.4790635718
19.7448733477
20.0395040324
20.3001901881
20.5414621965
20.8231695654
21.1806677338
21.5579564057
21.8595427483
22.0268441088
22.0483351231
21.9368608847
21.7136306316
21.3944406238
20.9807772036
20.4577711317
19.8000955363
18.9774645658
17.9448854461
16.6446942107
15.1022514296
13.4865817754
11.993121078
10.745057601
9.82468087529
9.27441015045
9.24046534137
10.0389442208
9.23843014865
12.2778293107
17.4010056403
20.9830746477
22.3981655232
21.50054711
18.1690225394
16.0107910184
17.7805256334
19.9503882008
19.4080806319
18.388053743
18.4401700679
22.9529331485
24.5160134246
19.5362997048
19.3359186482
11.9300559239
8.72960060056
6.28401098534
5.90302427225
11.8742458303
8.12843036193
6.34671149795
6.44580996793
6.5463772306
7.22459915511
7.65155562688
12.8885790637
13.4988466767
13.4803884022
11.9736798712
10.7412075345
10.8631264566
12.1889639296
12.4176053211
12.3350589445
12.8495217829
13.5058103091
14.2853860883
15.1842625753
16.2495751941
17.285900979
17.8209942438
19.2115553907
19.2391313761
20.9397941427
20.5709199223
21.6515996354
20.8908606071
20.2065081816
19.2909518067
19.3801921532
19.8001233007
20.1856178039
20.4884487002
20.7619487792
21.061485131
21.4011838082
21.745356953
22.0300004721
22.2024793207
22.2420752365
22.155608191
21.9641954869
21.6845878598
21.3160469629
20.8399283484
20.2247561877
19.4275554206
18.3991443897
17.1195962359
15.6659768009
14.2130024844
12.9249099327
11.8784407413
11.0951333857
10.6682632707
10.6600751315
10.6057457708
10.7526646764
13.6468724053
19.9427903876
22.3577942006
22.7483682615
21.7183401442
19.486632194
19.2416430014
21.762054019
22.1779300469
21.3162514056
20.7034786041
22.6262594741
25.3255039296
26.7563312301
22.1914352296
21.0558644122
11.5918298663
8.26112277092
7.38534207227
11.9728391749
11.9222018297
6.96217875795
6.95789638745
7.07834319853
7.19980544398
7.74199418027
12.6753426202
13.5851481214
13.5971919148
13.0256377379
10.6642179995
10.2460338462
11.8434975123
12.3648682834
11.9986019087
12.2007556949
12.8998538582
13.7076436475
14.5074936701
15.4717942069
16.3449379458
17.7019615437
17.9364271935
19.2083411846
20.7558559199
21.0534379613
20.1988097653
21.0233994351
21.0281092793
19.4634375661
19.2427711115
19.5121189758
19.9317252072
20.342634144
20.6835083756
20.9879865913
21.3054418373
21.6434214046
21.9720452632
22.2452297151
22.4201753246
22.4750799947
22.4153773314
22.2627349289
22.0334320385
21.7233367726
21.308084073
20.7475704544
19.9917810604
19.0036028109
17.803369049
16.5005829834
15.2490748878
14.1390544665
13.1616125058
12.3518974084
11.901847484
11.8484115516
12.0243520108
12.5356415291
12.8775962947
19.9910814611
24.1002376137
24.1834705696
23.6337384798
22.7288782555
23.5710433494
24.9057695399
24.201255965
23.4866264726
23.6561599921
25.9165827829
26.5436194529
27.0897905748
24.2146042825
22.0827995262
10.7905456808
8.07401045531
8.03616976958
12.9187495669
10.771051473
7.47579784131
7.61825941373
7.86301132217
9.18614357824
7.79677326636
13.4491734179
14.0717745311
13.6138962999
11.6674553055
10.1870172954
10.3821976618
11.9433007741
12.0327816742
11.8637123853
12.2309410319
12.9017443922
13.8090406203
14.7269676544
16.149027157
17.3593323307
17.6339051097
19.6531303251
19.0330891467
21.00628827
20.2850249857
21.6269857988
20.1987949152
19.6233334746
19.3400744613
19.3999640113
19.6997219946
20.0967080525
20.5110076245
20.885515392
21.2257183288
21.564373688
21.908285446
22.2332407913
22.501625302
22.678660067
22.7485493197
22.7198210681
22.6141710917
22.4458395307
22.2073162706
21.8684454933
21.3816906323
20.6968932103
19.7977514595
18.7391959205
17.6363582781
16.5770365882
15.5260671498
14.4148906234
13.4631892159
13.1035162053
13.4180473192
13.9789960033
14.409292292
14.5184436191
16.6304450447
24.2454116099
25.9776310649
26.0494962661
26.7342975683
27.7975202911
27.4338383971
26.3903992327
26.138585552
27.05364464
28.1634438604
27.9508870964
27.3003409441
26.2658997639
24.8904477011
10.1450957471
8.4206591921
9.19904575158
12.9544744179
8.59463960824
8.48347065921
8.28358510814
8.5377520717
11.8359108343
10.4817675689
14.281041814
14.3120542215
13.645326368
10.8624727974
10.1737409523
11.8522284667
12.1929623938
11.7535933963
11.8261673437
12.3997172421
13.0359855741
13.8869781696
14.6626828243
16.3244551513
18.5270543069
17.5512367352
19.5922738905
20.7903351429
21.2607675148
21.7261680307
20.6629425946
20.5565043567
19.2581328789
19.2271165143
19.5568902624
19.9052946699
20.2852200461
20.69321709
21.0931245473
21.4731392997
21.8420438288
22.1994905027
22.5273784879
22.7963021203
22.9783561229
23.0646911754
23.0711388863
23.0211091039
22.9249006742
22.7712371832
22.5265090948
22.1394861696
21.5659175111
20.8135274095
19.9581086681
19.0782316421
18.1195321617
16.8844125908
15.4827169919
14.5855579002
14.7217744044
15.6188844937
16.445491175
16.8753923772
16.8964627373
15.9963942759
16.4553120009
27.729850453
30.6040247226
31.6595200956
31.5258577563
30.0848014467
29.113102685
29.3045192057
30.3349431749
30.5554825803
30.2211456067
29.874657346
30.1829243207
30.3519466791
9.99939461027
9.18646314816
12.7086789152
13.032287682
8.56715249386
9.20985316362
8.93684565525
9.4909555216
11.2256217849
14.0720913183
15.0592943295
14.5329659052
13.8275396025
10.7773329665
10.3054547948
12.399834947
12.2647424378
11.7037461628
11.8518238133
12.546197474
13.4342685865
14.246156804
14.8573395451
15.935254161
18.6980483963
19.8485174979
19.1068669456
20.936514199
19.8814379916
21.7655673866
21.9360993859
20.4663096181
19.1944673716
19.331298306
19.7464459197
20.1217254553
20.496923278
20.8978935658
21.3097187697
21.7272760125
22.137098596
22.5178935092
22.8547366368
23.1283433746
23.3187759953
23.4257900182
23.4728129277
23.4849992258
23.4698558016
23.4138441961
23.2827014206
23.0266253742
22.6139168068
22.0749759464
21.4776358997
20.7815121716
19.6681679458
17.990802346
16.5911894515
16.27528818
17.2906110918
18.8064941381
19.8108515966
20.1931824062
19.9011867004
18.7551294024
17.0315154092
18.3364274131
32.1329156213
37.3691145497
36.0592141006
33.6284737321
32.7163891654
33.0530022007
33.6567328152
33.8112759621
33.98237198
34.4306071745
34.9993359528
35.650082206
10.2418324567
10.001256766
14.3175821443
13.6436782948
11.6199013639
10.3934862691
9.80297395542
10.9701032748
10.5783474006
15.0209424542
15.6529678868
14.820101255
13.8296015768
11.3148699219
11.0677664191
12.8795564797
12.2505286164
11.7635615254
11.9696174225
12.5929072029
13.5997331378
14.7062350499
16.4517586675
16.0850426352
18.1666140569
20.2408566514
18.9345777268
21.2295283841
21.914620748
20.7712291834
20.8499974013
19.5951411605
19.4979540584
19.6623136033
19.9923308619
20.363770384
20.7393651869
21.1363589138
21.544119547
21.9814439737
22.4406316388
22.8654920225
23.2188681667
23.4979326648
23.7003251703
23.8340045522
23.927145315
24.0057372971
24.0764703744
24.1268817582
24.1259315704
24.0352546191
23.8455176412
23.5933947921
23.2711310737
22.5607502216
20.9276655052
19.0333657456
18.28452959
19.0488451852
21.1913641961
23.1990026325
24.3112272778
24.7815744671
24.362343524
22.8671016117
20.5801793134
17.749590366
27.7244665718
38.2648001806
41.150234144
38.3898180807
37.5185345125
37.7360004577
38.0836021681
38.1590286956
38.9021063429
39.641660426
39.5760757646
39.7742811893
10.7691405309
10.6096482279
14.0025952332
14.0606629312
14.0447490863
11.453335877
10.802402674
13.910096586
10.8506112781
15.8707818443
16.1033567578
15.1192428541
13.8397512569
11.8621234917
13.8649660253
13.9516990301
12.390490108
11.959181623
12.2192720359
12.7442503861
13.5656472844
14.6839933057
17.8271674246
18.7679914396
17.5842182224
20.3283388712
21.1818035225
20.7544191694
21.8868418661
22.0839656678
21.26195243
19.6021289658
19.6979303583
19.9938401159
20.2922854592
20.6351212042
20.9948533471
21.4054898402
21.8316645668
22.2639699119
22.7445005949
23.2228791225
23.6170217951
23.9098592809
24.1254975662
24.2909827523
24.4356280516
24.5814172785
24.7352659057
24.8902510208
25.0280590068
25.1395061272
25.2442838156
25.3393647973
25.2080255444
24.1193109019
21.93755812
20.5672230099
21.5239579985
24.0878416759
27.334317022
29.58852033
30.4060828712
30.800032686
29.6252075628
27.377579325
24.433029586
20.0000091751
22.3900518017
34.6513030561
41.7751905046
43.0553208755
41.5834562103
42.2018441948
42.6727674186
43.3142771886
44.4061383351
45.0781476857
45.0578124809
45.2392970519
11.3564059063
11.2590690327
10.9265108971
14.3410808923
14.5196382686
12.1418552218
11.7082059279
14.8370914964
11.4251973648
16.7352572773
16.5013601329
15.4305966987
13.9678236554
12.1235236249
15.0375118401
14.4442881221
12.7575895059
12.3229102985
12.5579446716
13.0661650646
13.6575054496
14.5873481277
18.3792383498
19.8295194766
17.911862737
20.4031060965
21.7183050904
20.1036715366
21.517097899
21.5546347803
19.9415765217
19.9584332727
20.148928368
20.372511931
20.6213830946
20.9622023749
21.3101135896
21.6764619892
22.125631244
22.5989626547
23.0879738186
23.5923735369
24.032121808
24.3579788421
24.5975134415
24.8005391751
24.9988228893
25.2045118449
25.4284703281
25.6729770499
25.9379190614
26.2845488705
26.75769419
27.2274532052
27.0126252361
25.2064982413
23.5567694972
23.4330366276
24.0536729448
25.6284855355
26.8643300526
25.2371586144
20.3560339784
15.6879667535
10.8768724951
10.1788735589
14.3870763871
18.2707865928
20.3771135492
19.8988534864
43.3949172275
47.3311307857
46.8644935891
43.0800221188
41.5933226361
45.950682034
49.3027244256
50.6717334214
51.8010174036
52.3110600547
12.1207697325
12.2021143402
14.9552055823
14.9264013463
14.9016657502
12.7201815215
12.711165112
15.6091346866
12.3823311675
17.4703734165
16.8724960725
15.7594009418
14.1714242245
12.475352071
15.2800375845
14.5550918169
13.1255593845
12.7382409311
12.9201380308
13.3685506723
13.9109139172
14.6357278774
17.7062458338
20.6417898876
20.7444307898
19.6872993821
21.9341065818
22.6218480229
20.1016058628
19.735167772
19.8584945851
20.1837259032
20.4846402976
20.7405849959
21.0119120627
21.3079157825
21.6503831241
22.0300741307
22.4392086143
22.9398030105
23.474143493
24.0011700739
24.468683241
24.8308276021
25.1123558488
25.36255106
25.6135121114
25.8758313684
26.1435000374
26.418469548
26.7755486851
27.3755888959
28.258797766
28.9847534666
28.1379237695
26.0593461459
21.4976959276
12.585826288
0.0677033238014
0.00126919529164
2.1513729955e-05
6.22445585806e-08
1.76885448268e-10
3.06185362974e-15
2.3949909935e-15
5.81448739432e-15
3.91942421539e-14
1.83583642007e-13
6.78158889965e-13
4.30959376631e-12
3.37431571582e-12
2.92740234161e-10
1.66618107116e-07
1.67486750989e-05
0.00127094151201
0.29266711914
42.8131885241
55.0234007738
58.893345151
59.5927538267
12.8300310823
13.017860781
16.5382232237
15.5148508904
14.9030015127
13.3129825488
13.6926808986
16.2347393832
16.2122755205
18.3716885101
17.2927574049
16.1720418591
14.4463551438
12.9751036127
15.5360073779
14.6128538222
13.4894333372
13.1639307137
13.2800027828
13.6525319141
14.1722007141
14.9019306213
17.1204338626
20.9009262379
22.1403498706
19.2820584562
21.4779437357
22.6358495748
22.1599033283
20.2530785345
19.9680961414
20.4081009628
20.838666756
21.1702085295
21.374805852
21.6793902684
22.0039095975
22.3962687513
22.8162506316
23.3100442241
23.8828666161
24.4535254184
24.9367732993
25.313183158
25.6460545538
25.999816782
26.3437945908
26.6265401359
26.815203491
27.0449231278
27.4860283776
28.2731180777
29.5117062057
30.1118058251
26.7518281744
14.3392287163
3.40389421634e-05
1.37841289092e-07
3.98614694561e-09
5.80309925999e-11
4.71489551759e-14
7.86725500684e-17
5.54566415974e-18
0
0
0
0
0
0
0
0
7.71307311583e-22
2.60145988302e-19
3.89122948745e-17
2.25756673545e-14
3.15326668443e-11
1.707574501e-06
0.0259315801765
44.9801742972
62.6429347593
13.4043461128
13.6149052076
18.7287579506
15.9507250802
14.6294953413
13.8423457753
14.3861982968
16.1900923577
17.792983148
19.4144034896
17.8651542644
16.7118595959
14.9647407739
13.7786050118
16.0000584603
14.8304354717
13.9394131271
13.6437114331
13.6796346438
13.9718205528
14.4249420502
15.1048932238
16.8755346109
20.7710166058
23.1329110058
22.2465562697
20.9082443435
21.9865987219
21.8060238386
20.0852124218
20.4303543005
20.9109966443
21.3970309592
21.6551050458
21.8733319987
22.0797407845
22.4200384936
22.7853795088
23.2258580066
23.729834435
24.3079603802
24.9235235091
25.4830415112
25.8772230017
26.2471229603
26.7051674101
27.1517293058
27.4118915996
27.4759470032
27.6208716157
28.0603062083
28.8207106159
29.8246469507
27.8229647991
0.225409649519
4.92805853117e-08
1.61618862643e-11
6.53519931223e-13
8.91054753106e-15
2.44351429599e-17
0
0
0
0
0
0
0
0
0
0
0
0
0
9.93829382873e-21
9.87585626417e-20
2.16500167213e-18
1.04977937311e-16
5.82966574448e-13
0.000485240160877
9.35378734239e-09
13.8491412597
14.0474723244
20.8215265167
16.2723216099
14.6413778831
14.3401767525
15.1811911256
15.3949886734
18.7427255631
20.1555251474
18.4252584495
17.2683739731
15.691439674
15.7375264558
16.6498407876
15.2947573212
14.5905739957
14.3283488684
14.1877955895
14.3792734108
14.7309291785
15.3384408184
16.8347566552
20.6375767477
23.5406875943
23.9141884991
20.4598370503
20.715240361
20.2789324895
20.202934986
20.7170098329
21.4245590685
21.8997528467
22.172518756
22.3997267476
22.7097323134
22.8958250912
23.2436676143
23.6710201594
24.1627285519
24.8084143718
25.4804541465
26.0698573868
26.4143206007
26.7882163238
28.0476984988
29.83280597
30.3018743697
28.9900579981
28.7185155576
28.9744396372
29.4982333613
27.6868100554
0.0260784043466
3.93035714872e-07
1.76322001324e-18
1.78175566654e-15
2.90733422679e-17
0
0
0
0
0
0
0
0
0
0
0
0
0
0
0
0
0
0
1.53543523851e-19
1.03977138279e-18
1.91742463633e-16
94.382648814
14.2501949731
14.4154762918
20.6013072575
15.5630135271
14.7686354081
14.7680112435
16.0875796929
15.2899182942
19.5365002969
20.8546222928
18.9665910464
17.7911302594
16.245847705
18.0474841363
17.5747865643
15.9662610426
15.3451745468
15.4105347712
14.9212615235
14.957586861
15.1374741874
15.6046483572
16.9415093003
20.4883347838
23.4041987102
25.0313935918
23.4490685031
22.260557333
21.4879395318
20.4944546155
21.035493152
22.125624995
22.3150984236
22.6784157424
23.238323457
23.2870768783
23.4729250345
23.8143779489
24.246494582
24.7277389283
25.2866204241
26.0029428986
26.7406234183
27.6078847981
28.7579148261
30.4633016686
31.7465396515
31.449086694
31.107631454
31.5094273983
32.1244208207
33.0923698981
0.118594407392
1.08253011458e-06
1.42279365451e-10
1.93242649237e-12
0
0
0
0
0
0
0
0
0
0
0
0
0
0
0
0
0
0
0
0
0
0
4.72450947645e-19
3.43875133465e-08
14.7337419171
14.8792593588
20.1748219375
15.121315264
15.0211042167
15.112290837
16.8576887533
15.6988792808
20.2073693118
21.5409783666
19.5115552482
18.3276760945
16.7169996122
18.7518634853
18.4295357
16.7139387315
16.0860008112
16.2769265466
15.8072410068
15.7617538323
15.754304549
15.9055459811
17.2115532411
20.4649134123
23.122062158
25.3765745344
24.6761858721
22.6855391092
20.6329990541
21.0269871656
21.6104982452
22.6556293816
23.291705859
23.7576631498
24.0786482824
23.9601446504
24.12749279
24.4854624246
24.9195721677
25.4225320643
25.9725955205
26.7631040035
27.8977489383
29.5619718288
30.6357352149
30.8151764206
31.3521197537
31.6772127005
33.5954926004
35.6382689346
39.6177353318
1.08062567745
1.43486459851e-06
2.47435043489e-10
5.07502016458e-13
1.22876000527e-14
4.12453024847e-17
0
0
0
0
0
0
0
0
0
0
0
0
0
0
0
0
0
0
0
0
0
7.93969707403e-20
1.05049444244e-19
15.4710565899
15.6182553364
19.7536129842
15.3409559438
15.5620671171
15.5625012887
16.7681507624
16.4116910309
20.6656805068
22.1902835173
20.096223819
18.921249903
17.3218903931
19.402809584
19.2096083146
17.5711811575
16.8993037454
17.1274968999
16.6661706732
16.7157773575
16.6653312013
16.3734945914
17.6808808706
20.6219566427
22.9902631883
25.4781160851
25.1997829208
23.2981246257
21.0523835757
21.2374188649
22.3071901879
22.7168717322
23.1903974313
23.9040901381
25.0329316688
24.99810769
25.0718287687
25.2513759737
25.6369448044
26.2231986132
26.8895095672
27.8075988543
29.8757374897
31.7874281737
31.8173501326
31.8052574147
32.858003157
36.3121355963
40.5856529924
43.4936514386
0.308738121528
5.12868226958e-08
2.12236865553e-12
6.95855028694e-16
4.36611712784e-18
8.84976558683e-18
1.35899376353e-18
0
0
0
0
0
0
0
0
0
0
0
0
0
0
0
0
0
0
0
0
0
5.86846312293e-21
2.66469666607e-20
16.5982821949
16.6978788128
19.9513471996
16.2560695257
16.7338690885
16.3941890754
16.9877912989
17.7738155095
20.6174257445
22.6557946886
20.7513192546
19.5938765556
18.0428380949
20.1450673691
20.0205825938
18.6039666718
17.9146695544
18.1399439536
17.5312405301
17.7745799689
17.914462183
17.0904571323
18.2044642298
20.9568046898
23.0432591091
25.3171738883
25.4295531971
23.8638362947
23.2584495762
22.1297128241
22.7510482575
23.6839101981
24.8295567698
24.4751622478
25.148730706
26.0725345282
26.1042198295
26.3929112819
26.6445625129
27.1035752249
27.9156671256
29.9121736322
32.8923553386
33.713711333
33.2682572052
34.4272509799
39.3449871967
46.4908276287
48.8220029869
0.0111053629345
7.77023048393e-10
7.25456964683e-15
4.96381570057e-17
0
0
0
0
0
0
0
0
0
0
0
0
0
0
0
0
0
0
0
0
0
0
0
0
0
0
0
18.192344831
18.0322091132
20.6810806052
18.1876499464
18.7437548516
17.6474504384
17.8869727891
19.7705671675
20.755248934
23.2350628054
21.5345676352
20.3573865358
18.8575060651
20.9247452498
20.8266130688
19.7498843453
19.4476880308
19.4817439201
18.4871653717
18.9418730823
19.4865945325
18.1533292915
18.5910769002
21.3698105551
23.2858535807
25.1573270777
25.6081941311
23.9612571486
24.455438268
23.7718682996
23.8890031825
23.257711725
24.352466623
25.8369592696
26.112275142
26.7211127508
27.1408880043
27.43526768
27.8780887375
28.3490219696
29.8038081901
33.3656842863
35.7572672351
35.9337392811
36.562928315
40.7824624308
49.1204455914
50.7472554642
0.000157527163572
6.93428830027e-12
1.2122599544e-14
5.55078376408e-17
0
0
0
0
0
0
0
0
0
0
0
0
0
0
0
0
0
0
0
0
0
0
0
0
0
0
0
0
19.8940359006
19.2866934216
21.4938857782
20.7898032854
20.47245515
19.1226407334
18.8923315231
20.9070478003
19.8200025491
23.6739734714
22.4292047532
21.2044644565
19.7578665916
21.7207318933
21.5757727044
20.7016947029
21.6382543269
21.1125845842
19.5745259399
20.2554287496
20.8588345957
19.5426899649
18.6732162212
21.3396506024
23.455768896
25.034211979
25.6677279092
24.0291825614
24.8097164491
25.0822477515
25.2166741039
24.0255322189
24.665068167
25.6499670115
27.0640130286
27.9669672493
28.4237971471
28.66496399
29.0642331204
30.1187049391
33.406200997
37.1684940462
38.8378732515
39.6023580257
42.2988925725
48.5635809181
47.3345991222
7.30342719641e-06
1.86711719264e-11
2.70304606246e-14
9.46658877377e-17
0
0
0
0
0
0
0
0
0
0
0
0
0
0
0
0
0
0
0
0
0
0
0
0
0
0
0
0
0
20.7238055524
20.1766816765
22.012094837
21.8354104483
21.5379038975
20.536028486
20.0901257282
22.3035347644
20.8529662514
24.2483510718
23.3339142432
22.1013789058
20.7385815023
22.5524617614
22.3455623025
21.5047962633
22.6019539144
22.2112914949
20.6490236778
21.5705885706
21.5845597453
20.3312615732
19.7567774693
19.9553423226
22.9619864732
24.5427980163
25.4603100761
24.0110041433
24.8755349782
25.6158635854
26.2891967819
25.9653492533
24.8884335189
25.6763662622
27.2928065271
28.8515317334
29.8256830168
30.3553436983
30.7702834904
33.4573957931
37.794582932
40.9444317576
42.2704981308
43.8322537608
47.6402200819
42.9945962744
2.59248787554e-05
9.86370860035e-11
8.88523159757e-14
2.53055995868e-16
0
0
0
0
0
0
0
0
0
0
0
0
0
0
0
0
0
0
0
0
0
0
0
0
0
0
0
0
0
0
20.8100222588
20.7610377297
22.3485626939
22.0544789883
22.2337977893
21.6487236276
21.147027557
23.6776417939
22.5783586837
25.0024426586
24.300843034
23.0346045591
21.7941435016
23.4348466011
23.1916933952
22.4519305639
23.4021796367
23.1767388594
21.7944265626
22.6015213167
21.2450868483
21.0799379922
20.8115620926
21.096874471
21.9571465952
22.9011808279
24.633733708
23.8613820957
24.3976242809
25.649930385
26.7518631845
27.3517426413
26.4791837641
26.4715381022
27.4322454809
28.9459954813
30.6878616137
32.1230545297
33.5658685051
37.7181611581
41.9413924493
44.3776482506
45.1688710743
46.2785751019
40.6059153598
3.53404773265
6.69000297919e-10
3.08633469773e-13
6.91367843643e-16
0
0
0
0
0
0
0
0
0
0
0
0
0
0
0
0
0
0
0
0
0
0
0
0
0
0
0
0
0
0
0
21.0867197382
21.1947666212
22.6637351071
21.1127619471
22.5455065832
22.2762101366
21.8746808254
24.2973034106
23.4433578448
25.7928765165
25.318488376
23.9784388071
22.9336563358
24.3554710844
24.0863306116
23.5386360616
24.2816986283
24.2534235434
23.0612588728
24.0156447261
22.6075985287
22.7752957988
22.0775864668
22.3865698854
23.8456344527
24.4524789745
24.2909177935
23.6511768567
23.9114646001
25.6220748633
26.7846452244
27.6158525121
27.943377038
27.592446261
28.9182535343
29.7201433958
31.4111729912
33.8102398091
37.1119055617
42.0038574771
45.6227757644
46.9897164832
45.5185707895
39.755341057
33.193012851
2.53163632475e-08
2.58982434528e-12
5.89586184933e-15
0
0
0
0
0
0
0
0
0
0
0
0
0
0
0
0
0
0
0
0
0
0
0
0
0
0
0
0
0
0
0
0
21.8360681391
21.9109084572
22.9960961021
21.5610625004
22.8232460955
22.6359129633
22.4051351868
24.5133094091
24.0682415218
26.3893615825
26.3288950059
24.8766465445
24.1466984286
25.2721107097
24.9524164733
24.5981066339
25.1292285249
25.4198024476
24.3751796502
25.4314029189
24.4026142395
24.8976313591
24.6063360687
23.3252282161
24.5417336157
25.548462697
25.631507778
23.5401361043
23.3520982505
25.557330411
26.967252586
27.2311537503
27.7053107426
27.9562919694
29.2243150357
30.347280681
32.278425233
35.5732344841
40.8225554035
46.237527159
48.9598751852
48.3601932858
43.4249905368
35.7941332196
1.20900387227
2.94464906603e-11
4.10846831936e-14
1.66599303773e-16
0
0
0
0
0
0
0
0
0
0
0
0
0
0
0
0
0
0
0
0
0
0
0
0
0
0
0
0
0
0
0
0
22.7788339983
23.8617540758
23.4813253632
22.5870008624
23.3946358909
23.0591724303
22.9222949045
24.7072676628
24.6473387753
26.6384559931
27.319959371
25.6931008197
25.2307438008
26.0260967372
25.7843464771
25.404618871
25.4055699208
26.4896033136
25.7677481286
26.6692978712
26.4052632052
26.2268770402
26.0249269202
25.599238532
24.8167069143
25.6201555524
26.6217662922
23.0233509171
22.9012727285
24.8758447381
27.0451597868
27.878728684
28.5834003178
28.0390188734
29.1235707071
30.6488559657
32.8089473957
37.2203031723
44.4429198901
50.1853527764
51.5829373927
45.8796434174
40.936684636
37.3274436734
2.2211022041e-09
2.78475709552e-13
7.10736991585e-16
0
0
0
0
0
0
0
0
0
0
0
0
0
0
0
0
0
0
0
0
0
0
0
0
0
0
0
0
0
0
0
0
0
23.5056158511
24.6218245275
24.2277910132
23.520691223
24.1363559603
23.6699983324
23.5123436817
24.9894414596
25.2162618259
26.6250717422
28.2128950471
26.4921194244
25.8979485639
26.6593215351
26.700725571
26.1462117751
25.6386350703
27.2572745633
27.2139542775
27.7527044953
27.7556005882
27.8611221234
26.5333178948
26.4949765497
26.0008674851
27.3066934828
28.0055973551
25.0501158382
22.5525046117
23.9124357847
26.4311845559
28.1498979737
28.8420748768
28.7013616389
28.8541659965
30.5878207452
32.8381548719
38.5186572225
47.8412950551
54.1370170965
52.097997885
44.4018222208
36.7549044649
12.9812899944
9.54779925925e-12
8.21097096034e-15