/*--------------------------------*- C++ -*----------------------------------*\
| =========                 |                                                 |
| \\      /  F ield         | OpenFOAM: The Open Source CFD Toolbox           |
|  \\    /   O peration     | Version:  v1806                                 |
|   \\  /    A nd           | Web:      www.OpenFOAM.com                      |
|    \\/     M anipulation  |                                                 |
\*---------------------------------------------------------------------------*/
FoamFile
{
    version     2.0;
    format      ascii;
    class       volVectorField;
    location    "642";
    object      Ua;
}
// * * * * * * * * * * * * * * * * * * * * * * * * * * * * * * * * * * * * * //

dimensions      [0 1 -1 0 0 0 0];


internalField   nonuniform List<vector> 
6400
(
(3.71140595892e-05 4.86362277218e-05 0)
(0.000100272980273 3.65706703191e-05 0)
(0.000146146083883 2.9684278633e-05 0)
(0.000195699993513 2.68265181101e-05 0)
(0.000233334506447 1.87904292714e-05 0)
(0.000262048437161 1.26141890309e-05 0)
(0.000280409635093 1.05576481001e-05 0)
(0.000297283865209 1.46568952539e-05 0)
(0.000334309177474 1.98542804426e-05 0)
(0.000372836382124 1.99584397205e-05 0)
(0.000395316952876 1.87951528363e-05 0)
(0.00043255100638 2.02571179625e-05 0)
(0.000468807440228 1.99770330349e-05 0)
(0.000501721580689 1.87011279061e-05 0)
(0.000530854275951 1.85003441356e-05 0)
(0.00056223585381 2.043988268e-05 0)
(0.000599106946992 2.15148180637e-05 0)
(0.000634366739026 2.08843395347e-05 0)
(0.00066602998416 1.97480325196e-05 0)
(0.000698569164915 1.99166409094e-05 0)
(0.000737318843066 2.34113273143e-05 0)
(0.000781933958847 2.68977082457e-05 0)
(0.000828774327221 2.79573405007e-05 0)
(0.000873913829841 2.7891266346e-05 0)
(0.000918156042241 2.7281798117e-05 0)
(0.000962315427753 2.65978390236e-05 0)
(0.00100744897641 2.66920742832e-05 0)
(0.00105210968924 2.6609638015e-05 0)
(0.00109505996049 2.61150542508e-05 0)
(0.00113649819624 2.5776935618e-05 0)
(0.00117645998949 2.61119895741e-05 0)
(0.00121784242757 2.62443038506e-05 0)
(0.00126069433984 2.6052967187e-05 0)
(0.00130295619332 2.69010351434e-05 0)
(0.00134597342797 2.76309523543e-05 0)
(0.00139337365093 2.82538847592e-05 0)
(0.00143968810657 2.9062055467e-05 0)
(0.00147879674002 2.86866351434e-05 0)
(0.00152391855683 2.78345967514e-05 0)
(0.00157348322651 2.76315157314e-05 0)
(0.00161776521958 2.89830243063e-05 0)
(0.00165405462069 2.83434329258e-05 0)
(0.00168763003795 2.41963142295e-05 0)
(0.00171982392006 2.12505419694e-05 0)
(0.00174855516399 1.99162683486e-05 0)
(0.00177437403458 1.84511959204e-05 0)
(0.00179696168162 1.6866927372e-05 0)
(0.00181542940032 1.4776782267e-05 0)
(0.00182985560655 1.27389698761e-05 0)
(0.00184019604145 1.262734934e-05 0)
(0.00184916722616 1.48025366762e-05 0)
(0.00186280893602 1.40409003719e-05 0)
(0.00186799303262 6.11909348834e-06 0)
(0.00186914815272 1.7296194722e-06 0)
(0.00185636348663 -2.37194575939e-06 0)
(0.00181676176319 -1.02153219297e-05 0)
(0.00177456295159 -8.76565615959e-06 0)
(0.00175573671845 -2.76601395059e-06 0)
(0.00174654734748 -5.27378616057e-06 0)
(0.00169864107562 -7.55788265258e-06 0)
(0.00166521990041 2.0255096726e-06 0)
(0.00162603259737 -4.27789888625e-06 0)
(0.00171900617426 -4.10682103769e-05 0)
(0.00157321000741 -8.01083436902e-05 0)
(0.00126100892998 -6.99692424629e-05 0)
(0.00112066936072 -4.87598939121e-05 0)
(0.00104124484231 -4.73542493138e-05 0)
(0.000978818373804 -4.69427313714e-05 0)
(0.00091316707596 -4.8290113992e-05 0)
(0.000820874832949 -5.10770879259e-05 0)
(0.000723918288922 -5.1811993289e-05 0)
(0.000614811409951 -4.95458200004e-05 0)
(0.000512411195202 -4.81211739963e-05 0)
(0.000442900651017 -5.03726181273e-05 0)
(0.000324577066989 -3.93435694984e-05 0)
(0.000278166071547 -3.39663823755e-05 0)
(0.000180587044694 -2.06989719481e-05 0)
(0.000183989394653 -2.77778837113e-05 0)
(7.84276011734e-05 -1.92232331762e-05 0)
(5.84532079123e-05 -3.52917466255e-05 0)
(1.43532968267e-05 6.85416227843e-05 0)
(6.13125324306e-05 7.61060236041e-05 0)
(0.000106362284244 6.85540010146e-05 0)
(0.000136324803874 5.57330597737e-05 0)
(0.000195490335238 5.52256974634e-05 0)
(0.000248674525282 4.08815784486e-05 0)
(0.000282134923185 2.95179390558e-05 0)
(0.000308670945725 3.83524853576e-05 0)
(0.000338100006043 4.86866565383e-05 0)
(0.000370932822787 4.93461489705e-05 0)
(0.000403345470191 4.81490262825e-05 0)
(0.000434794801294 4.86168972151e-05 0)
(0.000466008844709 4.69065583455e-05 0)
(0.000496642407572 4.44452657066e-05 0)
(0.000528682609143 4.47842285609e-05 0)
(0.000562013403489 5.17247732403e-05 0)
(0.000597040707902 5.58209259802e-05 0)
(0.000629789250503 4.95737107745e-05 0)
(0.000649290452108 4.4928474656e-05 0)
(0.000685074992048 4.80429575982e-05 0)
(0.00072921701772 5.78254547022e-05 0)
(0.000776990931489 6.83257346206e-05 0)
(0.000827608447931 7.07657781594e-05 0)
(0.000874505699475 6.75163309188e-05 0)
(0.000913432989994 6.50589977028e-05 0)
(0.000960179004334 6.47677067703e-05 0)
(0.00100661213074 6.41339923335e-05 0)
(0.00105004229324 6.26958960328e-05 0)
(0.00109236452743 6.12100607395e-05 0)
(0.00113439577957 6.02908489483e-05 0)
(0.00117560743778 6.05393204866e-05 0)
(0.00121355830032 6.03034924479e-05 0)
(0.00125628520068 5.90740817604e-05 0)
(0.00129808612672 6.15658607481e-05 0)
(0.00133970264708 6.48021224867e-05 0)
(0.00139168320583 6.46529117018e-05 0)
(0.001435785999 6.55829231265e-05 0)
(0.00147517585713 6.62686953593e-05 0)
(0.00152360433679 6.44776327348e-05 0)
(0.00157923413124 6.12299048931e-05 0)
(0.00162484799373 5.52717861937e-05 0)
(0.00163235036719 4.80476276124e-05 0)
(0.00165047932053 4.35957880532e-05 0)
(0.0016857635302 4.11872266404e-05 0)
(0.00171654591017 3.86083288731e-05 0)
(0.00174717337268 3.51363114041e-05 0)
(0.00177633755255 3.04581744188e-05 0)
(0.00179941050125 2.47668940721e-05 0)
(0.00182245040814 1.87204272337e-05 0)
(0.00184004349518 1.33050289268e-05 0)
(0.00184498705483 9.5381254746e-06 0)
(0.00182963464474 5.99511153108e-06 0)
(0.00181988933681 1.36139837118e-06 0)
(0.00186848549989 -9.47933882174e-06 0)
(0.001847137124 -2.9444057478e-05 0)
(0.00182142159269 -4.31998090408e-05 0)
(0.00182416985134 -4.1129595137e-05 0)
(0.00181026788372 -3.59258431841e-05 0)
(0.00178663778332 -4.24729717328e-05 0)
(0.00176604562456 -5.10108856868e-05 0)
(0.00174860603179 -5.70761889017e-05 0)
(0.00160520668223 -6.90267060652e-05 0)
(0.00169140978242 -0.000159922825236 0)
(0.00153391429755 -0.00026032723843 0)
(0.00127124763843 -0.000247919088256 0)
(0.00105824279339 -0.000176361499579 0)
(0.000949459650771 -0.000129404236167 0)
(0.000931481761125 -0.000119527294414 0)
(0.000872138453057 -0.000131387636742 0)
(0.000801368110229 -0.000151028459592 0)
(0.00069774018406 -0.00015974983619 0)
(0.000586275975394 -0.000152536901279 0)
(0.000473218286633 -0.000130245706389 0)
(0.000418712861385 -0.000123428197645 0)
(0.000350776416686 -0.000111787624097 0)
(0.000291744654226 -9.92804186531e-05 0)
(0.000233513011385 -8.28123425026e-05 0)
(0.000181583612848 -8.27234057124e-05 0)
(0.000111301903744 -8.61089023595e-05 0)
(5.08762343515e-05 -0.000138261944519 0)
(2.00343928851e-05 0.000118485456135 0)
(5.76623555485e-05 0.00012691582704 0)
(8.94257803738e-05 0.000118543842817 7.22386456559e-29)
(0.000149370043123 0.000119393064162 -6.6514617239e-29)
(0.000205360698199 0.000118121091946 -5.81622284364e-29)
(0.000242165343184 9.79066340286e-05 5.28779916304e-29)
(0.000270382527202 6.14073544087e-05 -5.28680876361e-29)
(0.000297572870288 6.77159327316e-05 5.10077951241e-29)
(0.000328131510435 8.15107893311e-05 0)
(0.000362292128335 8.4785208681e-05 0)
(0.000396591702236 8.29757502161e-05 0)
(0.000428741777578 8.04117245006e-05 0)
(0.000459574567839 7.75543540718e-05 0)
(0.000489491142173 7.69541846253e-05 0)
(0.000521697617134 7.95929322905e-05 0)
(0.000555350711996 8.04673961636e-05 0)
(0.00053914608726 7.18945612035e-05 0)
(0.000544500118983 6.7271522562e-05 0)
(0.000579815699027 7.55798352794e-05 0)
(0.00063513096622 9.57923555719e-05 0)
(0.000722764119293 0.000117224023252 0)
(0.000780825309417 0.000123239986304 0)
(0.000818582541493 0.000119296860657 0)
(0.000864859886692 0.000114814377312 0)
(0.000912806193316 0.000112569881761 0)
(0.000956759360221 0.000111535925443 0)
(0.00100009031282 0.00010954395806 0)
(0.00104372693941 0.000107289560113 0)
(0.00108652889821 0.000105431541815 0)
(0.00112807253374 0.000104312468739 9.34315663065e-29)
(0.00117083794624 0.000103573266013 -9.03459588549e-29)
(0.00120599582771 0.000102730626387 0)
(0.00124748528448 0.000102527008482 0)
(0.00129766477994 0.000104354940875 0)
(0.00132580343504 0.000110410459761 0)
(0.00137849167594 0.00011523431179 0)
(0.00143747399668 0.000114127796903 0)
(0.00146780596038 0.000114012184615 0)
(0.00151843713446 0.000116012682984 0)
(0.00157612125632 0.00011013562025 0)
(0.00162218442866 9.38847812928e-05 0)
(0.00165676480633 8.00131469359e-05 0)
(0.00168887438506 7.63029138466e-05 0)
(0.0017207349328 7.47345972426e-05 0)
(0.00174969089343 7.08250120674e-05 0)
(0.00177538739598 6.51827135273e-05 0)
(0.00179805264765 5.7574540133e-05 0)
(0.00181765042754 4.88775534879e-05 0)
(0.00183431762919 3.91225407854e-05 0)
(0.0018476487482 2.74663880583e-05 0)
(0.00185712178959 1.55346825787e-05 0)
(0.00186294403628 8.48445519852e-06 0)
(0.00186590247445 6.9139987644e-06 0)
(0.0018562210603 -8.84514480638e-06 0)
(0.00183439403333 -3.40281002664e-05 0)
(0.00183330034491 -4.59028508033e-05 0)
(0.00182735375739 -4.87795360234e-05 0)
(0.00180853219603 -5.31907046e-05 0)
(0.00178349402683 -6.17750225214e-05 0)
(0.00175541378113 -7.64815205464e-05 0)
(0.00171025989599 -0.000107811974339 0)
(0.00166165285006 -0.000157235172292 0)
(0.00161686177739 -0.000314518542364 0)
(0.00137089861372 -0.000440841695886 0)
(0.00108207166342 -0.000368318588437 0)
(0.000988433529294 -0.000276184212615 0)
(0.000942743410548 -0.000217862924908 0)
(0.000869499836428 -0.000196063590831 0)
(0.000796882602395 -0.000214011823135 0)
(0.000713601712446 -0.000241093569826 0)
(0.00061499924995 -0.000247247085756 0)
(0.000526008005457 -0.000228497964712 0)
(0.000469577954746 -0.000206399761964 0)
(0.000415397341194 -0.000194959646298 0)
(0.00034642750371 -0.000183882723614 0)
(0.000277020259682 -0.000165102869408 0)
(0.000213392405794 -0.000144817267185 0)
(0.000161654570247 -0.000150976413828 0)
(0.000111016019474 -0.000191929540504 0)
(2.8123390911e-05 -0.000188751391151 0)
(1.86416804624e-05 0.000172838342934 0)
(2.81102891039e-05 0.00012046372735 0)
(7.10716678362e-05 0.000176115447639 0)
(0.000125734140629 0.000175773045746 0)
(0.000176576384173 0.000153046232047 0)
(0.000109477937307 6.64003784709e-05 0)
(0.000139541965463 7.07102663141e-05 0)
(0.000252078611724 0.000123799354842 0)
(0.000305845450305 0.000130315840851 0)
(0.00034633433391 0.00012356853186 0)
(0.000384728512863 0.000118599404475 0)
(0.000419211184028 0.0001127782066 0)
(0.000450837462621 0.000108272535528 0)
(0.000477530126042 0.000101938024777 0)
(0.000475293811418 8.95487592836e-05 0)
(0.000472313374253 8.04889679676e-05 0)
(0.000489940610521 8.27185694661e-05 0)
(0.000534961278669 0.000103375555343 0)
(0.000612323863183 0.000137400842672 0)
(0.000685131618732 0.000167707990064 0)
(0.000726498936997 0.000174987475934 0)
(0.000769418195821 0.000170040531376 0)
(0.000815627362316 0.000164965776999 0)
(0.000860378306067 0.000161156806662 0)
(0.000904100827366 0.000157530345684 0)
(0.000947167273747 0.00015445493334 0)
(0.000989986860284 0.000152086162996 0)
(0.00103502690817 0.000149944259035 0)
(0.00107655520029 0.000147485955611 0)
(0.001121365532 0.00014603029669 0)
(0.00115807198676 0.000144200534906 0)
(0.00120285517887 0.000142958366123 0)
(0.00123269466804 0.000140480529996 0)
(0.00127912648852 0.000145972503552 0)
(0.00133793501447 0.000156552373602 0)
(0.00137130186113 0.000163036232644 0)
(0.00142933050626 0.000164931597395 0)
(0.00148795954676 0.000164734727031 0)
(0.00153368909061 0.000163576708726 0)
(0.00157681820773 0.000153611419486 0)
(0.00161821685122 0.000135459330621 0)
(0.00165553453169 0.000118856524037 0)
(0.00168993480306 0.000109509493738 0)
(0.00172208035054 0.000103510907424 0)
(0.00175103301076 9.66382351289e-05 0)
(0.00177670103958 8.80224609502e-05 -8.03853528012e-29)
(0.00179927280798 7.77072881532e-05 8.08580446896e-29)
(0.00181874994495 6.60477978228e-05 0)
(0.00183512057503 5.30999414606e-05 0)
(0.00184815012489 3.89209615776e-05 0)
(0.00185739192987 2.49079126353e-05 0)
(0.001862122217 1.26220427436e-05 0)
(0.00186139012973 -9.03588965141e-07 0)
(0.00185373012735 -2.11120942372e-05 0)
(0.00184300627544 -4.10403253827e-05 0)
(0.00183379373301 -5.42425342456e-05 0)
(0.00182112720179 -6.5377143425e-05 0)
(0.00179983747075 -7.78231779321e-05 -1.57164812957e-28)
(0.00176931005536 -9.48400359339e-05 1.82820616017e-28)
(0.00172642070646 -0.000123342747677 0)
(0.0016613611633 -0.000175624513966 0)
(0.00156884181122 -0.000280318968585 0)
(0.00143409989592 -0.000470508398714 0)
(0.00128637060168 -0.0006107778201 0)
(0.00114487860657 -0.000546783264217 0)
(0.000941611521985 -0.000362755499417 0)
(0.000849152976335 -0.000284701822226 0)
(0.000785957264345 -0.000272993511604 0)
(0.000720061520976 -0.000294081555938 0)
(0.000660560530243 -0.000330535818552 0)
(0.000585581677211 -0.000339108051231 0)
(0.000510025527727 -0.000313096831342 0)
(0.000436762508076 -0.000281884542984 0)
(0.000348579653909 -0.000253793824278 0)
(0.000283830718174 -0.000242270998752 0)
(0.000224009695762 -0.000234662912965 0)
(0.000159507801211 -0.000210242066577 0)
(9.23280435726e-05 -0.000168916229472 0)
(6.73154735796e-05 -0.000212742677059 0)
(2.23231087703e-05 -0.000244741408288 0)
(1.63110136194e-06 0.000174158327784 0)
(1.46110763822e-05 0.000145706518537 0)
(6.10783008388e-05 0.000226157637031 0)
(0.000104510857962 0.000212587884451 0)
(0.000117881345886 0.000149608234994 0)
(9.75975267496e-05 9.00884724711e-05 0)
(0.000166882729416 0.000143991480023 0)
(0.000244738000861 0.000193172212371 0)
(0.00028130305898 0.000179971330404 0)
(0.000324936442955 0.00016590537874 0)
(0.000365998669187 0.000159018483428 0)
(0.000402538751511 0.000149192446789 0)
(0.000418944851474 0.000127431707883 0)
(0.000404223184599 0.000100930520125 0)
(0.000423899258039 9.70308520841e-05 0)
(0.000462636890101 0.000109888448706 0)
(0.000519955454062 0.000136531241276 0)
(0.000586149988776 0.000172343548835 0)
(0.000638966606674 0.000199664298197 0)
(0.000672010023539 0.000209016604314 0)
(0.000713707945785 0.000214318789737 0)
(0.000760631208778 0.000215544442587 0)
(0.000804937832936 0.000211182405711 0)
(0.000848881847393 0.000205517944038 0)
(0.000891987249197 0.000200734051589 0)
(0.000934215106804 0.000197655507697 0)
(0.000979331306241 0.000195504806428 0)
(0.00101976104357 0.000192481678868 0)
(0.00106743704128 0.000190422309041 0)
(0.0011030659104 0.000186685907449 0)
(0.00115230208956 0.000185637616549 8.9623524668e-29)
(0.00117374596999 0.000181076976678 -8.53967947181e-29)
(0.00122977552987 0.000185862451172 0)
(0.0012861749487 0.000194149659731 0)
(0.00132415716054 0.0002037599865 0)
(0.00138706033706 0.000216278190503 0)
(0.00143991793019 0.00022069832992 0)
(0.00148806401955 0.00021531791489 0)
(0.00153279969663 0.000206207240953 0)
(0.00157542144423 0.000193182304827 0)
(0.00161663933961 0.000175422683387 0)
(0.00165530445785 0.000157759127786 0)
(0.00169102807856 0.000144436184975 0)
(0.00172370808524 0.000134036191876 0)
(0.0017529531721 0.000123589238266 0)
(0.00177880558636 0.000111812748271 0)
(0.00180140858659 9.84829567707e-05 0)
(0.00182075343738 8.37171502743e-05 0)
(0.00183672147012 6.75415775291e-05 0)
(0.00184904590252 5.01073918755e-05 0)
(0.00185726234876 3.21518015458e-05 0)
(0.00186060374693 1.40634092449e-05 0)
(0.00185828058881 -5.74271353973e-06 0)
(0.00185032579389 -2.83915108654e-05 0)
(0.00183936510808 -4.99699376962e-05 0)
(0.0018269606752 -6.82804429411e-05 0)
(0.00180904494647 -8.69503758699e-05 0)
(0.00178012854476 -0.000110259685844 0)
(0.00173559013864 -0.000143739481598 0)
(0.00166868237087 -0.000197402866263 0)
(0.0015714469837 -0.000285667015443 0)
(0.00144741282636 -0.000422220784259 0)
(0.00130144754194 -0.000593950979866 0)
(0.0012225098514 -0.000719911348458 0)
(0.00113611750065 -0.000684117980765 0)
(0.00095604127037 -0.000513258694331 0)
(0.000828934460186 -0.000405836832241 0)
(0.000726166140589 -0.000363537945427 0)
(0.000643302010831 -0.000366876301848 0)
(0.00058087409673 -0.000396195283867 0)
(0.000521760804562 -0.00041518429662 0)
(0.000447818039397 -0.000392416485666 0)
(0.000356203455717 -0.000341844595335 0)
(0.000293017005843 -0.000320499549392 0)
(0.000233183407547 -0.0003141284378 0)
(0.000172973044682 -0.000302532356935 0)
(0.000115317599921 -0.00025095015885 0)
(7.36733885003e-05 -0.000214417226592 0)
(4.63792545289e-05 -0.000264367351246 0)
(1.14549317975e-05 -0.000272076993991 0)
(-7.71616446325e-07 0.000163109301965 0)
(1.62364835199e-05 0.000174941638928 0)
(5.86058664762e-05 0.000256270785586 0)
(8.45015663507e-05 0.000223380657637 0)
(6.69248226741e-05 0.000120331110857 0)
(9.46775813045e-05 0.000126608442833 0)
(0.000193351574155 0.000220547365167 0)
(0.00022681442204 0.000231376086924 0)
(0.000259801285961 0.000219595604723 0)
(0.000299575857548 0.000209278464084 0)
(0.000340711555401 0.00019301987688 0)
(0.000335310512909 0.000154109360962 0)
(0.000318478288366 0.000115933139852 0)
(0.000350308079139 0.000116250110937 0)
(0.000393419046771 0.00013574202289 0)
(0.000462855878471 0.000170062214227 0)
(0.000532505272986 0.00020306869576 0)
(0.000584448364605 0.000223648479667 0)
(0.00061172148135 0.000231901534103 0)
(0.000655277063034 0.000247381759391 0)
(0.000703782724501 0.00025970736356 0)
(0.000747035591854 0.000260292337091 0)
(0.000790020060535 0.000255422835097 0)
(0.0008328169929 0.000249480707461 0)
(0.000878121526501 0.000244903812758 0)
(0.00092038214073 0.000240055188998 0)
(0.000956306861512 0.000237305257993 0)
(0.00100934947276 0.000237126331107 0)
(0.00103998720239 0.000230531328017 0)
(0.00109610672895 0.0002282073419 0)
(0.0011098433076 0.000220416140137 0)
(0.00117409070809 0.000227752162742 0)
(0.00119620691809 0.000230762624245 0)
(0.00126779861903 0.000246316987082 0)
(0.00133769320154 0.000263353175617 0)
(0.00139165609062 0.000272547600391 0)
(0.00143988260748 0.000270012915099 0)
(0.00148618495814 0.000261192255903 0)
(0.00153084281431 0.000249287361036 0)
(0.0015740902811 0.000234262375702 0)
(0.00161583506622 0.000215869807515 0)
(0.0016553954471 0.000196796440712 0)
(0.00169210642621 0.000179996563578 0)
(0.00172547606944 0.000165321288537 0)
(0.00175524856571 0.000150977110802 0)
(0.00178144709775 0.000135729477993 0)
(0.00180417405324 0.000119113730301 0)
(0.00182334076764 0.000100999062107 0)
(0.00183869983402 8.13012763753e-05 0)
(0.00184992303148 6.00757383982e-05 0)
(0.00185655490289 3.76248477557e-05 0)
(0.00185797663279 1.40221048093e-05 0)
(0.00185376895936 -1.1152448277e-05 0)
(0.00184437784199 -3.74118687654e-05 0)
(0.00183109010038 -6.28490781932e-05 0)
(0.00181322769976 -8.81597585224e-05 0)
(0.00178603652417 -0.000117970748691 0)
(0.00174321046194 -0.000158179483253 0)
(0.00167890376182 -0.000215958818927 0)
(0.00158734926984 -0.000299434228987 0)
(0.00147014411568 -0.00041448124793 0)
(0.00134143605401 -0.000553478173779 0)
(0.00117737958425 -0.000671040594966 0)
(0.00117359787194 -0.000828942160665 0)
(0.00101987317308 -0.000776853337094 0)
(0.000866674571429 -0.000618500399682 0)
(0.00076657083713 -0.00052333184005 0)
(0.000659814283442 -0.000464195470162 0)
(0.000563381547206 -0.000441880410428 0)
(0.000504682454957 -0.000471803866355 0)
(0.00044773291408 -0.000496746962521 0)
(0.000363859771778 -0.000446024949926 0)
(0.000297931072107 -0.00040071940831 0)
(0.000244416241215 -0.000388881565754 0)
(0.000182672318332 -0.000378605394361 0)
(0.00013405480028 -0.000355731290758 0)
(8.74727361708e-05 -0.000281384564221 0)
(5.47541865261e-05 -0.000249226649361 0)
(3.17095020668e-05 -0.000293910143729 0)
(8.56288844816e-06 -0.000291456120555 0)
(4.92114077627e-06 0.000175796600211 0)
(3.36798151816e-05 0.000222281982832 0)
(7.19499084046e-05 0.000276340619269 0)
(8.08083722178e-05 0.000265382555956 0)
(5.98265762989e-05 0.000151262441657 0)
(0.000126586567599 0.000212590463626 0)
(0.000187478457302 0.000262607400839 0)
(0.000208765982822 0.000259940447996 0)
(0.000239129063493 0.000251486099252 0)
(0.000265595879884 0.000241036000357 0)
(0.000311925694801 0.000219097695497 -2.41010772117e-28)
(0.000260982302553 0.000140659639732 1.55806308238e-28)
(0.000300636951166 0.000141195023299 0)
(0.00033220447181 0.000157794209181 0)
(0.00039536733682 0.000197534740226 0)
(0.000470100614323 0.00024197796648 0)
(0.000522924729829 0.000258868408975 0)
(0.000542588087913 0.000254398116088 0)
(0.000588473473404 0.000271417193059 0)
(0.000642937995392 0.000295275525067 0)
(0.000685395503922 0.000303985166584 0)
(0.000728907879244 0.000303718003697 0)
(0.000772812506761 0.000299707637588 0)
(0.000816436944892 0.00029323569482 0)
(0.000856083376781 0.000285383368963 0)
(0.000893082549332 0.000279434878317 0)
(0.000944091067663 0.00027981432193 0)
(0.000968823866056 0.000276220895572 0)
(0.00103255432152 0.000275006812261 0)
(0.00104165583322 0.00025823825376 0)
(0.00111068895069 0.000265789340126 0)
(0.00113482587179 0.000271519595143 -8.4124304707e-29)
(0.00120536280498 0.000288374968265 8.52005964797e-29)
(0.0012651725731 0.000309720164007 0)
(0.00133814058785 0.000326140740795 0)
(0.00138981890967 0.000325685697244 0)
(0.00143651619287 0.000317656097368 0)
(0.00148278853067 0.000306573841602 0)
(0.00152848952124 0.000293043871827 0)
(0.00157286918341 0.000276546392426 0)
(0.00161546807536 0.000257024890305 0)
(0.00165591141446 0.000236204189863 0)
(0.00169352448748 0.000216192763432 0)
(0.00172768503913 0.000197437815893 0)
(0.00175811257086 0.000179031565464 0)
(0.00178477885324 0.000159990494167 0)
(0.00180766030986 0.000139703547162 0)
(0.00182652044894 0.000117805674716 0)
(0.00184098737861 9.4064267131e-05 0)
(0.00185068659666 6.84204309797e-05 0)
(0.00185520468589 4.09875465642e-05 0)
(0.00185407918789 1.19085223396e-05 0)
(0.00184709829704 -1.85863360279e-05 0)
(0.00183448591736 -4.98699019684e-05 0)
(0.00181613024286 -8.19238963642e-05 0)
(0.00178958290133 -0.000117746096089 0)
(0.00174931878748 -0.000163263070056 0)
(0.00168946704534 -0.000224530635877 0)
(0.00160760505481 -0.000306287908232 0)
(0.00150780206333 -0.000410677110625 0)
(0.00139731268879 -0.000534449219169 0)
(0.00128455147771 -0.000665143855205 0)
(0.0011894086364 -0.00079444446052 0)
(0.00111995009905 -0.000924330809594 0)
(0.000980523186767 -0.000899802650322 0)
(0.00076861524688 -0.000705613833721 0)
(0.000694758256576 -0.000629311593609 0)
(0.000600556151027 -0.000579420220147 0)
(0.000501353431635 -0.000547828390786 0)
(0.000427972092504 -0.000557919938631 0)
(0.000365521901273 -0.000548799306682 0)
(0.000301223236713 -0.000490411040108 0)
(0.000253087093127 -0.000465822222464 0)
(0.000194514774949 -0.000452364353161 0)
(0.000140210760162 -0.000435562914469 0)
(9.90693245375e-05 -0.00038087831846 0)
(6.65735019166e-05 -0.000321680313542 0)
(3.15264564996e-05 -0.00027908642404 0)
(1.41325864772e-05 -0.000309226494607 0)
(4.8657228676e-06 -0.000310981964823 0)
(1.02971895913e-05 0.000201892269307 0)
(4.50069038451e-05 0.000263936074872 0)
(7.66475930573e-05 0.000286290272252 0)
(5.0839150243e-05 0.000188556505646 0)
(5.95766147269e-05 0.000184318398475 0)
(0.000136001291951 0.00027986260048 0)
(0.000165268485963 0.000288978530763 0)
(0.000191502560504 0.000286979158003 0)
(0.000210422952963 0.000275840532115 0)
(0.000242966381425 0.000267059226893 0)
(0.000211284392439 0.000182439182489 0)
(0.000242157699362 0.000165185783116 0)
(0.000279952870222 0.00017659674581 0)
(0.000318771044369 0.000205956937426 0)
(0.000401052799404 0.000267753991684 0)
(0.000458439929766 0.000296212493168 0)
(0.000473373305621 0.000284266357092 0)
(0.000513367448557 0.000293632431322 0)
(0.000573155795756 0.000323857776457 0)
(0.000621508398524 0.000342071530702 0)
(0.0006626695181 0.000346678337154 0)
(0.000704659890959 0.000346170627547 0)
(0.000750323773587 0.000344391245287 0)
(0.000793590631441 0.000337495208613 0)
(0.000838923731117 0.000326877056395 0)
(0.000867674035768 0.000321060263144 0)
(0.000925177977245 0.000322993430819 0)
(0.000956636331526 0.000316063956459 0)
(0.000981836931473 0.000306100691521 0)
(0.00103077694884 0.000306745330291 0)
(0.00110704291033 0.000319633786682 0)
(0.00113739408091 0.000322509608008 0)
(0.00118704340886 0.000345961784541 0)
(0.00127683343444 0.00037784339179 0)
(0.00133230258079 0.000384977673111 0)
(0.00138248914917 0.000377040711925 0)
(0.00143104356837 0.000365670300622 0)
(0.00147868600702 0.000352995862808 0)
(0.00152575275349 0.000338154302779 0)
(0.00157156279976 0.00032021694452 0)
(0.00161538640311 0.000299162302137 0)
(0.0016568551785 0.0002762551508 0)
(0.00169545688809 0.000253100213589 0)
(0.00173055871159 0.000230388652387 0)
(0.0017617893239 0.000207801400867 -7.78121835699e-29)
(0.00178901471807 0.00018463052437 7.7572087808e-29)
(0.0018120314806 0.000160182378019 0)
(0.0018304182981 0.000133902174293 0)
(0.0018436809243 0.000105441388248 0)
(0.0018514076073 7.46783390552e-05 0)
(0.00185319296406 4.16835377048e-05 0)
(0.00184864401692 6.67174155408e-06 0)
(0.00183751944898 -3.00114059587e-05 0)
(0.0018194878254 -6.83728495591e-05 0)
(0.00179315055162 -0.000110172203955 0)
(0.00175489655658 -0.000160069475092 0)
(0.00169954846002 -0.000223956176112 0)
(0.00162516749341 -0.000304490726093 0)
(0.00153767340399 -0.000401196603838 0)
(0.00144586429716 -0.000513399681555 0)
(0.00135144882832 -0.000636584493485 0)
(0.00125821030237 -0.000760299901484 0)
(0.00117646362064 -0.00088094352219 0)
(0.00109323331003 -0.00100128107379 0)
(0.00107515940105 -0.00111312335161 0)
(0.000772111458633 -0.000863000773003 0)
(0.000606358732424 -0.000733619776597 0)
(0.000507960239301 -0.000679781122165 0)
(0.000406404886484 -0.000634527458624 0)
(0.000337932296717 -0.000616842467831 0)
(0.000293376864848 -0.000581137298217 0)
(0.00025210226689 -0.000539103682522 0)
(0.000205276654159 -0.000526287661467 0)
(0.000148546099975 -0.000510897308322 0)
(0.00010190663125 -0.000478601815936 0)
(6.48575596256e-05 -0.000410538843133 0)
(3.41927020843e-05 -0.000360131212666 0)
(2.35765020251e-06 -0.000312704296073 0)
(-1.13324175205e-05 -0.000314467668943 0)
(-5.18582550561e-06 -0.000318635354099 0)
(1.36245780442e-05 0.000233093970609 0)
(4.78181677002e-05 0.000294728594195 0)
(5.99440456398e-05 0.000294031216972 0)
(4.52253431897e-05 0.000204664743451 0)
(7.75450083578e-05 0.000235163812738 0)
(0.000131178497557 0.000309992098419 0)
(0.000144114437693 0.000312728108741 0)
(0.000174554642446 0.000311247507716 0)
(0.000174573521814 0.000278699338528 0)
(0.000222438440366 0.00029955031932 0)
(0.000189683770948 0.000203098527973 0)
(0.000229251254481 0.000199536529605 0)
(0.00026175315708 0.000216421001849 0)
(0.000320652056285 0.000270856459401 0)
(0.000388570612039 0.000327146097543 0)
(0.000429730651508 0.000335510378935 0)
(0.000443482753539 0.000320379088358 0)
(0.000493418266492 0.000343838794266 0)
(0.000548133545197 0.000373788856998 0)
(0.000593909514636 0.000387199170211 0)
(0.000637876845062 0.000390209289285 0)
(0.000678318884502 0.000388120472519 0)
(0.000722724366775 0.000386461358152 0)
(0.000759111927551 0.000378142845684 0)
(0.000793996015501 0.000362212162122 0)
(0.00085256608398 0.00036401492555 0)
(0.000863837259405 0.000356060792648 0)
(0.000947708861038 0.000363319115527 0)
(0.000958232852604 0.000352784181191 0)
(0.0010410497491 0.000367383169469 0)
(0.0010554217671 0.000360584584064 0)
(0.00114412741433 0.000385190537225 0)
(0.00120800118725 0.000416620572688 -8.86953562292e-29)
(0.00126840955709 0.000438283322642 8.85122294388e-29)
(0.00132218045022 0.000438304952966 0)
(0.00137359680808 0.000428288336057 0)
(0.00142430458008 0.00041543789112 0)
(0.00147390444378 0.000401245461035 0)
(0.00152259959554 0.000384948364362 0)
(0.00157000734484 0.000365461360377 0)
(0.00161540203805 0.000342585103682 0)
(0.0016582537357 0.000317294521105 0)
(0.00169806795041 0.00029093147045 0)
(0.00173429934546 0.000264284405268 0)
(0.00176653317122 0.00023736732674 0)
(0.00179443057867 0.000209669046078 0)
(0.00181755165941 0.000180457580832 0)
(0.00183530043495 0.000149055870837 0)
(0.00184707246893 0.00011505114165 0)
(0.00185236576745 7.83149900539e-05 0)
(0.00185072520912 3.88858703047e-05 0)
(0.00184169383887 -3.07784672937e-06 0)
(0.00182479522107 -4.75631302869e-05 0)
(0.00179903947013 -9.55307573673e-05 0)
(0.00176208620057 -0.000150062202284 0)
(0.001710201988 -0.000216106369375 0)
(0.00164037815573 -0.000297196183359 0)
(0.00155787372319 -0.000388937662818 0)
(0.00147708932862 -0.000489018246476 0)
(0.00140152588554 -0.000603328864662 0)
(0.00131799853392 -0.000729593194597 0)
(0.00122357581372 -0.000848142079146 0)
(0.00114064274792 -0.000953850860145 0)
(0.00107699743657 -0.00106163864002 0)
(0.00105704774563 -0.00118425772596 0)
(0.000940745624635 -0.00116709111924 0)
(0.000573597227736 -0.000865227223576 0)
(0.000404500146002 -0.000795618269041 0)
(0.000313522597012 -0.000730939204871 0)
(0.00025536974534 -0.000664292851008 0)
(0.000228061975479 -0.000603107648691 0)
(0.000204419309106 -0.000584503493223 0)
(0.000160735171395 -0.000582102329845 0)
(0.000108075319888 -0.000563161056713 0)
(6.15516754095e-05 -0.00051497512565 0)
(2.08018460527e-05 -0.000450766914723 0)
(-1.51909581592e-05 -0.000393730121791 0)
(-3.97318741183e-05 -0.000342238372571 0)
(-4.13713579329e-05 -0.000311133699486 0)
(-1.74608494176e-05 -0.00029743797164 0)
(1.53821468185e-05 0.000269129082968 0)
(4.99609604893e-05 0.00031534508127 0)
(5.08684984684e-05 0.00029134158604 0)
(4.2258941497e-05 0.000218936220055 0)
(9.01672663417e-05 0.000302207227174 0)