/*--------------------------------*- C++ -*----------------------------------*\
| =========                 |                                                 |
| \\      /  F ield         | OpenFOAM: The Open Source CFD Toolbox           |
|  \\    /   O peration     | Version:  v1806                                 |
|   \\  /    A nd           | Web:      www.OpenFOAM.com                      |
|    \\/     M anipulation  |                                                 |
\*---------------------------------------------------------------------------*/
FoamFile
{
    version     2.0;
    format      ascii;
    class       volScalarField;
    location    "535";
    object      alphak;
}
// * * * * * * * * * * * * * * * * * * * * * * * * * * * * * * * * * * * * * //

dimensions      [0 0 -1 0 0 0 0];


internalField   nonuniform List<scalar> 
6400
(
0.876291815508
1.38294514903
2.17718323083
2.67111326434
3.14549636577
3.62923929716
4.27421578428
5.00266302153
5.36908387114
5.96373638873
7.17352457982
7.9624094823
8.60977533107
9.3552035947
10.304061212
11.2955076662
12.1550447391
12.9625649266
13.6424460739
14.0114352114
14.1384788887
14.3734018042
14.9335252366
15.8159558913
16.7947349456
17.6626224768
18.35284215
18.9847381498
19.6670605886
20.4144211364
21.1718477945
21.7312804278
22.0165929027
22.1604060785
22.1969389058
22.1016750263
22.1833341435
22.5314468136
22.5287632664
22.2800192335
22.4328832323
23.1294015187
23.8412947855
24.2071811607
24.2872854619
24.1718984066
23.9303310776
23.6128175989
23.2321326549
22.8084278751
22.2405700172
21.2737940844
20.0226063644
18.5359621977
17.3081092248
16.4365621202
15.1154735665
12.9653006717
10.6748287639
9.02041874842
7.28453926474
5.48642779476
3.58906531147
4.55410798445
8.54818524528
13.4908475285
16.4964550327
16.2252951029
14.2672474406
12.6943919721
11.8712262718
12.1118242241
12.6829473919
12.5845723795
14.6449739279
14.092213729
15.9683120654
9.87108107247
12.869202938
4.81116781817
3.13683573936
2.49464206543
3.0955985756
4.33947324166
4.21354524003
4.07121699658
4.26211742247
4.68411232791
5.2916112537
6.06950852882
7.01605505332
7.95954807517
8.78659438051
9.57691825573
10.3795063304
11.3008452851
12.2676144964
13.1965790722
14.209771618
14.397724367
14.3158792234
14.5090643905
15.024147379
15.8848316654
17.0161659532
17.8137351566
18.4676107146
19.1449593179
19.8467349611
20.5614740385
21.2832053176
21.9529454926
22.234560957
22.3767527927
22.4557757086
22.2463150534
22.3905479956
22.7615274542
22.6909840204
22.2676178854
22.382846194
23.8082884015
24.9179732784
25.171321493
25.1791149848
24.9525328579
24.5667260396
24.1480272541
23.5491165582
22.9142145115
22.4393701552
22.1619715898
21.1930631119
18.7612715976
17.6919124491
16.5220879097
14.4299048597
12.3414409963
10.3647159333
8.4213076501
6.6699689251
5.87734366983
3.99779082908
4.94798806229
8.66463150496
14.5279783556
18.2963514649
17.0458028053
14.9091269088
13.0243288392
12.3678113691
12.8240243291
13.9523790264
13.3956438567
13.2607304095
12.7471622448
11.556476533
9.72157565389
8.17328197436
4.25848203142
3.20576875166
2.80317691406
3.31461550112
3.57035606202
4.06815771093
4.4869203433
4.46560339458
4.59461915024
5.19920148351
6.04804107743
6.99988994574
7.96315252654
8.8382827251
9.63460693181
10.2923126993
11.1228670488
13.8087772718
15.8245186306
16.2075095904
15.5498663393
14.1255157916
14.1425903022
15.1622501038
16.0782357306
16.9216717726
17.8005667003
18.5773085059
19.257692073
19.9382309745
20.6537190822
21.3345999869
22.111852119
22.3991739545
22.2654001111
22.7400079458
22.5448924705
22.2867129664
22.9042269359
22.8667154793
22.4933495752
22.6206947697
23.3125605405
24.0147452819
24.3869829696
24.4919179878
24.4198943854
24.211748404
23.8884125762
23.4525466169
22.9283269518
22.3189002922
21.5129149211
20.3834764459
19.2317975487
18.1256510708
16.3544002472
14.3360109603
12.3486432347
10.4166072004
8.59104002387
7.02182992331
5.55710811162
4.57604638151
6.25173858217
11.0236634281
15.5171543359
17.7297976475
17.8684525728
16.3161559921
14.6857973529
14.0405176817
13.9840199493
13.3537434319
12.782972429
12.770727373
12.4350270915
11.457031893
9.83612174716
7.40423317578
7.58465851696
3.18248796428
5.47666892417
3.60418851766
3.70514323097
4.38874366823
11.8471170225
10.2235162585
5.19109365502
5.17893176083
6.05155784328
7.02484398002
8.00583678158
8.85660144599
9.68233952671
11.4128077638
13.5360403798
15.2002866848
15.5783865787
14.4439002823
13.5662431009
13.856391509
14.3972940279
15.1205526856
16.0429352988
17.012417247
17.9310478877
18.740298887
19.3948350258
20.1042051655
20.733864435
21.5773793211
22.0986644812
22.7343494513
22.6190081916
22.2214497467
22.6519707984
22.4927618643
22.3505744152
22.5149906621
22.6714426776
22.9511410426
23.4831386142
24.0476979568
24.4150135632
24.5595535725
24.5244373538
24.344792939
24.0426568492
23.6277729652
23.1088309537
22.4726614409
21.6643756483
20.6489045144
19.4894949371
18.1214703655
16.3961400643
14.4357582917
12.4642590134
10.5938503577
8.91283771217
7.52644445896
6.52328574941
6.3099920763
7.46380717734
10.4111734861
15.9153771578
19.4311252271
19.6254266048
17.985671659
15.658874251
14.0920923671
13.3433079181
13.5400493129
14.9513632696
14.8908062686
13.5701710308
13.4245790099
16.7032334617
13.1111399807
11.1334623809
5.61238964219
7.53104763612
4.32794065231
4.64545243336
6.52345483132
11.7373976286
8.15254458445
5.61314037207
5.69890792125
6.2753946471
7.17217455154
8.16916619036
9.5868208683
11.9164074737
12.9371772958
13.3038567953
13.2812871659
13.0282652986
13.0762675399
13.6199354079
13.9926581546
14.4373465976
15.2125141063
16.1506255913
17.1411444566
18.0962957903
18.8680402701
19.6706416647
20.2240056522
21.0870668289
21.6157552436
22.82276299
22.6556768613
22.209210205
22.379339556
22.0887915262
22.1564274356
22.3857973847
22.645211692
22.8979355301
23.2168024335
23.66673389
24.1420370211
24.4921778645
24.6614860123
24.6581961345
24.5066727843
24.2287357843
23.8371382409
23.3342446158
22.7038384491
21.9133384482
20.941075399
19.7755537433
18.3392306269
16.583567864
14.651094502
12.7510230727
11.0269323971
9.59081465566
8.54922520726
8.01685610748
8.21418727925
8.63032006525
10.5860405785
15.4092823555
19.5040220804
20.9282682438
19.7852488186
17.0453097254
14.5988960556
14.3037491001
16.564621783
17.4350204604
16.3962412967
15.4763679552
18.1181168829
21.1223647558
16.4441101036
15.5608596558
9.91412363121
9.07238489215
5.38776397114
5.97280650303
12.0168280221
11.4813770032
6.47770620661
6.19186883436
6.31555126181
6.62458549615
7.42963421679
10.0881041394
13.3342054639
13.7603137218
13.3903479349
12.4316253676
12.020704636
12.3335250488
13.2578344805
13.6008510207
13.8721922673
14.5068899034
15.3623721139
16.3392408534
17.2554552106
18.2242868079
19.2855885941
19.7761786577
20.8173758451
21.1305201216
22.6077423632
22.5775279523
23.3976731178
22.4880454408
21.7298598108
21.7780181964
22.1291528231
22.4989638265
22.8271056223
23.130274067
23.4694368694
23.8781995759
24.2971984012
24.6277094822
24.8096638564
24.8316124841
24.7068308357
24.4560573057
24.0939399156
23.6204526449
23.0185073126
22.259806333
21.31214271
20.1309626003
18.6596909226
16.9209660571
15.0788881986
13.3335754947
11.8298252131
10.6804223421
9.95882672856
9.80565843147
10.4676802257
9.60036744658
12.3478716477
17.2840781475
20.7921408522
22.1910331732
21.2978775017
17.9552939253
15.7910844589
17.6012191242
19.8071213504
19.2849211238
18.285480551
18.3562389377
22.9015361217
24.4767039292
19.4829263629
19.2833875407
12.0243244808
8.887514592
6.55265844581
6.14673248417
11.9474807869
8.30558822591
6.66161731093
6.77040957694
6.88688490555
7.57276578636
8.04199047078
13.1042535635
13.7674583206
13.7910039135
12.4046754148
11.3510695948
11.5930633068
12.9153611491
13.2400038572
13.2921933123
13.8887035309
14.6243828662
15.4818535949
16.4567280777
17.5817156392
18.6649650132
19.3099013668
20.6906002173
20.8826898801
22.4960078007
22.3100722454
23.3676138691
22.7910360006
22.2337092688
21.522022047
21.7067315398
22.1999396737
22.6563033311
23.0277815189
23.365088371
23.7227034414
24.1143340443
24.5013113052
24.8163148398
25.0052146921
25.0471373085
24.9488513394
24.730525621
24.407464747
23.9775210126
23.4203454482
22.7023301894
21.7789041992
20.6000553116
19.1446527581
17.488074207
15.8075527326
14.2818727357
13.0132106186
12.0452004537
11.4698616733
11.3308475198
11.1579881477
11.1771426488
13.7813193813
19.8706475403
22.1813337292
22.5316689274
21.494628596
19.2509232889
19.0068035979
21.5640862264
22.0029201188
21.1665357908
20.5774003485
22.5341888689
25.2610540039
26.7082608581
22.13165525
20.9942812976
11.719392859
8.49567445579
7.67893765022
12.0864205715
12.0293700522
7.26222326449
7.29757667372
7.43301653152
7.54041743433
8.09806937197
12.8725833703
13.8023145341
13.8649455442
13.3557258018
11.1886064736
10.908761614
12.482204522
13.0716834357
12.8561562326
13.1661330936
13.9362637801
14.8140805284
15.6974252557
16.7321560871
17.6832028458
19.0491803077
19.4170790314
20.7033037122
22.2435247604
22.6275683662
21.9822450335
22.8037446228
22.8935952609
21.6089940767
21.4956340381
21.8484247441
22.3437166143
22.8265798091
23.2377748849
23.6083562721
23.9853993129
24.3760363611
24.7485542299
25.05387117
25.2474268626
25.3069309516
25.23718616
25.0584441557
24.7854555014
24.4130317643
23.9156894904
23.2518914011
22.3702945948
21.2324110972
19.8575771235
18.3576280372
16.8966997643
15.5833421662
14.4249354175
13.4554342545
12.8455975702
12.6250293628
12.6326737547
12.9863159428
13.0903041556
19.9325070947
23.9486096554
23.9713869886
23.4006224053
22.4717612833
23.3070280123
24.6626048155
23.9799385747
23.2979671733
23.5054656787
25.8130704774
26.4664664501
27.0303282755
24.1513521603
22.0150952367
10.9666824358
8.37864984386
8.33918524395
13.0516618114
10.9575960461
7.84114037451
7.9860514762
8.24965882101
9.48904672348
8.18710194916
13.6464587177
14.3105819525
13.8961665422
12.078217368
10.7810544013
11.0483131913
12.5718505622
12.7713841851
12.7373298044
13.195071071
13.9413992921
14.9065752157
15.8989009886
17.3598371254
18.5953899312
19.0048349696
20.9556666602
20.5769321722
22.4655517985
21.9861010926
23.2474403017
22.082087171
21.6559336081
21.5100750016
21.6641601405
22.0458016197
22.5219527685
23.0110002071
23.4574486312
23.8656446318
24.2660640708
24.6643138597
25.0346817396
25.3373355456
25.53579771
25.6130781696
25.5764035955
25.4458633156
25.2343634583
24.9337490097
24.5134550379
23.9254245682
23.1189817162
22.0773404934
20.8567908054
19.5800218316
18.3489770928
17.1404105972
15.8861949711
14.7852114702
14.2347878573
14.3220139769
14.6578529475
14.868088131
14.7111994958
16.5037489513
24.0775627968
25.7722237857
25.785717463
26.4313120294
27.4789772479
27.1170886387
26.0989123186
25.8969258124
26.8772990099
28.0445691875
27.864790933
27.2300766897
26.2011512232
24.8261439284
10.390874762
8.78335593143
9.4963065565
13.1078560381
8.92025856163
8.85428162152
8.68052516774
8.94089284543
12.1036334347
10.8030830537
14.4803837309
14.5693972362
13.9521540891
11.3485971198
10.7989197423
12.4184903191
12.8129719027
12.5156785565
12.7048975911
13.3568901166
14.0762658736
14.9862221657
15.838443565
17.5281148143
19.6838669598
18.9440017863
20.9053274366
22.1479580299
22.7166022844
23.2626927836
22.4201996328
22.3791964565
21.3392558695
21.4161846784
21.8300808832
22.2635450499
22.7261261721
23.2122043133
23.6860977637
24.1356295969
24.5683765032
24.9826095468
25.3583900608
25.6643933798
25.8712707193
25.9686122768
25.9700388574
25.8970861018
25.7593355402
25.5456139985
25.2227587246
24.7404582253
24.0558071416
23.1781698519
22.188198116
21.1759047855
20.1003332165
18.7680308581
17.2707783719
16.224373277
16.1117502237
16.709610917
17.2497146976
17.3861183707
17.0903791767
15.8070837339
15.9395738335
27.4691229702
30.3191597044
31.298353007
31.1158979353
29.6555860782
28.7155966346
28.987667963
30.120380763
30.4210932649
30.1330543429
29.8038473544
30.1243023823
30.2994561484
10.3234930003
9.59566505821
12.9427449652
13.2404276869
8.97925025704
9.60038579076
9.36814713609
9.87601211788
11.5681830613
14.3300150546
15.2897393607
14.8200472506
14.1700264211
11.3263470155
10.9480770454
12.9480936897
12.9056412635
12.4843106407
12.7332889033
13.4988559716
14.4542461055
15.3481202234
16.0295328701
17.1559401109
19.8588119359
21.0350547702
20.4943089875
22.2843177554
21.4996849021
23.2980980837
23.5581195371
22.3165620971
21.2991779012
21.5279352476
22.0278542946
22.4925580971
22.954477556
23.437568774
23.9269881147
24.4159760459
24.891375608
25.3319088746
25.7200969321
26.0345175747
26.2540958537
26.3767013012
26.422817283
26.4155686355
26.3624006957
26.2509023736
26.0486591183
25.7090435034
25.2043659516
24.5694393219
23.8794833981
23.1079083939
21.9617193398
20.2990371486
18.8564459658
18.3535820724
19.0247245414
20.1649191409
20.8316445663
20.8724441498
20.2352553372
18.6831998733
16.3402175619
17.3757405919
31.6936844999
36.9242734088
35.5256861187
33.0292109611
32.1525723141
32.615704869
33.3770726001
33.668426305
33.912280647
34.369714922
34.9518376657
35.609633894
10.6365065872
10.4454858498
14.5724716146
13.9138227554
11.9691178579
10.8082683538
10.2766306723
11.3416645451
10.9979677945
15.2884373462
15.9192436587
15.1421317408
14.2256396226
11.9162640959
11.7108358029
13.4187080708
12.9168953673
12.5614300232
12.8531869974
13.5461020479
14.6099835183
15.8093720964
17.5256624808
17.3013774413
19.3520870302
21.4211854652
20.3669730691
22.5624274933
23.3310675768
22.4214688916
22.5852949641
21.5937734807
21.5982750526
21.8603685241
22.2829985175
22.7466133301
23.213230058
23.6971359828
24.1885213966
24.7015940121
25.2275283084
25.7137855824
26.122915838
26.448153515
26.6852511241
26.8404032313
26.9385115487
27.0034634137
27.0425252088
27.0456616279
26.9858815061
26.8306973534
26.5774679255
26.2695851941
25.9054506362
25.1943391296
23.6871383576
21.9980594781
21.265735553
21.7364298675
23.3879472331
24.9538641403
25.6998306229
25.7754523928
25.0156424942
23.165885544
20.1100300975
16.0671383107
26.699332381
37.5812407587
40.4731428967
37.5906640709
36.7550165701
37.1374976679
37.7207253005
38.0385814022
38.8938444977
39.5973318258
39.5445503791
39.7497746486
11.2117831733
11.0809260781
14.2960296686
14.3767771328
14.3781897434
11.9174736359
11.3177681081
14.2290772712
11.3343006644
16.144734397
16.3986828398
15.4751871647
14.284729158
12.5051989115
14.3851957219
14.4811303488
13.0894735798
12.7744403386
13.1058275855
13.6946465591
14.5750265674
15.7969879426
18.8447076656
19.7864939665
18.8194106387
21.5000476936
22.4043340703
22.1212999093
23.3031228045
23.6026621779
22.9596145819
21.6205247312
21.8047609977
22.1959933383
22.5934607177
23.0327110702
23.4885597057
23.9882902638
24.501219377
25.0175988911
25.5703879998
26.1116049568
26.5642721132
26.9094955896
27.1673990637
27.3622183303
27.5200872845
27.661176546
27.7937076684
27.9149333676
28.0132417085
28.0877297369
28.1664139632
28.2526504533
28.1278929386
27.1358459068
25.3981739251
24.8322013955
25.8047869935
27.6066476702
30.1326661983
31.7670301267
31.9800653031
31.7935713169
30.2039054417
27.6291517776
24.3198650329
17.9704326755
19.0831167421
32.9385021699
40.1000494867
41.2275641417
39.7861428396
40.871458001
41.9362633874
43.3177367239
44.5500824206
45.0691230434
45.0545763532
45.2434814021
11.8468321867
11.7638757884
11.4213214783
14.6864039253
14.8908693031
12.6591042467
12.2577723982
15.1937428282
11.9622068663
17.0235907894
16.8279206715
15.8219252158
14.4572977118
12.800647953
15.549663931
15.0234783171
13.5001573084
13.1600064121
13.4539547593
14.0129616313
14.665546477
15.6967181986
19.3748769982
20.8575623944
19.1631216656
21.5570741187
22.9356482546
21.5659748185
22.9377534216
23.1298396909
21.853599924
21.9766494889
22.2582454196
22.5818467486
22.9355568417
23.3732641026
23.821350958
24.2876596143
24.8257868266
25.3850002716
25.9543670402
26.5275898105
27.0292068067
27.4128578522
27.7033528724
27.9462086194
28.1694655688
28.3838494199
28.6017961487
28.8325953259
29.0878376827
29.4352723573
29.9276061919
30.4338972433
30.2495510173
28.7091316947
27.8546606318
26.6772699842
25.2972530414
25.1692807616
24.8143038054
21.4329649488
13.9656848287
8.42597770247
1.02316644278
0.288205343788
3.39239374754
15.0353199583
21.6825929419
21.9505270452
44.3822886102
48.6486589187
48.0458064882
43.5993000486
40.7311869512
44.1396220666
49.2501158135
50.4663934881
51.8411757135
52.3616623672
12.6611567338
12.7485634365
15.3169689623
15.3084063677
15.316033627
13.2885027592
13.2859575587
16.0141260108
12.9569054082
17.7798394062
17.2346341697
16.1901259912
14.7097610891
13.1798071034
15.8184279469
15.1896612228
13.9103628784
13.6014374467
13.8330542844
14.3273067405
14.9225236014
15.7323494587
18.755576102
21.6742313694
21.803126145
20.9040383671
23.1548398935
23.9002784841
21.6989835582
21.5092934813
21.7892868487
22.2144341875
22.6113337405
22.9664696863
23.3375857392
23.7376835507
24.1835326894
24.6644390465
25.1745231416
25.7645547209
26.3825110183
26.9857159705
27.5215437528
27.9475847922
28.2887339777
28.5922881484
28.8849492089
29.1725181972
29.4542175469
29.7475267407
30.1395103535
30.7917006688
31.7510657967
32.5552361801
31.865454971
28.9734332503
21.2875781543
0.0428540034817
4.71349598641e-05
8.83611996757e-07
1.49778288719e-08
4.33345751098e-11
1.2314740306e-13
2.13165823839e-18
1.66738939855e-18
4.04803803673e-18
2.72869768735e-17
1.27810676224e-16
4.72133275963e-16
3.00033318602e-15
2.34919390812e-15
2.0380534386e-13
1.1599929443e-10
1.16604043087e-08
8.84827712945e-07
0.000203754441283
3.42982841462
54.0493178358
58.0010895654
59.7343011595
13.4238414294
13.6135565283
16.9219627901
15.9490466805
15.3896216453
13.9277764557
14.2863949188
16.6973780281
16.671123401
18.7151679059
17.6982813845
16.6479649892
15.0422362028
13.7055214279
16.1035851017
15.2986572218
14.3095637856
14.0525224652
14.2149460693
14.6303166014
15.1976396635
15.9878086815
18.2169636496
21.9383860846
23.1874338217
20.5867055313
22.6942115384
23.9499826837
23.59976539
21.986426241
21.8926154664
22.4446111825
22.975521316
23.404954591
23.7234054026
24.1307863594
24.5646440027
25.0607420184
25.5854796807
26.1772286385
26.8379254227
27.4901842506
28.0507824508
28.4999488649
28.9007620241
29.3173470105
29.7193379921
30.0500693209
30.2894142673
30.5830220843
31.113190052
32.0318569009
33.4136483405
34.3392460304
28.2740029587
0.0634234738626
2.36978641905e-08
9.59649137469e-11
2.77514995933e-12
4.04010963346e-14
3.28250370155e-17
5.47717199344e-20
3.86088367472e-21
0
0
0
0
0
0
0
0
5.36983077536e-25
1.81113275227e-22
2.70906855697e-20
1.57171482124e-17
2.19529987992e-14
1.18881099259e-09
1.80535300514e-05
27.9840092869
62.0645157432
14.0463052339
14.258221895
19.0888472476
16.4384539949
15.2055774594
14.4970560728
15.0013845701
16.7167479592
18.2593735144
19.7948427644
18.3178798445
17.2379581613
15.6230403889
14.5286734379
16.5958830986
15.5637729899
14.7907555214
14.5553373806
14.636937008
14.9698245859
15.4686463708
16.2022415642
17.9978883857
21.815162803
24.1838688155
23.361242638
22.1643357418
23.3164914349
23.3110658948
21.9199956516
22.3529757387
22.939475935
23.5206916823
23.8981431993
24.2324643412
24.558310588
25.0053399042
25.4847959538
26.0328671436
26.6410089104
27.3163950716
28.019032248
28.6549338917
29.1286660447
29.576099611
30.1107321173
30.6341951984
30.9700549028
31.1214506322
31.3775914017
31.9764494347
32.9625023213
34.4144811713
28.6920828917
0.000156929884479
3.43090749512e-11
1.12518827381e-14
4.54979667157e-16
6.20351079772e-18
1.70117125426e-20
0
0
0
0
0
0
0
0
0
0
0
0
0
6.9190263407e-24
6.87555739509e-23
1.5072711529e-21
7.30854939453e-20
4.05860518301e-16
3.37823525097e-07
6.51209373788e-12
14.5320919646
14.7326942712
21.161918669
16.8105352667
15.2899224111
15.0296251703
15.8048978323
16.0225057813
19.2115691194
20.5668148873
18.9220882622
17.8444358152
16.4074726241
16.4449946521
17.2842767635
16.0726089902
15.4699086286
15.2580174159
15.1675728086
15.3970697129
15.7929306136
16.451374354
17.9746983105
21.6825755598
24.5998823422
25.0200522622
21.8614299053
22.1677243007
21.9571279063
22.0451089136
22.6588261729
23.4494248685
24.0280475245
24.4303654835
24.7791434739
25.1902325566
25.5102665492
25.9776239662
26.5209823807
27.1257498203
27.8667872051
28.631480201
29.3069832002
29.742288069
30.1910612229
31.4069844384
33.084513429
33.5971118967
32.5942021169
32.5289018605
33.021795562
33.9640272203
27.2046308064
1.81557488345e-05
2.73630918032e-10
1.22755132081e-21
1.24045581686e-18
2.02408204497e-20
0
0
0
0
0
0
0
0
0
0
0
0
0
0
0
0
0
0
1.06896787746e-22
7.23887390513e-22
1.33490836492e-19
93.9358815011
14.9632723665
15.1300664724
20.9776589432
16.1960879668
15.4715072472
15.4908211273
16.7196810462
15.9877747333
20.0137048897
21.290452716
19.5019454637
18.411328068
17.0135266439
18.7042775448
18.2521161848
16.7871080371
16.2540012301
16.3362078351
15.9220552365
15.9943284603
16.2172484006
16.7385775351
18.095687924
21.5359702074
24.4724107809
26.1326581737
24.6850277182
23.6074442256
23.0326628375
22.3250346097
22.9755978098
24.120991955
24.4725637174
24.9605403487
25.5983783274
25.7942068993
26.1136433876
26.5798920265
27.1334246099
27.7348122493
28.4110905708
29.222686284
30.0360922507
30.9125902398
32.0076665688
33.6115094973
34.8707656364
34.7322954058
34.539609858
35.013277069
35.9094744922
31.5389748722
8.2565261477e-05
7.5365596011e-10
9.90546963347e-14
1.34535263623e-15
0
0
0
0
0
0
0
0
0
0
0
0
0
0
0
0
0
0
0
0
0
0
3.28919692633e-22
2.39405389633e-11
15.4696726199
15.6147128551
20.5937820808
15.8335809806
15.7584125965
15.8666496015
17.5038139013
16.4387678255
20.7043274341
22.0017255139
20.0830362536
18.9873447608
17.5267547479
19.4424755373
19.1497808072
17.5766601199
17.0263090944
17.2234865003
16.8284687822
16.8151363264
16.8465359929
17.0693536048
18.3781834011
21.5184022493
24.1995325015
26.474020304
25.9030972678
24.0962701889
22.3546784046
22.8519484714
23.5293222196
24.6332285763
25.3917425185
25.9931303942
26.4482123322
26.5009755564
26.7994090982
27.2802872379
27.8420761449
28.4698509298
29.1451693772
30.0311792506
31.19924785
32.765437366
33.7974507319
34.082949288
34.6842019356
35.1138175521
36.8519424268
38.9708628916
37.9299092302
0.00075233009363
9.9895073777e-10
1.72263933128e-13
3.53322197989e-16
8.55461006625e-18
2.87149222231e-20
0
0
0
0
0
0
0
0
0
0
0
0
0
0
0
0
0
0
0
0
0
5.52760605986e-23
7.31352769724e-23
16.2253927621
16.3711923045
20.2363739543
16.1052868883
16.3209850498
16.3455712069
17.4820284441
17.1683638321
21.1941074485
22.6781830569
20.7023957637
19.617930294
18.1671143884
20.1206603077
19.9649793682
18.4662498489
17.8652746042
18.0922225728
17.7113461107
17.7842441715
17.759042297
17.5635095648
18.8564315496
21.6874810719
24.0756313866
26.5765165727
26.4480079336
24.7822138769
22.825851409
23.0849931771
24.196402794
24.7642054405
25.3794049102
26.2067382338
27.4011057508
27.5517043701
27.7603808577
28.0844727944
28.6029840614
29.3095580814
30.0975489249
31.1150045158
33.0821913621
34.867508296
34.98295676
35.0554927473
36.1159233129
39.2969776026
43.4505624344
42.2677174458
0.000214943050793
3.57058146276e-11
1.47759010604e-15
4.84453303133e-19
3.0396846717e-21
6.16119449269e-21
9.46129567987e-22
0
0
0
0
0
0
0
0
0
0
0
0
0
0
0
0
0
0
0
0
0
4.08561586392e-24
1.85515811267e-23
17.3680736085
17.4709521157
20.5005883374
17.0499367818
17.4983562539
17.202652965
17.767746056
18.5139947909
21.2107409875
23.1799594373
21.3897583649
20.3247200861
18.9196888483
20.8924652948
20.8099215252
19.5248623319
18.8976153693
19.114829715
18.6020473169
18.8549221872
18.9963744366
18.2952084066
19.398939219
22.0427325815
24.1406674201
26.4359709777
26.6955445461
25.4031587207
24.9269352848
23.9747646173
24.6354242796
25.6624912281
26.8992155016
26.806356018
27.6072951735
28.6205830193
28.8245632028
29.2367221198
29.6385694912
30.2376197209
31.1711951051
33.1182013112
35.8858185241
36.7240079503
36.377604204
37.4573612749
41.9864365795
48.8498404796
48.4070225129
7.73153822886e-06
5.40962365554e-13
5.05062129796e-18
3.45580158672e-20
0
0
0
0
0
0
0
0
0
0
0
0
0
0
0
0
0
0
0
0
0
0
0
0
0
0
0
18.9690332206
18.8295859262
21.2960447283
18.9710474256
19.4895643288
18.4771151744
18.7058147522
20.4688765376
21.4082256491
23.7930719941
22.2001865355
21.1186386295
19.7609832331
21.7023467235
21.6504760352
20.6946300503
20.425194948
20.4576363654
19.5852056199
20.0276910573
20.5450087856
19.3565557907
19.818725363
22.4820368905
24.401041605
26.3059662156
26.8832478133
25.5483807922
26.1288041852
25.5989768501
25.7500280261
25.3435025317
26.5570067824
28.1156523959
28.5877843449
29.3331098585
29.8922836545
30.3243418018
30.89423412
31.514010334
33.0001381175
36.3087389107
38.6055564777
38.8616130543
39.4679337249
43.3365442331
51.2813351915
51.0575099523
1.09670192179e-07
4.82764186996e-15
8.43973694159e-18
3.86444793614e-20
0
0
0
0
0
0
0
0
0
0
0
0
0
0
0
0
0
0
0
0
0
0
0
0
0
0
0
0
20.6700992725
20.1103271677
22.168339066
21.5288939766
21.2267270021
19.9648874902
19.7491317821
21.6219779622
20.6018768019
24.2697482532
23.1162458693
21.9922494505
20.6824240502
22.5275513813
22.4330236341
21.6722689442
22.5639671587
22.0822244865
20.6972740907
21.3337156776
21.9158675789
20.7307448741
19.9660749824
22.4828064757
24.5919302375
26.2155272294
26.9614451331
25.6439372464
26.5201454436
26.911288295
27.1117965477
26.1384185715
26.8570227036
28.0201291158
29.5477682539
30.5876956552
31.1993237841
31.5913583198
32.132960989
33.264409794
36.3286035663
39.8762472107
41.5585447143
42.3803323491
44.9737270711
50.9223721067
48.2149720138
9.547481516
1.2998843926e-14
1.8818569091e-17
6.59062593751e-20
0
0
0
0
0
0
0
0
0
0
0
0
0
0
0
0
0
0
0
0
0
0
0
0
0
0
0
0
0
21.5226069795
21.0212023591
22.7351180194
22.6004149611
22.3174850864
21.383351824
20.9675842961
23.0279151267
21.6625381127
24.8819987067
24.0435835656
22.9138579736
21.6791581588
23.3867997022
23.2324997892
22.497527047
23.5495682753
23.2063905045
21.7913733435
22.6327402626
22.6732714089
21.5606903007
21.0363430375
21.2546398571
24.1178829698
25.7473881482
26.774550113
25.6437456041
26.6130685533
27.4752632375
28.2280007851
28.0272822753
27.1834255054
28.0982294113
29.8144160092
31.4961125008
32.6250264314
33.2926432263
33.8501760207
36.378310926
40.4274844376
43.4862937507
44.8946937584
46.578602582
50.5445782653
44.3548160007
16.6697385632
6.86710020843e-14
6.18588588004e-17
1.76177232355e-19
0
0
0
0
0
0
0
0
0
0
0
0
0
0
0
0
0
0
0
0
0
0
0
0
0
0
0
0
0
0
21.6452183275
21.6143404058
23.1010896997
22.8499412357
23.0297572774
22.4979153183
22.0401124086
24.4123392133
23.3845898702
25.6764223453
25.0330001493
23.8704851288
22.7462800492
24.2952322601
24.1060586866
23.4600234439
24.3747284989
24.1945269547
22.947426443
23.6834891027
22.4624729337
22.3400418232
22.1078671137
22.3841212877
23.2322854981
24.2210136262
25.9748486904
25.4927123868
26.1966971776
27.540024746
28.7194549108
29.4226431608
28.7656266953
28.9239448874
30.0264269105
31.6746918255
33.5405870892
35.0727270015
36.5371269838
40.3767591264
44.394885004
46.8326304597
47.7980377799
49.2408749963
43.2639441649
20.8490229995
4.65757076919e-13
2.14870192387e-16
4.81329331142e-19
0
0
0
0
0
0
0
0
0
0
0
0
0
0
0
0
0
0
0
0
0
0
0
0
0
0
0
0
0
0
0
21.9411946123
22.0533846552
23.4342895081
21.9990698681
23.3596654336
23.1345134833
22.7802440139
25.0603215392
24.2745903729
26.4994428516
26.0672998316
24.8346407579
23.8913763129
25.2402482794
25.0262814369
24.5593815556
25.2868165235
25.2929642911
24.2253602556
25.11411375
23.8374425876
24.0137824186
23.3887536529
23.6936948724
25.0795142439
25.7028616408
25.6530542997
25.2787461527
25.760955286
27.5265991654
28.7690740211
29.717694763
30.1857306688
30.0655273425
31.4559262954
32.4673615323
34.3093308303
36.7583502305
39.9133091469
44.4856840696
47.9933773903
49.4655636683
48.3241116984
43.5760814162
36.1045490122
17.7248015305
1.80303210708e-15
4.10469081913e-18
0
0
0
0
0
0
0
0
0
0
0
0
0
0
0
0
0
0
0
0
0
0
0
0
0
0
0
0
0
0
0
0
22.6970211378
22.7739995893
23.7919207092
22.4598451963
23.657026093
23.5096924352
23.3198684577
25.3082560069
24.9143384237
27.1243758387
27.0864331583
25.7483042597
25.1017253645
26.178171523
25.9142944624
25.628810069
26.1683387257
26.4780153795
25.5491872742
26.5528603259
25.6345557207
26.1098156681
25.8592284896
24.6888661203
25.834562618
26.8221610048
26.9391176364
25.1737712068
25.2610494271
27.4752289095
28.9637426189
29.4109524091
30.0314672628
30.4617452389
31.8401591923
33.1493881403
35.2130069147
38.5016894223
43.4702085309
48.5971913949
51.2866810297
50.9585622642
46.9621977231
38.9514334
22.7563764525
2.05006058415e-14
2.86030992959e-17
1.15986203569e-19
0
0
0
0
0
0
0
0
0
0
0
0
0
0
0
0
0
0
0
0
0
0
0
0
0
0
0
0
0
0
0
0
23.6443492581
24.6686033923
24.305206387
23.4792317076
24.240449135
23.9469177116
23.8439364617
25.5304150631
25.5022909271
27.4083582071
28.0779006253
26.5733835755
26.1818104528
26.9568284045
26.7608348313
26.449945568
26.5023854472
27.5618120356
26.9406633975
27.8142607077
27.6118760707
27.4665023346
27.3020027393
26.9091470625
26.1987670129
26.981207841
27.9330093538
24.7445320913
24.8330996119
26.8469172524
29.0596122538
30.0356864619
30.8471915374
30.5680078078
31.781952517
33.4753872505
35.7889458703
40.1337929561
46.9720253214
52.469805187
53.9214161243
48.9086864007
45.4140725694
40.162093145
20.3408148655
1.93874401667e-16
4.94814104999e-19
0
0
0
0
0
0
0
0
0
0
0
0
0
0
0
0
0
0
0
0
0
0
0
0
0
0
0
0
0
0
0
0
0
24.376775539
25.4355224271
25.0597750628
24.4075662666
24.985433118
24.5625284445
24.4374593798
25.8353870361
26.0749543521
27.4339797624
28.9665565959
27.3698501155
26.8558081388
27.6097227047
27.6781966037
27.2018558739
26.7822770794
28.3445341556
28.3686807696
28.9197104086
28.9742559443
29.1115874948
27.9066098953
27.8878558606
27.4297320353
28.6390772516
29.3156382713
26.6233982551
24.5031012585
25.9299190435
28.4569590951
30.2908108024
31.1562904257
31.2258945651
31.5522308347
33.3975779675
35.8436786595
41.4200897665
50.2775628327
56.3424882682
54.6674244299
47.887025789
40.2987157075