/*--------------------------------*- C++ -*----------------------------------*\
| =========                 |                                                 |
| \\      /  F ield         | OpenFOAM: The Open Source CFD Toolbox           |
|  \\    /   O peration     | Version:  v1806                                 |
|   \\  /    A nd           | Web:      www.OpenFOAM.com                      |
|    \\/     M anipulation  |                                                 |
\*---------------------------------------------------------------------------*/
FoamFile
{
    version     2.0;
    format      ascii;
    class       volScalarField;
    location    "535";
    object      pa;
}
// * * * * * * * * * * * * * * * * * * * * * * * * * * * * * * * * * * * * * //

dimensions      [0 2 -2 0 0 0 0];


internalField   nonuniform List<scalar> 
6400
(
-0.119305552063
-0.119306955824
-0.119310909724
-0.119318617298
-0.119330008969
-0.119345067581
-0.119363854186
-0.11938705267
-0.119415202363
-0.119449032502
-0.119491796104
-0.119545394121
-0.11960858489
-0.11968166843
-0.119766111109
-0.119863767723
-0.119975976167
-0.120103089367
-0.120244482538
-0.1203975146
-0.120559048048
-0.120730143002
-0.120915669868
-0.121121057722
-0.121350208662
-0.121603767609
-0.121880051484
-0.122177968247
-0.122498056763
-0.122841672335
-0.123210110078
-0.123602872159
-0.124016003819
-0.124445349035
-0.124889499307
-0.12534634655
-0.125816354937
-0.126305942969
-0.126814459218
-0.127333245128
-0.127863727552
-0.128419823617
-0.12900940319
-0.129625091106
-0.13025659932
-0.130897000685
-0.131540934353
-0.132184472382
-0.132823981207
-0.13345637333
-0.134079364002
-0.134687112602
-0.135269197441
-0.135811144797
-0.136310880255
-0.136776487585
-0.137202301068
-0.137571886186
-0.137877583021
-0.138129066196
-0.138333124947
-0.138493077639
-0.138601621585
-0.138692924093
-0.138816639495
-0.13901666557
-0.139280960371
-0.139551461234
-0.139783063915
-0.139970968322
-0.140125915571
-0.140260616725
-0.140383192197
-0.140490268743
-0.140584357912
-0.140664866526
-0.140730817506
-0.140773616036
-0.140800821479
-0.140812204893
-0.119303512191
-0.119305002492
-0.119308551286
-0.119316063834
-0.119328191295
-0.119343961881
-0.11936291304
-0.119385155992
-0.119412218181
-0.119445879362
-0.119488324099
-0.119541156525
-0.11960426513
-0.119677603645
-0.119761847564
-0.119858384677
-0.119969863852
-0.120097041552
-0.120238896694
-0.120392037484
-0.120552032769
-0.120721426568
-0.120906202368
-0.121111114545
-0.121340087447
-0.121593732248
-0.121869726118
-0.122167528946
-0.122487775013
-0.122831386591
-0.12319923435
-0.123591706531
-0.124005092669
-0.124433890654
-0.124877691221
-0.125334346113
-0.125803702778
-0.126293352331
-0.126802628631
-0.12732166568
-0.127850293073
-0.128405809703
-0.128998644564
-0.129616822675
-0.130249379878
-0.130891047304
-0.131536311841
-0.132181588948
-0.13282266817
-0.133454602438
-0.134074947419
-0.134683208768
-0.135272543852
-0.135817681279
-0.136319549013
-0.136789846953
-0.137213115714
-0.137577550262
-0.137883612735
-0.138134759657
-0.138333640383
-0.138494194204
-0.138608489578
-0.13870495069
-0.138832550659
-0.139032677112
-0.139300375948
-0.139570539871
-0.139800426765
-0.139987709253
-0.140142346741
-0.140277445576
-0.140401381003
-0.140510433943
-0.140603472555
-0.140681334581
-0.14074232778
-0.140783658964
-0.140809956422
-0.140818731113
-0.119297736482
-0.119300194574
-0.119303307076
-0.11931013442
-0.119321782295
-0.119339284713
-0.11935965431
-0.119380960588
-0.119406399861
-0.119438997748
-0.119480680642
-0.119532749083
-0.119595419253
-0.119668518129
-0.11975210405
-0.11984586942
-0.119954941033
-0.12008413375
-0.120227070321
-0.120378837641
-0.120535792662
-0.120700996436
-0.120884077911
-0.121089646288
-0.121318181324
-0.121570525769
-0.121846209248
-0.122144123253
-0.12246426325
-0.122807541504
-0.12317467219
-0.123566561289
-0.123980472055
-0.124407580655
-0.124848860853
-0.125306295516
-0.125774778799
-0.126262345612
-0.126771872305
-0.127293187301
-0.127827342577
-0.128386568732
-0.128977703754
-0.129594335077
-0.130227280783
-0.130870171864
-0.131517829218
-0.132165946192
-0.132810259192
-0.133446594989
-0.134071702179
-0.134681402823
-0.135266423941
-0.135815597589
-0.136328613675
-0.13680136622
-0.13722141379
-0.137583890987
-0.137889315969
-0.13814042642
-0.138342666843
-0.138502346049
-0.138621620273
-0.138730561372
-0.138873571796
-0.139082217327
-0.139339968734
-0.139601470831
-0.139832485509
-0.140022674821
-0.140180226542
-0.140317087789
-0.140438096916
-0.140542657841
-0.140633270265
-0.140708123802
-0.140764348551
-0.140802841672
-0.140826775503
-0.140835323095
-0.119289619622
-0.11929207027
-0.119294566326
-0.119300768679
-0.11931085503
-0.11932793102
-0.119353391369
-0.11937452681
-0.119397799477
-0.119428637839
-0.119469119706
-0.11952035721
-0.119582500083
-0.119654529311
-0.119736773775
-0.119831755121
-0.119941948417
-0.120068373229
-0.120205649963
-0.120349602623
-0.120502765335
-0.12066907381
-0.120852419413
-0.121056872385
-0.121284573582
-0.121536245045
-0.121811489871
-0.12210916808
-0.122429070817
-0.122771723816
-0.123138436712
-0.123529568902
-0.123942559007
-0.124370674623
-0.124807934002
-0.125260710905
-0.125731335114
-0.126217888542
-0.126723746126
-0.12724738826
-0.127788388585
-0.128352857797
-0.128945240334
-0.129562026607
-0.130196163985
-0.130841339363
-0.131492229328
-0.132144222833
-0.13279295832
-0.133434212029
-0.134063865613
-0.134676643606
-0.135264749128
-0.135820250961
-0.136338527549
-0.136812264706
-0.137231989112
-0.137593791461
-0.137898701854
-0.138150345963
-0.138354731555
-0.138519374634
-0.138654845903
-0.138786517161
-0.138940253628
-0.139140793952
-0.139394716146
-0.139655531591
-0.139888421224
-0.14008122952
-0.140238068435
-0.140369196871
-0.140483708556
-0.140588688773
-0.140680900562
-0.140751442354
-0.140800692117
-0.140837974564
-0.140863528024
-0.140873999655
-0.119276932897
-0.119277263499
-0.119280317933
-0.119286517874
-0.119297444547
-0.119312754193
-0.119335478678
-0.119358712529
-0.119383155797
-0.119413752874
-0.119453029015
-0.11950338811
-0.119564903516
-0.119638263263
-0.119722912808
-0.119816751043
-0.119921998176
-0.120039822785
-0.120169280967
-0.120309881171
-0.120462109204
-0.120627538397
-0.120810029759
-0.121013528055
-0.121240082219
-0.121490735828
-0.121765015543
-0.122062179542
-0.122381669687
-0.122723899048
-0.123089513581
-0.123480720504
-0.123894851592
-0.124318187665
-0.124752207963
-0.125201564913
-0.125667852642
-0.12615439145
-0.126661712678
-0.127188667629
-0.127735314469
-0.128304922273
-0.128900054077
-0.129518546599
-0.130154980572
-0.130803471019
-0.131458622201
-0.13211561263
-0.132769957257
-0.133417260068
-0.134052855387
-0.134671053441
-0.13526479516
-0.135826814517
-0.136350127444
-0.136826024748
-0.137246512734
-0.137608778072
-0.137914700749
-0.138169200959
-0.138379780688
-0.138556222067
-0.138712925227
-0.138865716138
-0.139025801728
-0.139224183915
-0.139472397964
-0.13973067784
-0.139964959297
-0.140158431364
-0.140310587647
-0.140435580914
-0.140552401214
-0.140663396433
-0.140753409633
-0.14081790864
-0.140865224821
-0.140907192496
-0.140932549022
-0.140940945484
-0.119253788039
-0.119253527664
-0.119258698831
-0.119264882559
-0.119276451745
-0.119292116553
-0.119313147862
-0.119336332506
-0.119362364266
-0.119393351019
-0.119430998249
-0.119480409253
-0.119544569227
-0.119620318104
-0.119702883535
-0.11979220168
-0.119890861513
-0.120001996023
-0.120126546753
-0.120263656312
-0.120412604809
-0.12057588523
-0.12075710507
-0.120959488836
-0.121184764915
-0.121433549142
-0.121706664481
-0.122002861983
-0.122321932679
-0.122663595707
-0.12302895082
-0.123418530064
-0.123828928253
-0.124253038178
-0.124681199091
-0.12512376018
-0.125588082308
-0.126075502785
-0.126585135764
-0.12711587236
-0.127667771366
-0.128242623254
-0.128841737215
-0.129463468277
-0.130103488664
-0.130756432136
-0.131416958955
-0.132080132712
-0.13274136423
-0.133396097531
-0.134039350192
-0.134665219739
-0.135266736295
-0.135836192349
-0.136365130957
-0.136844528849
-0.137267684121
-0.137632982125
-0.137943337069
-0.138204921946
-0.13842642927
-0.138618974293
-0.138799119518
-0.138966051021
-0.139132660911
-0.13933646256
-0.139584678877
-0.139837633412
-0.140067472108
-0.140255312514
-0.140401438287
-0.140529562519
-0.140657185484
-0.140769559091
-0.140854507927
-0.140915192003
-0.140965908631
-0.141008052321
-0.14103033049
-0.141039401855
-0.119218714487
-0.119221079429
-0.119229649038
-0.119238716396
-0.119247777867
-0.119263310795
-0.11928502907
-0.119308407595
-0.119335275764
-0.119366597602
-0.119405280932
-0.119454179859
-0.11951969289
-0.11959322701
-0.11967176583
-0.119755529974
-0.119849116313
-0.119956537005
-0.120077379877
-0.120209073544
-0.120353779577
-0.120514733129
-0.120694003276
-0.120894308185
-0.121117749014
-0.121365725055
-0.121635693532
-0.121930578189
-0.122249203636
-0.122591957155
-0.122955925988
-0.123341790058
-0.123749050921
-0.124165574152
-0.124590132882
-0.125029545577
-0.125492955618
-0.125981527311
-0.126493737601
-0.12702835543
-0.127585353624
-0.128165682488
-0.128769805386
-0.129396194205
-0.130041176647
-0.130699845821
-0.131367005388
-0.132037710224
-0.132707326788
-0.133371191233
-0.134024104791
-0.13465990268
-0.135271249874
-0.135849679977
-0.136385923462
-0.136871280229
-0.13730037935
-0.137672800066
-0.137992295666
-0.138265497216
-0.13850185215
-0.138713612767
-0.138910673596
-0.139091044095
-0.139276314512
-0.139485876189
-0.139732523759
-0.139975023352
-0.140192542314
-0.140372629786
-0.140522215378
-0.140664881981
-0.140800712339
-0.140909780306
-0.140990152174
-0.141050300599
-0.141103363478
-0.141139747934
-0.14115561176
-0.141163569726
-0.119177738649
-0.119182577103
-0.119192224421
-0.119205092104
-0.119214398953
-0.119230516797
-0.119250928199
-0.11927465335
-0.119302632509
-0.119331578517
-0.119372552726
-0.119424776722
-0.119487382916
-0.11955708944
-0.119630573368
-0.119708770038
-0.119799321598
-0.119904096918
-0.120019484039
-0.120145523799
-0.120285825213
-0.120443612868
-0.120620307694
-0.120818824794
-0.121040511681
-0.121285793377
-0.12155472182
-0.121843950138
-0.122163559903
-0.122508338919
-0.122869740185
-0.123247452369
-0.123648927053
-0.124059697208
-0.124479257435
-0.124918573424
-0.125382480702
-0.125872204375
-0.126386878544
-0.126925387325
-0.127487510874
-0.128073656724
-0.128683719805
-0.129316095149
-0.129967455309
-0.130633250777
-0.131308484925
-0.131988301076
-0.132668088035
-0.133343116781
-0.13400799445
-0.134656202648
-0.135279824636
-0.135869673978
-0.136416198093
-0.136911453002
-0.137351310694
-0.137735879792
-0.138068485286
-0.138355283913
-0.138606223267
-0.138833714751
-0.139046856251
-0.139251863043
-0.13945408434
-0.139671616731
-0.139908920097
-0.140138762548
-0.140344907374
-0.140524320705
-0.140687494278
-0.140846049706
-0.140984009275
-0.141089491247
-0.141166522596
-0.141226366652
-0.14127154414
-0.141297047089
-0.14130194885
-0.141303531963
-0.119133116949
-0.119139367862
-0.119148801744
-0.119158777662
-0.119170853628
-0.119190543984
-0.119210102006
-0.119233527088
-0.11926377511
-0.119293697351
-0.119330793657
-0.119384892297
-0.119446514994
-0.119511291402
-0.119580063774
-0.11965580284
-0.119742440405
-0.119842327289
-0.119952173095
-0.120073355174
-0.120209146174
-0.120362529279
-0.120534895832
-0.120730065416
-0.12095249547
-0.121193329258
-0.12146021085
-0.121750340349
-0.122064669331
-0.122405331634
-0.122765474819
-0.12314322357
-0.123530057375
-0.12393238131
-0.124351071658
-0.124791054255
-0.125255800752
-0.125746745098
-0.126263773157
-0.126806150718
-0.127373539008
-0.127965930777
-0.128582812752
-0.129222442554
-0.129881635823
-0.130556096699
-0.131241068537
-0.131931866869
-0.132623958009
-0.133312573088
-0.13399213529
-0.134655728644
-0.135294840531
-0.135899776265
-0.1364611224
-0.136971832054
-0.13742840958
-0.137829643397
-0.138176686454
-0.138475565814
-0.138738794199
-0.138981667092
-0.139214655664
-0.139442147733
-0.139663320587
-0.139893746666
-0.140125569479
-0.140335145237
-0.140532455951
-0.14071907727
-0.140901774744
-0.141072967807
-0.141212243838
-0.141316000306
-0.141389969944
-0.141441749306
-0.14146815609
-0.141474215805
-0.141464886431
-0.141456371134
-0.119084376605
-0.119091456746
-0.119102085424
-0.119110843719
-0.119123652827
-0.119142731324
-0.119162012733
-0.119184261207
-0.119212512807
-0.119248502482
-0.11928496506
-0.119336546403
-0.119396106936
-0.119456841569
-0.11952032701
-0.119594278776
-0.119678796134
-0.119772415985
-0.119875674291
-0.119991757878
-0.120123434303
-0.120272615158
-0.120440276222
-0.120628856857
-0.1208498833
-0.121091602812
-0.121348298643
-0.121638043597
-0.121949050282
-0.122287919619
-0.122644200174
-0.123014787148
-0.123395575661
-0.123789564743
-0.124205864481
-0.124646296675
-0.125111991494
-0.125604237005
-0.126123539777
-0.126669720416
-0.127242531145
-0.127841663882
-0.128466245633
-0.12911436588
-0.129782894662
-0.130467726414
-0.131164357676
-0.131868345202
-0.132575283587
-0.133280396102
-0.133977945994
-0.134660680136
-0.135319618462
-0.135944839795
-0.136527321339
-0.137060608006
-0.137540442882
-0.137960790373
-0.138319688749
-0.138627898021
-0.138904128482
-0.139166289959
-0.13942125491
-0.139667719796
-0.139906458053
-0.140141020267
-0.140360244925
-0.140566991128
-0.140760275284
-0.140960946396
-0.141165134766
-0.141349255626
-0.141494716543
-0.141600412883
-0.141669322078
-0.141701549459
-0.141698336471
-0.141675257692
-0.141646438336
-0.141627237844
-0.119029547868
-0.119036120613
-0.11904712122
-0.119057390798
-0.119073458676
-0.119088824382
-0.119106964166
-0.119128626414
-0.119151140989
-0.119188704562
-0.119228582812
-0.119277953547
-0.119334961398
-0.119393550166
-0.119453674824
-0.119523619482
-0.119604798964
-0.119692947629
-0.119789914627
-0.11989979338
-0.120026486685
-0.120172109618
-0.120338033031
-0.120519974208
-0.120730197039
-0.120974648316
-0.121229793076
-0.121511742209
-0.121817893814
-0.122143836057
-0.1224995192
-0.122865759319
-0.123240004533
-0.123629383678
-0.124043568477
-0.124483737609
-0.124950099998
-0.125443655725
-0.125965201057
-0.126515084474
-0.12709341463
-0.127699778075
-0.128332950683
-0.128990803801
-0.12967022706
-0.13036730547
-0.131077821277
-0.131797601087
-0.132522411671
-0.133247519326
-0.133967135159
-0.134673818949
-0.135358397391
-0.136010973189
-0.136622831561
-0.13718702181
-0.13769668671
-0.138135325604
-0.138501552008
-0.138819744086
-0.13911485713
-0.139402997199
-0.1396814724
-0.139941053846
-0.140182940073
-0.140408447274
-0.140615764036
-0.140827251538
-0.141018836449
-0.141247221617
-0.141479452418
-0.141685685752
-0.14184685232
-0.141959483174
-0.142019433497
-0.142021441346
-0.141973264042
-0.141907210289
-0.141847307759
-0.141812748153
-0.118967268732
-0.118972107358
-0.118979683016
-0.11899316162
-0.119012870443
-0.119026841079
-0.119044074171
-0.119066454455
-0.119086070911
-0.119119060913
-0.119160708449
-0.119208622713
-0.119262409759
-0.119319203032
-0.119379591369
-0.119445761142
-0.119521511393
-0.119603748795
-0.11969477156
-0.119797931443
-0.119917185127
-0.120056232426
-0.120222579294
-0.120405773256
-0.12060362665
-0.120839720625
-0.121094754272
-0.121365403172
-0.121671541425
-0.121993682383
-0.122335091371
-0.122691452397
-0.123060760909
-0.12344981689
-0.123862860042
-0.124302294061
-0.124768948427
-0.125263755512
-0.125787609147
-0.126341138804
-0.126924963206
-0.127538945489
-0.128181597605
-0.128850445534
-0.129542378673
-0.130253755417
-0.130980696939
-0.131719317641
-0.132465565434
-0.133214867518
-0.133961559868
-0.134698354162
-0.135416272893
-0.136105568732
-0.13675695474
-0.137359814962
-0.13790685927
-0.138364505066
-0.138734620005
-0.139068054206
-0.139392799538
-0.139717672571
-0.140023605741
-0.140288955572
-0.140520881052
-0.140721865202
-0.14089615869
-0.141095099671
-0.141325431059
-0.141574126845
-0.141855075371
-0.142103439
-0.142297831173
-0.142425094973
-0.142472897127
-0.142430081915
-0.142305633942
-0.142167807269
-0.142050461179
-0.141989700147
-0.118897574004
-0.118900814022
-0.118903804881
-0.118918617592
-0.11893713774
-0.11895304833
-0.118970557115
-0.11899344296
-0.119014084643
-0.119043577564
-0.119083592709
-0.119129035308
-0.119178978921
-0.119231446909
-0.119291960278
-0.119357396061
-0.119428160641
-0.119504450989
-0.119589638389
-0.119686393741
-0.119797401019
-0.119926344953
-0.120085938796
-0.120275097863
-0.12046910535
-0.120688600282
-0.120942884552
-0.121207614208
-0.121498104288
-0.121815909499
-0.122150675235
-0.122499485168
-0.122862585821
-0.123249639743
-0.123661740726
-0.12410047591
-0.124567138532
-0.125062915523
-0.125589137602
-0.126146555952
-0.126735939043
-0.127357699701
-0.128010532131
-0.128691628905
-0.129397761347
-0.130125641618
-0.130871864769
-0.131632819203
-0.132404648175
-0.133183069706
-0.133962928019
-0.134737650253
-0.135499111421
-0.136237415902
-0.13693915006
-0.137581645643
-0.1381857671
-0.138673234194
-0.13904154459
-0.139396724479
-0.139765461025
-0.140146681755
-0.140496927073
-0.140755054652
-0.1409866819
-0.141150005133
-0.141181284964
-0.141348735052
-0.141613074798
-0.141891586682
-0.142250084643
-0.142580697444
-0.142835574355
-0.143002120323
-0.143050889824
-0.14295036448
-0.142694598019
-0.142441968196
-0.142225199842
-0.142124195503
-0.11882135789
-0.118824832496
-0.118829590248
-0.118838619037
-0.118852979996
-0.118869510855
-0.118887431045
-0.118909081885
-0.118932799248
-0.118959839819
-0.118997347543
-0.119039770549
-0.119085932328
-0.119133767468
-0.119189541312
-0.119254132897
-0.119322097453
-0.119393828067
-0.119473452163
-0.119563957476
-0.119667385635
-0.119786060248
-0.119934070474
-0.120121844363
-0.120319238898
-0.120525585047
-0.12077161946
-0.121034650836
-0.121309990964
-0.121615281292
-0.12193929681
-0.122280549834
-0.122642496712
-0.123027986835
-0.12343868855
-0.12387646598
-0.124343109217
-0.124839736698
-0.125367933948
-0.125929286086
-0.126524644718
-0.127154500124
-0.127817975282
-0.1285123348
-0.129234306492
-0.129981029538
-0.130749666718
-0.131536864599
-0.132338861152
-0.133151979525
-0.133972172122
-0.13479467594
-0.135613471496
-0.136417191778
-0.137180699372
-0.137838718432
-0.138575024141
-0.139210274553
-0.139501964108
-0.139879727673
-0.140318365923
-0.140781809369
-0.141127659133
-0.141338412155
-0.141149897245
-0.141047020611
-0.14118740082
-0.141681370788
-0.142214403229
-0.142556159749
-0.143152816196
-0.14363834528
-0.143959536046
-0.144141972552
-0.144142136704
-0.143931092901
-0.143257656494
-0.142706584008
-0.142310847948
-0.14216788598
-0.118737135419
-0.118740964167
-0.11874918566
-0.118752500748
-0.11876263343
-0.118778128292
-0.118795776271
-0.118816955743
-0.118844260305
-0.118867831068
-0.118902035868
-0.118941250832
-0.118983925742
-0.119028266788
-0.119078914151
-0.119139683598
-0.119204048696
-0.119271540345
-0.119345732465
-0.119429711207
-0.119525841769
-0.119635789468
-0.11976973948
-0.119947025036
-0.1201497447
-0.120349749207
-0.120577523866
-0.120841066886
-0.121113497564
-0.121397763864
-0.12170789976
-0.122041527818
-0.122399685352
-0.122782859563
-0.123191871704
-0.123628489676
-0.124094655752
-0.124592138683
-0.125122395638
-0.125687348166
-0.126288756343
-0.126927223151
-0.127601912483
-0.128310291893
-0.129049457018
-0.129817303935
-0.130611692372
-0.131429301549
-0.132266273159
-0.133119822123
-0.133988273227
-0.134870756566
-0.135765048447
-0.136657853855
-0.137488942952
-0.138039166651
-0.139162826507
-0.139169633635
-0.139132045122
-0.13915316592
-0.13915283525
-0.139135690672
-0.139116803368
-0.139211838735
-0.139515576852
-0.139506463599
-0.139039599248
-0.138595520197
-0.138522768466
-0.138734795724
-0.139056194622
-0.139633112512
-0.140385606742
-0.141193925406
-0.141824622988
-0.142120696305
-0.142326371332
-0.142875079135
-0.142187783872
-0.142062030044
-0.118643599071
-0.11864680006
-0.118653323689
-0.118656291224
-0.118664015461
-0.118678453413
-0.118694736132
-0.118713544511
-0.118742942846
-0.118766055818
-0.11879710695
-0.118833318448
-0.118873025088
-0.118914753097
-0.118960776782
-0.119016067969
-0.119075477522
-0.119138185645
-0.119206619567
-0.119283686124
-0.119371888598
-0.11947343493
-0.119595124853
-0.119757324883
-0.11995708448
-0.120159336807
-0.120367890962
-0.120613640336
-0.120884152784
-0.121162027434
-0.121458421817
-0.121781940874
-0.1221339891
-0.122513427134
-0.122919958462
-0.123354689489
-0.123819972477
-0.124317764217
-0.124850041667
-0.125418644715
-0.126025917161
-0.12667324418
-0.127359863821
-0.12808298616
-0.12884010637
-0.129630828556
-0.130454447393
-0.13130701308
-0.132183109601
-0.133081706783
-0.134006549763
-0.13496308785
-0.135959701739
-0.136995193691
-0.138112559911
-0.138095978524
-0.138247444291
-0.138549343951
-0.138513988759
-0.13826826405
-0.137832110899
-0.137233713575
-0.136508579105
-0.135808776045
-0.135287477767
-0.1347340691
-0.133980285735
-0.133226707528
-0.132773127237
-0.132723438988
-0.133012959879
-0.133683066308
-0.134728162229
-0.136066208508
-0.137502220796
-0.13879651377
-0.13972329202
-0.140185901082
-0.141287879111
-0.141639135418
-0.118542051948
-0.118544544624
-0.118550349761
-0.118552116817
-0.118558727099
-0.118571438445
-0.118585746071
-0.118600445252
-0.118626672878
-0.118651922349
-0.118681414996
-0.118715037054
-0.118752316105
-0.118792753179
-0.118833688182
-0.118883043843
-0.118936766407
-0.118994166487
-0.119056269492
-0.119125938411
-0.119205534378
-0.119297647522
-0.11940777035
-0.119553261068
-0.119740693407
-0.119947552619
-0.120146912838
-0.120370612792
-0.120623660247
-0.120893678756
-0.121181209943
-0.121497399319
-0.121842833974
-0.122217332496
-0.122620702065
-0.123053274904
-0.123516930352
-0.124014548637
-0.124548332129
-0.125120483133
-0.125733563155
-0.126389588162
-0.127088535358
-0.127827267543
-0.128602971355
-0.129417919516
-0.130274041546
-0.131165155615
-0.132082233165
-0.133028463118
-0.134014933184
-0.135054343542
-0.136149367493
-0.137428941326
-0.137466673869
-0.1375639447
-0.13769941448
-0.137825435459
-0.13766152056
-0.137202684602
-0.136475433397
-0.135531778229
-0.134432606333
-0.133301137914
-0.132222372606
-0.131133100822
-0.129968428703
-0.128803335066
-0.127808664023
-0.127154781803
-0.126946096431
-0.127203784348
-0.127948797083
-0.129179814695
-0.130842006677
-0.132787833176
-0.134700729844
-0.136345532566
-0.138512496753
-0.141306483892
-0.118434141789
-0.118435578128
-0.118438311264
-0.118440100634
-0.118447423368
-0.118458265399
-0.118470907386
-0.118482338278
-0.118504261726
-0.118528264172
-0.118555335955
-0.118585706512
-0.118619564592
-0.118659051276
-0.118695638446
-0.118738982385
-0.118786745728
-0.118838864974
-0.118894268223
-0.11895609969
-0.119026478606
-0.119108141023
-0.119206229854
-0.119334922311
-0.119505063065
-0.119707196944
-0.119909014436
-0.120116522486
-0.120348336409
-0.120601729034
-0.12087803553
-0.121185329437
-0.12152277103
-0.121891198579
-0.122290757014
-0.122720695941
-0.123182777632
-0.123679721241
-0.124214697829
-0.124789926376
-0.125408348038
-0.126073152868
-0.126784960332
-0.12754037129
-0.128333733756
-0.129169380792
-0.130058552869
-0.130994812
-0.13195499371
-0.132946456785
-0.133997107045
-0.135120399814
-0.136372654227
-0.136344891653
-0.136505962543
-0.136916109367
-0.137052376498
-0.136853540643
-0.136312728772
-0.135483214577
-0.134404373047
-0.133133330624
-0.131735660091
-0.130293075411
-0.128837516901
-0.127341881716
-0.125803982772
-0.124286914691
-0.122900714046
-0.121789348604
-0.121098798283
-0.120891664711
-0.121190340731
-0.122034330664
-0.123491863997
-0.125595422985
-0.128029898042
-0.130150504245
-0.133576822787
-0.144573170677
-0.118321653429
-0.118322072684
-0.118321351952
-0.118323545886
-0.118331004156
-0.118339621649
-0.118350088337
-0.118359869803
-0.118376191268
-0.118396653918
-0.118419819812
-0.118445798878
-0.118474439784
-0.118509256168
-0.118543830808
-0.118581984599
-0.11862355491
-0.118669839139
-0.118719020032
-0.118773121256
-0.118834044613
-0.118904208561
-0.118989618738
-0.119101235724
-0.11925036887
-0.119436278812
-0.119637659733
-0.119837043053
-0.120051598504
-0.120288620577
-0.120549455688
-0.120844217939
-0.12117260489
-0.121532476112
-0.121926930929
-0.122353651639
-0.122813254611
-0.123309345778
-0.123845327587
-0.124423890859
-0.125047509956
-0.12572007213
-0.126443655215
-0.127216083877
-0.128031799915
-0.128894269782
-0.129813955429
-0.130778180457
-0.131767716499
-0.132805195396
-0.133917708929
-0.135163823415
-0.134996427622
-0.135082630071
-0.135754875505
-0.1361358195
-0.135989466546
-0.135389157362
-0.134406429464
-0.133141233943
-0.131651554423
-0.129989172272
-0.128203635477
-0.126341709735
-0.12441452164
-0.122410905925
-0.120346295189
-0.118278925661
-0.116297153572
-0.114519230856
-0.113090202302
-0.112126187304
-0.111617324571
-0.111586626948
-0.112147499988
-0.113521408799
-0.115575013514
-0.117035717861
-0.117553843592
-0.122396256456
-0.118205808778
-0.118205593157
-0.118203121414
-0.118205616459
-0.118211095
-0.118216409979
-0.118222734384
-0.118231157774
-0.118241467884
-0.118257162249
-0.118275567445
-0.118296446648
-0.118319451293
-0.118346847752
-0.118378287195
-0.11841174521
-0.118447042131
-0.118486141487
-0.11852862603
-0.118575292974
-0.1186270879
-0.118685110659
-0.118756949746
-0.11885137832
-0.118978592918
-0.119142229445
-0.119329928421
-0.119522651931
-0.119722648927
-0.119943776933
-0.120191640444
-0.120469734997
-0.120785141905
-0.121135881148
-0.121524829887
-0.121948150966
-0.122404785948
-0.122899261949
-0.123435514178
-0.124016918944
-0.124646055971
-0.12532653845
-0.126063269863
-0.126856775154
-0.127701263638
-0.128591562439
-0.129534348837
-0.130521199907
-0.131521381287
-0.132583976263
-0.133811614995
-0.133566446001
-0.133528761367
-0.13431267927
-0.135010399951
-0.135027473179
-0.13443085683
-0.133356116196
-0.131903003286
-0.130168923452
-0.128208427102
-0.12605940131
-0.123750802871
-0.121305481851
-0.118729055089
-0.116023183767
-0.113209695457
-0.110338713123
-0.107481325305
-0.104729333133
-0.102202156998
-0.100005059228
-0.0980747369157
-0.0962833005365
-0.0946661271608
-0.0935885263448
-0.092976446174
-0.0891534604364
-0.0742141382262
-0.0561224868908
-0.118085965731
-0.118085317361
-0.118082149723
-0.118084855062
-0.118087769439
-0.118089204674
-0.118090563551
-0.118096385241
-0.118099541505
-0.11810974623
-0.118122951641
-0.118138270164
-0.118155530156
-0.118176043287
-0.118201296542
-0.118229132224
-0.118257897524
-0.118288984342
-0.118322883913
-0.118361285575
-0.118403955033
-0.118449555323
-0.118506416786
-0.118583378056
-0.118688698984
-0.118827692282
-0.118996113043
-0.119178128041
-0.119371259147
-0.119573153025
-0.119803616192
-0.120065764145
-0.120364527625
-0.120698391262
-0.12107633267
-0.121497362571
-0.121952207656
-0.122445487446
-0.12298104692
-0.123563803548
-0.124198137798
-0.124887991253
-0.125640383001
-0.126456581149
-0.127325140817
-0.128241946877
-0.129219169796
-0.130256609272
-0.131235298018
-0.132346150196
-0.132160402953
-0.132029181797
-0.132772343458
-0.133683533413
-0.13396831366
-0.133456441585
-0.132316065271
-0.13070093298
-0.128720415678
-0.126453497321
-0.123940358749
-0.121204711355
-0.11826294169
-0.115128935347
-0.111812294029
-0.108326368603
-0.104697288678
-0.100965610225
-0.097178800903
-0.0933847525247
-0.0896315537859
-0.0859369890695
-0.082176894462
-0.0779894988347
-0.0732148469069
-0.0681655901288
-0.0622519285277
-0.0486962052334
-0.0116649472992
0.0428734762726
-0.11796033331
-0.117959196394
-0.117956047759
-0.117958857221
-0.117959142275
-0.117956713076
-0.117953997826
-0.117955251259
-0.1179507848
-0.11795483523
-0.117962191717
-0.117971266285
-0.117982154707
-0.117995302787
-0.118012843449
-0.118033868867
-0.11805603955
-0.118078124525
-0.118101796005
-0.118130319197
-0.118162833249
-0.118195827488
-0.118235910907
-0.118294772311
-0.118378418291
-0.118491369726
-0.118635787328
-0.118798087612
-0.118981637205
-0.11917280917
-0.119382944976
-0.119622133723
-0.11990364666
-0.120225858258
-0.120585780765
-0.120995559102
-0.121447824497
-0.121940053021
-0.12247641749
-0.123060292091
-0.123697994808
-0.124398301001
-0.125168059131
-0.126002723041
-0.126886671442
-0.127829079645
-0.128875865094
-0.130065488607
-0.130862232472
-0.130903420427
-0.130749540628
-0.131343701446
-0.132292909332
-0.132797551923
-0.132467729412
-0.131331616371
-0.129582331967
-0.127372935824
-0.124806994815
-0.121948352037
-0.118829683393
-0.115472300501
-0.11189519353
-0.108118511175
-0.104162251081
-0.100047295844
-0.0957945670443
-0.0914209358313
-0.0869309399946
-0.082303579554
-0.077474916249
-0.0723175989198
-0.0666106506609
-0.0599041205989
-0.0518895743182
-0.0426579206444
-0.0304678031542
-0.00584120707649
0.0481536986386
0.117261529643
-0.117826017114
-0.117824399222
-0.117821259481
-0.117823838148
-0.117821003667
-0.117815754595
-0.117809397995
-0.117804617971
-0.117793777159
-0.117792233501
-0.117793225919
-0.117795334585
-0.117799020879
-0.11780386479
-0.117812289498
-0.117824684657
-0.117839873391
-0.11785191614
-0.117864452873
-0.117881511156
-0.117901433764
-0.117922200212
-0.117944600919
-0.117983407855
-0.11804550325
-0.118132366949
-0.118249664182
-0.118386390793
-0.118547851067
-0.118729938235
-0.118927425953
-0.119144328243
-0.119396391252
-0.119699301795
-0.120048715482
-0.120444204396
-0.120888387747
-0.121376859859
-0.12191236689
-0.122498588475
-0.123141501807
-0.123851728672
-0.124634109979
-0.125475493596
-0.126366243454
-0.127341577251
-0.128529134217
-0.130545418908
-0.129967583018
-0.12985884035
-0.13015481849
-0.131011999962
-0.131602010251
-0.131461848957
-0.130418263686
-0.128598364135
-0.126200095925
-0.123367348371
-0.120194584468
-0.116740336447
-0.113041275171
-0.109127046545
-0.105025709049
-0.10076314049
-0.0963585286178
-0.0918200223482
-0.087139562987
-0.0822884092815
-0.077213760137
-0.0718273895325
-0.0659723723854
-0.0593814812515