/*--------------------------------*- C++ -*----------------------------------*\
| =========                 |                                                 |
| \\      /  F ield         | OpenFOAM: The Open Source CFD Toolbox           |
|  \\    /   O peration     | Version:  v1806                                 |
|   \\  /    A nd           | Web:      www.OpenFOAM.com                      |
|    \\/     M anipulation  |                                                 |
\*---------------------------------------------------------------------------*/
FoamFile
{
    version     2.0;
    format      ascii;
    class       volScalarField;
    location    "212";
    object      p;
}
// * * * * * * * * * * * * * * * * * * * * * * * * * * * * * * * * * * * * * //

dimensions      [0 2 -2 0 0 0 0];


internalField   nonuniform List<scalar> 
6400
(
0.151874923546
0.151877039591
0.151882996062
0.151894300024
0.151910316882
0.151930761259
0.151955758806
0.151986466509
0.152022805485
0.152064630175
0.152117273519
0.152183452013
0.152259521687
0.152345650896
0.152443818962
0.152556167885
0.152683139915
0.152823942395
0.152977295988
0.153138677478
0.153301529552
0.15346537005
0.153635456582
0.153818223456
0.154018376142
0.154235783507
0.154466835909
0.154709152876
0.154962856501
0.155229085812
0.155508867929
0.155800922164
0.156099295128
0.1563982345
0.15669618874
0.15698911433
0.15727564423
0.157564838199
0.157856095148
0.158137105004
0.158409482049
0.158690596645
0.158989943824
0.159299155708
0.159609738909
0.159917028849
0.160217432116
0.160509366527
0.160791645163
0.161063457904
0.161325032205
0.16157196502
0.161798886826
0.161997417662
0.162168745096
0.162323821089
0.162459799215
0.162566014577
0.162640874219
0.16269207046
0.162723884216
0.162737807738
0.162738350638
0.162723191599
0.162682509
0.162597683196
0.162464587212
0.162306695522
0.162150659605
0.162005612497
0.161869808255
0.161737630136
0.161605386637
0.161480287175
0.161361993375
0.161254813622
0.161162070592
0.161099510216
0.161058403116
0.161040964959
0.151871698428
0.151873897166
0.151879128551
0.151890189492
0.151907718262
0.151929691348
0.151955243151
0.151984401924
0.152018939526
0.152060856118
0.152113189011
0.152178016743
0.152254359947
0.152341621294
0.15244025366
0.152551295005
0.152677636644
0.152819263584
0.152974550249
0.153137560385
0.153298688848
0.1534600855
0.153629111739
0.153811141975
0.154011484402
0.154229870309
0.154461011879
0.154703840072
0.154958671511
0.15522583799
0.15550539757
0.155797728018
0.156097540457
0.156396571498
0.156695058098
0.156988365802
0.15727425393
0.157563881655
0.157856081069
0.158136203972
0.158403366163
0.158682464352
0.158987987909
0.159301223218
0.159613393592
0.15992234308
0.160224052559
0.160517567945
0.160800822217
0.161070766593
0.161328033014
0.161575572229
0.161812381631
0.162013277143
0.162185724816
0.162345556897
0.162478583812
0.162579919772
0.162654174284
0.16270509232
0.162735761915
0.162750760495
0.162751425546
0.162736418125
0.162696504313
0.162613041586
0.162478127451
0.162317335624
0.162158347532
0.162009953212
0.161870789292
0.161734745605
0.161597288992
0.161465530087
0.161344616578
0.161237204025
0.161148653876
0.161085907601
0.161044911108
0.161030952251
0.15186286856
0.151866621316
0.151871098869
0.151881199936
0.151898235349
0.1519232549
0.151951714378
0.151980084563
0.15201254157
0.152053320631
0.152104985958
0.152169134441
0.152245610116
0.152333600927
0.152432506982
0.1525401362
0.15266460126
0.152813612765
0.152973126136
0.153135206005
0.153291866033
0.153446392859
0.153613203179
0.153798030925
0.153998941452
0.154216384887
0.154448900303
0.154693903906
0.154950497828
0.155219191896
0.155499602093
0.155792888557
0.15609583639
0.15639404988
0.156690503543
0.156987396354
0.157272424213
0.15755894673
0.157851654553
0.1581340332
0.158408728945
0.158692461472
0.15899336799
0.159303613016
0.159615486654
0.159924884989
0.160228583061
0.160524494206
0.160810574245
0.16108498731
0.161347094773
0.161595694741
0.161825778144
0.16203050533
0.162214766921
0.162376132122
0.162506074885
0.162606366116
0.162680275688
0.162730889691
0.162761952084
0.16277734323
0.162777667608
0.162765004457
0.162726268637
0.162640825622
0.162507122364
0.162344695402
0.162177733195
0.162019946287
0.161871030226
0.161724951963
0.161581120289
0.161445079576
0.161319539929
0.161209870905
0.161122565464
0.161059622044
0.16101967281
0.161004899659
0.151851024168
0.151854715368
0.151857992792
0.151867236679
0.151882204587
0.151907100898
0.151944899375
0.151973144742
0.152003016754
0.152041771016
0.152092442895
0.152156227638
0.152233060231
0.15232065924
0.152420152381
0.152534894247
0.152666022644
0.152812867268
0.152964881418
0.153114087636
0.153264621121
0.153422515825
0.153591551796
0.1537761661
0.153978016293
0.154197086797
0.154431848706
0.1546793638
0.154938610673
0.155209187912
0.155492339035
0.155787414736
0.156091799647
0.156396241157
0.156688740952
0.156979660662
0.157270182471
0.157554569572
0.157839040643
0.158123218996
0.158406711118
0.158696757464
0.158998403349
0.159308262932
0.15962081216
0.159931843951
0.160238076968
0.160537063331
0.160826699818
0.161105154063
0.1613709393
0.161621982886
0.161854761299
0.162065808831
0.162254404759
0.162416250361
0.162547088862
0.162647981778
0.162722140666
0.162772996055
0.162804166582
0.162818748605
0.162819548711
0.162810303506
0.162775269482
0.162693490052
0.162557128924
0.162386351931
0.162206257939
0.1620338439
0.161872614906
0.161717850917
0.161566375623
0.161417062513
0.161278034579
0.161164403942
0.161078770421
0.161010161093
0.160962292115
0.160942459986
0.151832748401
0.151832913168
0.151836999208
0.151846479104
0.1518631362
0.151886470939
0.151920245203
0.151952285169
0.15198466639
0.152024348848
0.152074434994
0.152138161362
0.152216020407
0.152310150051
0.152418884559
0.152535901734
0.152661960834
0.15279620365
0.152936008588
0.153081704542
0.153233653654
0.153392252787
0.153562108457
0.153747930738
0.153951175653
0.154172333479
0.154409315315
0.154660115354
0.15492251463
0.155196891759
0.155482415617
0.155782729494
0.156093949697
0.156393402529
0.156685088075
0.15697272398
0.157255334352
0.157539020821
0.157825166268
0.158113175518
0.158403270293
0.158699005609
0.159003266133
0.159314512412
0.159628866037
0.159942455372
0.160251974264
0.160554794152
0.160848756585
0.161131975658
0.16140259365
0.161658294044
0.161896121662
0.162113075922
0.162306168074
0.162470780325
0.162603847646
0.162706599822
0.162782345206
0.162834592776
0.16286678272
0.162882098184
0.162884029965
0.162877707723
0.162843065612
0.162764156446
0.162628477717
0.162449257893
0.162251525047
0.162058938316
0.161881320304
0.161712020041
0.16153901006
0.16136466577
0.161211611039
0.161091459393
0.160995223039
0.160907385512
0.160851415655
0.160831113434
0.151798187003
0.151797516903
0.151805367008
0.151814919315
0.151833220956
0.151858677505
0.151889318183
0.151922333502
0.151958191064
0.151999851093
0.152048771876
0.152113681528
0.152201390998
0.152304461602
0.152413539892
0.152525571522
0.152642123563
0.152767126768
0.15290295866
0.15304734476
0.153196681141
0.153354489597
0.153525559778
0.153713338833
0.153918689653
0.154141234264
0.154381901563
0.154635917973
0.154903154339
0.155181415593
0.155473277393
0.155776951052
0.156086957942
0.156393322062
0.156677953381
0.156955071864
0.157235172765
0.157520324355
0.157809687387
0.158102301299
0.158398314561
0.158699642832
0.159007857145
0.159322069901
0.159639445393
0.159956555384
0.16027017614
0.160577630677
0.160876776478
0.161165740824
0.16144255612
0.16170483441
0.161949647051
0.162173535294
0.162372317258
0.162541453994
0.162678727242
0.162785497296
0.162864858295
0.162920161758
0.162954724172
0.162972701707
0.162978623855
0.162971304784
0.16293920444
0.162859609011
0.16272167564
0.162534177864
0.162317144239
0.162100160203
0.161898471111
0.161698429934
0.161487103131
0.161284604924
0.161114191313
0.160977776409
0.16085680076
0.160750466916
0.160687596036
0.160660590779
0.151745041719
0.151748725148
0.15176303116
0.151777644247
0.151792762887
0.151818087469
0.151850907438
0.151884991426
0.151923616385
0.151967577079
0.152020581076
0.152088837113
0.152184999125
0.15228876415
0.152394213614
0.152498246424
0.152608149915
0.152731805914
0.152867368674
0.153006378934
0.153152362886
0.153310561542
0.153482721645
0.153671544591
0.153879030066
0.154106979832
0.154348472688
0.154607399825
0.154879827825
0.155167304382
0.155464917552
0.155768820875
0.156080335015
0.15637803305
0.156658284642
0.15693150914
0.157211663514
0.157499430959
0.157792741599
0.158090225157
0.158391966753
0.158699055324
0.15901222852
0.159330740462
0.159652335445
0.159973968556
0.160292569962
0.160605548209
0.160910879285
0.161206790989
0.161491320884
0.161761988405
0.162015582246
0.162248016016
0.162454511881
0.162630800682
0.1627751648
0.162888772993
0.16297404525
0.163033601668
0.163071007277
0.163092296416
0.163101643776
0.163093422486
0.163072666557
0.162995602323
0.162849708072
0.16264892005
0.162410323315
0.162162138781
0.161918578394
0.161666655719
0.161407671949
0.161172948515
0.160975844043
0.160809078162
0.160655887647
0.160535193795
0.160467043248
0.160433816466
0.151682890367
0.151690567822
0.151707719085
0.151730157334
0.151746968394
0.151772382719
0.151804313667
0.15184012753
0.151882437235
0.151924492066
0.151984782656
0.152065538646
0.152160423076
0.152262172615
0.152360718301
0.152457268678
0.152566932752
0.152693000429
0.152823676373
0.152957597625
0.153101251859
0.153259663174
0.153433166774
0.15362484614
0.153835897312
0.154066910227
0.154314236177
0.154571953263
0.154854868259
0.155155502215
0.155453304025
0.15575263226
0.156062292367
0.156352920189
0.156626779086
0.15690263327
0.15718561932
0.157476556238
0.15777402479
0.158076622832
0.15838421889
0.158697417838
0.159016433054
0.159340419716
0.159667383217
0.159994562136
0.160319094848
0.16063858909
0.160951230918
0.161255413533
0.161549235091
0.161830110593
0.16209447332
0.162337722546
0.162554844024
0.162741843624
0.162897050088
0.163020701075
0.163113497669
0.163176724454
0.163215163302
0.163237363301
0.163247595259
0.163246139587
0.163234879035
0.163180556566
0.163031404786
0.16280961071
0.162538922275
0.162242855258
0.161935501164
0.161614087527
0.161299487458
0.161020936572
0.160783618642
0.160574850368
0.160395109529
0.160262739015
0.16019275267
0.160160656414
0.151615194827
0.151625552967
0.151643270001
0.151661580802
0.151684164616
0.151717151213
0.151748405142
0.151785266302
0.151833750575
0.151880514245
0.151938179633
0.152027689621
0.152125472553
0.152222343601
0.152314974533
0.15241130794
0.152520799997
0.152644662917
0.152770918801
0.152902263474
0.153044326767
0.153201590657
0.153374728619
0.153567964779
0.15378916946
0.15402142622
0.154275012084
0.154543475505
0.154827927503
0.155128267713
0.155433412262
0.155741317082
0.156031900462
0.156313271004
0.156589765653
0.156869800764
0.157156692203
0.157451356358
0.157753212861
0.158061198081
0.158374996084
0.158694809497
0.159020489179
0.159351029899
0.159684483888
0.160018262988
0.160349757873
0.160676863564
0.160998030801
0.161311859741
0.161616567299
0.161909527565
0.16218693442
0.162443927147
0.162675502027
0.162877748058
0.163048237291
0.163184775685
0.163284632315
0.16334816034
0.163385243805
0.163410230798
0.163427778321
0.163435484689
0.16342732452
0.163396216783
0.163280308347
0.163032225275
0.162714664632
0.162349823432
0.161952851574
0.16154300548
0.161155881928
0.160815561005
0.160523162865
0.160270989314
0.16007151873
0.159933416942
0.159862218642
0.159834603644
0.151541112651
0.151553634819
0.151574370519
0.151592440307
0.151616245502
0.151650164718
0.151682367664
0.151719301454
0.15176626098
0.151827567981
0.151890111182
0.151979617266
0.152078311414
0.152170668406
0.152257617223
0.152356891368
0.152470742147
0.152589204422
0.152710167905
0.152839571223
0.152981730202
0.153138917893
0.153312115232
0.153503685222
0.153732641182
0.153975196787
0.154222832913
0.154502551347
0.154793021934
0.155099505026
0.155406837503
0.155710041539
0.155996687731
0.156270248679
0.156548450511
0.156833103414
0.157124540263
0.157423514262
0.157730068249
0.158043691212
0.158364104757
0.158691169847
0.159024370804
0.159362500018
0.159703568677
0.160045080029
0.160384667415
0.160720566412
0.16105152491
0.161376363756
0.161693487734
0.162000397413
0.162293339681
0.16256758365
0.162818361929
0.163041420741
0.163232063991
0.163382504043
0.163484102777
0.16354242925
0.163580802619
0.163617279733
0.163650260212
0.163672090443
0.16367116714
0.163637131761
0.163547699257
0.163342825219
0.162958089312
0.162493412393
0.161978317244
0.16145334364
0.160962457044
0.160534852706
0.160175760065
0.159884686841
0.159668345957
0.159526472472
0.159451170546
0.159423426759
0.151457548695
0.151469854467
0.151492078455
0.151515033812
0.15154587778
0.151574055802
0.15160617505
0.151644947176
0.151684780469
0.151752710884
0.151827750287
0.151917829291
0.152016804393
0.15210824508
0.152194082442
0.152293561886
0.152409281753
0.152524325816
0.152641476959
0.152768079038
0.152910251345
0.153069292964
0.153247640517
0.153439249109
0.153661331027
0.153921634847
0.154179381174
0.154458234176
0.154749998831
0.155046881004
0.155364931883
0.155668784599
0.155949233635
0.156221813104
0.156503153799
0.156792447256
0.15708882889
0.157392727374
0.157704426713
0.158023933747
0.158351335985
0.158686328333
0.159027968208
0.159374756312
0.159724603269
0.160075075036
0.160424036771
0.160770031205
0.161112063379
0.161449166653
0.161780019094
0.16210250178
0.162413415667
0.162708816496
0.162984508153
0.163234987844
0.163449800292
0.163609012805
0.163702947143
0.163756941657
0.163809459753
0.16387136948
0.163928974643
0.163975100724
0.163988702188
0.163943818135
0.16383273242
0.163656417239
0.163294304099
0.162708906838
0.162030332967
0.161341209126
0.160691818819
0.160143076823
0.159711923863
0.159386866293
0.159151191623
0.159002440499
0.158926035978
0.158898526077
0.151362367807
0.151372022663
0.151388447652
0.151418306534
0.151459056489
0.151486048126
0.151518402701
0.151561676266
0.151600046632
0.151664253628
0.151748860995
0.151841587422
0.151939805982
0.152031884704
0.15212359113
0.152225029213
0.152338821807
0.152450370513
0.152565096725
0.152689057618
0.152828199502
0.152985018765
0.153173440199
0.153378798396
0.153594808674
0.153855490255
0.154123109632
0.154396861691
0.15470380224
0.155007799486
0.155314035538
0.155607331956
0.155886047584
0.15616641863
0.15645296677
0.156747260804
0.157049050992
0.157358547819
0.157676065294
0.158001813704
0.158336459421
0.158680011425
0.159031104027
0.159387704523
0.159747575461
0.16010838725
0.160468206678
0.160825769225
0.161180184128
0.161530607738
0.161876018975
0.162214998046
0.162545754101
0.162866246472
0.163173333771
0.163457500435
0.16369457067
0.163852181205
0.163935953645
0.163999886217
0.164092048826
0.164196667163
0.164284273604
0.164373167595
0.164421536445
0.164374277429
0.164221079464
0.163996875989
0.163647949321
0.16301049521
0.162143198762
0.161206378116
0.160292962726
0.159574571486
0.159078989587
0.15873561197
0.158475267961
0.158324371808
0.158275381563
0.158270062902
0.151255225292
0.151262209985
0.151270068452
0.151304061985
0.151344750616
0.151378101281
0.151413667536
0.151462005387
0.151506417753
0.151568926394
0.151657533003
0.151751663857
0.151848281273
0.151937515906
0.152036862744
0.152147233982
0.152258515931
0.15236703317
0.152480343423
0.152603187043
0.152739059087
0.152889821553
0.153076893691
0.153306498791
0.153529986296
0.153775895024
0.154059335252
0.154340519784
0.154635836532
0.154945563023
0.15525182543
0.155539900316
0.155817557386
0.156103801988
0.15639670809
0.156696891779
0.157004567447
0.157320092572
0.157644278394
0.157977201158
0.158319533779
0.158672017432
0.159033441866
0.159401146685
0.159772476275
0.160145219017
0.160517666316
0.160888539796
0.16125674195
0.161621255454
0.16198121914
0.162336276335
0.162687259454
0.163035690364
0.16338005261
0.163698989014
0.16394861517
0.164095822781
0.164181835003
0.164291256342
0.164468427939
0.164630955893
0.164729202182
0.164906370994
0.165043980431
0.16499721588
0.16476958099
0.164439019304
0.164049140351
0.163396833429
0.162350785178
0.161070517188
0.159662604116
0.158704039833
0.158201626404
0.157897959743
0.157592473832
0.157451618321
0.15749519165
0.157558634741
0.15113709246
0.15114522718
0.151158240683
0.151181297966
0.151216641592
0.15125405281
0.151293762836
0.151344397657
0.151399251155
0.151462636523
0.151553817167
0.151648913921
0.151744905648
0.151832542026
0.151932082673
0.152050675064
0.15216396228
0.152272726451
0.152385945154
0.152508784457
0.152643426952
0.15278975242
0.152971852416
0.153212927601
0.15345304155
0.15369638061
0.15398541114
0.154275476714
0.154565136559
0.154873184488
0.15516787115
0.155452192366
0.155739719582
0.156033628699
0.156333485506
0.156640315335
0.156954986032
0.157277251762
0.157608204342
0.157949059803
0.158300244373
0.158662390664
0.159034831263
0.159414795836
0.159799177463
0.160185782826
0.160573066309
0.160959448247
0.161343077397
0.161722199831
0.162095587624
0.162464096411
0.162832542126
0.163208430539
0.163592931683
0.16393243477
0.164168364491
0.164304220072
0.164463876846
0.164682451846
0.165026947943
0.165260608778
0.165253734666
0.16562342058
0.165918847502
0.165844986433
0.165481513919
0.16495500601
0.164415842696
0.163709840846
0.16267350913
0.1609823593
0.15861998565
0.157345264668
0.15704058675
0.156917026825
0.156438038645
0.156295370607
0.156575892413
0.156801057117
0.151004579869
0.151013666527
0.151035984821
0.151049308624
0.151078122821
0.151116653842
0.151159692727
0.15121422229
0.151281971816
0.151345395798
0.151437511704
0.151533650528
0.151630137505
0.151719348836
0.151819676933
0.151941262845
0.152056703865
0.152167414333
0.152281766086
0.152404912065
0.152539494661
0.152685119839
0.152859327707
0.153095785686
0.153362797788
0.153615275905
0.15389074843
0.15420158982
0.15450141084
0.154786503402
0.155071905676
0.155359007844
0.15565342538
0.155954884726
0.156262582054
0.156577025428
0.156898920531
0.157229030221
0.157567868348
0.15791685224
0.158277634212
0.158650661673
0.159035155217
0.159428467414
0.159827468042
0.160230145758
0.160635059091
0.16103998574
0.161441491309
0.161835605474
0.162219909416
0.162596452562
0.162973823003
0.163367696305
0.163783852847
0.164082892709
0.164269511269
0.164519849308
0.164970080697
0.16531524375
0.166021250976
0.166057510936
0.164995470568
0.16510925663
0.165538244342
0.165593307489
0.165341230571
0.164989771656
0.164687942747
0.164042161613
0.163356589511
0.161978258837
0.156074085253
0.154392102966
0.155256567898
0.155879719102
0.154926489694
0.154663444035
0.15555416495
0.15613781593
0.150854859406
0.150862964919
0.150882871633
0.150898219186
0.15092427767
0.150964355516
0.151008931488
0.151062665819
0.151142852447
0.151214893205
0.151307169541
0.151405022695
0.151503360635
0.151596732415
0.151699568467
0.151821829816
0.151938631034
0.152051949756
0.152168152996
0.152292049995
0.152426520798
0.15257288654
0.152742705417
0.152971090642
0.153253895117
0.153523746686
0.153790392831
0.154093782491
0.154405325119
0.154694063103
0.154972930402
0.155259906747
0.155559451779
0.155868475443
0.156184163899
0.156506254911
0.156836111969
0.157174323513
0.157522016213
0.157880226412
0.158251147866
0.158636049479
0.159033989136
0.159441929335
0.15985681954
0.160277873213
0.160704516113
0.161133040807
0.161555630389
0.161964769625
0.162357423931
0.162734361248
0.163104166447
0.163495060601
0.163936787788
0.164061493461
0.164314695116
0.165224527416
0.166046630693
0.165322977794
0.165362795846
0.165701808764
0.165526231796
0.165248122082
0.165309872193
0.165206533547
0.164861187777
0.164387836328
0.16377626331
0.162796011243
0.161426332419
0.158652556857
0.156072172613
0.155714273798
0.157503786052
0.158061566806
0.152370457096
0.151049071864
0.154411268428
0.155974064149
0.150690271766
0.150697325079
0.150717443808
0.150732623409
0.15075839727
0.150798759522
0.150844339905
0.150894419024
0.150975421929
0.151062009218
0.151159458496
0.151260563985
0.151362270603
0.151463549662
0.151569297207
0.151691890454
0.15180997889
0.151926599802
0.152045181574
0.152170374033
0.152305051649
0.152451301885
0.152618256184
0.152837576464
0.153119562811
0.153418533784
0.15369400494
0.153983411401
0.154288233774
0.154575718015
0.154855034675
0.155148941335
0.155455772504
0.155772598834
0.1560968221
0.156427685393
0.15676583237
0.15711286047
0.157469811263
0.157838283253
0.158220224251
0.158617476716
0.159030164703
0.159454883157
0.159887619817
0.160329315352
0.160782050802
0.161240194918
0.161689202319
0.162116235884
0.162516808542
0.162885329573
0.163210789706
0.163477595296
0.163759524921
0.163957593847
0.164233686083
0.164885609225
0.165552818379
0.165662602031
0.165389389659
0.165370224957
0.16514772466
0.164805386541
0.164586189475
0.164306164752
0.163855216598
0.163248089547
0.162484836807
0.161410330002
0.159911803665
0.157925890773
0.156188926164
0.155312095376
0.155163821602
0.153407768614
0.152061556495
0.154177876259
0.156217587759
0.156756232363
0.1505130002
0.150518485109
0.150534196986
0.150551119238
0.15058118021
0.150621477202
0.150669455385
0.150717905615
0.150797260044
0.150892434161
0.150994451594
0.151098258752
0.151201762535
0.151313679803
0.151425890147
0.151548632982
0.151668597636
0.151790175034
0.151912025138
0.152039178688
0.152174617394
0.152320413275
0.152485051228
0.152697258748
0.152974996612
0.153291905325
0.153587104116
0.153871160484
0.15416209416
0.15444353724
0.154725970762
0.155025865097
0.155339938365
0.155664299842
0.155997487242
0.156338811079
0.156687177612
0.157043381459
0.157410619593
0.157789858474
0.158183642077
0.158594932723
0.159024027646
0.159467162615
0.159917597617
0.160381512899
0.160872638948
0.161379879958
0.161862962689
0.162311562995
0.162725028916
0.163088409432
0.163348951449
0.163304067981
0.163032132991
0.163526024576
0.164027677402
0.164592176326
0.165025161726
0.165091490008
0.164882014964
0.16469930151
0.164429676013
0.164054490718
0.163655567878
0.163185929475
0.162573375945
0.161796602617
0.160843758593
0.159639448074
0.158090332092
0.156258192475
0.154478801982
0.15309719588
0.152144654255
0.151189858618
0.150970564353
0.15230267726
0.15392906805
0.15996587017
0.150325515393
0.150329751681
0.150340270217
0.150359425007
0.150393256887
0.150432947141
0.150482472906
0.150533838374
0.150608950866
0.150708352591
0.15081314839
0.1509185839
0.151021652274
0.15113841941
0.151262901501
0.151388450576
0.15151089863
0.151638221406
0.151766069832
0.151896751255
0.15203428739
0.152179389379
0.152342129532
0.152548315959
0.152816526936
0.153130391203
0.153447927762
0.153742238363
0.154028992282
0.154307270914
0.15458731431
0.154891365049
0.155212641013
0.155541672537
0.155885454275
0.156238454666
0.156596354242
0.156963442968
0.157342429274
0.157734791878
0.158141723656
0.158566670261
0.159012142999
0.159478844937
0.159965914851
0.160476712373
0.161014361713
0.161556797625
0.162078344306
0.162583317596
0.163046929945
0.16348750958
0.163858088578
0.16332829188
0.162974462971
0.16305613458
0.163622234371
0.164152429474
0.164407556018
0.164391062146
0.16417433693
0.163868656594
0.163471252903
0.162969190512
0.162386738075
0.161710784325
0.160899586095
0.159924358359
0.158764775206
0.157397738778
0.155747424617
0.153816397696
0.151818284827
0.149981760428
0.148382537451
0.146916296289
0.145717783008
0.145373055553
0.146709156835
0.13615754293
0.150128412981
0.15013222864
0.15014103307
0.150163558469
0.150197045167
0.150234207238
0.150280847122
0.150337369049
0.150408043707
0.150509045493
0.150615852339
0.150722879234
0.150826809207
0.150943459373
0.151078106954
0.151209950047
0.151336675704
0.15146861182
0.151603164159
0.151739917131
0.151882351129
0.152027549614
0.152188516145
0.152390371987
0.152649400457
0.152956321136
0.153282510008
0.153590451981
0.153870916675
0.154146236407
0.154433827738
0.154739022204
0.155065294613
0.155403990508
0.155759064732
0.156122994257
0.156491631074
0.156870798558
0.157262750959
0.157669360967
0.158091895633
0.15853376163
0.159003242319
0.159510969396
0.160053079672
0.160608053575
0.161176525159
0.161759365745
0.162364604465
0.163002399376
0.163582775855
0.164314144131
0.165757282428
0.163572464704
0.162975222043
0.163213986502
0.163482646262
0.16366165709
0.163680742954
0.163517911964
0.163194989631
0.162754293449
0.16220822023
0.161552424153
0.160789645349
0.159909956434
0.158886484868
0.157691905035
0.156302633378
0.154694347848
0.152850424873
0.150707561726
0.148309402208
0.14579102621
0.143140024573
0.140158549109
0.136629801165
0.132063926205
0.126095610081
0.116612147068
0.149919012901
0.149922771054
0.149931994917
0.149959250161
0.149991631621
0.150025812315
0.150067310456
0.150127233122
0.150192143463
0.150293010362
0.150401906662
0.150510741244
0.150616713887
0.150735038702
0.150874912657
0.151013298504
0.151145984799
0.151283035363
0.151422593955
0.151565838679
0.151715815436
0.151863292737
0.152022324617
0.152221009954
0.152472237769
0.152770825929
0.153098353021
0.153413603822
0.153703558765
0.153976492169
0.154269078819
0.154579748169
0.154905867885
0.155244393019
0.155606664968
0.155987075776
0.156370841073
0.156764430038
0.157169780291
0.157591244034
0.158032163412
0.158496329504
0.159003074072
0.159567063833
0.160154603612
0.160741054792
0.161347597778
0.162013768066
0.162781571233
0.163674110453
0.164201682763
0.164672570749
0.164689235365
0.164581540631
0.163614145394
0.163243826521
0.163135880774
0.163026391067
0.162822512323
0.162484919587
0.16201067513
0.161413428448
0.160699344352
0.159865008068
0.158905291705
0.157808532179
0.15655312553
0.155113084963
0.153461842537
0.15157187345
0.149419931896
0.146938134329
0.144021116785
0.140651528926
0.136703464414
0.131756182612
0.12500578468
0.114579374206
0.096088221421
0.0529248487425
0.14969159228
0.149695131832
0.149706581021
0.149739624331
0.149771453863
0.14980343607
0.149842230742
0.149901956971
0.149960866704
0.150059364382
0.150170214968
0.150280900978
0.15038908707
0.150509132484
0.150652060996
0.150796386057
0.150937282541
0.151080197496
0.151223713517
0.151372541308
0.151531327061
0.151684281295
0.151841110715
0.152036860155
0.152282330147
0.152571556536
0.152893765166
0.153204710037
0.153508522499
0.153795648907
0.154087869397
0.154396863695
0.154730490561
0.155079851376
0.15543914461
0.155826657608
0.156227896943
0.156638082913
0.157061811185
0.157500023846
0.157958767491
0.158456250918
0.159021473965
0.15964048272
0.160259785863
0.160882759951
0.161567963844
0.162391600608
0.163415026405
0.165053953462
0.164657599246
0.164515565662
0.164574694736
0.164219259258
0.163486607485
0.16296875649
0.162616018178
0.162262762926
0.161833829063
0.161296184956
0.160638122898
0.159858796904
0.15895646659
0.157924649249
0.15675347575
0.155428021387
0.153926301805
0.152220586411
0.150278887478
0.148064263164
0.145532648253
0.142632957113
0.139181345164
0.134942282003
0.129697349027
0.12289704603
0.11342981465
0.099116384764
0.0758937920971
0.0378863513361
0.149438130413
0.14944148865
0.149455037124
0.149493689711
0.149524631877
0.149557943211
0.14959585814
0.149652671194
0.149708679476
0.149806397525
0.149919435686
0.150031906199
0.150142214812
0.150263461987
0.15040751208
0.150555359451
0.150706536881
0.150856774507
0.151004429273
0.151158075851
0.151324667566
0.151487428318
0.151643425358
0.151834863739
0.152076566486
0.152357778698
0.152672733998
0.152977049211
0.153279475574
0.153585743534
0.153894583954
0.154205395569
0.154526753832
0.154880378009
0.155255443518
0.155648661923
0.156062374854
0.156488997443
0.156930979099
0.157389812962
0.157876702421
0.158426905893
0.159057413108
0.159717711119
0.160378578066
0.161078515538
0.161891825589
0.162820534271
0.163676633597
0.16445261999
0.164701748694
0.164402032603
0.164131187936
0.163706688537
0.163096206201
0.16248280907
0.161911614076
0.161325667726
0.160675408137
0.159930968422
0.159075925271
0.158101426488
0.156999522697
0.155759639578
0.154367755713
0.152805152217
0.151046881016
0.14906125966
0.146809363585
0.144242882832
0.141299499462
0.137893460671
0.13389832856
0.128972797009
0.122672364496
0.114499142486
0.103479646725
0.0879687866971
0.065206832615
0.034169543285
0.149151754096
0.149157110634
0.149171267752
0.149208953298
0.149242761575
0.149282943004
0.14932389269
0.149380525935
0.149440927801
0.14953337911
0.14964797585
0.149762201319
0.14987465666
0.149996810185
0.150140659536
0.150288200517
0.150445318159
0.150606516577
0.150761246603
0.150920988693
0.151093057606
0.151268463475
0.15143256872
0.151614696391
0.15185310641
0.152128463459
0.152436123303
0.152735508482
0.15303156523
0.153345986451
0.1536719173
0.153998434187
0.154319784492
0.154664421116
0.155040123566
0.155445784712
0.155873947574
0.156318507835
0.156777314926
0.157259758818
0.157794158668
0.158414105347
0.159099302514
0.159806059936
0.16054226684
0.161377062212
0.162357661285
0.163152305117
0.163906632434
0.164036300218
0.164167949123
0.163956441485
0.163591720637
0.163089625222
0.162440498261
0.161719880696
0.160973386941
0.160187267197
0.159332826799
0.158386790173
0.157332797465
0.156158589762
0.154852240323
0.15339955963
0.151782791114
0.149979353877
0.147960357518
0.145689214909
0.143119874433
0.14019359679
0.136833221696
0.132933310934
0.12834459302
0.122830197159
0.115882562984
0.10685235129
0.0949893808202
0.0791555044414
0.0573610024345
0.030137512573
0.148837254747
0.148846393461
0.148860307221
0.148890615262
0.148930813312
0.148978066222
0.149024958907
0.149085878301
0.149156201234
0.149242232261
0.149355263091
0.149470464298
0.149585140768
0.149708406245
0.149852263641
0.150000104395
0.150157037291
0.150327591425
0.150492529709
0.150660738732
0.15083830529
0.151025782696
0.151208275317
0.151392675198
0.151616350725
0.151885102273
0.152185955685
0.152481474085
0.152769968195
0.15308339852
0.153416883741
0.1537653268
0.154098965418
0.154437765846
0.154806894502
0.155213844269
0.155653500445