/*--------------------------------*- C++ -*----------------------------------*\
| =========                 |                                                 |
| \\      /  F ield         | OpenFOAM: The Open Source CFD Toolbox           |
|  \\    /   O peration     | Version:  v1806                                 |
|   \\  /    A nd           | Web:      www.OpenFOAM.com                      |
|    \\/     M anipulation  |                                                 |
\*---------------------------------------------------------------------------*/
FoamFile
{
    version     2.0;
    format      ascii;
    class       volScalarField;
    location    "482";
    object      p;
}
// * * * * * * * * * * * * * * * * * * * * * * * * * * * * * * * * * * * * * //

dimensions      [0 2 -2 0 0 0 0];


internalField   nonuniform List<scalar> 
6400
(
0.154404856105
0.154407308451
0.154414270253
0.154427762405
0.154447518641
0.154473397599
0.154505424713
0.15454461529
0.154591471472
0.15464681792
0.154715968257
0.154801707601
0.154901278414
0.155014686989
0.155143704711
0.155290511845
0.155456236149
0.155640572862
0.15584179385
0.156055121629
0.156274966283
0.15650199254
0.156742389275
0.157002970553
0.15728820576
0.157597960911
0.157928922174
0.158278655921
0.158646864987
0.159034208805
0.159441188728
0.159866113575
0.160303270937
0.160746913166
0.161194648504
0.161643329359
0.162092656693
0.162549113275
0.163011562007
0.163470406564
0.16392670995
0.164393787501
0.164878622173
0.165373430928
0.165868356696
0.166357074512
0.166834802737
0.167298217231
0.167744393332
0.168170882952
0.16857594979
0.168955350451
0.169302467055
0.169608689642
0.169873705643
0.170104402595
0.17029891602
0.17045040139
0.170559017992
0.17063329728
0.170679932381
0.170703937518
0.170711645255
0.170706706467
0.170686502516
0.170639400808
0.170563675723
0.170475145329
0.170390823156
0.170316200384
0.170250172444
0.170189577569
0.170132283955
0.170080923048
0.170034937744
0.169995148485
0.169962267085
0.169940820803
0.169927139223
0.169921390321
0.154401229367
0.154403818838
0.154410079471
0.15442326858
0.154444401574
0.154471618306
0.154504089506
0.1545417628
0.154586859769
0.154642109887
0.154710941244
0.154795614782
0.154895418404
0.155009721658
0.155138959714
0.155284508894
0.155449565771
0.155634575697
0.155837212837
0.156051376039
0.156269430168
0.156494310407
0.156733946974
0.156994285285
0.157279861263
0.157590384515
0.157921597725
0.158271884506
0.158641058336
0.159029183935
0.15943620139
0.159861536351
0.160299798312
0.16074357885
0.161191567018
0.161640571892
0.162089671358
0.162546614817
0.163010188064
0.163469477203
0.163924072708
0.164391153498
0.164880048839
0.165377894183
0.165874320025
0.166364654892
0.166843969859
0.167309289928
0.16775718322
0.168183754964
0.16858736221
0.168967904519
0.169320862197
0.169629126949
0.169895371368
0.170128919762
0.170321457041
0.170469269547
0.17057660408
0.170649298298
0.170693127285
0.170716000971
0.170722334068
0.170716518408
0.170695709912
0.170648140296
0.170569564656
0.170477902686
0.170391048675
0.17031420917
0.170246458485
0.170184301245
0.170125288232
0.17007211615
0.170026082135
0.169987231642
0.169956631541
0.169935804696
0.169922515977
0.169918079122
0.15439112047
0.154395443332
0.154401023123
0.154413116974
0.154433568532
0.154464076705
0.15449948605
0.154536042061
0.154578767074
0.154632678197
0.154700779036
0.154784864981
0.154884825798
0.154999791806
0.155129107445
0.155271459705
0.15543440069
0.155624552134
0.155830400546
0.156043446707
0.156257477349
0.156476870279
0.156715118239
0.156977701434
0.157264028366
0.157574216542
0.157906621581
0.158258735385
0.158629479657
0.15901893684
0.159426797328
0.159853191878
0.160293817939
0.160737256176
0.161183949849
0.161635118863
0.162084236009
0.162539928016
0.16300460444
0.163466865859
0.163927923337
0.164399758307
0.164887915833
0.16538528636
0.165883095232
0.166375517379
0.16685794615
0.167326723102
0.1677783333
0.168209532107
0.168617972857
0.169000727173
0.169351371557
0.169662836384
0.169936833664
0.170171597628
0.170361270959
0.170506518077
0.170611276187
0.170680887264
0.170722003295
0.170741777144
0.170745025541
0.170738508668
0.17071587305
0.170663606502
0.17058220656
0.170486551508
0.170393012349
0.17030997107
0.170237093961
0.17017102807
0.170110930478
0.170058173588
0.170012285633
0.16997434548
0.169945797252
0.169926202217
0.169914003208
0.169909628058
0.154376977046
0.154381348363
0.154385903542
0.154397006273
0.1544149931
0.154445359194
0.154490759374
0.154527333192
0.154566755352
0.154618322208
0.154685246613
0.154768974797
0.154869357524
0.154984121571
0.155113461343
0.15526057125
0.15542808687
0.155615846652
0.155814120248
0.156016098161
0.156225610002
0.156448258835
0.1566887096
0.156951633299
0.157238935712
0.157550534729
0.157884810723
0.158239105246
0.158612130149
0.159003381204
0.15941344133
0.159841481739
0.160283722457
0.160731041645
0.161175098273
0.161622788486
0.162075840852
0.162531581825
0.162993310575
0.163459220114
0.163928634568
0.164407085947
0.164897940072
0.165397045569
0.165897529671
0.166393568654
0.166880408234
0.16735408373
0.167810987446
0.168247787479
0.168661389569
0.169047996673
0.169402321236
0.169719610051
0.169997789136
0.170233008964
0.170421687383
0.170564749928
0.170666291158
0.170732059628
0.170768970766
0.170783997153
0.170783759419
0.170775366371
0.170749994302
0.170693971312
0.1706042662
0.170498042313
0.17039345725
0.170300910879
0.170221942258
0.170153592348
0.170092979631
0.170037681751
0.169989630612
0.169953158458
0.169927762613
0.169908516077
0.169895288925
0.169889876527
0.154354917969
0.15435561155
0.15436122956
0.154372611954
0.154392612374
0.15442119718
0.154462451878
0.154502950699
0.154545070021
0.154597243781
0.154663298538
0.154746898103
0.154848209241
0.15496821934
0.155104971391
0.155253201664
0.155414836301
0.155590471368
0.155778102363
0.155977109644
0.156187758193
0.156411464454
0.156653101676
0.156917374524
0.157206060178
0.157519443508
0.157855692899
0.158212749339
0.158588634469
0.158983009773
0.15939522692
0.159827253413
0.160274270692
0.160718881938
0.161162043984
0.161608085298
0.162057872856
0.162515231652
0.162980428546
0.163451782461
0.163928895123
0.164414402099
0.164909959314
0.165412795342
0.165917514195
0.166418630442
0.166911307998
0.167391383952
0.167855135987
0.168299072119
0.168719640946
0.169112699009
0.169473404294
0.169797185132
0.170079992443
0.170317151684
0.170505782571
0.170647230962
0.170745946328
0.170808083754
0.170840756885
0.170851106889
0.170845766086
0.170831165617
0.170797164278
0.170733498157
0.170634047474
0.170514058545
0.170393903449
0.170288398979
0.170202076416
0.170129873312
0.170063497712
0.170002338643
0.169954010466
0.1699200449
0.169895348063
0.169873435076
0.169860068798
0.169855546604
0.154314272603
0.154314047283
0.154323687536
0.154335446878
0.154357535728
0.154388113806
0.154426401511
0.154467648709
0.154513646372
0.154567756665
0.15463253949
0.154716797103
0.154826499453
0.154954523693
0.155090894662
0.155233744359
0.155386246841
0.155553296094
0.155736516399
0.155933592392
0.156142179145
0.156365654074
0.156608686426
0.156874871839
0.15716551054
0.157480351955
0.157819450803
0.158179390308
0.158559322742
0.158957348874
0.159374462748
0.159808971027
0.160255709957
0.160704883526
0.161144009774
0.161584427719
0.162034548297
0.162495494439
0.162965768107
0.163443630014
0.163928581587
0.164421774862
0.164923738712
0.165432258468
0.165942923533
0.166450678141
0.166950720229
0.167438787515
0.167911080297
0.168363981863
0.168793681039
0.169195824953
0.169565494882
0.169897517626
0.170186525678
0.170427465472
0.170617977931
0.170759756421
0.170857436215
0.170917235193
0.170946017242
0.170950855856
0.170937740561
0.170909999965
0.17086389349
0.170784560297
0.170668079048
0.170530510432
0.170391708185
0.170270953557
0.170174455824
0.170091673581
0.170013899013
0.169949116724
0.169902625616
0.169870705631
0.169844384499
0.16982214321
0.169809932634
0.169804827267
0.154252189578
0.154256785588
0.154273054606
0.15429060736
0.154309469979
0.154340283202
0.15438046091
0.154423302796
0.154472234996
0.154528687727
0.154597205895
0.154684669551
0.15480162044
0.154929373553
0.155061692995
0.155197055013
0.15534348051
0.155508442812
0.155690120295
0.155882288111
0.156087943689
0.156311769271
0.156555988877
0.156823466205
0.157116238862
0.157435160706
0.157775317929
0.158139010277
0.158523611447
0.158929150702
0.159350709102
0.159785651074
0.160233480649
0.160677277665
0.161114857634
0.161554769321
0.162007326986
0.16247296638
0.162949305009
0.163434397859
0.163927617193
0.164429281448
0.164939161409
0.165455201146
0.165973583887
0.166489641595
0.166998692792
0.167496489397
0.167979235395
0.168443266292
0.168884616896
0.169298694596
0.16968016194
0.170023025474
0.170321037609
0.170569039206
0.170765037596
0.17091077016
0.171010410532
0.171069177331
0.171092981464
0.171088555497
0.171061909992
0.171014721932
0.170954286211
0.170853692985
0.17070942506
0.170547023738
0.170386236635
0.170245820142
0.17013006632
0.170027798786
0.169939070861
0.169874398588
0.169831322887
0.16980134889
0.169774754405
0.169755180659
0.169745498471
0.169740337315
0.154179087728
0.154188260812
0.154207078721
0.154232696457
0.154253483235
0.154285355413
0.154324366265
0.154369407868
0.154422142787
0.154476750357
0.154552524228
0.154651370958
0.154766811083
0.154891748543
0.155017662761
0.155146199452
0.155291821895
0.155457631694
0.155634667414
0.155822008068
0.156025413946
0.156249187092
0.156494508559
0.156764483543
0.157060390721
0.157382112038
0.157726701567
0.158090031886
0.158482689439
0.158898415967
0.159321438693
0.159753213164
0.160199288231
0.160639883876
0.161075137631
0.161519173552
0.161976601586
0.162447718554
0.162930715082
0.163423703946
0.163925832883
0.164436882865
0.164956111739
0.165481422836
0.166009314992
0.166535429491
0.167055272763
0.167564724353
0.168060088713
0.168537734868
0.168993610582
0.169422857284
0.169819599031
0.170177081476
0.170488519192
0.170748789884
0.170955974067
0.171110988665
0.171216038578
0.171273758279
0.171288771451
0.1712679989
0.171218082356
0.171145287585
0.17105972895
0.170941189029
0.170763863113
0.170565480781
0.170372592568
0.170201010572
0.170054452204
0.169928562074
0.16983325278
0.169772188865
0.169735871208
0.16971099603
0.169690661539
0.169675821466
0.169669827589
0.169666723589
0.154098868083
0.15411087813
0.154130068497
0.154151729322
0.154178499242
0.154217810653
0.154256784284
0.154303109302
0.154362420169
0.154421673047
0.15449518259
0.154601913328
0.154719781687
0.154839624242
0.15496003092
0.155088127058
0.155233091489
0.155396164107
0.155568850049
0.155753452054
0.155955179675
0.156177898602
0.156422761004
0.156694146472
0.156997811242
0.157320910626
0.157670317473
0.158042118619
0.15843631611
0.158852943951
0.159282009843
0.159720224462
0.160153852297
0.160588904289
0.16102839087
0.161478385001
0.161941874743
0.162419311313
0.162909594028
0.163411156478
0.163922987448
0.164444451943
0.164974430321
0.165510711187
0.166049923381
0.166587937873
0.167120507537
0.167643747164
0.168154155807
0.168648223152
0.169121898159
0.169570120556
0.169986562884
0.170363943181
0.17069523747
0.170975330503
0.171201721166
0.171372729004
0.171486299468
0.171541403278
0.171542858828
0.171499631341
0.171419664296
0.171309538553
0.171177419828
0.171026603121
0.170826588597
0.170582454282
0.170342345906
0.170123202137
0.169933497851
0.169783543165
0.169685931603
0.16963433151
0.169612676548
0.169603205568
0.169596139511
0.169588015705
0.169584946078
0.169584145021
0.154010338349
0.154024288692
0.154046663532
0.154067597436
0.154096324424
0.154136104668
0.154176611917
0.154222980313
0.154281761992
0.154355386092
0.154433234745
0.154539919599
0.154658390562
0.154774378187
0.154889388455
0.155019858555
0.155167798146
0.155325871388
0.155493300682
0.155675575405
0.155876840747
0.15609950731
0.156344268851
0.156614044415
0.156923966591
0.157255694637
0.157601111665
0.157980883086
0.158380329331
0.158801866888
0.159233718056
0.159669145948
0.160101187218
0.160532385885
0.160975423818
0.161432080904
0.161902595198
0.162387244659
0.162885520971
0.163396343091
0.163918731889
0.164451737337
0.164993890932
0.165542817633
0.166095186559
0.166647048482
0.167194438775
0.167733802998
0.168261932746
0.168775542119
0.169270728131
0.169742436513
0.170184181161
0.170588531061
0.170948474417
0.171258585927
0.171514591963
0.171708992202
0.171833771845
0.171885700833
0.171871824987
0.171802603719
0.171684148801
0.171521628499
0.171323370771
0.171103137406
0.170867940917
0.170593486941
0.170282402716
0.169992235527
0.169748527494
0.16957474769
0.16947987952
0.169449053175
0.169458840012
0.169482621281
0.169495401072
0.169491588761
0.169488000701
0.169486523911
0.153909707922
0.153923057165
0.153947266006
0.153972612943
0.154008514435
0.154043275119
0.154084052324
0.154132315945
0.154184176162
0.154264992427
0.154354861376
0.154461915883
0.154580368619
0.154696208369
0.154810094574
0.154940733912
0.155089769298
0.155244578703
0.155408020361
0.155587115071
0.155787456979
0.156011565088
0.156260826893
0.156530252422
0.156834764533
0.157180025966
0.157533818108
0.157913061493
0.158314129571
0.158729423188
0.159169198915
0.159606905611
0.160036020277
0.16046855243
0.160916545523
0.161380082193
0.16185824161
0.162350982203
0.162858061998
0.163378857185
0.163912659291
0.164458370743
0.165014167172
0.165577438508
0.166144838444
0.166712595613
0.16727707223
0.167835102605
0.168383848119
0.168920385118
0.169441203513
0.169941639711
0.170415595626
0.170856045463
0.171256127324
0.17160900303
0.171906571661
0.172131334565
0.172274768806
0.172331447757
0.172307086896
0.172209511557
0.172041493049
0.17180933404
0.171526438517
0.17120671625
0.170874270753
0.170540925914
0.170180776218
0.169783558912
0.169470361607
0.169269619339
0.169186498947
0.169198831176
0.169272598977
0.169359244434
0.169398800176
0.169384470502
0.169373831548
0.169367583544
0.153794101199
0.153804541896
0.153823242574
0.153855885713
0.153901038614
0.153935601174
0.153977084274
0.154030342537
0.154080662789
0.15415799708
0.154257002815
0.154366650689
0.154484316034
0.154601427916
0.154721038703
0.154853386071
0.155000575895
0.155152096037
0.155312917899
0.155488929252
0.1556856458
0.15590741738
0.156165355281
0.156446149561
0.156745074402
0.1570901504
0.157452557975
0.157828705984
0.158240615995
0.158661642606
0.159092608424
0.159524894436
0.159955243684
0.1603958243
0.160850872782
0.161321760901
0.161808156126
0.162309860394
0.162826694265
0.163358277014
0.163904311745
0.164463877816
0.165034836303
0.165614195218
0.166198548363
0.166784352771
0.167368346421
0.16794776764
0.168520181945
0.169083182936
0.1696340021
0.170169004196
0.170683431309
0.171171471445
0.17162604547
0.172035003434
0.172385440657
0.172649950457
0.172837989247
0.172924884125
0.172903351797
0.172772855448
0.172538690673
0.172213956416
0.171822966243
0.171375456635
0.170890972438
0.170431256291
0.169954484704
0.169449930382
0.169046576682
0.168810395416
0.168753635263
0.168851270927
0.169051185839
0.169263714149
0.169337964027
0.16926366875
0.169238755833
0.169225253994
0.153663204724
0.15367101236
0.15368163111
0.15371833268
0.153763931943
0.153805012825
0.153849772573
0.153908573523
0.153965065184
0.154040967125
0.154143601987
0.15425474459
0.154371109136
0.154486018997
0.154613213893
0.154753698589
0.154899256324
0.155047915678
0.155207129552
0.155381427364
0.155574299313
0.155789673477
0.156047152131
0.156348162722
0.156653367889
0.156986463847
0.157360848583
0.157743029575
0.158145990467
0.158571456854
0.159003896454
0.159433735038
0.159865701785
0.160313468648
0.160776842337
0.1612561455
0.161751499644
0.162262913967
0.162790554663
0.163334091663
0.163893328773
0.164467777344
0.165055338666
0.165652588422
0.166255900941
0.166862005244
0.167468097672
0.168071784013
0.168670969044
0.169263872213
0.169848936105
0.17042457176
0.170988999976
0.171538746606
0.172064832527
0.172537791333
0.172952009702
0.17327390206
0.173586033349
0.17376784571
0.173772413476
0.173594809134
0.173266613237
0.172816147694
0.172294649479
0.171678798702
0.170962329043
0.170269036013
0.169604041625
0.168933157317
0.168431909466
0.168132963913
0.168125266118
0.168368396196
0.168803903894
0.169285472637
0.169404855955
0.169097199233
0.169069918324
0.169051007348
0.153517975885
0.15352698201
0.153542160922
0.153568875541
0.153609281409
0.153654589506
0.153703609842
0.15376505519
0.153831957803
0.153909357692
0.154014520066
0.154126845811
0.154243025684
0.154356553256
0.154484788042
0.154632808465
0.154780909172
0.15493004354
0.155089064976
0.155262862244
0.155453804637
0.155663809852
0.155916071972
0.156227470975
0.156547741553
0.156878036461
0.157255860946
0.157646341828
0.158044563788
0.158467268359
0.158893422451
0.159322562743
0.159764275344
0.160221083562
0.160693412018
0.16118199985
0.161687425179
0.162209494329
0.16274862319
0.163305214274
0.163879065181
0.164469668798
0.165075178108
0.165692022192
0.166316336007
0.166945106447
0.167576036724
0.168206961443
0.168835873171
0.169461610588
0.170084346217
0.17070611084
0.171330894795
0.17195962969
0.172578437302
0.17310411768
0.173618473305
0.174051193575
0.174713811847
0.175081365192
0.175066018995
0.174688322688
0.174073302433
0.17335896345
0.172676330623
0.17200291099
0.171170947317
0.170135971422
0.169098860422
0.168206817943
0.167404301952
0.166904098574
0.16698921452
0.167520040951
0.168409209908
0.169629363344
0.169784022016
0.168763866772
0.16885300196
0.168830578755
0.153354720054
0.153364907082
0.153388876594
0.153406494639
0.153440799665
0.153487187219
0.153539599574
0.153605104345
0.153684559537
0.153762816486
0.153869287304
0.153983007877
0.15410025963
0.154215388702
0.154344475964
0.154495420372
0.154646204342
0.154797697803
0.15495791186
0.155131822424
0.155322255818
0.155530375134
0.155774058352
0.156082038866
0.15642558492
0.156763517895
0.157129435786
0.157535712614
0.157942932048
0.158348657403
0.158767908368
0.159201036157
0.15965076048
0.160116977204
0.160599314816
0.161098245966
0.161614436355
0.162148360139
0.162700250553
0.163270745804
0.16386043144
0.164468789089
0.165093842461
0.165731944322
0.166379200851
0.167033014608
0.167691646336
0.168352918879
0.169014247907
0.169674498215
0.170336263856
0.171007406417
0.171701893049
0.172429206757
0.173177468145
0.173724199361
0.17434175174
0.174196866614
0.174407238575
0.174687376204
0.174660577447
0.174321102569
0.173780178043
0.173122933157
0.17240342826
0.171622845432
0.170735411208
0.16978036276
0.16884735228
0.16801581837
0.167377669566
0.167123314192
0.167353105473
0.168068077534
0.169310209622
0.171206098588
0.171948096007
0.16702621984
0.168448594369
0.168562217073
0.153170033126
0.153179572703
0.153202103141
0.153221518721
0.153253457491
0.153301138062
0.153355244509
0.153420648992
0.15351193407
0.15359881485
0.153706292497
0.153822136859
0.153941943227
0.154061138632
0.154192653722
0.154344452282
0.1544969707
0.154651368426
0.154813553149
0.154988130153
0.155178260425
0.155386166614
0.155624185496
0.155924181261
0.156281706468
0.156636354867
0.15699423954
0.157393382252
0.157810577991
0.158220699153
0.158634978871
0.159069195094
0.159525440053
0.160001031614
0.160493828828
0.161003635297
0.161531517121
0.162078083378
0.162643983277
0.163229772018
0.16383646258
0.16446410892
0.165110596077
0.165771793384
0.166443703298
0.167124759993
0.167814395564
0.168509660999
0.169205211525
0.169899175485
0.170598007419
0.171316477675
0.172084580631
0.172935918268
0.173970540659
0.173854064873
0.174025932642
0.174266647233
0.174335438678
0.174437641574
0.174358793315
0.174027955306
0.173497847419
0.172830553633
0.172071858209
0.171244580028
0.170352422089
0.169422840157
0.168521423823
0.16770978726
0.167073114115
0.166748881869
0.166828859506
0.167332542054
0.168175423577
0.169084476319
0.168552610498
0.169087627377
0.170013605743
0.168281692535
0.152965822756
0.152974551907
0.152997814049
0.153017517871
0.15304971491
0.153097708912
0.153153056888
0.153215570276
0.153308459368
0.15340906476
0.153522034777
0.15364148098
0.153765453162
0.153892255346
0.154026786774
0.1541793254
0.154333442937
0.154491216064
0.154655856799
0.154831665555
0.155021799001
0.155229116309
0.155463276393
0.155753797418
0.156110872643
0.156491310293
0.156857399045
0.157243388171
0.157654545033
0.158065740044
0.158482276065
0.158922794526
0.159386744039
0.159871678056
0.160375407542
0.16089714384
0.161437420336
0.161997579695
0.162578456439
0.163180947878
0.163806069433
0.164454352106
0.165124236636
0.165810980412
0.166509642421
0.16721990504
0.167943488851
0.168676125148
0.169407055887
0.170131928872
0.170860658092
0.171609367275
0.172413673465
0.173260709436
0.173600872616
0.173869718686
0.173921634957
0.174014209991
0.174023740494
0.173982516522
0.173803257698
0.173425771205
0.172866942335
0.172168522938
0.171366838333
0.170486909964
0.169547301246
0.168578453587
0.167632746179
0.166775807718
0.1660607688
0.165578473125
0.165421039557
0.165594640095
0.166003870659
0.166510842481
0.166851796856
0.167831612101
0.168635230316
0.171089091751
0.15274432782
0.152751569564
0.152770766917
0.152793280635
0.152829955452
0.152878339375
0.152936328427
0.152997790278
0.153089543915
0.153198265758
0.153316190234
0.153438844212
0.153565703063
0.153702892041
0.153843660732
0.153997108498
0.154153410738
0.154315921615
0.154483919172
0.154661654097
0.154852306675
0.155058858223
0.155289964142
0.155572416392
0.155923830599
0.156320049941
0.156705478585
0.157086870252
0.157486204951
0.157892757242
0.15831316529
0.158759967385
0.159231868186
0.159726061286
0.160241271311
0.160776316135
0.161330586807
0.161905176487
0.162502298527
0.163122657447
0.163767639161
0.1644385884
0.165134243508
0.165849092974
0.166575569255
0.167315970872
0.168080250522
0.168860268553
0.169626341545
0.170375566168
0.171124755006
0.171881956695
0.172694407253
0.173030772918
0.173347800442
0.173555042968
0.173609690121
0.173623485859
0.173564886126
0.173411085945
0.173125000125
0.172673215837
0.172058471715
0.171305910963
0.170443633934
0.169496504576
0.168488514908
0.167450378115
0.166424255795
0.165461945122
0.164588838481
0.163855214894
0.163339111087
0.163056682877
0.162968704727
0.16305609362
0.163329613445
0.164217463181
0.166691236526
0.169123294326
0.152508420959
0.152514423416
0.152528475472
0.152554343521
0.152594822057
0.152643322182
0.152703270509
0.15276769997
0.152856074664
0.152968814953
0.153089861117
0.153214657727
0.153342014255
0.153484794989
0.153637115344
0.15379405211
0.153953276046
0.15412131212
0.154295072433
0.154476337959
0.15466876326
0.154874541025
0.155103251576
0.155378839694
0.155719678605
0.156113720412
0.156519556652
0.15691154875
0.157307185537
0.157710470214
0.158129488161
0.158580550649
0.159060174383
0.15956199076
0.160089668184
0.160639219529
0.161207674281
0.161798236716
0.162413177962
0.163053577287
0.163720225968
0.164414872157
0.165137599759
0.165884918536
0.166651324214
0.167437536212
0.168246356906
0.169059000114
0.169853270788
0.170633843652
0.171397789211
0.172168804664
0.172490378611
0.172773746645
0.173006903694
0.173146479469
0.173167830614
0.173098126692
0.172934443795
0.172659903668
0.172254537372
0.171700563871
0.170997301316
0.170159750083
0.169208767264
0.168165804872
0.167053048331
0.165896244378
0.164726335584
0.163577538135
0.16247159782
0.161406326497
0.160413409075
0.159512058308
0.158660580187
0.157809296332
0.156923370852
0.156093097996
0.155318637649
0.153239381494
0.152259157035
0.15226484233
0.152277303151
0.152306713246
0.152347011975
0.152393699041
0.152451525665
0.152520562376
0.152605410693
0.152719942818
0.152843356468
0.152970192693
0.153098955141
0.15324246824
0.153404532582
0.153568249035
0.153732159886
0.153905041798
0.154085287804
0.154272500043
0.154469290083
0.154675148846
0.154901897924
0.155172406932
0.155503019683
0.155889332195
0.156303107556
0.156708358228
0.157101779602
0.157503026281
0.157927656719
0.158380785216
0.158865745585
0.159377546823
0.15991826198
0.160482395186
0.161066315095
0.161674133208
0.162308225269
0.162970168289
0.163660883189
0.164382343004
0.165138193021
0.165930885188
0.16675178812
0.167583828194
0.168424909939
0.169268424096
0.1701105365
0.170945406775
0.171830962278
0.17204875526
0.17223909225
0.172445752654
0.172590174859
0.172637872529
0.172574119077
0.172401495879
0.172119221243
0.171717813648
0.171185303586
0.170512104311
0.169697609312
0.168750977613
0.167686707145
0.166521006795
0.16527083031
0.163954276448
0.162590246879
0.161195258032
0.159780626439
0.158291108811
0.156692120049
0.154970588246
0.153022458651
0.150666957966
0.14766199657
0.1438064624
0.139222768264
0.138856708181
0.151993908439
0.151999760603
0.152012771483
0.152046244826
0.152085778929
0.152130062151
0.152183651857
0.152255460222
0.152335331083
0.152450143803
0.152575961658
0.152704979286
0.152836157842
0.152981759195
0.153149085025
0.153319725683
0.15348987987
0.153668017827
0.153853472873
0.154047185552
0.154250920209
0.154458834086
0.154683790055
0.154950542375
0.155272421576
0.155649007282
0.156062557123
0.156475807768
0.156878813396
0.15727997287
0.157708141693
0.158165958542
0.158653017707
0.159167885501
0.159718230496
0.160300430316
0.1609033562
0.161530597761
0.162184843922
0.162869413755
0.163586918171
0.164340238627
0.165140065962
0.165989936672
0.166861320283
0.167731943958
0.168612168078
0.169520426471
0.170453079552
0.171461779012
0.171684642701
0.171831488305
0.17194156322
0.172040944351
0.172073759471
0.172007101949
0.171828365166
0.171533352778
0.171119159084
0.170580049972
0.169909013071
0.169100711412
0.168154634298
0.167075873447
0.165873125675
0.164556298074
0.163135058697
0.161617877644
0.160010399142
0.158311796184
0.156512466233
0.15453366557
0.152242237523
0.149538306813
0.146214584187
0.141835129593
0.135568604413
0.125666780173
0.10707752549
0.0618479140815
0.1517065978
0.151712556864
0.15172793562
0.151766045254
0.151805506563
0.151848033733
0.15189950221
0.151971184694
0.152045631284
0.152158612437
0.152286523818
0.152417654633
0.152551284454
0.152699030276
0.152869680931
0.153046591165
0.153224946882
0.15340909158
0.153598890312
0.153798323908
0.154010431055
0.15422327252
0.154446378211
0.154709898537
0.155025208423
0.155391180027
0.155798069458
0.156209017043
0.1566243995
0.157039010989
0.157468160963
0.157924842023
0.158417952422
0.158942934205
0.159495933504
0.160089120736
0.160712655769
0.161361721786
0.162039989837
0.162749362025
0.163494878669
0.16428891446
0.165148502635
0.16605785493
0.16697290927
0.167889431538
0.168851904592
0.16989780265
0.171066767858
0.171302464132
0.17141815062
0.171495765768
0.171537934279
0.17152660549
0.171433168987
0.171235457613
0.170922407073
0.170488636431
0.169930574595
0.169244225292
0.168425140355
0.167469727231
0.166376751321
0.165147742985
0.163785900652
0.162294345211
0.160674424596
0.15892387695
0.157034081174
0.154985403191
0.152739267249
0.150229741245
0.147243035624
0.143516849181
0.138757164015
0.132336937028
0.123028701493
0.108465543447
0.0838689170896
0.042943070355
0.151388768348
0.151394816254
0.151412520009
0.151455316999
0.151494517843
0.151538440013
0.151589516285
0.151659191806
0.151731270846
0.151843551986
0.151973589399
0.152106670462
0.152242533753
0.152391879492
0.152564129236
0.152745054525
0.152933388528
0.15312501444
0.153319433891
0.153523875442
0.153743795291
0.153965602557
0.154188151372
0.154447222436
0.15475797759
0.155114774363
0.15551298613
0.155917442049
0.156333011955
0.156764642418
0.157208816018
0.157667629236
0.158152123715
0.158681426554
0.159248884874
0.159852162406
0.160492339855
0.161163391108
0.161866598967
0.162604552503
0.163385952425
0.164235720063
0.165162264922
0.166125117315
0.167095130849
0.168100287206
0.16922037131
0.170557508133
0.170848107008
0.170965916662
0.171038576759
0.171063360155
0.171014137173
0.170880191097
0.170649472871
0.170308563532
0.169848835661
0.169265515466
0.168555281869
0.167714888223
0.166740809678
0.165629636335
0.164378645111
0.162985832221
0.161449067622
0.159764611639
0.157925262208
0.155917982317
0.153720457829
0.151295798161
0.148584157807
0.145492745311
0.141834801283
0.137232355405
0.131248207638
0.123271036744
0.112175610825
0.0961115583324
0.0718497331283
0.0384305788881
0.151033505374
0.15104139315
0.151060051203
0.151102249869
0.151144376663
0.151194701679
0.151249116715
0.15131964358
0.151396052394
0.151503946053
0.151635405972
0.151770372816
0.15190842397
0.152059056628
0.152231724658
0.152413091082
0.152607586957
0.152809807479
0.153011546524
0.153222175453
0.15344801691
0.153681711311
0.153911482017
0.154162563498
0.154468497971
0.154818116689
0.15520759806
0.155605828535
0.156015485903
0.156454175879
0.156914609043
0.157387761391
0.157872491912
0.158395056774
0.15896506353
0.159581954816
0.160240208697
0.160934204302
0.161662225352
0.16243166466
0.163263986789
0.164183100082
0.165173673639
0.166196835291
0.167256971331
0.168403019416
0.169756065454
0.170195075133
0.170394122081
0.170509953535
0.17055204302
0.170498123719
0.170341170606
0.170079058734
0.169706515631
0.169216585354
0.168604147081
0.167865963588
0.166999381653
0.166001475812
0.164868697808
0.163596862125
0.162181207837
0.160616145833
0.158894428269
0.157005733895
0.154934705614
0.152658270242
0.150141810418
0.147333531191
0.144156119097
0.140494309884
0.136180758987
0.130880093708
0.124038122694
0.115005096623
0.102917087669
0.0864235181252
0.0631387308364
0.0337380222305
0.150645402235
0.150656488467
0.150675157412
0.150711260358
0.150759169963
0.150816281129
0.15087667593
0.150952125001
0.151038198408
0.1511409074
0.151271154235
0.151407309789
0.151547601305
0.151699690715
0.151872996745
0.152055119487
0.152250357924
0.152461567704
0.152673354647
0.152892605365
0.153124307742
0.153369479632
0.153615725836
0.15386907342
0.154161962728
0.154502843807
0.154883361239
0.155275578742
0.155677363159
0.156113993866
0.156581512912
0.157073644568
0.157570270142
0.158088997859
0.15865426774
0.159274505582