/*--------------------------------*- C++ -*----------------------------------*\
| =========                 |                                                 |
| \\      /  F ield         | OpenFOAM: The Open Source CFD Toolbox           |
|  \\    /   O peration     | Version:  v1806                                 |
|   \\  /    A nd           | Web:      www.OpenFOAM.com                      |
|    \\/     M anipulation  |                                                 |
\*---------------------------------------------------------------------------*/
FoamFile
{
    version     2.0;
    format      ascii;
    class       surfaceScalarField;
    location    "433";
    object      phi;
}
// * * * * * * * * * * * * * * * * * * * * * * * * * * * * * * * * * * * * * //

dimensions      [0 3 -1 0 0 0 0];
oriented        oriented;


internalField   nonuniform List<scalar> 
12640
(
-1.93215841694e-07
1.93637364775e-07
-3.69880200317e-07
1.76984667687e-07
-5.24867926229e-07
1.55225298945e-07
-6.54405182562e-07
1.29724162602e-07
-7.46986909601e-07
9.27580873868e-08
-8.00800220268e-07
5.39965138965e-08
-8.35387559719e-07
3.47559242691e-08
-8.95005467952e-07
5.97693970017e-08
-9.81438684688e-07
8.65681652836e-08
-1.06144254483e-06
8.01190491006e-08
-1.13434884118e-06
7.29972402313e-08
-1.21199872375e-06
7.7729514182e-08
-1.2805023876e-06
6.85737632505e-08
-1.33418455797e-06
5.37460383816e-08
-1.38114175612e-06
4.70157492853e-08
-1.43631529065e-06
5.5236581464e-08
-1.49324974312e-06
5.69923445789e-08
-1.53797306785e-06
4.4778552596e-08
-1.56814896226e-06
3.02143498517e-08
-1.59252061788e-06
2.43985943414e-08
-1.63097486717e-06
3.84720561147e-08
-1.68637537492e-06
5.54167273904e-08
-1.74591509773e-06
5.95497384294e-08
-1.80283415389e-06
5.69280676298e-08
-1.85386867204e-06
5.10371964128e-08
-1.89850012543e-06
4.46328007402e-08
-1.93972167382e-06
4.12148538203e-08
-1.97587973146e-06
3.61494125896e-08
-2.00525087951e-06
2.93517588394e-08
-2.02917671055e-06
2.39033098339e-08
-2.05172695537e-06
2.25152255391e-08
-2.07132879909e-06
1.95636757894e-08
-2.08477409575e-06
1.3397772519e-08
-2.09765232668e-06
1.28223352016e-08
-2.10978983023e-06
1.20603533499e-08
-2.11980688709e-06
9.93497935243e-09
-2.13118181089e-06
1.12744651555e-08
-2.14108115265e-06
9.78602518638e-09
-2.14617843009e-06
4.96572380659e-09
-2.14933001173e-06
3.01617055772e-09
-2.15952827041e-06
1.00536703124e-08
-2.16876957417e-06
9.10356242639e-09
-2.16148222358e-06
-7.42991990397e-09
-2.14271542323e-06
-1.89121481387e-08
-2.11828817565e-06
-2.45845078456e-08
-2.08726446385e-06
-3.11833073767e-08
-2.04920071005e-06
-3.82368552842e-08
-2.00238079717e-06
-4.69963222847e-08
-1.9469693918e-06
-5.56012155016e-08
-1.88955683475e-06
-5.76032140883e-08
-1.83713520016e-06
-5.26344209472e-08
-1.7780095739e-06
-5.93400126384e-08
-1.68707654077e-06
-9.11625305461e-08
-1.57136710794e-06
-1.15960607443e-07
-1.43710759793e-06
-1.34531298006e-07
-1.27624965989e-06
-1.61142205694e-07
-1.10987814243e-06
-1.66717087819e-07
-9.44352112564e-07
-1.6595229005e-07
-7.571061435e-07
-1.8776540083e-07
-5.49600608869e-07
-2.08151547326e-07
-3.29646577742e-07
-2.20756481851e-07
-9.56225789847e-08
-2.34998833883e-07
1.99871889541e-07
-2.96612250035e-07
4.01155349406e-07
-2.02043804583e-07
5.07228516819e-07
-1.06537066419e-07
5.68577084926e-07
-6.16703846931e-08
6.03600221979e-07
-3.53212020905e-08
6.23242163449e-07
-1.99680121995e-08
6.28076527497e-07
-5.20859994728e-09
6.1539791415e-07
1.22711690243e-08
5.86171518793e-07
2.88100725763e-08
5.43293283814e-07
4.24881149771e-08
4.88906239843e-07
5.4046736464e-08
4.17399388885e-07
7.12038152257e-08
3.47041126436e-07
7.01147499995e-08
2.78855733198e-07
6.79568572615e-08
2.26692117122e-07
5.19165717166e-08
1.62035861358e-07
6.44113849665e-08
9.93514105015e-08
6.25997318809e-08
9.90717768646e-08
-9.86380219282e-08
2.92444445941e-07
-2.28846231686e-07
3.07409642577e-07
-3.54666175879e-07
2.81211329188e-07
-4.86666599193e-07
2.61866826286e-07
-6.56951730683e-07
2.63205816307e-07
-7.88873218655e-07
1.86084448359e-07
-8.63168889319e-07
1.0922606941e-07
-9.30435539604e-07
1.27189545462e-07
-1.00340609318e-06
1.59676052654e-07
-1.08411014563e-06
1.60931198357e-07
-1.16117063917e-06
1.50153925173e-07
-1.22357338837e-06
1.40207774824e-07
-1.27924828293e-06
1.24325080792e-07
-1.3323975011e-06
1.06964308846e-07
-1.38333775133e-06
9.80342301762e-08
-1.4410474612e-06
1.13010116213e-07
-1.49152858369e-06
1.07537744362e-07
-1.51027276615e-06
6.35599686428e-08
-1.52348914291e-06
4.3463861178e-08
-1.55559117541e-06
5.65160561233e-08
-1.60859675924e-06
9.1497074788e-08
-1.68111939263e-06
1.27945283004e-07
-1.75134164151e-06
1.29788517422e-07
-1.80366165703e-06
1.09248686782e-07
-1.8507345383e-06
9.81193622248e-08
-1.90051413062e-06
9.44041850329e-08
-1.94272174325e-06
8.34230906775e-08
-1.97642351724e-06
6.98313408525e-08
-2.00520106088e-06
5.81172663497e-08
-2.02978552031e-06
4.84533629517e-08
-2.04915656149e-06
4.18603396655e-08
-2.06437297707e-06
3.47349601756e-08
-2.07361815051e-06
2.26000559861e-08
-2.08346720938e-06
2.26012254632e-08
-2.10036788576e-06
2.88974970967e-08
-2.11132424885e-06
2.0788707722e-08
-2.12034309219e-06
2.01920033194e-08
-2.13682551551e-06
2.61403221556e-08
-2.15535834946e-06
2.33759720315e-08
-2.16298770391e-06
1.04948033184e-08
-2.13290376142e-06
-2.01621572544e-08
-2.08366710585e-06
-4.02791924878e-08
-2.05589160023e-06
-3.53369113661e-08
-2.04266001316e-06
-3.23008474723e-08
-2.03040469865e-06
-3.69878297864e-08
-2.01662502441e-06
-4.51362406484e-08
-1.99667985983e-06
-5.83459710442e-08
-1.96995974055e-06
-7.39049952249e-08
-1.93374747671e-06
-9.19945694602e-08
-1.87642696931e-06
-1.15128528025e-07
-1.78972587979e-06
-1.39529386148e-07
-1.69573449729e-06
-1.5354718688e-07
-1.63443316278e-06
-1.52688185058e-07
-1.56041637424e-06
-1.90241421373e-07
-1.4457568082e-06
-2.49464806493e-07
-1.3234461507e-06
-2.83778339755e-07
-1.18201822951e-06
-3.08521381848e-07
-1.00804586143e-06
-3.4038853255e-07
-8.14856690571e-07
-3.81521242477e-07
-5.94400117097e-07
-4.29322672301e-07
-3.31350496452e-07
-4.8460022598e-07
-6.29560277596e-08
-5.04317740178e-07
2.09903203066e-07
-5.7050507945e-07
4.01332521137e-07
-3.94215807382e-07
4.99332877817e-07
-2.04968202127e-07
5.44153682761e-07
-1.06808352852e-07
5.83143483995e-07
-7.46005038049e-08
6.16771875026e-07
-5.39234231967e-08
6.29059344703e-07
-1.78638714035e-08
6.16045125746e-07
2.48733487987e-08
5.78927347138e-07
6.55172017631e-08
5.25824554724e-07
9.52208976582e-08
4.73988048278e-07
1.05553182641e-07
4.30509273916e-07
1.14382854555e-07
3.79508331669e-07
1.20836994004e-07
3.25710290947e-07
1.21482888706e-07
2.61404779734e-07
1.15980936353e-07
1.96807876954e-07
1.28752082129e-07
1.0485911735e-07
1.54101179438e-07
2.03935016528e-07
-1.30869843243e-07
4.23549200483e-07
-1.9279005531e-07
3.69505984496e-07
-3.51461244551e-07
4.40054029229e-07
-5.38186676026e-07
4.48767487685e-07
-7.05772537152e-07
4.30959822544e-07
-7.87849009901e-07
2.68295166809e-07
-8.26254400017e-07
1.47757836008e-07
-9.00724209319e-07
2.01795923021e-07
-9.88783369757e-07
2.47857304395e-07
-1.07537326041e-06
2.47624954492e-07
-1.15529398907e-06
2.30162630979e-07
-1.221589373e-06
2.0659036572e-07
-1.27778507191e-06
1.8060940256e-07
-1.33206802272e-06
1.61335902396e-07
-1.36953305262e-06
1.35579086759e-07
-1.34011557374e-06
8.36588111906e-08
-1.27620702928e-06
4.36686960451e-08
-1.26923808958e-06
5.66202472448e-08
-1.33368832468e-06
1.07933259078e-07
-1.46643848731e-06
1.89284521551e-07
-1.60579076096e-06
2.30866018793e-07
-1.68739295695e-06
2.09566946794e-07
-1.74178474669e-06
1.84191565837e-07
-1.80259137017e-06
1.70066945363e-07
-1.85883987462e-06
1.54370787293e-07
-1.9024133322e-06
1.37980045094e-07
-1.93957492921e-06
1.20576754311e-07
-1.97295167119e-06
1.03199093262e-07
-2.0011151653e-06
8.62602836706e-08
-2.02554639186e-06
7.28634096375e-08
-2.04215710398e-06
5.84403457596e-08
-2.05452246261e-06
4.70626678912e-08
-2.06803974844e-06
3.6071037577e-08
-2.06539336269e-06
1.98979856813e-08
-2.06921641434e-06
3.26354102199e-08
-2.09688597352e-06
4.83649326498e-08
-2.11033501603e-06
3.35284996666e-08
-2.119238735e-06
3.49243637532e-08
-2.14519522038e-06
4.91975945986e-08
-2.16714647978e-06
3.23133293541e-08
-2.17870923814e-06
-8.74150107968e-09
-2.17996079568e-06
-3.9167778841e-08
-2.16770652637e-06
-4.77435370206e-08
-2.14803227549e-06
-5.21267558046e-08
-2.12373844498e-06
-6.14456908887e-08
-2.09366233225e-06
-7.53765711264e-08
-2.05841554076e-06
-9.37697847282e-08
-2.0170329116e-06
-1.15465585928e-07
-1.9685975035e-06
-1.40620102604e-07
-1.91422013327e-06
-1.69695815235e-07
-1.85422926607e-06
-1.99724810438e-07
-1.78098477386e-06
-2.27005394793e-07
-1.67580731315e-06
-2.58100410872e-07
-1.55749321118e-06
-3.08803795206e-07
-1.44683636517e-06
-3.60405546366e-07
-1.32200392574e-06
-4.08933587934e-07
-1.16556757088e-06
-4.65342829455e-07
-9.78812637309e-07
-5.27597412808e-07
-7.65813295732e-07
-5.95067639986e-07
-5.28958957334e-07
-6.66817126639e-07
-2.83271838465e-07
-7.31046722211e-07
-9.86501558011e-09
-7.78602311421e-07
1.97113867771e-07
-7.78351778383e-07
3.51335504337e-07
-5.49049919685e-07
4.62932787266e-07
-3.16972327426e-07
5.49145980181e-07
-1.93331654028e-07
5.98356854289e-07
-1.24105928721e-07
6.14659071004e-07
-7.05354815964e-08
6.09773965923e-07
-1.33299571193e-08
5.85823327688e-07
4.84404685471e-08
5.53398358123e-07
9.7563969866e-08
5.2625395859e-07
1.2200738308e-07
4.95891816193e-07
1.35594937972e-07
4.50735180546e-07
1.59246538411e-07
3.87237213563e-07
1.84085087057e-07
3.17196206097e-07
1.91273251394e-07
2.51416659672e-07
1.81443505801e-07
1.93903131804e-07
1.8596590982e-07
8.62594911663e-08
2.61730121126e-07
2.89925745803e-07
-9.27856558065e-08
5.16454617911e-07
-1.19160376451e-07
3.96000256071e-07
-3.06028372513e-07
6.27092719498e-07
-4.54108212133e-07
5.9702218958e-07
-4.51839290018e-07
4.28813231795e-07
-3.8500528641e-07
2.0151620232e-07
-5.35495164685e-07
2.98320293467e-07
-7.82064043307e-07
4.48472561526e-07
-9.44716279139e-07
4.10619794598e-07
-1.05279036148e-06
3.55797643612e-07
-1.14486313176e-06
3.22332753544e-07
-1.22072054613e-06
2.8254862669e-07
-1.26834856303e-06
2.28336529892e-07
-1.25057798737e-06
1.43654852844e-07
-1.18408217804e-06
6.91509747311e-08
-1.15395675713e-06
5.35752990743e-08
-1.20023293065e-06
8.99744400971e-08
-1.31811746422e-06
1.74527743364e-07
-1.47144068551e-06
2.612813865e-07
-1.57702281144e-06
2.94893220018e-07
-1.63199381264e-06
2.85863275684e-07
-1.69144558216e-06
2.69038666335e-07
-1.75427834921e-06
2.47042193336e-07
-1.80776437079e-06
2.23564393506e-07
-1.85447983671e-06
2.01095980779e-07
-1.89561130454e-06
1.79112838814e-07
-1.93390943076e-06
1.58874330396e-07
-1.96720307916e-06
1.36481351828e-07
-1.99642465631e-06
1.15468798887e-07
-2.01737809427e-06
9.37967618639e-08
-2.03662351118e-06
7.76608060105e-08
-2.04426021334e-06
5.4668048888e-08
-2.04060821473e-06
3.23709296682e-08
-2.06274234687e-06
4.19632863736e-08
-2.07916729464e-06
4.8979269232e-08
-2.09207574714e-06
6.11720640518e-08
-2.13584870737e-06
7.71882867139e-08
-2.1721585546e-06
7.11105401532e-08
-2.17983525832e-06
5.67502121631e-08
-2.17849197578e-06
3.08356089835e-08
-2.18072096865e-06
-6.65161963369e-09
-2.18123681299e-06
-3.87999299412e-08
-2.17198581374e-06
-5.71422855695e-08
-2.15408593951e-06
-7.01814227966e-08
-2.13010642344e-06
-8.55813455965e-08
-2.10051269099e-06
-1.05135237674e-07
-2.06552484671e-06
-1.28925709169e-07
-2.02459377784e-06
-1.56574719581e-07
-1.97710129571e-06
-1.88293904873e-07
-1.92272845057e-06
-2.24260206994e-07
-1.85926854236e-06
-2.63380150774e-07
-1.7809756007e-06
-3.05506979242e-07
-1.68408582085e-06
-3.55210015065e-07
-1.57676008968e-06
-4.16378088511e-07
-1.45549461515e-06
-4.81945273413e-07
-1.31089707772e-06
-5.53851907779e-07
-1.13825670689e-06
-6.3835078881e-07
-9.34145642719e-07
-7.32140274634e-07
-6.99666380322e-07
-8.30049288961e-07
-4.44122374516e-07
-9.22942073719e-07
-1.84689143078e-07
-9.91117317942e-07
4.54343128932e-08
-1.00941750514e-06
1.89453010801e-07
-9.23047180617e-07
3.60259605798e-07
-7.20425921336e-07
4.97940012806e-07
-4.5507179825e-07
5.62680492188e-07
-2.58378328446e-07
5.98905357194e-07
-1.60604074633e-07
6.18038902826e-07
-8.99627299271e-08
6.20695839185e-07
-1.63178709723e-08
6.08606642792e-07
6.01629852904e-08
5.8372125104e-07
1.22071708644e-07
5.43739233815e-07
1.61652490156e-07
4.81671689085e-07
1.97376166148e-07
4.0993356718e-07
2.30771615234e-07
3.40759316441e-07
2.53016922885e-07
2.63917669414e-07
2.67855515464e-07
1.85793919326e-07
2.59386516534e-07
1.27573365817e-07
2.44042865523e-07
6.61603813183e-08
3.22724113119e-07
3.56162719971e-07
-1.47260729994e-08
5.31302010226e-07
-1.07380337171e-07
4.88752287344e-07
-2.5985258844e-07
7.79721341646e-07
-3.59261138657e-07
6.96580536829e-07
-3.26952812131e-07
3.96585207588e-07
-4.05629486199e-07
2.80242362686e-07
-6.08239425281e-07
5.01005553945e-07
-7.66805892008e-07
6.07142345013e-07
-8.93724494898e-07
5.37638184109e-07
-1.01023859253e-06
4.7241648953e-07
-1.11644224937e-06
4.2864840462e-07
-1.163492219e-06
3.29699664618e-07
-1.12502771922e-06
1.89958933921e-07
-1.08636024042e-06
1.05050089316e-07
-1.11881556408e-06
1.01648803281e-07
-1.21174686338e-06
1.4654116444e-07
-1.34665637204e-06
2.24915073423e-07
-1.4698835326e-06
2.97786399167e-07
-1.53403092922e-06
3.25461680562e-07
-1.57278496865e-06
3.3367994673e-07
-1.63026687232e-06
3.43374707817e-07
-1.69394969415e-06
3.32747345657e-07
-1.75213188611e-06
3.05245287275e-07
-1.80280927065e-06
2.74260201439e-07
-1.84766059517e-06
2.45958612604e-07
-1.89019132694e-06
2.21652743698e-07
-1.92534751201e-06
1.94027417469e-07
-1.95933265684e-06
1.70462628398e-07
-1.98441836168e-06
1.40546114227e-07
-2.00580341775e-06
1.15169321228e-07
-2.01246269803e-06
8.42988519792e-08
-2.02678297354e-06
6.89518348456e-08
-2.06102356366e-06
6.65576497571e-08
-2.07118172293e-06
5.2047377685e-08
-2.09605619552e-06
7.37616351957e-08
-2.13867654212e-06
1.03689453812e-07
-2.16575105985e-06
1.04152040112e-07
-2.1815297874e-06
8.6774531512e-08
-2.18705766776e-06
6.21544311027e-08
-2.18744574562e-06
3.10930212543e-08
-2.18852735395e-06
-5.70991907904e-09
-2.18759060892e-06
-3.9880770778e-08
-2.17914644561e-06
-6.57360940595e-08
-2.1625155488e-06
-8.69636664706e-08
-2.13927049766e-06
-1.08982814677e-07
-2.11028667717e-06
-1.34278606856e-07
-2.07579476042e-06
-1.63584176477e-07
-2.03541141711e-06
-1.97129056816e-07
-1.98843922004e-06
-2.35445068248e-07
-1.93374569367e-06
-2.79135408532e-07
-1.86875969686e-06
-3.28557062725e-07
-1.78961477351e-06
-3.84847821269e-07
-1.69446675146e-06
-4.5057425911e-07
-1.58432671299e-06
-5.26749361787e-07
-1.45418063426e-06
-6.12359722718e-07
-1.2963993015e-06
-7.11931826953e-07
-1.10601760168e-06
-8.29080129259e-07
-8.80528856203e-07
-9.58027308843e-07
-6.24898460229e-07
-1.08613664518e-06
-3.56291262199e-07
-1.19204925996e-06
-1.0199151034e-07
-1.24595962819e-06
1.00874458953e-07
-1.21283718246e-06
2.31610607375e-07
-1.05431756388e-06
4.18175456641e-07
-9.07506659319e-07
5.57404909668e-07
-5.94709933652e-07
6.21714695772e-07
-3.22996589729e-07
6.42560671892e-07
-1.81730319031e-07
6.45058448668e-07
-9.27434475935e-08
6.3852547778e-07
-1.00956423118e-08
6.23442945196e-07
7.49082831168e-08
5.87512831892e-07
1.57673619861e-07
5.22994785226e-07
2.25885664673e-07
4.48282299408e-07
2.71902713805e-07
3.75658012146e-07
3.03167220207e-07
3.0091247395e-07
3.27569518073e-07
2.23846138317e-07
3.44705911548e-07
1.67702985401e-07
3.15256160046e-07
1.10854976826e-07
3.00635458596e-07
4.87047362517e-08
3.84959197924e-07
4.0461503367e-07
-6.16473430491e-09
5.37503230321e-07
-1.36776237966e-07
6.19452837577e-07
-2.17902372796e-07
8.60982015496e-07
-2.62804995815e-07
7.4158836483e-07
-2.5133702785e-07
3.85169684112e-07
-4.53091675058e-07
4.82057647817e-07
-6.57917198855e-07
7.05922153505e-07
-7.50927905903e-07
7.002443807e-07
-8.53686088335e-07
6.40503904484e-07
-9.47571557098e-07
5.66414375953e-07
-9.86291132527e-07
4.67475171323e-07
-9.30018293065e-07
2.73507823112e-07
-9.16718086476e-07
1.76714393636e-07
-9.83346495276e-07
1.717193923e-07
-1.09968492686e-06
2.18021743882e-07
-1.26033962665e-06
3.07229632543e-07
-1.40255739695e-06
3.67170874871e-07
-1.46737535195e-06
3.62645472552e-07
-1.50338878266e-06
3.61514557089e-07
-1.56771654448e-06
3.98045296263e-07
-1.63439248546e-06
4.10085411735e-07
-1.69081169199e-06
3.89197415717e-07
-1.744261502e-06
3.58721789511e-07
-1.79693957634e-06
3.2695832653e-07
-1.84354917896e-06
2.9258632492e-07
-1.87324266924e-06
2.51354956465e-07
-1.91018293704e-06
2.30974737726e-07
-1.93940737819e-06
1.99687679785e-07
-1.96563102169e-06
1.66764001192e-07
-1.96966797016e-06
1.19194995811e-07
-1.97846888156e-06
9.30784217524e-08
-1.99824374613e-06
8.8686221814e-08
-2.01598701009e-06
8.42400636943e-08
-2.07618490784e-06
1.1216585579e-07
-2.13209690278e-06
1.29579837153e-07
-2.16321423952e-06
1.34707367427e-07
-2.18037755066e-06
1.21211602012e-07
-2.1906610102e-06
9.69476789806e-08
-2.19580886602e-06
6.71843503511e-08
-2.19776740001e-06
3.29233707432e-08
-2.19860581332e-06
-5.00882678533e-09
-2.196671737e-06
-4.19594981346e-08
-2.18844748738e-06
-7.41085267018e-08
-2.17277785294e-06
-1.02784779866e-07
-2.15042380505e-06
-1.31491088127e-07
-2.12218861721e-06
-1.62672482749e-07
-2.08835698484e-06
-1.97578593302e-07
-2.0485972712e-06
-2.37057526489e-07
-2.00208603043e-06
-2.82128393896e-07
-1.94739669697e-06
-3.34004021803e-07
-1.88211867789e-06
-3.94013555544e-07
-1.80326458601e-06
-4.63894935321e-07
-1.70840418692e-06
-5.45630942058e-07
-1.59459430945e-06
-6.40789645772e-07
-1.45521884202e-06
-7.51981969841e-07
-1.28299936972e-06
-8.8443837895e-07
-1.07382393529e-06
-1.03857813498e-06
-8.28886657005e-07
-1.20332768106e-06
-5.58088530336e-07
-1.35733227259e-06
-2.8248336461e-07
-1.46808701327e-06
-3.37638041383e-08
-1.49512459347e-06
1.58303826966e-07
-1.40534391913e-06
3.22932267719e-07
-1.21939608742e-06
4.81137824405e-07
-1.06616826126e-06
5.91710946833e-07
-7.05646839377e-07
6.53487668509e-07
-3.85056462317e-07
6.81807120598e-07
-2.10312487418e-07
6.85407206731e-07
-9.66204036758e-08
6.76841533938e-07
-1.81507234202e-09
6.48534010523e-07
1.02914741547e-07
5.82190369038e-07
2.23719733885e-07
5.01656055108e-07
3.06233829779e-07
4.22484692872e-07
3.50835000016e-07
3.4544072812e-07
3.80061429569e-07
2.70714880113e-07
4.01988537012e-07
2.10508651485e-07
4.04615460027e-07
1.55002421581e-07
3.70574146207e-07
9.95819140334e-08
3.55923725688e-07
4.85075462859e-08
4.35564390274e-07
4.53277733924e-07
-5.09977296723e-08
5.88578267673e-07
-2.07319665495e-07
7.7586528267e-07
-2.77425722273e-07
9.31216382228e-07
-2.34385150072e-07
6.9864055282e-07
-3.07288731134e-07
4.58125078788e-07
-5.36893933351e-07
7.11737891731e-07
-6.50804061588e-07
8.19917977763e-07
-7.2876066514e-07
7.78304650866e-07
-7.95751551769e-07
7.07593871059e-07
-8.89501760322e-07
6.60279635526e-07
-8.67465558349e-07
4.45531124946e-07
-8.37278891119e-07
2.43380265094e-07
-9.01076400962e-07
2.40555327767e-07
-9.96305413862e-07
2.66979791443e-07
-1.14956497129e-06
3.71316757132e-07
-1.30457506897e-06
4.62287177781e-07
-1.37433342291e-06
4.36977901675e-07
-1.41080105778e-06
3.99157082013e-07
-1.48840456846e-06
4.39160669786e-07
-1.56681500377e-06
4.76498403466e-07
-1.62822027692e-06
4.71530883666e-07
-1.68499264038e-06
4.46005738515e-07
-1.73977692917e-06
4.13534436583e-07
-1.78432694341e-06
3.71536122229e-07
-1.81810374641e-06
3.26384479822e-07
-1.85246250036e-06
2.85729083895e-07
-1.87536032427e-06
2.53880981594e-07
-1.90679019108e-06
2.31119592321e-07
-1.92227710408e-06
1.82249372439e-07
-1.92861594968e-06
1.25524514863e-07
-1.95477584019e-06
1.19211110935e-07
-1.98963961566e-06
1.23507297429e-07
-2.04263215151e-06
1.3716823217e-07
-2.09686603966e-06
1.66319819192e-07
-2.15066932371e-06
1.83296511566e-07
-2.17793392046e-06
1.61880396061e-07
-2.19171463077e-06
1.34894324261e-07
-2.20084432755e-06
1.0597135736e-07
-2.20690231914e-06
7.31264172709e-08
-2.21009316188e-06
3.59880650736e-08
-2.21097231315e-06
-4.2651308175e-09
-2.2084526838e-06
-4.46214145266e-08
-2.20023892914e-06
-8.24696113987e-08
-2.18520635931e-06
-1.17968079293e-07
-2.16364543098e-06
-1.53206326409e-07
-2.13616540058e-06
-1.9031026778e-07
-2.10302309645e-06
-2.30882978036e-07
-2.06393168748e-06
-2.76313319692e-07
-2.01809882975e-06
-3.28131182404e-07
-1.96411945559e-06
-3.88149104855e-07
-1.89978766217e-06
-4.58523704197e-07
-1.82212457094e-06
-5.41728357783e-07
-1.72741519776e-06
-6.40545254971e-07
-1.61011740465e-06
-7.5829475457e-07
-1.4624757494e-06
-8.99867396235e-07
-1.27752742826e-06
-1.06965572528e-06
-1.05274781049e-06
-1.26365101711e-06
-7.92100190314e-07
-1.46429543123e-06
-5.06548014559e-07
-1.64323781574e-06
-2.15567720653e-07
-1.75943625426e-06
4.72462056228e-08
-1.75831123536e-06
2.63897132559e-07
-1.62237609984e-06
4.56863321897e-07
-1.41275128476e-06
5.42062278857e-07
-1.15174889236e-06
6.48897797142e-07
-8.12803571952e-07
7.13591302014e-07
-4.50009663109e-07
7.59378488044e-07
-2.56373239929e-07
7.70491765188e-07
-1.08011318944e-07
7.43702285876e-07
2.46824371475e-08
6.74435806802e-07
1.71882468382e-07
5.81927882527e-07
3.16015227769e-07
4.90897414389e-07
3.96977439639e-07
4.00555274393e-07
4.41054823938e-07
3.18123671916e-07
4.62067114387e-07
2.50302969654e-07
4.69544416158e-07
2.06757783049e-07
4.47860478686e-07
1.48448593585e-07
4.28533606478e-07
8.92956054638e-08
4.14762035426e-07
4.93205546669e-08
4.75789585234e-07
5.02380062146e-07
-9.46038150086e-08
6.83217851115e-07
-2.33157271155e-07
9.14511563611e-07
-2.61570514182e-07
9.59709981345e-07
-1.77325470282e-07
6.14448890671e-07
-3.48690584685e-07
6.29548784956e-07
-5.405503826e-07
9.03678981284e-07
-6.22422970433e-07
9.01885661654e-07
-7.07194637007e-07
8.63170294079e-07
-7.2084996556e-07
7.21362628003e-07
-7.47878301626e-07
6.87400363513e-07
-7.16523373164e-07
4.14239699627e-07
-8.08005474407e-07
3.34907665406e-07
-8.93572544496e-07
3.26157483658e-07
-1.02855893666e-06
4.02004237297e-07
-1.18860815255e-06
5.31414428653e-07
-1.27094978855e-06
5.44683305256e-07
-1.30732727351e-06
4.73406936082e-07
-1.3916671383e-06
4.83545367191e-07
-1.48620648377e-06
5.33748317672e-07
-1.55518912911e-06
5.45528892783e-07
-1.61232985836e-06
5.28715803437e-07
-1.66760093934e-06
5.01313381853e-07
-1.72678822128e-06
4.72759651855e-07
-1.78217233844e-06
4.26952215961e-07
-1.80931332875e-06
3.53549648857e-07
-1.84738481554e-06
3.23821600517e-07
-1.87307804236e-06
2.79587647597e-07
-1.8727508676e-06
2.30799265238e-07
-1.88797252938e-06
1.97469120334e-07
-1.95247480072e-06
1.90014212972e-07
-1.99260742932e-06
1.59318542587e-07
-2.0049305729e-06
1.35782133233e-07
-2.0632381828e-06
1.95413407846e-07
-2.13185943984e-06
2.34868558448e-07
-2.16565489804e-06
2.17013804026e-07
-2.18751708669e-06
1.83658403332e-07
-2.20247453107e-06
1.4975934626e-07
-2.21293010941e-06
1.1632541349e-07
-2.22022367503e-06
8.03080068989e-08
-2.22450623698e-06
4.01480905119e-08
-2.22564074821e-06
-3.26334375679e-09
-2.22281829871e-06
-4.75847050717e-08
-2.21458845012e-06
-9.08460967416e-08
-2.19999023419e-06
-1.32717461129e-07
-2.17903522184e-06
-1.74316315429e-07
-2.15216076031e-06
-2.17343649029e-07
-2.11961538111e-06
-2.63589606815e-07
-2.08123972617e-06
-3.14856554274e-07
-2.03643938048e-06
-3.73093525617e-07
-1.98404912896e-06
-4.4071339638e-07
-1.92196821784e-06
-5.20758948563e-07
-1.8468800384e-06
-6.17006498926e-07
-1.75367263182e-06
-7.33926236396e-07
-1.63508732462e-06
-8.77092582128e-07
-1.48263542355e-06
-1.05255851126e-06
-1.28976027823e-06
-1.26276188054e-06
-1.05442557392e-06
-1.4992647166e-06
-7.78688078192e-07
-1.74031988537e-06
-4.66729966438e-07
-1.9554912e-06
-1.37955676951e-07
-2.08851866656e-06
1.65181967559e-07
-2.061766508e-06
4.14292967551e-07
-1.87180456239e-06
5.93597742645e-07
-1.59238144617e-06
7.00060139768e-07
-1.25854322617e-06
7.83002821203e-07
-8.96086735709e-07
8.26357636478e-07
-4.93646650835e-07
8.49858501125e-07
-2.80127620883e-07
8.45717721522e-07
-1.04143509354e-07
7.91781208264e-07
7.8339783041e-08
6.97687973548e-07
2.6573466013e-07
5.92159577267e-07
4.21216453997e-07
4.80434126537e-07
5.08603908268e-07
3.73079623218e-07
5.47877946059e-07
2.88140458339e-07
5.46895720449e-07
2.35993092441e-07
5.21184595926e-07
1.97734563074e-07
4.85742700097e-07
1.45547040987e-07
4.80477435864e-07
8.02108056356e-08
4.80028876794e-07
4.03032776217e-08
5.15229731956e-07
5.42785080363e-07
-1.24386756094e-07
8.07693100006e-07
-2.29001905168e-07
1.01921876977e-06
-2.1221918666e-07
9.43017284765e-07
-2.25371315682e-07
6.27652614757e-07
-4.21454188267e-07
8.25699255248e-07
-5.0751236753e-07
9.89824231995e-07
-5.83975467116e-07
9.78445190385e-07
-6.63708499116e-07
9.43001691985e-07
-6.88329877629e-07
7.46067960034e-07
-7.16055014582e-07
7.15218357408e-07
-7.31608592796e-07
4.29841549298e-07
-8.11359754069e-07
4.14700167613e-07
-9.12928054194e-07
4.27759393505e-07
-1.06645956895e-06
5.55577963935e-07
-1.20222042092e-06
6.67238616695e-07
-1.25078919832e-06
5.93315434717e-07
-1.2988728241e-06
5.21544721298e-07
-1.38649782017e-06
5.71222310821e-07
-1.4712960536e-06
6.18599439212e-07
-1.54035359345e-06
6.14636535056e-07
-1.59879969417e-06
5.87205575971e-07
-1.64615547057e-06
5.48716562195e-07
-1.68739223401e-06
5.14040903382e-07
-1.73077198356e-06
4.70369007386e-07
-1.76828575413e-06
3.91096749153e-07
-1.79332681786e-06
3.48886786404e-07
-1.83626338391e-06
3.22540722095e-07
-1.88324058445e-06
2.77785556685e-07
-1.92224939036e-06
2.36481335326e-07
-1.95069735311e-06
2.18452020233e-07
-1.99133138964e-06
1.99920970602e-07
-2.07215820025e-06
2.16559765614e-07
-2.11939331925e-06
2.42588043464e-07
-2.1500883729e-06
2.6549874204e-07
-2.17655478969e-06
2.43411927872e-07
-2.19828821701e-06
2.05315576295e-07
-2.21504050279e-06
1.66425540285e-07
-2.22714100452e-06
1.28328473229e-07
-2.23560210332e-06
8.86604670696e-08
-2.24086856072e-06
4.52943567812e-08
-2.24256480282e-06
-1.69764721629e-09
-2.23980855483e-06
-5.04801340891e-08
-2.23159635736e-06
-9.92047483494e-08
-2.21725644248e-06
-1.47209514597e-07
-2.19667164358e-06
-1.9505839453e-07
-2.17011579283e-06
-2.440603135e-07
-2.13793012692e-06
-2.95943836849e-07
-2.10024825621e-06
-3.52700279477e-07
-2.05688653906e-06
-4.16630307913e-07
-2.0070515317e-06
-4.9069290374e-07
-1.94888953586e-06
-5.79106881283e-07
-1.87862897024e-06
-6.87412057682e-07
-1.79013002509e-06
-8.22620087545e-07
-1.67492813112e-06
-9.92519241061e-07
-1.5240230354e-06
-1.20362779883e-06
-1.33016132942e-06
-1.45689118925e-06
-1.08733145019e-06
-1.74230219543e-06
-7.89390684274e-07
-2.03849383605e-06
-4.32275722063e-07
-2.31285207838e-06
-4.84464445209e-08
-2.47260610286e-06
2.93815618334e-07
-2.40428776265e-06
5.61135304876e-07
-2.13938675469e-06
7.63623074845e-07
-1.79514429331e-06
9.1384931587e-07
-1.40907484227e-06
9.95814400819e-07
-9.78359886239e-07
1.02349334395e-06
-5.21633508637e-07
9.85437687391e-07
-2.42359609765e-07
9.50397678146e-07
-6.93714288353e-08
8.68055214592e-07
1.60410248732e-07
7.44545258373e-07
3.88908973085e-07
6.09120589913e-07
5.56521588881e-07
4.61725177579e-07
6.55371664534e-07
3.30792474106e-07
6.78911708635e-07
2.43997641058e-07
6.32898444843e-07
2.08412815053e-07
5.56538763804e-07
1.81706914033e-07
5.12062493499e-07
1.38310358028e-07
5.23502262107e-07
7.3839503644e-08
5.44133918135e-07
2.92216482516e-08
5.60018381751e-07
5.71834867855e-07
-1.45004698335e-07
9.52734833102e-07
-2.40615706437e-07
1.11490390672e-06
-1.94616155716e-07
8.97079837243e-07
-2.73325875771e-07
7.06424631106e-07
-4.42665878675e-07
9.95124124984e-07
-4.72266305228e-07
1.01951895962e-06
-5.38158766189e-07
1.04442559421e-06
-5.68710398352e-07
9.73645800326e-07
-6.31132061416e-07
8.08561402776e-07
-6.28223671603e-07
7.12370564342e-07
-7.07158563367e-07
5.08822237001e-07
-8.06431770964e-07
5.14005852351e-07
-9.20178736187e-07
5.41548073174e-07
-1.06178831725e-06
6.97246480939e-07
-1.14339091223e-06
7.48905472017e-07
-1.17528414713e-06
6.25269457863e-07
-1.26521383919e-06
6.11531576281e-07
-1.36403422033e-06
6.70099704301e-07
-1.44470926193e-06
6.99330516827e-07
-1.51823539368e-06
6.88214943755e-07
-1.58620919658e-06
6.55236227106e-07
-1.64491628715e-06
6.07475031957e-07
-1.67722424623e-06
5.46397195522e-07
-1.700872823e-06
4.94062606597e-07
-1.75898653749e-06
4.4924367195e-07
-1.78947614129e-06
3.79405209914e-07
-1.79104428306e-06
3.24132825849e-07
-1.8117025923e-06
2.98460347638e-07
-1.86507781564e-06
2.89858273607e-07
-1.94033364324e-06
2.93695349492e-07
-2.00866884016e-06
2.68225710633e-07
-2.06529877389e-06
2.73142920934e-07
-2.13091741349e-06
3.08152414929e-07
-2.16541531672e-06
2.99943364964e-07
-2.18966157243e-06
2.67599540515e-07
-2.21161722417e-06
2.27202977044e-07
-2.23005667304e-06
1.84784815553e-07
-2.24385867598e-06
1.42038962639e-07
-2.25342561942e-06
9.81238502499e-08
-2.25948433722e-06
5.12379302152e-08
-2.26181912394e-06
5.10592318678e-10
-2.2594292463e-06
-5.30068267076e-08
-2.25135565357e-06
-1.07424198106e-07
-2.23709174047e-06
-1.61626805685e-07
-2.21656205699e-06
-2.15748287295e-07
-2.18998260747e-06
-2.70808891789e-07
-2.15778445954e-06
-3.28308507725e-07
-2.12058438585e-06
-3.90087811865e-07
-2.07889261115e-06
-4.58474942393e-07
-2.03271348614e-06
-5.37074361473e-07
-1.98056648983e-06
-6.31390606629e-07
-1.91866303593e-06
-7.49527344201e-07
-1.84001742398e-06
-9.01465679566e-07
-1.73530064929e-06
-1.09736044875e-06
-1.59496252687e-06
-1.34423828634e-06
-1.40788312444e-06
-1.64408995932e-06
-1.15669107092e-06
-1.99370988458e-06
-8.2468272275e-07
-2.3707128176e-06
-4.10632362392e-07
-2.72710327241e-06
2.38115311612e-08
-2.9072598717e-06
3.9376771317e-07
-2.77446529556e-06
6.94051211389e-07
-2.43990064978e-06
9.49257088455e-07
-2.05059636622e-06
1.15971990473e-06
-1.61979506729e-06
1.33315143286e-06
-1.15208385604e-06
1.45439012957e-06
-6.43203573549e-07
1.32325348981e-06
-1.11547405484e-07
1.07281714529e-06
1.80762059072e-07
9.49130384485e-07
2.83818031849e-07
8.01460403453e-07
5.36407490803e-07
6.22247929893e-07
7.35174680283e-07
4.23020307699e-07
8.54776553185e-07
2.57755014676e-07