/*--------------------------------*- C++ -*----------------------------------*\
| =========                 |                                                 |
| \\      /  F ield         | OpenFOAM: The Open Source CFD Toolbox           |
|  \\    /   O peration     | Version:  v1806                                 |
|   \\  /    A nd           | Web:      www.OpenFOAM.com                      |
|    \\/     M anipulation  |                                                 |
\*---------------------------------------------------------------------------*/
FoamFile
{
    version     2.0;
    format      ascii;
    class       volScalarField;
    location    "899";
    object      pa;
}
// * * * * * * * * * * * * * * * * * * * * * * * * * * * * * * * * * * * * * //

dimensions      [0 2 -2 0 0 0 0];


internalField   nonuniform List<scalar> 
6400
(
-0.121504951508
-0.121505538883
-0.121507204528
-0.121510502386
-0.121515510691
-0.121522304114
-0.121530970933
-0.121541880847
-0.121555500295
-0.121572450801
-0.121594266006
-0.1216220119
-0.121655609566
-0.121695516547
-0.121742760639
-0.121798683685
-0.121864549482
-0.121941152659
-0.122028694155
-0.122126442089
-0.122233648479
-0.122351686596
-0.122483863168
-0.122633784761
-0.122804229665
-0.122996326569
-0.123210012512
-0.123445453019
-0.123703637889
-0.123986022757
-0.124294004365
-0.124627896387
-0.124986054882
-0.12536657813
-0.125768929513
-0.126192604359
-0.126638599445
-0.127110385033
-0.127607562655
-0.128125649177
-0.128665263186
-0.129233463149
-0.129833964297
-0.130461910749
-0.131109857686
-0.131771939513
-0.132443346035
-0.133119920935
-0.133797599914
-0.134472551189
-0.135141192389
-0.135798019336
-0.136434157935
-0.137038964645
-0.13760830832
-0.138142638171
-0.138635646756
-0.139076241019
-0.139458855528
-0.139786384304
-0.1400617636
-0.140285031895
-0.140456998875
-0.140596775422
-0.140740706616
-0.140926476003
-0.141158025403
-0.141390040129
-0.141585196628
-0.141740313424
-0.14186546923
-0.141972310402
-0.142068345487
-0.142151184923
-0.142223046875
-0.142283961161
-0.142333193993
-0.142364799075
-0.142384673166
-0.14239302978
-0.121504155861
-0.12150477872
-0.121506284714
-0.121509470979
-0.121514687903
-0.121521670174
-0.121530303368
-0.121540743404
-0.121553827747
-0.121570550888
-0.1215920689
-0.121619335454
-0.121652654869
-0.12169236144
-0.121739168663
-0.121794257727
-0.121859447683
-0.121935689999
-0.122022971382
-0.122120261766
-0.122226358816
-0.122343279102
-0.122474775183
-0.122624122582
-0.1227940416
-0.122985670038
-0.123198743487
-0.123433645757
-0.123691408625
-0.123973299175
-0.124280564519
-0.124613917648
-0.124971792543
-0.125351709431
-0.125753576598
-0.12617697562
-0.126622636768
-0.12709448532
-0.127592202761
-0.1281108508
-0.128650371214
-0.129218933372
-0.129821140915
-0.130450533296
-0.131099402857
-0.131762584463
-0.132435252781
-0.133113355375
-0.133792575153
-0.134468272652
-0.135136756593
-0.135794600701
-0.136434137176
-0.137041103986
-0.137612236006
-0.138148924064
-0.138641311693
-0.13908022442
-0.139463114329
-0.139790601007
-0.140064334445
-0.14028774796
-0.140462121918
-0.140605822891
-0.140753192591
-0.140940437579
-0.141174947733
-0.14140687715
-0.141600776458
-0.141755443644
-0.141880376852
-0.1419875138
-0.142084473058
-0.142168482928
-0.142239022244
-0.142297287149
-0.142342333179
-0.142372457681
-0.142391522622
-0.142397815298
-0.121501878118
-0.121502855559
-0.121504183732
-0.121507040674
-0.121511965927
-0.121519513801
-0.121528507972
-0.121538314726
-0.121550485859
-0.121566480589
-0.121587342961
-0.121613894663
-0.121646538049
-0.121685555498
-0.121731410794
-0.12178462106
-0.121847902446
-0.121923870705
-0.122010643348
-0.122106507715
-0.122210575303
-0.122325007347
-0.122455001283
-0.122603708311
-0.122772475569
-0.122962534167
-0.123174405264
-0.12340829905
-0.123664979646
-0.123945688392
-0.124251641457
-0.124583837485
-0.124941092488
-0.125319506055
-0.125719594617
-0.126142825217
-0.12658801806
-0.127059068005
-0.127557179147
-0.128077528923
-0.128620299594
-0.129191399006
-0.129793934411
-0.130423651754
-0.131073815167
-0.131738857265
-0.132413989648
-0.133094845607
-0.133777047195
-0.134456218229
-0.135128279385
-0.135788224755
-0.136427899646
-0.137038352655
-0.137615703858
-0.138154928687
-0.138646941377
-0.139085595776
-0.139468616262
-0.139796203656
-0.140070430288
-0.140293599863
-0.140471192963
-0.140623661794
-0.140783847793
-0.140980266262
-0.141208615025
-0.14143418079
-0.141629454527
-0.141786945588
-0.141914590662
-0.142023092636
-0.142116949757
-0.142196263597
-0.142263972603
-0.142319095361
-0.142359727967
-0.142387043612
-0.142403916296
-0.142409865683
-0.121498593238
-0.121499558239
-0.121500640083
-0.12150316664
-0.121507323271
-0.121514490214
-0.121525101172
-0.121534625631
-0.121545556927
-0.121560404317
-0.121580250381
-0.121605843394
-0.121637530915
-0.121675257236
-0.121719419748
-0.121771618685
-0.121833798618
-0.121907288393
-0.121990481465
-0.122082053245
-0.122183534892
-0.122297276654
-0.122426095405
-0.122572949809
-0.122739847955
-0.122928012729
-0.123138059445
-0.123370254381
-0.123625252374
-0.12390415016
-0.124208378755
-0.12453885039
-0.124894457653
-0.125272001818
-0.125669375326
-0.126090032028
-0.126535869201
-0.12700674316
-0.127503989429
-0.128026379289
-0.128573469257
-0.129148281209
-0.129752739746
-0.130383930933
-0.131036263472
-0.131704236982
-0.132382916409
-0.133067743275
-0.133754260563
-0.13443802545
-0.135114483828
-0.135778089703
-0.136421517146
-0.137037282001
-0.137619574543
-0.138161455051
-0.138654767864
-0.139094115501
-0.139477500776
-0.139805301102
-0.140079850809
-0.140305710495
-0.140493901243
-0.140663605827
-0.140835468309
-0.141030451121
-0.141256821722
-0.141482811329
-0.141680368247
-0.141840445602
-0.141967455803
-0.142070467698
-0.142157731408
-0.14223618869
-0.14230393436
-0.142354408237
-0.142388422307
-0.142413552816
-0.142430711413
-0.142437684004
-0.121493471213
-0.121493632306
-0.12149485914
-0.121497265354
-0.121501540105
-0.121507544216
-0.12151675201
-0.121526794123
-0.121537794113
-0.12155193869
-0.121570577108
-0.121594989969
-0.121625390151
-0.121662147804
-0.121705520162
-0.121755544759
-0.121814097929
-0.121882562289
-0.121961089813
-0.122049670276
-0.122149038136
-0.122260749369
-0.122387471601
-0.122532014154
-0.122696354146
-0.122881898141
-0.123089330113
-0.123319113028
-0.123571837062
-0.123848417425
-0.12415012107
-0.124478602832
-0.124832901791
-0.125206974651
-0.125601594183
-0.126019990109
-0.126463947773
-0.126935168001
-0.127433783237
-0.127958843771
-0.128510097251
-0.129089064153
-0.129696638742
-0.13033056425
-0.130986160736
-0.131658172591
-0.132341565492
-0.133031612451
-0.133723746989
-0.134413390823
-0.135095662759
-0.135764811602
-0.136413978731
-0.137036002991
-0.13762380185
-0.138169394046
-0.138665077335
-0.139106008082
-0.139490538625
-0.139819651492
-0.140097155584
-0.140330946911
-0.140535090216
-0.140723040543
-0.140904979472
-0.141102702854
-0.141326847524
-0.141552063782
-0.141751486004
-0.141912211347
-0.142034740116
-0.14213148595
-0.14221927526
-0.142300957492
-0.142364814707
-0.142408360924
-0.142438642989
-0.142465158516
-0.142480562363
-0.142485280604
-0.1214844191
-0.121484297581
-0.121486153091
-0.12148839521
-0.121492592525
-0.121498150171
-0.121506451462
-0.121515986253
-0.121527037418
-0.121540624715
-0.121557752404
-0.121580600988
-0.121610189431
-0.121645970413
-0.121686736574
-0.121733367928
-0.121787712717
-0.121851646771
-0.121925900008
-0.122010714107
-0.122106583559
-0.122215247096
-0.12233914723
-0.122480766031
-0.122641942638
-0.122823926582
-0.123027958497
-0.123254581407
-0.123504391608
-0.123778147281
-0.124076946404
-0.124402165801
-0.124752647564
-0.12512511781
-0.125515919432
-0.125930638981
-0.126373525739
-0.126845488834
-0.127345982931
-0.127874139521
-0.128429692146
-0.129013298271
-0.129625103277
-0.130263095048
-0.130923209153
-0.131600470167
-0.132289811843
-0.132986370565
-0.133685458327
-0.134382357426
-0.135071985268
-0.135748500673
-0.136405165343
-0.137034588682
-0.137628777107
-0.138179264495
-0.138678731117
-0.139122842464
-0.139510531855
-0.139843907493
-0.140128754044
-0.140375427133
-0.14059835801
-0.140801303154
-0.14099371429
-0.141200275802
-0.141428318875
-0.141651702678
-0.141848471815
-0.142004252492
-0.142120725875
-0.14221863245
-0.142313365079
-0.142393096932
-0.142449464193
-0.142486462061
-0.142515856601
-0.142539060617
-0.142549944511
-0.142554002458
-0.121470985601
-0.121471729112
-0.121474564914
-0.121477589362
-0.121480384176
-0.121485555511
-0.121493611798
-0.121502612167
-0.121513221821
-0.121526038062
-0.121542499503
-0.121563311474
-0.121591125795
-0.12162406677
-0.121661472603
-0.121704319556
-0.12175478792
-0.121814709675
-0.121884648152
-0.12196461614
-0.122056081444
-0.122161014966
-0.122281230182
-0.122418965711
-0.122576147511
-0.12275430273
-0.122953471984
-0.123175980086
-0.123422383541
-0.123693258201
-0.123988127632
-0.124308650613
-0.124654998342
-0.125022181892
-0.125410059997
-0.125822596078
-0.126264730656
-0.126737477249
-0.127240044877
-0.127771542052
-0.128331628166
-0.128920420731
-0.12953751613
-0.1301809203
-0.130846924043
-0.131530778892
-0.132227421938
-0.132931886399
-0.133639369066
-0.134345029487
-0.135043648385
-0.13572928569
-0.136395082792
-0.137033247227
-0.137635201191
-0.138192361711
-0.138697856059
-0.139147973309
-0.139542468476
-0.139884619101
-0.140181794063
-0.140445264905
-0.140684865029
-0.140903928452
-0.141114031348
-0.141332629626
-0.141564241076
-0.141782100584
-0.141969716084
-0.142118550036
-0.142236737505
-0.142344877739
-0.142442843752
-0.142515072895
-0.142562485727
-0.142593515128
-0.142619439934
-0.142633799418
-0.142636685495
-0.14263837499
-0.12145548266
-0.121457017348
-0.121459978272
-0.121463862279
-0.121466137067
-0.121471271265
-0.121478218963
-0.121486566111
-0.121496638893
-0.121507419414
-0.121523203417
-0.121542810682
-0.121567557728
-0.121596866757
-0.121630604843
-0.121669328377
-0.121715975564
-0.121771747716
-0.121836562893
-0.121911194453
-0.121997605973
-0.122097840527
-0.122213469505
-0.122346834525
-0.122499407963
-0.122672239641
-0.122866816939
-0.123082549865
-0.123325173873
-0.123592941421
-0.12388336801
-0.124196571769
-0.124537074768
-0.124899533656
-0.12528373496
-0.125695169764
-0.126137075792
-0.126610536806
-0.127115168446
-0.127650187894
-0.128215128963
-0.128809727026
-0.129433168394
-0.130083352572
-0.130756722068
-0.131448666808
-0.132154128933
-0.132868056405
-0.133585532472
-0.134301597979
-0.135010915704
-0.135707420916
-0.136384048739
-0.137032670615
-0.137644476123
-0.138211090428
-0.138726163174
-0.139186504043
-0.13959233565
-0.139947464458
-0.14025966706
-0.140539882308
-0.140797705538
-0.141040313
-0.141270493753
-0.14150194862
-0.141731939444
-0.141942449336
-0.142121614401
-0.142268945365
-0.142397128472
-0.142515505238
-0.142609640775
-0.142671734972
-0.142708204492
-0.142731036225
-0.142743635381
-0.142744072484
-0.142734799899
-0.142729598961
-0.121438869939
-0.121440714778
-0.121443272827
-0.121445647266
-0.12144835907
-0.121454118396
-0.121460014518
-0.121467330992
-0.121477032297
-0.121486708192
-0.121499009268
-0.121517047617
-0.12153918842
-0.121564492354
-0.121594443028
-0.121629739623
-0.121671583528
-0.121722074902
-0.121781374437
-0.121850506841
-0.121931316947
-0.122025766186
-0.122135353579
-0.122262943688
-0.122411263707
-0.122577275693
-0.122765923695
-0.122977167174
-0.123212419667
-0.123474117525
-0.123759724041
-0.124068920623
-0.124399564106
-0.124755478754
-0.125137330878
-0.12554784482
-0.125989538975
-0.126463681268
-0.12697036429
-0.127509063625
-0.12807924337
-0.128680339325
-0.129311209073
-0.12996958666
-0.130651918384
-0.131353633288
-0.132069652574
-0.13279483001
-0.133524110597
-0.134252392363
-0.134974219535
-0.135683418619
-0.136372802591
-0.137034183161
-0.137658949723
-0.138239193089
-0.13876875988
-0.139244128239
-0.139665184839
-0.140036054564
-0.140364542177
-0.140662582452
-0.140941886169
-0.141208684205
-0.141462992062
-0.141709374442
-0.141943280039
-0.142142363211
-0.142314742549
-0.142465060586
-0.142608046299
-0.142732705601
-0.14281994668
-0.142869566167
-0.142890703907
-0.142896297214
-0.142885510044
-0.142863989781
-0.142838731581
-0.142823239546
-0.121421086489
-0.121422981434
-0.121425525323
-0.121426817788
-0.12142932137
-0.121434084742
-0.121438888856
-0.121444662016
-0.121452258021
-0.121462383043
-0.121471948993
-0.121486749111
-0.121505781519
-0.121527456341
-0.121552926851
-0.121584397467
-0.121621718552
-0.121666188109
-0.121719072669
-0.121782089002
-0.121856980781
-0.121945259512
-0.122048005193
-0.122167376696
-0.122309692924
-0.12247083505
-0.122649022026
-0.122854233344
-0.123082275865
-0.123337998861
-0.123617218569
-0.123919084839
-0.124243234326
-0.124592149763
-0.124970405318
-0.125379570652
-0.125820937419
-0.126295726784
-0.126804458487
-0.127346976098
-0.127922804189
-0.128531160549
-0.129170605341
-0.129838668506
-0.130531709978
-0.131245112495
-0.131973719944
-0.132712245141
-0.13345543096
-0.134197973089
-0.134934284585
-0.135658175544
-0.13636260401
-0.137039827019
-0.137681995611
-0.138281725408
-0.13883165347
-0.139325890814
-0.139764465826
-0.140154699154
-0.140502832646
-0.140820324727
-0.141121648685
-0.141411427302
-0.141689764399
-0.141952631684
-0.142188133405
-0.142391349499
-0.142558968337
-0.142710444916
-0.142872262567
-0.143003652828
-0.143084494635
-0.143118205743
-0.143114482076
-0.143090976032
-0.143047269798
-0.142993626427
-0.142946101777
-0.142917506677
-0.121401597285
-0.121403120074
-0.121405313203
-0.121406353727
-0.121409236091
-0.121411871114
-0.121415127288
-0.121419226427
-0.121423163529
-0.121431791113
-0.121439793632
-0.121451412603
-0.121466965303
-0.121485491906
-0.121506799425
-0.121532968282
-0.121565048305
-0.121603492265
-0.121649595336
-0.121705455335
-0.121773437314
-0.121855357662
-0.121952251647
-0.122062503385
-0.122193530413
-0.122349495198
-0.122520387315
-0.122715506258
-0.122935342335
-0.123179021089
-0.123452258135
-0.12374756512
-0.124064880188
-0.124408067461
-0.124782341537
-0.125189351276
-0.125629971236
-0.126105294569
-0.12661608203
-0.127162542904
-0.127744420279
-0.128360841977
-0.129010090293
-0.129689451398
-0.130395143992
-0.131122449994
-0.131866069694
-0.132620473089
-0.133380074585
-0.134139255922
-0.134892276575
-0.135633092487
-0.136355263499
-0.137052286958
-0.137717861558
-0.138344949941
-0.138921235453
-0.139435322578
-0.139893435031
-0.140314453729
-0.140690581499
-0.141024862442
-0.14134434663
-0.141653396008
-0.141950962992
-0.142227840778
-0.1424727569
-0.142682323621
-0.142852765206
-0.142996664573
-0.143198413302
-0.143347661505
-0.143423485624
-0.143433318302
-0.143383633467
-0.143321978183
-0.143234805523
-0.143133224626
-0.143050569353
-0.143001561979
-0.121380086008
-0.121380856384
-0.121381549419
-0.121382953696
-0.121385896448
-0.121386910749
-0.121388619748
-0.121391212826
-0.121392244696
-0.121396916828
-0.121402649663
-0.121410987194
-0.121422574416
-0.121437686947
-0.121455904184
-0.121476340575
-0.121502013411
-0.121533836064
-0.121572825998
-0.121620739484
-0.121680065104
-0.121753649375
-0.121845113319
-0.121949451385
-0.122067177764
-0.122211840668
-0.122375984702
-0.122558379963
-0.1227707588
-0.123005800029
-0.123266199786
-0.123551906707
-0.123862480655
-0.124201319464
-0.124571634506
-0.124975786373
-0.125415110882
-0.125890756392
-0.126403623546
-0.126954171764
-0.127542461642
-0.128167749716
-0.128828112826
-0.129520535378
-0.130241061517
-0.130984864292
-0.131746437195
-0.132519850915
-0.13329897383
-0.134077677416
-0.134849991702
-0.135610211064
-0.136353105164
-0.137074526272
-0.137770942996
-0.138436232274
-0.139045222869
-0.139575495061
-0.140055551624
-0.140539943148
-0.140960656667
-0.141292488671
-0.141619261361
-0.141942455167
-0.142260996678
-0.142556940346
-0.142813650913
-0.143008480089
-0.143248883228
-0.14327969563
-0.143593940488
-0.143787332701
-0.143861685616
-0.143834502366
-0.14369787011
-0.143600517209
-0.14345826308
-0.143274302892
-0.143133644984
-0.143047774514
-0.121356838356
-0.121356875259
-0.121355795955
-0.121356864772
-0.121358228542
-0.121358433462
-0.121358805533
-0.121359420068
-0.121358593784
-0.121359548132
-0.121361497828
-0.121365839389
-0.121372904284
-0.121383205584
-0.121397461933
-0.121412752484
-0.121432186587
-0.121457012946
-0.121488444379
-0.121528005298
-0.121577664311
-0.121640441371
-0.121722480422
-0.121822255254
-0.121930301722
-0.122059217343
-0.122214536433
-0.122385509866
-0.122582436059
-0.122808017152
-0.123058607599
-0.123334922808
-0.123637178431
-0.123970247938
-0.124336182475
-0.12473703854
-0.125174548487
-0.125650145085
-0.126165063017
-0.126719961694
-0.127315084079
-0.127949980621
-0.12862277086
-0.129330172473
-0.130068008619
-0.130831367174
-0.131614508265
-0.132410899357
-0.13321352166
-0.134015399645
-0.134810123862
-0.135592475555
-0.136358902391
-0.137108722518
-0.137843144316
-0.138565057147
-0.139221231015
-0.139752865382
-0.140247186348
-0.140909427423
-0.141463848087
-0.141690539587
-0.142016777556
-0.142362471135
-0.142718961104
-0.143036268648
-0.143322369884
-0.143297428176
-0.143232775778
-0.143418632004
-0.144290146236
-0.144580583365
-0.144611466944
-0.14451104234
-0.144047601389
-0.143920121957
-0.143722559831
-0.143391466112
-0.143167697263
-0.143012376401
-0.12133244664
-0.121332192919
-0.121331044983
-0.121329784257
-0.121328603299
-0.12132748928
-0.121326237779
-0.121324122971
-0.121321861096
-0.121319049289
-0.121316650688
-0.121316449297
-0.1213185477
-0.121323267514
-0.121330954404
-0.121340900339
-0.121354587534
-0.121372447844
-0.121395903288
-0.121426633989
-0.121466344635
-0.121517379491
-0.121586346209
-0.121677656818
-0.121779562182
-0.12189244142
-0.122034248823
-0.122196261576
-0.122376344704
-0.122586685491
-0.122825275558
-0.123091474517
-0.123386699628
-0.123713432441
-0.124074067981
-0.124470934788
-0.124906166434
-0.12538136924
-0.125898063746
-0.126457453181
-0.127059983478
-0.127705338682
-0.128391845269
-0.12911619442
-0.129874090132
-0.130660614267
-0.131469810836
-0.132294292299
-0.133125656567
-0.133955543634
-0.134776683567
-0.135584297431
-0.13637598521
-0.137153818179
-0.137924921519
-0.138750236798
-0.139510671748
-0.139977829628
-0.140351364265
-0.141329327862
-0.141301472078
-0.141230217577
-0.141282010697
-0.141350669276
-0.141444748102
-0.141547389297
-0.141733626201
-0.142158292614
-0.142621954793
-0.142492291319
-0.142741550995
-0.14306470379
-0.14327184107
-0.143364001702
-0.14373816845
-0.144429913222
-0.144323048225
-0.143457413006
-0.143111017155
-0.142808555709
-0.121306938145
-0.121306504877
-0.121305462309
-0.121301577875
-0.121298046637
-0.121295065677
-0.121291790955
-0.121287099994
-0.121283095723
-0.121275664382
-0.121268475301
-0.12126335924
-0.12126019215
-0.121259239913
-0.121259760849
-0.121262833463
-0.1212697287
-0.121280066866
-0.121294967842
-0.121316144869
-0.121345428399
-0.121384696612
-0.121438741775
-0.121516774936
-0.121611534225
-0.121710869506
-0.121833779324
-0.121985712335
-0.12215506757
-0.122346363311
-0.122569332055
-0.122823362317
-0.123109301608
-0.123428533779
-0.123782987923
-0.124175110527
-0.124607345022
-0.125081796288
-0.125600138008
-0.126163942518
-0.126774274771
-0.127431044716
-0.128132674292
-0.128875968195
-0.129656828255
-0.130470675028
-0.131311477423
-0.132170715242
-0.133037893379
-0.133902453574
-0.134755585219
-0.135593130737
-0.136410690392
-0.137204565418
-0.137975756967
-0.139025311135
-0.140095711571
-0.14002043603
-0.140006848244
-0.140282652854
-0.140609618723
-0.140606038591
-0.140467183371
-0.140242000881
-0.139972209906
-0.139666218604
-0.139421849939
-0.139404568279
-0.13954875244
-0.139578813135
-0.139818441837
-0.140210605125
-0.140656304927
-0.141132582364
-0.141717275026
-0.142234314003
-0.142482959906
-0.142946786882
-0.143084502615
-0.14237007333
-0.121280299677
-0.121279370121
-0.121277033285
-0.121271861281
-0.12126642026
-0.121261461485
-0.121255647965
-0.121247949348
-0.12124096054
-0.121229026957
-0.121217152052
-0.121206954454
-0.121198369994
-0.121191588728
-0.121184718199
-0.121179799917
-0.121178631542
-0.121180419935
-0.121185872225
-0.121196602868
-0.121214453095
-0.121241403063
-0.121280731469
-0.121341880022
-0.121424336316
-0.121514703906
-0.121616036315
-0.121747426271
-0.121905753382
-0.12208408961
-0.122290351978
-0.122529712524
-0.122803880996
-0.123113734157
-0.12346070968
-0.12384698591
-0.124275387638
-0.124748391603
-0.125268128736
-0.12583637009
-0.12645471648
-0.127123699856
-0.127841954387
-0.128606270241
-0.129412970942
-0.130258607641
-0.131137802038
-0.132040594897
-0.132953138336
-0.133861666148
-0.13475484476
-0.135631475658
-0.136476922008
-0.137242439983
-0.13771990488
-0.139305505842
-0.139458867214
-0.139571101492
-0.139623211027
-0.139688156294
-0.139849082188
-0.139742506955
-0.139415663283
-0.13891210994
-0.138298698278
-0.137618155846
-0.136957329513
-0.136406119025
-0.135981498177
-0.135697590043
-0.135658166065
-0.135823443079
-0.136160053018
-0.136660410027
-0.13745158721
-0.138596924552
-0.139802256172
-0.140642682928
-0.140859514068
-0.140772012604
-0.1212533281
-0.121251869143
-0.121248357008
-0.121241597623
-0.121234551131
-0.12122730244
-0.121218484413
-0.121207036063
-0.121195475997
-0.121179630667
-0.121162971697
-0.121147471268
-0.121133290443
-0.121120583999
-0.121105504736
-0.121091974581
-0.121081812198
-0.121074051612
-0.121068978195
-0.121068213536
-0.121073448254
-0.121086802353
-0.12111101401
-0.121153558105
-0.121218579464
-0.121299040453
-0.121382838017
-0.121490379838
-0.121627475697
-0.121791379605
-0.121982495779
-0.122207156065
-0.122467807791
-0.122766359985
-0.123104414368
-0.123483781518
-0.123907239486
-0.124377978858
-0.124898532066
-0.125471067845
-0.12609760642
-0.126779332262
-0.127515500331
-0.128302948564
-0.129138335074
-0.130020414368
-0.130945864907
-0.131903164178
-0.13287390055
-0.133840180701
-0.134784258379
-0.135725692455
-0.136656041335
-0.13746179139
-0.137850395821
-0.138160466778
-0.138582242339
-0.138980773728
-0.139111901916
-0.13903097134
-0.138803182566
-0.13831242607
-0.137622159696
-0.136757992786
-0.135782450977
-0.13475219209
-0.133739188738
-0.132793409379
-0.131949252937
-0.131285914587
-0.130896162687
-0.130764364738
-0.130858975203
-0.131203408514
-0.131969749728
-0.133350987367
-0.135117441409
-0.136592963269
-0.138051638305
-0.140826959983
-0.12122691332
-0.121224832741
-0.121219596525
-0.121211509836
-0.121203142186
-0.121193415304
-0.121181382996
-0.121166296236
-0.12114995204
-0.121128848129
-0.121106667805
-0.121085247843
-0.121064823208
-0.121045408953
-0.121021492436
-0.120998972319
-0.120979096276
-0.120961027835
-0.120944403314
-0.120931064485
-0.120922450012
-0.120920776018
-0.120928656449
-0.120951430799
-0.120994958966
-0.121059215269
-0.12113195879
-0.12121800878
-0.121330631151
-0.12147259032
-0.121644853305
-0.121852566472
-0.122097558261
-0.122382853978
-0.122710443394
-0.123081550141
-0.123499182217
-0.123966760482
-0.124487518042
-0.125063934624
-0.12569850329
-0.126393380584
-0.127148621172
-0.127961294529
-0.128827422998
-0.129748386816
-0.130727518961
-0.131754548108
-0.132802188081
-0.133845739178
-0.134840191588
-0.135875414573
-0.136968268863
-0.137152387229
-0.137313362337
-0.137548014052
-0.138047891037
-0.138340197749
-0.138234315049
-0.137826410151
-0.137142470549
-0.136179479685
-0.135024074063
-0.133714709257
-0.13230910457
-0.130863677702
-0.129441543564
-0.128088082318
-0.126845654087
-0.125787678859
-0.125002562858
-0.12452494281
-0.124316683111
-0.124430885162
-0.125095469721
-0.126570548474
-0.12859996439
-0.130311876009
-0.133272876735
-0.144437973784
-0.121201985473
-0.121199228337
-0.121192254597
-0.121183024237
-0.1211730303
-0.12116057178
-0.121145053671
-0.121126455362
-0.121104839806
-0.121077637574
-0.121049064491
-0.121020882124
-0.120993210569
-0.120965007184
-0.120932351735
-0.120900488195
-0.120870170273
-0.120840703962
-0.120811766668
-0.120784959667
-0.12076134165
-0.120743094599
-0.120733228178
-0.120734927229
-0.120754096465
-0.120795548988
-0.120853317988
-0.120920439626
-0.121009179224
-0.121127543006
-0.12127690922
-0.121463547518
-0.121690532999
-0.121959808047
-0.12227471264
-0.122636018357
-0.123046437723
-0.123509940905
-0.124030248445
-0.124610362634
-0.125252859544
-0.125960639567
-0.126734963985
-0.127573890144
-0.12847415537
-0.12943948083
-0.130477991993
-0.131582694783
-0.132730598223
-0.133897553122
-0.134887644247
-0.135979491956
-0.1363043916
-0.13661212699
-0.13696076228
-0.137289668956
-0.137554707796
-0.137414632145
-0.136843416266
-0.135940942903
-0.134734502339
-0.133261651671
-0.131600386662
-0.129797393507
-0.127905783837
-0.125974588289
-0.124053849141
-0.122181204001
-0.120389702989
-0.11872663697
-0.117265606466
-0.116075354373
-0.115121521376
-0.114451753217
-0.114284588184
-0.114976594332
-0.116418485316
-0.117224488694
-0.117116610064
-0.122100138775
-0.121179393568
-0.121176014079
-0.121167745289
-0.121157233487
-0.121144995
-0.121129438911
-0.121109981745
-0.121087579774
-0.121060340832
-0.121026604981
-0.120991024566
-0.120955364462
-0.120919600087
-0.12088149678
-0.120839456949
-0.120797325283
-0.120755583959
-0.120713335077
-0.120670957609
-0.120629645556
-0.120589911091
-0.120553580977
-0.120524354228
-0.120503623834
-0.12049666133
-0.120510153904
-0.120543305716
-0.120590911724
-0.12065696193
-0.120750530217
-0.120875589623
-0.121036604723
-0.121241066261
-0.12149145496
-0.121791854106
-0.122142189592
-0.122544067749
-0.123002177873
-0.12352097295
-0.124104185989
-0.124754664692
-0.125475395356
-0.126269226934
-0.127135790851
-0.128072675246
-0.12908274161
-0.130179010642
-0.131371258941
-0.132653012241
-0.134059033759
-0.13485063177
-0.135246898577
-0.13564849003
-0.136305674303
-0.136697380196
-0.136823779598
-0.13663662654
-0.135936798478
-0.134791966191
-0.133296869387
-0.131498656153
-0.129451063391
-0.127213564573
-0.124824872728
-0.12232298732
-0.119740285626
-0.117108199244
-0.114452145848
-0.111795274114
-0.109168426467
-0.106628540909
-0.104243183239
-0.101951521075
-0.0996315432034
-0.0973854134994
-0.0956529869787
-0.0943826771449
-0.0898550422764
-0.0741633864509
-0.0556239510906
-0.1211596672
-0.121155679761
-0.12114634726
-0.121134345503
-0.121119510722
-0.121100530323
-0.121077086348
-0.121050376299
-0.121016965246
-0.12097652289
-0.120933497257
-0.120889822201
-0.12084545394
-0.12079738366
-0.120744443756
-0.120690874959
-0.120636607066
-0.120580262428
-0.120522647766
-0.120465304632
-0.120407957358
-0.120351888649
-0.12030121909
-0.120256585501
-0.120222181052
-0.120204967124
-0.120208908499
-0.120232939529
-0.120278245695
-0.120342667501
-0.120438487812
-0.12057158063
-0.120749466937
-0.120974412977
-0.121254621808
-0.121592598465
-0.121985408422
-0.122437557555
-0.122953765375
-0.12353887863
-0.124196983816
-0.124931297959
-0.125745340085
-0.126638845573
-0.127607676312
-0.12865659696
-0.129807446072
-0.131100508098
-0.132599916702
-0.135059096461
-0.134399977885
-0.134647080715
-0.135339783242
-0.136071761269
-0.1361651391
-0.135861412822
-0.135076564483
-0.133740413235
-0.131951784874
-0.129799981156
-0.127343731368
-0.124637909556
-0.121726153962
-0.118636720447
-0.115395181317
-0.112024238111
-0.108547223892
-0.10498493812
-0.101353254094
-0.0976596717828
-0.093904031656
-0.0900658409125
-0.086034992319
-0.0814489111102
-0.0761694393009
-0.0705606858803
-0.0640582621528
-0.0498602766299
-0.0120549846703
0.0432823348153
-0.121143245125
-0.121138641957
-0.121128340458
-0.121114601335
-0.121096904174
-0.121074318246
-0.121047053582
-0.121015197867
-0.120975375508
-0.120928392467
-0.120877447538
-0.120825142966
-0.120771531849
-0.120712960759
-0.120648228366
-0.120582131682
-0.120514307189
-0.120442293739
-0.12036769969
-0.120292489686
-0.120215379597
-0.120137589434
-0.12006290354
-0.119992638814
-0.119929307948
-0.119879187485
-0.119849926482
-0.119843129966
-0.119862960692
-0.119900388893
-0.11996343712
-0.120061583548
-0.120208575981
-0.120408129829
-0.12066205377
-0.120980223505
-0.12136169436
-0.121807118419
-0.122321113511
-0.122907912713
-0.123572721532
-0.124320932681
-0.125155357576
-0.126072905099
-0.127066242629
-0.128142107268
-0.12932203962
-0.130618137649
-0.131703789933
-0.132754134047
-0.133422511864
-0.13368673402
-0.135104869103
-0.135490184724
-0.135150147661
-0.13426136608
-0.132784023065
-0.13074626991
-0.128257288401
-0.125404063733
-0.122249581032
-0.118847686676
-0.115238772061
-0.111453708111
-0.107520688458
-0.10346414305
-0.0993024001732
-0.095040453158
-0.0906618461644
-0.0861158103381
-0.0813001415979
-0.0760488737058
-0.0701291574697
-0.0631145652987
-0.0547012774131
-0.0450091195531
-0.0323104084016
-0.00706981523723
0.047767265309
0.117753754466
-0.12113059588
-0.121125377328
-0.121114100991
-0.121098335873
-0.121077404563
-0.121051171309
-0.121019982133
-0.120982274909
-0.120936256291
-0.120882985518
-0.120823700213
-0.120762170918
-0.120698633771
-0.120628833559
-0.120551518155
-0.120471841098
-0.12038922368
-0.120299620762
-0.120206624014
-0.120111777584
-0.120012069834
-0.119910612691
-0.119809569262
-0.119711037579
-0.119617092137
-0.119532335725
-0.119466098199
-0.11942225109
-0.119406606558
-0.119415247345
-0.119446748114
-0.119507341772
-0.11961340548
-0.119779281026
-0.120007312595
-0.120301327042
-0.12066623828
-0.121102071515
-0.121612592385
-0.122202039496
-0.122874814112
-0.123636469962
-0.12448894514
-0.125425741716
-0.126441635647
-0.127555885355
-0.128816861226
-0.130256619417
-0.130614431046
-0.13027040647
-0.130798565239
-0.132834786153
-0.134442961502
-0.134368013839
-0.133512543281
-0.131933500974
-0.129713570008
-0.12693792639
-0.123727443767
-0.1201729867
-0.116344814371
-0.112301978826
-0.108090941473
-0.103748786922
-0.099303026162
-0.0947662583907
-0.0901290037186
-0.0853521634334
-0.0803627030732
-0.0750444388783
-0.0692083352588
-0.0625510965029