/*--------------------------------*- C++ -*----------------------------------*\
| =========                 |                                                 |
| \\      /  F ield         | OpenFOAM: The Open Source CFD Toolbox           |
|  \\    /   O peration     | Version:  v1806                                 |
|   \\  /    A nd           | Web:      www.OpenFOAM.com                      |
|    \\/     M anipulation  |                                                 |
\*---------------------------------------------------------------------------*/
FoamFile
{
    version     2.0;
    format      ascii;
    class       volScalarField;
    location    "966";
    object      alpha;
}
// * * * * * * * * * * * * * * * * * * * * * * * * * * * * * * * * * * * * * //

dimensions      [0 0 -1 0 0 0 0];


internalField   nonuniform List<scalar> 
6400
(
0.915470209508
1.49865627219
2.40165230638
3.06148972345
3.68984670009
4.30831242548
5.04608907629
5.86465402839
6.44349887707
7.27561385625
8.62996671846
9.67687124185
10.5879006949
11.5794156884
12.748892368
13.9855871636
15.1463606285
16.2478346861
17.1925565944
17.8394415945
18.3113675832
18.9577395474
19.9620252764
21.2804398016
22.6947176789
24.0058151453
25.1570572551
26.2478501985
27.3696815792
28.5377960046
29.6968318592
30.6755033168
31.3976380217
31.9664592465
32.4345713365
32.8258358186
33.3727579554
34.087024951
34.5322106285
34.7868125593
35.3573027613
36.3506845198
37.3193424856
37.9204009131
38.1796667195
38.1910266535
38.0175120589
37.6962876934
37.2399994163
36.6664862589
35.908850183
34.7836721157
33.2496723516
31.3985675586
29.6026392217
27.8537764684
25.6307679384
22.7814710851
19.8107269092
17.1128463316
14.393306244
11.5778523807
9.06440650991
8.25865049267
10.4249806841
14.5027746277
17.0531654323
16.4441338519
14.195805186
12.3978754597
11.4336476909
11.6419403386
12.2576896641
12.1966454239
14.4034704974
13.8935370326
15.8776700426
9.76972059254
12.8494459658
4.79692874819
3.18903307753
2.59420767158
3.25979927986
4.56103171221
4.6302318485
4.70370363428
5.05427442147
5.62357179087
6.40758169754
7.38911329931
8.54808285646
9.70989203092
10.7610409261
11.7770114941
12.8237907683
14.0089668713
15.2609081046
16.4547401528
17.6124137567
18.1084172896
18.4265234747
19.0659750959
20.0652732556
21.3786819448
22.8837951538
24.153023395
25.2819117121
26.4017800312
27.5339388043
28.6759916649
29.8137940325
30.8576541078
31.5732175585
32.1333482168
32.6246807772
32.9600257929
33.5394730289
34.2786267494
34.6986772333
34.8611907128
35.4109996738
36.7469385763
37.9088366205
38.4397549903
38.6556109125
38.6206371905
38.3903373177
38.0300436182
37.4694237053
36.7803266651
36.0658894173
35.2809571427
33.870410914
31.6199626201
29.895296892
28.0008449971
25.4258465299
22.6299637478
19.8088213453
16.9903454765
14.2815106901
11.8184048477
9.40144055851
8.73417725959
10.7619003652
15.5331831409
18.7858554486
17.232769186
14.825859068
12.7280664301
11.9474995728
12.3754888201
13.5619003091
13.0159369755
12.9468944102
12.5009393139
11.3826306442
9.60139895304
8.11200642759
4.19079095071
3.35891682691
3.00754356875
3.54255662109
3.94178116249
4.63034722874
5.16749162181
5.22890076217
5.50526459897
6.29729030977
7.35737974321
8.52965380088
9.71028726326
10.8019390346
11.8158747792
12.7195079626
13.8093301602
16.3138223498
18.3400717909
19.0027884783
18.829349347
18.2333884523
18.7999233261
20.1590626679
21.5157567735
22.831422695
24.1468690453
25.3581126958
26.4798750895
27.5934364085
28.7274808324
29.8407316492
30.9527097368
31.6570204674
32.0471049579
32.7567584817
33.1143069504
33.4843756319
34.3483759734
34.8265734219
35.0591272237
35.6235973549
36.5877802746
37.5250660208
38.1250307569
38.409094217
38.4593941582
38.3183754557
38.0052762271
37.5235081389
36.8904785607
36.1000026243
35.0402947919
33.5923347822
31.9504138897
30.1988345764
27.958131634
25.3575539
22.6048707313
19.7978380025
17.0178180536
14.3465239969
11.7790050006
9.89894829282
9.97340216378
12.9518499537
16.5526258472
18.2516826244
18.0251242377
16.2353536788
14.4408494464
13.6908409058
13.5776621912
12.9051728749
12.3404127411
12.4007688487
12.156832596
11.2623646562
9.68429338849
7.24692958776
7.46675024721
3.50294362702
5.64081654614
3.97798972762
4.18122569634
4.94047215219
12.0165933778
10.4754734113
5.97073756465
6.24378115512
7.33708659882
8.54355548998
9.74686296348
10.8128117482
11.817791954
13.4890401562
15.552260009
17.3273844879
18.0630531749
17.6177976392
17.4333154902
18.0971114122
19.017279189
20.1640058324
21.5069237115
22.8954134135
24.233655122
25.4660794461
26.5739339208
27.6962657157
28.779570841
29.9753170792
30.9479776508
31.8455772564
32.2073102832
32.4406404862
33.1672681791
33.6224432774
34.0998402778
34.709367917
35.2687207189
35.9184361409
36.7589100793
37.5884635715
38.1845552314
38.5052362865
38.5897849654
38.4744488641
38.1802274312
37.7157211466
37.08517929
36.2672365744
35.1954219556
33.8240552497
32.2025787706
30.3037970167
28.0156200937
25.4013263468
22.6333502415
19.8321587536
17.093960522
14.5335056966
12.3950779509
11.2945087609
11.5459556171
13.0517905134
17.0505673776
19.9223605555
19.7762588594
17.9209416524
15.4381915722
13.7349214695
12.8827529478
13.0564955826
14.5503991577
14.5510281572
13.2884923851
13.2205547251
16.5862447498
12.9463200643
10.9295105518
5.93883019307
7.7614111646
4.89793168592
5.22287637055
6.90067834863
11.9210738725
8.64398457486
6.56029568595
6.77336651461
7.54599813646
8.67151563861
9.88337499293
11.3573223502
13.5169740405
14.6518392372
15.2974303394
15.7400742338
16.0842249005
16.6298139746
17.4621355811
18.2056701444
19.0743229581
20.2467866351
21.587007922
22.9809561102
24.3393812181
25.5545358791
26.74856112
27.7829539832
28.9797173294
30.0087571386
31.3647620317
31.7932627969
31.9495410154
32.4802726054
32.8711800449
33.483005128
34.1854461446
34.8674909034
35.5084745824
36.1897300789
36.9629064395
37.7177929041
38.3001471508
38.6459630152
38.7619770015
38.6732890072
38.4007449489
37.9547905613
37.3333204929
36.5123110483
35.4475561292
34.1076242072
32.4813356216
30.5137495111
28.162160588
25.522613024
22.7605718524
20.013890767
17.4211410494
15.184412729
13.6427365983
13.1313756302
13.0458223021
13.7823226008
16.9669412363
20.1728558214
21.1409500623
19.7589545484
16.8665445311
14.2686307654
13.8563951768
16.1339695428
17.0274775778
16.0227059524
15.1486743801
17.8873517146
20.9523726906
16.1946626674
15.297699611
10.2030222907
9.40511479398
6.11151519129
6.56816699565
12.2173669151
11.7422052109
7.33794499184
7.21791115699
7.43442484001
7.90231410901
8.88297267021
11.385412296
14.4327180919
15.0375321552
14.9618213999
14.5472954939
14.7377328809
15.5135539209
16.6624054639
17.4033217934
18.1227072681
19.1360845428
20.3650956675
21.7218243224
23.0578639081
24.4188860359
25.8077609543
26.8337219651
28.1381542204
29.0268731518
30.5534115867
31.2082662013
32.1868223538
32.0753977923
32.0947042418
32.70148692
33.5237087892
34.3324514296
35.073082996
35.7645613566
36.4665452441
37.2050741203
37.911813692
38.4789709475
38.8402988322
38.9829072166
38.9205008836
38.6721135045
38.2488733738
37.6461347771
36.8400249822
35.7931304808
34.4669424671
32.8190283474
30.7996090884
28.4176159919
25.7950738178
23.1027747771
20.5046114096
18.1891583587
16.3990204181
15.4318000011
15.2807030563
14.5068374883
15.798266376
19.1137547928
21.7087098287
22.5492114822
21.3537467539
17.8474999737
15.5169221582
17.2044853969
19.364519285
18.822368954
17.8448836115
17.9432825722
22.6202303498
24.2479926117
19.1611826971
18.9626463541
12.3626603578
9.43371335362
7.41666481656
6.95641136861
12.2281568653
8.93952954572
7.7065026646
7.86575742301
8.05809217863
8.80834807242
9.43359979569
13.9643342603
14.8270467799
15.0496332867
14.143979234
13.7281175236
14.4082000041
15.8435565492
16.5746570364
17.1446846447
18.1159627386
19.2222565291
20.4549447484
21.8069596787
23.2709156685
24.6758078219
25.8163538158
27.3843712098
28.2289766755
29.8227895341
30.3707224298
31.607602217
31.8061436106
31.9008560641
32.0026037341
32.7005210285
33.6306723261
34.5147441322
35.3027132021
36.0341712356
36.7577457875
37.4834677966
38.163382205
38.7195317202
39.0915196802
39.2565131267
39.2202772011
38.9998172575
38.6060712887
38.0327480273
37.2544741306
36.2313642274
34.914404789
33.2517379913
31.2154984433
28.857469951
26.3233800531
23.7928843055
21.437801554
19.4414938498
18.0254336335
17.2706939241
16.7373090045
16.5840796303
17.9123001524
21.9921956421
23.3999800281
23.1437100144
21.7305365539
19.2715116683
18.7897498313
21.1585722663
21.4836444811
20.6157496793
20.0187047872
22.049109773
24.8811816662
26.4127877812
21.7540372672
20.6017805226
12.1702784072
9.27395898804
8.62120491649
12.5006352229
12.43054804
8.2620144227
8.41856641717
8.61592432799
8.71928628871
9.35290105863
13.6402868433
14.6444356809
14.9099616855
14.6762483407
13.2092929291
13.4078690115
15.0126660121
15.9119840076
16.2579089672
17.0093877882
18.1207276201
19.3414957995
20.6111300013
22.0049151453
23.3395730926
24.9208037645
25.8553862068
27.386529437
29.0949881203
29.9524938866
30.1368224066
31.2028082901
31.8106619086
31.5718698292
32.0264084415
32.8535154124
33.7965488756
34.7133705689
35.5478228607
36.3207664203
37.0699738914
37.7989246067
38.4689179837
39.0204408194
39.4016890524
39.5871251442
39.5784537119
39.3910246571
39.0347914434
38.5014701944
37.7625587664
36.7726224072
35.476341842
33.8284603129
31.8329869418
29.5791641405
27.223240786
24.9193042625
22.7912134318
20.9985788451
19.7454399326
19.0524677016
18.7641534342
18.9180685139
18.8780791848
22.8754799635
25.5842096347
24.9371778914
23.9125647097
22.6473465432
23.1124095785
24.1932307657
23.3537747299
22.6044933352
22.7955291999
25.2168070691
25.9694635932
26.6385206278
23.7311942225
21.5657634246
11.5735537761
9.35468230051
9.31863991801
13.5316845835
11.6171403816
9.02243776191
9.19506284057
9.52664923072
10.5618085813
9.53001785376
14.4029161006
15.2082571046
14.9819994212
13.6543127717
12.9786959747
13.5258159704
15.0401023337
15.6674106397
16.1469234273
16.9974484439
18.0941132578
19.3684456564
20.7202454317
22.4438937231
23.9216639769
24.8795867624
26.8332858774
27.3242328489
29.1945336525
29.607226342
30.9003147372
30.7370846008
31.019346844
31.5222278675
32.200659431
33.0576510973
33.9959518528
34.9310630533
35.8089721346
36.62794007
37.4092755258
38.152791613
38.8262686397
39.3810601082
39.773156848
39.979726291
40.0021298794
39.8541954928
39.5441218582
39.0617846714
38.3757021801
37.4364304209
36.1901162322
34.6106711937
32.7381335059
30.6845844729
28.5747139915
26.4667731308
24.423339294
22.711608106
21.6559536658
21.282957076
21.2853165762
21.2745540541
21.0358196097
21.4769132357
26.3306644492
27.3146057087
26.7050664157
26.7514696854
27.2784735762
26.550279036
25.3096054331
24.9913936246
25.9835966385
27.2774038342
27.2380588538
26.7238093812
25.7472497478
24.3910716381
11.2071414906
9.91385412045
10.4656063898
13.6589220578
9.9918861147
10.0596382795
9.97579978611
10.2761929937
13.0661504653
11.9407462709
15.2347866205
15.522974482
15.1182921504
13.145054853
13.0574673749
14.5872329142
15.2226486883
15.4460508656
16.0905883922
17.0978491917
18.1852033305
19.4033683346
20.6146078327
22.5298184257
24.7115419196
24.8159100211
26.7492772687
28.3031542906
29.3688218658
30.3807577609
30.4174367706
30.8617405282
30.8086736125
31.4624285957
32.3646150485
33.2841905467
34.2240449113
35.1706702318
36.0867090199
36.9557310165
37.7788669869
38.5479895215
39.2354924266
39.8016070401
40.2094621827
40.4406913375
40.4992792958
40.398586024
40.1444039446
39.7253212976
39.1096414141
38.2492651262
37.1013514521
35.6683194049
34.0213819287
32.2575563766
30.3849500676
28.3080684601
26.2240847556
24.7645654438
24.2340292261
24.3132097055
24.4242758702
24.184869528
23.5610049184
22.05270433
21.0757645496
29.4720974055
31.5917296493
31.7982811727
30.9223856615
28.9559897254
27.6716395732
27.7687238246
28.9411767599
29.395303015
29.3354307312
29.2306305116
29.695075323
29.958579393
11.3600425277
10.8487898462
13.7266485197
13.9562839153
10.2819581617
10.8684324879
10.757664329
11.175498474
12.7594659297
15.2588525063
16.1370520711
15.869119466
15.4504618101
13.2935669564
13.2304516007
15.0334297745
15.3419216291
15.430691699
16.0846430019
17.1800358784
18.462337825
19.7168956256
20.7297899751
22.1381240084
24.8202575393
26.2425476288
26.4687366418
28.3509756132
28.5531333653
30.3531865191
31.1297616805
30.8474010066
30.8032767967
31.5622397744
32.5508935747
33.5183375029
34.4750575512
35.4361433172
36.3837152569
37.3033087906
38.1788343109
38.9861128598
39.6981128996
40.2838470564
40.7144927988
40.9775660665
41.0801437633
41.0351606544
40.8469287838
40.505102442
39.9824915725
39.2407262021
38.2591564156
37.0733109171
35.7618034914
34.3251182483
32.5546752495
30.3441839451
28.4172619391
27.72935817
28.1090011171
28.5845190771
28.6725057147
28.1471775451
27.0046336881
25.0419455039
22.4610799713
22.3716796519
33.5099811463
37.5664221211
35.3655971653
32.1366274408
30.7146827679
30.9010103323
31.6780041923
32.193588595
32.8774452927
33.79151322
34.5948669189
35.3943055359
11.8593344615
11.7913713511
15.4108677538
14.8014803073
13.1022683752
12.1430568856
11.7749674449
12.6050783594
12.4090948992
16.2406991286
16.872325504
16.300919982
15.6725431834
14.019509552
13.9776061861
15.4532493548
15.3981995462
15.5210377409
16.1667030932
17.1779907005
18.5439506144
20.1257299815
21.8907700263
22.1839602937
24.3060776547
26.5289469026
26.3866659974
28.50132078
29.7326313599
29.7539376999
30.4545733144
30.4699905363
31.0478238826
31.846888325
32.788789639
33.7705901837
34.7509373132
35.73335551
36.7064505922
37.6690586754
38.6051738871
39.4682589124
40.2171268419
40.8305508149
41.2931772401
41.5990461869
41.7564588598
41.7768157698
41.6645086788
41.4144011519
41.0109163699
40.4380913618
39.709761337
38.8841256058
37.983352511
36.7983977689
35.011365536
32.8725609663
31.5245441145
32.516762058
34.7145783101
35.2433531455
35.2506350868
34.5265627551
33.0715679117
30.5021189062
26.7426078377
22.0888306627
28.6555717068
38.5745341915
40.1439545745
36.2611605498
34.7627219961
34.8563543183
35.3808588526
35.8567614071
37.5074106524
39.0648128187
39.28217894
39.7011875169
12.5518838988
12.4950621324
15.2483254716
15.3888637135
15.4551480812
13.370487941
12.9160965317
15.328479825
12.9110296583
17.1105186554
17.4347049217
16.7371244415
15.8804311029
14.7141869004
16.2968049717
16.4679255692
15.6460591402
15.7516247871
16.3848030126
17.2666910572
18.4513714927
20.0881052172
22.9809386511
24.030190975
23.8271630957
26.499248638
27.7321027002
28.0845374802
29.641840278
30.50680828
30.6836694835
30.5056700978
31.2235203373
32.1392317952
33.0783334711
34.0551692854
35.04672877
36.060362449
37.0727888057
38.0692493146
39.0554329073
39.9852515543
40.7916527568
41.4464724354
41.9519359311
42.3147388125
42.5416617386
42.6385089533
42.6106269194
42.4639899666
42.2062391156
41.8608416382
41.4818660767
41.1051158832
40.5843826666
39.5494314896
38.2988362967
37.1503818878
35.9573929275
38.1254105254
36.8629444817
34.582337322
31.5663998212
28.0681516998
22.9096421292
15.3210658681
12.7188538211
0.00466113712781
0.000196797171343
24.9672622333
35.0693083224
36.4638726181
32.2016796443
31.4327484573
33.6558632055
37.1760850021
41.2014985936
44.5449703874
44.9187986303
45.307635967
13.291513308
13.2466272162
12.8978583771
15.7795586774
16.0632002972
14.2313108807
13.9301468836
16.3850482611
13.6599598582
18.0250565284
17.9499386832
17.1839658309
16.1764617464
15.087867078
17.4182967642
17.136090418
16.1597314129
16.169023017
16.7190934336
17.5256723345
18.4764470007
19.9095070851
23.3827290783
25.0494128546
24.1142431555
26.401055943
28.1545833538
27.706438407
29.2079562122
30.1360659674
30.0856302323
30.7990204955
31.608917821
32.4798621705
33.3982384843
34.3841793141
35.3882483615
36.4061934982
37.4610845216
38.5165681414
39.5511348825
40.5392661986
41.4133644581
42.1296644278
42.696839701
43.1360482146
43.4509470108
43.6355030992
43.6975163427
43.6612034941
43.5702771274
43.5127733579
43.5680029944
43.6382633994
43.2825663957
42.7308188373
43.116798005
35.336970157
26.6932281505
0.10065410818
3.41185348084e-12
6.92870589009e-16
2.39977235781e-18
2.44843465271e-19
1.94297787977e-20
5.4729766771e-21
6.44210534608e-20
6.58224090135e-19
7.43533616843e-18
1.94204116694e-17
3.22491072463e-14
8.46523284297e-12
7.72465871907e-09
4.00126058449e-06
0.0101132243857
34.070789759
43.4112686164
47.9180637236
51.6751734221
51.9956005929
14.2048466537
14.3074217829
16.4343106035
16.4919914346
16.5899557033
14.9650008209
15.0003443348
17.3102735769
14.7227368943
18.8370201246
18.4518524935
17.6556355173
16.5501539975
15.5137742775
17.7382319003
17.4341959662
16.6595688772
16.6507103401
17.1053129798
17.8234344024
18.6806914399
19.8390471519
22.8495428786
25.7985993936
26.112824083
25.8219907184
28.2808486467
29.4147112256
28.3836339224
28.981423237
29.9934128162
30.9896295174
31.9295831019
32.8367241303
33.7679824191
34.7426728597
35.7628177581
36.8108949655
37.8799145857
38.9891638896
40.0946668667
41.14575178
42.0851320875
42.8741378189
43.5279263567
44.0717676124
44.4994861327
44.7885138976
44.9394311847
45.0010741679
45.0929971525
45.3799987085
45.8983512322
46.1632180225
45.294175732
43.855109042
28.3468470993
8.13791161861e-22
8.95085887797e-25
1.6779660593e-26
2.84426745917e-28
8.22917145709e-31
2.33855089546e-33
4.04798733741e-38
3.16634770542e-38
7.68716411426e-38
5.18175638434e-37
2.42710576031e-36
8.96574079394e-36
5.69758816226e-35
4.4610843436e-35
3.87023321272e-33
2.20280937415e-30
2.21429346132e-28
1.68027468629e-26
3.86926658036e-24
6.51319322292e-20
33.6316613488
55.6130947531
50.0910149434
15.0652037617
15.2614790089
18.0719680111
17.2465615681
16.8268743547
15.6884584555
16.0266137325
18.1171649985
18.1019117702
19.8508011083
19.0277541909
18.2241883363
17.0129705143
16.0725611866
18.075495646
17.6508173905
17.116766491
17.1303644867
17.5023083626
18.1266121106
18.9312498466
19.9953369507
22.3560596126
25.9915183953
27.370991559
25.6267403421
27.693484203
29.47070803
29.7746226165
29.2778961351
29.9967179593
31.144660617
32.2342877338
33.2216586072
34.1417561036
35.130086703
36.1626518591
37.2445895731
38.3519374333
39.4997308706
40.6759941854
41.8079441197
42.8145598827
43.6718145946
44.4310378783
45.1349438696
45.7299882585
46.1292885293
46.3237298623
46.4640662112
46.7751299131
47.4459669627
48.4226995172
48.1325966797
40.2421237316
16.7357122539
4.50018921603e-28
1.82235946029e-30
5.26996855895e-32
7.67210819419e-34
6.23342578071e-37
1.0401068274e-39
7.33176076023e-41
0
0
0
0
0
0
0
0
1.0197228895e-44
3.43931419939e-42
5.14448095727e-40
2.98466310397e-37
4.16884186953e-34
2.25753441987e-29
3.42833854543e-25
2.67286404733e-18
61.5477469793
15.7607461297
15.97861298
20.149743406
17.8396161095
16.8276063227
16.3160089036
16.7668416965
18.2754023571
19.6671968767
20.9956138733
19.7519644789
18.9258105263
17.7201735297
16.9059402462
18.6155850119
18.0082833595
17.6376116636
17.6462641837
17.932064669
18.4629468068
19.1863777277
20.1681832247
22.1200096385
25.8034356099
28.2863985185
27.7718760563
27.1465770386
28.7713367366
29.5763717165
29.3771824429
30.3514280573
31.5101363934
32.6494068069
33.6479140555
34.5995604248
35.5551464139
36.6073969772
37.7093753877
38.8622757774
40.0589563846
41.2933170773
42.5121052815
43.6186719639
44.5497747786
45.4196755055
46.3191875471
47.1270042788
47.645055246
47.875306781
48.0795871109
48.6158760256
49.7627864802
50.9538615175
38.2326016682
0.000858567887348
6.51524238076e-31
2.13671582178e-34
8.63999631019e-36
1.17803748764e-37
3.23049894771e-40
0
0
0
0
0
0
0
0
0
0
0
0
0
1.31391282664e-43
1.30565813842e-42
2.86228553485e-41
1.38788267608e-39
7.70723096811e-36
6.41521857136e-27
1.2366369297e-31
16.2879391978
16.4987169813
22.1384406129
18.2867329293
17.0286842175
16.8784303354
17.5489662769
17.7860528746
20.582017312
21.808269949
20.4382182358
19.6331405218
18.6063296121
18.6744839167
19.375039762
18.6024001254
18.3460390955
18.3457416311
18.4652875301
18.8800001074
19.4892377996
20.3825279551
22.0527181125
25.5717747474
28.6201300092
29.3181451491
27.1334686915
27.829617961
28.5389806581
29.3984770447
30.5847984153
31.8973535616
33.0615607796
34.1188039207
35.1060060431
36.1142392592
37.1147557212
38.2320818144
39.4155038746
40.649056223
41.9681104563
43.2885568894
44.4902696699
45.4583407602
46.3912327335
47.765394787
49.358652011
50.1155034182
49.8673333249
49.9506078586
50.5980720206
51.9056849894
37.9968097597
3.44774974053e-25
5.19621049646e-30
2.33110172782e-41
2.35560717418e-38
3.84370174371e-40
0
0
0
0
0
0
0
0
0
0
0
0
0
0
0
0
0
0
2.02995412403e-42
1.37465140412e-41
2.53497116024e-39
92.4044408311
16.7188289758
16.8967352196
22.0065090179
17.8239638013
17.2647678704
17.3507487556
18.4243455837
17.8563412963
21.3607193804
22.5483918028
21.0716268861
20.2735553538
19.2920082025
20.752130901
20.4052161778
19.3890393481
19.1582005531
19.3637368942
19.2140606557
19.4609497654
19.8858525631
20.6432789705
22.116234179
25.3244330246
28.4088611973
30.3242104894
29.4356114421
28.8833538877
29.1479591965
29.509092588
30.7586450051
32.3639995839
33.4579893364
34.6016868009
35.7819754347
36.6924171095
37.7033736583
38.843307458
40.0648265109
41.3322361155
42.6632992944
44.0692461579
45.4184503526
46.6747381124
48.0013238867
49.711268969
51.2863119114
51.9514932641
52.3548609485
52.5322467268
52.6074600765
41.4158680139
1.56790205367e-24
1.43118147569e-29
1.88103397276e-33
2.55480467635e-35
0
0
0
0
0
0
0
0
0
0
0
0
0
0
0
0
0
0
0
0
0
0
6.24613611517e-42
4.54627279499e-31
17.1896944969
17.3428300549
21.6701897894
17.5468413415
17.5498671106
17.7240088382
19.1711508328
18.3286665566
22.0499719883
23.2683021286
21.683554538
20.8897225613
19.8446968217
21.5100471809
21.3419511554
20.2189487918
19.9459951177
20.2387504032
20.1036129913
20.2507538299
20.4681449489
20.9636961126
22.3348815744
25.2081987622
28.0278032078
30.5237158154
30.5257522568
29.4652461845
28.7967102651
29.8673677049
31.096469348
32.6823077641
34.0989541116
35.3986388314
36.5467515881
37.3833068063
38.3741442122
39.5340455884
40.7925331265
42.1156767163
43.4874218457
44.989720332
46.6030520423
48.2955687108
49.6601921512
50.789851423
52.2546596862
53.679345884
55.7394637476
56.7178827402
45.3954131888
1.42866367493e-23
1.89699261559e-29
3.27126650714e-33
6.70953606787e-36
1.62450774711e-37
5.45292108557e-40
0
0
0
0
0
0
0
0
0
0
0
0
0
0
0
0
0
0
0
0
0
1.04968418171e-42
1.38882804837e-42
17.8815410883
18.0337223798
21.3814819081
17.8209470367
18.0679189724
18.1805672202
19.2119123285
19.0163322437
22.5576658961
23.9467728479
22.3119964913
21.5338225254
20.4866063467
22.1753814566
22.1602047019
21.1002532988
20.7616608568
21.0710619343
20.9638129841
21.1716455591
21.296694263
21.4309177529
22.7428979735
25.2976488108
27.7854550115
30.4808690093
31.0078163215
30.2576540048
29.279802174
29.982704057
31.5052038354
32.8097999852
34.1492009704
35.634279671
37.3688149541
38.3521337106
39.2757661089
40.3367997667
41.5765808166
42.9807541553
44.4695880411
46.1081431407
48.1808778296
50.0213408502
50.9165028059
51.9898295643
54.0402074706
57.7160762388
64.0135123104
50.2170863198
4.08173661333e-24
6.780481171e-31
2.80592166766e-35
9.19969628025e-39
5.77231604915e-41
1.17000168416e-40
1.79668599862e-41
0
0
0
0
0
0
0
0
0
0
0
0
0
0
0
0
0
0
0
0
0
7.75852385002e-44
3.52291770497e-43
18.9367057462
19.0534943008
21.6872571145
18.7024865648
19.1526502457
18.9876483033
19.5312766612
20.248536162
22.6532481893
24.4599497747
22.9856153587
22.2298267225
21.2166667149
22.9324005935
22.9947787867
22.1177446909
21.7293133076
22.024643218
21.8232146542
22.1718445335
22.4044308548
22.0954823293
23.235602762
25.6010090995
27.7463522177
30.2434435428
31.1633435695
30.9065230468
31.0242670319
30.7113400601
31.7348639574
33.3379977091
35.2002680362
36.1491829072
37.6605224416
39.2875707848
40.3037895184
41.4138937713
42.5831278973
43.9347737181
45.5582499035
47.7375959392
50.2660553537
51.5571755862
52.0926166554
53.6874757916
57.7961570417
63.6376351712
56.8237789604
36.6581860871
1.02727949834e-32
9.59105483796e-38
6.56251589101e-40
0
0
0
0
0
0
0
0
0
0
0
0
0
0
0
0
0
0
0
0
0
0
0
0
0
0
0
20.4200625822
20.322345629
22.4931047362
20.4764337461
20.9917697032
20.1797258735
20.4308804353
22.0302131165
22.8856381767
25.0591136303
23.7534765987
22.987050201
22.0091004108
23.7196133761
23.8203001948
23.230445382
23.1306934888
23.2687211401
22.7697126374
23.2463618917
23.7784897161
23.0326966838
23.6102591676
25.9932225988
27.9179907091
30.0306843149
31.2052847706
31.0071338699
32.108790289
32.1595268479
32.6057058207
33.0423714104
34.9637491151
37.145808674
38.5237563746
40.0206415021
41.328221417
42.499736504
43.786705919
45.1693796855
47.0934654492
50.0327495203
52.3313204902
53.2134167152
54.2245068393
57.5808677217
64.4525563044
60.1759959582
35.0642907172
9.16762021566e-35
1.60269351134e-37
7.33852923974e-40
0
0
0
0
0
0
0
0
0
0
0
0
0
0
0
0
0
0
0
0
0
0
0
0
0
0
0
0
21.9797721999
21.4995919608
23.3428990704
22.8274270628
22.600253704
21.5364552463
21.3959042556
23.0871834506
22.2005643347
25.5186912494
24.5979608729
23.795657352
22.8505493624
24.5032233034
24.5751145053
24.1470518316
25.0283485556
24.7505476281
23.8106279813
24.401347469
24.9961674692
24.2119518684
23.7217513211
25.8842623296
27.9783985028
29.8262847409
31.1261444992
30.9484433152
32.3955913392
33.3203880356
33.9014547072
33.686275706
34.96724951
37.0245887038
39.3134112852
41.1461626854
42.5693608686
43.7456018578
45.0372321299
46.7257914823
49.504869211
52.6302784673
54.5602872352
55.7875865151
58.169244577
63.0100152389
62.7638743924
34.156311009
2.46846115694e-34
3.57361832289e-37
1.25155007778e-39
0
0
0
0
0
0
0
0
0
0
0
0
0
0
0
0
0
0
0
0
0
0
0
0
0
0
0
0
0
22.7089666906
22.2779109177
23.8458718187
23.7882515065
23.5630949953
22.7851374309
22.4683921298
24.345224838
23.1595485731
26.1014810885
25.4460081842
24.6284187705
23.7339071733
25.2923917957
25.3094563475
24.8808654492
25.9102072519
25.759940057
24.7618925184
25.4813078682
25.6227386841
24.8952373006
24.5236154424
24.7142291801
27.245752387
29.0873951065
30.6897266581
30.6851347575
32.2681416876
33.7122215551
34.9271195153
35.274508957
35.2734112236
36.9268141375
39.4056259977
41.9170254596
43.9165267328
45.3652314567
46.6575259578
49.0914965655
52.5034860506
55.3777887384
57.1276518319
59.0848925159
62.6237698376
59.2283285853
37.5418395022
27.6995373802
1.17469054195e-36
3.34557947831e-39
0
0
0
0
0
0
0
0
0
0
0
0
0
0
0
0
0
0
0
0
0
0
0
0
0
0
0
0
0
0
22.6954570625
22.6978831359
24.0921179822
23.9083580808
24.1153425295
23.7119169496
23.3701006806
25.5758262531
24.7014407794
26.8241611816
26.3290343573
25.4672415613
24.6535289399
26.1021527876
26.0836370017
25.7093396143
26.6096264264
26.5957084707
25.70941706
26.3539849532
25.4359486359
25.4751800427
25.346187009
25.543108308
26.2754137134
27.3785213751
29.4855109174
30.0867056459
31.587289115
33.4745900076
35.1503356479
36.4313642067
36.5945395456
37.5263046108
39.4695973278
42.0263122977
44.7803171647
47.0506076753
48.9418830759
52.1533294862
55.635414076
58.1359503369
59.7062551217
61.7533993749
57.5506680865
39.0670658573
40.6064079329
4.08035304302e-36
9.14037251608e-39
0
0
0
0
0
0
0
0
0
0
0
0
0
0
0
0
0
0
0
0
0
0
0
0
0
0
0
0
0
0
0
22.7969391585
22.9307141456
24.2549441551
22.9530584401
24.2742726128
24.1547501471
23.9158999546
26.0788407918
25.4211006457
27.5166630434
27.210393306
26.2757145921
25.613938155
26.919838584
26.8762555128
26.6533796934
27.4026013459
27.5356994997
26.7839634145
27.6024188056
26.6067230561
26.8802747027
26.425425636
26.6875544178
27.8210498891
28.3917156925
28.708004325
29.337060333
30.749267941
33.0026856113
34.7388228998
36.3396318955
37.5395851684
38.3659124847
40.4334032399
42.5456254288
45.4186538128
48.5724823191
51.7186753489
55.5255330369
58.7532395477
60.7017561678
60.9060421628
59.2106240938
59.989174307
36.4419014542
3.42393119447e-35
7.79474690669e-38
0
0
0
0
0
0
0
0
0
0
0
0
0
0
0
0
0
0
0
0
0
0
0
0
0
0
0
0
0
0
0
0
23.3083542833
23.4083630913
24.4075629463
23.1801098928
24.3776662516
24.3194305948
24.2303166355
26.1526167443
25.8540283334
27.9755046885
28.0326805901
26.9933497381
26.6003708784
27.6911219971
27.5981661223
27.5434550297
28.1463847044
28.5413917225
27.9015493904
28.8790553089
28.2093783484
28.702391166
28.557440025
27.5353813227
28.4314291383
29.2328753746
29.4243518305
28.6133694413
29.7482056539
32.382775183
34.3629095973
35.5593201302
36.9311301126
38.239926798
40.4895134356
42.9397414166
46.0941912652
50.0594260824
54.6788584302
59.0802110065
61.7543836869
62.5643870649
61.2818276229
56.6743897016
36.9514658564
51.07575303
5.43168607778e-37
2.20256078065e-39
0
0
0
0
0
0
0
0
0
0
0
0
0
0
0
0
0
0
0
0
0
0
0
0
0
0
0
0
0
0
0
0
23.9787409211
25.0014998791
24.6727722055
23.9162775212
24.7138325495
24.506589042
24.4947989864
26.1616834446
26.2119391455
28.0694806491
28.7880539456
27.5791057884
27.4256283949
28.2586675069
28.2145766948
28.1508707471
28.3392657441
29.4065664791
29.0425226968
29.9438350143
29.8969830411
29.8458718939
29.7296772364
29.3244322739
28.5483891964
29.0550147918
29.8736142058
27.5097706608
28.4865432291
31.0343222268
33.7662533006
35.3905515607
36.813440144
37.5113878992
39.6779270834
42.6260827252
46.2877060081
51.3734645947
57.6732113864
62.6320285676
64.5049342934
61.9584355097
60.7124932171
64.6163701746
43.8984447754
3.68164609532e-36
9.396446369e-39
0
0
0
0
0
0
0
0
0
0
0
0
0
0
0
0
0
0
0
0
0
0
0
0
0
0
0
0
0
0
0
0
0
24.4007256132
25.4746632338
25.1253540029
24.5247352608
25.1570973693
24.8196158453
24.7861050609
26.2064550436
26.5254699244
27.8689405462
29.4036564964
28.0808279641
27.8248971498
28.6418581374
28.8180658427
28.6171485096
28.4081076771
29.9479713273
30.1633047253
30.812056829
30.9767083544
31.1988493243
30.1332775225
30.0991119161
29.4666039815
30.1972104285
30.6453862206
28.3048255154
26.9774495022
28.9872479525
32.0348011931
34.5946447409
36.2332529122
37.0735786629
38.2249761732
41.2820668818
45.4890180287
52.1617318443
60.5226462512
66.3060277167