/*--------------------------------*- C++ -*----------------------------------*\
| =========                 |                                                 |
| \\      /  F ield         | OpenFOAM: The Open Source CFD Toolbox           |
|  \\    /   O peration     | Version:  v1806                                 |
|   \\  /    A nd           | Web:      www.OpenFOAM.com                      |
|    \\/     M anipulation  |                                                 |
\*---------------------------------------------------------------------------*/
FoamFile
{
    version     2.0;
    format      ascii;
    class       surfaceScalarField;
    location    "966";
    object      phia;
}
// * * * * * * * * * * * * * * * * * * * * * * * * * * * * * * * * * * * * * //

dimensions      [0 3 -1 0 0 0 0];
oriented        oriented;


internalField   nonuniform List<scalar> 
12640
(
5.74223188712e-08
-5.64252332192e-08
1.07908796858e-07
-4.94833819994e-08
1.51109099501e-07
-4.24026299553e-08
1.87921680492e-07
-3.60668980725e-08
2.16950878197e-07
-2.83971887198e-08
2.38290856066e-07
-2.09135935755e-08
2.56975974707e-07
-1.83357452399e-08
2.82529460048e-07
-2.52354401416e-08
3.15176596976e-07
-3.23171027033e-08
3.47959369168e-07
-3.2464807077e-08
3.80067685816e-07
-3.17848087318e-08
4.13880078098e-07
-3.35172141348e-08
4.47479612357e-07
-3.33145699929e-08
4.80128577246e-07
-3.23996262884e-08
5.13738956716e-07
-3.3381904417e-08
5.51243796709e-07
-3.73382259331e-08
5.91054190922e-07
-3.96460850159e-08
6.30236696674e-07
-3.90348852076e-08
6.68660685311e-07
-3.82270503404e-08
7.09056580537e-07
-4.01843041296e-08
7.55426029218e-07
-4.61336961266e-08
8.07013877213e-07
-5.13770661181e-08
8.59961337178e-07
-5.27366769998e-08
9.12453687309e-07
-5.231939628e-08
9.64180946316e-07
-5.15549087664e-08
1.01553723268e-06
-5.12174464263e-08
1.06726454322e-06
-5.15836154683e-08
1.11904447409e-06
-5.16687743884e-08
1.17047035472e-06
-5.13070915265e-08
1.22175137797e-06
-5.11927017137e-08
1.27360311283e-06
-5.17523246393e-08
1.32561292774e-06
-5.19397272313e-08
1.37742472849e-06
-5.17343934803e-08
1.4303700654e-06
-5.28877299532e-08
1.48430670911e-06
-5.38566943397e-08
1.53843774243e-06
-5.407496141e-08
1.59257762301e-06
-5.40648478287e-08
1.64545424384e-06
-5.28177797614e-08
1.69607904588e-06
-5.05498206538e-08
1.74436721404e-06
-4.82409153204e-08
1.79100749889e-06
-4.65841166299e-08
1.83430953774e-06
-4.32739311179e-08
1.87210042529e-06
-3.77508422606e-08
1.90569986184e-06
-3.35794831273e-08
1.93643801475e-06
-3.07025102455e-08
1.96398663357e-06
-2.75332270525e-08
1.98796687499e-06
-2.39492280353e-08
2.00772637257e-06
-1.97469070763e-08
2.02318880713e-06
-1.54332024026e-08
2.03594464326e-06
-1.27420873642e-08
2.04801206488e-06
-1.20305214998e-08
2.05705531311e-06
-9.01721916437e-09
2.05779909127e-06
-6.97879007708e-10
2.0517048384e-06
6.13473599917e-09
2.0383415074e-06
1.34293310427e-08
2.01628202712e-06
2.21297870803e-08
1.99405728293e-06
2.23410208917e-08
1.97522361657e-06
1.89812040234e-08
1.95304840301e-06
2.23860529505e-08
1.92810336917e-06
2.52226300222e-08
1.90788003449e-06
2.0600391973e-08
1.88337131032e-06
2.49666911253e-08
1.83053296998e-06
5.33418905177e-08
1.72880131795e-06
1.02151501404e-07
1.61075390154e-06
1.18373215751e-07
1.51345917354e-06
9.75198861338e-08
1.42041635665e-06
9.32604158725e-08
1.32426752239e-06
9.63982056723e-08
1.21896570496e-06
1.05599158909e-07
1.09790548752e-06
1.21391478766e-07
9.66888119573e-07
1.31371301876e-07
8.35461930777e-07
1.31778863986e-07
7.07790629212e-07
1.2800042426e-07
5.70620772386e-07
1.37487393017e-07
4.51768210194e-07
1.19140375363e-07
3.4794230408e-07
1.04121185478e-07
2.73958343711e-07
7.430220423e-08
1.90976101709e-07
8.33168176637e-08
1.1582881413e-07
7.54932317485e-08
1.1618158918e-07
3.08595143808e-08
-8.62861787634e-08
7.12948861262e-08
-8.90370148593e-08
1.10290575524e-07
-8.06012640696e-08
1.49608599434e-07
-7.47196732012e-08
1.96552195262e-07
-7.4831071771e-08
2.32804895332e-07
-5.66675835078e-08
2.57882404274e-07
-4.30289968254e-08
2.8492966526e-07
-5.18667509083e-08
3.1521864443e-07
-6.22464755715e-08
3.4798070928e-07
-6.48339710132e-08
3.80919657239e-07
-6.44048534233e-08
4.12144172394e-07
-6.43975181733e-08
4.43324208498e-07
-6.42407365386e-08
4.7574042255e-07
-6.4567811855e-08
5.10022066065e-07
-6.75138662346e-08
5.48359597463e-07
-7.54849855042e-08
5.87184325257e-07
-7.83400379381e-08
6.21752026528e-07
-7.33851350491e-08
6.57425840048e-07
-7.37102997572e-08
7.00007917734e-07
-8.24992498538e-08
7.49597638059e-07
-9.550327141e-08
8.03940247587e-07
-1.05457168832e-07
8.58041572966e-07
-1.06660865368e-07
9.09373414987e-07
-1.03434940539e-07
9.60290878698e-07
-1.02334915945e-07
1.01260572955e-06
-1.03351035288e-07
1.06459845084e-06
-1.03469588933e-07
1.11607821882e-06
-1.02994792442e-07
1.16759488131e-06
-1.02741687719e-07
1.21931660484e-06
-1.02785251324e-07
1.2709143132e-06
-1.03291529551e-07
1.32241876654e-06
-1.03341902717e-07
1.37373242668e-06
-1.0300366752e-07
1.42666755268e-06
-1.05726663549e-07
1.481882973e-06
-1.09036087144e-07
1.53663312669e-06
-1.0872600305e-07
1.59056676575e-06
-1.07954743608e-07
1.64475117046e-06
-1.06908660786e-07
1.69824810008e-06
-1.04012163377e-07
1.74796360315e-06
-9.7875830712e-08
1.78812281058e-06
-8.67277924986e-08
1.82125929394e-06
-7.63535710174e-08
1.85534531601e-06
-7.18350692843e-08
1.89037189036e-06
-6.85585282766e-08
1.92341221243e-06
-6.37447920371e-08
1.95378710857e-06
-5.78675239251e-08
1.98061433723e-06
-5.0782878207e-08
2.00392503049e-06
-4.30236709849e-08
2.02325067341e-06
-3.47659404495e-08
2.03597389362e-06
-2.5432361094e-08
2.0398630147e-06
-1.59213078947e-08
2.04042290302e-06
-9.5391981278e-09
2.04684517177e-06
-7.10604028632e-09
2.04899596426e-06
4.03841317947e-09
2.039027292e-06
2.3440414671e-08
2.02702411662e-06
3.42251422699e-08
2.01296424662e-06
3.65010052011e-08
1.99322089184e-06
3.88902816047e-08
1.97214981695e-06
4.36636941391e-08
1.94863139636e-06
4.90413644582e-08
1.91285914856e-06
5.67167331541e-08
1.87242769291e-06
6.58252115403e-08
1.8124904815e-06
1.13730436844e-07
1.70817526425e-06
2.06894983066e-07
1.56551471467e-06
2.61302372355e-07
1.42210742138e-06
2.41141543764e-07
1.3333372482e-06
1.82228924372e-07
1.26967710231e-06
1.60299380293e-07
1.18548699949e-06
1.90071798495e-07
1.07004435975e-06
2.3716983855e-07
9.31151850893e-07
2.70612906169e-07
7.879694658e-07
2.75299469643e-07
6.67315739267e-07
2.48983568758e-07
5.75820112745e-07
2.29325831053e-07
4.84907069012e-07
2.10394709492e-07
3.99433200189e-07
1.89944681295e-07
3.08904125777e-07
1.65191413288e-07
2.27274192094e-07
1.65331050298e-07
1.19258088065e-07
1.84038869046e-07
2.35691699808e-07
3.73774009425e-08
-1.23343570499e-07
5.83962184698e-08
-1.09321990398e-07
1.02661623691e-07
-1.24121237071e-07
1.52610788918e-07
-1.24062218666e-07
1.99505799097e-07
-1.21226508749e-07
2.26008429565e-07
-8.27439788538e-08
2.4363778836e-07
-6.01711573308e-08
2.72821033023e-07
-8.05248450204e-08
3.06233130256e-07
-9.51651558096e-08
3.3988885447e-07
-9.80646111115e-08
3.73107968099e-07
-9.72379937275e-08
4.0461445619e-07
-9.56162502473e-08
4.35501478484e-07
-9.49113213434e-08
4.68202616184e-07
-9.71077228198e-08
5.00603637742e-07
-9.97561517497e-08
5.22238125626e-07
-9.69675419602e-08
5.3682973638e-07
-9.27324688903e-08
5.64556227765e-07
-1.00903736788e-07
6.12892569085e-07
-1.21794239393e-07
6.78132695241e-07
-1.47491282475e-07
7.44545377314e-07
-1.61662387488e-07
7.99513721062e-07
-1.60212779872e-07
8.4979828353e-07
-1.56731653068e-07
9.02100471472e-07
-1.55564178359e-07
9.54778738353e-07
-1.54836780232e-07
1.00615810516e-06
-1.54590084855e-07
1.05743164081e-06
-1.54595172479e-07
1.10917641239e-06
-1.54626032505e-07
1.16106382729e-06
-1.54508421624e-07
1.21322284681e-06
-1.54858462354e-07
1.26475903295e-06
-1.54734960263e-07
1.3164540426e-06
-1.54967482651e-07
1.36924691415e-06
-1.55721534272e-07
1.42075714111e-06
-1.57178969186e-07
1.47480016577e-06
-1.62993221962e-07
1.53326469521e-06
-1.67126923147e-07
1.58875781463e-06
-1.63368395563e-07
1.64188139466e-06
-1.59973393052e-07
1.69611101833e-06
-1.58171598429e-07
1.74749626611e-06
-1.49221645796e-07
1.79422829725e-06
-1.33412888745e-07
1.83662988827e-06
-1.18733091589e-07
1.87435802463e-06
-1.09528932893e-07
1.90839585861e-06
-1.02584315527e-07
1.93938117322e-06
-9.4706483853e-08
1.96699244478e-06
-8.54752401198e-08
1.99125514337e-06
-7.50298386179e-08
2.01196783658e-06
-6.37372995376e-08
2.0288633234e-06
-5.16492722628e-08
2.04217138468e-06
-3.87422733264e-08
2.05237825647e-06
-2.61148014731e-08
2.05817479554e-06
-1.53285983242e-08
2.05528819322e-06
-4.19367240668e-09
2.04664969392e-06
1.27047053236e-08
2.03939490341e-06
3.0754001264e-08
2.03050613001e-06
4.31905113313e-08
2.01502717644e-06
5.21018375115e-08
1.99393563632e-06
6.0142240018e-08
1.96956895196e-06
6.82534251648e-08
1.94179211974e-06
7.70922279852e-08
1.90950804069e-06
8.93419126191e-08
1.85190164726e-06
1.23820719762e-07
1.73536276941e-06
2.30667194202e-07
1.56768569314e-06
3.74899867991e-07
1.43131754233e-06
3.97940531741e-07
1.36491869905e-06
3.07746176437e-07
1.28961438311e-06
2.57733960948e-07
1.19153883619e-06
2.58597789698e-07
1.08239223565e-06
2.99486839333e-07
9.59722223091e-07
3.60151913873e-07
8.41094913751e-07
3.89579499657e-07
7.48726275609e-07
3.68017005472e-07
6.66966715528e-07
3.31101099641e-07
5.80016626511e-07
3.16621965617e-07
4.75991760801e-07
3.14755950818e-07
3.70526485307e-07
2.95755700394e-07
2.80848038581e-07
2.55236675745e-07
2.13137072159e-07
2.33416259429e-07
9.20861592926e-08
3.0543160645e-07
3.2798154621e-07
2.60759710435e-08
-1.48498975611e-07
3.65579714127e-08
-1.19276483867e-07
8.39483778818e-08
-1.70888023258e-07
1.24723810275e-07
-1.64313325856e-07
1.33109307747e-07
-1.29186577761e-07
1.23851595038e-07
-7.32045374155e-08
1.70419444037e-07
-1.06277624634e-07
2.39852233593e-07
-1.49313132651e-07
2.88215843048e-07
-1.42974504404e-07
3.25795595784e-07
-1.3517441746e-07
3.60954363657e-07
-1.32054733551e-07
3.93883241523e-07
-1.28311825715e-07
4.23304067638e-07
-1.24163047398e-07
4.41884268182e-07
-1.15551232308e-07
4.52033320067e-07
-1.09748847408e-07
4.70273434231e-07
-1.14989833404e-07
5.09274873458e-07
-1.3149137903e-07
5.68109627095e-07
-1.5947019832e-07
6.34626710094e-07
-1.88052197103e-07
6.91153838062e-07
-2.03768885571e-07
7.38644646496e-07
-2.08927765447e-07
7.88699055477e-07
-2.10044128517e-07
8.40812052545e-07
-2.08650130472e-07
8.92270068817e-07
-2.06835590385e-07
9.43438495941e-07
-2.05848122542e-07
9.94684856608e-07
-2.05682550005e-07
1.04661689306e-06
-2.06399591368e-07
1.09885036657e-06
-2.06730415536e-07
1.15143286134e-06
-2.06987951017e-07
1.20352741171e-06
-2.06855423791e-07
1.25639141162e-06
-2.07522739683e-07
1.30775672111e-06
-2.062596437e-07
1.35871361739e-06
-2.06607554499e-07
1.41622446232e-06
-2.1460627839e-07
1.47389333654e-06
-2.2059079584e-07
1.5305861087e-06
-2.23738005897e-07
1.5915025987e-06
-2.24216509262e-07
1.64981763564e-06
-2.18219795808e-07
1.7008938427e-06
-2.09199740263e-07
1.7481765528e-06
-1.96454041347e-07
1.79412624997e-06
-1.7932843604e-07
1.83763077155e-06
-1.62202363733e-07
1.87679149058e-06
-1.48672653029e-07
1.91160579044e-06
-1.37380870198e-07
1.94272139172e-06
-1.25819469905e-07
1.97033044156e-06
-1.13078528853e-07
1.99445813803e-06
-9.91632632934e-08
2.01500561056e-06
-8.42849728364e-08
2.03187996998e-06
-6.85324452058e-08
2.04518906187e-06
-5.20534583799e-08
2.05462648238e-06
-3.55603325686e-08
2.0587511882e-06
-1.94524760653e-08
2.05660336116e-06
-2.04114649284e-09
2.05097310353e-06
1.83637494688e-08
2.04325532786e-06
3.85196255644e-08
2.03127227563e-06
5.52606781035e-08
2.01371100736e-06
6.97816429296e-08
1.99039574724e-06
8.36266640232e-08
1.96098766008e-06
9.78741340348e-08
1.92279023154e-06
1.15548596603e-07
1.86551900527e-06
1.46901909931e-07
1.77056853946e-06
2.19093375196e-07
1.64748308717e-06
3.54097896464e-07
1.53090163796e-06
4.91818759104e-07
1.40356324321e-06
5.25538223308e-07
1.27944968004e-06
4.32057409872e-07
1.18068152514e-06
3.56682100324e-07
1.09499832879e-06
3.44489402956e-07
1.01204301152e-06
3.82703926067e-07
9.22564116003e-07
4.49952451566e-07
8.22808460126e-07
4.89691010172e-07
7.18100202005e-07
4.7308820007e-07
6.06213634284e-07
4.43313754975e-07
4.93413189339e-07
4.29721056626e-07
3.88434895164e-07
4.20038795547e-07
2.80151325551e-07
4.04358049841e-07
1.85643145756e-07
3.50008841272e-07
1.24710750742e-07
2.94557017317e-07
6.42501475739e-08
3.66192735097e-07
3.9234487859e-07
5.28088213142e-09
-1.53692999156e-07
3.03637412077e-08
-1.43969616672e-07
6.69031322948e-08
-2.06980280146e-07
9.71256310641e-08
-1.94202531672e-07
9.5657495123e-08
-1.27377699306e-07
1.23389896888e-07
-1.0053107117e-07
1.79950188089e-07
-1.62247486237e-07
2.22940486244e-07
-1.91719729443e-07
2.63483525278e-07
-1.8296024158e-07
3.03311478468e-07
-1.74583343147e-07
3.421503615e-07
-1.70623705989e-07
3.69980205533e-07
-1.55944132624e-07
3.80549157919e-07
-1.34589806649e-07
3.91510682659e-07
-1.26326720963e-07
4.21532521488e-07
-1.39513070417e-07
4.70570742832e-07
-1.63741059076e-07
5.3069318019e-07
-1.91316732908e-07
5.87783175506e-07
-2.1628017431e-07
6.33336371599e-07
-2.33350661769e-07
6.76033420587e-07
-2.46234195781e-07
7.23992142412e-07
-2.56662859295e-07
7.74789973617e-07
-2.60634543091e-07
8.2605835903e-07
-2.59722675085e-07
8.77078621827e-07
-2.57683982676e-07
9.28149761431e-07
-2.56758142101e-07
9.80000049719e-07
-2.57393998218e-07
1.03195406407e-06
-2.58214330386e-07
1.08503590611e-06
-2.59695572253e-07
1.13743510119e-06
-2.59285456224e-07
1.19024602548e-06
-2.5958311472e-07
1.241082604e-06
-2.58280438768e-07
1.29546554203e-06
-2.60563866432e-07
1.35509060098e-06
-2.66148745741e-07
1.41264704986e-06
-2.7207800472e-07
1.47310899181e-06
-2.80964222472e-07
1.53611545298e-06
-2.86668430227e-07
1.59472295936e-06
-2.8275484769e-07
1.64949347138e-06
-2.72935738802e-07
1.70063532684e-06
-2.60290239531e-07
1.74892410823e-06
-2.44702937106e-07
1.79552660153e-06
-2.25894698932e-07
1.83974015298e-06
-2.06392936164e-07
1.87994872401e-06
-1.88863950201e-07
1.91564907606e-06
-1.7307778769e-07
1.94722542655e-06
-1.57397194404e-07
1.97499501161e-06
-1.40859811584e-07
1.99907816997e-06
-1.23259055145e-07
2.01944788853e-06
-1.04673907837e-07
2.03606501594e-06
-8.5167760378e-08
2.04886483832e-06
-6.48766563996e-08
2.0573947223e-06
-4.41111423303e-08
2.0607415049e-06
-2.28183583641e-08
2.05882444042e-06
-1.27676834747e-10
2.05313163037e-06
2.40711899037e-08
2.04395071879e-06
4.7750685235e-08
2.029547081e-06
6.97417749809e-08
2.00813941066e-06
9.13121330761e-08
1.97784374726e-06
1.14078343267e-07
1.93557005028e-06
1.40343421613e-07
1.87524495057e-06
1.76094460731e-07
1.78757065362e-06
2.34828133535e-07
1.67383704703e-06
3.33110313992e-07
1.56525261323e-06
4.62974124835e-07
1.47414784293e-06
5.83199120429e-07
1.38350329805e-06
6.16432536708e-07
1.26400107304e-06
5.51752636623e-07
1.13087514563e-06
4.89989638871e-07
1.01635401403e-06
4.5922063617e-07
9.2537741308e-07
4.73933759426e-07
8.40748292018e-07
5.34887067625e-07
7.408462266e-07
5.89941409854e-07
6.31218781631e-07
5.83035771217e-07
5.23200859167e-07
5.51610408828e-07
4.14586193717e-07
5.38608941765e-07
3.05529192836e-07
5.29379234243e-07
2.05912442676e-07
5.0424136633e-07
1.46519508561e-07
4.09622601326e-07
9.05603320552e-08
3.50723895129e-07
3.55655295911e-08
4.2136797491e-07
4.28035068094e-07
1.93747085274e-09
-1.55046125937e-07
3.40875471543e-08
-1.75754470512e-07
5.34561696845e-08
-2.2600160273e-07
6.80419662498e-08
-2.08400200379e-07
6.86767549884e-08
-1.27706964522e-07
1.25542566729e-07
-1.56920454723e-07
1.775711355e-07
-2.13700600136e-07
2.05625278729e-07
-2.1919578541e-07
2.39459261557e-07
-2.1634751961e-07
2.74708598886e-07
-2.09488974985e-07
3.01064735422e-07
-1.96722643702e-07
3.03010608658e-07
-1.57740316122e-07
3.1461486095e-07
-1.45990311889e-07
3.49506047378e-07
-1.60942266889e-07
4.020414734e-07
-1.91721627234e-07
4.660803441e-07
-2.27435393928e-07
5.25065378318e-07
-2.49991429065e-07
5.69272071954e-07
-2.60225702609e-07
6.10046761658e-07
-2.73888588894e-07
6.57692365988e-07
-2.93652877005e-07
7.07128132638e-07
-3.05883818416e-07
7.56319318736e-07
-3.09622933067e-07
8.06631427019e-07
-3.09849104734e-07
8.58116048107e-07
-3.08994137063e-07
9.09632533996e-07
-3.08121011496e-07
9.59662482526e-07
-3.07280238086e-07
1.01286912371e-06
-3.11296798253e-07
1.06574681322e-06
-3.12461828168e-07
1.1193190495e-06
-3.12757754696e-07
1.16900383162e-06
-3.0918002858e-07
1.22233139342e-06
-3.11526390748e-07
1.27938280063e-06
-3.17529239411e-07
1.33848743028e-06
-3.25160752976e-07
1.40718694774e-06
-3.40682064349e-07
1.47543342835e-06
-3.49122939376e-07
1.53685358016e-06
-3.48013899259e-07
1.59390607386e-06
-3.39747011374e-07
1.64837069086e-06
-3.27348871976e-07
1.70038138823e-06
-3.12258820258e-07
1.75004979171e-06
-2.94334363989e-07
1.79769008905e-06
-2.73506612506e-07
1.84272350508e-06
-2.5140651378e-07
1.88389929124e-06
-2.30033373977e-07
1.92055639206e-06
-2.09739334776e-07
1.95278961894e-06
-1.89646356151e-07
1.98086943947e-06
-1.68962187525e-07
2.00494885726e-06
-1.47368552565e-07
2.02504714486e-06
-1.24806151631e-07
2.04112286773e-06
-1.01282756897e-07
2.05306160831e-06
-7.68568930215e-08
2.06051285475e-06
-5.1605532635e-08
2.06303727803e-06
-2.53779267173e-08
2.06074042441e-06
2.14899674579e-09
2.05410562479e-06
3.07169498751e-08
2.04236242668e-06
5.95327778216e-08
2.02315815861e-06
8.90269928426e-08
1.99345664677e-06
1.21116391474e-07
1.94952736662e-06
1.58150342334e-07
1.88654486934e-06
2.03487413157e-07
1.79996020913e-06
2.62865237495e-07
1.68956993207e-06
3.45430318412e-07
1.56947241309e-06
4.53438635952e-07
1.47177982923e-06
5.60928970471e-07
1.37525823316e-06
6.80013250167e-07
1.26589132699e-06
7.26028417495e-07
1.16459781134e-06
6.53230342481e-07
1.04776374146e-06
6.0700949205e-07
9.33488425318e-07
5.73686132013e-07
8.41334208804e-07
5.66322036886e-07
7.53222654399e-07
6.23293509741e-07
6.51042932037e-07
6.92430548339e-07
5.55389220792e-07
6.78962425113e-07
4.49357204715e-07
6.57896324045e-07
3.3776277202e-07
6.50463832199e-07
2.33031209077e-07
6.34374327696e-07
1.62936156862e-07
5.74578701874e-07
1.0718907999e-07
4.65557222294e-07
5.76004246474e-08
4.00475538451e-07
2.47411995522e-08
4.54458598924e-07
4.5287144738e-07
1.19992243724e-08
-1.66986486776e-07
4.59299948462e-08
-2.09393202768e-07
6.05489586647e-08
-2.40365139236e-07
5.22102599238e-08
-1.99747381754e-07
7.57006854902e-08
-1.50796889744e-07
1.3343092843e-07
-2.14106253141e-07
1.61602700108e-07
-2.41307565267e-07
1.85444475562e-07
-2.42597114351e-07
2.10904938532e-07
-2.41390587094e-07
2.45506620649e-07
-2.43823641742e-07
2.51023190958e-07
-2.02042248159e-07
2.57920292834e-07
-1.64426259613e-07
2.9041577154e-07
-1.78199182906e-07
3.34250006074e-07
-2.04418643728e-07
3.94938997166e-07
-2.52029641295e-07
4.54388841357e-07
-2.86549496237e-07
4.97123792496e-07
-2.92443902795e-07
5.36205917033e-07
-2.99052576736e-07
5.85395998257e-07
-3.22834693144e-07
6.35958737479e-07
-3.43988737283e-07
6.84328637301e-07
-3.54043766749e-07
7.33418017695e-07
-3.5851909056e-07
7.84117087529e-07
-3.60360023757e-07
8.34224588801e-07
-3.58935619234e-07
8.8384648387e-07
-3.57595592231e-07
9.34965530122e-07
-3.58261177292e-07
9.86630023108e-07
-3.62835735189e-07
1.0407929786e-06
-3.66511658149e-07
1.09247341996e-06
-3.64340635875e-07
1.14373173283e-06
-3.60348515252e-07
1.20315944009e-06
-3.70858884112e-07
1.26533026482e-06
-3.79605539083e-07
1.33423632663e-06
-3.9396642665e-07
1.40395449573e-06
-4.10303919007e-07
1.47193553828e-06
-4.17021337163e-07
1.53360077665e-06
-4.09611400768e-07
1.59121862188e-06
-3.97308457921e-07
1.64673503312e-06
-3.82819174075e-07
1.70029089334e-06
-3.6577600872e-07
1.75161738152e-06
-3.45630665065e-07
1.80059470222e-06
-3.22462565088e-07
1.84668393781e-06
-2.97486744029e-07
1.88890628328e-06
-2.72259267432e-07
1.92657678579e-06
-2.47427089359e-07
1.95957782736e-06
-2.22675539417e-07
1.98804357181e-06
-1.97466948179e-07
2.01208268736e-06
-1.71454957273e-07
2.03171268365e-06
-1.44491937691e-07
2.04691439308e-06
-1.16546501756e-07
2.05763299763e-06
-8.76427672131e-08
2.06372355654e-06
-5.77605121273e-08
2.06502809956e-06
-2.67370089713e-08
2.06149357361e-06
5.65424907033e-09
2.05261429748e-06
3.95950218122e-08
2.03637142075e-06
7.58169704796e-08
2.00904113743e-06
1.16406048448e-07
1.96612869834e-06
1.64114988602e-07
1.90339684494e-06
2.20982741513e-07
1.81871221907e-06
2.88307889669e-07
1.71573816454e-06
3.66005409309e-07
1.60640573598e-06
4.54955605429e-07
1.50706086366e-06
5.53021440179e-07
1.40769681701e-06
6.60571918507e-07
1.30354233913e-06
7.84418388163e-07
1.16852185575e-06
8.61275862012e-07
1.05916778066e-06
7.62766950394e-07
9.71724588018e-07
6.94599837363e-07
8.72152182165e-07
6.73439770111e-07
7.70625830234e-07
6.6806969909e-07
6.72327980194e-07
7.21848378315e-07
5.87269556821e-07
7.77747693813e-07
4.96019254565e-07
7.70454616419e-07
3.80818274446e-07
7.73340045865e-07
2.66223591319e-07
7.65307378206e-07
1.72547993287e-07
7.28294176501e-07
1.22855414029e-07
6.24482281037e-07
6.39940829578e-08
5.24610918184e-07
1.83423891067e-08
4.4632003241e-07
9.28012831963e-09
4.63697512995e-07
4.62262560676e-07
2.1059154213e-08
-1.87423435854e-07
4.71003598895e-08
-2.35103119103e-07
5.40129661438e-08
-2.46895190303e-07
3.65433779994e-08
-1.81978721941e-07
7.79126296852e-08
-1.91750197438e-07
1.19906532737e-07
-2.55560422686e-07
1.41786701524e-07
-2.62749283638e-07
1.65069165823e-07
-2.65470197486e-07
1.76481555406e-07
-2.52543453599e-07
1.96735160766e-07
-2.63779553465e-07
1.96538487245e-07
-2.01633002197e-07
2.30123425209e-07
-1.9771585938e-07
2.67264871623e-07
-2.14984483758e-07
3.20835249441e-07
-2.57604441868e-07
3.79299244758e-07
-3.1010961218e-07
4.21966401331e-07
-3.28887763936e-07
4.57497716874e-07
-3.27703709209e-07
5.05988306369e-07
-3.4728597842e-07
5.58742655492e-07
-3.75343373149e-07
6.07639895675e-07
-3.92661659962e-07
6.55455410135e-07
-4.0165226347e-07
7.04268780557e-07
-4.07129095061e-07
7.5599957619e-07
-4.119137406e-07
8.07853775016e-07
-4.10636392799e-07
8.55829630821e-07
-4.05417805315e-07
9.09854198501e-07
-4.12153315578e-07
9.6096243758e-07
-4.13821722335e-07
1.01113620154e-06
-4.16573981638e-07
1.06293654157e-06
-4.1603792732e-07
1.13006177387e-06
-4.2736948054e-07
1.19233470321e-06
-4.33030612454e-07
1.25445167198e-06
-4.41613792239e-07
1.32629050125e-06
-4.65703039967e-07
1.40009209526e-06
-4.84013410871e-07
1.46552725041e-06
-4.82378345206e-07
1.52735096463e-06
-4.71371122721e-07
1.58702930542e-06
-4.56934807699e-07
1.64470293202e-06
-4.40451335771e-07
1.70031157245e-06
-4.21352475421e-07
1.75359593482e-06
-3.98892193876e-07
1.80423613128e-06
-3.73090604459e-07
1.85168718296e-06
-3.4493859406e-07
1.8951489913e-06
-3.15736551198e-07
1.93395113523e-06
-2.86259083271e-07
1.96780595559e-06
-2.56574315728e-07
1.99667425172e-06
-2.2639194912e-07
2.02055492762e-06
-1.95404550574e-07
2.03943386693e-06
-1.63450890014e-07
2.05333802003e-06
-1.30540105531e-07
2.0623487202e-06
-9.67458662952e-08
2.06653823682e-06
-6.20379260986e-08
2.06588661509e-06
-2.61547723637e-08
2.05999411493e-06
1.15032294141e-08
2.04732652819e-06
5.22707793899e-08
2.02434212693e-06
9.87982104495e-08
1.98576976612e-06
1.55010578162e-07
1.92673537486e-06
2.23201453172e-07
1.84565053527e-06
3.02127720458e-07
1.74523636535e-06
3.88806896445e-07
1.63694429173e-06
4.7442303224e-07
1.5354471075e-06
5.5664212145e-07
1.44440760777e-06
6.44299475595e-07
1.35993196313e-06
7.45310945285e-07
1.28846979391e-06
8.56171043764e-07
1.17226282247e-06
9.77734911755e-07
9.89453314217e-07
9.45771052821e-07
8.65270361644e-07
8.18949628775e-07
7.65226120955e-07
7.73600683486e-07
6.73326070751e-07
7.60115036817e-07
6.05584966883e-07
7.89808921007e-07
5.42650528787e-07
8.40923982598e-07
4.40838925286e-07
8.7250753894e-07
3.15333530216e-07
8.99089914538e-07
1.97640829514e-07
8.83246869969e-07
1.16010334458e-07
8.10154013387e-07
5.94516568842e-08
6.81256618933e-07
6.70369710771e-09
5.77554225618e-07
-3.28974526148e-08
4.86099289263e-07
-2.31248313143e-08
4.54134760158e-07
4.39253780097e-07
2.46268425499e-08
-2.12003578167e-07
4.08480225209e-08
-2.51021429471e-07
3.75656198289e-08
-2.43380130389e-07
4.14757381855e-08
-1.85563181954e-07
8.37463802705e-08
-2.3359834145e-07
1.00920656471e-07
-2.72311393708e-07
1.19895901016e-07
-2.81377557486e-07
1.41724177414e-07
-2.87000825299e-07
1.49641204093e-07
-2.60157697121e-07
1.62656114284e-07
-2.76539386078e-07
1.77533640118e-07
-2.16213617713e-07
2.08266913373e-07
-2.28107675916e-07
2.47252889766e-07
-2.53565018493e-07
3.03566449983e-07
-3.13493340729e-07
3.52677899925e-07
-3.58864935698e-07
3.85151266496e-07
-3.61066074946e-07
4.23961994009e-07
-3.66238387068e-07
4.74201074793e-07
-3.97257165115e-07
5.25134298523e-07
-4.26028865811e-07
5.74184526346e-07
-4.41478151725e-07
6.22670087767e-07
-4.49909383722e-07
6.70258450341e-07
-4.54523932353e-07
7.1907665814e-07
-4.60572074685e-07
7.69926123644e-07
-4.61328692032e-07
8.18009735809e-07
-4.53366464411e-07
8.7043329602e-07
-4.64444648906e-07
9.26009503888e-07
-4.69270868123e-07
9.84728488572e-07
-4.75182125003e-07
1.04588941435e-06
-4.77094317779e-07
1.10648929046e-06
-4.87857816973e-07
1.17178227849e-06
-4.98203315303e-07
1.24935769113e-06
-5.19072490788e-07
1.32322770855e-06
-5.39465515944e-07
1.39049550787e-06
-5.51190485512e-07
1.45572371184e-06
-5.47534162475e-07
1.5195967445e-06
-5.35185085734e-07
1.5818976194e-06
-5.19187904052e-07
1.64222016353e-06
-5.00736392949e-07
1.7003149924e-06
-4.79420726291e-07
1.75591917921e-06
-4.54481142363e-07
1.80861933074e-06
-4.25788836282e-07
1.85782051956e-06
-3.94152609628e-07
1.90280493249e-06
-3.60749428464e-07
1.94292289931e-06
-3.26422053025e-07
1.97773835931e-06
-2.91451295272e-07
2.00699709302e-06
-2.55728747321e-07
2.03053802033e-06
-2.19039808895e-07
2.04828934215e-06
-1.81311160732e-07
2.06033458112e-06
-1.42703223988e-07
2.06692196552e-06
-1.03452510743e-07
2.06835070316e-06
-6.35729730562e-08
2.06468396937e-06
-2.25712901733e-08
2.05518121951e-06
2.09793648395e-08
2.03728932239e-06
7.01249159493e-08
2.00608673395e-06
1.29993434981e-07
1.95488639429e-06
2.0620505294e-07
1.8803498529e-06
2.97697328843e-07
1.78554194473e-06
3.96930884515e-07
1.67235296168e-06
5.02038796696e-07
1.55605297568e-06
5.90848120381e-07
1.45580809106e-06
6.57078976292e-07
1.37376761813e-06
7.26597596045e-07
1.31042173508e-06
8.08971639397e-07
1.25871755534e-06
9.0818686334e-07
1.20739454967e-06
1.02937545944e-06
1.02399535056e-06
1.12941862401e-06
7.76315207517e-07
1.06667103279e-06
6.59568533217e-07
8.90342792573e-07
5.96803977948e-07
8.22939601959e-07
5.68873831266e-07
8.17888241845e-07
5.10843972921e-07
8.99169677549e-07
3.94814003434e-07
9.88779737558e-07
2.54199264394e-07
1.03995851974e-06
1.26428916828e-07
1.01125659826e-06
3.57310340072e-08
9.01085971249e-07
-3.39983086536e-08
7.51198978414e-07
-8.02239087653e-08
6.2398341404e-07
-9.72682779433e-08
5.03340153971e-07
-6.34078018012e-08
4.20480095602e-07
3.75934544819e-07
2.53295781983e-08
-2.36602518999e-07
3.83786487721e-08
-2.63632504767e-07
2.73837689935e-08
-2.32028065645e-07
4.32090834639e-08
-2.01091736072e-07
7.5484803958e-08
-2.65503477882e-07
8.20896268641e-08
-2.78618094251e-07
9.59526542545e-08
-2.94887948537e-07
1.08120741837e-07
-2.98922811139e-07
1.25970751543e-07
-2.77744552515e-07
1.23800734593e-07
-2.74055662154e-07
1.50158917732e-07
-2.42253529329e-07
1.84387766597e-07
-2.61943120675e-07
2.23433544977e-07
-2.92220254719e-07
2.72234416917e-07
-3.61894230827e-07
3.1003374511e-07
-3.96308230284e-07
3.37410858078e-07
-3.88150471309e-07
3.82843932104e-07
-4.11386473891e-07
4.34751330486e-07
-4.48888509668e-07
4.84960005437e-07
-4.7597813467e-07
5.35153097443e-07
-4.9142892983e-07
5.85635856852e-07
-5.00186928361e-07
6.34880992575e-07
-5.03583908958e-07
6.80629410439e-07
-5.06134844565e-07
7.29567506399e-07
-5.10116958964e-07
7.83449552109e-07
-5.07112330939e-07
8.33562334493e-07
-5.14415990534e-07
8.86994675443e-07
-5.22589289099e-07
9.39659068244e-07
-5.27738192182e-07
1.00828566864e-06
-5.45601826582e-07
1.07934882187e-06
-5.58801105767e-07
1.15436719427e-06
-5.73092546209e-07
1.22953311901e-06
-5.94111162873e-07
1.30761462721e-06
-6.17436125482e-07
1.37785423485e-06
-6.21344268799e-07
1.44454986665e-06
-6.14160584826e-07
1.51068791652e-06
-6.01266573369e-07
1.57589463607e-06
-5.84349390854e-07
1.63926432786e-06
-5.64073642166e-07
1.70027343753e-06
-5.40409996438e-07
1.75859369859e-06
-5.12795706408e-07
1.81377129649e-06
-4.8097521077e-07
1.86516278967e-06
-4.45568893479e-07
1.91204727759e-06
-4.07676557084e-07
1.95374892446e-06
-3.68185872791e-07
1.98968555938e-06
-3.27470279027e-07
2.01935313782e-06
-2.85499333179e-07
2.04235253483e-06
-2.42161424383e-07
2.05850276537e-06
-1.97598326467e-07
2.06793910739e-06
-1.52284645478e-07
2.07109920513e-06
-1.06750224866e-07
2.06853732417e-06
-6.11314451302e-08
2.06050418739e-06
-1.46069866945e-08
2.04612597848e-06
3.53179349885e-08
2.02236799567e-06
9.38398519304e-08
1.98342612723e-06
1.68842118988e-07
1.920976272e-06
2.68567830812e-07
1.83461983742e-06
3.84023794832e-07
1.73199697777e-06
4.9946087318e-07
1.59653532902e-06
6.37425367376e-07
1.45382379389e-06
7.33756066167e-07
1.3493690406e-06
7.61879100517e-07
1.2787972675e-06
7.97573699719e-07
1.23635930359e-06
8.51820488199e-07
1.21132313346e-06
9.33653467861e-07
1.19864330343e-06
1.0424441933e-06
1.13669519311e-06
1.19158099306e-06
8.59921680671e-07
1.34351989143e-06
5.48857288684e-07
1.201340726e-06
5.0524200687e-07
8.66560203328e-07
5.51190134296e-07
7.72064601246e-07
4.99439198746e-07
9.51134469542e-07
3.64821897972e-07
1.123654925e-06
1.99135764984e-07
1.20590266108e-06
4.54328703719e-08
1.16521450512e-06
-8.06330047068e-08
1.02738325772e-06
-1.54175695121e-07
8.24961455427e-07
-1.91741696766e-07
6.61761816114e-07
-1.68872913178e-07
4.80662762626e-07
-9.97546693536e-08
3.51518679237e-07
2.76296288064e-07
2.0362747689e-08
-2.57005178975e-07
3.05745132295e-08
-2.73680645176e-07
2.38097513329e-08
-2.25059955816e-07