/*--------------------------------*- C++ -*----------------------------------*\
| =========                 |                                                 |
| \\      /  F ield         | OpenFOAM: The Open Source CFD Toolbox           |
|  \\    /   O peration     | Version:  v1806                                 |
|   \\  /    A nd           | Web:      www.OpenFOAM.com                      |
|    \\/     M anipulation  |                                                 |
\*---------------------------------------------------------------------------*/
FoamFile
{
    version     2.0;
    format      ascii;
    class       volScalarField;
    location    "281";
    object      pa;
}
// * * * * * * * * * * * * * * * * * * * * * * * * * * * * * * * * * * * * * //

dimensions      [0 2 -2 0 0 0 0];


internalField   nonuniform List<scalar> 
6400
(
-0.12752287378
-0.12752425027
-0.127528081401
-0.127535385826
-0.127545836717
-0.12755928218
-0.12757579666
-0.127596125016
-0.127620394888
-0.127648713059
-0.127684476854
-0.12772952484
-0.127781815138
-0.127841524892
-0.127910053022
-0.127988991684
-0.128078989386
-0.128179776708
-0.128290614999
-0.128408617405
-0.12852969224
-0.128653877171
-0.128785120566
-0.12892816022
-0.129086525222
-0.129260392718
-0.129447491806
-0.129646345302
-0.129857255093
-0.130081310362
-0.130319557301
-0.130571330751
-0.130832405033
-0.131098560668
-0.131368688913
-0.131639908276
-0.131911540622
-0.132190748458
-0.132477043937
-0.13276063416
-0.13304288972
-0.133338667167
-0.133656362621
-0.133988878697
-0.134328143642
-0.134669481383
-0.135009251104
-0.135345524803
-0.135676714516
-0.136001706063
-0.136320410243
-0.136628412397
-0.136919133947
-0.137182144663
-0.137418265179
-0.137638898611
-0.137841010597
-0.138011486726
-0.138145800283
-0.138253363716
-0.138339717593
-0.138406774898
-0.138454362713
-0.13849345769
-0.138542683631
-0.138610370546
-0.138689645921
-0.138762683659
-0.138818212721
-0.138856665694
-0.138881904497
-0.138897533653
-0.138905926778
-0.138908621524
-0.138906872122
-0.138902300006
-0.138896020616
-0.138890746374
-0.138886683568
-0.138884859996
-0.127520869337
-0.127522319046
-0.127525706668
-0.127532857946
-0.127544234103
-0.127558608819
-0.127575432706
-0.127594776356
-0.127617911976
-0.127646246303
-0.127681788424
-0.127725994097
-0.127778386497
-0.12783869508
-0.127907371917
-0.127985341983
-0.128074824487
-0.128176007096
-0.128287874495
-0.128406686106
-0.128526462055
-0.128648954669
-0.128779487769
-0.128922028752
-0.129080423889
-0.129254812915
-0.129441867353
-0.129640921336
-0.129852422597
-0.13007691254
-0.130314789658
-0.130566539036
-0.130828384793
-0.131094310227
-0.131364570952
-0.131635910507
-0.131906884348
-0.132186310243
-0.132473388508
-0.132756530543
-0.133034914038
-0.133328960316
-0.133651242944
-0.133986989511
-0.134327522092
-0.134670287479
-0.135011286369
-0.135349100338
-0.135681376303
-0.136004787234
-0.136319325982
-0.136627554023
-0.136927735659
-0.137193686736
-0.137431245533
-0.137657011274
-0.137855907602
-0.138020498478
-0.138154562123
-0.138261768381
-0.138344603903
-0.138412532291
-0.138462986736
-0.138503840843
-0.138554415369
-0.138622955324
-0.138703414088
-0.138775692539
-0.138829697602
-0.138866837841
-0.138890799717
-0.138905175934
-0.138912169321
-0.138913084289
-0.13890968532
-0.138903605344
-0.138896504314
-0.138890222517
-0.138885632085
-0.138883965331
-0.12751530489
-0.127517722469
-0.127520626094
-0.127527143142
-0.127538148878
-0.127554372525
-0.12757290232
-0.127591603362
-0.127613308489
-0.127640796401
-0.127675790515
-0.12771941341
-0.127771672805
-0.127832171784
-0.127900712087
-0.127976126359
-0.128063783914
-0.128168941904
-0.128283087144
-0.128401062621
-0.128517869018
-0.128635749442
-0.12876459204
-0.128908666748
-0.129067158145
-0.129240582156
-0.12942812242
-0.129628198816
-0.129840432318
-0.130065454106
-0.130303387092
-0.130555240934
-0.13081875422
-0.131083490111
-0.131351549341
-0.131625068386
-0.131895182818
-0.132171950434
-0.132459341518
-0.132744527785
-0.133029128901
-0.133326978878
-0.133645653925
-0.133978762094
-0.134319002932
-0.134662229236
-0.135005099612
-0.13534522841
-0.135680261673
-0.136007957528
-0.136327201818
-0.13663636949
-0.13692972609
-0.137199380181
-0.137449071715
-0.137676580471
-0.13787188351
-0.138034975149
-0.138168753896
-0.138276305998
-0.138361814056
-0.138430016433
-0.138480799461
-0.138526516374
-0.13858286815
-0.138654659877
-0.138732298372
-0.138801090382
-0.138853240878
-0.13888852389
-0.138910285274
-0.1389216783
-0.138924830378
-0.138921853626
-0.138915237108
-0.138906492925
-0.138897203284
-0.138889080792
-0.13888355162
-0.138881288205
-0.127507757508
-0.127510140471
-0.127512319589
-0.12751826858
-0.127527860522
-0.127543816152
-0.127567977114
-0.127586565372
-0.127606500079
-0.127632535357
-0.127666685747
-0.127709842847
-0.127762025029
-0.127821887328
-0.127890074678
-0.127968997012
-0.128059960349
-0.128163160583
-0.128272086152
-0.128381563838
-0.128494185291
-0.128613981101
-0.128743936224
-0.128887471194
-0.129046060361
-0.129219952697
-0.129408329144
-0.12960943428
-0.129822743267
-0.13004831812
-0.130287286336
-0.130539601502
-0.130803194054
-0.13107133426
-0.1313357612
-0.131604142063
-0.131878000381
-0.132153210291
-0.132434526269
-0.132721282239
-0.133013055832
-0.133316164801
-0.133635388469
-0.133967972693
-0.134308704883
-0.134653387032
-0.134998629779
-0.135341736965
-0.135680274573
-0.136011995421
-0.136334931598
-0.136646441016
-0.136942165721
-0.137217641268
-0.137471502117
-0.137699097352
-0.137894561428
-0.138057767155
-0.13819177247
-0.138300321128
-0.138387650889
-0.138457717296
-0.138514396553
-0.138569791866
-0.138630510249
-0.138700426629
-0.138776554291
-0.138843124354
-0.13889215193
-0.1389237431
-0.138940857989
-0.138946403636
-0.138943517969
-0.138935315624
-0.138923658409
-0.138910706385
-0.138898132057
-0.138886309357
-0.138877648237
-0.138873912235
-0.127496071723
-0.127496246269
-0.127498950424
-0.127504955317
-0.1275154749
-0.127530128437
-0.127551613418
-0.127572565655
-0.127593936369
-0.127620282169
-0.127653757881
-0.127696557635
-0.127748841419
-0.127811871277
-0.127884839243
-0.127964304927
-0.128051402383
-0.128146114289
-0.12824684538
-0.128353495529
-0.12846636471
-0.128586127463
-0.128716116057
-0.128859810001
-0.129018556172
-0.129192984018
-0.129381966061
-0.12958431278
-0.129798841741
-0.130025895936
-0.13026543886
-0.130520085536
-0.130787447377
-0.131051001808
-0.131313614595
-0.131578929406
-0.131846848356
-0.13212155771
-0.132404000647
-0.132693618606
-0.132990660288
-0.133298391361
-0.133619640872
-0.133953188285
-0.134295370387
-0.134642347885
-0.134990713066
-0.135337597558
-0.135680484225
-0.136017019381
-0.136344780913
-0.136660771284
-0.136961194865
-0.137242186176
-0.137500069997
-0.137729492737
-0.137926217821
-0.138090682488
-0.138226264214
-0.138337151793
-0.138427751481
-0.138502538719
-0.138567711102
-0.138632478401
-0.138694947114
-0.138764976076
-0.13884011548
-0.138903929497
-0.13894830107
-0.138973462425
-0.13898260425
-0.138979871751
-0.138969765822
-0.138954359514
-0.138935446672
-0.138916003423
-0.138896906542
-0.13887798283
-0.13886473223
-0.138859248612
-0.127474118831
-0.12747375824
-0.127478755954
-0.127484723754
-0.12749604127
-0.127511673858
-0.127531284243
-0.127552617309
-0.127575943548
-0.127603229277
-0.127635578202
-0.127678437152
-0.127735733276
-0.127803281718
-0.127875601693
-0.127951375535
-0.128032133145
-0.128120478082
-0.128217642699
-0.128322390932
-0.128432896754
-0.128551487006
-0.128681506874
-0.128825627951
-0.128984818875
-0.129159092955
-0.129349217156
-0.12955262137
-0.129769048727
-0.129997547562
-0.130239685621
-0.130495181016
-0.13076019351
-0.131027548062
-0.131284252943
-0.131541556675
-0.131807171884
-0.132082593901
-0.132367153157
-0.132660121112
-0.132961763417
-0.133273941993
-0.133598288858
-0.13393413657
-0.134278823085
-0.134628968272
-0.134981256785
-0.135332763847
-0.135680940738
-0.13602336472
-0.136357394122
-0.136679845202
-0.13698689916
-0.13727422983
-0.137536901873
-0.13776961212
-0.137969331684
-0.138137075736
-0.138276315712
-0.138391385358
-0.138486917614
-0.13856850974
-0.138645093007
-0.138715129343
-0.138780302147
-0.138852976018
-0.138928933522
-0.13898912922
-0.139025914073
-0.139040386578
-0.139038208013
-0.139025668279
-0.139006141173
-0.138979960946
-0.138950573013
-0.1389210359
-0.138891311052
-0.138862283655
-0.138842791887
-0.138833693741
-0.127440519382
-0.127442855105
-0.127451700304
-0.12746070292
-0.127469749626
-0.127485226643
-0.127506024843
-0.127527779488
-0.127552493872
-0.127580777086
-0.127615163179
-0.127659001882
-0.127720158738
-0.127787164821
-0.127856482239
-0.127926939416
-0.128003078863
-0.128089425376
-0.128185075695
-0.128285524149
-0.128393001756
-0.128510901076
-0.128640650264
-0.128784401067
-0.128943752636
-0.129120111174
-0.129309224874
-0.129514256519
-0.129732757028
-0.129965696162
-0.13020960426
-0.130463673662
-0.130728072217
-0.13098801613
-0.131241399741
-0.131495328339
-0.131760228104
-0.132036947264
-0.132323977739
-0.132620340295
-0.132926265941
-0.13324290007
-0.133571119936
-0.13391038757
-0.134258624285
-0.134612861771
-0.134969956899
-0.135327053438
-0.135681658133
-0.136031346188
-0.136373345108
-0.136704230158
-0.137019773491
-0.137314922472
-0.137584082174
-0.137822326039
-0.138027557086
-0.138201124576
-0.138346295728
-0.138467062675
-0.138568748776
-0.138659009559
-0.138743679507
-0.138818588801
-0.138897173819
-0.138974059898
-0.139048670882
-0.139101453916
-0.139126505848
-0.13912718251
-0.139112062935
-0.139087743721
-0.139054115498
-0.139012891413
-0.138968823308
-0.138923831642
-0.138878353358
-0.138836652395
-0.138808566758
-0.138794464285
-0.127401303024
-0.127406152759
-0.127416526532
-0.127430036053
-0.127439788514
-0.12745549802
-0.127475423708
-0.127497927513
-0.127524505982
-0.127551007606
-0.127589098561
-0.127639131887
-0.12769860706
-0.12776331364
-0.127827924144
-0.127893226867
-0.127968074883
-0.128054389341
-0.128145967133
-0.12824217182
-0.128346985985
-0.128463803535
-0.128593180791
-0.128737527864
-0.128897752062
-0.129074176423
-0.129265639157
-0.1294673951
-0.129691040261
-0.129930431458
-0.130173647359
-0.130421669256
-0.130682894141
-0.130937324481
-0.131185499609
-0.131440408593
-0.131706450374
-0.13198462992
-0.132274069898
-0.132573819027
-0.132883940798
-0.133205160915
-0.133537892996
-0.13388153835
-0.134234319182
-0.134593599508
-0.134956474933
-0.135320274066
-0.135682649251
-0.136041227496
-0.136393129434
-0.13673460826
-0.137060843926
-0.137366062453
-0.137644338637
-0.137891217164
-0.138105148991
-0.138287226239
-0.138439641853
-0.138565717425
-0.138672191093
-0.13876849737
-0.138860416524
-0.138950045411
-0.139041352116
-0.139130717718
-0.139202977937
-0.139245385057
-0.139256007837
-0.139240970771
-0.139210557993
-0.139169096184
-0.139115250849
-0.139053868069
-0.13898914871
-0.138922339099
-0.138856201098
-0.138798270309
-0.138758916796
-0.138739145002
-0.127358703251
-0.127365172314
-0.127375669377
-0.127386337261
-0.127399408832
-0.127419553862
-0.127438785015
-0.127461524121
-0.127491320045
-0.127520044979
-0.127555349846
-0.127609555471
-0.127669765627
-0.127730586357
-0.127791079229
-0.127855420035
-0.127928507921
-0.128012017366
-0.128099711962
-0.128193040136
-0.128295480199
-0.128410095121
-0.128537631214
-0.128681297902
-0.128846377229
-0.129021362548
-0.129214731516
-0.129421827072
-0.129643604645
-0.129881281357
-0.130127029377
-0.130379343694
-0.130625310493
-0.130871992148
-0.13112080745
-0.131377599834
-0.13164534816
-0.131925187845
-0.132216973995
-0.132520087129
-0.132834463291
-0.133160491745
-0.133498281158
-0.133847135565
-0.13420540147
-0.134570693445
-0.134940410099
-0.135312174928
-0.135683862004
-0.136053196291
-0.136417213369
-0.136771811397
-0.137111536051
-0.137429961397
-0.13772098685
-0.137980406666
-0.13820654548
-0.138399048262
-0.138557905666
-0.138686387903
-0.138795367454
-0.138898859292
-0.139003455275
-0.139108668498
-0.139212194058
-0.139319234897
-0.139402979426
-0.139430714377
-0.139424050677
-0.139390790208
-0.139339514133
-0.139272577966
-0.139191711638
-0.139103701431
-0.139010991994
-0.138915318231
-0.138822836108
-0.138743675108
-0.138688195243
-0.138660134017
-0.127312220487
-0.127319916844
-0.127332012888
-0.127342114819
-0.127355943379
-0.127376181199
-0.127395591596
-0.127417870247
-0.127446064606
-0.127482881544
-0.127519742973
-0.127572870765
-0.127632591572
-0.127690017192
-0.12774619592
-0.127810989545
-0.127884970355
-0.127963843925
-0.128046855102
-0.128137486702
-0.12823848857
-0.128351430941
-0.128477157736
-0.128617349301
-0.128785138499
-0.128965258477
-0.129151193398
-0.129363377846
-0.129586089949
-0.129826192132
-0.130071199226
-0.130318499104
-0.130560389598
-0.130799736921
-0.131048043795
-0.131306745805
-0.131576455268
-0.13185816191
-0.132152268484
-0.132458667951
-0.132777369982
-0.133108492979
-0.133451856309
-0.133806649345
-0.134171285442
-0.134543586023
-0.134921285121
-0.135302401406
-0.135685119866
-0.136067317677
-0.13644599584
-0.136816745395
-0.13717352175
-0.137509338469
-0.137817808989
-0.138094460132
-0.1383360832
-0.138538726283
-0.138699422261
-0.138826108519
-0.138938944942
-0.13905616311
-0.139179289141
-0.139301296698
-0.139419398056
-0.139532417646
-0.139624225053
-0.13966983482
-0.139643399715
-0.13958553829
-0.139504530426
-0.139402646739
-0.139285620734
-0.139163221161
-0.139034693321
-0.138902348814
-0.138774950455
-0.13866456564
-0.138582332911
-0.138538508472
-0.127259987996
-0.127267436965
-0.127280177831
-0.127292784581
-0.12731069437
-0.127327108053
-0.127345958555
-0.127368667249
-0.127391662775
-0.127431520174
-0.127474551499
-0.127527003865
-0.127585791209
-0.127642023728
-0.127696465462
-0.127759539913
-0.127832930902
-0.127908327401
-0.127987393341
-0.128074523546
-0.128173727241
-0.128286153072
-0.128413554137
-0.128551003102
-0.12871110302
-0.128900155256
-0.129089689995
-0.129298089732
-0.129519756787
-0.129749404339
-0.129999292443
-0.130244892256
-0.130481882327
-0.130718788192
-0.130967347532
-0.131227633554
-0.131499307856
-0.131783079833
-0.132079563589
-0.132389128421
-0.132712143816
-0.133048623123
-0.133398054241
-0.133759454408
-0.134131284382
-0.134511590117
-0.134898489218
-0.135290454918
-0.13568606021
-0.136083438769
-0.136479680198
-0.136870203467
-0.13724854132
-0.137607173678
-0.137939135618
-0.138238326394
-0.138497010467
-0.138704351738
-0.138859968608
-0.138984788419
-0.139109535374
-0.139251438913
-0.139400038253
-0.139539807822
-0.139668500947
-0.139780561675
-0.139870375374
-0.139935819347
-0.139922261171
-0.139841236419
-0.13971684906
-0.139566700542
-0.139398747367
-0.13923368807
-0.139061659823
-0.138882820509
-0.138705423132
-0.13854605271
-0.138418552786
-0.138345365759
-0.127200661892
-0.127206422669
-0.127215485625
-0.127232026813
-0.127255214212
-0.127270512561
-0.127289041818
-0.127313680293
-0.12733491196
-0.127371367948
-0.127418735867
-0.127471562728
-0.127528725851
-0.127584511799
-0.127641446048
-0.127703555201
-0.127773922443
-0.127845617498
-0.127921427082
-0.128004908294
-0.12810000959
-0.1282090059
-0.128340985149
-0.128484953034
-0.12863708211
-0.128822616806
-0.129016895665
-0.129217820508
-0.129446497631
-0.129677716771
-0.129916150128
-0.130153117384
-0.13038732144
-0.130627608959
-0.130877793067
-0.131139605906
-0.13141325814
-0.131699314279
-0.131998409635
-0.132311085323
-0.132638239583
-0.132980208608
-0.133336182082
-0.133704810228
-0.134084584557
-0.13447386601
-0.134871217061
-0.135275593657
-0.135686020483
-0.136101039431
-0.136518044239
-0.13693258739
-0.137338118282
-0.137726712885
-0.138089810122
-0.138416375274
-0.138688086046
-0.138891066943
-0.139039585293
-0.139169716982
-0.13932140136
-0.139503530877
-0.139687333782
-0.139844019127
-0.139981921454
-0.140094139214
-0.140176369462
-0.140231905741
-0.140247101026
-0.140166829697
-0.139998487707
-0.139779399187
-0.139530282884
-0.139318013359
-0.139095910271
-0.138856881643
-0.138605820023
-0.138372048795
-0.138170762928
-0.138051316715
-0.127134164538
-0.127138244767
-0.127142111466
-0.12716076575
-0.127183321861
-0.127201842418
-0.127221725646
-0.127248373472
-0.127272362004
-0.127306672562
-0.127354791566
-0.127407067503
-0.127461992579
-0.127514898994
-0.127574789932
-0.127639908601
-0.127707290332
-0.127775480824
-0.127848469388
-0.127929048056
-0.128019598259
-0.128122168578
-0.128250708254
-0.128407353378
-0.128561112553
-0.128733405923
-0.128934181474
-0.129135445374
-0.129352293585
-0.129584684076
-0.12982033828
-0.13005279102
-0.130283748156
-0.130525719449
-0.130778118582
-0.13104187012
-0.131317562239
-0.131605883879
-0.131907908542
-0.132224098986
-0.132555347547
-0.132902634177
-0.133265370418
-0.133641793822
-0.1340302183
-0.134429380754
-0.134838401948
-0.135256729
-0.135683867428
-0.136118954382
-0.13656005631
-0.137003453703
-0.137443265653
-0.137871118696
-0.138274489309
-0.138629439418
-0.138903209297
-0.139095531244
-0.139244728461
-0.13939624125
-0.139595472454
-0.139838916926
-0.140073411045
-0.140243237013
-0.140387765251
-0.140492080733
-0.140555227297
-0.140587319592
-0.140605911149
-0.140547056
-0.140344966452
-0.140045287067
-0.139655749904
-0.139420503455
-0.139150502575
-0.138835390536
-0.138469919785
-0.138131614518
-0.137806582006
-0.137600332481
-0.127061162528
-0.127065793807
-0.127072434739
-0.12708444038
-0.127103180748
-0.12712351145
-0.127145139364
-0.127172062453
-0.127201347833
-0.127234861285
-0.1272827867
-0.127334097831
-0.127387158023
-0.127437547047
-0.127495281252
-0.127563242549
-0.127630365058
-0.127696877324
-0.127767642864
-0.127845778165
-0.127932888574
-0.128029672117
-0.128151281052
-0.128311897216
-0.128474550775
-0.128639852205
-0.128839356233
-0.12904425568
-0.129251654629
-0.129478027827
-0.129705041195
-0.12993306615
-0.130168027111
-0.130412692024
-0.130667409814
-0.130933325207
-0.131211552883
-0.131502394848
-0.13180707047
-0.132126980171
-0.132462828746
-0.132815500432
-0.133184914411
-0.133569360058
-0.133966986077
-0.134376849463
-0.134798665052
-0.135232318469
-0.135677740655
-0.136134959767
-0.136603280138
-0.137080845414
-0.137563667751
-0.138043031944
-0.138496631037
-0.138871171658
-0.13912800345
-0.139319072092
-0.139500918143
-0.139694975044
-0.139956925301
-0.140296847777
-0.140655797873
-0.140778456794
-0.140903828246
-0.14099991972
-0.141065603372
-0.141094762568
-0.141090542813
-0.141049999374
-0.140996913094
-0.140635836049
-0.139713543631
-0.139533610505
-0.139230161156
-0.13882380352
-0.138284102445
-0.137830013212
-0.137262014799
-0.136872872418
-0.126979861154
-0.126985001981
-0.12699658597
-0.127002455891
-0.127016959212
-0.1270373311
-0.127060132813
-0.127088303866
-0.127124023743
-0.127155934643
-0.127202704479
-0.127253013582
-0.127304767013
-0.127354377425
-0.127410186842
-0.127477695305
-0.127544225408
-0.127609792775
-0.12767881838
-0.127754464887
-0.127838677502
-0.127931832966
-0.128044504046
-0.128198904685
-0.128374772009
-0.128540952357
-0.128727376205
-0.12894164561
-0.129152618731
-0.129360633484
-0.129578399518
-0.129804186137
-0.130040568211
-0.13028749362
-0.130544740097
-0.130813184986
-0.131093839725
-0.131387724494
-0.131695582881
-0.132018964197
-0.132359535094
-0.132718006916
-0.133094193607
-0.133486581311
-0.133893553821
-0.134314702131
-0.134750238956
-0.135200240594
-0.13566487675
-0.136145177616
-0.136642882854
-0.137160175807
-0.137696687631
-0.138243392683
-0.13875483693
-0.139121410597
-0.13935953528
-0.139611734495
-0.139946259593
-0.140168358593
-0.140437407885
-0.140774137521
-0.140540550531
-0.140360510723
-0.140245033832
-0.140100187036
-0.139932093835
-0.13978225968
-0.139697290639
-0.139564040263
-0.139166433898
-0.138695753972
-0.13898619761
-0.140019248183
-0.139831342436
-0.139275947639
-0.138062923804
-0.137510035894
-0.136425770626
-0.135677825772
-0.126888613391
-0.126893128082
-0.126902969207
-0.12690948687
-0.126921972145
-0.12694255643
-0.126965392114
-0.126992276583
-0.127033496282
-0.127068298716
-0.127113797695
-0.127163485361
-0.127214719344
-0.127264921259
-0.12731970406
-0.12738518243
-0.127450249735
-0.127514896173
-0.127582302424
-0.127655459563
-0.127736441555
-0.127826590768
-0.127932726967
-0.12807763613
-0.128258150268
-0.128432966216
-0.128607197321
-0.128810688169
-0.129026665007
-0.129234044003
-0.129443791071
-0.129665576346
-0.129901759299
-0.130150339605
-0.130409897399
-0.130680586653
-0.130963881527
-0.131260656911
-0.131572156057
-0.131899481152
-0.132244701124
-0.132609163571
-0.132992493638
-0.133392734197
-0.133808500221
-0.134240811018
-0.134690931252
-0.135158257859
-0.135641329089
-0.136142790743
-0.136670045076
-0.13723233974
-0.137834550915
-0.138469098402
-0.139030911526
-0.139374220686
-0.139631788691
-0.140008291144
-0.139989131615
-0.139716165731
-0.139441051818
-0.139334828834
-0.139207049561
-0.138695255508
-0.137987199277
-0.137170001537
-0.136340579847
-0.135622294202
-0.135140186618
-0.134882534997
-0.134681053379
-0.134527315868
-0.134611910242
-0.135240422179
-0.135688679924
-0.135885442721
-0.137002023858
-0.137954860293
-0.135277651068
-0.13321028202
-0.126788932216
-0.126792765635
-0.12680230594
-0.126808234434
-0.126820201483
-0.126840205951
-0.12686259761
-0.12688637654
-0.126926450473
-0.126967625725
-0.127014422373
-0.127064271064
-0.127115831252
-0.127168622387
-0.127222257564
-0.127285416694
-0.127348709955
-0.127412506024
-0.127478249272
-0.127548920285
-0.127626500851
-0.127712810221
-0.12781337447
-0.127947842805
-0.128122623676
-0.128311097226
-0.128484306501
-0.128672928069
-0.128878545956
-0.129083370731
-0.129290219473
-0.129512471392
-0.129749285012
-0.129999308474
-0.130261374416
-0.130534917732
-0.130820730228
-0.13112064591
-0.131435786211
-0.13176752793
-0.132117725676
-0.13248800689
-0.132878605452
-0.133287033274
-0.133711125979
-0.13415411795
-0.134619263951
-0.135103359063
-0.135600898089
-0.13611777974
-0.136670276028
-0.137281691131
-0.137959780618
-0.138686258975
-0.139314140919
-0.139658522182
-0.139506212671
-0.139277231979
-0.139033909794
-0.138464885697
-0.137672186876
-0.136794677396
-0.135867310003
-0.134665965967
-0.133234617592
-0.131672347853
-0.130115996012
-0.128709977922
-0.127592816048
-0.126810359556
-0.12622930053
-0.125791678372
-0.12580537654
-0.126720813209
-0.128278020265
-0.13007475959
-0.131619114018
-0.132413205872
-0.133286120958
-0.133117873879
-0.126682227008
-0.126685055406
-0.126691630099
-0.126698191728
-0.126712164429
-0.126731372576
-0.126753967525
-0.126775832386
-0.126813499668
-0.126857317858
-0.12690480952
-0.126954356265
-0.127005260568
-0.127061692568
-0.127115821298
-0.127176658131
-0.127238307532
-0.127301930987
-0.127366180874
-0.127434439163
-0.127508575808
-0.127590469325
-0.127685409453
-0.127810181863
-0.127975904264
-0.128169004036
-0.128352042694
-0.128531860174
-0.128723337821
-0.128918963015
-0.129122454915
-0.129343893948
-0.129580575636
-0.129831701339
-0.130096464252
-0.130373458123
-0.130663009225
-0.130966327311
-0.131285713823
-0.131622090746
-0.131977449766
-0.132354288683
-0.132752773509
-0.133169816661
-0.133599603131
-0.134047463382
-0.134526172383
-0.135030951338
-0.135538646734
-0.136056207902
-0.136616153658
-0.13727036034
-0.13802555637
-0.138781150535
-0.139477665996
-0.13916866184
-0.138653768418
-0.138057736431
-0.137274116805
-0.136207555687
-0.134814297668
-0.133166630007
-0.131357241224
-0.129394752754
-0.127321844198
-0.125196399305
-0.123111970879
-0.121164030033
-0.119434291867
-0.117964526875
-0.116732754015
-0.115657221117
-0.114949512106
-0.115064275056
-0.116292651625
-0.118647073341
-0.12174429204
-0.124716418797
-0.1274125
-0.132913000057
-0.126570167608
-0.126572132315
-0.12657530788
-0.126582909235
-0.126598429047
-0.126616496414
-0.126638754107
-0.12666117372
-0.126694919738
-0.126738782554
-0.126785700528
-0.126834072806
-0.126882749948
-0.126938911762
-0.126996866455
-0.127056781311
-0.127116924433
-0.127180361781
-0.127244397326
-0.127310916147
-0.127382016372
-0.127458906159
-0.127548071416
-0.127663404924
-0.127816549608
-0.128001483918
-0.128193529404
-0.128373623166
-0.128556219371
-0.128744476157
-0.128941096664
-0.129159289532
-0.129395882369
-0.129645875189
-0.12991335333
-0.130194298212
-0.130487351983
-0.130795198492
-0.131119887284
-0.131462606943
-0.131824114902
-0.132207093122
-0.132612815588
-0.13303966915
-0.1334829176
-0.13394393421
-0.13443021152
-0.134929963071
-0.135428393138
-0.135928559301
-0.136449527546
-0.137132839678
-0.138026194839
-0.138878871349
-0.138287772685
-0.137651886917
-0.136997123336
-0.135932332769
-0.134514694228
-0.132744327001
-0.130639534735
-0.128275765497
-0.125750611992
-0.12314655511
-0.120526551348
-0.11793435126
-0.115421807603
-0.113031975496
-0.110786415716
-0.108696325081
-0.106789070255
-0.105018472697
-0.10349484677
-0.102546429268
-0.102592356242
-0.104051654857
-0.106870594686
-0.109958609439
-0.113279887087
-0.119236672484
-0.126453361564
-0.126454928446
-0.126456765872
-0.12646588446
-0.126480514459
-0.126496289226
-0.126515766164
-0.126539725365
-0.126569318795
-0.126611767503
-0.126657488045
-0.126704407055
-0.126751188253
-0.12680415352
-0.12686475199
-0.126925224611
-0.126984480238
-0.12704667054
-0.127110569788
-0.127176436674
-0.12724568944
-0.127317582076
-0.127400545293
-0.127506919897
-0.1276471378
-0.127819639294
-0.128008447682
-0.128191045912
-0.128365573684
-0.128546851512
-0.128741824953
-0.128953302148
-0.129187165412
-0.129438154952
-0.129709111149
-0.129994471166
-0.130291712803
-0.130604703385
-0.130935517355
-0.131285636587
-0.1316555622
-0.132047048638
-0.132464575289
-0.132909910368
-0.133375923055
-0.133849296936
-0.134332460784
-0.134823219691
-0.13530832089
-0.135765472168
-0.136118594255
-0.136711863789
-0.138026970689
-0.136990371829
-0.136097563832
-0.135465648701
-0.134326133916
-0.132655220968
-0.130567265733
-0.128107883818
-0.125358279136
-0.122413237211
-0.119364963822
-0.116285211812
-0.113214520993
-0.110167205857
-0.107150849113
-0.104161248139
-0.101176166582
-0.0981742633062
-0.0951854323293
-0.0922801607989
-0.0894421839207
-0.0867907518477
-0.0846453291439
-0.0835419032936
-0.0834521577982
-0.0812835266346
-0.0707446711075
-0.0564301662266
-0.126330591239
-0.126331977047
-0.126333706408
-0.126344838796
-0.126358041159
-0.126371151289
-0.12638674871
-0.126411062046
-0.126435532511
-0.126475694743
-0.126520110533
-0.126565497939
-0.126610834133
-0.126661660873
-0.126721733461
-0.126782467402
-0.126841374818
-0.126902164563
-0.126964410903
-0.127029416883
-0.127097738465
-0.127165321863
-0.127241252514
-0.127338938319
-0.127466772527
-0.127625362189
-0.127806328206
-0.127987672513
-0.128164704945
-0.128336262298
-0.128525986205
-0.128733533636
-0.128960954447
-0.129204895302
-0.129475101733
-0.129768523274
-0.130072864146
-0.130393034008
-0.130730523026
-0.131088521565
-0.131469219575
-0.131874110579
-0.132311441272
-0.132784035515
-0.133270040805
-0.133753783494
-0.13424291851
-0.1347495702
-0.135257166747
-0.135657302371
-0.135467233208
-0.13640626713
-0.135324214434
-0.134147840667
-0.133542614125
-0.132437275237
-0.13064400563
-0.128321501588
-0.125590045482
-0.122531855785
-0.119242978077
-0.115810138925
-0.112300879637
-0.108752828718
-0.105173241003
-0.101550842392
-0.0978704600869
-0.094111355515
-0.0902390944908
-0.0862128666182
-0.0820257254248
-0.0777127933047
-0.0731494003255
-0.0681634655171
-0.0628523118629
-0.057605475853
-0.0517283187699
-0.03894783705
-0.00609995757222
0.0389510544122
-0.126198905258
-0.126200047436
-0.126202700515
-0.126216165926
-0.126228125083
-0.126238904497
-0.126252000342
-0.126274437418
-0.126293527584
-0.126330442447
-0.12637326497
-0.126416901807
-0.126460619407
-0.126509175499
-0.126567314688
-0.126627606059
-0.126687004648
-0.126746205442
-0.126805701062
-0.126868801774
-0.126936066071
-0.127000400688
-0.127068265485
-0.127157147305
-0.127273449567
-0.127417153115
-0.127585856279
-0.127757423778
-0.127936434228
-0.128109240064
-0.128290114216
-0.128487296179
-0.128711282946
-0.128956800815
-0.12921879276
-0.129511734788
-0.129824560916
-0.130153623827
-0.130501867744
-0.130869896051
-0.13126197778
-0.131687286217
-0.132156276707
-0.132658647988
-0.133161007942
-0.133660438602
-0.134182772266
-0.134771690074
-0.13544692647
-0.136405489459
-0.134928748718
-0.133443630997
-0.132290070388
-0.131446079481
-0.130435397183
-0.128615350906
-0.126148172454
-0.123188074137
-0.119870974207
-0.116294563901
-0.112546789597
-0.108692510875
-0.104772744897
-0.10080218143
-0.0967737089965
-0.0926679317034
-0.0884595130225
-0.0841124213202
-0.0795695233959
-0.0747472368751
-0.0695457489169
-0.0638603701982
-0.0575437936877
-0.0502355352111
-0.0417998632918
-0.0323611747389
-0.0200955216144
0.00380662638894
0.0535699936252
0.11393668186
-0.126054222358
-0.126055140103
-0.126058666478
-0.126074188021
-0.126084566864
-0.126094818684
-0.126106298972
-0.126125179918
-0.126140682802
-0.126175292955
-0.126216440524
-0.126258028438
-0.126299792993
-0.126345537668
-0.126400478224
-0.126458696662
-0.126519173579
-0.126576782133
-0.126633271981
-0.126693484267
-0.126758028914
-0.126820819062
-0.126880745251
-0.126959559971
-0.127065150047
-0.127194430164
-0.127348531655
-0.127506632055
-0.12767503336
-0.127852380343
-0.1280346407
-0.128223439267
-0.128430367257
-0.128670848562
-0.128937519065
-0.129228264087
-0.129545341443
-0.129882446796
-0.130241466223
-0.130623527958
-0.131034143554
-0.131488879807
-0.131995025045
-0.132523705394
-0.13305123564
-0.133591311768
-0.134163212676
-0.134808152024
-0.135743498695
-0.134643688061
-0.133143131986
-0.131380011425
-0.129975178436
-0.128650268701
-0.126808749077
-0.124217650232
-0.121073425716
-0.117515503902
-0.113684140807
-0.109672712716
-0.105553877589
-0.101371636797
-0.0971472057775
-0.0928804472588
-0.0885534153046
-0.0841333002801
-0.0795718926477
-0.0748006893039
-0.0697254444801
-0.0642191224073
-0.0581066277764
-0.0511509164614