/*--------------------------------*- C++ -*----------------------------------*\
| =========                 |                                                 |
| \\      /  F ield         | OpenFOAM: The Open Source CFD Toolbox           |
|  \\    /   O peration     | Version:  v1806                                 |
|   \\  /    A nd           | Web:      www.OpenFOAM.com                      |
|    \\/     M anipulation  |                                                 |
\*---------------------------------------------------------------------------*/
FoamFile
{
    version     2.0;
    format      ascii;
    class       surfaceScalarField;
    location    "553";
    object      phi;
}
// * * * * * * * * * * * * * * * * * * * * * * * * * * * * * * * * * * * * * //

dimensions      [0 3 -1 0 0 0 0];
oriented        oriented;


internalField   nonuniform List<scalar> 
12640
(
-2.20320864338e-07
2.21110137789e-07
-4.18190412695e-07
1.98458234696e-07
-5.88741057425e-07
1.70977800177e-07
-7.30280883005e-07
1.418620018e-07
-8.33109783913e-07
1.03125456934e-07
-8.96275026535e-07
6.34921476789e-08
-9.39799539023e-07
4.38326187374e-08
-1.00731582778e-06
6.77936611161e-08
-1.10022976819e-06
9.31584961325e-08
-1.18671901481e-06
8.66973194202e-08
-1.26548323002e-06
7.89267647011e-08
-1.34682199353e-06
8.14837892424e-08
-1.41866259664e-06
7.19695297072e-08
-1.47636031369e-06
5.78201836314e-08
-1.52790719092e-06
5.1663607602e-08
-1.58688191385e-06
5.91026794733e-08
-1.64748876008e-06
6.07277669556e-08
-1.69702620827e-06
4.96559170538e-08
-1.73384459946e-06
3.69092622353e-08
-1.76671777013e-06
3.29492061785e-08
-1.81278879542e-06
4.61341055826e-08
-1.87332471087e-06
6.05997946429e-08
-1.93625016456e-06
6.29821588812e-08
-1.99547553928e-06
5.92847457091e-08
-2.04881451467e-06
5.33916276828e-08
-2.09629505131e-06
4.75367792783e-08
-2.14034240776e-06
4.40975283217e-08
-2.17974497777e-06
3.94575128618e-08
-2.21326914784e-06
3.35716438853e-08
-2.24216492418e-06
2.89471663982e-08
-2.26965615478e-06
2.75334830271e-08
-2.29453556995e-06
2.49258093241e-08
-2.31458919973e-06
2.00959855843e-08
-2.33437716607e-06
1.98301464842e-08
-2.35405685612e-06
1.9707759832e-08
-2.37234892157e-06
1.83229183097e-08
-2.39139804681e-06
1.9066379355e-08
-2.40889383701e-06
1.75067939147e-08
-2.42199078532e-06
1.30947278639e-08
-2.43202829498e-06
1.00369866955e-08
-2.4445786864e-06
1.25403737476e-08
-2.45445433291e-06
9.86712017801e-09
-2.45158329367e-06
-2.89058585149e-09
-2.43952404747e-06
-1.20829457453e-08
-2.42248239266e-06
-1.70802085175e-08
-2.39959794422e-06
-2.29269311232e-08
-2.37020710752e-06
-2.94496113797e-08
-2.3327600098e-06
-3.75111690232e-08
-2.28719177402e-06
-4.56493176278e-08
-2.23839869851e-06
-4.88781045037e-08
-2.19188712878e-06
-4.66185614096e-08
-2.13927637343e-06
-5.27193308697e-08
-2.06219124423e-06
-7.72060696988e-08
-1.96565245431e-06
-9.66645657477e-08
-1.85214501992e-06
-1.13642251348e-07
-1.71524960707e-06
-1.370287652e-07
-1.5736441735e-06
-1.41764000316e-07
-1.43314823822e-06
-1.40677668581e-07
-1.27255602999e-06
-1.6080058415e-07
-1.09150572529e-06
-1.81301370397e-07
-9.0254542422e-07
-1.89279222443e-07
-6.84664120589e-07
-2.18270054852e-07
-3.67508746198e-07
-3.17624902575e-07
-9.21066141481e-08
-2.75769200617e-07
7.42261899238e-08
-1.66558498976e-07
1.77998609583e-07
-1.03919982573e-07
2.52089387356e-07
-7.42260162071e-08
3.10684940981e-07
-5.87233444127e-08
3.54217914064e-07
-4.36619130303e-08
3.79353787032e-07
-2.5271922989e-08
3.8394556226e-07
-4.73710194434e-09
3.69027873374e-07
1.47657506156e-08
3.37807269974e-07
3.10586587212e-08
2.89181709199e-07
4.84440810738e-08
2.38682963743e-07
5.03105700806e-08
1.89210241351e-07
4.92713055091e-08
1.51601376706e-07
3.74247887943e-08
1.06863705679e-07
4.4500807139e-08
6.49931958464e-08
4.14485419419e-08
6.47685038696e-08
-1.14568036375e-07
3.35977285567e-07
-2.65608582735e-07
3.49886341546e-07
-4.10442967605e-07
3.1610502119e-07
-5.59361917201e-07
2.91024635778e-07
-7.44280865122e-07
2.88335151322e-07
-8.83928916441e-07
2.03428902188e-07
-9.63218487523e-07
1.23431869476e-07
-1.03696184358e-06
1.41808476546e-07
-1.11755702413e-06
1.73998646594e-07
-1.20485880666e-06
1.74188481562e-07
-1.28760320833e-06
1.61844210724e-07
-1.35590216602e-06
1.49916940425e-07
-1.41676747462e-06
1.32976446444e-07
-1.47411518776e-06
1.15300414376e-07
-1.52895615841e-06
1.06658907858e-07
-1.5900608513e-06
1.20339292473e-07
-1.64557013818e-06
1.1637170402e-07
-1.67361725791e-06
7.7792373079e-08
-1.69675487351e-06
6.0131586252e-08
-1.73713387355e-06
7.33853792336e-08
-1.7959163711e-06
1.04984206342e-07
-1.86994515266e-06
1.34678755063e-07
-1.94064422431e-06
1.33750182018e-07
-1.99590437496e-06
1.14593652378e-07
-2.04595819246e-06
1.03510539618e-07
-2.09728794496e-06
9.89121218343e-08
-2.14210736157e-06
8.89804994037e-08
-2.17967742717e-06
7.70709066004e-08
-2.21287094821e-06
6.68258964125e-08
-2.24241242354e-06
5.85285148599e-08
-2.26768643563e-06
5.28650859349e-08
-2.28945107142e-06
4.67307696851e-08
-2.30654231562e-06
3.72397433055e-08
-2.324349422e-06
3.76681643125e-08
-2.34766729795e-06
4.30717334509e-08
-2.36695940539e-06
3.76296296045e-08
-2.38437702403e-06
3.65088679313e-08
-2.40645432743e-06
3.95836965342e-08
-2.42939066072e-06
3.60434221795e-08
-2.44318646267e-06
2.38210306433e-08
-2.42888057223e-06
-1.75960256677e-09
-2.39881547365e-06
-2.02157140534e-08
-2.38174543221e-06
-1.99672812532e-08
-2.37402143987e-06
-1.98421435452e-08
-2.3655416778e-06
-2.5586610968e-08
-2.35421675106e-06
-3.43068021115e-08
-2.33678227862e-06
-4.69310340657e-08
-2.31287899425e-06
-6.14897978375e-08
-2.28065288051e-06
-7.79451633287e-08
-2.23154327098e-06
-9.80852651666e-08
-2.15907667109e-06
-1.19176568501e-07
-2.07986517707e-06
-1.32046398409e-07
-2.02342524561e-06
-1.33761336307e-07
-1.9563907233e-06
-1.63837315736e-07
-1.85666055557e-06
-2.13509191422e-07
-1.75126707711e-06
-2.42580413336e-07
-1.63304504885e-06
-2.60155632538e-07
-1.48972585901e-06
-2.84192769646e-07
-1.33188022501e-06
-3.18872746507e-07
-1.15005460185e-06
-3.63391803068e-07
-9.11724236095e-07
-4.27904965915e-07
-6.49715137875e-07
-4.80647957435e-07
-3.55936912448e-07
-6.11842916466e-07
-9.96048450474e-08
-5.32424995552e-07
6.8713865881e-08
-3.35064677154e-07
1.73905997564e-07
-2.09257507811e-07
2.53562397879e-07
-1.53999382622e-07
3.19894598276e-07
-1.25182412008e-07
3.67183795556e-07
-9.10789150299e-08
3.90991088314e-07
-4.92068655074e-08
3.88351328061e-07
-2.23265569884e-09
3.63969841225e-07
3.90038446638e-08
3.3232256787e-07
6.2544139526e-08
3.01290609171e-07
7.92888365748e-08
2.62142849054e-07
8.92539481002e-08
2.20580705052e-07
9.06252159525e-08
1.73110631752e-07
8.46155873467e-08
1.28270917698e-07
8.90718988184e-08
6.76213532186e-08
1.01793455e-07
1.32034786663e-07
-1.49043302835e-07
4.85455761703e-07
-2.23994499079e-07
4.25149123684e-07
-4.00493253803e-07
4.92899754334e-07
-6.03246130533e-07
4.94084069878e-07
-7.86429387348e-07
4.71811142517e-07
-8.79950952226e-07
2.97184044467e-07
-9.2580914989e-07
1.69505950447e-07
-1.0074481009e-06
2.23674633052e-07
-1.10283604136e-06
2.69588955718e-07
-1.19589895454e-06
2.67427804492e-07
-1.28171337861e-06
2.47807330088e-07
-1.35373268713e-06
2.22090789695e-07
-1.41511704942e-06
1.94523838704e-07
-1.4738462288e-06
1.74198232047e-07
-1.51789623777e-06
1.50866510914e-07
-1.50263242262e-06
1.05211593389e-07
-1.45491102119e-06
6.87401857434e-08
-1.45840552262e-06
8.13590685788e-08
-1.53010000031e-06
1.31882524523e-07
-1.66169667524e-06
2.05041437276e-07
-1.79480108645e-06
2.38149539589e-07
-1.87581393836e-06
2.15759689192e-07
-1.93295922831e-06
1.90953896576e-07
-1.99426219958e-06
1.75959396512e-07
-2.05135994119e-06
1.60662754039e-07
-2.09791572087e-06
1.45527064134e-07
-2.13888360931e-06
1.29999190008e-07
-2.1763559168e-06
1.14599794873e-07
-2.20932380179e-06
9.98425681572e-08
-2.23888220195e-06
8.81424292831e-08
-2.26215071049e-06
7.61827691629e-08
-2.28209140471e-06
6.67210509032e-08
-2.3026024774e-06
5.77975528001e-08
-2.31163851309e-06
4.67496250064e-08
-2.32606164549e-06
5.75203966097e-08
-2.35781048124e-06
6.94048273769e-08
-2.37896676658e-06
5.76786747928e-08
-2.39554039543e-06
5.61688266446e-08
-2.42251083401e-06
6.30146388706e-08
-2.44503779393e-06
4.63544347659e-08
-2.45819788664e-06
1.13968778482e-08
-2.46269904668e-06
-1.57184185944e-08
-2.456730833e-06
-2.59544166021e-08
-2.44429315424e-06
-3.23003649505e-08
-2.42732455579e-06
-4.2590849874e-08
-2.40480813401e-06
-5.68617324804e-08
-2.37697496414e-06
-7.48189585086e-08
-2.3430320848e-06
-9.54920835832e-08
-2.30216356935e-06
-1.18889727913e-07
-2.25509889487e-06
-1.45230808603e-07
-2.20243423747e-06
-1.71939307592e-07
-2.13884638931e-06
-1.95740785379e-07
-2.05046462364e-06
-2.22265611619e-07
-1.94977976704e-06
-2.64651497078e-07
-1.85458908389e-06
-3.08846749208e-07
-1.75010394605e-06
-3.47225810483e-07
-1.62140604216e-06
-3.89033181777e-07
-1.46897520665e-06
-4.36821023221e-07
-1.29489606492e-06
-4.93165483352e-07
-1.09572702344e-06
-5.62799496068e-07
-8.77077045427e-07
-6.46831251648e-07
-6.06047276973e-07
-7.52010975793e-07
-3.45057099555e-07
-8.73149966929e-07
-1.10606369562e-07
-7.67124832204e-07
6.9385182107e-08
-5.15246543732e-07
1.92807922358e-07
-3.32801985061e-07
2.82211299825e-07
-2.43538670524e-07
3.41613646729e-07
-1.84695478536e-07
3.77751953538e-07
-1.27323264717e-07
3.91709717609e-07
-6.32760948122e-08
3.89284900978e-07
6.50791020612e-11
3.80162550977e-07
4.79791557847e-08
3.59684703842e-07
8.28512688354e-08
3.22080899362e-07
1.16706318806e-07
2.69106115172e-07
1.42026032878e-07
2.12417689341e-07
1.47074059724e-07
1.62348854387e-07
1.3451164459e-07
1.22689031486e-07
1.28486863079e-07
5.3022311568e-08
1.71000174686e-07
1.85020393779e-07
-1.06715766128e-07
5.92359497952e-07
-1.41806026049e-07
4.60445769232e-07
-3.44437730664e-07
6.95822876543e-07
-5.08218516057e-07
6.58171507938e-07
-5.17032185836e-07
4.80841608258e-07
-4.5480134369e-07
2.35051896933e-07
-6.2530113805e-07
3.40119837051e-07
-8.89240974119e-07
4.87776309003e-07
-1.05920465743e-06
4.39725482397e-07
-1.17347094401e-06
3.81851633131e-07
-1.27108388182e-06
3.4558528049e-07
-1.35261738588e-06
3.03801838346e-07
-1.40770733458e-06
2.49793839186e-07
-1.40236755862e-06
1.69028312471e-07
-1.35023610447e-06
9.8870278376e-08
-1.32977294745e-06
8.48387762756e-08
-1.38287682274e-06
1.21912512001e-07
-1.50407795396e-06
2.02618285953e-07
-1.65277311908e-06
2.80642004687e-07
-1.75547755812e-06
3.07815387582e-07
-1.81427597804e-06
2.97019385882e-07
-1.87662822677e-06
2.78176648174e-07
-1.94084898896e-06
2.55239880469e-07
-1.99682583595e-06
2.31995615426e-07
-2.04666698363e-06
2.10565084825e-07
-2.09147945722e-06
1.90394522216e-07
-2.13346029517e-06
1.72038129453e-07
-2.17111156423e-06
1.52302238517e-07
-2.20492120015e-06
1.33707789541e-07
-2.23198925969e-06
1.15263727009e-07
-2.25735793171e-06
1.01606186068e-07
-2.27368672453e-06
8.31030212783e-08
-2.2821130723e-06
6.62687895036e-08
-2.3098701477e-06
7.45410810719e-08
-2.33389480013e-06
8.1576893246e-08
-2.354953901e-06
9.04833520903e-08
-2.39689501363e-06
9.96362034367e-08
-2.43220290986e-06
9.14876110323e-08
-2.44583865291e-06
7.6663235533e-08
-2.45196399787e-06
5.2484239182e-08
-2.45947659242e-06
1.89108933934e-08
-2.46448651629e-06
-1.07168487342e-08
-2.46113396819e-06
-2.93173749185e-08
-2.4500524576e-06
-4.34019779351e-08
-2.43314494886e-06
-5.95223726349e-08
-2.41069173332e-06
-7.93506525691e-08
-2.38269780409e-06
-1.02855012463e-07
-2.34864426195e-06
-1.29601405091e-07
-2.30801036018e-06
-1.59587550497e-07
-2.26060637815e-06
-1.92712994679e-07
-2.20488312505e-06
-2.27749481975e-07
-2.13639558957e-06
-2.64328430754e-07
-2.05232520928e-06
-3.06446482209e-07
-1.95955230385e-06
-3.57552539958e-07
-1.85728488333e-06
-4.11256197827e-07
-1.73785900644e-06
-4.66811627556e-07
-1.59688545958e-06
-5.30181114526e-07
-1.43080106432e-06
-6.03091348849e-07
-1.23666680458e-06
-6.8749810056e-07
-1.01364035193e-06
-7.86025764193e-07
-7.65049599005e-07
-8.9565209297e-07
-5.13150985796e-07
-1.00414723742e-06
-3.3187282987e-07
-1.05469751397e-06
-1.20632728424e-07
-9.78593416889e-07
9.14720637007e-08
-7.27482486697e-07
2.22561305621e-07
-4.64037666398e-07
3.11822847046e-07
-3.3287596196e-07
3.77307548412e-07
-2.50279027546e-07
4.20272025786e-07
-1.70380873285e-07
4.42652222716e-07
-8.57568183877e-08
4.44137360064e-07
-1.54336423131e-09
4.19266900156e-07
7.27017060593e-08
3.65351557668e-07
1.36614347149e-07
2.99750611347e-07
1.82149603092e-07
2.3647760154e-07
2.05132981576e-07
1.71205620944e-07
2.12194218654e-07
1.13089171587e-07
1.92411415151e-07
7.48934909271e-08
1.66535884498e-07
3.80126804203e-08
2.07848609494e-07
2.22854258337e-07
-2.09112004133e-08
6.13497491869e-07
-1.2660333025e-07
5.66304850648e-07
-2.91283423702e-07
8.60769654589e-07
-4.08744910705e-07
7.75900129228e-07
-3.85091874875e-07
4.57330998168e-07
-4.7785240244e-07
3.27886841148e-07
-6.96406051237e-07
5.58779990942e-07
-8.64766690146e-07
6.56289905628e-07
-1.00371620854e-06
5.78824569938e-07
-1.12943420285e-06
5.07735744318e-07
-1.24320589822e-06
4.59546982674e-07
-1.30168421929e-06
3.62457564369e-07
-1.27655448722e-06
2.24825101843e-07
-1.24714929336e-06
1.39742948886e-07
-1.28577709918e-06
1.37582215168e-07
-1.38416348408e-06
1.83295451809e-07
-1.51936431643e-06
2.57179365087e-07
-1.63891220915e-06
3.22235533029e-07
-1.70517731712e-06
3.46981113934e-07
-1.75060277906e-06
3.53316219033e-07
-1.81130737121e-06
3.57796588451e-07
-1.87691844389e-06
3.43857892452e-07
-1.93761115547e-06
3.15998015766e-07
-1.99152030662e-06
2.85969652862e-07
-2.03991147887e-06
2.59016570807e-07
-2.08573035271e-06
2.3627497673e-07
-2.12556963862e-06
2.11930378649e-07
-2.16388096191e-06
1.90670391173e-07
-2.19482848324e-06
1.64713439839e-07
-2.22193243287e-06
1.42427312461e-07
-2.23731687747e-06
1.17046264777e-07
-2.25918225118e-06
1.050159051e-07
-2.29641888278e-06
1.03545596389e-07
-2.31651826927e-06
9.46726342302e-08
-2.34659318069e-06
1.11675428147e-07
-2.38853866356e-06
1.32451127558e-07
-2.41828387235e-06
1.29401188029e-07
-2.43878005721e-06
1.12003378752e-07
-2.45085679774e-06
8.87538116956e-08
-2.45827754319e-06
5.99150777607e-08
-2.46532505911e-06
2.59610839507e-08
-2.46986030392e-06
-6.18282029744e-09
-2.46754151649e-06
-3.16441482167e-08
-2.45763319248e-06
-5.33217852361e-08
-2.44128427948e-06
-7.58901384473e-08
-2.41910689333e-06
-1.01552664193e-07
-2.39115210869e-06
-1.30844497535e-07
-2.35701238904e-06
-1.63784668493e-07
-2.31610193736e-06
-2.00553598863e-07
-2.26758483642e-06
-2.41295508282e-07
-2.20952549709e-06
-2.85886108782e-07
-2.13896801125e-06
-3.3497430883e-07
-2.05486660181e-06
-3.90651600444e-07
-1.95900471885e-06
-4.53533201019e-07
-1.84865060631e-06
-5.21748262163e-07
-1.71772547525e-06
-5.97889397083e-07
-1.5611974532e-06
-6.86874011591e-07
-1.37442094129e-06
-7.90034211524e-07
-1.15571970118e-06
-9.06351858654e-07
-9.11666420608e-07
-1.03024687001e-06
-6.61804475242e-07
-1.14566645589e-06
-4.44879473781e-07
-1.22126434505e-06
-2.91764986726e-07
-1.20795994077e-06
-7.55849660702e-08
-1.19488070264e-06
1.26152270741e-07
-9.29388982275e-07
2.69791973678e-07
-6.07693904366e-07
3.69229342925e-07
-4.32417350073e-07
4.37554088814e-07
-3.18657493733e-07
4.81283604024e-07
-2.14172780605e-07
5.04067272843e-07
-1.08622120564e-07
4.91982783345e-07
1.04307148021e-08
4.34486372817e-07
1.30081601816e-07
3.58034130723e-07
2.12955686306e-07
2.81104490087e-07
2.58975535731e-07
2.04772874331e-07
2.81346988398e-07
1.35387702822e-07
2.81429449428e-07
9.2792106267e-08
2.34985630794e-07
5.64206693701e-08
2.02847427048e-07
2.223659067e-08
2.4178282376e-07
2.4514377577e-07
-1.02257290429e-08
6.23764230283e-07
-1.56031218252e-07
7.12257101233e-07
-2.47393449697e-07
9.52359572108e-07
-3.03711802453e-07
8.32392089864e-07
-2.9777712949e-07
4.51481811625e-07
-5.23227862308e-07
5.53424725967e-07
-7.40289885246e-07
7.75971297931e-07
-8.43704846459e-07
7.59833896884e-07
-9.59291262964e-07
6.94571971939e-07
-1.06686916538e-06
6.1549791341e-07
-1.12008185621e-06
5.12937993121e-07
-1.07500680012e-06
3.17530504264e-07
-1.0675732942e-06
2.17492250808e-07
-1.14147479856e-06
2.13717173633e-07
-1.26537935797e-06
2.61547875457e-07
-1.4274846962e-06
3.45462324192e-07
-1.56657353824e-06
3.96340009395e-07
-1.63565706918e-06
3.91400130138e-07
-1.67926467221e-06
3.90669360302e-07
-1.74536311903e-06
4.19493820534e-07
-1.81326082804e-06
4.25770986123e-07
-1.87282695452e-06
4.03496413155e-07
-1.92965431405e-06
3.72894657195e-07
-1.98518737309e-06
3.41566654843e-07
-2.03497548523e-06
3.08868839912e-07
-2.07104543518e-06
2.72403594717e-07
-2.11217552641e-06
2.53121156316e-07
-2.14736037144e-06
2.25914889569e-07
-2.1792007549e-06
1.9661212677e-07
-2.19290366183e-06
1.56187693486e-07
-2.21038209377e-06
1.34578188155e-07
-2.23670841584e-06
1.31386345358e-07
-2.26255157374e-06
1.29422255814e-07
-2.32045044058e-06
1.52598855046e-07
-2.37375330241e-06
1.65003684999e-07
-2.40685766719e-06
1.65581592864e-07
-2.42881127217e-06
1.51381145475e-07
-2.44517272684e-06
1.28388482569e-07
-2.45706287089e-06
1.00664157722e-07
-2.46586024048e-06
6.87262107213e-08
-2.47309454657e-06
3.32034620259e-08
-2.47733716932e-06
-1.93782163643e-09
-2.47560552087e-06
-3.33766057607e-08
-2.46674948143e-06
-6.21828206184e-08
-2.4512279324e-06
-9.14208333513e-08
-2.42955607103e-06
-1.23240156027e-07
-2.40180102156e-06
-1.58622353531e-07
-2.36755058781e-06
-1.98067039656e-07
-2.32606385242e-06
-2.42082185161e-07
-2.27620464499e-06
-2.91207217204e-07
-2.21613766472e-06
-3.46016391109e-07
-2.14371349025e-06
-4.07474257276e-07
-2.057630401e-06
-4.76825022166e-07
-1.95656846894e-06
-5.5470270014e-07
-1.83611275831e-06
-6.42325828597e-07
-1.69014534513e-06
-7.4399441626e-07
-1.51366608607e-06
-8.63491050038e-07
-1.30441356346e-06
-9.99417732451e-07
-1.06693826326e-06
-1.14396685262e-06
-8.17118195172e-07
-1.28016468311e-06
-5.81967446535e-07
-1.38096326414e-06
-3.86616952256e-07
-1.41672108244e-06
-2.1654433727e-07
-1.37814595019e-06
-2.59771582269e-08
-1.38563279099e-06
1.65704162473e-07
-1.12103720983e-06
3.10075711806e-07
-7.52233654375e-07
4.31189851377e-07
-5.53518286886e-07
5.20350805339e-07
-4.07880112633e-07
5.77377486739e-07
-2.71253075232e-07
5.92836671849e-07
-1.24148660078e-07
5.4137388045e-07
6.18137957996e-08
4.52719522519e-07
2.18657346306e-07
3.57430310851e-07
3.08176066363e-07
2.61667432999e-07
3.54658429797e-07
1.73621829555e-07
3.69317885913e-07
1.12754844756e-07
3.42268883406e-07
6.99114979623e-08
2.77725451309e-07
3.66846238235e-08
2.36011828031e-07
1.54721583136e-08
2.63100890343e-07
2.6045846779e-07
-5.97586661491e-08
6.83668014088e-07
-2.29063083067e-07
8.81713653059e-07
-3.0886799064e-07
1.03237926027e-06
-2.71459127599e-07
7.95134540375e-07
-3.59691154792e-07
5.39787190456e-07
-6.06556513016e-07
8.00392717807e-07
-7.28085112473e-07
8.97617288076e-07
-8.1729280716e-07
8.49191826657e-07
-8.98539976551e-07
7.75973068635e-07
-1.00736064502e-06
7.24500699605e-07
-9.97147604034e-07
5.02882526278e-07
-9.74720796544e-07
2.95202722227e-07
-1.04756287251e-06
2.90404295976e-07
-1.15249255635e-06
3.18694935038e-07
-1.31059670528e-06
4.19706113868e-07
-1.46367997993e-06
4.98621681668e-07
-1.53951984124e-06
4.72263965912e-07
-1.58571903545e-06
4.37680061398e-07
-1.66454706296e-06
4.69577919126e-07
-1.74272184637e-06
4.97750442717e-07
-1.8064160663e-06
4.89544350237e-07
-1.86626136075e-06
4.63417815563e-07
-1.9243198232e-06
4.31020942272e-07
-1.97359113296e-06
3.90905918687e-07
-2.01362169471e-06
3.48965734059e-07
-2.05327071493e-06
3.12113863628e-07
-2.08343034261e-06
2.83340963151e-07
-2.11989632018e-06
2.62438497232e-07
-2.1434647872e-06
2.20239580619e-07
-2.1593076261e-06
1.72085709433e-07
-2.19085637012e-06
1.66174061251e-07
-2.22932577336e-06
1.69896089366e-07
-2.28300708695e-06
1.83134965396e-07
-2.33603466385e-06
2.05655152397e-07
-2.38691611382e-06
2.15916383811e-07
-2.41727047891e-06
1.95968438035e-07
-2.43672553083e-06
1.7086716647e-07
-2.45224072636e-06
1.43932121508e-07
-2.46497879653e-06
1.13425961539e-07
-2.47501862876e-06
7.87849496155e-08
-2.48268933369e-06
4.08878196451e-08
-2.48694378499e-06
2.32680925945e-09
-2.48569609589e-06
-3.46174472564e-08
-2.4777674441e-06
-7.01071105284e-08
-2.46315816992e-06
-1.06029498837e-07
-2.4421368762e-06
-1.44265191892e-07
-2.41466064755e-06
-1.86108333408e-07
-2.38025064144e-06
-2.32494285998e-07
-2.33807639896e-06
-2.84282255259e-07
-2.28693129894e-06
-3.4238846898e-07
-2.22511472191e-06
-4.07879912021e-07
-2.15057960803e-06
-4.82069864104e-07
-2.06102305509e-06
-5.6645757863e-07
-1.95288926654e-06
-6.62928163953e-07
-1.82043311588e-06
-7.74895110895e-07
-1.65757840706e-06
-9.06968672939e-07
-1.46104131147e-06
-1.06015498573e-06
-1.23323924368e-06
-1.22735417876e-06
-9.85835735291e-07
-1.3914525814e-06
-7.38890619157e-07
-1.52725232534e-06
-5.18975883675e-07
-1.60096613419e-06
-3.37795609659e-07
-1.59804315438e-06
-1.54630962359e-07
-1.56147828083e-06
-2.51884360282e-08
-1.51504858697e-06
1.99393034137e-07
-1.34594075442e-06
3.78665305726e-07
-9.31399046822e-07
5.36970675647e-07
-7.11938637706e-07
6.60821031945e-07
-5.31728567709e-07
7.21673379094e-07
-3.32130617574e-07
6.96586223365e-07
-9.90929763558e-08
6.0198592723e-07
1.56374748279e-07
4.86231798345e-07
3.34372991065e-07
3.59895319877e-07
4.34460588767e-07
2.38195887525e-07
4.76325411209e-07
1.40489251499e-07
4.66975411355e-07
8.55567621172e-08
3.97133408182e-07
4.03095448634e-08
3.23020915736e-07
1.07418600391e-08
2.65598664936e-07
4.9099832724e-09
2.68661134202e-07
2.65420416756e-07
-1.07479955927e-07
7.91179372609e-07
-2.53745321119e-07
1.02812707195e-06
-2.91827962905e-07
1.0705815454e-06
-2.11440944682e-07
7.14827137094e-07
-4.01872006406e-07
7.30298892233e-07
-6.03733428496e-07
1.00236258651e-06
-6.96736667618e-07
9.90756129799e-07
-7.92916382556e-07
9.45513055004e-07
-8.21579569319e-07
8.04811218089e-07
-8.60393464066e-07
7.63459040737e-07
-8.39670402882e-07
4.82259161855e-07
-9.41320832009e-07
3.96919759942e-07
-1.03761349354e-06
3.86743290306e-07
-1.1816988963e-06
4.62830476242e-07
-1.34344967375e-06
5.81524070585e-07
-1.4307760768e-06
5.8602867271e-07
-1.47811969594e-06
5.19690962438e-07
-1.5654306727e-06
5.25073038684e-07
-1.65954260808e-06
5.63773431975e-07
-1.73080437601e-06
5.69096433261e-07
-1.79122140838e-06
5.50042640595e-07
-1.84962050139e-06
5.21888482341e-07
-1.91116927806e-06
4.92642801041e-07
-1.96935080748e-06
4.49160385053e-07
-2.00414535477e-06
3.83822500106e-07
-2.04696401318e-06
3.54997648382e-07
-2.07938440887e-06
3.1582238075e-07
-2.0899347253e-06
2.7304798018e-07
-2.11280441798e-06
2.43163183558e-07
-2.17574194747e-06
2.35072924292e-07
-2.21898891481e-06
2.09467401979e-07
-2.24087937208e-06
1.91821569883e-07
-2.29690794922e-06
2.39196921303e-07
-2.36039856961e-06
2.69180370644e-07
-2.39684445142e-06
2.52398780705e-07
-2.42316431515e-06
2.22325197089e-07
-2.44374260061e-06
1.91481040589e-07
-2.46048876224e-06
1.60711013843e-07
-2.47443570239e-06
1.27401987911e-07
-2.48568176436e-06
9.00555734755e-08
-2.49401958648e-06
4.92462841692e-08
-2.49858663155e-06
6.91130946052e-09
-2.49792212448e-06
-3.52662696092e-08
-2.49093049231e-06
-7.70848977506e-08
-2.47729234295e-06
-1.19655721425e-07
-2.4570010523e-06
-1.64547558826e-07
-2.42984956067e-06
-2.13255293964e-07
-2.39528178174e-06
-2.6706317052e-07
-2.35245279949e-06
-3.27120534989e-07
-2.30019169449e-06
-3.94668080108e-07
-2.23683289579e-06
-4.71270084779e-07
-2.1600128069e-06
-5.58934578697e-07
-2.06624940132e-06
-6.60283006401e-07
-1.95030160125e-06
-7.78954341924e-07
-1.8056227739e-06
-9.1966868311e-07
-1.62704964548e-06
-1.085637335e-06
-1.41416502694e-06
-1.27316129945e-06
-1.17209437689e-06
-1.46950897002e-06
-9.1370647141e-07
-1.65000076042e-06
-6.59495115969e-07
-1.78154324731e-06
-4.36611891284e-07
-1.82402255425e-06
-2.55380703795e-07
-1.77941255892e-06
-1.12802151223e-07
-1.70410457822e-06
-4.45444105424e-09
-1.62374261474e-06
1.94969202911e-07
-1.54516425926e-06
4.65985910632e-07
-1.20267839688e-06
6.6747466099e-07
-9.13352431565e-07
8.17346743694e-07
-6.81630019407e-07
8.70425094191e-07
-3.85225394121e-07
8.12320735141e-07
-4.10088409191e-08
6.88037672393e-07
2.80639713821e-07
5.29530190011e-07
4.92840922698e-07
3.57046979975e-07
6.06927471758e-07
2.02902250399e-07
6.30404508112e-07
9.66428793235e-08
5.73218973864e-07
3.35497259614e-08
4.60247444805e-07
-5.03148182555e-09
3.61549693711e-07
-2.5454465136e-08
2.859338086e-07
-1.58521486614e-08
2.59200267502e-07
2.49459599369e-07
-1.37960854833e-07
9.29304280747e-07
-2.47745587552e-07
1.13805637321e-06
-2.41011162873e-07
1.06399032089e-06
-2.62851981305e-07
7.36740152314e-07
-4.73364438168e-07
9.40902789286e-07
-5.6784596882e-07
1.09696728493e-06
-6.5511400282e-07
1.0781698859e-06
-7.47594011503e-07
1.03814067714e-06
-7.85036619593e-07
8.42379925873e-07
-8.24774793527e-07
8.03334684217e-07
-8.50302212677e-07
5.07851713889e-07
-9.40932059701e-07
4.87597652337e-07
-1.05421601629e-06
5.0006385287e-07
-1.21415047885e-06
6.2281345154e-07
-1.35045028455e-06
7.1790485481e-07
-1.40958643066e-06
6.45255449694e-07
-1.46671913543e-06
5.76905663108e-07
-1.55655637905e-06
6.14991661578e-07
-1.64302577902e-06
6.50327719711e-07
-1.7156223182e-06
6.41775199642e-07
-1.77823393457e-06
6.12727550334e-07
-1.83046792104e-06
5.7419936829e-07
-1.87690540676e-06
5.39161057744e-07
-1.9257868489e-06
4.98110659477e-07
-1.96893461012e-06
4.27040431697e-07
-2.00006379103e-06
3.8619134552e-07
-2.04562869312e-06
3.61444518339e-07
-2.09466638149e-06
3.22145182377e-07
-2.13673002151e-06
2.85282314187e-07
-2.17090358319e-06
2.69294218619e-07
-2.21465423789e-06
2.53254896894e-07
-2.29010835446e-06
2.67310560595e-07
-2.33837270037e-06
2.87496247615e-07
-2.37238075445e-06
3.03227106969e-07
-2.40292626875e-06
2.82986322525e-07
-2.42940763145e-06
2.48848622215e-07
-2.45163263737e-06
2.1374595624e-07
-2.46994877609e-06
1.79064253904e-07
-2.48516675677e-06
1.42653656141e-07
-2.49762398514e-06
1.02543409247e-07
-2.50694738292e-06
5.85975427016e-08
-2.51223364603e-06
1.22239721237e-08
-2.51236021001e-06
-3.51144588588e-08
-2.50640477785e-06
-8.30152485746e-08
-2.49383898887e-06
-1.32197080377e-07
-2.47435480405e-06
-1.84008346896e-07
-2.44758109175e-06
-2.40007970455e-07
-2.41293075785e-06
-3.01697117053e-07
-2.36960150155e-06
-3.70440052054e-07
-2.31651089105e-06
-4.47760567745e-07
-2.25199010527e-06
-5.35803050837e-07
-2.1732690887e-06
-6.37687763609e-07
-2.07582640022e-06
-7.57766837207e-07
-1.95326952887e-06
-9.01582403009e-07
-1.79879269703e-06
-1.07420620153e-06
-1.60837658522e-06
-1.27616906258e-06
-1.38269951469e-06
-1.49894504535e-06
-1.122451138e-06
-1.72994050719e-06
-8.40251801329e-07
-1.9323034956e-06
-5.64692220033e-07
-2.05730825018e-06
-3.35756653726e-07
-2.05308547631e-06
-1.70388510297e-07
-1.94492749745e-06
-5.02742833538e-08
-1.82446199461e-06
6.66612165816e-08
-1.74059147254e-06
2.02081106716e-07
-1.6810445715e-06
5.11523797441e-07
-1.51200293835e-06
8.4680811238e-07
-1.24879365175e-06
1.03353681403e-06
-8.68410130738e-07
1.08070898915e-06
-4.32440850112e-07
9.83535985499e-07
5.61258301752e-08
8.07514913765e-07
4.56612165556e-07
5.78537493953e-07
7.21796356081e-07
3.40277343979e-07
8.45094992366e-07
1.43312458748e-07
8.27377779946e-07
1.6378631287e-08
7.00103551873e-07
-5.62716488466e-08
5.32882815596e-07
-7.82447149079e-08
3.83562380209e-07
-7.13258628452e-08
2.79111719641e-07
-4.04410778405e-08
2.28110211118e-07
2.09068727661e-07
-1.57108491802e-07
1.08642840882e-06
-2.5936428141e-07
1.240409689e-06
-2.21740232272e-07
1.02645072973e-06
-3.13198080903e-07
8.2828781325e-07
-4.92433821067e-07
1.12025880405e-06
-5.32444315255e-07
1.13711902369e-06
-6.06795739834e-07
1.15264743713e-06
-6.50684358256e-07
1.08216727636e-06
-7.24449219621e-07
9.16250140023e-07
-7.32777793463e-07
8.11740351541e-07
-8.22002510041e-07
5.97128341184e-07
-9.33103844413e-07
5.9873037634e-07
-1.05820481791e-06
6.2520773159e-07
-1.2049336212e-06
7.69607835521e-07
-1.29306735049e-06
8.06117464981e-07
-1.33799258468e-06
6.90260913952e-07
-1.43255369533e-06
6.71546215561e-07
-1.53283871593e-06
7.15358817288e-07
-1.61604665699e-06
7.3361797422e-07
-1.69279544247e-06
7.18602255195e-07
-1.76487019706e-06
6.84885642459e-07
-1.82753255827e-06
6.36944207187e-07
-1.86605773142e-06
5.77758102732e-07
-1.89681898669e-06
5.28946268904e-07
-1.9569533392e-06
4.87241975087e-07
-1.99447765229e-06
4.23775247113e-07
-2.00661419336e-06
3.73647053446e-07
-2.03364939977e-06
3.49239541054e-07
-2.08816739272e-06
3.39850536208e-07
-2.15999021277e-06
3.41160938179e-07
-2.22740559269e-06
3.20705797914e-07
-2.2839450928e-06
3.23882252308e-07
-2.34556680711e-06
3.49155083393e-07
-2.38240099468e-06
3.40105810134e-07
-2.41067567892e-06
3.11307586532e-07
-2.43713861526e-06
2.75357049478e-07
-2.4608220295e-06
2.37473002102e-07
-2.48077420046e-06
1.99057882626e-07
-2.49728900131e-06
1.59207841808e-07
-2.51090425809e-06
1.16195980751e-07
-2.52138408592e-06
6.91133250952e-08
-2.52777680583e-06
1.86516400258e-08
-2.52901851756e-06
-3.38371634182e-08
-2.52428002508e-06
-8.77174004062e-08
-2.51294652853e-06
-1.43492811917e-07
-2.49445566122e-06
-2.02461113534e-07
-2.46821350186e-06
-2.66213068353e-07
-2.43361888606e-06
-3.36258231057e-07
-2.39003306611e-06
-4.14000618008e-07
-2.33657750282e-06
-5.01200819714e-07
-2.27170202214e-06
-6.00682150962e-07
-2.19242898234e-06
-7.1697711987e-07
-2.09361782975e-06
-8.56626353926e-07
-1.96811290487e-06
-1.02712780644e-06
-1.80891132551e-06
-1.23347580989e-06
-1.61154545985e-06
-1.47362188982e-06
-1.37408362066e-06
-1.73650807549e-06
-1.08157007933e-06
-2.02260041296e-06
-7.59547579879e-07
-2.2545488329e-06
-4.567130395e-07
-2.3603242978e-06
-2.27876964853e-07
-2.28214737588e-06
-8.02226960889e-08
-2.0927901844e-06
2.11965545521e-08
-1.9259301793e-06
1.42688359995e-07
-1.86248610625e-06
3.34358201393e-07
-1.87262627013e-06
6.76369136273e-07
-1.85440688558e-06
1.07325974661e-06
-1.64580754038e-06
1.30255763928e-06
-1.09782338054e-06
1.34722227193e-06
-4.77200374236e-07
1.21483397616e-06
1.88444765498e-07
9.581029828e-07
7.13294910429e-07
6.23341682537e-07