/*--------------------------------*- C++ -*----------------------------------*\
| =========                 |                                                 |
| \\      /  F ield         | OpenFOAM: The Open Source CFD Toolbox           |
|  \\    /   O peration     | Version:  v1806                                 |
|   \\  /    A nd           | Web:      www.OpenFOAM.com                      |
|    \\/     M anipulation  |                                                 |
\*---------------------------------------------------------------------------*/
FoamFile
{
    version     2.0;
    format      ascii;
    class       surfaceScalarField;
    location    "986";
    object      phia;
}
// * * * * * * * * * * * * * * * * * * * * * * * * * * * * * * * * * * * * * //

dimensions      [0 3 -1 0 0 0 0];
oriented        oriented;


internalField   nonuniform List<scalar> 
12640
(
5.19677530096e-08
-5.34033966494e-08
9.79837899826e-08
-4.72641880073e-08
1.37631428077e-07
-4.05914256465e-08
1.71424018449e-07
-3.45800963678e-08
1.98368955675e-07
-2.76210385454e-08
2.18455835034e-07
-2.07096725434e-08
2.36354751823e-07
-1.84713508269e-08
2.60855473374e-07
-2.50189697445e-08
2.92042259441e-07
-3.16691390096e-08
3.23492230704e-07
-3.18803220146e-08
3.54447170979e-07
-3.13316324533e-08
3.87138521444e-07
-3.30326554714e-08
4.19852537442e-07
-3.30290489508e-08
4.51939651258e-07
-3.23781099656e-08
4.85166757832e-07
-3.34966023887e-08
5.22262554661e-07
-3.73450515208e-08
5.61678457203e-07
-3.96497672795e-08
6.00668144301e-07
-3.92094670191e-08
6.39115902952e-07
-3.86561731098e-08
6.79640783814e-07
-4.07251144057e-08
7.2598999176e-07
-4.65426735277e-08
7.77403906332e-07
-5.15977813673e-08
8.3017934053e-07
-5.29475547278e-08
8.82596224886e-07
-5.25760601833e-08
9.34355850898e-07
-5.19067257474e-08
9.85856500768e-07
-5.16380416251e-08
1.03778375555e-06
-5.20560809992e-08
1.08983898388e-06
-5.21771504524e-08
1.14160682324e-06
-5.18823062336e-08
1.193282618e-06
-5.17847445849e-08
1.24551247311e-06
-5.23323266625e-08
1.29790468122e-06
-5.24913162153e-08
1.35010231743e-06
-5.2293070273e-08
1.40337603006e-06
-5.33673816909e-08
1.45755516001e-06
-5.42691550639e-08
1.51186159694e-06
-5.43963613832e-08
1.56606205972e-06
-5.42870062566e-08
1.61893146884e-06
-5.29551345625e-08
1.66950072978e-06
-5.06528056197e-08
1.71767910622e-06
-4.8263883363e-08
1.76407233199e-06
-4.6477094062e-08
1.80708274089e-06
-4.30950704394e-08
1.84465567955e-06
-3.76555882876e-08
1.87807012804e-06
-3.34989101779e-08
1.90858027438e-06
-3.05940573698e-08
1.93588479558e-06
-2.73913725471e-08
1.95960455542e-06
-2.38067992788e-08
1.97913054574e-06
-1.96159346764e-08
1.99437679984e-06
-1.53363125975e-08
2.0068726637e-06
-1.25878160401e-08
2.0185279989e-06
-1.1746370471e-08
2.02715502831e-06
-8.71834235475e-09
2.02775326145e-06
-6.88510479347e-10
2.02169296107e-06
5.97107801113e-09
2.00853638378e-06
1.30711405751e-08
1.98698487229e-06
2.14721072973e-08
1.96513405951e-06
2.1777249169e-08
1.94636098975e-06
1.87067255698e-08
1.92429880345e-06
2.20028418861e-08
1.89950607529e-06
2.47433455478e-08
1.87902461905e-06
2.04477964789e-08
1.85445771029e-06
2.45592366855e-08
1.80325325752e-06
5.12302000195e-08
1.7056529033e-06
9.76708276155e-08
1.59161245807e-06
1.14112556026e-07
1.49675311803e-06
9.4929888123e-08
1.40573180299e-06
9.10958237362e-08
1.31148917621e-06
9.43426297215e-08
1.20804511309e-06
1.03575391356e-07
1.08885166809e-06
1.1936183025e-07
9.59538438462e-07
1.29499929517e-07
8.29533963461e-07
1.30189522439e-07
7.03048925496e-07
1.26672954651e-07
5.66977060115e-07
1.36259578052e-07
4.48982506992e-07
1.18174395517e-07
3.45831001908e-07
1.03309311655e-07
2.722814375e-07
7.37192345361e-08
1.89795360155e-07
8.26618344719e-08
1.15078654014e-07
7.49969116431e-08
1.15281188675e-07
2.78789543746e-08
-8.22364474671e-08
6.46128231113e-08
-8.49433167342e-08
1.00466385328e-07
-7.72496006075e-08
1.36778324736e-07
-7.1546237554e-08
1.79958405264e-07
-7.1439525897e-08
2.13291811285e-07
-5.46501746038e-08
2.36875274841e-07
-4.26352539785e-08
2.62783357623e-07
-5.14835567382e-08
2.91869088562e-07
-6.1255795119e-08
3.23266993115e-07
-6.37223695551e-08
3.5498488653e-07
-6.34435464034e-08
3.8526497898e-07
-6.36642782055e-08
4.15742111738e-07
-6.38265548088e-08
4.47589461948e-07
-6.45221707065e-08
4.81480059358e-07
-6.76658927075e-08
5.19348545086e-07
-7.54745391144e-08
5.57825969411e-07
-7.83665352501e-08
5.9246736474e-07
-7.40706381427e-08
6.28393396114e-07
-7.47915533855e-08
6.70993010116e-07
-8.35275538723e-08
7.20410329031e-07
-9.61607564201e-08
7.74367729152e-07
-1.05744229157e-07
8.28210880146e-07
-1.06969002592e-07
8.79508993396e-07
-1.04036248729e-07
9.30536057989e-07
-1.03086657512e-07
9.82931730126e-07
-1.04173257155e-07
1.03514053245e-06
-1.04399447549e-07
1.08690801132e-06
-1.04067713302e-07
1.13880043799e-06
-1.0389492751e-07
1.19089789132e-06
-1.03991864194e-07
1.24293161861e-06
-1.04474738959e-07
1.29485162588e-06
-1.0451131202e-07
1.34662004741e-06
-1.04162500022e-07
1.39989539434e-06
-1.06736752762e-07
1.455333409e-06
-1.09803957909e-07
1.51023477024e-06
-1.09387359318e-07
1.56427332293e-06
-1.08418078254e-07
1.61837630908e-06
-1.07144311326e-07
1.67170527348e-06
-1.04072143988e-07
1.72123877546e-06
-9.78835791448e-08
1.76152367981e-06
-8.68526692652e-08
1.79489572537e-06
-7.65528332514e-08
1.82898497602e-06
-7.1833925651e-08
1.86375138598e-06
-6.83514560231e-08
1.89646344047e-06
-6.33966282847e-08
1.9264229318e-06
-5.74403275924e-08
1.95284275581e-06
-5.03203545902e-08
1.97571051948e-06
-4.25773930201e-08
1.99463167715e-06
-3.43541021414e-08
2.00708206985e-06
-2.51349098195e-08
2.0109939106e-06
-1.57556938872e-08
2.01156724779e-06
-9.38891596832e-09
2.01753011235e-06
-6.74732282959e-09
2.01922970257e-06
4.17541927221e-09
2.00926714696e-06
2.29434420098e-08
1.99716934965e-06
3.34830727122e-08
1.98298668372e-06
3.58825702881e-08
1.96328153378e-06
3.83385682869e-08
1.94219213202e-06
4.30310086353e-08
1.91868279806e-06
4.81969627419e-08
1.88375754421e-06
5.53451373735e-08
1.84435500245e-06
6.39602625968e-08
1.78637456275e-06
1.0925958215e-07
1.68579488724e-06
1.9831474148e-07
1.54739431621e-06
2.52588589719e-07
1.4075983458e-06
2.34791574827e-07
1.32069862995e-06
1.78076927921e-07
1.25822052514e-06
1.56919572153e-07
1.17539602644e-06
1.86534466453e-07
1.06157175364e-06
2.33342642492e-07
9.24350651092e-07
2.66891556717e-07
7.82630707627e-07
2.72080095754e-07
6.63073032467e-07
2.46406704699e-07
5.72316548262e-07
2.27202279224e-07
4.82040323281e-07
2.08635980926e-07
3.97103249978e-07
1.88440423762e-07
3.07135077019e-07
1.63889585434e-07
2.25936366721e-07
1.64099659888e-07
1.18471036011e-07
1.8275048773e-07
2.34008720585e-07
3.40394950825e-08
-1.16890853208e-07
5.23892844645e-08
-1.04069672252e-07
9.29923028758e-08
-1.18608684749e-07
1.39120343562e-07
-1.1836615903e-07
1.82344438388e-07
-1.15269045241e-07
2.06262052956e-07
-7.9081340045e-08
2.22824453046e-07
-5.97277647422e-08
2.50916716857e-07
-8.01310515026e-08
2.8289195697e-07
-9.37399912708e-08
3.15099332353e-07
-9.63797223906e-08
3.47023113867e-07
-9.57595454566e-08
3.77533939397e-07
-9.45248174501e-08
4.07701970039e-07
-9.43145515214e-08
4.39812231481e-07
-9.69324839346e-08
4.71900883048e-07
-1.00035914875e-07
4.94233404927e-07
-9.8062692806e-08
5.10120884907e-07
-9.44784948733e-08
5.38395743703e-07
-1.0255378135e-07
5.86213804981e-07
-1.22814760901e-07
6.50072920549e-07
-1.47593382596e-07
7.15163972157e-07
-1.61455294772e-07
7.69673271888e-07
-1.60446262077e-07
8.19904006408e-07
-1.57377129436e-07
8.72139972778e-07
-1.56437149855e-07
9.24828965517e-07
-1.5592780776e-07
9.76393247252e-07
-1.55880275143e-07
1.02793777244e-06
-1.56076655935e-07
1.08001398825e-06
-1.56270218067e-07
1.13228387461e-06
-1.56282905625e-07
1.18486428934e-06
-1.56685703652e-07
1.23687315827e-06
-1.56590076291e-07
1.28904534165e-06
-1.5678647264e-07
1.34225373269e-06
-1.5746980341e-07
1.39426175454e-06
-1.58842462763e-07
1.44863504879e-06
-1.64270151189e-07
1.50712160983e-06
-1.67966619499e-07
1.5626681037e-06
-1.64053957102e-07
1.61581435748e-06
-1.60379539289e-07
1.66982931992e-06
-1.58173950399e-07
1.72096294285e-06
-1.49106029835e-07
1.76746340045e-06
-1.33440391148e-07
1.80964592647e-06
-1.18823470784e-07
1.84718740145e-06
-1.0946198221e-07
1.88103354273e-06
-1.02286055664e-07
1.91178043574e-06
-9.42320635133e-08
1.93913181215e-06
-8.48828116398e-08
1.9631024505e-06
-7.43828904536e-08
1.98351304236e-06
-6.30820370702e-08
2.00010472179e-06
-5.10404457205e-08
2.01310715126e-06
-3.82335420949e-08
2.02297969051e-06
-2.57247991286e-08
2.02849541159e-06
-1.50013436932e-08
2.02560746859e-06
-3.95561358646e-09
2.01709019428e-06
1.25997319171e-08
2.00969070374e-06
3.02545382351e-08
2.00057959547e-06
4.25127001346e-08
1.98505939982e-06
5.13290288159e-08
1.96407310623e-06
5.92606113483e-08
1.9398699137e-06
6.71790842874e-08
1.91239956229e-06
7.56301694703e-08
1.88061777343e-06
8.71151121299e-08
1.82491466962e-06
1.19692520236e-07
1.71290568729e-06
2.21332054645e-07
1.5507039253e-06
3.60602500307e-07
1.41772334293e-06
3.85656432658e-07
1.35220262444e-06
3.0039416026e-07
1.27817166147e-06
2.52190650074e-07
1.18166689162e-06
2.53524524532e-07
1.07402452336e-06
2.94293251444e-07
9.52821848027e-07
3.54679483055e-07
8.35476999764e-07
3.84386362711e-07
7.44053591303e-07
3.63671788528e-07
6.6303231558e-07
3.27611283321e-07
5.76711471283e-07
3.13713740919e-07
4.73359069672e-07
3.1218334791e-07
3.68529032754e-07
2.93470584722e-07
2.79336600785e-07
2.53289625843e-07
2.11939239969e-07
2.31710113372e-07
9.16577923514e-08
3.03391862455e-07
3.25761655965e-07
2.32205184431e-08
-1.40865691517e-07
3.21959626324e-08
-1.135702225e-07
7.54488393587e-08
-1.62530411345e-07
1.13020652291e-07
-1.56577630851e-07
1.20986826876e-07
-1.23729368432e-07
1.12758620161e-07
-7.11382560345e-08
1.55731766243e-07
-1.03090538949e-07
2.19949626723e-07
-1.44883727109e-07
2.65285744447e-07
-1.39581759948e-07
3.01033872613e-07
-1.32572523385e-07
3.34729078656e-07
-1.29843954268e-07
3.66483780982e-07
-1.26624141169e-07
3.95191686241e-07
-1.23337522552e-07
4.14132872811e-07
-1.16161545316e-07
4.25595035042e-07
-1.11761282577e-07
4.4472076016e-07
-1.17430029305e-07
4.83435933064e-07
-1.33420428971e-07
5.40924206862e-07
-1.60263794998e-07
6.05772976644e-07
-1.87885306915e-07
6.61425561549e-07
-2.03461838793e-07
7.08753306415e-07
-2.08987991646e-07
7.58631228365e-07
-2.10516140538e-07
8.10598601421e-07
-2.09523238915e-07
8.62070772196e-07
-2.0807413764e-07
9.13382569202e-07
-2.07392669709e-07
9.64860544673e-07
-2.0750021403e-07
1.01708921377e-06
-2.0843897745e-07
1.06967989865e-06
-2.08986055013e-07
1.12267944277e-06
-2.0940148767e-07
1.1752622663e-06
-2.09380790603e-07
1.22861365081e-06
-2.10048873088e-07
1.28054503568e-06
-2.08820135809e-07
1.33211653567e-06
-2.09140083101e-07
1.3899025e-06
-2.16723989359e-07
1.44780646742e-06
-2.22268243987e-07
1.50468092022e-06
-2.24931721236e-07
1.56541998472e-06
-2.24882597395e-07
1.62352554289e-06
-2.1857267448e-07
1.67458444125e-06
-2.09320283873e-07
1.72184485242e-06
-1.96452286186e-07
1.76764863829e-06
-1.79330214902e-07
1.81092130289e-06
-1.6218121671e-07
1.84985872712e-06
-1.48485385487e-07
1.88444882268e-06
-1.36962192245e-07
1.91532191109e-06
-1.25192870815e-07
1.94265590498e-06
-1.12305345824e-07
1.96648565751e-06
-9.83028798405e-08
1.98671306098e-06
-8.34002757402e-08
2.00326351838e-06
-6.76831206237e-08
2.01624090446e-06
-5.13039652601e-08
2.02536841073e-06
-3.49466675628e-08
2.02926945235e-06
-1.89971707497e-08
2.02703806352e-06
-1.81745761252e-09
2.02132861687e-06
1.82196631766e-08
2.01349264468e-06
3.80078587763e-08
2.00145255952e-06
5.4479950006e-08
1.98395755578e-06
6.87609339435e-08
1.96086027423e-06
8.23070072744e-08
1.93190508842e-06
9.60974817805e-08
1.89460035746e-06
1.12918349811e-07
1.83918034603e-06
1.42555109194e-07
1.74766621127e-06
2.11260929317e-07
1.62817732687e-06
3.40909979619e-07
1.51419297208e-06
4.74692694394e-07
1.38996043801e-06
5.09986630599e-07
1.26843605898e-06
4.22008763203e-07
1.17127622112e-06
3.49443342715e-07
1.08682833986e-06
3.38065123229e-07
1.00492670502e-06
3.76296316625e-07
9.16490709688e-07
4.43235792052e-07
8.17862695077e-07
4.83164542555e-07
7.14139351498e-07
4.67567436475e-07
6.03008225077e-07
4.38918112359e-07
4.90853624992e-07
4.26036235597e-07
3.86467930501e-07
4.16744046023e-07
2.78782076143e-07
4.01348968971e-07
1.84757325409e-07
3.4749362605e-07
1.24110142731e-07
2.92539055325e-07
6.38863371127e-08
3.63744891237e-07
3.89807911943e-07
4.01780121867e-09
-1.45147599264e-07
2.66386124092e-08
-1.365903935e-07
5.97860023449e-08
-1.96203600308e-07
8.73705740697e-08
-1.84631341359e-07
8.53928793662e-08
-1.22114619627e-07
1.11402757207e-07
-9.74620455233e-08
1.64164739755e-07
-1.5629519447e-07
2.03719030261e-07
-1.84927205105e-07
2.4144012124e-07
-1.77777048226e-07
2.79072163127e-07
-1.70626116479e-07
3.16087529391e-07
-1.6723272275e-07
3.42919940484e-07
-1.5378299137e-07
3.54026376488e-07
-1.34728471442e-07
3.65844872327e-07
-1.28243757585e-07
3.95679598251e-07
-1.41853693977e-07
4.43640563428e-07
-1.65645725003e-07
5.02211943037e-07
-1.92242300032e-07
5.58106699977e-07
-2.16401102549e-07
6.03313517593e-07
-2.3332177826e-07
6.46004011849e-07
-2.46369400198e-07
6.93781931427e-07
-2.5697125332e-07
7.44381537339e-07
-2.61308321177e-07
7.95575134717e-07
-2.60895147727e-07
8.46671180485e-07
-2.59335134616e-07
8.97938048324e-07
-2.58812241686e-07
9.50055194168e-07
-2.59759714513e-07
1.00237242226e-06
-2.60888760969e-07
1.05585873846e-06
-2.6259753693e-07
1.10876081795e-06
-2.62421941243e-07
1.16212063398e-06
-2.62853282922e-07
1.21363656784e-06
-2.61671049215e-07
1.2685640059e-06
-2.63848650262e-07
1.32846784317e-06
-2.6914150094e-07
1.38644253009e-06
-2.74794046793e-07
1.44710410426e-06
-2.8302232158e-07
1.51005373557e-06
-2.8797213308e-07
1.56866967177e-06
-2.83587030935e-07
1.62347222053e-06
-2.73462187039e-07
1.67463993157e-06
-2.60573070797e-07
1.72290512098e-06
-2.44801772035e-07
1.76937179931e-06
-2.25880233144e-07
1.81336487999e-06
-2.06257652613e-07
1.85332843302e-06
-1.88532210858e-07
1.88878139206e-06
-1.72499381068e-07
1.92009129066e-06
-1.56587779249e-07
1.9475692859e-06
-1.39869595994e-07
1.97133243145e-06
-1.22152813716e-07
1.99136395955e-06
-1.03519682984e-07
2.00763287959e-06
-8.40408608163e-08
2.02009139175e-06
-6.38531772637e-08
2.02831426659e-06
-4.32617838418e-08
2.03143650294e-06
-2.22121793412e-08
2.02938493981e-06
1.43522737938e-10
2.02359468803e-06
2.39258699779e-08
2.01434649298e-06
4.71825696733e-08
1.9999881789e-06
6.87751959023e-08
1.9788183501e-06
8.9883050591e-08
1.9490787788e-06
1.12013073264e-07
1.90787632404e-06
1.37283796017e-07
1.84944605531e-06
1.71360543684e-07
1.76472512129e-06
2.27318209043e-07
1.65442659256e-06
3.21642477022e-07
1.54810217912e-06
4.47340696253e-07
1.45859831956e-06
5.64312238132e-07
1.36976919552e-06
5.98939966407e-07
1.25284031599e-06
5.39043520699e-07
1.12217606789e-06
4.80194925266e-07
1.00945651592e-06
4.50863788021e-07
9.19716044934e-07
4.66122348898e-07
8.36115502897e-07
5.26950798527e-07
7.37222535005e-07
5.82206290831e-07
6.28300592208e-07
5.76647732342e-07
5.20797270805e-07
5.46564566667e-07
4.12736930391e-07
5.34242152838e-07
3.04239455636e-07
5.25407665046e-07
2.05092458786e-07
5.00669961518e-07
1.45891862557e-07
4.06833558555e-07
9.01429888624e-08
3.48395534222e-07
3.54436550109e-08
4.18703169188e-07
4.25290752211e-07
9.2595878473e-10
-1.46465992334e-07
3.01552368426e-08
-1.66175304991e-07
4.73225443533e-08
-2.13790674626e-07
6.03083566406e-08
-1.980134965e-07
6.03851395245e-08
-1.22457243729e-07
1.13009532755e-07
-1.50447980518e-07
1.60950124161e-07
-2.04691632728e-07
1.86664453996e-07
-2.11096454709e-07
2.18042552331e-07
-2.09571520557e-07
2.51225390381e-07
-2.04211737578e-07
2.76641716294e-07
-1.93000808213e-07
2.79329104938e-07
-1.56745138597e-07
2.9128875885e-07
-1.46937768989e-07
3.25181538841e-07
-1.6239018221e-07
3.76051293769e-07
-1.9299026359e-07
4.37980297341e-07
-2.27848877895e-07
4.95344912563e-07
-2.49871777046e-07
5.39061259316e-07
-2.6036394554e-07
5.79829969652e-07
-2.74321829345e-07
6.27223090967e-07
-2.93982614506e-07
6.76412475822e-07
-3.06367855033e-07
7.25521599523e-07
-3.10610155471e-07
7.75851673972e-07
-3.11403677196e-07
8.27425932351e-07
-3.11074270326e-07
8.79163190279e-07
-3.10702159875e-07
9.29639630973e-07
-3.10377659891e-07
9.83263177616e-07
-3.1464487101e-07
1.03664551702e-06
-3.1610445686e-07
1.09077648895e-06
-3.16670545541e-07
1.14125349062e-06
-3.13441087275e-07
1.19530221165e-06
-3.15824869433e-07
1.25291180521e-06
-3.21558459985e-07
1.31250621154e-06
-3.28831981578e-07
1.38119091634e-06
-3.43572843182e-07
1.44937590414e-06
-3.51299638e-07
1.51091398963e-06
-3.49600191589e-07
1.56813044035e-06
-3.40890960571e-07
1.62271798943e-06
-3.28134955797e-07
1.67478837721e-06
-3.12726809901e-07
1.72443206609e-06
-2.94527258267e-07
1.77194375667e-06
-2.73472764732e-07
1.81676186869e-06
-2.51156231195e-07
1.85768166616e-06
-2.29532765707e-07
1.89406432826e-06
-2.08963354409e-07
1.92600346928e-06
-1.88608946556e-07
1.95376237414e-06
-1.67710886902e-07
1.97749523774e-06
-1.45968761106e-07
1.99722829201e-06
-1.23336621868e-07
2.01293456562e-06
-9.98329535157e-08
2.02451817118e-06
-7.55248312343e-08
2.03165766807e-06
-5.04920649978e-08
2.0339424039e-06
-2.45876213761e-08
2.03148628336e-06
2.51311646211e-09
2.02476155707e-06
3.05735729529e-08
2.01304206406e-06
5.88396478046e-08
1.99406829051e-06
8.77030231464e-08
1.9649463769e-06
1.18974844677e-07
1.92211522752e-06
1.54832160608e-07
1.86095978852e-06
1.98450977765e-07
1.77702425341e-06
2.55332887228e-07
1.66985333408e-06
3.34559749527e-07
1.55274736177e-06
4.38845893216e-07
1.45672177315e-06
5.43482887865e-07
1.36173513912e-06
6.59439629736e-07
1.25443248825e-06
7.06358929078e-07
1.15488070428e-06
6.38709465742e-07
1.04019538585e-06
5.94970227071e-07
9.27915385092e-07
5.63237733212e-07
8.37206711693e-07
5.56925779508e-07
7.50186916551e-07
6.14088931318e-07
6.48720261069e-07
6.83812306e-07
5.53369962933e-07
6.72133240634e-07
4.47763003764e-07
6.52303859951e-07
3.36659296094e-07
6.45490309337e-07
2.32350346462e-07
6.29874781957e-07
1.62429073191e-07
5.70739273196e-07
1.06819110294e-07
4.62576379416e-07
5.74478620928e-08
3.97936702149e-07
2.46338025906e-08
4.51581844776e-07
4.5007527897e-07
1.04843068883e-08
-1.57125063554e-07
4.11348349202e-08
-1.97142003966e-07
5.34963632171e-08
-2.26489294228e-07
4.44787908822e-08
-1.89319961736e-07
6.60239209649e-08
-1.44304995627e-07
1.19470428077e-07
-2.04305624929e-07
1.45062906307e-07
-2.30719715068e-07
1.66825659457e-07
-2.3325340111e-07
1.90403744988e-07
-2.33553690093e-07
2.22865997225e-07
-2.37017047778e-07
2.28077419501e-07
-1.98512764257e-07
2.35441594564e-07
-1.64354926207e-07
2.66858953068e-07
-1.78609575484e-07
3.09148448769e-07
-2.04948155692e-07
3.67671312622e-07
-2.51799393927e-07
4.25148201248e-07
-2.85610556634e-07
4.67122287529e-07
-2.92110453747e-07
5.06038501673e-07
-2.9952585516e-07
5.54746019311e-07
-3.23264963138e-07
6.04902777596e-07
-3.44363135044e-07
6.53114004599e-07
-3.54787318541e-07
7.02153061746e-07
-3.59842497642e-07
7.5288861913e-07
-3.62317681158e-07
8.03221407646e-07
-3.6157144766e-07
8.53245278204e-07
-3.60878370923e-07
9.04831345377e-07
-3.62104643724e-07
9.57139043122e-07
-3.67084738236e-07
1.01187451593e-06
-3.70962980821e-07
1.06429939429e-06
-3.69211145712e-07
1.11641930864e-06
-3.65670006313e-07
1.1764663788e-06
-3.75976361053e-07
1.23911305816e-06
-3.8430420831e-07
1.30821494812e-06
-3.98029669758e-07
1.37805790926e-06
-4.13509526595e-07
1.44610405535e-06
-4.1943755599e-07
1.50798922656e-06
-4.11574124878e-07
1.56585776738e-06
-3.98845321365e-07
1.62155212999e-06
-3.83912411542e-07
1.67518811904e-06
-3.66443745988e-07
1.72649455383e-06
-3.45912840073e-07
1.7753476709e-06
-3.2240394833e-07
1.82122479971e-06
-2.9711083609e-07
1.86317892869e-06
-2.71564375187e-07
1.9005488228e-06
-2.46410892865e-07
1.93322156086e-06
-2.21359421787e-07
1.96133148571e-06
-1.95898828681e-07
1.98498987828e-06
-1.69705770331e-07
2.00422487775e-06
-1.42652020889e-07
2.01903267586e-06
-1.14723726183e-07
2.02937917626e-06
-8.59588095604e-08
2.03514405494e-06
-5.63464797534e-08
2.03619521293e-06
-2.57274481403e-08
2.03249705761e-06
6.12907407659e-09
2.02358241731e-06
3.94235595106e-08
2.00750665782e-06
7.4867988046e-08
1.98069440328e-06
1.14480920068e-07
1.93879562802e-06
1.60859447388e-07
1.87771904201e-06
2.15916023962e-07
1.79528086823e-06
2.80917320446e-07
1.69490898376e-06
3.55758548037e-07
1.58805162272e-06
4.4149958065e-07
1.49046407495e-06
5.3654203194e-07
1.39279144902e-06
6.41298660173e-07
1.29015124642e-06
7.62215043283e-07
1.15809163462e-06
8.38595658981e-07
1.05089425017e-06
7.46032277553e-07
9.65274335185e-07
6.80716839908e-07
8.67805782481e-07
6.60804128413e-07
7.68036336978e-07
6.56801543928e-07
6.70803474235e-07
7.11446511673e-07
5.86000989781e-07
7.68750994681e-07
4.94920511869e-07
7.63344758886e-07
3.80091474006e-07
7.67269203319e-07
2.65834299668e-07
7.59894361828e-07
1.7235978483e-07
7.23499534307e-07
1.22652531944e-07
6.2059279677e-07
6.39210641983e-08
5.21435397544e-07
1.83666153882e-08
4.43577714412e-07
9.31796134597e-09
4.60910065674e-07
4.59411762339e-07
1.86599609801e-08
-1.761861121e-07
4.19981486572e-08
-2.20809176232e-07
4.74823193254e-08
-2.32307072417e-07
3.02318339484e-08
-1.72314186763e-07
6.77464346358e-08
-1.82134638083e-07
1.05883011736e-07
-2.42855209156e-07
1.25604456882e-07
-2.5082005882e-07
1.46603669496e-07
-2.54633229461e-07
1.56928331062e-07
-2.44198661456e-07
1.76474089801e-07
-2.56893439197e-07
1.7606667109e-07
-1.98342531032e-07
2.07708361591e-07
-1.96246865541e-07
2.43216981958e-07
-2.14378834084e-07
2.94636441127e-07
-2.56650677596e-07
3.5082040287e-07
-3.08285867548e-07
3.92452111984e-07
-3.27528293887e-07
4.27619217792e-07
-3.27536626362e-07
4.75357700089e-07
-3.47512916783e-07
5.27400163432e-07
-3.7554822235e-07
5.7599149188e-07
-3.93180949125e-07
6.23731048587e-07
-4.02737014544e-07
6.72561277497e-07
-4.08866462101e-07
7.24336540816e-07
-4.14271206128e-07
7.76338127361e-07
-4.13737705551e-07
8.24839166556e-07
-4.09530059576e-07
8.79376065643e-07
-4.16782412013e-07
9.31175167906e-07
-4.19014917841e-07
9.82389961281e-07
-4.22300345506e-07
1.03506612534e-06
-4.2200065506e-07
1.10250995429e-06
-4.33222102795e-07
1.16534910399e-06
-4.38918969134e-07
1.22825712438e-06
-4.47311020701e-07
1.30038496807e-06
-4.70253224037e-07
1.37427173607e-06
-4.87489887744e-07
1.44004726867e-06
-4.85303344949e-07
1.5022301605e-06
-4.73844052436e-07
1.56220813503e-06
-4.58906944827e-07
1.62009121815e-06
-4.41876437889e-07
1.67580019713e-06
-4.22231009032e-07
1.7290720619e-06
-3.99261122716e-07
1.77959118188e-06
-3.72997851977e-07
1.82682734423e-06
-3.44421045156e-07
1.87000544703e-06
-3.14815933044e-07
1.90847674532e-06
-2.84955312261e-07
1.94196489778e-06
-2.5492042496e-07
1.97043605257e-06
-2.24443146867e-07
1.99389708299e-06
-1.93241350419e-07
2.01234708649e-06
-1.61179146012e-07
2.02582971679e-06
-1.28288525435e-07
2.03444661007e-06
-9.46614029415e-08
2.03829428483e-06
-6.02830076377e-08
2.03738066893e-06
-2.4900688829e-08
2.03135112928e-06
1.20863511823e-08
2.01873362721e-06
5.19919889039e-08
1.9961223415e-06
9.74310179917e-08
1.95837873961e-06
1.52215771458e-07
1.90073390246e-06
2.18498236621e-07
1.82157989557e-06
2.95079220151e-07
1.72332187462e-06
3.79215110874e-07
1.61712449929e-06
4.62030878639e-07
1.51745706695e-06
5.41270260055e-07
1.42786402681e-06
6.26259094276e-07
1.34455110492e-06
7.24748002114e-07
1.27354332338e-06
8.3339250709e-07
1.15960395119e-06
9.52682893843e-07
9.81498285359e-07
9.24257502066e-07
8.60144257959e-07
8.02207675935e-07
7.62609560069e-07
7.58484550292e-07
6.72492308532e-07
7.47052324959e-07
6.05406084204e-07
7.78636239532e-07
5.42496054915e-07
8.31771671764e-07
4.40835443433e-07
8.6512363527e-07
3.15507023969e-07
8.92731320399e-07
1.9790957938e-07
8.77636310446e-07
1.1624954698e-07
8.05297851457e-07
5.96569160716e-08
6.77318892294e-07
6.94441523643e-09
5.74286995455e-07
-3.25664736777e-08
4.83290752922e-07
-2.30108800519e-08
4.51383968437e-07
4.36580836933e-07
2.18434496185e-08
-1.98210387903e-07
3.5597787502e-08
-2.3486712119e-07
3.14776871355e-08
-2.28441914457e-07
3.4305954643e-08
-1.75396639152e-07
7.26812064152e-08
-2.20838175497e-07
8.75148454124e-08
-2.58047312129e-07
1.04374968005e-07
-2.6802336308e-07
1.24030288041e-07
-2.74601982327e-07
1.30356677078e-07
-2.50830854944e-07
1.42071681773e-07
-2.6889470163e-07
1.56312625992e-07
-2.12825412593e-07
1.85348814111e-07
-2.25530025726e-07
2.22250326454e-07
-2.51558070362e-07
2.76166617333e-07
-3.10869724035e-07
3.23318837671e-07
-3.55736094251e-07
3.54947783056e-07
-3.59436412341e-07
3.93294428852e-07
-3.66144433989e-07
4.4281898879e-07
-3.97291747911e-07
4.93147503181e-07
-4.26120612016e-07
5.41854096766e-07
-4.42116264786e-07
5.90231522007e-07
-4.51326311393e-07
6.37970950123e-07
-4.56800046067e-07
6.87128354784e-07
-4.6360791281e-07
7.38312497684e-07
-4.65083223049e-07
7.86863500807e-07
-4.58230152859e-07
8.40076296416e-07
-4.70135593427e-07
8.96285070615e-07
-4.75352378058e-07
9.5561395837e-07
-4.81750785732e-07
1.01752536958e-06
-4.84025167812e-07
1.07897858365e-06
-4.94781941343e-07
1.14495979955e-06
-5.0500163056e-07
1.22275798701e-06
-5.25207968243e-07
1.29711544965e-06
-5.44706634591e-07
1.3649894304e-06
-5.55456111957e-07
1.43074882463e-06
-5.51151573337e-07
1.49507013752e-06
-5.38250246441e-07
1.55772443603e-06
-5.21642777474e-07
1.61829266552e-06
-5.02522772773e-07
1.67651139711e-06
-4.80525311123e-07
1.73211285926e-06
-4.54935611312e-07
1.78469089976e-06
-4.2564730478e-07
1.83366724607e-06
-3.93467196588e-07
1.87834539819e-06
-3.59562824443e-07
1.91809661066e-06
-3.24774255657e-07
1.9525001973e-06
-2.89391654637e-07
1.98131441445e-06
-2.53325839368e-07
2.00439145696e-06
-2.16389302008e-07
2.02167526537e-06
-1.78538796788e-07
2.03326760152e-06
-1.39960973655e-07
2.03943592575e-06
-1.00917194626e-07
2.04050594463e-06
-6.14411511849e-08
2.03658258697e-06
-2.10572647424e-08
2.02698190548e-06
2.16326901537e-08
2.00926669719e-06
6.96504283119e-08
1.97864491093e-06
1.28056245633e-07
1.92849436549e-06
2.02340369031e-07
1.855526498e-06
2.91444041297e-07
1.76261738786e-06
3.88027686271e-07
1.65116272219e-06
4.90735250749e-07
1.53647790768e-06
5.7681342776e-07
1.43795896783e-06
6.39895544216e-07
1.35737606378e-06
7.06970405455e-07
1.29506962897e-06
7.87167667897e-07
1.24377749781e-06
8.84808722982e-07
1.19216046617e-06
1.00438134985e-06
1.01303480985e-06
1.10359461619e-06
7.72056173444e-07
1.04338762067e-06
6.58774293085e-07
8.71947798492e-07
5.97596492614e-07
8.0834838918e-07
5.70054045197e-07
8.0630359037e-07
5.12135603631e-07
8.89797753684e-07
3.96115032942e-07
9.81270394284e-07
2.55320453048e-07
1.03366829245e-06
1.27312379766e-07
1.00577539102e-06
3.64494486156e-08
8.96301628299e-07
-3.32797191653e-08
7.47200074195e-07
-7.95787905848e-08
6.20730194846e-07
-9.67536361733e-08
5.00547176626e-07
-6.30788189421e-08
4.18035894573e-07
3.73499208029e-07
2.20906613381e-08
-2.20742755349e-07
3.27843742307e-08
-2.45899357371e-07
2.13172311527e-08
-2.17255523276e-07
3.49672802637e-08
-1.89297488248e-07
6.38366549592e-08
-2.50025785172e-07
6.90504172484e-08
-2.63564301081e-07
8.10158999743e-08
-2.80312527596e-07
9.18841839927e-08
-2.85744836285e-07
1.07994198862e-07
-2.67203647105e-07
1.04483460079e-07
-2.65639384773e-07
1.28946730904e-07
-2.37521947633e-07
1.61023215489e-07
-2.57867162403e-07
1.97723305995e-07
-2.88529726484e-07
2.4419694302e-07
-3.57647531422e-07
2.806889299e-07
-3.92525544646e-07
3.07349722624e-07
-3.86362445624e-07
3.51674422183e-07
-4.10730925417e-07
4.0266202886e-07
-4.48538385687e-07
4.52325909842e-07
-4.76031199559e-07
5.02140029763e-07
-4.92159954182e-07
5.52380004267e-07
-5.01777621149e-07
6.01624099923e-07
-5.0624098728e-07
6.47859824667e-07
-5.10022603756e-07
6.97541617392e-07
-5.14927169286e-07
7.51750887646e-07
-5.12587200319e-07
8.0256384615e-07
-5.2108658154e-07
8.57254568195e-07
-5.30172521426e-07
9.11001847612e-07
-5.35617293712e-07
9.80362836072e-07
-5.53498125808e-07
1.05191202906e-06
-5.66436315606e-07
1.12744160172e-06
-5.8063148425e-07
1.2032500568e-06
-6.01113746758e-07
1.28182335701e-06
-6.23374626511e-07
1.35276577519e-06
-6.2648970279e-07
1.42015403906e-06
-6.18626357607e-07
1.48685308768e-06
-6.05031893488e-07
1.55248404721e-06
-5.87352312082e-07
1.61614556505e-06
-5.66259799027e-07
1.6773076072e-06
-5.41759581662e-07
1.73563710709e-06
-5.13334975865e-07
1.79068796357e-06
-4.8076541054e-07
1.84183541903e-06
-4.44679951622e-07
1.88838130461e-06
-4.06172061772e-07
1.92967100792e-06
-3.66126641216e-07
1.96514178631e-06
-3.24925248942e-07
1.9943085864e-06
-2.82557783764e-07
2.0167917164e-06
-2.38942135285e-07
2.03243000157e-06
-1.94250676464e-07
2.04137519488e-06
-1.48989079556e-07
2.04408781099e-06
-1.03712824575e-07
2.04115303756e-06
-5.85915696283e-08
2.03287021566e-06
-1.28418153317e-08
2.01846197988e-06
3.60027415708e-08
1.99501731579e-06
9.30890094189e-08
1.95679263159e-06
1.66230682497e-07
1.89547099033e-06
2.63619360879e-07
1.81058893075e-06
3.76421355996e-07
1.70961862291e-06
4.88909910519e-07
1.57525839486e-06
6.25185798757e-07
1.43386611422e-06
7.18469455381e-07
1.33161602586e-06
7.42457820832e-07
1.26286254656e-06
7.75991706521e-07
1.22210461048e-06
8.28148694326e-07
1.19777571208e-06
9.09279821054e-07
1.18361133957e-06
1.01872273881e-06
1.12066042391e-06
1.16668474418e-06
8.50724724677e-07
1.31345229092e-06
5.502256322e-07
1.17257732017e-06
5.07920436219e-07
8.50821532652e-07
5.53860841542e-07
7.60540444577e-07
5.02598664352e-07
9.41213340804e-07
3.67758789637e-07
1.11623529957e-06
2.01364864431e-07
1.2001693606e-06
4.69611648008e-08
1.16028384132e-06
-7.93778478112e-08
1.02274201089e-06
-1.52943756868e-07
8.20852467557e-07
-1.90728054499e-07
6.58687979611e-07
-1.68092581496e-07
4.7814270836e-07
-9.94172174483e-08
3.49332489258e-07
2.74265862648e-07
1.74680217134e-08
-2.38347193819e-07
2.54452352014e-08
-2.54089608845e-07
1.78836678601e-08
-2.09892261127e-07