/*--------------------------------*- C++ -*----------------------------------*\
| =========                 |                                                 |
| \\      /  F ield         | OpenFOAM: The Open Source CFD Toolbox           |
|  \\    /   O peration     | Version:  v1806                                 |
|   \\  /    A nd           | Web:      www.OpenFOAM.com                      |
|    \\/     M anipulation  |                                                 |
\*---------------------------------------------------------------------------*/
FoamFile
{
    version     2.0;
    format      ascii;
    class       volScalarField;
    location    "950";
    object      p;
}
// * * * * * * * * * * * * * * * * * * * * * * * * * * * * * * * * * * * * * //

dimensions      [0 2 -2 0 0 0 0];


internalField   nonuniform List<scalar> 
6400
(
0.142857966373
0.142861296504
0.142870863744
0.142889736375
0.14291817167
0.142956256543
0.143003956485
0.143062336113
0.143132740711
0.143217333094
0.143322334852
0.143451127779
0.143601492399
0.1437733701
0.143968673628
0.144190096683
0.144439690072
0.144717765481
0.145022269348
0.145348065913
0.145690329015
0.146051146728
0.146438270383
0.146859546905
0.147319681049
0.147818611365
0.148353155566
0.148920782482
0.14952092601
0.150153993583
0.150820156264
0.151517350449
0.152239885398
0.152981905644
0.153740466344
0.154513232464
0.155300660035
0.156107250931
0.156931288004
0.15776488917
0.158608167239
0.159470500968
0.160356140717
0.161257261941
0.162162844023
0.16306453495
0.163955802193
0.164831245653
0.165685845984
0.166515056605
0.167314801163
0.168079127627
0.168798844843
0.169463564972
0.170069987615
0.170619731506
0.171108110872
0.171526868372
0.171874018602
0.172155399959
0.172377146497
0.172543589632
0.172660746867
0.172744536955
0.172816426527
0.172892882139
0.172973924493
0.173043738355
0.173093224743
0.173125032768
0.173144305976
0.173155194398
0.173160241144
0.173160970642
0.173158500712
0.173154144923
0.173148810905
0.173144491193
0.173141256788
0.173139813442
0.142853210614
0.142856774222
0.142865552291
0.142883968906
0.142913796062
0.142953237733
0.143001374678
0.143058064757
0.143126491357
0.143210792281
0.143315445993
0.143443323735
0.143593962317
0.143766691251
0.143962091701
0.144182212871
0.144431025598
0.144709658231
0.145015248834
0.145341366488
0.145681863347
0.14604086998
0.146427582222
0.146849043758
0.14730969295
0.147809327754
0.148344267784
0.148912522315
0.14951357113
0.150147370221
0.150813773976
0.151511482068
0.152234935961
0.152977185842
0.153735927154
0.154509077427
0.155296720361
0.156104001872
0.156929330198
0.15776417739
0.158607816393
0.159471232217
0.160359642077
0.161262953476
0.162169890411
0.163073063501
0.163965944183
0.164843265525
0.165699705248
0.166529838768
0.167329539364
0.168095045477
0.16881817295
0.169484821854
0.170092769826
0.170644462665
0.171131814706
0.171548397121
0.171894792684
0.172174989712
0.172394255978
0.172559305517
0.172676289217
0.172760929944
0.172833844358
0.172910552694
0.172991312743
0.173058640257
0.173105206573
0.173134731947
0.173152128889
0.173161445924
0.173164981657
0.173164051432
0.17316020895
0.173154735301
0.173148858336
0.173143878886
0.173140309478
0.173139009715
0.142839688602
0.142845495461
0.142853612051
0.142870630067
0.142899466578
0.142942959785
0.142994533293
0.143049643408
0.143115062036
0.143197666954
0.143301487432
0.143428864097
0.143579805437
0.143753315032
0.143948723248
0.144165719019
0.144412206707
0.144694626741
0.145002740687
0.145327430939
0.145664223297
0.146018951987
0.146405071771
0.14682866116
0.147290332622
0.14779012507
0.148326260053
0.148896235405
0.149498844354
0.150133955201
0.150801297078
0.151500175604
0.152225540284
0.152967896229
0.153726015367
0.154500697462
0.155289188217
0.156096707926
0.156923779069
0.157762070525
0.158611300331
0.159479241455
0.160368950313
0.161273312991
0.162182389105
0.16308826088
0.163984432287
0.164865250615
0.165725306315
0.166559466626
0.167363157517
0.168130918257
0.168854126076
0.169523992613
0.17013762256
0.170691050724
0.171176982784
0.171591853137
0.171936408632
0.172214208664
0.172430842074
0.172592613785
0.17270847027
0.172795903924
0.172873925267
0.172952261088
0.173027132376
0.173087608746
0.173129525299
0.173155191129
0.173169117309
0.17317478313
0.173174403443
0.173169973598
0.173163516675
0.173156092893
0.173148763276
0.173142585556
0.173138443025
0.17313677736
0.142819920109
0.142825965589
0.142833197086
0.142848997854
0.14287455605
0.142918036545
0.142981834719
0.143037257054
0.143098114444
0.143177773355
0.143280178775
0.143407271552
0.143558900663
0.14373255247
0.14392775732
0.144148027768
0.144397713605
0.144677360415
0.14497774405
0.14529274086
0.145626312869
0.145984419642
0.14637299731
0.146797518801
0.147260415808
0.147761690205
0.148299660812
0.148871800086
0.149476660597
0.150113666265
0.150783004141
0.151483561969
0.152210677799
0.152955622764
0.15371243262
0.154485728032
0.155277545687
0.156086817028
0.156914391111
0.157757350882
0.158614303377
0.159488752716
0.160382196703
0.161289417638
0.162201996489
0.163112110157
0.164013065963
0.164898965582
0.165764306634
0.166603861383
0.167412490783
0.168184136467
0.168911119543
0.169586157311
0.170204145893
0.170759152437
0.171244823111
0.171658235505
0.172000304792
0.172274698853
0.172487298197
0.172646220989
0.172764287083
0.172858342781
0.172939998537
0.173014148817
0.173082177814
0.173135163758
0.173169443228
0.173188066485
0.173195265379
0.173194181876
0.173187767701
0.173178614912
0.17316813449
0.173157770653
0.173148348055
0.173139789401
0.173133593386
0.173130942432
0.142788728241
0.142790496045
0.142799346246
0.142815713226
0.142844100365
0.14288546474
0.142944718721
0.143004624113
0.143069002903
0.143149141338
0.143250418727
0.143377429857
0.14353031797
0.143708908681
0.143910662897
0.144131216831
0.144374096634
0.144641630801
0.144932292004
0.145244834969
0.145579733647
0.145939519741
0.146329924846
0.146756267198
0.147220877659
0.147724047663
0.148264106416
0.148838976173
0.149446782894
0.150086762348
0.150758321187
0.151462119405
0.152192814661
0.152936891223
0.153693457742
0.154466748442
0.15525866235
0.156071241488
0.156903551794
0.157752892694
0.158617934425
0.159499959651
0.160399100772
0.161311115456
0.16222882797
0.163144742085
0.164052042557
0.16494462583
0.165816860787
0.166663350836
0.167478568194
0.168256226881
0.168989151258
0.169670296018
0.170293111848
0.170850593625
0.171336743115
0.171749058252
0.172088665819
0.172359685504
0.172569220605
0.17272795284
0.172850570448
0.17294989229
0.173030372085
0.173100021217
0.173160403552
0.173203406492
0.173226446938
0.173233598341
0.173229833282
0.173219201885
0.173205254612
0.173189661101
0.173173852029
0.173159259795
0.1731456641
0.173132427806
0.173123334413
0.173119698146
0.14273276717
0.142733504741
0.142747396465
0.142764726081
0.142796407322
0.142840300981
0.142896380205
0.14295720573
0.143026692476
0.143109299312
0.143209386992
0.143336973032
0.143498165112
0.143685024959
0.143886007267
0.14410056898
0.144334115167
0.144593150495
0.144879107551
0.145189609874
0.145523184836
0.145883606787
0.146276076556
0.146704833949
0.147171772376
0.147676841615
0.148219640158
0.148797532942
0.149409305915
0.150053105986
0.150728801113
0.151434862988
0.15216617707
0.152913636095
0.153668903524
0.154440469456
0.15523493799
0.156052645499
0.156891323582
0.157748317935
0.158622166918
0.159512855914
0.160419524596
0.161338345687
0.16226300762
0.163186401301
0.16410168832
0.16500261343
0.165883411249
0.166738519285
0.167562166156
0.168347952957
0.169088801693
0.169777327101
0.170405931824
0.170967066708
0.171455014805
0.171867595936
0.172206270341
0.17247598258
0.172685360381
0.172846838769
0.17297456872
0.173074019097
0.17315125424
0.173215071734
0.173266749986
0.17329698297
0.173303940777
0.173293619222
0.17327414331
0.173251050785
0.173226845743
0.173202562812
0.173179963613
0.173159231017
0.173138918632
0.173119367829
0.173106519842
0.173100709821
0.14264787854
0.142654811412
0.142676747001
0.142701822797
0.142730247501
0.142775208089
0.142833261968
0.1428969638
0.142970431655
0.143056226537
0.143160576724
0.143292279912
0.143460981253
0.143647087544
0.143843715906
0.144050802399
0.14427848488
0.144534980627
0.144818735866
0.145124774356
0.14545609732
0.145817446596
0.146211836454
0.146642710702
0.147112403338
0.147621296363
0.148165857689
0.148747255638
0.149363848457
0.150014259179
0.150694124671
0.151401111246
0.15213371553
0.152878981075
0.153635043289
0.154408796928
0.155207642036
0.156031603487
0.156877807784
0.157743490123
0.158627008209
0.159527528863
0.16044346578
0.161371095524
0.162304640058
0.163237328499
0.164162365967
0.165073407846
0.165964578721
0.166830179792
0.16766427007
0.168460310655
0.169211035296
0.169908543575
0.170544570004
0.171111426168
0.171603759562
0.17201973854
0.172361147037
0.172633507376
0.172846282925
0.173011993668
0.173141087041
0.173238172631
0.173314748401
0.173371446687
0.173407445943
0.173418158533
0.173402978306
0.173369531665
0.173329228171
0.173289080333
0.17325066321
0.173216155571
0.173185512508
0.17315611684
0.17312618681
0.173099028821
0.17308119133
0.173072511758
0.142546906241
0.142559803855
0.14258471078
0.142619725313
0.142651291049
0.142698688069
0.142755646907
0.142822852682
0.14290136544
0.142985856179
0.143098973061
0.143243385024
0.14341077804
0.143593627814
0.143784091114
0.143984725511
0.144211505209
0.144468240036
0.144747603693
0.145049227229
0.145378818222
0.145740639287
0.146136763676
0.146570703457
0.147044027065
0.147556293699
0.148104907496
0.148687381999
0.149310778988
0.149970047335
0.150652593225
0.151358431986
0.152090316913
0.152835286796
0.153592475353
0.154371795306
0.155177166061
0.15600835054
0.156862945148
0.157738276974
0.158632458344
0.159544071324
0.160470987993
0.161409416999
0.162353860578
0.163297798564
0.164234514221
0.165157628472
0.166061184059
0.166939364871
0.167786079006
0.168594596316
0.169357346058
0.170065998326
0.170712052289
0.171288126598
0.171789415589
0.172214204631
0.172563727171
0.172842907515
0.173060640198
0.173228527845
0.173356025908
0.173451451416
0.173522617513
0.173572934477
0.173587567231
0.173572004021
0.173528975632
0.173465074541
0.173394956465
0.173329533602
0.17327350553
0.173228456696
0.173189274284
0.173149015325
0.173106744385
0.173069840002
0.173045564167
0.173034020913
0.142434891346
0.142451211082
0.142476680681
0.142507926391
0.1425471249
0.142603214436
0.142661408187
0.142731040692
0.142818209515
0.142908758807
0.143020790842
0.143174141246
0.143344667
0.143522543976
0.143707658467
0.143908295458
0.144134730599
0.144388782088
0.144664087308
0.144963278478
0.145291755227
0.145653376981
0.146049906226
0.146486137977
0.146966604737
0.147481452537
0.148034597836
0.148624442299
0.149250348679
0.149912097815
0.150600626733
0.15131198848
0.152037234291
0.152780259965
0.153543181361
0.154330059846
0.155143275898
0.155982732657
0.156846627372
0.157732573526
0.15863851352
0.159562570371
0.160502182148
0.161453406255
0.162410847337
0.163368144646
0.164318673455
0.165256057876
0.166174270162
0.167067373243
0.167929120827
0.168752581382
0.16952993612
0.170252719746
0.170912750259
0.171503453392
0.172020601492
0.172461577903
0.172825024109
0.17311438245
0.173337683611
0.17350715596
0.173631929903
0.173719183251
0.173774717108
0.17381049751
0.17381343528
0.173768681479
0.173692232014
0.173585604024
0.173467663465
0.173365104402
0.173289549518
0.17323661794
0.173191632588
0.173139403706
0.173079927523
0.173029570322
0.172996034303
0.172980836594
0.142309902919
0.142328289612
0.14235787482
0.14238834042
0.142430823976
0.142487683788
0.142548884924
0.142619365938
0.142707955303
0.142815685399
0.142933470752
0.1430877526
0.143259733761
0.143434828244
0.143615088151
0.143818681702
0.144048341614
0.144298065724
0.144568511188
0.144865663699
0.145194133688
0.145556744881
0.145954157671
0.146389975021
0.146876816427
0.147400054585
0.147952042664
0.148548403864
0.149180011951
0.149846524402
0.150539221263
0.151250553191
0.151976568893
0.152719521321
0.153487998219
0.154283395079
0.155105678249
0.155954543484
0.156828734282
0.15772628805
0.158645143388
0.15958308001
0.160537144793
0.161503189752
0.162475820485
0.163448771066
0.164415504698
0.165369663695
0.166305139373
0.167215847904
0.168095385852
0.168936686758
0.169731901394
0.170472904518
0.171152471841
0.171765284068
0.172307299516
0.172772932859
0.173155954305
0.17346096384
0.173693993471
0.173867721672
0.173986504431
0.174054280518
0.1740788941
0.17407572875
0.174056475261
0.174020210735
0.173911467859
0.173737538308
0.173537449885
0.173381494176
0.173287191642
0.173236796574
0.173197642949
0.173133275342
0.173043583184
0.172971837574
0.172922789757
0.17290166766
0.142166498753
0.142184016601
0.142216379245
0.14225213088
0.14230329431
0.14235572849
0.14241837239
0.142491991392
0.142574114277
0.142691803169
0.142824355456
0.142980123297
0.143153124157
0.143329767329
0.143510057362
0.143714995788
0.143946517954
0.144193868434
0.144460849809
0.144755208514
0.14508306058
0.145448124158
0.145851012449
0.146287596672
0.146771368717
0.147306534731
0.147867147146
0.148464533439
0.149098887372
0.149763155999
0.150462860991
0.151178634293
0.15190525914
0.15265211858
0.153427585636
0.154231965448
0.155064172408
0.155923565358
0.156809147354
0.157719357411
0.158652316618
0.159605621273
0.160575954645
0.161558909513
0.162549034841
0.163540142177
0.164525788917
0.165499620255
0.166455401131
0.16738686017
0.168287458485
0.169150145306
0.169967409514
0.170732041379
0.171438340677
0.172082257133
0.172659105051
0.173158876116
0.173569621839
0.173906677609
0.174160608697
0.174344341087
0.174451215897
0.174482985108
0.174451061708
0.174378636889
0.174296221673
0.174288920472
0.174213293968
0.17394473134
0.17358377082
0.173346796627
0.173242921233
0.173224100902
0.173223910973
0.173146931017
0.172989482781
0.172882684559
0.172808358253
0.172781956024
0.142000436648
0.142014571289
0.142041199574
0.142086184477
0.142148163096
0.142202064068
0.142266814075
0.14234763574
0.142429119156
0.142544544521
0.142688684969
0.142848936405
0.143022601726
0.1432025197
0.143390574674
0.143599041638
0.143830149202
0.144075445497
0.144340712652
0.144632601127
0.144957343569
0.145321287591
0.145733808812
0.146182020652
0.146662237294
0.147198431959
0.147768022281
0.148365565545
0.149008894922
0.149679329907
0.150374671242
0.151089723379
0.151820934858
0.152577005872
0.153361571687
0.154175622443
0.155018541384
0.155889551386
0.156787722811
0.15771174124
0.158660014788
0.159630195116
0.160618672533
0.161620706804
0.162630761433
0.163642767704
0.164650410562
0.165647302469
0.166626995715
0.167582973105
0.168508610413
0.169397133717
0.170241880917
0.171037060047
0.171778380011
0.172461764455
0.173082989028
0.173631681371
0.174082935806
0.174494370688
0.17479787843
0.175003686917
0.175094009954
0.175070062549
0.174947821258
0.174759862041
0.174528675874
0.174601828535
0.174688362615
0.174249974397
0.173556377214
0.173196799901
0.173113881914
0.173196943879
0.173321815839
0.17323093918
0.172886346438
0.172738998669
0.172628681494
0.172613293994
0.141811313616
0.141822648933
0.141840661523
0.141890738781
0.141954505711
0.142016977434
0.142086579146
0.142175548059
0.142265498615
0.142381016743
0.142530751858
0.142694573627
0.142868803055
0.143048489486
0.143246872558
0.143466152514
0.143697937908
0.143941941158
0.144206924091
0.144498066971
0.144819728385
0.145178257706
0.14559286913
0.146061459994
0.146549277949
0.147077024522
0.147657743537
0.148262614111
0.14890088845
0.149576253035
0.150275605425
0.150991816684
0.151728122882
0.15249358482
0.153288800768
0.154113831938
0.154968459484
0.155852129777
0.156764159987
0.1577033704
0.158668304014
0.15965684414
0.160665329931
0.161688694771
0.162721262762
0.163757166095
0.164790314966
0.165814251486
0.166822174377
0.16780722391
0.16876279326
0.169682826511
0.170562156943
0.171396411717
0.172180658949
0.172907026865
0.173584019595
0.174221724837
0.174729925189
0.175416370664
0.175766426326
0.175966721716
0.175989304436
0.175842299845
0.175535247766
0.175108498818
0.17443606398
0.174592274582
0.174764358286
0.1747640588
0.17319856233
0.172689190885
0.172747202841
0.173082935602
0.173609272982
0.173478589036
0.172649196296
0.172518640675
0.172336762406
0.172395954442
0.141600263095
0.141613286639
0.141636485067
0.141676187597
0.141734881794
0.141803201925
0.141878964604
0.141972883177
0.142076079235
0.142195618005
0.142350185671
0.142517490405
0.14269387378
0.142874159205
0.143076763215
0.143306433976
0.143543641972
0.143790516987
0.14405728139
0.144349532282
0.144670490904
0.145024389024
0.145435561495
0.145917105315
0.146421632991
0.14694892269
0.147533820607
0.148148509537
0.148785505235
0.149459793769
0.150157929521
0.150877594329
0.151625086768
0.152401943342
0.153208752649
0.154045916852
0.154913546583
0.155811095698
0.156738109263
0.157693900112
0.158677124507
0.159685694855
0.160716043564
0.161762976482
0.1628207434
0.163883797853
0.164946434055
0.166002089125
0.167043388609
0.168062979297
0.169054442748
0.170013196236
0.170936465029
0.171820431212
0.172654041664
0.173418363438
0.174188533125
0.174998258125
0.175243278672
0.175374342272
0.175569792995
0.175732496885
0.17575235216
0.175624382839
0.175381781269
0.175070454959
0.174748124884
0.174610873148
0.174538422158
0.173920758936
0.1731570502
0.172880395351
0.173048441528
0.173567805532
0.174477655216
0.174771931591
0.171480543432
0.172109015577
0.171826011894
0.172180874409
0.141362478328
0.141377281304
0.141410804951
0.141441151985
0.141493721117
0.141564031574
0.141644915926
0.141745167682
0.141864137324
0.141987476868
0.142145990396
0.142317294788
0.142497557115
0.142681860592
0.142888013511
0.143123534921
0.143366788246
0.143619282414
0.14389003159
0.144184825575
0.144507330822
0.144860486468
0.145264511809
0.145746259972
0.146275891616
0.146813321901
0.147389633896
0.1480191843
0.148667086167
0.14933118192
0.150026404395
0.150753096338
0.151511408023
0.152300715286
0.153120602752
0.153971285573
0.154853083315
0.155765938302
0.156709429796
0.157683122288
0.158686215517
0.159716715665
0.160770974496
0.161843729832
0.162929369532
0.164022977151
0.165119527569
0.166212359258
0.167293136013
0.168353627603
0.169387910647
0.170394200335
0.171373400809
0.172319729293
0.173206215218
0.173978789038
0.174664442802
0.174872089108
0.175089806528
0.175291947225
0.175463644212
0.175597575037
0.175611681428
0.175486461985
0.175245974639
0.174926976625
0.174575404556
0.174271444511
0.17399630095
0.173553193867
0.173057737705
0.172742311708
0.172740291679
0.172983088657
0.173263218007
0.1726791078
0.172844011712
0.17312507317
0.17045138682
0.172105845784
0.141093376678
0.141107934635
0.141141218158
0.141174044824
0.141224795864
0.141297260349
0.141381403498
0.141483446847
0.141617659224
0.141753453506
0.141915904851
0.142092232422
0.142278306287
0.142469620307
0.142681219496
0.14292073643
0.143169195369
0.143428249666
0.143704411049
0.144002988257
0.144328053999
0.144683076754
0.145082767258
0.145559237158
0.146106760259
0.146664502431
0.147236806376
0.147862471934
0.148522033021
0.149193930453
0.149888302251
0.150619483097
0.15138770294
0.152189894682
0.15302390348
0.1538892802
0.15478658595
0.155716048587
0.156677583188
0.15767084875
0.158695426431
0.159749775644
0.160830215066
0.161931189749
0.16304725312
0.164174744269
0.165310105039
0.166446500015
0.167573652128
0.168682024363
0.169766716186
0.170830409287
0.17188027142
0.172913099669
0.173898630503
0.174229138114
0.174472793331
0.17472493223
0.174940126915
0.175117324688
0.175243096925
0.175306633323
0.175265909897
0.175103924195
0.174836484563
0.17449407245
0.17411303921
0.173731937062
0.17334520348
0.172893530954
0.17239341359
0.17198389263
0.171794178639
0.171777017297
0.17180067541
0.171658514255
0.171777290467
0.171337690159
0.172287856564
0.173931296367
0.140794752983
0.140808755653
0.140843907006
0.140878033023
0.140930144897
0.141004008259
0.141091061252
0.141191737799
0.141330514238
0.141483884067
0.141655313353
0.141838532483
0.142032498657
0.142235041526
0.142453405839
0.142697267101
0.14295106051
0.14321742131
0.143499987784
0.14380352441
0.144132086861
0.144489640667
0.144887629313
0.145357013303
0.145908847935
0.146496244296
0.147081750291
0.147698044434
0.148355828959
0.149033360923
0.14973436996
0.150474510211
0.151253635808
0.152068953757
0.152917961186
0.153799458671
0.15471355747
0.155661025181
0.15664209448
0.157656697508
0.158704587424
0.159784689349
0.160893685622
0.162025622281
0.163174795819
0.164339244465
0.165518104236
0.166704748516
0.167886142168
0.169050592509
0.170192925951
0.171321036024
0.172451619833
0.173509423673
0.173742046324
0.173992842902
0.174278453987
0.174517629182
0.174700817353
0.174830793497
0.174897209192
0.174886197812
0.17477635655
0.17455677881
0.174236638563
0.173837580553
0.173385239718
0.172902739673
0.172395616045
0.171854586661
0.171280004991
0.170740141654
0.170329869216
0.170054264989
0.169872543811
0.169743158878
0.169863416503
0.170520427776
0.172518038112
0.174880941107
0.140469510613
0.140481984022
0.140513111246
0.140551892278
0.140610126947
0.140685894592
0.140777616225
0.140878864086
0.141018581873
0.141183425565
0.141363368125
0.141553273967
0.141753998727
0.141971434378
0.142200579756
0.142449489752
0.142709653682
0.142985077632
0.143275598805
0.143585454993
0.143918688439
0.144279431933
0.144677564816
0.145141472173
0.145690909119
0.146299551348
0.146910029431
0.147527227161
0.148178299889
0.148856332249
0.14956572376
0.150316111002
0.151107241148
0.151936229792
0.152801293164
0.153700615301
0.154633330827
0.155600241686
0.156602530063
0.157640196574
0.158713308857
0.159821445674
0.160961681098
0.162127524811
0.163311977318
0.16451541988
0.165743383374
0.166989516736
0.168233548769
0.169463633903
0.170670255261
0.171874711025
0.172996745475
0.173274531198
0.173530534454
0.173775197571
0.174021100948
0.174217327166
0.174348115562
0.174409618155
0.174393363193
0.174288676307
0.174084120107
0.173774092689
0.173364677529
0.172870995991
0.172311369333
0.171702052865
0.171051328035
0.170360509943
0.169639216004
0.168896772
0.168180662111
0.167536014204
0.166964672566
0.166495780773
0.166370987996
0.166997273892
0.169111499342
0.171109215078
0.140121644
0.140132822658
0.140158292826
0.140202255287
0.140265839869
0.140343364409
0.140439079432
0.140545213509
0.140683531576
0.140855277292
0.141041549055
0.141236958917
0.141441714755
0.141669693239
0.141915486617
0.142172662127
0.142440537259
0.142726490841
0.143028036533
0.143346659933
0.143686612034
0.144051493946
0.144451547572
0.144912222918
0.145454495455
0.146067288199
0.146704622327
0.147339954395
0.147993010518
0.148672299489
0.149385471593
0.15014469539
0.150948052452
0.151790421098
0.152672880359
0.153591757167
0.154544266965
0.155532495389
0.156557951882
0.157620998544
0.158721587651
0.15985971276
0.161033332546
0.162236664347
0.163463155254
0.164713530318
0.165993060056
0.167294970331
0.168608162494
0.169925108113
0.171205740557
0.17241171143
0.172728815015
0.173009757222
0.17326639487
0.173489543032
0.173676646949
0.173804482989
0.173856308743
0.173824680483
0.173703063714
0.173484319661
0.173162053602
0.172733719238
0.172203499962
0.17158131465
0.170879238038
0.170107806776
0.169273034038
0.16837620321
0.167422019787
0.166371679898
0.165230775597
0.164040132776
0.162786075472
0.161450396595
0.160090412249
0.158686968042
0.1568734431
0.153530935236
0.139753103845
0.139764148596
0.139788190665
0.139836749179
0.139901056859
0.139977931177
0.140072913889
0.140185528116
0.140322245073
0.140498537588
0.140690268691
0.140891055724
0.14110076366
0.141333876919
0.14159442402
0.141863890436
0.142141912191
0.142438500298
0.142752504685
0.143083249919
0.143433486677
0.143804383934
0.144208042489
0.144668660405
0.145204987373
0.145815449666
0.146468747974
0.1471259451
0.147785959264
0.148469341894
0.149192219767
0.149959392439
0.150773316077
0.151630664602
0.152531518705
0.153471003772
0.154445220818
0.155456616574
0.15650709613
0.157597590382
0.158728306829
0.159899552413
0.161111078985
0.162359536029
0.163635831596
0.164932560282
0.166255647737
0.167611113953
0.169007707934
0.170459962514
0.171771695176
0.172117871407
0.172412460402
0.172693374107
0.172926525185
0.173101673353
0.173214033757
0.173250648853
0.173198874341
0.173051401339
0.172803112811
0.172449306861
0.171986239254
0.171412594091
0.170730695233
0.169945899828
0.169064342052
0.168090290111
0.167023990656
0.165860538159
0.164594995624
0.16315350259
0.161465385746
0.159521744766
0.157244731924
0.154469565599
0.150970283829
0.146470672345
0.140931783566
0.139218267521
0.139360882088
0.139372441932
0.139397606042
0.139450909152
0.139515260006
0.139590530826
0.139682092351
0.139799014206
0.139932233645
0.140111323123
0.140308543795
0.140514869078
0.140730653191
0.140970058473
0.141240805798
0.141522958982
0.141813188249
0.142121305576
0.142447245836
0.142791541038
0.143155814395
0.143535763562
0.143944541722
0.14440790469
0.14494108938
0.1455473501
0.146207463339
0.146882196029
0.147560466063
0.148253268675
0.148985598433
0.149763227485
0.150586366007
0.151454608562
0.152371891479
0.153334827154
0.154334326635
0.15537147931
0.156448812829
0.157568625544
0.158732442987
0.159941394258
0.161198512241
0.162499597354
0.163824317687
0.165161955969
0.166527382718
0.167944823266
0.16946714348
0.171113390773
0.171480842445
0.171768249555
0.172060428429
0.172310254178
0.17249019285
0.172591718929
0.172608873784
0.17253306158
0.172355963436
0.172072000264
0.171677355847
0.1711688433
0.17054388779
0.169801043469
0.168940298769
0.167962421985
0.166867241523
0.1656513527
0.164305604543
0.162812236493
0.161140422089
0.15923765276
0.156928794737
0.154063269976
0.150472966445
0.145738621502
0.13902690763
0.128551758875
0.109182397658
0.0627472628465
0.138937390527
0.138949381696
0.13897777891
0.139036481592
0.139101672603
0.139175865928
0.139266086691
0.1393844207
0.139513300161
0.139692551687
0.139894832251
0.140106593151
0.140328480742
0.140574345696
0.140853390356
0.141147684416
0.141452542373
0.141773594591
0.142111195033
0.142468921956
0.142849955854
0.143243041696
0.143658142062
0.144126183312
0.144660090169
0.145262400001
0.145923026629
0.146605774039
0.147306375662
0.148022613999
0.148765477483
0.149550053687
0.150385368717
0.151269463285
0.152199134455
0.153181062858
0.154207610869
0.155273562438
0.156381408594
0.157533263775
0.158732671224
0.159986124132
0.161299561755
0.162656804622
0.164027296396
0.16540762565
0.166829178505
0.168331692007
0.169784405634
0.170919528346
0.171182640257
0.171414287476
0.171656390712
0.171842470695
0.171940682977
0.171942680263
0.171842709888
0.171634725413
0.171313516562
0.170875366254
0.170317549345
0.169637601572
0.168833012769
0.167901173693
0.166839144446
0.165642821358
0.164305337284
0.162814802194
0.161151433741
0.159283827476
0.15716304529
0.154721139059
0.151740903942
0.147908548012
0.142932542687
0.136209340803
0.126506656267
0.111418421521
0.0860775447806
0.0440410266587
0.138471840321
0.138484155627
0.138515692507
0.138580237404
0.138646073957
0.138722712629
0.138813530443
0.138931609789
0.139059531555
0.139239941834
0.139447261651
0.139664223598
0.139891891445
0.140143605507
0.14042920343
0.140733309586
0.141055098084
0.141391534813
0.141741713027
0.1421128068
0.142511474236
0.142923221731
0.143347109487
0.143819628591
0.144357954225
0.144959440327
0.145619771124
0.146305971361
0.147019216981
0.147763484535
0.148532173049
0.149328843178
0.150166117941
0.151062039047
0.152012098696
0.153013198344
0.154064428502
0.155160218712
0.156300641679
0.157488412748
0.158729607689
0.16003824215
0.161414492125
0.1628272003
0.164250898771
0.165698177881
0.167229683359
0.168811643677
0.170089973089
0.170527654791
0.170776316118
0.170988540711
0.171166139067
0.171263014653
0.171256065549
0.171137037812
0.170901080139
0.170544371422
0.170064020356
0.169457858792
0.168723916447
0.167859813271
0.166862296451
0.165726849745
0.164447119316
0.163013878777
0.161413345509
0.159624748409
0.157616956422
0.155343652
0.152735911723
0.149689898401
0.146052517828
0.141418823274
0.13526399933
0.127006487097
0.115535198825
0.0989634160336
0.0739756041946
0.0395343306218
0.137955743571
0.137970303965
0.138003265284
0.138067900283
0.138138043988
0.138222992586
0.13831891561
0.138440252754
0.138574623652
0.138752023579
0.138963612373
0.139185650819
0.139418978913
0.139676158581
0.139967073577
0.14027710858
0.140612383441
0.140968124613
0.141334195152
0.141720858836
0.142136530374
0.14257154127
0.143013281424
0.143488686648
0.144031738479
0.144636119571
0.145297948762
0.1459884093
0.146708227078
0.147472528445
0.148271130689
0.149093539149
0.149942257234
0.150842299187
0.15180397628
0.152826474963
0.153904006921
0.155030711552
0.156204800748
0.157431547696
0.158725345412
0.160099708961
0.161540305357
0.163015252964
0.164517572313
0.16607295968
0.167684180162
0.169032030348
0.169641822945
0.169982219698
0.17026490796
0.170458275281
0.170556421558
0.170547662983
0.170418404402
0.17016182907
0.169775230304
0.169257237572
0.16860691629
0.167823279311
0.166904721987
0.165848432115
0.164649839197
0.163302030838
0.161794962799
0.160114256221
0.158239391243
0.156141108062
0.153777730485
0.151089879855
0.147992639425
0.144363530214
0.14002617461
0.134689176442
0.127756312755
0.118486437836
0.106036852114
0.0890477680923
0.0650763133287
0.0347509687682
0.137395112587
0.137413470881
0.137446628642
0.137504783669
0.137582365278
0.137676262934
0.137780296622
0.137909249004
0.138056444536
0.138230114473
0.138442818264
0.138669007894
0.138907975449
0.139170770257
0.139467299347
0.139783736243
0.14012689334
0.140500091155
0.140885528471
0.141291820746
0.141725213962
0.142183624793
0.14265503495
0.143145574544
0.143687953633
0.144294723087
0.144958856999
0.145655307369
0.146380800168
0.147157179909
0.147978370956
0.148834011514
0.149708250508
0.150616913091
0.151584939231
0.152620474402
0.153721276079