/*--------------------------------*- C++ -*----------------------------------*\
| =========                 |                                                 |
| \\      /  F ield         | OpenFOAM: The Open Source CFD Toolbox           |
|  \\    /   O peration     | Version:  v1806                                 |
|   \\  /    A nd           | Web:      www.OpenFOAM.com                      |
|    \\/     M anipulation  |                                                 |
\*---------------------------------------------------------------------------*/
FoamFile
{
    version     2.0;
    format      ascii;
    class       volVectorField;
    location    "950";
    object      U;
}
// * * * * * * * * * * * * * * * * * * * * * * * * * * * * * * * * * * * * * //

dimensions      [0 1 -1 0 0 0 0];


internalField   nonuniform List<vector> 
6400
(
(-0.000119252648931 -0.000154003231224 0)
(-0.000312078092298 -0.000109773582574 0)
(-0.000450163901473 -8.39239404595e-05 0)
(-0.000592864199355 -7.13061830287e-05 0)
(-0.000698742986601 -4.62520503385e-05 0)
(-0.00077680342474 -2.78020564607e-05 0)
(-0.000824497865483 -2.04954283534e-05 0)
(-0.000865440198597 -2.87733848017e-05 0)
(-0.000949360429347 -3.80127082332e-05 0)
(-0.00103016108998 -3.55520214819e-05 0)
(-0.00107452995341 -3.17262909037e-05 0)
(-0.00114580535469 -3.1909132627e-05 0)
(-0.00121027315971 -2.81847734412e-05 0)
(-0.00126235584246 -2.29510193299e-05 0)
(-0.00130272136394 -2.06160319763e-05 0)
(-0.00134356552638 -2.24922548203e-05 0)
(-0.00139088998637 -2.28159998216e-05 0)
(-0.00143249394093 -1.99009908871e-05 0)
(-0.00146553601481 -1.63100028793e-05 0)
(-0.00149798684297 -1.50499531883e-05 0)
(-0.00153695196929 -1.8524228696e-05 0)
(-0.00158038158645 -2.17161888185e-05 0)
(-0.00162325193216 -2.14647160494e-05 0)
(-0.00166113720074 -1.97912641151e-05 0)
(-0.00169565717045 -1.76531981514e-05 0)
(-0.00172822619523 -1.55236626224e-05 0)
(-0.00175955185635 -1.41824911679e-05 0)
(-0.00178754497196 -1.2636703685e-05 0)
(-0.0018110089494 -1.07995047918e-05 0)
(-0.00183044925163 -9.33733253141e-06 0)
(-0.00184637252326 -8.64587920334e-06 0)
(-0.00186195099597 -7.69283616116e-06 0)
(-0.00187721736123 -6.34495715984e-06 0)
(-0.00188985480998 -5.94701058042e-06 0)
(-0.00190147332987 -5.63800536472e-06 0)
(-0.00191500858787 -5.10139324046e-06 0)
(-0.00192509626246 -4.76304859268e-06 0)
(-0.00192852744312 -3.84606873249e-06 0)
(-0.00193583961553 -2.28260847392e-06 0)
(-0.00194469651087 -8.25424385978e-07 0)
(-0.00194651431208 -3.96850202824e-07 0)
(-0.00194035655523 8.23535903657e-07 0)
(-0.00193189450856 3.79146210813e-06 0)
(-0.0019225874081 6.05783141029e-06 0)
(-0.00191029218044 7.45047919063e-06 0)
(-0.0018947750376 9.01598018821e-06 0)
(-0.00187572067373 1.07728032054e-05 0)
(-0.00185256287335 1.28764480862e-05 0)
(-0.00182522339899 1.50245909364e-05 0)
(-0.00179340215006 1.62745559926e-05 0)
(-0.00175832104861 1.65841708278e-05 0)
(-0.00172243387323 1.85067449469e-05 0)
(-0.0016811570496 2.34899957964e-05 0)
(-0.00163484633355 2.73626071892e-05 0)
(-0.00157710627927 3.11063346883e-05 0)
(-0.00150462613362 3.58525151898e-05 0)
(-0.00142865671055 3.73566362205e-05 0)
(-0.00135732179334 3.822412113e-05 0)
(-0.00128110032018 4.24093122311e-05 0)
(-0.00118698920949 4.62770919218e-05 0)
(-0.00108860223421 4.81523730677e-05 0)
(-0.000988470450711 5.51393392684e-05 0)
(-0.000894083909103 6.96615254163e-05 0)
(-0.000757233410556 7.99113736557e-05 0)
(-0.000568847445925 6.67957694808e-05 0)
(-0.000433191200396 4.86642993265e-05 0)
(-0.000352486922537 4.06764403462e-05 0)
(-0.00028877530447 3.61272168212e-05 0)
(-0.000227527423249 3.35855201732e-05 0)
(-0.000163428791817 3.10711668805e-05 0)
(-0.000104502632751 2.71208563917e-05 0)
(-5.42636661791e-05 2.12687322885e-05 0)
(-1.87200995846e-05 1.53077813341e-05 0)
(5.58738286857e-06 1.00004217712e-05 0)
(1.87801444867e-05 4.71788751549e-06 0)
(2.76062848296e-05 1.70226073575e-06 0)
(2.42102606355e-05 1.10176980169e-07 0)
(3.04032381523e-05 -2.46329475099e-06 0)
(1.45232968136e-05 -2.95121813041e-06 0)
(1.12880736534e-05 -6.57442411922e-06 0)
(-4.63455043116e-05 -0.000222134167977 0)
(-0.000194645121248 -0.000242274107928 0)
(-0.000335914898645 -0.000211539835793 0)
(-0.000429745789419 -0.000169297445862 0)
(-0.0006032586307 -0.000161589811968 0)
(-0.000748451166731 -0.000113873842249 0)
(-0.000833826230359 -7.59843395204e-05 0)
(-0.000894894555792 -9.1088002376e-05 0)
(-0.000959270843296 -0.000110647035154 0)
(-0.00102923787503 -0.000106875928404 0)
(-0.00109463633011 -9.80381775534e-05 0)
(-0.00115432188659 -9.20593373178e-05 0)
(-0.00120939740742 -8.09312825655e-05 0)
(-0.00125817871381 -6.85070504995e-05 0)
(-0.00130434902969 -6.27312113673e-05 0)
(-0.00134762425815 -6.99563800164e-05 0)
(-0.00139112816161 -7.2158788736e-05 0)
(-0.0014288535879 -5.64666058481e-05 0)
(-0.00144391968134 -4.47185122328e-05 0)
(-0.00148272159432 -4.60903317457e-05 0)
(-0.00153013461759 -5.72539785622e-05 0)
(-0.00157737909865 -6.80686641643e-05 0)
(-0.00162481903777 -6.66661618005e-05 0)
(-0.00166473791762 -5.82620313651e-05 0)
(-0.00169325959418 -5.17425850973e-05 0)
(-0.00172867592937 -4.75814962684e-05 0)
(-0.0017613904773 -4.29223142545e-05 0)
(-0.00178809787916 -3.75234150968e-05 0)
(-0.00181098381598 -3.2379001896e-05 0)
(-0.001831149612 -2.82256105138e-05 0)
(-0.00184806190619 -2.55475964935e-05 0)
(-0.00186048569679 -2.24756963737e-05 0)
(-0.00187577678628 -1.83761949373e-05 0)
(-0.00188801267082 -1.76366108901e-05 0)
(-0.00189846162879 -1.79067785028e-05 0)
(-0.00191534695081 -1.53979022065e-05 0)
(-0.00192392454806 -1.38499355879e-05 0)
(-0.00192723295916 -1.24417494182e-05 0)
(-0.00193666474179 -8.75228178166e-06 0)
(-0.00194968301608 -3.26105802859e-06 0)
(-0.00195230779343 3.59364392945e-06 0)
(-0.00193005552259 9.63247780559e-06 0)
(-0.00191308465453 1.36781215508e-05 0)
(-0.00190622203149 1.69060720781e-05 0)
(-0.00189560619156 2.04771261223e-05 0)
(-0.00188283825658 2.48863359366e-05 0)
(-0.00186714433416 3.02161877677e-05 0)
(-0.00184628109376 3.62331855149e-05 0)
(-0.00182318908458 4.26791426099e-05 0)
(-0.00179509213803 4.89358164606e-05 0)
(-0.00175809878805 5.43446927332e-05 0)
(-0.00170920199479 5.95050688853e-05 0)
(-0.00166254373073 6.61956016741e-05 0)
(-0.00163431641638 7.75728098536e-05 0)
(-0.00157297326326 9.18172363835e-05 0)
(-0.00150506019623 0.000103360055162 0)
(-0.0014428465651 0.000110021584015 0)
(-0.00136938782896 0.000116787991319 0)
(-0.00128592387521 0.00012822829399 0)
(-0.00119630556632 0.000141101388108 0)
(-0.00109624212224 0.000153572643188 0)
(-0.000973399263392 0.000169954764426 0)
(-0.00087632055375 0.000208443352518 0)
(-0.000734833803307 0.000240051092745 0)
(-0.000561756573514 0.00021588734642 0)
(-0.000407686118548 0.000153818475581 0)
(-0.000316473750321 0.000113836199456 0)
(-0.000264993916063 0.000102196157969 0)
(-0.000205700407337 9.82131666632e-05 0)
(-0.000147628375466 9.49187339712e-05 0)
(-8.95202689752e-05 8.31043470487e-05 0)
(-4.15974129232e-05 6.33355889254e-05 0)
(-7.71113329575e-06 4.18546889686e-05 0)
(1.46658620831e-05 2.7706856389e-05 0)
(2.87656423979e-05 1.55242131441e-05 0)
(3.6297412529e-05 6.2546779172e-06 0)
(3.80979078958e-05 -1.73455291308e-07 0)
(3.55703187827e-05 -7.94244524232e-06 0)
(2.3995932764e-05 -1.4021649618e-05 0)
(1.18615216398e-05 -2.77648005039e-05 0)
(-6.58789386432e-05 -0.000382235365893 0)
(-0.000184349762012 -0.000403977984552 0)
(-0.000287380503627 -0.000365875504783 -8.20907996525e-29)
(-0.000466330306688 -0.000354365916383 7.42343926313e-29)
(-0.000626495801968 -0.000337199353706 6.38277259409e-29)
(-0.000735125179218 -0.000268370571294 -5.76023986106e-29)
(-0.000816115470182 -0.000150956204649 5.70480733567e-29)
(-0.00088011488564 -0.000153411598444 -5.43168636895e-29)
(-0.00094614902058 -0.000181261861364 0)
(-0.00101990752377 -0.000180237711013 0)
(-0.00109086055718 -0.000166089172807 0)
(-0.00115346232218 -0.000149154747662 0)
(-0.00120877570898 -0.000130463102515 0)
(-0.00125665877839 -0.000116129114001 0)
(-0.00130483384486 -0.000108356367789 0)
(-0.0013494716501 -9.930111111e-05 0)
(-0.00130370323015 -8.20536994582e-05 0)
(-0.00129501613257 -7.10011382318e-05 0)
(-0.00133996853323 -7.96875192524e-05 0)
(-0.00141502994525 -0.000104117059726 0)
(-0.00152873726169 -0.000122714590404 0)
(-0.00158927546851 -0.000120979310004 0)
(-0.00162027791412 -0.000109140643397 0)
(-0.0016599848504 -9.6576199724e-05 0)
(-0.00169920481851 -8.70661475953e-05 0)
(-0.00173133239621 -7.95802626067e-05 0)
(-0.00176063450116 -7.09720812362e-05 0)
(-0.00178771316182 -6.20665876096e-05 0)
(-0.00181117394312 -5.40042685918e-05 0)
(-0.00183094676688 -4.73759300797e-05 -9.20947050149e-29)
(-0.00184915588656 -4.16469104885e-05 8.87161271372e-29)
(-0.00185866197339 -3.64319231597e-05 0)
(-0.00187327488423 -3.09672887936e-05 0)
(-0.00189240359366 -2.72429926589e-05 0)
(-0.00189175197553 -2.90166939912e-05 0)
(-0.00190916862595 -2.8512554087e-05 0)
(-0.00192842928986 -2.31954333158e-05 0)
(-0.00192560471727 -2.02636360443e-05 0)
(-0.00193549460208 -1.73354842705e-05 0)
(-0.00194897096352 -7.83291708452e-06 0)
(-0.0019520971262 7.39269685754e-06 0)
(-0.00194528888472 1.93725274978e-05 0)
(-0.00193580225928 2.43281764277e-05 0)
(-0.00192589345182 2.81149240514e-05 0)
(-0.00191333790469 3.38643410911e-05 0)
(-0.00189739620171 4.11383601065e-05 0)
(-0.00187807299764 4.98333399404e-05 0)
(-0.00185523938672 5.93972585769e-05 0)
(-0.00182888798469 6.97840437957e-05 0)
(-0.00179856245662 8.13364816304e-05 0)
(-0.00176359488935 9.31366767068e-05 0)
(-0.00172408618529 0.00010307058545 0)
(-0.00168067654186 0.000112246599454 0)
(-0.00162841723417 0.000128706459262 0)
(-0.00156686170248 0.000149643433506 0)
(-0.00150791294517 0.000166523803958 0)
(-0.00144183322037 0.000181065870191 0)
(-0.00136454252067 0.000197601787282 0)
(-0.00127784017439 0.000216969705756 0)
(-0.00118208700881 0.00023886118285 0)
(-0.00107416427907 0.000264863003746 0)
(-0.000960851899306 0.000302124059546 0)
(-0.00083715326283 0.000363678055343 0)
(-0.000673439504217 0.000396809246632 0)
(-0.000487326107031 0.000330958966606 0)
(-0.00037196156088 0.000251688406813 0)
(-0.000297381870792 0.000199844594163 0)
(-0.000227699544364 0.000170331561808 0)
(-0.000166779536535 0.000158633106477 0)
(-0.000109818772683 0.000147991002437 0)
(-5.73176708744e-05 0.000126228250358 0)
(-1.5584372746e-05 9.6608354907e-05 0)
(1.49005100644e-05 7.066864507e-05 0)
(3.52076757883e-05 4.71848677159e-05 0)
(4.47113560944e-05 2.55859715882e-05 0)
(4.85071416106e-05 1.000602111e-05 0)
(4.79244556558e-05 -1.843204373e-06 0)
(4.250051333e-05 -1.68945193596e-05 0)
(3.18358782074e-05 -3.67982181418e-05 0)
(8.86338138414e-06 -4.24538305604e-05 0)
(-6.4745992334e-05 -0.000554684612455 0)
(-9.67508547342e-05 -0.000395344205066 0)
(-0.000234552327241 -0.00054245162331 0)
(-0.000398874586665 -0.000523376986424 0)
(-0.00055421245356 -0.00044360481353 0)
(-0.000361814629475 -0.000193776007073 0)
(-0.000461697671297 -0.00019251174801 0)
(-0.000782373399311 -0.000301518385608 0)
(-0.0009057591046 -0.000295825183615 0)
(-0.000998809491927 -0.000265671596957 0)
(-0.00108101861028 -0.000240083982293 0)
(-0.00115071424873 -0.000211961784704 0)
(-0.00121025157558 -0.000183613789238 0)
(-0.00125449301433 -0.000150592249822 0)
(-0.00123805059356 -0.000113320506028 0)
(-0.00121492562483 -8.94072022614e-05 0)
(-0.00122830524419 -8.88608024728e-05 0)
(-0.00129181512374 -0.000118369686841 0)
(-0.00140609683909 -0.000161051617559 0)
(-0.00149868744456 -0.000190622312616 0)
(-0.00154088573385 -0.000187929916599 0)
(-0.00158352328714 -0.000168317581087 0)
(-0.00162658823909 -0.000150261098508 0)
(-0.00166464065988 -0.000135732267755 0)
(-0.00169912978337 -0.0001223453916 0)
(-0.00173050476968 -0.000109992252482 0)
(-0.00175934563124 -9.84690801064e-05 0)
(-0.00178791877438 -8.69539410836e-05 0)
(-0.0018103503396 -7.58781407559e-05 0)
(-0.00183292926673 -6.62106180427e-05 0)
(-0.00184566375727 -5.78913663487e-05 0)
(-0.00186327333373 -4.9665074288e-05 0)
(-0.0018674249423 -4.15521901066e-05 0)
(-0.00188450028849 -3.89605791707e-05 0)
(-0.00190704973901 -4.06249418215e-05 0)
(-0.0019084548789 -4.14073975621e-05 0)
(-0.00192663890203 -3.67429624606e-05 0)
(-0.00194272057923 -3.02386187206e-05 0)
(-0.0019483157614 -2.3560759468e-05 0)
(-0.00195151265875 -1.04850365048e-05 0)
(-0.00195191868582 7.50779373546e-06 0)
(-0.00194746420072 2.28244085835e-05 0)
(-0.00193969817228 3.24785198653e-05 0)
(-0.00192969550632 4.00971098679e-05 0)
(-0.00191673492706 4.8857269289e-05 0)
(-0.00190045699093 5.92999954998e-05 7.49828352099e-29)
(-0.00188081323007 7.12047921667e-05 -7.52124126509e-29)
(-0.00185768980085 8.42488590813e-05 0)
(-0.00183096973392 9.83837310954e-05 0)
(-0.00180032992237 0.000113540931313 0)
(-0.0017652600958 0.000128996806115 0)
(-0.00172525728003 0.000144358123508 0)
(-0.00167976764686 0.000161908684655 0)
(-0.00162750872036 0.000184301416945 0)
(-0.00156935705788 0.000208201120196 0)
(-0.00150670482531 0.000231204289458 0)
(-0.00143651482877 0.000255538399141 0)
(-0.00135558899158 0.000282453951743 1.33870724105e-28)
(-0.0012632470054 0.000312529089193 -1.52571978931e-28)
(-0.00115853351445 0.000346863231525 0)
(-0.00103999968244 0.000388571640976 0)
(-0.000909062230204 0.000445774139894 0)
(-0.000762979380977 0.000512339263799 0)
(-0.000616479872054 0.000540776132023 0)
(-0.000481326454195 0.000483754987814 0)
(-0.000335112821159 0.000348649267168 0)
(-0.000243664979491 0.000268621769465 0)
(-0.000176819978892 0.000234823547208 0)
(-0.000118224954111 0.00021675855748 0)
(-6.69097884964e-05 0.000203425393271 0)
(-1.77572120052e-05 0.00017700261289 0)
(2.32627535821e-05 0.000137956902642 0)
(4.75631875156e-05 9.44950454141e-05 0)
(5.3956421356e-05 5.42160376326e-05 0)
(5.73182359762e-05 2.84710379461e-05 0)
(5.95389437593e-05 9.53926241055e-06 0)
(5.4338113272e-05 -9.35055988216e-06 0)
(3.56899083768e-05 -2.45387140608e-05 0)
(2.73373364934e-05 -4.66843509712e-05 0)
(9.58214467297e-06 -6.1662647047e-05 0)
(-1.29834917588e-05 -0.000573607882736 0)
(-5.63972363529e-05 -0.000479707029159 0)
(-0.000207680153093 -0.000697102861687 0)
(-0.000343978168162 -0.000643078964506 0)
(-0.00040426787251 -0.000452054203435 0)
(-0.000340108522513 -0.000263228932358 0)
(-0.000553368906209 -0.000395990023106 0)
(-0.00076099850863 -0.000486623575566 0)
(-0.000859190523262 -0.000422594487137 0)
(-0.000967603052937 -0.000364417899585 0)
(-0.00105943337936 -0.000327580360059 0)
(-0.0011382747838 -0.000284732952904 0)
(-0.00117161684543 -0.000214060783158 0)
(-0.00113074933715 -0.000141393460622 0)
(-0.00115822507632 -0.000114909641116 0)
(-0.0012178901627 -0.000125236552421 0)
(-0.00130435410291 -0.000162913228135 0)
(-0.00139674393007 -0.000210724934389 0)
(-0.00146077304274 -0.00023862249493 0)
(-0.00149416280201 -0.000237836696278 0)
(-0.00153832527876 -0.000228236210069 0)
(-0.00158606069832 -0.000212987120807 0)
(-0.00162710415062 -0.000192960537395 0)
(-0.00166492614333 -0.000173121188341 0)
(-0.00169896461549 -0.00015556569491 0)
(-0.0017294154533 -0.000140607459735 0)
(-0.0017606300311 -0.000126324707327 0)
(-0.00178460596945 -0.000112029393985 0)
(-0.00181304684396 -9.78436777998e-05 0)
(-0.00182729500972 -8.43584327719e-05 0)
(-0.00185063889268 -7.29321153583e-05 -8.85827147512e-29)
(-0.0018469501076 -6.27231275498e-05 8.47921950863e-29)
(-0.0018739235586 -5.65832888935e-05 0)
(-0.00189843790828 -5.31895401947e-05 0)
(-0.00190452381714 -5.42555206303e-05 0)
(-0.00192616511827 -5.57249046611e-05 0)
(-0.00193903888564 -5.14795811027e-05 0)
(-0.00194743897956 -4.04410899501e-05 0)
(-0.00195235387094 -2.67574054292e-05 0)
(-0.00195471512272 -1.02635036958e-05 0)
(-0.00195467186497 8.82569845908e-06 0)
(-0.00195118444275 2.64153005122e-05 0)
(-0.00194430596793 4.0080670236e-05 0)
(-0.00193437870661 5.17440713486e-05 0)
(-0.00192120902396 6.39541004013e-05 0)
(-0.00190467923479 7.76499771506e-05 0)
(-0.00188474279547 9.28505469926e-05 0)
(-0.00186128017917 0.000109374719446 0)
(-0.00183411351924 0.000127175466359 0)
(-0.00180293994321 0.000146191153576 0)
(-0.00176728623639 0.000166169961755 0)
(-0.00172652347501 0.000187367786714 0)
(-0.00167995302781 0.000211258228414 0)
(-0.00162701800217 0.000238730336782 0)
(-0.00156813063562 0.000268329670079 0)
(-0.00150297577153 0.00029973314676 0)
(-0.00142848398757 0.000334597751636 0)
(-0.00134128680811 0.000374024081423 0)
(-0.0012392650353 0.0004188095123 0)
(-0.00112062452277 0.000470528408824 0)
(-0.000984973711318 0.000531243558255 0)
(-0.000836683905143 0.000598139758509 0)
(-0.000684545541801 0.000649763450395 0)
(-0.000557344360436 0.000669545796921 0)
(-0.000439054278293 0.000618585631324 0)
(-0.00030781386848 0.000476200716056 0)
(-0.000205472678928 0.000367220705546 0)
(-0.000125141809813 0.000306890636297 0)
(-6.11565840396e-05 0.0002727714305 0)
(-7.94875190379e-06 0.000250713115283 0)
(4.04098096613e-05 0.000221253083374 0)
(7.08129425318e-05 0.000164142675045 0)
(7.3239323892e-05 9.70597144846e-05 0)
(7.38010610189e-05 5.6365338292e-05 0)
(7.58975387945e-05 2.95679971241e-05 0)
(7.43901088431e-05 3.88208827144e-06 0)
(6.00236030902e-05 -2.10401495587e-05 0)
(4.26757082794e-05 -3.90110151711e-05 0)
(3.1415591544e-05 -6.67875119379e-05 0)
(9.45566546399e-06 -7.8348445905e-05 0)
(-3.38644759648e-06 -0.000546750347178 0)
(-6.33548348497e-05 -0.000579310919114 0)
(-0.000205330461269 -0.000800237335305 0)
(-0.000298637806213 -0.000692814420604 0)
(-0.000249783530148 -0.000375869717897 0)
(-0.000343540474636 -0.000378424600905 0)
(-0.000637213934006 -0.000605796821312 0)
(-0.000726459144202 -0.000597333853713 0)
(-0.000823460212562 -0.000531607302593 0)
(-0.000930232545054 -0.000471387823367 0)
(-0.00102959477042 -0.000405029306732 0)
(-0.00101786363197 -0.000299297350134 0)
(-0.000969128396117 -0.000193155280142 0)
(-0.00103560606579 -0.000165395500701 0)
(-0.00111619983481 -0.000180161977065 0)
(-0.00123882125667 -0.000222470995803 0)
(-0.00134510283205 -0.000260952496406 0)
(-0.00141427529515 -0.000276596487224 0)
(-0.00144195737506 -0.000274524111755 0)
(-0.00149137896211 -0.000277949238215 0)
(-0.00154375731751 -0.000274840453233 0)
(-0.00158652509099 -0.000257058157875 0)
(-0.00162633201216 -0.000233725331093 0)
(-0.00166321116045 -0.000210759015789 0)
(-0.00170048988219 -0.000189690135929 0)
(-0.00173113939375 -0.00016971609238 0)
(-0.00175211045747 -0.000153552514479 0)
(-0.00178906971771 -0.000137884122965 0)
(-0.00180101922416 -0.000118914916222 0)
(-0.00183491513666 -0.000100810753299 0)
(-0.00182567420655 -8.4862599422e-05 0)
(-0.00185969429676 -7.89813192138e-05 0)
(-0.00185564884683 -7.42170753321e-05 0)
(-0.00189356683292 -7.30472679016e-05 0)
(-0.00192402180445 -7.36712210319e-05 0)
(-0.00193749549124 -7.17034472062e-05 0)
(-0.00194604485435 -6.157774839e-05 0)
(-0.00195262103415 -4.67147761006e-05 0)
(-0.0019570144645 -2.96906933692e-05 0)
(-0.00195924373544 -1.06133536577e-05 0)
(-0.00195911889953 1.01017887281e-05 0)
(-0.0019560304536 3.00216478387e-05 0)
(-0.00194963518266 4.73990963442e-05 0)
(-0.00193985275266 6.31400817042e-05 0)
(-0.00192662240965 7.90709259154e-05 0)
(-0.00190991865523 9.62215211174e-05 0)
(-0.00188971082314 0.000114848759092 0)
(-0.00186585118704 0.000134937981531 0)
(-0.00183810813338 0.000156506694516 0)
(-0.00180617777046 0.000179603006622 0)
(-0.00176962152374 0.00020432077999 0)
(-0.00172784384241 0.000231149997124 0)
(-0.00168022667817 0.000261031344069 0)
(-0.00162632993943 0.000294430446926 0)
(-0.00156579030807 0.000331260403112 0)
(-0.00149696839048 0.00037261767948 0)
(-0.00141620940101 0.000420505487865 0)
(-0.00131954494593 0.000476246065129 0)
(-0.00120407856694 0.000540383919548 0)
(-0.00106851190888 0.00061212111052 0)
(-0.000916622760388 0.000686348991856 0)
(-0.000758559319511 0.000746463431836 0)
(-0.000601001877993 0.00076991553928 0)
(-0.000491798362645 0.000803554036028 0)
(-0.000359730334631 0.000725797763043 0)
(-0.000242606617121 0.000570804461365 0)
(-0.000151173546899 0.000456686932699 0)
(-6.59990710359e-05 0.000381860077413 0)
(6.39181816288e-06 0.000331347590497 0)
(6.68985149675e-05 0.000304992988017 0)
(0.000109637777849 0.000256196104399 0)
(0.000109963301476 0.000162682940743 0)
(0.00010023405848 9.39952721018e-05 0)
(9.96418804426e-05 5.63883971104e-05 0)
(9.71412941148e-05 2.61790812739e-05 0)
(9.14571891442e-05 -6.93632987801e-06 0)
(7.05556491847e-05 -3.44086412701e-05 0)
(5.34802795353e-05 -5.51244362303e-05 0)
(3.89201102813e-05 -8.78850484121e-05 0)
(1.2188018236e-05 -9.88540355792e-05 0)
(-2.23459524866e-05 -0.000596709651502 0)
(-0.000122640680745 -0.000737119140132 0)
(-0.000253375468755 -0.000877850260207 0)
(-0.000306384513947 -0.000828422731502 0)
(-0.000242312531807 -0.00047787556557 0)
(-0.000461500470361 -0.000633591855037 0)
(-0.000633898971254 -0.000730842450956 0)
(-0.000701593892094 -0.000685005851718 0)
(-0.000794654603805 -0.000623725950834 0)
(-0.000869329698661 -0.000561556138191 0)
(-0.00100117902161 -0.000467028064716 2.59388596121e-28)
(-0.000864783557976 -0.000269632255373 -1.77108940482e-28)
(-0.000959690191768 -0.000236638814236 0)
(-0.00102122099236 -0.00024405876028 0)
(-0.00114727295091 -0.000289716730612 0)
(-0.00127404103121 -0.000338990180497 0)
(-0.00135217599075 -0.000341979256022 0)
(-0.00137297673678 -0.000317438420851 0)
(-0.00143327755708 -0.000319636297554 0)
(-0.00149804008407 -0.000329809479365 0)
(-0.00154135014906 -0.000321027884356 0)
(-0.00158520620401 -0.000299698836865 0)
(-0.00162695021978 -0.000274492665771 0)
(-0.00166544377238 -0.000247932584622 0)
(-0.00169596376709 -0.000221300305788 0)
(-0.00172193164459 -0.000197004298516 0)
(-0.00175931807586 -0.00017925585663 0)
(-0.00176496149388 -0.000162185638118 0)
(-0.00181091472864 -0.000140746452384 0)
(-0.00179994666151 -0.00011243194173 0)
(-0.0018431623923 -0.000101369273625 0)
(-0.00183881602297 -9.76801840059e-05 8.44845484268e-29)
(-0.00187691074281 -9.64435083067e-05 -8.40156066033e-29)
(-0.00190240220092 -9.93318299497e-05 0)
(-0.00193355442667 -9.66072230199e-05 0)
(-0.00194577636216 -8.49765733835e-05 0)
(-0.0019526432787 -6.9515359126e-05 0)
(-0.00195840871956 -5.19320839167e-05 0)
(-0.00196279578061 -3.25202288888e-05 0)
(-0.00196511362168 -1.12544286467e-05 0)
(-0.00196498103437 1.13623641825e-05 0)
(-0.0019620590977 3.37415167004e-05 0)
(-0.00195591663385 5.46242396687e-05 0)
(-0.00194627176634 7.43527403003e-05 0)
(-0.0019330399264 9.41487350985e-05 0)
(-0.00191621176029 0.000114961373718 0)
(-0.0018957211037 0.000137212823895 0)
(-0.00187136505587 0.000161052938484 0)
(-0.00184287333068 0.000186596106894 0)
(-0.00180995770473 0.00021401062544 0)
(-0.00177224221196 0.000243599515217 0)
(-0.00172921732568 0.000275942471696 0)
(-0.00168031309025 0.00031183440158 0)
(-0.00162487083871 0.000352060853261 0)
(-0.00156165794154 0.000397850926222 0)
(-0.00148788692957 0.000451584409674 0)
(-0.00139908336162 0.000515872501032 0)
(-0.00129071618468 0.000591740464156 0)
(-0.00116053554996 0.000677238662049 0)
(-0.00101084919124 0.000766091898371 0)
(-0.000849750441831 0.000844161635856 0)
(-0.000690005161517 0.000894985861708 0)
(-0.000545718033865 0.00092187172483 0)
(-0.000422488079096 0.000919471037987 0)
(-0.000299624808615 0.000835848709395 0)
(-0.000169257453464 0.000654060378219 0)
(-7.98903278477e-05 0.000550062762894 0)
(7.86826505161e-06 0.000476357693968 0)
(8.96710966835e-05 0.000414862669612 0)
(0.000153113753487 0.000356123992082 0)
(0.000171248430537 0.000257380736567 0)
(0.000148643348082 0.000148664063858 0)
(0.000135815223804 8.7031009495e-05 0)
(0.000126432710807 5.03333209691e-05 0)
(0.000119967746601 1.86679378777e-05 0)
(0.000107666680723 -1.84572208982e-05 0)
(9.18073135805e-05 -5.16764019766e-05 0)
(6.81959821854e-05 -7.50468645344e-05 0)
(4.87322704189e-05 -0.00011201173061 0)
(1.67402101437e-05 -0.0001286418161 0)
(-4.20627796099e-05 -0.000694453018629 0)
(-0.000163180746301 -0.000878406489087 0)
(-0.000276953229621 -0.00092758574353 0)
(-0.000214766401867 -0.000624833769351 0)
(-0.000256272095097 -0.000591835975601 0)
(-0.000505669488169 -0.000831575067287 0)
(-0.000593174198031 -0.000818677447315 0)
(-0.000679890661652 -0.000772280972284 0)
(-0.000751690109571 -0.000699960204517 0)
(-0.000847034543265 -0.000630577343654 0)
(-0.000759669398411 -0.000411591551865 0)
(-0.000853788087404 -0.000323643293737 0)
(-0.000942267452101 -0.000313075362624 0)
(-0.00102212184278 -0.000341106256789 0)
(-0.0011901372545 -0.000413578632717 0)
(-0.00128221410509 -0.000426845087458 0)
(-0.00129628090717 -0.000385154157338 0)
(-0.00135630539336 -0.000369915560906 0)
(-0.00143929779954 -0.000382996004503 0)
(-0.00149542587826 -0.000382388679968 0)
(-0.0015379607081 -0.000365357291237 0)
(-0.00157979083456 -0.000341787169205 0)
(-0.00162372373084 -0.000316564750735 0)
(-0.00166245296325 -0.000286707767574 0)
(-0.00170263229144 -0.000251831237438 0)
(-0.0017167290666 -0.000226215591317 0)
(-0.00176435361512 -0.000204709949228 0)
(-0.00177590547461 -0.000180846010296 0)
(-0.00177808867748 -0.000157321643154 0)
(-0.0018074913132 -0.000137637583531 0)
(-0.00185965862382 -0.000125289432156 0)
(-0.00186041698895 -0.000115487366851 0)
(-0.00187556075526 -0.000122612857882 0)
(-0.00192367265762 -0.000126439836441 0)
(-0.00194064842525 -0.000116013048429 0)
(-0.00195154840959 -9.69715744145e-05 0)
(-0.00195946222877 -7.70752433735e-05 0)
(-0.00196534292049 -5.69740227175e-05 0)
(-0.00196972719487 -3.54890587595e-05 0)
(-0.00197216167105 -1.21441064053e-05 0)
(-0.00197210392742 1.25916923523e-05 0)
(-0.00196925168594 3.75609505536e-05 0)
(-0.00196324866921 6.18292756014e-05 0)
(-0.00195373623062 8.5447785696e-05 0)
(-0.00194054420049 0.00010919257246 7.31013439965e-29)
(-0.00192361171632 0.000133871140995 -7.27639524482e-29)
(-0.00190279623811 0.000160003354071 0)
(-0.00187782220425 0.000187870477643 0)
(-0.00184839004811 0.000217666348837 0)
(-0.00181424156021 0.00024964042391 0)
(-0.00177507223407 0.000284225069694 0)
(-0.00173045631806 0.000322129234585 0)
(-0.00167980989956 0.000364383487032 0)
(-0.00162212785389 0.000412526120438 0)
(-0.00155536874692 0.000469122416169 0)
(-0.00147581546484 0.00053776252127 0)
(-0.00137837686116 0.000621427764641 0)
(-0.00125877518396 0.000719557172358 0)
(-0.00111699853995 0.00082567751456 0)
(-0.000957579352806 0.000928351486481 0)
(-0.000789571206121 0.00100791374012 0)
(-0.000626183565673 0.00105145283249 0)
(-0.000479368408304 0.00105727083384 0)
(-0.000354964645547 0.00102682816604 0)
(-0.000258862101116 0.000982566606305 0)
(-0.000114047204552 0.000772036494114 0)
(1.48169151261e-06 0.000636690973472 0)
(9.42349431644e-05 0.000563477631775 0)
(0.000179121960343 0.000484675369093 0)
(0.000236824345619 0.000382015648465 0)
(0.000234667523838 0.000239900737371 0)
(0.000200889771306 0.000125955587566 0)
(0.000173132895861 6.6762787765e-05 0)
(0.000149093845 3.63249297454e-05 0)
(0.000139431755015 1.08271263544e-05 0)
(0.000130986141966 -2.64472763596e-05 0)
(0.000121955215131 -7.11940658102e-05 0)
(9.19126134792e-05 -0.000104319439136 0)
(6.03724020831e-05 -0.000143500530633 0)
(2.1268721414e-05 -0.000168926373529 0)
(-5.5878315198e-05 -0.000812214799791 0)
(-0.000178845073728 -0.000990652531387 0)
(-0.000243871275907 -0.000973781958958 0)
(-0.000209446664215 -0.00068645504739 0)
(-0.000329238542923 -0.000761088258649 0)
(-0.000507752682157 -0.000936330753319 0)
(-0.000559370211863 -0.000902057380721 0)
(-0.000660635142948 -0.000856073087523 0)
(-0.000677525402777 -0.00073507289369 0)
(-0.000850494456525 -0.000713097885874 0)
(-0.000739881715138 -0.000461068903267 0)
(-0.000853733025602 -0.000410186382755 0)
(-0.0009333737908 -0.000404759644333 0)
(-0.00106789886866 -0.000467015596317 0)
(-0.00119534282037 -0.000522662013087 0)
(-0.00126978159218 -0.000493076520136 0)
(-0.00128542062515 -0.000436496372196 0)
(-0.00135998275481 -0.000437135285146 0)
(-0.00143305667911 -0.000446470330196 0)
(-0.00148796828706 -0.000434894263517 0)
(-0.00153707594932 -0.000411148891496 0)
(-0.00157775311784 -0.000382528458343 0)
(-0.00162000665832 -0.000355062120756 0)
(-0.00164626801609 -0.000324299040356 0)
(-0.00167708685062 -0.000281663182689 0)
(-0.00173036362455 -0.000253159621996 0)
(-0.0017174434954 -0.000229562550499 0)
(-0.00179411158312 -0.000205107332186 0)
(-0.00177880712816 -0.000180668547302 0)
(-0.00183989067604 -0.000168323792583 0)
(-0.00182840202247 -0.000148150761101 0)
(-0.001887595218 -0.000141919455633 0)
(-0.00191292635595 -0.000148300379453 8.65052688354e-29)
(-0.00193173913849 -0.000148489951773 -8.5180663435e-29)
(-0.00194674709384 -0.000131232678152 0)
(-0.00195823768913 -0.000108197066771 0)
(-0.00196707359167 -8.51004891543e-05 0)
(-0.0019733875222 -6.23413833262e-05 0)
(-0.00197779931173 -3.86590680799e-05 0)
(-0.00198026681806 -1.32299666332e-05 0)
(-0.00198032598901 1.37532209517e-05 0)
(-0.0019775889074 4.14238987879e-05 0)
(-0.0019716986814 6.90226846166e-05 0)
(-0.00196231325503 9.64547329986e-05 0)
(-0.00194920504617 0.000124215259729 0)
(-0.0019321863318 0.000152977665296 0)
(-0.00191099162067 0.000183301294941 0)
(-0.00188527215172 0.000215548971276 0)
(-0.00185470258861 0.000249950781814 0)
(-0.00181903977375 0.00028678406283 0)
(-0.00177804292219 0.000326579681686 0)
(-0.0017313662589 0.000370283855613 0)
(-0.00167839563705 0.000419443338481 0)
(-0.00161782970219 0.000476566501074 0)
(-0.00154709720946 0.000545458774548 0)
(-0.00146206029192 0.000630629010546 0)
(-0.00135762214023 0.000734997584827 0)
(-0.0012302657301 0.000855954026693 0)
(-0.00108151576877 0.000982860545828 0)
(-0.000912835875766 0.00110232653379 0)
(-0.00073281545912 0.00118352854544 0)
(-0.000557987275354 0.00121407308768 0)
(-0.000401504271061 0.00119626090065 0)
(-0.000270119668551 0.00114352750516 0)
(-0.000174212707818 0.00106659171869 0)
(-7.18568864571e-05 0.000942496727741 0)
(6.37452984238e-05 0.00071566630433 0)
(0.000177662217732 0.000657718907107 0)
(0.0002745352623 0.000573786110216 0)