/*--------------------------------*- C++ -*----------------------------------*\
| =========                 |                                                 |
| \\      /  F ield         | OpenFOAM: The Open Source CFD Toolbox           |
|  \\    /   O peration     | Version:  v1806                                 |
|   \\  /    A nd           | Web:      www.OpenFOAM.com                      |
|    \\/     M anipulation  |                                                 |
\*---------------------------------------------------------------------------*/
FoamFile
{
    version     2.0;
    format      ascii;
    class       volScalarField;
    location    "609";
    object      pa;
}
// * * * * * * * * * * * * * * * * * * * * * * * * * * * * * * * * * * * * * //

dimensions      [0 2 -2 0 0 0 0];


internalField   nonuniform List<scalar> 
6400
(
-0.120829758071
-0.120830811593
-0.120833780643
-0.120839589915
-0.120848239455
-0.120859753148
-0.120874200594
-0.120892115636
-0.120914005217
-0.12094055786
-0.120974255711
-0.121016615528
-0.121066902099
-0.121125457546
-0.121193522775
-0.121272691863
-0.121364239767
-0.121468672608
-0.121585671801
-0.121713370356
-0.121849619164
-0.121995550157
-0.122155272679
-0.1223333285
-0.122533032537
-0.122755144295
-0.122998593342
-0.123262738574
-0.123548216688
-0.123856326447
-0.124188314039
-0.124543950858
-0.124920212365
-0.12531385426
-0.125723784521
-0.126148521795
-0.126588713399
-0.127049485149
-0.127530291369
-0.128024276533
-0.128532566092
-0.129066229514
-0.129631469811
-0.130222105909
-0.130829201145
-0.131446460707
-0.132068952207
-0.132692843625
-0.133314517966
-0.133930780532
-0.134539019726
-0.135133795338
-0.135705527791
-0.136241490106
-0.136738967544
-0.137203116232
-0.137628191395
-0.137999998254
-0.138311759815
-0.138570439261
-0.138781409582
-0.13894650602
-0.139061274597
-0.139154384486
-0.139268762747
-0.139445785559
-0.139676399291
-0.139909385133
-0.140105862869
-0.14026264849
-0.140389773013
-0.14049860449
-0.140596399727
-0.140680873066
-0.140754326457
-0.140816695636
-0.140867381031
-0.140900084342
-0.140920760163
-0.140929422996
-0.120828284939
-0.120829406677
-0.120832083483
-0.120837736927
-0.120846888296
-0.120858881366
-0.120873409521
-0.12089059074
-0.120911643535
-0.120938005901
-0.120971402432
-0.121013138077
-0.121063268303
-0.121121891402
-0.121189669194
-0.121267868731
-0.121358737454
-0.121463076215
-0.121580245697
-0.121707830751
-0.121842763191
-0.121987292054
-0.122146343064
-0.122323934986
-0.122523362582
-0.122745372893
-0.12298844744
-0.123252349793
-0.123537784611
-0.12384572748
-0.124177115974
-0.12453239807
-0.124908714248
-0.125301809957
-0.125711347331
-0.126135865589
-0.126575538188
-0.127036359936
-0.127517812168
-0.128012161739
-0.128519328798
-0.129052773654
-0.12962052973
-0.130213139491
-0.130821148369
-0.131439517793
-0.132063223804
-0.132688681448
-0.133311834811
-0.133928074065
-0.134534638547
-0.135130063458
-0.135707333739
-0.136246019913
-0.136745468235
-0.137213327772
-0.13763667739
-0.13800482966
-0.138317043957
-0.13857564647
-0.138783043497
-0.138948748586
-0.139068153807
-0.139166118897
-0.139284679596
-0.139462313094
-0.139696021566
-0.139928408483
-0.140122928877
-0.140278689784
-0.140405073328
-0.140513780317
-0.140612206657
-0.140697745241
-0.140769941088
-0.140829861024
-0.14087646737
-0.140907844397
-0.140927750635
-0.140934367279
-0.120824092929
-0.120825910771
-0.120828273366
-0.120833398483
-0.120842147277
-0.120855360007
-0.120870850067
-0.120887236244
-0.12090698525
-0.120932440801
-0.120965136282
-0.121006149372
-0.121055761373
-0.121113977127
-0.12118100296
-0.121256865442
-0.121345585545
-0.121450959413
-0.121568565444
-0.121694824284
-0.121827243469
-0.121968417598
-0.12212595602
-0.122303732115
-0.122502516679
-0.122723220002
-0.122965703662
-0.123229333895
-0.123514341544
-0.123821678557
-0.124152183004
-0.124506713249
-0.124883125788
-0.125274661349
-0.125682028241
-0.126106924276
-0.126545894863
-0.12700515723
-0.127486873689
-0.127983195767
-0.128494832415
-0.129031381051
-0.129598193649
-0.1301899095
-0.130798536407
-0.131418232672
-0.132044185449
-0.13267226377
-0.133298361569
-0.133918428071
-0.134529087206
-0.135126057467
-0.13570074686
-0.136243118344
-0.136751600558
-0.137221960563
-0.137643312454
-0.138010321441
-0.138322422183
-0.138581338334
-0.138791236055
-0.138956627406
-0.139080977755
-0.139190778983
-0.139324637806
-0.139510919573
-0.139736058725
-0.139960381734
-0.140155044193
-0.140312350926
-0.140440213756
-0.140549279101
-0.140644132694
-0.140724948333
-0.140794396324
-0.140851361714
-0.140893808642
-0.140922654147
-0.140940543212
-0.14094691488
-0.120818153888
-0.120819967824
-0.120821890473
-0.120826516671
-0.120834045327
-0.120846860777
-0.120865946411
-0.120882124212
-0.120900108911
-0.120924084935
-0.120955678964
-0.12099583328
-0.121044767389
-0.12110186415
-0.121167436207
-0.121243563396
-0.121332472532
-0.121435288558
-0.12154823825
-0.121668342886
-0.121797629704
-0.121939256332
-0.122096568657
-0.122273060338
-0.122470715956
-0.122690374267
-0.122931975756
-0.12319489344
-0.123479188611
-0.123785534913
-0.124115188748
-0.124468664893
-0.124843943283
-0.125235740364
-0.125639697189
-0.126060856019
-0.126501313769
-0.126959896891
-0.127439102689
-0.127937545048
-0.128454825902
-0.128995809647
-0.129563969085
-0.13015617996
-0.13076617112
-0.131388167225
-0.132017214011
-0.132648931753
-0.133279129426
-0.133903706232
-0.134518585982
-0.135118618474
-0.135696433588
-0.136244524504
-0.136758031519
-0.137230038288
-0.137651783126
-0.138018860601
-0.138331136826
-0.138590942074
-0.138802847194
-0.13897314024
-0.139112684387
-0.139244145594
-0.139390165514
-0.139571039804
-0.139792956555
-0.140015989905
-0.14021081837
-0.140368597271
-0.140494024314
-0.140596418295
-0.140684126835
-0.140763763308
-0.140833268124
-0.140885967895
-0.140922333089
-0.140949657819
-0.140968382822
-0.140976049099
-0.120808864021
-0.120809159918
-0.12081146036
-0.120816032227
-0.120824094382
-0.120835453133
-0.120852395595
-0.120869958797
-0.12088863958
-0.12091218292
-0.120942593117
-0.120981771903
-0.121029832702
-0.121087286351
-0.121153899741
-0.121228495452
-0.121313125354
-0.121409027583
-0.121515688216
-0.121632747939
-0.121760733451
-0.121901149459
-0.122057252551
-0.12223239581
-0.122428497784
-0.122646654338
-0.122886791254
-0.123148581102
-0.123431865161
-0.123737160091
-0.124065283846
-0.124418097573
-0.124793591633
-0.125181282712
-0.125582268151
-0.126000543877
-0.126437743313
-0.126896441117
-0.127376992518
-0.127878349325
-0.128400477917
-0.128945970862
-0.129516780442
-0.130110837692
-0.130723207674
-0.131348471797
-0.131981600929
-0.132618031004
-0.133253461912
-0.13388364158
-0.134504041514
-0.135109183984
-0.135692340299
-0.136246552574
-0.136765076256
-0.137239765501
-0.137662963489
-0.1380311981
-0.138345037875
-0.138607908525
-0.138825935504
-0.139008094646
-0.139168472707
-0.139321245933
-0.139475516934
-0.139656718537
-0.139874532551
-0.140094607797
-0.140288370768
-0.140443727313
-0.140562145913
-0.140656566384
-0.140743603144
-0.140825900367
-0.140891960355
-0.140938655857
-0.140972464032
-0.141002474343
-0.141020414287
-0.141026260441
-0.120792051961
-0.120791896533
-0.12079564416
-0.120800142968
-0.120808552858
-0.120819930976
-0.120835514294
-0.120852826357
-0.120872436244
-0.120895969614
-0.120924833736
-0.120962826506
-0.121012041128
-0.121070455184
-0.121134826187
-0.121205494708
-0.121284715727
-0.121375032596
-0.12147721497
-0.121590826675
-0.121715637407
-0.121853731499
-0.122008118946
-0.122181606826
-0.12237587216
-0.122591698205
-0.122829966699
-0.123090112337
-0.123372150387
-0.123676156479
-0.124003093909
-0.124353777254
-0.124725677064
-0.125113251982
-0.125509363003
-0.125922262002
-0.126357900322
-0.126817383702
-0.127299964269
-0.127804654916
-0.128331418003
-0.128881629194
-0.129456201704
-0.130053473096
-0.130669405509
-0.131299007381
-0.131937279307
-0.132579545207
-0.133221402974
-0.133858455086
-0.134485905037
-0.135098112928
-0.135688459167
-0.136249652331
-0.136773740173
-0.137252251252
-0.137678544472
-0.138050185185
-0.138368741295
-0.138638981893
-0.138868529937
-0.139067879331
-0.139252209504
-0.139421013649
-0.139584459744
-0.139773077242
-0.139992402179
-0.140207077478
-0.140393694144
-0.140539504425
-0.140648060223
-0.140740760171
-0.14083280518
-0.140913125209
-0.140972932959
-0.141014909512
-0.141049887266
-0.141078770832
-0.141093631559
-0.141099597453
-0.120766691563
-0.120768371439
-0.12077442426
-0.120780879255
-0.12078730499
-0.120798429667
-0.120814266561
-0.120831478056
-0.120851380384
-0.120874785616
-0.120903957527
-0.120940821143
-0.120990049578
-0.121046033418
-0.12110675877
-0.121172785945
-0.121247620849
-0.121334247623
-0.121432622729
-0.121541289936
-0.121662032505
-0.121797447191
-0.121949409785
-0.122120335562
-0.122312145143
-0.122526169876
-0.122760881438
-0.123018823921
-0.123299455349
-0.123603124881
-0.12392784038
-0.124274652136
-0.124643201383
-0.125024364699
-0.125417328557
-0.125827591818
-0.126262411296
-0.126722845908
-0.127207675127
-0.127715831371
-0.128247195863
-0.128802432176
-0.129381736094
-0.129983524891
-0.130604297154
-0.131239433573
-0.131884033803
-0.132533388787
-0.133183034534
-0.133828465129
-0.134464697769
-0.135085887107
-0.135685144293
-0.136254574418
-0.136785552076
-0.137269857437
-0.137701995215
-0.138080716264
-0.138408639337
-0.138691395267
-0.138937597961
-0.139158490251
-0.139362713089
-0.139548480593
-0.139733007132
-0.139931330358
-0.14015055375
-0.140354235434
-0.140525166008
-0.140657350452
-0.140761496614
-0.140859695824
-0.140952971725
-0.141026756592
-0.141080166438
-0.141119476104
-0.141154427663
-0.141177556458
-0.141186592268
-0.141191289024
-0.120737134215
-0.120740532519
-0.120747221587
-0.120756158389
-0.120762505679
-0.120773939905
-0.1207885608
-0.120805701594
-0.120826006434
-0.120847222237
-0.120877414717
-0.120915627047
-0.120961942156
-0.121014254534
-0.121070660489
-0.121131912018
-0.121203523574
-0.121287002911
-0.121380294696
-0.121483706599
-0.121600042648
-0.121731928681
-0.121880771796
-0.122049141568
-0.122238331498
-0.122448902662
-0.122681434119
-0.122933616454
-0.123213551183
-0.123517354364
-0.123839077153
-0.124178379989
-0.124541389558
-0.124917508473
-0.125306235667
-0.125716079845
-0.126151122049
-0.126612478903
-0.127099475515
-0.127611153025
-0.12814722684
-0.12870788666
-0.129292829928
-0.129900390347
-0.130527338877
-0.131169335477
-0.131821616987
-0.132479510865
-0.13313853625
-0.133794106067
-0.134441064151
-0.135073281045
-0.135683405367
-0.136262968843
-0.136803135053
-0.137296375746
-0.137738437312
-0.138128887567
-0.138470521619
-0.138769033793
-0.13903359123
-0.139275003488
-0.139500458564
-0.139714730433
-0.139921177453
-0.14013407719
-0.140347259331
-0.140536415867
-0.140689503161
-0.140810117617
-0.140914082693
-0.14101558591
-0.141103543036
-0.141169846779
-0.141217346835
-0.141253917004
-0.141280899128
-0.141294326268
-0.1412940986
-0.141293361344
-0.120705043307
-0.120709357601
-0.120715745547
-0.120722434209
-0.12073049104
-0.120744155046
-0.120757863889
-0.120774403821
-0.120795833226
-0.120817134493
-0.120843686023
-0.120882275588
-0.120926948326
-0.120974830698
-0.121027073565
-0.121085600912
-0.121153070379
-0.121231693954
-0.121319715179
-0.121418277025
-0.121529946321
-0.121657181734
-0.121801339826
-0.121965723229
-0.122153903922
-0.122359445914
-0.12258871091
-0.122839927879
-0.123114111605
-0.123413416786
-0.123732730518
-0.124070702992
-0.124421480811
-0.12479027438
-0.125177714791
-0.125587681111
-0.126023165145
-0.126485475479
-0.12697456322
-0.127489792359
-0.128030777111
-0.128597341188
-0.129188810081
-0.129803374147
-0.130437899565
-0.131088227876
-0.131749752154
-0.132417891886
-0.133088180546
-0.133755960308
-0.13441590284
-0.135061542739
-0.135685052932
-0.136277569599
-0.136830448939
-0.137337073582
-0.137794069068
-0.138200418844
-0.138557726759
-0.138872124069
-0.139155168101
-0.139419562108
-0.139672316183
-0.139915527683
-0.140147854593
-0.140380641116
-0.140598786615
-0.140765525542
-0.140897939842
-0.141006758864
-0.141107789707
-0.141205722268
-0.141286348632
-0.141346180818
-0.141387973037
-0.14141609363
-0.14142718411
-0.141424367836
-0.141412124487
-0.141403033636
-0.120670132129
-0.120674913809
-0.120681951625
-0.120687475713
-0.120695850046
-0.120708722272
-0.120721818445
-0.120737039784
-0.120756478062
-0.120781366548
-0.120806380536
-0.120842186341
-0.120884398302
-0.120928543091
-0.120976008055
-0.121032009524
-0.121096468816
-0.121169183986
-0.121250982828
-0.121344322945
-0.121451447053
-0.121574022485
-0.121712991824
-0.121870558937
-0.122055829458
-0.122260290148
-0.122479769045
-0.122728697616
-0.122998392495
-0.123294639099
-0.123609476583
-0.123940666003
-0.12428562781
-0.124647008005
-0.12503179911
-0.125441616156
-0.125877578737
-0.126340884705
-0.126832013856
-0.127350796552
-0.127896919428
-0.128469938155
-0.129068845735
-0.129691654214
-0.130335236763
-0.130995548057
-0.131668132408
-0.132348536568
-0.133032332965
-0.133714804987
-0.134390455277
-0.135052532862
-0.135692828247
-0.136302347974
-0.136872892986
-0.137398551166
-0.137875747287
-0.138299854942
-0.138670896281
-0.138999866333
-0.139304845144
-0.139600189528
-0.139886201114
-0.140157186364
-0.140416127003
-0.140662974793
-0.14088174794
-0.141055321124
-0.141162104323
-0.141251511424
-0.141337675615
-0.141428189614
-0.141504762154
-0.141561525309
-0.141597111591
-0.14160915376
-0.141597029866
-0.14157010888
-0.141541433243
-0.141522571167
-0.120631053603
-0.120635383774
-0.12064247277
-0.120648692081
-0.120659015726
-0.120668921271
-0.120680718493
-0.120694889694
-0.120709556722
-0.120734691687
-0.120760922031
-0.1207941326
-0.120833450708
-0.12087514001
-0.120919046273
-0.12097063891
-0.121031124019
-0.121098398988
-0.121174008707
-0.121261087559
-0.121362784717
-0.121481025631
-0.121616965848
-0.121767359094
-0.121942208326
-0.122146540944
-0.122362578178
-0.122603348772
-0.122867394939
-0.123151675216
-0.123464153253
-0.123790564237
-0.124129367393
-0.12448606729
-0.124868255866
-0.125277214087
-0.125713345288
-0.126177620229
-0.12667077782
-0.127193096766
-0.127744552395
-0.128324595607
-0.128931896371
-0.129564239732
-0.130218460767
-0.130890609182
-0.131576382
-0.132271454906
-0.132971448957
-0.133671611336
-0.134366363144
-0.135048775425
-0.135710495418
-0.136342634188
-0.136937400679
-0.137488578892
-0.137990755515
-0.138430733168
-0.138810523458
-0.139154462831
-0.139490620331
-0.139831988717
-0.14015996453
-0.140453492532
-0.140729227038
-0.140982883733
-0.14120325936
-0.141389712069
-0.141484339581
-0.141546993757
-0.141594007993
-0.141682337636
-0.141764651862
-0.141824884972
-0.141854023032
-0.141844294368
-0.141799399664
-0.14173608717
-0.141681071492
-0.141647017882
-0.12058691196
-0.120589951496
-0.120594498963
-0.120602631495
-0.120614942931
-0.120623381436
-0.12063401018
-0.120647922587
-0.120659713148
-0.12068059449
-0.120706804371
-0.120737793488
-0.120773640509
-0.120812958601
-0.120855811286
-0.120902934232
-0.120957792992
-0.121019145572
-0.121088646045
-0.121168866216
-0.121263038573
-0.121374440242
-0.121508798201
-0.121657921428
-0.121820655043
-0.122016039679
-0.122229835841
-0.122459406633
-0.12272093216
-0.122999997297
-0.123299465612
-0.123616778808
-0.123950442006
-0.124305550788
-0.124685762704
-0.12509334072
-0.125529228486
-0.125994372319
-0.12648961678
-0.127015496345
-0.127572402411
-0.128159988332
-0.128776676049
-0.129419917877
-0.130086480175
-0.130772548596
-0.131473993008
-0.132186594469
-0.132906003206
-0.133627510663
-0.134345597248
-0.135053444362
-0.13574289321
-0.136405268325
-0.137032446041
-0.137615080706
-0.138148094591
-0.138601155212
-0.138982357233
-0.139341148573
-0.139723354577
-0.140140563201
-0.140525500583
-0.140825470441
-0.14111240944
-0.141373919231
-0.141591546943
-0.141752495171
-0.141852002179
-0.141878408835
-0.141847938819
-0.141967596735
-0.142080541392
-0.142156551434
-0.142181650183
-0.142142855022
-0.142047805516
-0.141919565387
-0.141818143837
-0.141754963584
-0.12053784501
-0.120539685554
-0.120540944367
-0.120549631542
-0.12056057548
-0.120569707275
-0.120579889553
-0.120593200574
-0.120604737315
-0.12062205556
-0.120645679818
-0.120673568052
-0.120705364306
-0.12074029023
-0.120781623583
-0.120826229807
-0.12087583017
-0.12093110069
-0.120994385996
-0.121067780394
-0.121153579575
-0.121255129856
-0.121382191787
-0.121533323222
-0.121690419439
-0.121870418459
-0.122080744365
-0.122302803143
-0.122549613555
-0.122822950463
-0.123115181641
-0.123424919029
-0.123752105845
-0.124104133065
-0.124482366033
-0.124888452294
-0.125323756567
-0.125789481445
-0.126286853858
-0.126816551814
-0.127379115217
-0.127974621209
-0.128601594987
-0.129257166453
-0.129937927106
-0.130640247185
-0.131360233701
-0.132093725078
-0.132836363618
-0.133583581515
-0.134330266549
-0.135070211666
-0.135795948444
-0.136498641305
-0.137167230537
-0.137782422877
-0.138365416514
-0.13883519778
-0.139199300305
-0.139558959877
-0.140008720105
-0.14058974012
-0.141148731707
-0.141381997681
-0.141685155887
-0.141972068888
-0.142197535221
-0.142294910012
-0.142336569723
-0.142378800024
-0.142019387868
-0.142252908527
-0.142434831323
-0.142552645948
-0.142590898041
-0.142519853402
-0.142348024731
-0.142103203597
-0.141932335969
-0.141812269755
-0.12048462408
-0.120486451852
-0.120488609797
-0.12049310688
-0.120500612659
-0.12050947447
-0.120519145326
-0.120530542839
-0.120543125045
-0.120557420405
-0.120577717666
-0.12060195734
-0.120629542738
-0.120659558546
-0.12069551434
-0.120737488001
-0.120783289308
-0.120833291071
-0.120890357962
-0.120956839003
-0.121034561456
-0.121125810334
-0.121241308259
-0.121388707579
-0.121545911799
-0.121712384926
-0.121913073743
-0.122131263042
-0.122363105841
-0.12262366977
-0.122905602442
-0.123207545119
-0.123531772944
-0.123880810503
-0.124256480086
-0.124660687734
-0.125095241206
-0.125561369305
-0.126060556292
-0.126594177684
-0.127162892188
-0.12776685507
-0.128404895348
-0.129074130094
-0.129771037272
-0.130492203704
-0.131234023434
-0.13199229427
-0.132762510453
-0.133540480401
-0.134322140443
-0.135102863975
-0.135876639935
-0.136633233364
-0.137352145729
-0.137984201136
-0.138698821637
-0.13925203577
-0.139502705458
-0.139788251382
-0.14028660515
-0.141057931548
-0.140988864912
-0.140958947099
-0.141080400619
-0.141226569614
-0.141377121047
-0.141456879067
-0.141362077191
-0.141143489446
-0.141513439495
-0.142815028595
-0.143261888378
-0.143420987658
-0.143425370369
-0.143256198182
-0.142912967433
-0.14226901851
-0.141990457
-0.141753629534
-0.120426440377
-0.120428378873
-0.120432424689
-0.12043261576
-0.120436741489
-0.120444164318
-0.120452749141
-0.120462704184
-0.120476441096
-0.120486749749
-0.120503080099
-0.12052339655
-0.120546805304
-0.120572501129
-0.120602593138
-0.120639624098
-0.120680736945
-0.120725434293
-0.120776136389
-0.120835273973
-0.120904920037
-0.120986780172
-0.121088587914
-0.121225167826
-0.121383154992
-0.121541139363
-0.121724416723
-0.121939564843
-0.122166182877
-0.122407730934
-0.122676132181
-0.122969429764
-0.123288338539
-0.123633550325
-0.124006185268
-0.124408136919
-0.124841421643
-0.125307843206
-0.12580887221
-0.126346227585
-0.126921336722
-0.127534489757
-0.128184533097
-0.128868682227
-0.129583610784
-0.130326399399
-0.131093770272
-0.131881199776
-0.132683713691
-0.133497729082
-0.134321653636
-0.135154315192
-0.135992376506
-0.136821239667
-0.137591359682
-0.138128489721
-0.139237677822
-0.13925334682
-0.139229560625
-0.139219463446
-0.139297909947
-0.139628600724
-0.139938117482
-0.139864576932
-0.139642624906
-0.139362487044
-0.139106142055
-0.138895596709
-0.138703659152
-0.13850319787
-0.138453120849
-0.139016909339
-0.139792158771
-0.140613981006
-0.141308209462
-0.141678084985
-0.141754373903
-0.142056725432
-0.142114471192
-0.141500719999
-0.120362587528
-0.120363955299
-0.120366478374
-0.120365844918
-0.120367762102
-0.120373658676
-0.120380304672
-0.120387580492
-0.120401044081
-0.120409004704
-0.120421504296
-0.120437924521
-0.120457371992
-0.120479160963
-0.12050356333
-0.1205342469
-0.120569368652
-0.120608032566
-0.12065183408
-0.120703069105
-0.120763901042
-0.120836379452
-0.120925686367
-0.121047349531
-0.121199305368
-0.121355840158
-0.12152008513
-0.121717495361
-0.121939512106
-0.122173065808
-0.122427656001
-0.122709999219
-0.123021346674
-0.123361221534
-0.123729897737
-0.124128768877
-0.124560241093
-0.125026382771
-0.12552916019
-0.126070330528
-0.126651877859
-0.127274780393
-0.127937964603
-0.128638380096
-0.129372954799
-0.130140004742
-0.130937143091
-0.131758789887
-0.132598061721
-0.133452437195
-0.134326203897
-0.135225028708
-0.136153029288
-0.137102517021
-0.138043273198
-0.138265537512
-0.138529632799
-0.138805126236
-0.138780402842
-0.138567398732
-0.138315598581
-0.138163352073
-0.138034449466
-0.137613163522
-0.136984571536
-0.13625510252
-0.135551145965
-0.13493377343
-0.134398928985
-0.133903977108
-0.133599828212
-0.133907419637
-0.134780072619
-0.136041859221
-0.137461549639
-0.138789027695
-0.13978348885
-0.140218794723
-0.14029261754
-0.140217406573
-0.120294122167
-0.120294857751
-0.120296419619
-0.120294361231
-0.120294897631
-0.120298744767
-0.120302874713
-0.120306153057
-0.120315743029
-0.120322996084
-0.120332445394
-0.120345073084
-0.120360766587
-0.120379321849
-0.120397402408
-0.120421219507
-0.120449544518
-0.120481465225
-0.120517611278
-0.120560264964
-0.120611447395
-0.120673486406
-0.120750604623
-0.120855777996
-0.120994362013
-0.121150415941
-0.121303151302
-0.121479215086
-0.121683591749
-0.121907935535
-0.122152334224
-0.122425435023
-0.122728322189
-0.123061473441
-0.123425277965
-0.123820519527
-0.124249313035
-0.124714572831
-0.125218581873
-0.125763492354
-0.12635160483
-0.126984525661
-0.127661808093
-0.128380097318
-0.129136042337
-0.129930035442
-0.130761554644
-0.131622437572
-0.132501591776
-0.133397919031
-0.134326364206
-0.135302645834
-0.136333721635
-0.137498557127
-0.13766448887
-0.137899589908
-0.138121866721
-0.13825420335
-0.138125437937
-0.137743045144
-0.137212958986
-0.136611367612
-0.135927745841
-0.135099177362
-0.134177396118
-0.13320418111
-0.132233287844
-0.131267537084
-0.130289071221
-0.129351023225
-0.128616660656
-0.128330520784
-0.128656920145
-0.129620185223
-0.131165230379
-0.133152288993
-0.135156909687
-0.136564678587
-0.137854381654
-0.140362923538
-0.120222381149
-0.120222242315
-0.120221297479
-0.120218587769
-0.120218823086
-0.120220436908
-0.120222079082
-0.120221832672
-0.120226798756
-0.120230830067
-0.120236377628
-0.120244537178
-0.120255617082
-0.120270748624
-0.120282614462
-0.120299370946
-0.120320438404
-0.120345315355
-0.120373186058
-0.12040659481
-0.120447314683
-0.120497805158
-0.120562044167
-0.120650272787
-0.120771028183
-0.120918752228
-0.12106963662
-0.121228839679
-0.121412325178
-0.121619440632
-0.121850893364
-0.122113080382
-0.122405953628
-0.122731037417
-0.123089035432
-0.123479834916
-0.12390561719
-0.124369324698
-0.1248741208
-0.125422351913
-0.126016781486
-0.126660125013
-0.127352616889
-0.128090718243
-0.128868862067
-0.129689258731
-0.130558621256
-0.131467512842
-0.132390874281
-0.133323546912
-0.13430459908
-0.135360879288
-0.136531536788
-0.136715497694
-0.13703788144
-0.137496775573
-0.137681993347
-0.13751578398
-0.137051194164
-0.136336666956
-0.135437914707
-0.134391523957
-0.133213756785
-0.131933828166
-0.130602306375
-0.129243190331
-0.127879105795
-0.126505990121
-0.125124138037
-0.123814515087
-0.12276344597
-0.122111847146
-0.122002535548
-0.122562315293
-0.123899027303
-0.126049683147
-0.128563042419
-0.130512392033
-0.133366903608
-0.143790330344
-0.120148778863
-0.120147751427
-0.12014407172
-0.120140980935
-0.120140426136
-0.120139461633
-0.120138174189
-0.120135277446
-0.120134647119
-0.120133769621
-0.120134142905
-0.120136773777
-0.120141743226
-0.12015042051
-0.120157397009
-0.120167391419
-0.120180751195
-0.120197804783
-0.120217367843
-0.12024126277
-0.120270956002
-0.120308728347
-0.120359222093
-0.120429914023
-0.120529662223
-0.120659980035
-0.120805855821
-0.120954019142
-0.121119280083
-0.12130885095
-0.121523518877
-0.121771201406
-0.122052671922
-0.122367246446
-0.12271781192
-0.123103196595
-0.123524844243
-0.123986446118
-0.124491575918
-0.125043168339
-0.12564385372
-0.126297147366
-0.127004651213
-0.127763824923
-0.128569237023
-0.129423134879
-0.130332944919
-0.131283963309
-0.132250180837
-0.133206428197
-0.134227943644
-0.135365417525
-0.135518469697
-0.135845963602
-0.13660766389
-0.136998087061
-0.136872722826
-0.136315316755
-0.135415901469
-0.134257491313
-0.132901205212
-0.131379979048
-0.129721567354
-0.127963356086
-0.126142159983
-0.124276710969
-0.122379264912
-0.120446208935
-0.118481553075
-0.116555190865
-0.114838059038
-0.113508839934
-0.112641747264
-0.112345670134
-0.112790551376
-0.114200321794
-0.116324140411
-0.117674741981
-0.117719676756
-0.121917057014
-0.120074439597
-0.120072742364
-0.120067429038
-0.120063775409
-0.120060965836
-0.120056623868
-0.120051089842
-0.120045483596
-0.120038802796
-0.120032088489
-0.120026464849
-0.120022778332
-0.120020948444
-0.120021095476
-0.120022246812
-0.120025312472
-0.120030474415
-0.120038348966
-0.120048881455
-0.120063039104
-0.120081486575
-0.120105622011
-0.120141290132
-0.120193941837
-0.120271571103
-0.120379001153
-0.12050843309
-0.120646407451
-0.120795804598
-0.120967905121
-0.121166865448
-0.121396021164
-0.12166217983
-0.121964860543
-0.122307093957
-0.122686479491
-0.123103046412
-0.123561380629
-0.124065787982
-0.124620063934
-0.125227196591
-0.12589074228
-0.126614680566
-0.127398689444
-0.128237407351
-0.129127662596
-0.130076996529
-0.131078782188
-0.132107643153
-0.133036115473
-0.134073428923
-0.134252576775
-0.134524973723
-0.135447086398
-0.136186784217
-0.136176277447
-0.135576650829
-0.134530084004
-0.133131091169
-0.13146058855
-0.129574368205
-0.127507134978
-0.12528701297
-0.122939129601
-0.120480794947
-0.117919955375
-0.115261015233
-0.112502682507
-0.109652739885
-0.106765090371
-0.103975668692
-0.101456022499
-0.0992073104306
-0.097170592108
-0.0954441866073
-0.0944070638134
-0.0939114118478
-0.0901365702763
-0.0750238481162
-0.0564070059453
-0.119999307924
-0.119997048294
-0.119990761321
-0.119986331189
-0.119980734266
-0.119972481747
-0.119962184333
-0.119952880067
-0.119939176109
-0.119926078818
-0.119913919746
-0.11990332519
-0.119894315424
-0.119886122674
-0.119879012733
-0.119874064038
-0.119870370963
-0.119868018816
-0.119867696488
-0.119871046903
-0.119877695319
-0.119887432035
-0.119906711056
-0.11994069924
-0.119995855102
-0.120078089063
-0.120186254175
-0.120310411166
-0.120449436942
-0.120600543259
-0.12077950642
-0.12098993553
-0.121237284491
-0.121521108355
-0.121849584998
-0.12222297807
-0.122634700834
-0.123089456305
-0.123591759897
-0.124147003487
-0.12476006161
-0.125435073711
-0.126177689913
-0.126987962247
-0.12785617634
-0.128780516724
-0.129778913186
-0.130866144742
-0.132040381035
-0.132796731734
-0.133075838835
-0.133292581263
-0.134187222119
-0.135175044103
-0.135439132493
-0.134868389129
-0.13370046753
-0.132082100565
-0.130111011651
-0.127856294906
-0.125363215099
-0.122661889629
-0.119775514611
-0.116720848477
-0.113507637784
-0.110141434699
-0.106626414711
-0.102964458765
-0.0991601773216
-0.0952353883993
-0.0912466137742
-0.0872587218401
-0.0832095684235
-0.0787889358516
-0.0738879961315
-0.0688406754593
-0.0630052772055
-0.0494965308435
-0.0124751189826
0.0418731737389
-0.119922723178
-0.119919849836
-0.119912979407
-0.119907533534
-0.11989891641
-0.119886593141
-0.119872003976
-0.119857455656
-0.119836250631
-0.119816401601
-0.119797006267
-0.119778718835
-0.119761775161
-0.119744633418
-0.119727926801
-0.119713741698
-0.119700656374
-0.119686804737
-0.119673950829
-0.119664834735
-0.11965826906
-0.11965278097
-0.119653700807
-0.119668128709
-0.119700535151
-0.119756104697
-0.119838941806
-0.11994147698
-0.120066896756
-0.120203116875
-0.120359335187
-0.120544537766
-0.12077128023
-0.121039541245
-0.121347841081
-0.12170691267
-0.12211207998
-0.122562480843
-0.123063024501
-0.123618337586
-0.124235395086
-0.124922590441
-0.125685510113
-0.126519414926
-0.127409113582
-0.128359818268
-0.129422506246
-0.130689821196
-0.132722386949
-0.132192379522
-0.132346498244
-0.132991364728
-0.134075072101
-0.13457683825
-0.13417967596
-0.132960607693
-0.131155647024
-0.12890357191
-0.126298649714
-0.123401780194
-0.120253590944
-0.116884237678
-0.113319587241
-0.109581159291
-0.105685202768
-0.101641881384
-0.0974525766643
-0.0931061041794
-0.0885778686625
-0.0838290250433
-0.0787995126028
-0.0733898081192
-0.0674242259504
-0.0605019345575
-0.0523466422913
-0.043062741153
-0.0308571522806
-0.00616391463326
0.0478823597881
0.116728389982
-0.11984343993
-0.119839941507
-0.119832448954
-0.1198256095
-0.119813443627
-0.119797474919
-0.119778665654
-0.119757631319
-0.119729566639
-0.119703258564
-0.119675994799
-0.119649189342
-0.119623388131
-0.119596307335
-0.119568747296
-0.119543732092
-0.119520415516
-0.119493592448
-0.119467071489
-0.119443846981
-0.119421546447
-0.119400377909
-0.119381606658
-0.119374464816
-0.119383750922
-0.119412211276
-0.119466691434
-0.119542015293
-0.119642959531
-0.119764973389
-0.119903743301
-0.120063481962
-0.120259082366
-0.120504397267
-0.120797158136
-0.121138247886
-0.121531091132
-0.12197354589
-0.122469705116
-0.123024961057
-0.123646566363
-0.124345019893
-0.125125651715
-0.125976911055
-0.126881816009
-0.127842214384
-0.128883380735
-0.130063479693
-0.130652899871
-0.13125624321
-0.131433659375
-0.132879148405
-0.133598363588
-0.133436259862
-0.132303541641
-0.130381651689
-0.127895236645
-0.124975302395
-0.1217126226
-0.118168239606
-0.11438837058
-0.110411657039
-0.106272282547
-0.101997398308
-0.0976028264612
-0.0930875613473
-0.0884278715294
-0.0835740343462
-0.0784520111594
-0.0729607898654