/*--------------------------------*- C++ -*----------------------------------*\
| =========                 |                                                 |
| \\      /  F ield         | OpenFOAM: The Open Source CFD Toolbox           |
|  \\    /   O peration     | Version:  v1806                                 |
|   \\  /    A nd           | Web:      www.OpenFOAM.com                      |
|    \\/     M anipulation  |                                                 |
\*---------------------------------------------------------------------------*/
FoamFile
{
    version     2.0;
    format      ascii;
    class       volScalarField;
    location    "611";
    object      alpha;
}
// * * * * * * * * * * * * * * * * * * * * * * * * * * * * * * * * * * * * * //

dimensions      [0 0 -1 0 0 0 0];


internalField   nonuniform List<scalar> 
6400
(
0.886171518804
1.41238423337
2.23446474619
2.77171262012
3.28566372032
3.80323461137
4.46940764525
5.21719222507
5.63648403526
6.29037076547
7.53125412382
8.3834027371
9.09395398967
9.89647009919
10.8935166039
11.9385104335
12.8659095375
13.7374614259
14.4711460394
14.8945331981
15.0915931123
15.4136489187
16.069758933
17.0455712606
18.1171674685
19.0787217262
19.8664384512
20.5943988059
21.3665614929
22.1979356735
23.0334030036
23.675388201
24.0470694645
24.2729456985
24.3923641028
24.3953094591
24.5710736259
24.985310253
25.0732901477
24.9326344671
25.1750237332
25.9334125606
26.6985559097
27.1111405842
27.2228634336
27.1268183091
26.8906815476
26.5610406428
26.1510057673
25.6809109011
25.0605409291
24.058444867
22.7331199823
21.1503179188
19.7749730103
18.6700229014
17.1118752837
14.7869296074
12.338147992
10.4198079729
8.45412932085
6.40257753367
4.3651501318
4.84262376964
8.5701617176
13.4156674838
16.3648415182
16.0511234684
14.0615948841
12.4807467767
11.6659344074
11.9357780093
12.5434382078
12.4689957014
14.5775963165
14.039920373
15.9453552465
9.84637126839
12.8644687614
4.80779216118
3.14984084443
2.51954569094
3.13664955062
4.39417647191
4.31787175909
4.2320730616
4.4638936686
4.92187351534
5.57213031359
6.39935202104
7.39688655269
8.39199126768
9.27100574445
10.1125057476
10.9700521257
11.9502376932
12.9802305319
13.9649674649
14.9969719019
15.2471271451
15.2499694141
15.540593559
16.1643343464
17.1241049157
18.3300103047
19.229995343
19.9855097124
20.7540926904
21.5429402058
22.3432275948
23.1471830901
23.8857778623
24.2525821265
24.4741140303
24.6296075225
24.5360315649
24.764266846
25.2024747811
25.2357930494
24.9453418615
25.1552826089
26.5172643832
27.6161581094
27.9279046603
27.9753389209
27.788936353
27.4373276604
27.0271994956
26.4356352219
25.7837680383
25.2406077291
24.8186905654
23.7235847125
21.3745996919
20.1313232988
18.7791615094
16.5837889108
14.3228655447
12.1397130966
9.98578787555
8.01759041915
6.75857851551
4.77602413877
5.30340345188
8.73667645588
14.4771265734
18.1879313045
16.8811760017
14.7119747261
12.8106493137
12.1662759157
12.6527778826
13.8232751572
13.2825512968
13.1739481097
12.6829530601
11.5132392593
9.69276447836
8.15882380497
4.24268999126
3.24415605555
2.8550260091
3.3724329062
3.66604374448
4.21441771131
4.66257537004
4.66004442648
4.82517778368
5.47550136535
6.37600697762
7.38133715829
8.39619482934
9.32156500677
10.167073986
10.8795868984
11.7671734716
14.384771369
16.3891958125
16.8282372279
16.2772204849
15.0569437407
15.2035368249
16.2907979559
17.3031630351
18.2504805167
19.2213480602
20.0879947237
20.8591680698
21.6272716593
22.4251824641
23.1929124015
24.0273144034
24.3935473872
24.3701415994
24.8664939416
24.788604568
24.6733666246
25.3187671325
25.3949837653
25.1635976347
25.3874065528
26.1325897446
26.880229046
27.2964627738
27.433174637
27.3796333094
27.17737409
26.8469661301
26.3913155105
25.8331748047
25.1739364902
24.3010782461
23.0871170747
21.8034338055
20.5270462267
18.6492150315
16.4912154015
14.3143179009
12.1667436002
10.1100860916
8.27867585687
6.54877889479
5.39371751532
6.70218876615
11.1512270119
15.4975153968
17.6232328637
17.7146496086
16.1376199969
14.4994931102
13.8642763216
13.8253971725
13.2061454927
12.6522553024
12.6689918138
12.362919542
11.4091563629
9.80021150149
7.3680384026
7.55773244513
3.26451711839
5.51715910032
3.70105275431
3.83008958589
4.53160193414
11.8876270761
10.282836922
5.38360544849
5.44684358717
6.37414731602
7.40505397024
8.43951608098
9.34036428035
10.2044099124
11.90363303
13.9981431555
15.6792098263
16.1352464914
15.1655188756
14.4596570524
14.8297759114
15.45122045
16.2669023297
17.2794733023
18.3371600097
19.3428039899
20.2385011674
20.9873470785
21.7776828411
22.5005316033
23.4057245239
24.0194198148
24.6872540983
24.6646537339
24.408226245
24.8777165596
24.8573600847
24.8592218323
25.1162283313
25.3536432217
25.708393182
26.3025024866
26.9198415273
27.331377425
27.5072995293
27.4903591828
27.3162457467
27.0067862322
26.5714517963
26.0178910866
25.3308209627
24.4514775124
23.341158051
22.0606861543
20.5572443336
18.6909676721
16.5671257908
14.3965396323
12.295322878
10.3577307307
8.69801704091
7.45406974497
7.11446577643
8.08831506169
10.6798887157
15.9281714768
19.3477280202
19.4905585049
17.8223784577
15.4747863713
13.9014708943
13.1598807599
13.378559923
14.8301462762
14.7954161113
13.4957530575
13.3738494443
16.675627247
13.0737637946
11.0880523267
5.69478534874
7.58833614858
4.47849760931
4.79702242309
6.61752274961
11.7812436211
8.27246720788
5.85483262047
5.97112437164
6.59598488168
7.54932803275
8.59777549453
10.0203760947
12.2940177046
13.335907536
13.7634157956
13.8492571701
13.7418745784
13.9090595563
14.5094686814
14.9617268645
15.5004737326
16.3605644529
17.3836630064
18.4580758523
19.495468201
20.3599104775
21.2376648909
21.8928299126
22.8116961194
23.4479588768
24.6558183506
24.6189149171
24.3014440184
24.5273661324
24.3954903007
24.5808862347
24.9093113448
25.2543063918
25.5841999574
25.9758885037
26.4911756949
27.0224542288
27.4175565872
27.6186063901
27.6337989494
27.487855181
27.2023488479
26.7893636246
26.2500047079
25.565821476
24.7007082898
23.6302297347
22.3435802975
20.7696042656
18.8610048072
16.7485237712
14.6318504712
12.6573094568
10.9524945731
9.6595103224
8.95316302465
9.06860399995
9.3865820573
10.9993503684
15.4949295757
19.4490887194
20.810311673
19.6360224447
16.8713935879
14.4031936153
14.1111179077
16.4112206541
17.3063253553
16.2876468649
15.3881218859
18.0610322246
21.0831330074
16.3889921807
15.5039067054
9.98661617971
9.15607786586
5.57980321288
6.12633906006
12.0655809802
11.5443919635
6.69850139308
6.45679140346
6.60132106375
6.9485841669
7.79560543603
10.4021421239
13.5917634919
14.0578142764
13.7534928771
12.924680945
12.6629314024
13.087273846
14.0509798482
14.4826746241
14.856646291
15.5725504916
16.5066110601
17.5622511708
18.5675256254
19.6156466239
20.7345696756
21.3439520185
22.4201866461
22.8634218558
24.3110652639
24.4409803868
25.2592063719
24.5333876162
23.9561058448
24.1255438112
24.573752851
25.0322398904
25.4426871854
25.8231549574
26.2350479784
26.710317231
27.1869407465
27.5634340902
27.7781175823
27.8193238715
27.7005284011
27.4419434847
27.0571009488
26.5445284639
25.885080161
25.0477392155
23.998516345
22.6935397925
21.0780872375
19.1718106786
17.1302725791
15.1511788132
13.3929365278
11.9969409332
11.0813365706
10.8097282918
11.3305579318
10.5205177045
12.8751701646
17.4574756348
20.7942214652
22.1026728891
21.1652175592
17.7840869122
15.5849643474
17.4087181345
19.6382656046
19.1311817882
18.1531049349
18.2455664812
22.8336044198
24.4254258875
19.4143288711
19.2165952893
12.1096065415
9.0280515741
6.78365128802
6.35938462508
12.0155792525
8.46553900575
6.93577412225
7.05496699923
7.18796551574
7.88512445682
8.39310693704
13.3081331246
14.0197997404
14.0858921978
12.8129520386
11.9192861582
12.2688637799
13.6013512833
14.0181589616
14.1939571686
14.8719065375
15.6870998475
16.6238033317
17.6770929658
18.8680126634
20.0089492958
20.7621368421
22.1572395272
22.5023978744
24.0673871734
24.0539054069
25.1184123386
24.7208815946
24.301421778
23.7841384478
24.0752621854
24.6552469154
25.1966379453
25.6512953244
26.0673697272
26.4982488636
26.9570721096
27.4026558631
27.7647291461
27.9875635778
28.0498712497
27.9581657085
27.7316141725
27.384073271
26.9119618116
26.2932378155
25.4922682438
24.4630614442
23.1550640515
21.5458720291
19.7069344566
17.8125451101
16.0498572694
14.5469178748
13.3838393858
12.6734052642
12.4508008437
12.2374862379
12.2468179316
14.495686836
20.1387373859
22.2561390395
22.4849644112
21.3763189167
19.0782385052
18.7901550349
21.3482690149
21.7907909585
20.9731291869
20.4071047157
22.4067345336
25.1724096733
26.6442570817
22.0546169897
20.9165970715
11.8341724124
8.70070541123
7.93146639153
12.1899496725
12.1281463304
7.52448247153
7.59273094071
7.74252024898
7.84281093867
8.41689078186
13.0573022721
14.0053611569
14.1156510904
13.6678355337
11.6758531062
11.5173474161
13.081731744
13.7388318227
13.6599999807
14.0717003113
14.9140390443
15.8636218506
16.8300993126
17.9383784562
18.9691053634
20.3619746533
20.8575889865
22.1763947313
23.7291124077
24.2074265588
23.7583500289
24.6041604844
24.7948928857
23.7689678467
23.773761797
24.2218730499
24.8061064724
25.3750621156
25.8708789622
26.3221565773
26.7737749861
27.2322876826
27.6642994346
28.0179922937
28.2469882134
28.328252679
28.2657480761
28.0782083229
27.7787469303
27.3609182503
26.7979370945
26.0467183412
25.0545107249
23.7811738882
22.2435424505
20.5518661016
18.8756123659
17.3416227463
15.9867171683
14.8681836242
14.1547509151
13.868582587
13.8453601015
14.1872654349
14.2420483442
20.3825990006
24.1334893038
24.0004081832
23.3234961999
22.3041922657
23.0643836508
24.3907832572
23.7025269456
23.0426026197
23.2887205239
25.6596703296
26.3543173134
26.9491316574
24.0702425116
21.9319288862
11.123625742
8.64093340804
8.60104764873
13.1724478426
11.1255164979
8.15623957375
8.30534832769
8.58589562915
9.76117501727
8.53318254918
13.8302943478
14.5310716197
14.1591545699
12.4601166164
11.3232123678
11.6568740657
13.1602525584
13.4614597087
13.5508789012
14.0963888649
14.918120089
15.945312805
17.0132315115
18.5211036709
19.7942776098
20.3299251189
22.2448134446
22.0811475304
23.9231982505
23.6623988909
24.8848067095
23.9624361089
23.6911123779
23.6872718617
23.9473892034
24.4233987384
24.9915993795
25.5692963276
26.1019293355
26.5925564509
27.0694684047
27.5370502885
27.968131178
28.3207440053
28.5566174664
28.6573566626
28.6286448106
28.488726164
28.2488749192
27.8998828776
27.4102824594
26.7309807033
25.8100872549
24.6289316808
23.2422230818
21.7756589558
20.3439110352
18.9435043537
17.5285782414
16.3074242144
15.6628449997
15.6782204372
15.9826462288
16.1829196796
16.0238188913
17.4199753702
24.3965680025
25.9308350515
25.7655852243
26.2536713848
27.1847329412
26.7524626183
25.7182151027
25.5500771755
26.6027964643
27.8502798769
27.728118696
27.1310236817
26.1199796934
24.7523310701
10.6066505682
9.09211598177
9.75481105947
13.2472334558
9.20431722797
9.17539524313
9.02433766155
9.29237455854
12.3460459645
11.0921996634
14.6653477045
14.8058063651
14.2368960576
11.7935411929
11.3639228976
12.94393795
13.39156366
13.2224197372
13.519439871
14.249012889
15.0494526534
16.0218491244
16.9505356708
18.6773834766
20.8105017575
20.2799679691
22.1963697202
23.493088482
24.164020841
24.8005325201
24.164989004
24.21045915
23.4100974613
23.6059015895
24.1161868092
24.6464988012
25.2043067687
25.7820877954
26.344193967
26.877730705
27.3889078171
27.8746035426
28.3131300817
28.6712447566
28.9179578723
29.0410305009
29.0516255052
28.9690282139
28.8015365059
28.5373519417
28.1429026526
27.5676594043
26.7683811543
25.7534609022
24.604225614
23.4179789453
22.1709429086
20.6830588119
19.0502873849
17.8871669503
17.662916267
18.1795400096
18.7016505269
18.82459789
18.4968669353
17.1369214822
16.8723303721
27.7197789722
30.367261818
31.1131785025
30.7385227495
29.1441290987
28.1702207996
28.5024529944
29.7534212461
30.1665225404
29.9688146034
29.7004609113
30.0551009152
30.2473426079
10.6036691398
9.94185831367
13.1493800302
13.4263318259
9.3325124616
9.93893482166
9.7400347123
10.2152256057
11.8741606343
14.5641349654
15.5010509794
15.0823950278
14.4858860027
11.8222395749
11.5252374745
13.4562384014
13.4987140754
13.2032699092
13.5467105596
14.3833815857
15.4074801724
16.380804481
17.132472879
18.3125062062
20.980939243
22.1947537832
21.8373773175
23.6154846297
23.0733742252
24.8269342159
25.1875032395
24.1675966302
23.3857509602
23.7191124158
24.3151564657
24.8804423651
25.4413063755
26.0198068633
26.6008077547
27.1758242943
27.7314480138
28.2460718642
28.6999105265
29.069419868
29.3320386738
29.4833834542
29.5406936548
29.5245646135
29.441551028
29.279324686
29.0059807927
28.5761611315
27.9635287656
27.2034670009
26.3736827405
25.4571115441
24.1929856054
22.4305239916
20.8359499733
20.1756869504
20.6863539926
21.7383286255
22.4361175942
22.4928089735
21.8474873353
20.2154729789
17.6874048215
18.1109988309
31.7700816193
36.7216585611
35.0433123343
32.2787938238
31.3340451925
31.9035332998
32.8465626665
33.3235872038
33.723968314
34.2776820344
34.9010684283
35.5794730547
10.9734095975
10.8203215431
14.7962019151
14.1507559619
12.273151098
11.1670941502
10.6823861927
11.6708361874
11.3675879638
15.5304607657
16.1608645469
15.4347448387
14.5875133592
12.4537479005
12.2873859423
13.9177983197
13.529027911
13.2918842239
13.6650221972
14.4270353587
15.5518377294
16.8381166039
18.5438750973
18.4458585062
20.4869956473
22.568026975
21.7384050224
23.8725779463
24.7316787165
24.0404553363
24.3058139005
23.5574636065
23.6762426871
24.045561709
24.5712621367
25.1382021695
25.7076986054
26.2914108587
26.8797553219
27.482918989
28.090627281
28.6527726545
29.1313698708
29.5161162271
29.800556323
29.9885214258
30.101224364
30.159860377
30.1713204682
30.1266658336
30.0011129404
29.7655157692
29.4204876182
29.0117427949
28.5388626933
27.7278273047
26.2208107485
24.517476551
23.5381758475
23.7555291216
25.1544303915
26.645616491
27.6766345005
27.8884254891
27.2663462903
25.4344770064
22.2414837355
17.5761909925
26.7243129002
37.2935852995
39.8410457872
36.5021602774
35.5927916815
36.1307065412
36.9662133751
37.5730716967
38.6912858621
39.5286747218
39.5107092385
39.738972921
11.5866026578
11.4779381082
14.552857023
14.6515620553
14.6687042767
12.3148501095
11.7563132336
14.5142384653
11.755087391
16.3921505524
16.6648380933
15.7970172681
14.6884998437
13.075854737
14.8617405849
14.9709146575
13.7276204955
13.5170137302
13.9170338737
14.5694629238
15.5121061724
16.8297648704
19.8106408439
20.7629008399
19.9869069976
22.6321895114
23.5951233534
23.4522825316
24.6981792934
25.1093101078
24.6462539274
23.595533132
23.8820008783
24.3771295107
24.8828632191
25.4292728191
25.9925858398
26.5946103619
27.2077822292
27.8215710629
28.461299569
29.0803031468
29.6052420043
30.0153197018
30.3266710287
30.5600922758
30.7379226093
30.8779252359
30.9887223742
31.0702718915
31.1154667267
31.1287876533
31.1433960417
31.1657421608
30.97166037
29.9437548368
28.5042668904
28.2703046223
28.4569205931
29.7295391774
31.7360513401
32.9713042878
32.7633939589
32.1731216446
30.293802308
27.4964912623
24.1932098941
17.8553428567
17.5331446831
31.5667425429
38.4709467995
38.2957124929
36.7255551836
38.5762023762
40.3973491089
42.4927613718
44.3461380079
45.0382670472
45.0343602668
45.2369958057
12.2582228917
12.1864607413
11.8385862612
14.9859587893
15.2120231243
13.0972485133
12.7227913701
15.5091116149
12.4241723799
17.283078903
17.1202898772
16.1736386693
14.8981494047
13.3981394501
16.0183302699
15.5532105771
14.172691954
13.9185201392
14.2701559809
14.8815131876
15.596992072
16.7213562739
20.317441978
21.8345929177
20.3342145911
22.6649756324
24.1136385063
22.9656744839
24.3282584625
24.6779441639
23.7047247305
23.9449193651
24.3281815089
24.7601758987
25.2271218687
25.7729397506
26.3323219135
26.9101153943
27.5512325597
28.2103573174
28.8740706413
29.5308860444
30.1084327412
30.5620685119
30.9133865422
31.2029856968
31.4545419109
31.6768880079
31.8836820722
32.0897878329
32.315400891
32.6327106942
33.1011213519
33.5907911573
33.3765882175
31.8847390941
31.7589112487
28.8643189335
25.9214484566
24.5541333213
20.8808642406
9.81782812475
0.0420803356791
0.00429336356588
0.000340703821891
9.59693926744e-05
0.00112963196097
0.0115420492176
0.130379634066
0.340539568019
36.9128458887
47.2789302971
49.5884189226
44.936027105
41.0807013269
43.3517024516
48.326683668
50.4215897073
51.8470493758
52.3158124317
13.1097799
13.2017190306
15.6288453068
15.6376291304
15.671348039
13.7648729898
13.7696829562
16.3667010411
13.4465280504
18.0572792821
17.5566785086
16.5743967026
15.1898786237
13.7975439138
16.3075149276
15.7633173467
14.6154210377
14.3791771079
14.6605028108
15.2022442431
15.852362318
16.7417738777
19.7373489154
22.6477637649
22.8089805376
22.0543188634
24.3265952371
25.1404785434
23.2258589772
23.2100939871
23.6473873964
24.1833283172
24.6854397003
25.1485832783
25.6294102714
26.1435619466
26.7038443016
27.2981763064
27.9215168593
28.6156185665
29.3319632609
30.0260627045
30.6444655903
31.146805404
31.5568032141
31.9181200898
32.251476259
32.55882833
32.8449569333
33.1403517767
33.5405558219
34.2076464186
35.1976253358
36.0652037895
35.4797081531
31.6893500877
21.8244705442
1.42699390433e-05
1.56954531531e-08
2.94233637635e-10
4.98746179208e-12
1.44299644151e-14
4.10068089847e-17
7.09820102011e-22
5.55223389781e-22
1.34795471452e-21
9.08628051115e-21
4.25596306208e-20
1.57215487957e-19
9.99079857088e-19
7.82257225607e-19
6.7865067375e-17
3.86265628902e-14
3.88279379255e-12
2.94638458527e-10
6.78481173447e-08
0.00114209731715
52.6383218919
57.8116723534
59.1120179239
13.9115219251
14.1027759836
17.2497387825
16.3186324834
15.8008450848
14.4381167151
14.7841509089
17.0940829989
17.0671754614
19.0198156171
18.0560646699
17.0687590804
15.5671792292
14.341602404
16.6149839966
15.9118549751
15.0406274822
14.8482441535
15.0574216355
15.5173796383
16.1344321226
16.9840904534
19.230488038
22.909045954
24.1755544096
21.7971269866
23.8532380954
25.2118698316
24.994740084
23.6497545174
23.7382575097
24.4084439239
25.0475298847
25.5843342173
26.0233035481
26.5441992198
27.0975340442
27.7099304237
28.3521066093
29.0560680112
29.8204717051
30.5700889394
31.2226734337
31.7575915964
32.2361087578
32.7191185626
33.1741382182
33.5417581257
33.8154920117
34.1511544501
34.7378618454
35.7364192228
37.2232547391
38.4555483437
30.1048232769
0.719588111656
7.89114318336e-12
3.19553217484e-14
9.24096176277e-16
1.34531463839e-17
1.09303971449e-20
1.82384151132e-23
1.28563425153e-24
0
0
0
0
0
0
0
0
1.78809799812e-28
6.03088436888e-26
9.02091754126e-24
5.23364747056e-21
7.31012109093e-18
3.95861740326e-13
6.01163840994e-09
0.0468690357109
61.9503820611
14.5679953755
14.7811795155
19.3960882354
16.8483020085
15.6839240212
15.035643106
15.514705095
17.1629316468
18.6582580528
20.1270069541
18.7128015967
17.6981431726
16.194906239
15.1777413868
17.1288910081
16.2132134044
15.5440965423
15.3665800267
15.4942501539
15.8697118883
16.4161146342
17.2032090535
19.0262491449
22.7856470593
25.1673283442
24.4099670602
23.3453943673
24.5830161639
24.7522741286
23.6544257382
24.1878712561
24.885671282
25.571767131
26.0732838696
26.5301561232
26.9821843429
27.5474699537
28.1517689771
28.8207977911
29.5477537209
30.3366321666
31.144005708
31.8748510821
32.4436448388
32.980658291
33.5955818171
34.1867032129
34.5790585892
34.7959422493
35.1410912842
35.8616955124
37.0070529551
38.6677264414
30.6709285838
5.22560251938e-08
1.14245663977e-14
3.74676034326e-18
1.51503513996e-19
2.06570480575e-21
5.66472397634e-24
0
0
0
0
0
0
0
0
0
0
0
0
0
2.30396406634e-27
2.28948935794e-26
5.0190567336e-25
2.43367120646e-23
1.35147346472e-19
1.12491732834e-10
2.16845972684e-15
15.0809664912
15.2837832423
21.4510606338
17.2563017553
15.8195483868
15.5911887092
16.3225691342
16.5442653044
19.6096855339
20.9211367005
19.3504868571
18.3430475776
17.0215000473
17.0587991729
17.8468318945
16.7561624963
16.2429879335
16.0807834774
16.0396317601
16.3092979069
16.7511052067
17.4604785418
19.011495183
22.6470250117
25.581783227
26.0544413913
23.1505129542
23.5233398924
23.5233661473
23.7750034854
24.4971833042
25.3815730051
26.0712272642
26.6054142891
27.0806290722
27.6044231846
28.0633929114
28.6605671029
29.33236737
30.0646894654
30.9210102489
31.7988803931
32.5821915156
33.1283587067
33.6724567117
34.8820946921
36.4845624789
37.0339448806
36.277437454
36.3927006612
37.1188652406
38.2677447804
29.2262249463
6.04567620535e-09
9.11162599394e-14
4.08761868139e-25
4.13058931589e-22
6.73998344464e-24
0
0
0
0
0
0
0
0
0
0
0
0
0
0
0
0
0
0
3.55955224979e-26
2.41046999057e-25
4.44510651239e-23
94.997472734
15.5295664309
15.6983084188
21.2931313237
16.7088558751
16.0367883996
16.0729719716
17.2398361267
16.5589262899
20.4158219824
21.6613330918
19.9582222662
18.9428090169
17.6648933669
19.2748861786
18.8456043503
17.5028798315
17.0478368656
17.1535487995
16.8074586082
16.9181938957
17.1858075617
17.7601683156
19.1386201309
22.496274251
25.4548780153
27.1566555346
25.8377786764
24.8730899691
24.4873804379
24.0354286823
24.8008705054
26.0183707951
26.525843607
27.1421378275
27.873202081
28.2157918319
28.6742119601
29.2743481846
29.9613238578
30.6977143212
31.5093141843
32.4418369688
33.3618742411
34.293955268
35.3910326351
36.9495545799
38.2112582365
38.2037126092
38.1249932893
38.7188135655
39.8363238658
33.1179263696
2.74933764094e-08
2.50959624227e-13
3.29841873292e-17
4.47988485347e-19
0
0
0
0
0
0
0
0
0
0
0
0
0
0
0
0
0
0
0
0
0
0
1.09526848898e-25
7.97195136775e-15
16.0461720435
16.1918375394
20.9388560853
16.3980913309
16.3436090316
16.4672662311
18.0297315605
17.0362543804
21.118956905
22.3888138632
20.5638966971
19.5461632
18.2068845482
20.0356045477
19.7723684961
18.3212856429
17.8412866911
18.0537064266
17.726157649
17.7482249289
17.8212359028
18.1103681285
19.426494768
22.4773972096
25.1814622589
27.4861458536
27.0416650189
25.4093592468
23.9387749714
24.5463119346
25.3247324534
26.5039350583
27.3882563258
28.1265058841
28.7173941771
28.9346013634
29.3691422266
29.9820351339
30.6824279749
31.4504223471
32.2700547368
33.2812686198
34.527508836
36.0711788053
37.1322091568
37.5735577293
38.2763825201
38.7508845104
40.2767707272
42.3729837968
39.3042609539
2.5051812443e-07
3.32640243083e-13
5.73621044797e-17
1.17652630287e-19
2.84859649663e-21
9.56177151409e-24
0
0
0
0
0
0
0
0
0
0
0
0
0
0
0
0
0
0
0
0
0
1.84063553276e-26
2.43532892967e-26
16.8070990116
16.9528746201
20.6246554273
16.6990207865
16.9153533013
16.9613217424
18.0520209852
17.7729939443
21.6296828365
23.0822576718
21.2051649751
20.200414234
18.869031771
20.7300638651
20.609572148
19.2303823317
18.6950787429
18.932277432
18.623354351
18.7245388149
18.7308518392
18.6211395427
19.9084563297
22.6511330249
25.0563880743
27.5803392927
27.5963385186
26.1484469478
24.4425558277
24.7839977573
25.9544671653
26.6729858042
27.4293202047
28.3762161362
29.6542323114
29.9795253894
30.326708427
30.7974894792
31.4578852418
32.3014656315
33.2322876194
34.377088354
36.3198469518
38.070471172
38.3585550513
38.6316100788
39.7951644441
42.6115220744
46.2667502922
43.5846794943
7.15738083586e-08
1.18896662349e-14
4.92022192354e-19
1.61317929327e-22
1.012183494e-24
2.05161391472e-24
3.15051340956e-25
0
0
0
0
0
0
0
0
0
0
0
0
0
0
0
0
0
0
0
0
0
1.36046774153e-27
6.17748425647e-27
17.9512593355
18.0572406848
20.9305307832
17.6548035445
18.0887800902
17.8290378221
18.3779259572
19.1013489664
21.6914907977
23.6071711309
21.9111347379
20.9272443908
19.6393664574
21.5195069873
21.4750328182
20.3022067387
19.7340963117
19.9578862653
19.5291972242
19.7992892348
19.9541385241
19.360266317
20.4628532057
23.0189546758
25.1249443326
27.4483656245
27.8509941484
26.8065158753
26.4583329779
25.6617717472
26.3762347075
27.5036753059
28.8436532105
28.9826183836
29.9133535542
31.0280501077
31.3961764848
31.9381080952
32.4920927983
33.2406424052
34.3119567676
36.2660122061
38.9147410433
39.8518785358
39.7388934316
40.9582730874
45.3680425601
51.7685862036
49.37075374
2.57452210466e-09
1.80134861483e-16
1.68180455027e-21
1.15074611429e-23
0
0
0
0
0
0
0
0
0
0
0
0
0
0
0
0
0
0
0
0
0
0
0
0
0
0
0
19.5462935786
19.4217427132
21.7638535551
19.5580571402
20.0573089428
19.1087470271
19.3349494387
21.0194723082
21.9271620926
24.2398263061
22.7348691295
21.7369674358
20.4936007116
22.3470128336
22.3364616757
21.4830289045
21.2507190848
21.2962437208
20.5284705619
20.9709493859
21.4784685213
20.4154587526
20.9039864868
23.4755170807
25.3944013501
27.3349200449
28.0376339372
26.980560782
27.6566640378
27.2635942263
27.4602324141
27.2485978235
28.5856612233
30.2355135674
30.8891053328
31.7703596451
32.4671427468
33.0362493283
33.7377479135
34.5062263368
36.048800419
39.1875884874
41.4470577508
41.860115039
42.6095723094
46.4790200981
54.8848426651
52.3694107507
13.2828389799
1.60755471158e-18
2.8103449366e-21
1.28682111365e-23
0
0
0
0
0
0
0
0
0
0
0
0
0
0
0
0
0
0
0
0
0
0
0
0
0
0
0
0
21.2351896778
20.7081202641
22.667425667
22.0742981492
21.7882509171
20.5926626271
20.3930190772
22.1746790745
21.2048146599
24.7383418899
23.6586158866
22.6218990332
21.4224554596
23.1879423459
23.1386814294
22.4734068377
23.3427977348
22.908393139
21.652645368
22.2647967716
22.8401392895
21.7696833296
21.0926031649
23.4933596978
25.5940639703
27.2615975985
28.1207831742
27.0859518686
28.06580305
28.5681538558
28.8381552707
28.0489926925
28.8571342621
30.1877415247
31.8362675997
33.0120901435
33.7709819617
34.3060128188
34.9836048716
36.1962484391
39.1001168272
42.4756109011
44.1832362928
45.080731744
47.5853076441
53.2564727746
50.2305225934
26.636820777
4.32848031425e-18
6.26638848166e-21
2.19461013545e-23
0
0
0
0
0
0
0
0
0
0
0
0
0
0
0
0
0
0
0
0
0
0
0
0
0
0
0
0
0
22.089643843
21.6191288103
23.2557547411
23.1506652281
22.8820865398
21.9997445327
21.6107959756
23.5738956554
22.2733596403
25.3715078723
24.5938646964
23.551914914
22.4211534504
24.0597687379
23.952897959
23.3075958385
24.3360988561
24.0412311548
22.7506159193
23.5418456922
23.6107661642
22.6165358267
22.1403778089
22.3708057597
25.1219905932
26.7953071864
27.9347661425
27.0835156279
28.1640748059
29.1413551014
29.9753118428
29.8887492771
29.2415129827
30.2813279268
32.1069501494
33.915598003
35.1918142041
35.9896509836
36.6716333601
39.0843595238
42.8889673002
45.8492221236
47.3031862457
49.0386157831
52.889097968
47.5860786973
22.1364866453
2.28667320243e-17
2.05983589082e-20
5.86651925671e-23
0
0
0
0
0
0
0
0
0
0
0
0
0
0
0
0
0
0
0
0
0
0
0
0
0
0
0
0
0
0
22.2202178141
22.2022009458
23.6277520652
23.4061555183
23.58984195
23.0996103262
22.6777129141
24.9514532314
23.9789495552
26.1841430132
25.5887751746
24.5138869796
23.4850614937
24.977753392
24.8373103346
24.2718894904
25.1695902772
25.0343215619
23.9007700382
24.5950334332
23.4829414557
23.4047393435
23.2088885771
23.4785394425
24.3125195957
25.3370280365
27.1327058527
26.9084483707
27.7726654679
29.2088252264
30.4691340653
31.2747333687
30.8022482564
31.108694147
32.3461361248
34.1287148272
36.1204568418
37.7494413995
39.2358208104
42.8164211869
46.6321796273
49.0320584331
50.0981245456
51.692283261
46.5338048846
27.5467505037
19.2735856112
7.15495472645e-20
1.60277679029e-22
0
0
0
0
0
0
0
0
0
0
0
0
0
0
0
0
0
0
0
0
0
0
0
0
0
0
0
0
0
0
0
22.5093374501
22.6261202147
23.9559255461
22.5952457411
23.9152739994
23.7248766563
23.4085042116
25.6035263062
24.8691459639
27.0157295705
26.6212284933
25.478533855
24.6206045767
25.9291666853
25.7652955582
25.3700576309
26.0953302241
26.1373092052
25.174193578
26.0258533013
24.8554890837
25.0522135584
24.491622283
24.7968469736
26.1220959018
26.7545821283
26.8051451401
26.6678900567
27.3494554912
29.181222413
30.504452213
31.5667365675
32.1677792781
32.2428844382
33.7108180829
34.9069016415
36.8929557621
39.4001715156
42.4378771097
46.725025391
50.0984442496
51.6142115406
50.6654962488
46.3069473315
39.0631398147
27.0576428537
6.0039100599e-19
1.36681950394e-21
0
0
0
0
0
0
0
0
0
0
0
0
0
0
0
0
0
0
0
0
0
0
0
0
0
0
0
0
0
0
0
0
23.2464488687
23.327217033
24.3087897203
23.0421089065
24.2065708948
24.0905278687
23.9342036959
25.8549699086
25.5005309975
27.643866466
27.6302224442
26.386640253
25.8135430514
26.8685810517
26.6561401689
26.4352679522
26.9904271274
27.3240745389
26.4935507496
27.4714213447
26.6457380937
27.1188250155
26.9091488305
25.8257402253
26.9151425751
27.8801793676
28.0314883547
26.5407195917
26.8654369689
29.1121410755
30.6779520495
31.2822044475
32.0378872723
32.626689951
34.11836589
35.5964643419
37.7896765852
41.0911905006
45.8300112451
50.6890330714
53.3214681693
53.2410269723
49.9507465715
43.6463909929
27.1461634443
14.786061358
9.52453563823e-21
3.86222037692e-23
0
0
0
0
0
0
0
0
0
0
0
0
0
0
0
0
0
0
0
0
0
0
0
0
0
0
0
0
0
0
0
0
24.1705873543
25.1641570693
24.8142968021
24.0323450705
24.7744587881
24.5135121144
24.4398567205
26.0749494667
26.0747257673
27.9326580664
28.6034212886
27.1987841236
26.8730487267
27.6471360131
27.4963420738
27.2526203839
27.3526152054
28.4047092255
27.871535501
28.7387708665
28.5936531412
28.4849945261
28.3557401025
27.9919982484
27.330237835
28.0858665546
29.0058288928
26.1393794939
26.4179643059
28.4874021454
30.7544838108
31.8544149916
32.7676464116
32.7012268131
34.0409691073
35.8938668478
38.3557852301
42.6694045972
49.1911631787
54.4517935557
55.9304784491
51.459634921
48.4995228486
44.2126874953
31.648998305
6.45581665437e-20
1.64767968974e-22
0
0
0
0
0
0
0
0
0
0
0
0
0
0
0
0
0
0
0
0
0
0
0
0
0
0
0
0
0
0
0
0
0
24.8770150166
25.9072042586
25.5450664674
24.9284484426
25.493764904
25.1047788246
25.0089476294
26.3703023716
26.6281265813
27.9623081411
29.4679509289
27.9713674067
27.5312287063
28.2925812302
28.3928461858
27.9927591468
27.6496845738
29.1845203898
29.2724042852
29.8473645118
29.9507163097
30.1236837838
29.0156187821
29.0188540657
28.582582226
29.7080488075
30.3640585496
27.8808301891
26.0540515938
27.556260233
30.1130566431
32.0537074611
33.0661659956
33.3031553736
33.7711017518
35.7346473416
38.3651244978
43.8945174228
52.3745654404
58.2292685102
56.9161468184
50.9893131439