/*--------------------------------*- C++ -*----------------------------------*\
| =========                 |                                                 |
| \\      /  F ield         | OpenFOAM: The Open Source CFD Toolbox           |
|  \\    /   O peration     | Version:  v1806                                 |
|   \\  /    A nd           | Web:      www.OpenFOAM.com                      |
|    \\/     M anipulation  |                                                 |
\*---------------------------------------------------------------------------*/
FoamFile
{
    version     2.0;
    format      ascii;
    class       volScalarField;
    location    "234";
    object      alphak;
}
// * * * * * * * * * * * * * * * * * * * * * * * * * * * * * * * * * * * * * //

dimensions      [0 0 -1 0 0 0 0];


internalField   nonuniform List<scalar> 
6400
(
0.835075318131
1.25783602616
1.93178675051
2.22844882464
2.52639456526
2.86441310191
3.43695389832
4.10889973297
4.24163090994
4.56565633782
5.67978670826
6.18134614078
6.55188976965
7.05705169536
7.82760039761
8.61825744557
9.20083652939
9.76421142652
10.2710977092
10.4865287309
10.3971673288
10.3295730263
10.5347609501
11.0754300836
11.7133531959
12.2445164866
12.5820629669
12.8730848235
13.2564471472
13.7429671371
14.2801867375
14.5948251403
14.6256994255
14.5530663952
14.3849886795
14.0082615358
13.8195938473
14.0757876911
13.830757102
13.2385031266
13.0953010946
13.5841996759
14.1237044167
14.3792129079
14.4383367204
14.3558025432
14.2100161144
14.0682002835
13.9350338258
13.8174713541
13.5495426269
12.7062175018
11.8461978957
10.8781764545
10.3878207067
10.6285567944
10.3572883036
8.96693410319
7.33779075935
6.68249311103
5.7651591507
4.76134891525
3.75569479401
5.45051740098
9.53970856652
14.4990795559
17.5052465301
17.2242935415
15.2244089978
13.5372080245
12.5733997796
12.6446706776
13.0627383629
12.8678028125
14.795276522
14.1973571968
16.0103852566
9.91220889843
12.8765878796
4.81630953154
3.08394807279
2.39254103656
2.9272863421
4.12055793078
3.78393103045
3.38023758411
3.38177356358
3.6492121226
4.07548853988
4.64318954839
5.37327224292
6.10121985486
6.71722962564
7.30485014373
7.88814609931
8.57624671344
9.29561049548
10.0312561707
11.0884849302
11.0829469285
10.710444535
10.5371041898
10.6058500653
11.0769245824
11.9885287903
12.3855609735
12.6583785304
13.0262858002
13.4476667538
13.8964094862
14.3706700317
14.8905515636
14.9279725476
14.8784025479
14.8038721406
14.1908837649
14.1498855016
14.4127420113
14.0110962581
13.0840611542
12.8658203631
15.0417919214
16.3910228691
16.478512274
16.417215873
16.0727418551
15.5673409118
15.1604608878
14.5442786663
14.0209361854
13.9401305994
14.4411004572
14.1642952247
11.0999822543
10.8956620647
10.5122338491
8.81029742018
7.52581375053
6.46370509284
5.43196775455
4.61633843283
5.12664046943
3.99301568258
5.6525556078
9.59613602312
15.419560729
19.1540719335
17.9747342194
15.8091955619
13.8506560226
13.0460181441
13.3335485592
14.2963734912
13.66498812
13.4470532818
12.8713831358
11.631511382
9.7667957771
8.19480514207
4.28154697977
3.04883197323
2.58557803529
3.07060157721
3.15102098839
3.40787227037
3.7055612224
3.62271982374
3.59562579709
4.00350747245
4.62813617553
5.3485221758
6.0956390456
6.76645052364
7.36903012843
7.8168568196
8.43200328456
11.6164745563
13.7575549731
13.97232438
12.9306413707
10.5712270846
9.99565998355
10.8196370459
11.3542770676
11.7797440037
12.3272543396
12.7968331152
13.171149996
13.5703419509
14.0463274718
14.4498163479
15.151662119
15.2496366433
14.7211985232
15.4199337749
14.8345442589
13.986424007
14.7942979893
14.3315489142
13.3461757417
13.1021251422
13.6529035772
14.2506135895
14.5375383871
14.6193967604
14.5797687993
14.4529436083
14.2592010828
13.9989284432
13.6975255123
13.3584037937
12.8900218493
12.209595475
11.747644417
11.4560388822
10.0985083993
8.71257595457
7.58364928676
6.58798450224
5.70879779922
5.05646875467
4.42584473349
4.06553822666
6.43826879164
11.5798819789
16.2710697577
18.5867591052
18.711295039
17.1084582799
15.390496254
14.6170918362
14.4342581193
13.7184228437
13.0708475988
12.974872063
12.5655262018
11.5336504903
9.8884577565
7.45394177539
7.62037855857
2.83417322278
5.31652263572
3.17633173743
3.13199933489
3.7541941905
11.6942837419
10.0055106627
4.41064526823
4.02271843548
4.65670107202
5.3724288479
6.12457077098
6.77327238181
7.47210828486
9.47836244527
11.8095838795
13.455193826
13.5553427517
11.7289340348
10.0245381637
10.0216077067
10.2728706988
10.6350401431
11.2186697806
11.8731542535
12.4922416384
13.0177546045
13.3405516258
13.8202961179
14.1288386768
14.879212205
15.0780235204
15.828568427
15.4802007892
14.5120045304
15.0797935409
14.3638997599
13.5841758681
13.4554367162
13.3999091592
13.4741847707
13.8359205251
14.2675738058
14.5468180474
14.6640887427
14.6563957237
14.5525656638
14.3735288279
14.1289688981
13.8302277481
13.4732946683
13.0294060295
12.4887829475
11.9075400833
11.1601831202
10.0793327748
8.85632462687
7.75291686618
6.83046257611
6.09285250269
5.54794984078
5.16247056286
5.25682019912
7.06620546806
10.8003276043
16.5562154669
20.1429122589
20.3491235408
18.6787114018
16.3160281644
14.6668165739
13.8089764522
13.8978265337
15.198264706
15.0699887445
13.6973907637
13.5016974031
16.7409359058
13.1574374593
11.1865129714
5.2745789581
7.30202782394
3.63360808455
3.95494615031
6.14255574873
11.5731016936
7.68158461497
4.54572074138
4.50637247859
4.87798740804
5.52629020184
6.31208101732
7.79428223607
10.4636746281
11.4257517869
11.5731584452
11.1142673764
10.2049526822
9.69966778991
10.0899101013
10.1704489128
10.2332910375
10.6942776798
11.3257722884
12.0254272224
12.7107885468
13.1505666204
13.759354594
13.9295787563
14.7424854656
14.8394666582
16.3361286899
15.6600851679
14.7510921818
14.9704480375
13.9797106636
13.6241271045
13.5258754723
13.5411685978
13.5972137894
13.7224791526
13.9949779247
14.3294080825
14.5887606206
14.725343772
14.7422681451
14.6592493269
14.4974434372
14.2716103869
13.9892012669
13.6447168871
13.2249983691
12.722120659
12.1153240195
11.3001643527
10.2257885643
9.06823938029
8.04482118371
7.2429929789
6.66554577113
6.30029441405
6.19492978876
6.66011107507
7.69934821277
10.6663761633
15.9714160413
20.172192573
21.5733990941
20.3829439242
17.6090335074
15.1168224001
14.734361309
16.8777285705
17.6779549808
16.5852222404
15.6169701562
18.197838461
21.1689621613
16.5018114628
15.6149105065
9.62163026982
8.73251000415
4.49928630412
5.30894115785
11.8288683839
11.2408750144
5.51216241566
4.99234397614
5.04791788973
5.20598876521
5.85008741395
8.85244854509
12.3733519791
12.6509581251
12.0407973921
10.548613448
9.4496651252
9.24397998901
10.1197431956
10.1096180621
9.93502515153
10.267642012
10.8434627489
11.5510263717
12.1375425957
12.8497633115
13.8205690978
13.8089069149
14.9356493507
14.6665128484
16.6318575132
15.8638883341
17.029836312
15.3658894253
13.8328687649
13.4285229488
13.4713721007
13.5832060818
13.6896426171
13.7910500238
13.9380687941
14.1700082394
14.4450081322
14.6807554132
14.8222899038
14.8556762034
14.7902481509
14.6475767701
14.4466222912
14.1932777571
13.8795442334
13.4900521524
13.0005257525
12.3625198466
11.5117981462
10.4738158091
9.41783602886
8.51216611098
7.81874669345
7.37091393112
7.17329645268
7.4460298166
8.7028135281
8.05705885799
11.9886760246
17.6002188165
21.3329790202
22.7443211706
21.7964846282
18.433868373
16.2561943139
17.9902497993
20.1218222713
19.545436777
18.4926958108
18.5117805117
22.980329684
24.5231778422
19.5334160283
19.324600994
11.6796376946
8.29444584116
5.47585759626
5.19346937895
11.6879298118
7.6462920693
5.39855900789
5.4749787074
5.54338845111
6.23129447754
6.54642065325
12.3441274561
12.8057411897
12.6878211686
10.8547855414
9.06539500729
8.79198748235
10.2201977489
10.1750166527
9.65425376199
9.93798892736
10.376568775
10.950275336
11.6537791905
12.5915361958
13.5681417145
13.7719675358
15.3443136949
14.8140370384
17.0005196876
16.0289764235
17.3425822832
16.0048884956
15.0167353492
13.3897319263
13.2317581601
13.4803467376
13.7036058455
13.848254748
13.9751209472
14.1402244787
14.3561055558
14.5980316186
14.8139051783
14.9545739124
14.997748744
14.9484238191
14.8296502983
14.6620987231
14.448572608
14.1749218083
13.8159523954
13.3330931368
12.6780200955
11.8295519522
10.8583529834
9.91718044461
9.12484318489
8.51077123717
8.08732899347
8.00757129092
8.38289461966
8.65618737234
9.19112426137
13.0363538189
19.9212751802
22.5549409207
22.9864705656
21.9185877463
19.6620241262
19.4389737879
21.9580995963
22.3489851792
21.4503107096
20.8036340861
22.6766043571
25.3317446541
26.7412588157
22.152712968
21.0017022727
11.2509258012
7.59067276823
6.50855052759
11.6750750486
11.6464255432
6.08447419144
5.93651413948
6.01442090361
6.21665569043
6.73174359708
12.1715352733
13.0293067066
12.906407766
12.1806530362
9.24368474403
8.35980782564
10.1144594934
10.4609369707
9.61058623153
9.4783578943
9.9912599761
10.6191177564
11.1852037256
11.9765282976
12.6439029975
14.0926931738
13.909685
15.253008256
16.9218895105
17.0192681434
15.476748718
16.4659140698
16.313262718
13.7600780946
13.2684366135
13.3351847859
13.5805916512
13.8289255904
14.0074501053
14.1586829333
14.3392184871
14.5551926423
14.7817386382
14.9825885928
15.1192213501
15.1689977936
15.1372231328
15.0486733806
14.9232076867
14.7582534816
14.5313551835
14.2059158135
13.7350817313
13.0840304273
12.2709853302
11.3884686237
10.5524759652
9.80885225095
9.13699019699
8.63903925063
8.62214818331
9.07681346763
9.74880195186
10.7222809397
11.72799213
19.7770375828
24.089225633
24.2483423299
23.70174686
22.8310891041
23.7448114184
25.0939515899
24.3601065144
23.6069553345
23.7281923499
25.9265669354
26.5020501256
27.0251214283
24.1137784407
21.9466845416
10.3130945799
7.1754930059
7.14771037378
12.5699672067
10.269594603
6.37670918196
6.51744313052
6.70342690671
8.3447187929
6.674801562
12.9447197047
13.4473043765
12.8820293546
10.5801768802
8.50392891103
8.47739623446
10.2480736517
10.0019525259
9.39945946745
9.50557900253
9.97236500126
10.7522426048
11.4737621103
12.8371600503
14.0639370785
13.9029901591
16.3028617813
14.8381698627
17.2770280195
15.7106288423
17.5354810242
15.2238712626
14.2378514388
13.5459782528
13.3845291566
13.4967078331
13.7105856211
13.9559572051
14.1663433031
14.3503074163
14.5479173826
14.7682902215
14.9905072113
15.182864763
15.3140558962
15.3697167175
15.35993085
15.3090883708
15.2332633763
15.1242905577
14.9509079197
14.6655875241
14.2185768792
13.5941397168
12.8412296622
12.0507013004
11.271906936
10.4445040341
9.51957668992
8.85405131499
9.07536605567
10.1223790104
11.3292053261
12.3476316739
13.1679037877
16.1948397511
24.1102170542
25.8162098473
25.9901829183
26.7958757656
27.9511396373
27.6019891365
26.5240392704
26.222723765
27.0687811549
28.1045944163
27.8305540772
27.1371278083
26.0539380936
24.6266875044
9.46188466216
7.32863474759
8.34926598397
12.5558741773
7.6611273448
7.38873022759
7.09720097569
7.34584624501
11.1101212079
9.59939436908
13.7712142554
13.6355814669
12.8463483221
9.53158422057
8.36576668473
10.3165105023
10.5232909998
9.63165566734
9.33255882724
9.69138004217
10.0935701408
10.8143655294
11.3843504681
13.0227578425
15.4947670751
13.7144842647
16.1847477998
17.3007429931
17.5169570745
17.8046328389
16.0287641645
15.8750008287
13.6770774727
13.3805708921
13.5185147671
13.6674420035
13.8555562076
14.0867212508
14.3205691612
14.544706555
14.7704996695
15.0010054472
15.2229914051
15.411407261
15.5401389989
15.6022169998
15.6176466351
15.6122581092
15.5943074863
15.5480251129
15.4350867774
15.198996323
14.7902448896
14.2134105723
13.5362366582
12.8166107043
11.9796117801
10.8048618663
9.40529942108
8.7962434429
9.81346805521
11.6678181624
13.250531346
14.4309007183
15.2847951479
15.258730502
16.3136490614
27.5775914055
30.4448275802
31.6835107938
31.6574735881
30.2238744216
29.2033028996
29.3212780033
30.2618862112
30.3932125626
29.9802824029
29.5575703014
29.8015352924
29.9277117779
9.07321052773
7.94664042256
12.069030858
12.4762609437
7.34250054401
8.06847957165
7.64368998165
8.39056715851
10.2752308264
13.3819182463
14.4574462057
13.7718298585
12.9256875416
9.22742488182
8.43620684651
10.9255924719
10.5141298395
9.50458813769
9.33920347016
9.84298254823
10.5653962613
11.1408865693
11.5759182334
12.5632331917
15.6226249568
16.7735805592
15.3842196745
17.4723220832
15.4926433531
17.8538239853
17.8297467555
15.6913148759
13.5255063499
13.4696714802
13.6870628117
13.8486052335
14.0214949461
14.2359583893
14.4742383563
14.7363563492
15.0042338976
15.2541357843
15.4799877475
15.6676001489
15.7967240569
15.869312247
15.9145898962
15.9592029327
16.0043746795
16.026783283
15.9814381012
15.8046698749
15.4509044835
14.9433978962
14.3463445567
13.6217446832
12.4274710633
10.4898113952
8.8979751262
9.10144181295
11.4135160576
14.0050271126
15.7928876274
17.0147703985
17.6418991576
17.514242189
16.8846177045
18.5616895319
32.1154536819
37.4040747611
36.1730546674
33.7442106842
32.7419702237
32.9649867708
33.4517714295
33.4977620141
33.5615951344
33.8967430374
34.375077111
34.9897054447
9.08936548757
8.65975027639
13.6185845409
12.8997945499
10.6340629438
9.18698168682
8.375261707
9.93349022974
9.38416202866
14.30695302
14.946600951
13.9591554827
12.7675732287
9.57328458081
9.20779835348
11.4428384157
10.4109301221
9.49456810661
9.44330758307
9.87890016306
10.7647007636
11.5752834801
13.5350091041
12.7058279727
14.9925644412
17.1585179025
15.0102701435
17.79231117
18.278759306
16.3994326905
16.3425189452
14.1747840766
13.8585542994
13.7907443939
13.9036973628
14.0586908915
14.221276239
14.4198993452
14.6370362536
14.9105187067
15.234123042
15.5325409199
15.7681762887
15.9523137564
16.0848817644
16.1741445311
16.2540563711
16.350610106
16.4598958749
16.5529215234
16.5777923493
16.4705242221
16.1977857427
15.78270678
15.2307661438
14.2350688224
12.0966544396
9.54056818894
8.59030850473
10.3373760416
14.1952231671
17.2355470977
19.0413898477
20.4170383604
21.0349366272
20.7384450197
19.8642734638
18.5677346941
28.3484501683
38.5227580872
41.3066425507
38.4587435922
37.388836551
37.4620088146
37.6868178246
37.6338242083
38.2291155717
38.8111773041
38.6103340657
38.7551915673
9.46538224767
9.19690493446
13.2026165535
13.1826246727
13.1147670449
10.0843372674
9.2429965526
13.0494966492
9.44646010258
15.1448130942
15.315248223
14.1629434675
12.6321748184
9.97509543884
12.454314332
12.5478253712
10.4397298974
9.62355680069
9.67840408788
10.0365534789
10.7297003682
11.5144167905
15.0927702009
16.1051039514
14.2108343943
17.2610414513
18.025164705
17.1928386567
18.2522783769
18.2207957014
16.9194133354
14.1104440282
14.0461638242
14.1087174926
14.1680623995
14.2848074091
14.4184795965
14.6330084296
14.8669197259
15.1097022632
15.443668121
15.8041282629
16.0848099592
16.2745274429
16.4091841493
16.5197711391
16.6394642435
16.7874448788
16.9550967209
17.1098186729
17.1990204125
17.1740864957
17.0186557236
16.7038669042
16.0538628335
14.236206314
10.7975461158
8.19453226746
8.79386028061
13.0843873039
18.2996563331
21.479540735
23.0133938534
24.9001939842
25.0965026416
23.9899197041
22.5086927435
20.8451332412
24.8772909945
35.9267163067
42.914108446
43.8658138205
41.76484344
41.9378359901
42.0709223664
42.512984764
43.3729316303
43.8275192686
43.6872946305
43.8216590894
9.89770495827
9.7445165533
9.46821954369
13.388026788
13.480613547
10.5967618604
10.0462475577
13.8651493616
9.84685792434
15.9747262286
15.6263359519
14.3741766529
12.6259987548
10.12836494
13.6589582155
12.8735683206
10.6514411686
9.90858955844
9.98263887679
10.3725003633
10.8197019417
11.4307470525
15.7171233328
17.0927847338
14.4414989895
17.3814868799
18.5486604828
16.1571207406
17.8660066612
17.4900643219
14.6874200354
14.4676085195
14.4698296261
14.4552992477
14.448133357
14.5726583939
14.6876375473
14.8191395299
15.0809940423
15.3720250825
15.6934189468
16.071178721
16.4032851428
16.6268209879
16.7768170541
16.9133437938
17.0739703539
17.2650783015
17.4796455478
17.679932935
17.8042026099
17.8756762588
17.8854538558
17.6748958089
16.5912956395
12.9393608805
8.10558356685
7.05465578982
11.5102626018
18.3057243234
24.4077563634
26.6226091808
24.9279796693
22.8507262996
19.9174592535
18.1899182616
17.7233306188
17.0256221912
15.2873421115
16.8829312791
42.3968942411
46.0173691352
45.7906471203
44.79583991
44.9855370381
47.5871699326
48.5872185072
49.0423078035
50.0715902189
50.6533331985
10.496716069
10.5514092821
13.9616207882
13.8684106745
13.7329648677
11.0022255763
10.9779971399
14.4840260848
10.6819655196
16.6571926083
15.8982650195
14.5893344249
12.6761396499
10.3938932028
13.8270062534
12.8024366602
10.8715600292
10.2352638548
10.2885730351
10.6316819078
11.054011185
11.530527725
14.8522418666
17.8633866273
17.9598968244
16.4258340199
18.7218833232
19.3176985041
15.7663056283
14.8679080126
14.5248761629
14.6369146325
14.7219730144
14.750921283
14.7999712427
14.8547237238
14.9607388898
15.1152171437
15.2948120806
15.6147323538
15.9853461604
16.3735542309
16.7297688734
16.9934616895
17.1860159467
17.3576344699
17.5547492007
17.7992621573
18.0506630525
18.2282085386
18.3356233258
18.5125040381
18.7193846395
18.5235110645
16.2234191844
9.70078789116
5.87489708
10.590998873
17.8024171091
24.2857308094
25.7690751566
19.3002036637
6.90601251323
0.000126392771122
9.88648005705e-05
0.000240021001423
0.00161793131773
0.00757829996201
0.0279942778881
0.177899261168
0.139291150243
12.0842645955
49.5006366325
51.951000064
46.9377005441
50.601644602
53.2025966225
55.8823392102
58.2098972277
58.5482251686
11.0274550305
11.2057494636
15.4775885709
14.2955836455
13.5030597471
11.4385649455
11.9144485809
14.9233195142
14.9229956634
17.4597404741
16.193926543
14.8672212036
12.7616435498
10.8123395581
13.9968670937
12.6895199565
11.1128151729
10.5772819248
10.5753014182
10.8506060455
11.2630352652
11.8402266091
14.0816296145
18.094457292
19.3603584946
15.6553445647
18.2868266483
19.1834813166
18.4288573911
15.5780033016
14.6738251328
14.8352889161
15.030899728
15.1506042052
15.0709822864
15.1515841888
15.2208433455
15.3899629376
15.5790884918
15.8708373407
16.2817604316
16.7124147706
17.072288045
17.3489407927
17.6059365102
17.9025204606
18.2007577332
18.4747626105
18.6255209861
18.715057742
18.838110069
19.0333429043
19.4584990241
19.187596897
13.1147780631
5.22943870023
8.4007561417
14.3490765397
16.4209988502
2.39550901272
0.00194630045091
3.24758881933e-06
2.289240263e-07
0
0
0
0
0
0
0
0
3.18394281003e-11
1.07387799464e-08
1.60629258438e-06
0.000931919517363
1.30166285697
57.8339145444
59.30604143
63.2171831059
64.9778723351
11.441950192
11.6468066694
17.7508503071
14.5648179301
12.9294597493
11.8377658107
12.5545259642
14.6779937799
16.4792381329
18.3866033407
16.6235232187
15.2514478048
13.0630202302
11.5590491452
14.3784546469
12.7475154975
11.4553592214
10.9832418156
10.902088893
11.1028797538
11.4527313679
11.9999305716
13.7331341272
17.9449575604
20.3141040519
19.3067397133
17.5713335595
18.4894891847
17.831450376
14.9442686329
15.1328650791
15.3552597665
15.6495996429
15.6025424784
15.5369179424
15.4480171419
15.5623496637
15.6639716458
15.8769884709
16.1679744352
16.5630758426
17.0401826488
17.5146733611
17.8212764868
18.133913803
18.557410427
18.9903957665
19.2827147449
19.3749996217
19.4431590574
19.5451321485
19.6199762468
19.4574523882
18.296637041
9.32632442725
4.87075395125
0.667159779181
0.0269771860707
0.000367825811047
1.00867833833e-06
0
0
0
0
0
0
0
0
0
0
0
0
0
4.10250994704e-10
4.07673583187e-09
8.93708824506e-08
4.33347050771e-06
0.0240647561008
75.4591741132
15.5639714043
11.7490745337
11.940010223
19.9072828101
14.7249688499
12.6888378697
12.2239813059
13.3410657813
13.5428722601
17.4308795804
19.034144991
17.0485994146
15.6509364771
13.5856719498
13.6962212378
14.9064166443
13.0630081566
12.0114615035
11.6136411841
11.3380020343
11.4467606602
11.699277487
12.1794375285
13.6242894833
17.8071297768
20.677020085
20.9717365822
16.5370698402
16.7518333158
15.5807240156
15.0342982256
15.3258906559
15.8819259455
16.1310317818
16.0532886424
15.9772786321
16.0979960478
15.9335196622
16.0075923147
16.1806284138
16.435617024
16.9330831651
17.4651277444
17.956004128
18.2171205738
18.6315774936
20.4678822991
23.0223041954
23.8132581673
22.1154079501
21.8599093721
21.9817266106
22.0497575468
21.3353815725
18.7047159534
18.3667465046
7.27854073121e-08
7.35505557709e-05
1.20014237759e-06
0
0
0
0
0
0
0
0
0
0
0
0
0
0
0
0
0
0
6.33824924838e-09
4.29215770238e-08
7.91509466191e-06
52.4172714693
12.0479277566
12.2098789466
19.5851591893
13.6889184258
12.6233962622
12.5426150588
14.2305992025
13.1921567612
18.2076469727
19.6593377362
17.4704854842
16.0344068814
13.9638998642
16.193278596
15.6844475284
13.5895279727
12.6679212085
12.7316085595
12.0028696397
11.9654248367
12.0523372337
12.3743965454
13.6824847289
17.6528355718
20.5114378894
22.0881374306
20.1528695755
18.7136124564
17.3616061629
15.3749043984
15.6505045629
16.7088942368
16.4076796223
16.4553490796
16.9282536806
16.5691286101
16.4186918197
16.4692128048
16.6334203283
16.863873796
17.1890681575
17.7844807584
18.4928057945
19.6573749851
21.3855347063
23.84115276
25.6862857989
25.6308199118
25.8272090496
27.1739097528
29.1826211016
31.9994852319
31.5090897201
30.1996935884
5.8732668009
0.0797702205578
0
0
0
0
0
0
0
0
0
0
0
0
0
0
0
0
0
0
0
0
0
0
1.95026907596e-08
80.003033902
12.4510799393
12.6010797325
19.0309393525
12.9559749435
12.7577622139
12.7830314956
14.9593990181
13.4541639197
18.8230231276
20.2697016032
17.9005053701
16.4426076995
14.2932101419
16.7880195409
16.3891416759
14.1905078613
13.304369539
13.5324085278
12.821101197
12.7166674861
12.6382294035
12.5713408037
13.9186013348
17.6164702905
20.1989783835
22.4433816405
21.4044950191
18.9137937777
15.7666168078
15.9138665582
16.3140449538
17.3219187261
17.6444043085
17.7526362348
17.7279970471
17.0999657256
16.9526385196
17.0367946551
17.1817591565
17.424639108
17.7203891899
18.39047713
19.6559044866
21.9963504393
23.5434650595
23.8261681386
24.8659810259
25.8707102996
29.4943194584
33.7930509457
40.3104499239
44.093568674
43.4471920141
10.2140744141
0.0209495926217
0.000507229936146
1.70259872196e-06
0
0
0
0
0
0
0
0
0
0
0
0
0
0
0
0
0
0
0
0
0
3.27749277532e-09
4.33642230112e-09
13.1209913437
13.2755483949
18.4054608256
12.9739969885
13.2273299632
13.1361362791
14.6264296457
14.1163012468
19.185370347
20.8335631945
18.3708680059
16.9113368696
14.7743378222
17.3509137373
17.046760842
14.9320687023
14.0324632928
14.3297768804
13.599755239
13.6224670747
13.5595265118
12.9543791251
14.3756792464
17.7417698875
20.044263917
22.5365765562
21.8470097481
19.2323506415
15.9748362243
16.0403354081
17.1294965383
17.0591214993
17.1528312241
17.6066344371
18.6812176488
18.0741360737
17.8387014089
17.6450976824
17.7282022105
18.0803443588
18.5071859232
19.2399780604
21.9648970816
24.5503797396
24.5787582327
24.7530200601
26.4181654712
31.4643394999
38.0040994936
43.5473764724
48.391340585
41.1282713318
0.0876109991377
2.87247713351e-05
1.80232535439e-07
3.65316743242e-07
5.60990199014e-08
0
0
0
0
0
0
0
0
0
0
0
0
0
0
0
0
0
0
0
0
0
2.42249109863e-10
1.09998202576e-09
14.1888479501
14.2755102849
18.3743106792
13.7697357103
14.383361182
13.8751709805
14.5948841276
15.5523222302
18.9241386401
21.1821237604
18.9159552741
17.4650986983
15.383297284
17.994221791
17.7379137529
15.8688315742
14.9921144703
15.3176212131
14.377703714
14.6457675017
14.8641918227
13.63440628
14.8491477365
18.0176275834
20.0652366786
22.3077815899
22.0187536555
19.579417119
18.6427292869
16.9604873922
17.6119857881
18.3321618345
19.3080630896
18.0601766012
18.4168063289
19.1946147612
18.7251100226
18.7572431168
18.6259343011
18.7620667497
19.297194353
21.7341141479
25.6662420274
26.5544458627
25.9821804141
27.571647214
33.8337693952
42.4192275513
48.1586045851
46.9236978943
23.179215015
0.000299467339671
2.04905425799e-06
0
0
0
0
0
0
0
0
0
0
0
0
0
0
0
0
0
0
0
0
0
0
0
0
0
0
0
15.7525955873
15.5097227107
18.8629823287
15.7373380578
16.4606932859
15.0440207278
15.3422826095
17.7075909887
18.8575120773
21.647643379
19.6030496426
18.1194991831
16.1028980788
18.6713673241
18.4230507806
16.9237909472
16.5515878434
16.6645452051
15.2388318892
15.8047953455
16.5275675804
14.7201342937
15.1286328028
18.349437054
20.2587146545
22.0528419743
22.172187681
19.5083346218
19.8230630954
18.6705134056
18.8487271814
17.4477028372
18.2343081461
19.6393857079
19.3001838036
19.5671579803
19.636553572
19.6011643405
19.7729676
19.8553528279
21.4179493656
26.1320862306
28.8959269108
28.8922412981
29.5512179452
34.4874707231
43.6754154357
49.4611012723
38.4435125811
0.286246182874
0.000500418744608
2.29135362653e-06
0
0
0
0
0
0
0
0
0
0
0
0
0
0
0
0
0
0
0
0
0
0
0
0
0
0
0
0
17.4500292219
16.6539345483
19.4504603092
18.5005424874
18.1432215694
16.4619893957
16.1907770865
18.7791153409
17.4542035197
21.9613606504
20.4192036579
18.8677755023
16.9266141681
19.3656917746
19.0565930049
17.7835814991
18.9395569913
18.3146507708
16.2349594094
17.158545867
17.9009327791
16.1684609861
14.962784256
18.2300818273
20.3599992597
21.8230129448
22.1712933516
19.4811831457
20.0432801439
19.9786128247
20.0151454813
18.1001403612
18.6561789301
19.0555356566
20.2170590668
20.781124851
20.8225532863
20.6782353737
20.7202574809
21.6870326375
26.0783451544
30.6279225222
32.2995185749
32.911377036
35.6568782017
42.140050916
44.9009840458
29.0869489349
0.770742643264
0.00111581258812
3.90779094261e-06
0
0
0
0
0
0
0
0
0
0
0
0
0
0
0
0
0
0
0
0
0
0
0
0
0
0
0
0
0
18.1827743361
17.4530348992
19.780031263
19.4343814585
19.0969943475
17.8426392834
17.2933791315
20.1260290259
18.3741794456
22.4077617181
21.2404930638
19.6692264512
17.846399335
20.097405868
19.7198315486
18.5113720666
19.8215283251
19.3076299655
17.2310428431
18.5408072096
18.5057428546
16.7725037467
16.0988930976
16.2679520562
19.8195332419
21.2498465228
21.8878482644
19.3997813832
20.0108491228
20.3905089446
20.895545963
20.270974142
18.4206955262
18.8827491289
20.3105626942
21.5770681494
22.1240560015
22.3290201321
22.3622421451
25.935557725
31.3641520194
34.8183610111
35.9782068081
37.2767614791
40.795933091
39.3141955835
25.3591543921
4.07172129794
0.00366780773833
1.04461063246e-05
0
0
0
0
0
0
0
0
0
0
0
0
0
0
0
0
0
0
0
0
0
0
0
0
0
0
0
0
0
0
18.1130453871
17.9917021905
19.9944205191
19.5289303161
19.7153046869
18.9329158957
18.2713120227
21.4435710328
20.0930530076
23.0110038354
22.1186305893
20.5069669236
18.8536659364
20.8801586755
20.4619875795
19.4024245357
20.5271448063
20.1782299945
18.3267982723
19.4872145464
17.6539896367
17.3935016195
17.0688511521
17.452337728
18.385861342
19.1957247552
20.9678176753
19.2585802798
19.2775871892
20.2945396312
21.2413390057
21.5977344053
20.0514736888
19.5631745053
20.1447334522
21.3272663687
22.7726991285
24.0318027057
25.595657566
31.0425549411
35.9149413237
38.3756064606
38.7325649122
38.9744549975
34.207904351
27.128857796
18.4776337351
0.0127403345237
2.85395411374e-05
0
0
0
0
0
0
0
0
0
0
0
0
0
0
0
0
0
0
0
0
0
0
0
0
0
0
0
0
0
0
0
18.2915042869
18.3879902951
20.2235609761
18.2047462226
19.9425563521
19.5072609591
18.9304191051
21.940852613
20.8410690218
23.6674898613
23.0609221333
21.3606675591
19.9622942164
21.7017843582
21.2548479359
20.4389816988
21.278023756
21.1623205266
19.5410649532
20.8188891363
18.956486147
19.173431503
18.2817108424
18.6722193573
20.4269251636
21.0103710173
20.5581527421
19.0774358585
18.5774435442
20.2059069847
21.2095895703
21.7379891866
21.7107812745
20.5955636494
21.9203891459
22.0521027925
23.3278181125
25.7178177441
29.7325483469
35.7497509623
39.6800563128
40.8473626383
38.5295667437
31.2873380841
29.1840040575
26.0944433622
0.106907486543
0.000243380124397
0
0
0
0
0
0
0
0
0
0
0
0
0
0
0
0
0
0
0
0
0
0
0
0
0
0
0
0
0
0
0
0
18.9819195599
19.0560623784
20.4294889453
18.5755695286
20.123722701
19.7837262678
19.4008246045
22.0153382013
21.3866913283
24.1398234611
24.0180699157
22.1810978901
21.1702178864
22.5237279298
22.0275610686
21.456130204
21.9882128565
22.2453929725
20.8096126267
22.1339247558
20.7373746878
21.3857370409
21.0182739566
19.3943774713
20.9226844705
22.0109406471
22.0859710946
18.9514105288
17.7593229761
20.090455176
21.3244530204
20.9995976116
21.0906588544
20.8236636864
21.8794782267
22.4396601927
24.0489863848
27.5352787447
33.8771450198
40.1659811646
42.9102025096
41.5722687832
32.2945112804
29.8384321662
29.2006253773
1.2155458766
0.0016959683863
6.87718951239e-06
0
0
0
0
0
0
0
0
0
0
0
0
0
0
0
0
0
0
0
0
0
0
0
0
0
0
0
0
0
0
0
0
19.8643823804
21.1997023445
20.7631373367
19.5894004351
20.6144535076
20.1199854407
19.8597452621
22.0734171929
21.9059888665
24.235260012
24.9803866771
22.9400502692
22.2476884244
23.1596960623
22.7842863704
22.1956597038
22.0312215827
23.2480203008
22.1969273563
23.2714643858
22.8306333762
22.6045530217
22.3217645349
21.8483493579
20.8443592727
21.7447795505
23.0266125444
18.040565158
17.2271782823
19.1928811114
21.3108328389
21.7238922538
22.2298607842
20.782264597
21.5844801161
22.6460677764
24.397691953
29.2159084303
37.7897829508
44.2075003068
45.5758131523
37.7108294818
31.6047933614
32.6336475256
24.2784209943
0.0114954275667
2.9339096106e-05
0
0
0
0
0
0
0
0
0
0
0
0
0
0
0
0
0
0
0
0
0
0
0
0
0
0
0
0
0
0
0
0
0
20.5211083587
21.8870023817
21.4297064226
20.498486103
21.2991631669
20.6701098176
20.3958338861
22.2302642844
22.4301901778
24.0447331563
25.8560766049
23.7165821295
22.8614651962
23.684486997
23.6638673589
22.8727431803
22.0645621779
23.9484839359
23.700891891
24.2562741118
24.1160683316
24.1684071236
22.4324921046
22.3973859456
21.8281568868
23.5314491915
24.3601618103
20.6366341121
16.7863380955
18.0425797681
20.6556510601
22.0283180792
22.1871439305
21.3964826074
21.0965621962
22.6530353582
24.3037332121
30.5317024025
41.3579914176
48.2173514741
45.1362290597
32.4680365078
33.4959648236
32.9672287966
0.394131448601
0.000338947415121
1.13905580603e-06
0
0
0
0
0
0
0
0
0
0
0
0
0
0
0
0
0
0
0
0
0
0
0
0
0
0
0
0
0
0
0
0
0
21.0234352367
22.2454361967
22.0323375417
21.1241284414
21.9901647003
21.3933473586