/*--------------------------------*- C++ -*----------------------------------*\
| =========                 |                                                 |
| \\      /  F ield         | OpenFOAM: The Open Source CFD Toolbox           |
|  \\    /   O peration     | Version:  v1806                                 |
|   \\  /    A nd           | Web:      www.OpenFOAM.com                      |
|    \\/     M anipulation  |                                                 |
\*---------------------------------------------------------------------------*/
FoamFile
{
    version     2.0;
    format      ascii;
    class       volScalarField;
    location    "347";
    object      p;
}
// * * * * * * * * * * * * * * * * * * * * * * * * * * * * * * * * * * * * * //

dimensions      [0 2 -2 0 0 0 0];


internalField   nonuniform List<scalar> 
6400
(
0.154528309827
0.154530557605
0.154536910592
0.154549101959
0.154566676185
0.154589415633
0.154617387318
0.154651653123
0.154692413446
0.154740000617
0.154799644351
0.154874036959
0.154960037019
0.155057709527
0.155168871747
0.15529561434
0.155438707292
0.155597593268
0.155770721188
0.155953446241
0.156139774262
0.156329805739
0.156529188652
0.156744426532
0.156979983778
0.157235701017
0.15750816564
0.157794984876
0.158096019272
0.158412087171
0.158743872438
0.159089872744
0.159444387707
0.159801785718
0.160160069252
0.160515787213
0.160868231966
0.161224835593
0.161584766956
0.161937630039
0.16228481681
0.162641146017
0.163014625965
0.163397534617
0.163780880062
0.164159346371
0.16452891993
0.164887209405
0.165232196319
0.165562271657
0.165876605848
0.166171217667
0.166440304488
0.166675661742
0.16687757179
0.16705433151
0.167203912325
0.167318511855
0.167397817816
0.167449673931
0.167479428471
0.167490365439
0.167488596668
0.167472912049
0.167433790868
0.167353532948
0.16722986563
0.167086368158
0.166948040025
0.166822546719
0.166707589474
0.166597663259
0.16648908871
0.166387301883
0.166291688153
0.166205370378
0.166130850159
0.166080626405
0.166047651355
0.166033645989
0.15452493322
0.154527289656
0.154532940038
0.154544866568
0.154563872853
0.154588025223
0.154616488044
0.154649245822
0.154688258205
0.154735846241
0.154795188197
0.154868410626
0.154954670126
0.155053343563
0.155164846456
0.155290346545
0.155432823833
0.155592473007
0.155767254554
0.155951169587
0.15613576071
0.156323537677
0.156522039453
0.15673684367
0.156972694887
0.157229278196
0.157501951572
0.15778932569
0.158091402568
0.158408325956
0.158740065668
0.159086435201
0.15944218138
0.159799699155
0.160158323404
0.16051435772
0.160866361479
0.161223354317
0.161584253977
0.161936971362
0.162281061416
0.162636569987
0.163014743534
0.163400955441
0.163785715181
0.164165696454
0.164536633456
0.164896604976
0.165242971459
0.165572408967
0.165884301965
0.166179897689
0.166456228487
0.166693738702
0.16689682567
0.167077098316
0.16722452557
0.167335248664
0.167413586442
0.167464461294
0.167492444565
0.167503224975
0.167500354208
0.167483987527
0.167444752297
0.16736494592
0.16723875391
0.167092311349
0.166951461358
0.166823357983
0.166705995198
0.166593372204
0.166481100097
0.166374486986
0.166277198931
0.166190989719
0.166119979329
0.166069671238
0.166036798852
0.166025602576
0.154515604748
0.15451958567
0.154524526535
0.154535438861
0.154553866658
0.15458116009
0.154612518995
0.154644340314
0.154681162681
0.154727536474
0.154786201468
0.154858820036
0.154945244698
0.155044629808
0.15515633074
0.155278601075
0.155419133435
0.155584905757
0.155763375683
0.155946327859
0.156126754343
0.156308495894
0.156505287384
0.156722563971
0.156959122439
0.157215174614
0.157489148375
0.157778516994
0.158082268379
0.158400627287
0.158733237553
0.159080647588
0.159439051032
0.159796041088
0.160153083821
0.160511734148
0.160863309535
0.161218226795
0.161579832349
0.161935031579
0.162285737321
0.162645721445
0.163021545229
0.163406107234
0.163791406149
0.164172652629
0.164546097135
0.164908980307
0.165258618927
0.16559254814
0.165909277296
0.166206759236
0.1664793485
0.16672025807
0.16693251624
0.16711425056
0.167258974205
0.167367925078
0.167444757032
0.167493816545
0.167520305922
0.167529707273
0.167524767052
0.167508439416
0.167467984397
0.167384234682
0.167257864079
0.167109319953
0.166961334242
0.166825574362
0.166700855213
0.166581175724
0.166465133037
0.166356336192
0.166256189228
0.166168677388
0.16609890536
0.16604852908
0.166016508591
0.166004639726
0.154502824965
0.154506797132
0.154510635682
0.15452063228
0.154536825399
0.154563985678
0.154604929482
0.154636702686
0.15467062408
0.154714849999
0.154772457612
0.154844746825
0.154931590933
0.155030725758
0.15514274953
0.155270858875
0.155416936
0.155580515434
0.15575152657
0.155922713393
0.156097994165
0.156283068986
0.156482108253
0.156699553003
0.15693712594
0.15719473252
0.157470780957
0.157762509438
0.158068729077
0.15838895972
0.158724017037
0.159073149482
0.159433128037
0.159794874692
0.160148723614
0.160502856304
0.160858759867
0.161212688298
0.161569163092
0.161927047418
0.162285919373
0.162652026359
0.163029460175
0.163414617222
0.163801503856
0.1641852985
0.164562160848
0.164929023363
0.165283137955
0.16562199498
0.165943330242
0.166244215147
0.166520239404
0.166767317988
0.166984012207
0.167166470884
0.167311191781
0.167419341827
0.167494655178
0.167541803673
0.167566018432
0.167572173856
0.167564627801
0.167547486892
0.167506748871
0.167423237745
0.167291519561
0.167133777719
0.166974103754
0.166826769877
0.166693488014
0.166568981843
0.166449089589
0.166331499258
0.166221878713
0.166131906927
0.166063725853
0.166008823147
0.165970371132
0.165954401865
0.154482995361
0.154483397387
0.154488159902
0.154498403114
0.154516434113
0.154541964185
0.154578862402
0.154614480904
0.154650976978
0.154695977853
0.154752886105
0.154825117502
0.15491295522
0.155017926741
0.155138224093
0.155268054527
0.155408720293
0.155560091064
0.155719909581
0.155887981349
0.156064574444
0.156250612753
0.156450738654
0.156669535403
0.156908569542
0.157168159445
0.157446359281
0.15774112495
0.15805037813
0.158374052329
0.158711401598
0.159065066745
0.159430618642
0.159788769139
0.160141662888
0.160493385041
0.160844068426
0.161198476169
0.16155741936
0.161919758249
0.162285465682
0.16265762805
0.163038497992
0.16342602804
0.163815763602
0.164203232292
0.16458456201
0.164956523229
0.165316300497
0.165661283407
0.165988796928
0.166295597718
0.166577735553
0.166831371217
0.167052975853
0.167238087221
0.167384045819
0.167492351031
0.16756700052
0.167612863559
0.16763506762
0.167638426449
0.167627307111
0.167606562263
0.167560744159
0.167474423856
0.167338252959
0.167169883905
0.166994453031
0.166831749151
0.166688002695
0.166555346566
0.16642160598
0.166286916727
0.166167986625
0.166073630981
0.165997099261
0.165926567901
0.165881296035
0.165864673365
0.154445970682
0.154445497164
0.154454111343
0.154464577796
0.154484451661
0.154512023783
0.154545919206
0.154582383718
0.154622537054
0.154669486229
0.154725203056
0.154798364148
0.154895271503
0.15500870471
0.155129024541
0.155253757012
0.155385253539
0.155527904016
0.155683634106
0.155850140856
0.156024534328
0.156210181583
0.156411695304
0.156632495529
0.15687363063
0.157134757982
0.157416243009
0.157714117292
0.158027809735
0.158355290895
0.158698214895
0.159054751134
0.15941970924
0.159783281481
0.160130863202
0.16047491059
0.160824611359
0.161181483164
0.161544395231
0.16191204297
0.162284309833
0.162662762208
0.163048488632
0.163440046569
0.163833994319
0.164226313947
0.164613221765
0.164991450067
0.165358180537
0.165710762856
0.166046339658
0.166361506297
0.166652243131
0.166914116151
0.167142282983
0.167332030703
0.167481286138
0.167591800376
0.167667601113
0.167713489884
0.167734304902
0.167735076322
0.167719888454
0.167690222532
0.167638018893
0.167541900864
0.167395259435
0.167214636015
0.167022124391
0.166842218756
0.166683899998
0.166532153084
0.166373486691
0.166220960757
0.166090661158
0.165984069129
0.165887513182
0.165801239847
0.165749433355
0.165726926253
0.154389214496
0.154393276039
0.154408358412
0.15442420082
0.154440897158
0.154468507552
0.154504429299
0.154542217806
0.15458520267
0.154634462949
0.154694065933
0.154770525733
0.154875266562
0.154988946905
0.155105495442
0.155222630364
0.15534791994
0.155488940311
0.155643809859
0.155805360775
0.155976761297
0.156162868065
0.156365619299
0.15658770868
0.156831089601
0.157096946365
0.157379539389
0.157681758694
0.158000418687
0.15833622845
0.158684205182
0.159041176815
0.159407435026
0.159764261404
0.160109076601
0.160451118892
0.160802067193
0.161162468988
0.161530171264
0.161903588448
0.162282500759
0.162667662208
0.163059403225
0.163456452448
0.163855972613
0.164254361258
0.164648015157
0.165033765187
0.16540889933
0.165770829586
0.166116642742
0.166442757397
0.166744753364
0.167017375226
0.167254899579
0.167452514251
0.167608430774
0.167724302852
0.167803650304
0.167850516035
0.167869333994
0.167865545578
0.1678434158
0.167801355023
0.167743876979
0.167635672639
0.167469471599
0.167270673542
0.167059626948
0.166858754842
0.166674324504
0.166490449221
0.166303655057
0.166132346817
0.165983858353
0.165853249879
0.165729563735
0.16562945733
0.16557134818
0.165542659801
0.154322625125
0.154330934793
0.154348660058
0.154372364943
0.154390836058
0.154419027952
0.154453913088
0.154493666397
0.154540367827
0.154587781827
0.15465462694
0.15474295971
0.154846365979
0.154957694791
0.155067713346
0.155177850646
0.155302699471
0.155445370489
0.155595661312
0.155752425723
0.1559216904
0.156107972646
0.156312037928
0.156536884001
0.156783707655
0.157052644352
0.157340389405
0.157642093166
0.157969944148
0.158317255709
0.158666255624
0.159019614854
0.159384086629
0.159736212733
0.160076949205
0.160422310546
0.160777033209
0.161141618779
0.161514499921
0.161894106371
0.162279998411
0.162672426658
0.163071227283
0.163475089013
0.163881494695
0.164287181742
0.164688803845
0.165083424547
0.16546856147
0.165841796834
0.166200256888
0.166540186468
0.166856664312
0.167143650829
0.167394781036
0.167605073149
0.167772497335
0.167897776312
0.167982730554
0.168029863503
0.168043713696
0.168030883266
0.167995576772
0.167940057554
0.16786992624
0.167758913154
0.167571673241
0.167345003902
0.167106338815
0.166873290109
0.166650272276
0.166427991881
0.166213486731
0.166017893386
0.16584071382
0.165674920756
0.165525854673
0.165411873492
0.165348284826
0.165318300539
0.154249831241
0.15426089056
0.154279066994
0.154298754561
0.154323020824
0.154358649143
0.154393190438
0.154434096394
0.154487134109
0.15453919332
0.154603665725
0.154700271127
0.15480635737
0.154912771042
0.155017223685
0.155127089411
0.155251633806
0.155391946635
0.155538023598
0.155692282485
0.155860065989
0.156045410521
0.156249204892
0.156475667764
0.156731369834
0.157001817641
0.157295181785
0.15760648928
0.157936098477
0.158283951435
0.15863963385
0.159000378036
0.159349852016
0.159694907351
0.160039140372
0.160389526898
0.160749142782
0.161118612229
0.161497097563
0.16188333651
0.162276717002
0.16267708779
0.163083929604
0.163495821082
0.163910375297
0.164324589055
0.164735441635
0.165140356005
0.165537197235
0.165923838402
0.166297576643
0.16665459524
0.166989589097
0.167295922431
0.167566716262
0.167796445783
0.167981794795
0.168120820728
0.168211775969
0.1682558992
0.168260909982
0.168237219526
0.168188647596
0.168114434992
0.168015463729
0.16789087622
0.167701648832
0.167439671823
0.167160163163
0.166881127326
0.166608632266
0.166346354444
0.166102805684
0.165874896505
0.165656075347
0.165448335953
0.165274225413
0.165147601425
0.165076328817
0.165045830848
0.154169836266
0.154182933995
0.154204192019
0.154223377777
0.154249233226
0.154285517449
0.154321310004
0.154362267643
0.154414315537
0.154480703538
0.154549768591
0.154646396975
0.15475326783
0.154855593163
0.154954624169
0.155067208669
0.155195432412
0.155330744323
0.155471728439
0.155624004898
0.155791720272
0.155977168266
0.15618110656
0.156406149063
0.156668927839
0.156948885857
0.157237739245
0.157558578411
0.157894025077
0.158247451035
0.15860583649
0.158963047124
0.159310103736
0.159649729838
0.159996668415
0.160352683586
0.160718019348
0.161093122081
0.161477726184
0.161871047969
0.162272493178
0.162681585099
0.163097457446
0.163518527059
0.163942448015
0.164366420967
0.164787786375
0.16520443586
0.165614707706
0.16601690668
0.166408707258
0.166786516768
0.16714499748
0.167477296562
0.167776065991
0.168034483428
0.16824574897
0.168402010956
0.168495705283
0.168531686656
0.16852672082
0.168495883296
0.16843630048
0.168338330673
0.16819912255
0.168026270575
0.167822579838
0.167557248152
0.167217203886
0.166873402699
0.16654526065
0.166245205875
0.1659712259
0.165702228632
0.165426165524
0.165165903035
0.164960556674
0.164818186454
0.164732021223
0.164693665423
0.154079247514
0.154091923605
0.154114843942
0.154138599239
0.154171511254
0.154202483364
0.154238374723
0.154281194484
0.154326281216
0.154399550507
0.154480778963
0.154577891685
0.154684913755
0.154786790194
0.154884749998
0.154997654432
0.155127418372
0.155259549692
0.155396803376
0.155546269374
0.155713640598
0.155900866056
0.156109731812
0.156334841898
0.15659190653
0.156887370803
0.157185586874
0.157506047604
0.157843235785
0.158189363563
0.158556994171
0.158915995747
0.159258787168
0.159598823059
0.159949906912
0.160311720785
0.160683323359
0.161064827654
0.161456194965
0.161857081491
0.162267164228
0.162685794665
0.163111720041
0.163543105289
0.163977578707
0.164412531017
0.16484569616
0.165275493514
0.165700826732
0.166120615418
0.166533228473
0.166935787178
0.167323633911
0.167690400718
0.168028419602
0.168327969466
0.168573992728
0.16874767313
0.168838839681
0.168864162401
0.168853377399
0.168825942956
0.168763239128
0.168639239454
0.168448449521
0.168201698042
0.167923292726
0.167628471468
0.16727059833
0.166843470208
0.166453244335
0.166119308674
0.165822053676
0.165506383009
0.165147475895
0.164803984242
0.164552875637
0.164388672683
0.164281638208
0.164228216206
0.153975589871
0.153985494506
0.154002818407
0.154033616569
0.154075984716
0.154106302779
0.154142665355
0.154190224853
0.154233824047
0.154303544634
0.154394054956
0.154493779795
0.154600053752
0.154702954447
0.154806695224
0.154921506614
0.155049523862
0.155178422793
0.155313314524
0.155460099644
0.155624337725
0.155809477921
0.156027755622
0.156265428875
0.156517069873
0.156812922621
0.15712051613
0.157437431433
0.157787546508
0.158140279611
0.158498072963
0.158849809126
0.15919268319
0.159540683552
0.159898048268
0.160266134104
0.160644581325
0.161033298335
0.161432265685
0.161841327612
0.162260580539
0.162689556303
0.163126620897
0.163569486369
0.164015686567
0.164462827145
0.16490905488
0.1653533035
0.16579508343
0.16623410905
0.166669847834
0.167100920243
0.1675245954
0.167936429143
0.168328655056
0.16868520643
0.168972765589
0.169164279525
0.169253192384
0.169269208382
0.169260050214
0.169258437116
0.169213797497
0.16906453243
0.168804250302
0.168455322592
0.16805556161
0.167659266866
0.16723598434
0.166754927572
0.166311420832
0.165957764875
0.165670374559
0.165315574325
0.164816110725
0.164312274571
0.164000155616
0.163828098672
0.163707648804
0.163639654812
0.15385853369
0.153865806731
0.153874888876
0.153909750624
0.153952323003
0.153989016321
0.154028569153
0.154081408327
0.154131067495
0.154199263989
0.154293571169
0.154394753809
0.154499621665
0.154600079949
0.154711441118
0.154834762441
0.154960867424
0.155086964265
0.155220499382
0.155366026765
0.155526925654
0.155706080859
0.155923765477
0.156183517947
0.156442246399
0.156725344555
0.157046880345
0.157370809673
0.157711269297
0.158069290896
0.158428303177
0.158776584
0.159120142042
0.159474866669
0.159839778893
0.160215188992
0.160601170048
0.160997779824
0.161405349095
0.161823659149
0.162252816483
0.1626928149
0.163142030602
0.163597619008
0.164056778237
0.164517318326
0.164977816421
0.165437641016
0.165896805026
0.166355917005
0.166816003018
0.167278258997
0.167743976058
0.168213097382
0.168678249356
0.16911003828
0.169443104451
0.169665747834
0.169766705159
0.169773269878
0.169760987851
0.16983533221
0.169867312809
0.169705352496
0.169344948504
0.168837646041
0.168247718673
0.167661361757
0.16709425312
0.166532919775
0.166074027195
0.16573981192
0.165567393491
0.165226924758
0.164444937588
0.163576309598
0.163218528067
0.163120169175
0.162999944534
0.162909507219
0.153729031063
0.153737467877
0.153751342125
0.153775861368
0.153813210877
0.153854019817
0.153897722332
0.153953003023
0.154013003657
0.154082413128
0.154179272949
0.154281550819
0.154386060663
0.154485091963
0.15459720272
0.154728362574
0.154856825204
0.154983399863
0.155116941825
0.155262371677
0.155421883858
0.155596371847
0.155809288918
0.156080107228
0.156354737401
0.156635615859
0.156961951575
0.157294714082
0.15763055193
0.157986704079
0.158337586095
0.158684090802
0.159037686115
0.159401062084
0.15977421442
0.160157860789
0.160552567119
0.160958008474
0.161374731085
0.161803316416
0.162243706611
0.162695752581
0.163158065248
0.163627543511
0.164100953081
0.164576163992
0.165052127394
0.165528391849
0.166005181654
0.166483921932
0.166967505883
0.167461056068
0.167972698008
0.168511045336
0.169069522599
0.169595265549
0.169978967858
0.170311542137
0.170484505859
0.170451795669
0.170386800827
0.17068518888
0.170882848191
0.170620120912
0.170032922831
0.169318944389
0.168521630258
0.167671013149
0.166874945234
0.166208984975
0.165587407475
0.165257571719
0.16554454878
0.16544748102
0.164108390697
0.162375619888
0.162095707068
0.162313426692
0.162158897417
0.161983046797
0.153583564898
0.153593061575
0.153615889432
0.153631080054
0.153662185483
0.153704093401
0.153751121159
0.153810333154
0.15388293935
0.153952825055
0.154050828457
0.154154347125
0.154259683788
0.154360333806
0.154473349958
0.154607516409
0.154738479439
0.154867315822
0.155002159867
0.155147966842
0.155307389577
0.155480799756
0.155685798961
0.155952989806
0.156252686332
0.156542251797
0.156856456107
0.157207539334
0.157553214785
0.157890324496
0.158233700063
0.158584148511
0.158945619135
0.159317913869
0.159700397508
0.160093411094
0.160497487714
0.160913045403
0.16134026443
0.161779876264
0.162232655669
0.162698259917
0.163175017112
0.163659618613
0.164148548348
0.164639754796
0.165132370431
0.165625774544
0.16611965393
0.166615534962
0.167118484799
0.167638811308
0.168193937507
0.168807032706
0.169470816767
0.170129053564
0.170621832219
0.171327647589
0.171674849958
0.171144620514
0.170050511441
0.17006338448
0.170347139654
0.170177413041
0.169624952648
0.16891603468
0.168154283653
0.167397904713
0.166689481545
0.166076307596
0.165697649799
0.165846597998
0.166954124555
0.167529289073
0.164483356048
0.159107197037
0.159867050231
0.161517765096
0.161201222484
0.160770813337
0.153419042184
0.153427737277
0.153448680724
0.15346575297
0.153494331865
0.153537641047
0.153586281492
0.153645059036
0.15372966893
0.153808111395
0.153906729417
0.154012179586
0.154119754791
0.154224514214
0.154340055511
0.154475070426
0.154607671219
0.154739368124
0.154876256319
0.15502293662
0.155182358312
0.155356251121
0.155556488444
0.155816082579
0.156130866257
0.156437679326
0.156744120247
0.157088548925
0.157445303365
0.1577869388
0.158125097812
0.158476606907
0.158844454155
0.159225763703
0.159618029131
0.16002088943
0.160435342641
0.160861796952
0.161300852179
0.161752994196
0.162219349512
0.162700069008
0.163193125545
0.163694480926
0.164200188268
0.164708702015
0.165219723584
0.165731355429
0.166240400171
0.16674783682
0.167262190116
0.167798052609
0.168381119681
0.169053780171
0.169803659529
0.17067663121
0.170699237695
0.170926264526
0.171219850759
0.171081478953
0.17058358917
0.170208029439
0.170134431836
0.169836202149
0.169259163363
0.168543688165
0.167776183798
0.167001065497
0.166267302456
0.165617617642
0.165136817259
0.164911348013
0.164845167121
0.163751596115
0.16133457318
0.160572028112
0.162543959496
0.163729794316
0.160493651882
0.158793202942
0.153237555485
0.153245333812
0.153266767206
0.153283908214
0.153312491844
0.153356084329
0.153405856376
0.153461408127
0.153547255141
0.153639689083
0.153743599683
0.153852464162
0.15396383236
0.154076297135
0.154194848501
0.154330494284
0.154464630456
0.154599760136
0.154739194026
0.154887299298
0.155047026551
0.15522080971
0.155417956673
0.155668731466
0.155983326714
0.156317664757
0.15663308689
0.156964642181
0.15731568195
0.157657846115
0.157997993829
0.15835658647
0.158732507947
0.159123033188
0.159525701758
0.159939632721
0.160365219737
0.160803655358
0.161255589574
0.161721863957
0.162203413409
0.162700739417
0.163212285578
0.163733140692
0.164257799621
0.164785184336
0.165316239516
0.165846872796
0.166368033945
0.166879337676
0.167393714864
0.167926496114
0.16849646532
0.169139065858
0.169797964227
0.170255054632
0.170661279048
0.170766866262
0.17085422012
0.17069447494
0.170263181309
0.169809319614
0.169475176496
0.169046810613
0.168434375782
0.16769209566
0.166884304285
0.166055132193
0.165246772837
0.164490490129
0.16380456169
0.163200296945
0.162589389877
0.161669040867
0.160535375156
0.160150019464
0.160757590068
0.161423211433
0.159252955257
0.15886478331
0.153041287645
0.153047554208
0.153064798865
0.153084238804
0.153117173533
0.153160927142
0.153213213032
0.153267450762
0.153351942848
0.153452654812
0.153561299211
0.153673114707
0.153786873678
0.153909793619
0.154034674644
0.154170948103
0.154307200427
0.154447243695
0.154590115739
0.154740321885
0.154900881687
0.155074299311
0.155269043119
0.155512654961
0.155822742562
0.156174222565
0.156509441916
0.156836568679
0.157175579992
0.15751310896
0.157857505939
0.158222899295
0.158607161284
0.159006864277
0.159420583853
0.159847277099
0.160285922899
0.160737252223
0.161203579893
0.161685352048
0.162183892905
0.162700450793
0.16323349052
0.163777015544
0.164322364929
0.164870558621
0.165429261016
0.165987267168
0.166514375245
0.167015549609
0.167514846807
0.168023217053
0.16853188346
0.169085155017
0.169502635713
0.169941195017
0.170249515582
0.170326809232
0.170291998308
0.170087455926
0.169693789616
0.169214980717
0.168724975871
0.168159911419
0.167462155646
0.166647956085
0.165759635898
0.164833266978
0.16389842199
0.162980594076
0.162056204706
0.16111526929
0.160146143796
0.159056965786
0.157874446212
0.157011490922
0.156706718385
0.156947710991
0.156620083144
0.158081366546
0.152832879202
0.152837914587
0.152850038692
0.152872305643
0.152908979564
0.152952508495
0.153006550792
0.153063702144
0.153144447163
0.153249257463
0.153360851406
0.153474567677
0.153588411055
0.153716607732
0.153853316771
0.153992794209
0.154131831072
0.154277573086
0.154426410671
0.154580290199
0.154742961207
0.154915900533
0.155108782948
0.155346374111
0.155646943513
0.155996440782
0.156353269011
0.156691381063
0.15702713818
0.157362098096
0.157705364145
0.158075749716
0.158468281484
0.158875175897
0.159301380843
0.159742251319
0.160194007459
0.160660119314
0.161142753091
0.16164276908
0.162160637514
0.16269798305
0.163254765604
0.163827685389
0.164410817287
0.165001392388
0.165594169367
0.166162370672
0.166679243986
0.167163699198
0.16763681354
0.168106669578
0.168570064859
0.168867779384
0.169227440651
0.169554667676
0.169736221759
0.169743333579
0.169607895435
0.169320786226
0.168876943885
0.1683206929
0.167693941846
0.166984206244
0.166164405162
0.165237457457
0.164226718014
0.163156242547
0.162044869856
0.160908393777
0.159707801617
0.1583973812
0.156977201332
0.155411459037
0.153721424902
0.152134725048
0.150836632259
0.149992005437
0.149622503769
0.150946504473
0.152613152933
0.152617825996
0.152628306305
0.152654042007
0.152690442192
0.152731844586
0.152783430787
0.152845396968
0.152922224633
0.153028743286
0.15314254234
0.153258095099
0.153373111858
0.153501696109
0.153648314175
0.15379436088
0.153937949276
0.154088520613
0.154244027004
0.154404035097
0.154571484723
0.154744759843
0.154936072381
0.155169358765
0.155460768249
0.155803571011
0.156169296584
0.156521256054
0.15685362332
0.157186794894
0.157537314787
0.157910354542
0.158308989698
0.158726656693
0.159166098213
0.159620991822
0.16008733408
0.160569789159
0.161070421756
0.161590592638
0.162130967581
0.162693499478
0.163282697663
0.163903117683
0.164545032345
0.16518269758
0.165802949521
0.166386109829
0.166903195945
0.167372456295
0.167829562022
0.168363690886
0.16846567353
0.168679433193
0.168911994359
0.169069495911
0.16910496957
0.168998057598
0.16874873058
0.168355321704
0.167819750902
0.167162921488
0.166407578841
0.165554870316
0.164594289337
0.163525185187
0.162358007392
0.161104466292
0.159770905426
0.158354029446
0.156836198538
0.155119786347
0.15314752298
0.150906015286
0.148357270544
0.145512824111
0.142354287059
0.138922997126
0.135576394725
0.138470337037
0.152379481954
0.152384216585
0.15239516154
0.152425255492
0.152460744871
0.152499506901
0.152546480926
0.152611474321
0.152682992125
0.15278961799
0.152905680305
0.1530232464
0.153140515813
0.153271028629
0.153422903944
0.1535757171
0.153725462645
0.15388130838
0.154042037141
0.154208665976
0.154383500418
0.154559161333
0.154748927954
0.154979126573
0.155262789743
0.155597190936
0.155964069393
0.156324236641
0.156666533556
0.156999465112
0.157355074314
0.157734125131
0.158134960256
0.158555481015
0.159004685232
0.159478075601
0.159963100644
0.160464357401
0.160984120862
0.161525877384
0.162092292092
0.162686412453
0.163322568724
0.164008568062
0.164709929841
0.165396074874
0.166068220691
0.166728574374
0.167274564568
0.16771236819
0.16809511724
0.168223051852
0.168379829069
0.168430881324
0.168476980202
0.168468215402
0.168351945959
0.168106198748
0.167724274461
0.167204126184
0.166547952598
0.165765994378
0.164870048333
0.163863135758
0.162740974309
0.161500823497
0.160143792124
0.158670244022
0.157074613882
0.155340996643
0.153443834166
0.151266108713
0.148662538336
0.145564038015
0.141816099899
0.137108983321
0.130777396515
0.121255002952
0.103596562814
0.0607245811039
0.152126035
0.152130726978
0.152143933104
0.152179142038
0.152214361631
0.152251187547
0.152295798959
0.152360638483
0.152426488216
0.15253105187
0.152649144542
0.152768704826
0.152888320051
0.153020805304
0.153175906708
0.153334864141
0.153492847278
0.153654719387
0.153819732369
0.153992151714
0.154175742766
0.154356801748
0.154544875758
0.154772354662
0.155050342065
0.155375371198
0.155736925884
0.156094616544
0.156450420355
0.156797873777
0.157154832056
0.157533604281
0.157942273952
0.158374349961
0.158825148353
0.15930927582
0.159815084726
0.160337657863
0.160881060187
0.161446781522
0.162040287178
0.162677088159
0.16338139531
0.164138075998
0.164896221972
0.165654660367
0.166458632316
0.167369485362
0.167990168138
0.168129001196
0.168105483732
0.168113728739
0.168108240935
0.168037436686
0.167926485448
0.167749054743
0.167468381977
0.167065874562
0.166533840725
0.16586893454
0.165071399888
0.164145445353
0.163096005408
0.161923833342
0.160624815537
0.159192972732
0.157621509752
0.155900103356
0.15401050526
0.151921477287
0.149581937357
0.146914270127
0.14369313271
0.139675642643
0.134620747777
0.127989888986
0.118673436748
0.104444292845
0.0806376208391
0.0414657046776
0.151844658471
0.151849315986
0.151864716273
0.151904962113
0.15193965035
0.15197782311
0.152021817516
0.152084256917
0.152147495367
0.152251307735
0.152371541864
0.152492974258
0.152614771252
0.152748694572
0.152905208445
0.153067992978
0.153236119477
0.153405481413
0.153575006801
0.153752483651
0.1539440949
0.154134727726
0.154322426555
0.154545879415
0.154820155771
0.155137162611
0.155491439477
0.155843355994
0.156199475793
0.156565551481
0.156939153907
0.157321042066
0.157720713878
0.158158351617
0.158625499486
0.159119430274
0.159641744643
0.160185863471
0.160753537933
0.161347070697
0.161976813335
0.162674921001
0.163455928015
0.164274734975
0.165104670243
0.165998712722
0.167068308299
0.168773001683
0.168525426556
0.168279884924
0.168058142765
0.167909172966
0.167751083495
0.167535001692
0.167255406569
0.166899283004
0.166443964675
0.165873492938
0.165179396302
0.164357021544
0.163404284993
0.162321061805
0.161107178714
0.159759715802
0.158271828627
0.156633183633
0.154829729002
0.152841423774
0.15063830334
0.148175279669
0.14538491027
0.142170083223
0.138340895262
0.133535062694
0.127361198851
0.119275095309
0.108242942829
0.0925269481182
0.0690302813212
0.0369802693078
0.151528538175
0.151535084281
0.151551274589
0.151590734101
0.151628278054
0.151672985637
0.1517201341
0.151782938577
0.151850481707
0.15194950072
0.152071197587
0.152194447727
0.152318408395
0.152453460214
0.152610142868
0.152773072435
0.152947321588
0.153127504303
0.153304322137
0.153488081457
0.153685618814
0.153888711476
0.15408426322
0.154299519068
0.154570114886
0.154881148245
0.155228074112
0.155575142226
0.155926011939
0.156300481738
0.156691614146
0.15708935027
0.157490471268
0.157921887629
0.158392226669
0.15890088507
0.159441520633
0.160008364503
0.160599673921
0.161223867279
0.161907742824
0.162682734903
0.163532172687
0.164414761067
0.165338968356
0.166381733696
0.167526661988
0.168295060186
0.168518045233
0.168167287251
0.167837802176
0.167564443337
0.16725815104
0.166883786785
0.166434282484
0.165901002419
0.165269295952
0.164526568745
0.163664608746
0.162677826097
0.16156202946
0.160313624288
0.158928226472
0.157398905504
0.15571492359
0.153861049347
0.151816488288
0.14955255301
0.147028898926
0.144188256008
0.140949121295
0.137195212016
0.132763852333
0.127334969059
0.120391935778
0.111331500486
0.0993637651454
0.0832256668444
0.060663224669
0.0323764357065
0.151182285184
0.15119225307
0.151208342886
0.15124116061
0.151284675045
0.151336208349
0.15138923812
0.151456613939
0.151533849366
0.151627103306
0.151747406027
0.151871733373
0.15199791015
0.152134263984
0.152291320319
0.152454831935
0.152629479122
0.152818859221
0.153005857482
0.153198308347
0.153401716605
0.153616735117
0.153829861331
0.154047657309
0.154304891724
0.154608759518
0.154948432895
0.155291256278
0.155635296311
0.156009110409
0.156408501457
0.156827566071
0.157242026435
0.157670094848
0.158136621824
0.158649541103