/*--------------------------------*- C++ -*----------------------------------*\
| =========                 |                                                 |
| \\      /  F ield         | OpenFOAM: The Open Source CFD Toolbox           |
|  \\    /   O peration     | Version:  v1806                                 |
|   \\  /    A nd           | Web:      www.OpenFOAM.com                      |
|    \\/     M anipulation  |                                                 |
\*---------------------------------------------------------------------------*/
FoamFile
{
    version     2.0;
    format      ascii;
    class       volScalarField;
    location    "347";
    object      pa;
}
// * * * * * * * * * * * * * * * * * * * * * * * * * * * * * * * * * * * * * //

dimensions      [0 2 -2 0 0 0 0];


internalField   nonuniform List<scalar> 
6400
(
-0.126499975419
-0.126501403831
-0.126505386345
-0.126513019343
-0.1265240296
-0.126538292967
-0.12655587587
-0.126577509244
-0.126603418949
-0.126633873433
-0.126672296669
-0.126720560604
-0.126776775185
-0.126841120541
-0.126914999572
-0.127000054128
-0.127097091102
-0.127205958426
-0.12732586425
-0.127453868075
-0.127586018815
-0.127722591034
-0.127867798237
-0.128026566074
-0.128202488375
-0.128395798897
-0.128604300259
-0.128826537489
-0.129062799807
-0.129314166526
-0.129581668796
-0.129864608108
-0.130158773564
-0.130459908237
-0.13076675905
-0.131076620209
-0.131389101617
-0.131711076345
-0.132042000202
-0.132372484384
-0.132703933941
-0.133050845203
-0.133421434015
-0.133808643254
-0.134203921977
-0.134602156129
-0.134999419559
-0.135393413848
-0.13578218589
-0.136164301454
-0.136539300467
-0.136902768074
-0.137247459819
-0.137562142168
-0.137847139726
-0.138113214612
-0.138357053708
-0.13856500564
-0.138731673149
-0.138866813622
-0.138976355393
-0.139062733566
-0.139123974102
-0.139176564219
-0.139247935247
-0.139354363411
-0.139487734713
-0.139619130749
-0.139727628178
-0.139811863297
-0.139877465174
-0.139930598378
-0.139975309968
-0.140011587985
-0.140041128365
-0.140064699576
-0.140082734899
-0.140093843257
-0.140100561921
-0.14010335094
-0.126497925745
-0.126499435898
-0.126502977583
-0.126510447241
-0.126522362462
-0.126537523741
-0.126555393307
-0.126576036219
-0.126600806495
-0.126631237933
-0.126669422617
-0.126716868462
-0.126773159233
-0.126838046258
-0.126912010011
-0.126996074437
-0.127092563651
-0.127201782595
-0.127322613427
-0.127451270949
-0.127582061704
-0.127716942
-0.127861447849
-0.128019764874
-0.128195708387
-0.128389470112
-0.128597912399
-0.128820320071
-0.129057107753
-0.12930884213
-0.129575969824
-0.129858867217
-0.13015370375
-0.130454565326
-0.130761434911
-0.131071349258
-0.131383186406
-0.131705330578
-0.132037019818
-0.132367264574
-0.132695476176
-0.133041025025
-0.133415723352
-0.133805896074
-0.134202316313
-0.134601855733
-0.135000284943
-0.135395773675
-0.135785669252
-0.136166450151
-0.136537647174
-0.136901284257
-0.137254592809
-0.137572194041
-0.137858723995
-0.13812974731
-0.138370552104
-0.138572773595
-0.138739427309
-0.138874233661
-0.138979586533
-0.139066795074
-0.13913174043
-0.139186895912
-0.139259974597
-0.139367009798
-0.139502169298
-0.139633026562
-0.139740043985
-0.139823242095
-0.13988791207
-0.139940339872
-0.139984586937
-0.140020427324
-0.140048687998
-0.140070616171
-0.140086630253
-0.140096778569
-0.140102977272
-0.140104988873
-0.126492198773
-0.126494705871
-0.12649777158
-0.126504579966
-0.12651608549
-0.126533128437
-0.126552700132
-0.126572629264
-0.12659590006
-0.126625427206
-0.12666302147
-0.126709860359
-0.126765981151
-0.126831005019
-0.126904752275
-0.126986218906
-0.127080770479
-0.127193564833
-0.127316469464
-0.127444200946
-0.127572002057
-0.127702375917
-0.127845252394
-0.128004952449
-0.128180946662
-0.128373757698
-0.128582578242
-0.128805870386
-0.129043275848
-0.129295416182
-0.129562499447
-0.129845427894
-0.130141709096
-0.130441337673
-0.130746011797
-0.13105772461
-0.131368733283
-0.131688427124
-0.132020409497
-0.132352740245
-0.132686906939
-0.133036189758
-0.133407880963
-0.133795695845
-0.134191959952
-0.134592086557
-0.134992410384
-0.135390205549
-0.135782804538
-0.136167666648
-0.136543342462
-0.136907826428
-0.137254807778
-0.137575883052
-0.137873955121
-0.13814672019
-0.138383907449
-0.138584415904
-0.138750687832
-0.138885831846
-0.13899439993
-0.139081741574
-0.139147947655
-0.139209591932
-0.139290339431
-0.139401873299
-0.139532404959
-0.139658527569
-0.139764680727
-0.139847486817
-0.139911537643
-0.139962546608
-0.140003466471
-0.140035545811
-0.140061141447
-0.140080625994
-0.140093984014
-0.140102333529
-0.140107335159
-0.140109041144
-0.12648436389
-0.126486846715
-0.126489208204
-0.126495416798
-0.126505432905
-0.126522182247
-0.126547481669
-0.126567300369
-0.126588654514
-0.126616635463
-0.126653307758
-0.126699627119
-0.126755622088
-0.126819968876
-0.126893190049
-0.126977720823
-0.127075171167
-0.127185865953
-0.12730338511
-0.127422720429
-0.127546482033
-0.127678701653
-0.12782260282
-0.127981747286
-0.128157732293
-0.128350857458
-0.128560328524
-0.128784471576
-0.129022760714
-0.129275303348
-0.12954318845
-0.129826400471
-0.130122658938
-0.130425126523
-0.130726163041
-0.131032979613
-0.131347277804
-0.131665610498
-0.131992308817
-0.132326448772
-0.132667633374
-0.133022096626
-0.133394489958
-0.133781912067
-0.134178771117
-0.134580453172
-0.134983212831
-0.135384016134
-0.135780105691
-0.136168924252
-0.136548178726
-0.136914831066
-0.137263957713
-0.137590529476
-0.137892670895
-0.138165469356
-0.138402450457
-0.138602742469
-0.138769069881
-0.138905275584
-0.139016083567
-0.139106266574
-0.139180792098
-0.139254970803
-0.139340960389
-0.139448708298
-0.139577168138
-0.139701654698
-0.139806295527
-0.139887402261
-0.139948131582
-0.139993575735
-0.14002863575
-0.140057571536
-0.140080660876
-0.140096441657
-0.140105916294
-0.14011217868
-0.140116338663
-0.14011801244
-0.126472188468
-0.126472442277
-0.126475356947
-0.126481612854
-0.126492592743
-0.12650797948
-0.126530535197
-0.126552708852
-0.126575490052
-0.126603683755
-0.126639575708
-0.126685461419
-0.126741461798
-0.126808688219
-0.126886321238
-0.126971095985
-0.12706439353
-0.127166470773
-0.127275858573
-0.127392320416
-0.12751616498
-0.127648285105
-0.127792150211
-0.127951336647
-0.128127324545
-0.12832077144
-0.128530639976
-0.128755768522
-0.128995058965
-0.12924878753
-0.129517012318
-0.129802162957
-0.130101636856
-0.130399658375
-0.130698593486
-0.131002353202
-0.131311295857
-0.131629338673
-0.131957303624
-0.132294447553
-0.132640973949
-0.133000143074
-0.133374699207
-0.133763206122
-0.134161628689
-0.134565717397
-0.134971688716
-0.135376320258
-0.135776756352
-0.136170312141
-0.136554222697
-0.136925083337
-0.137278590744
-0.137610368335
-0.137916291196
-0.138190580599
-0.138428405098
-0.138629643913
-0.138797483801
-0.138936384853
-0.13905142335
-0.139148081481
-0.139234052632
-0.139320037574
-0.139408517085
-0.139515357098
-0.139641396045
-0.139763270129
-0.139865204761
-0.139942191359
-0.139996193289
-0.140034298747
-0.14006530211
-0.140091465029
-0.14010952831
-0.140119876864
-0.140125579486
-0.140130177485
-0.14013236752
-0.140132809381
-0.12644947029
-0.126449159611
-0.126454386722
-0.126460631299
-0.126472444448
-0.126488747121
-0.126509410006
-0.126531878792
-0.126556624725
-0.12658568988
-0.126620359426
-0.126666131941
-0.126726813722
-0.126798301942
-0.126875029498
-0.126955903873
-0.127042749185
-0.127138378585
-0.127243941181
-0.12735821415
-0.127479600022
-0.127610468358
-0.12775422621
-0.127913654104
-0.128089866664
-0.128282962583
-0.128493621047
-0.128719536558
-0.128960383776
-0.129215298324
-0.129485650313
-0.129771223205
-0.130068229406
-0.130369378951
-0.130662589467
-0.130958841435
-0.131265718771
-0.131584626512
-0.131914819376
-0.132255454611
-0.132606742759
-0.132970524355
-0.133348344036
-0.133739305829
-0.13414038588
-0.134547796381
-0.134957825184
-0.135367168567
-0.135772908998
-0.136172261619
-0.136562216538
-0.136939186743
-0.137298901599
-0.137636583954
-0.137946866738
-0.138223985054
-0.138464396358
-0.138668744805
-0.138840517556
-0.138984459204
-0.13910593706
-0.139211454181
-0.139311456009
-0.139404643778
-0.139496272851
-0.139606104188
-0.13973249932
-0.139850298287
-0.139945809763
-0.140013955896
-0.140058550446
-0.140090936499
-0.140118762997
-0.140138348639
-0.140148573087
-0.140152345866
-0.140154092425
-0.140154550338
-0.140153578229
-0.140152970141
-0.126414746624
-0.126417187223
-0.126426251924
-0.126435608571
-0.126445097173
-0.126461248259
-0.126483003292
-0.126505906796
-0.126531998766
-0.126561989235
-0.126598562572
-0.126645147874
-0.126709347303
-0.12677997988
-0.126853478437
-0.126928954578
-0.127011098167
-0.127104423621
-0.127208057083
-0.127317871867
-0.127436075135
-0.127566036256
-0.12770932377
-0.127868194918
-0.128044336595
-0.128239054502
-0.128448462891
-0.128675549941
-0.128918131579
-0.129176968325
-0.129448580323
-0.129732415219
-0.130028395767
-0.130322302857
-0.130612316187
-0.130905462914
-0.131211741945
-0.131532035604
-0.13186481061
-0.132209013185
-0.132564802055
-0.132933269598
-0.133315190382
-0.133709794916
-0.134114652178
-0.134526384443
-0.134941429303
-0.135356513988
-0.135768731646
-0.136175251943
-0.13657290766
-0.136957877905
-0.137325536238
-0.137670442702
-0.137986619455
-0.138268745124
-0.138514359654
-0.138724681185
-0.138903171719
-0.139054301919
-0.139183975367
-0.139300422206
-0.13941023187
-0.139510092128
-0.139615665899
-0.139729620822
-0.139854535707
-0.139964254843
-0.140048255862
-0.140104811982
-0.140141605592
-0.140170009178
-0.140190450826
-0.140198993447
-0.140198892855
-0.140194365508
-0.140189703255
-0.140183719909
-0.140178135907
-0.140175898654
-0.126374193759
-0.126379207983
-0.126389720477
-0.126403561018
-0.126413724748
-0.126430204614
-0.126450974683
-0.126474621882
-0.126502509049
-0.126530616396
-0.126570773625
-0.126623205215
-0.126685508238
-0.12675353163
-0.126822233934
-0.126892470563
-0.126973038612
-0.127065863045
-0.127165213592
-0.127270568362
-0.127385867535
-0.127514445895
-0.12765705753
-0.127816203709
-0.127992870129
-0.128187316456
-0.128398540008
-0.128622133034
-0.128869166681
-0.129133701119
-0.129404472109
-0.129682067263
-0.129974439892
-0.130263093171
-0.130548207431
-0.130842265531
-0.131149715276
-0.131471548506
-0.131806859305
-0.132154644813
-0.132514889792
-0.132888236453
-0.133274974745
-0.133674274442
-0.134084011504
-0.134501133734
-0.134922287714
-0.135344334246
-0.13576444898
-0.136179794637
-0.136587058585
-0.13698210276
-0.137359762164
-0.137713967651
-0.138038531921
-0.138328757158
-0.138582977513
-0.138802361188
-0.138989470312
-0.139148017518
-0.139284869153
-0.13940943287
-0.139528223329
-0.139644645057
-0.139763313781
-0.139887260807
-0.140007867636
-0.140107024814
-0.140178057471
-0.140223831249
-0.140254011974
-0.140274797454
-0.14028130854
-0.140274620068
-0.140260600329
-0.140244538625
-0.140228772561
-0.140214368706
-0.140203102397
-0.140197972052
-0.126330074317
-0.12633671678
-0.126347288433
-0.126358260842
-0.126371700935
-0.1263925217
-0.126412613291
-0.126436439389
-0.12646750047
-0.126497690085
-0.126534921627
-0.126591209272
-0.126653985004
-0.126717887627
-0.126782356133
-0.126851394512
-0.126929875467
-0.127019539203
-0.127114745351
-0.127216921976
-0.127329543478
-0.127455630325
-0.127596060513
-0.127754180434
-0.127935021295
-0.128127667487
-0.128340210427
-0.128568447584
-0.128813193737
-0.129075792688
-0.129348527563
-0.129629663617
-0.129907334789
-0.130188355767
-0.130474036128
-0.130769933195
-0.131079099374
-0.131402675574
-0.131740479333
-0.13209184632
-0.132456638586
-0.132835147841
-0.133227340114
-0.133632284625
-0.134047987063
-0.134471636432
-0.134900142242
-0.135330591163
-0.135760295124
-0.136186427647
-0.136605529687
-0.137013096341
-0.137403397828
-0.137769859683
-0.13810631731
-0.138408600861
-0.138675154052
-0.138905956439
-0.139101485379
-0.139265305862
-0.139407373437
-0.139540744745
-0.139673082974
-0.139806058386
-0.139938190055
-0.14007729035
-0.140203274063
-0.140287183909
-0.140344266603
-0.140379958576
-0.140401464437
-0.140407460364
-0.140393892759
-0.140366325467
-0.140332895658
-0.140299418784
-0.140268147184
-0.140242752722
-0.140225059489
-0.140216739181
-0.12628189128
-0.126289698165
-0.126301848614
-0.126312111976
-0.126326352811
-0.126347112712
-0.12636737377
-0.126390627648
-0.12642009498
-0.126458204479
-0.126496684539
-0.126551673317
-0.12661369932
-0.126674107058
-0.12673407844
-0.126803245677
-0.126882124529
-0.126966913253
-0.127057128415
-0.127156235343
-0.127267006921
-0.127391096102
-0.127529325289
-0.127683555802
-0.127866515281
-0.128063682779
-0.128268593706
-0.128500974299
-0.128746121882
-0.129010500764
-0.129282161245
-0.129558078697
-0.129831578428
-0.130105410595
-0.13039045514
-0.130688213792
-0.130999364616
-0.131324898805
-0.131665190663
-0.132020088701
-0.132389533696
-0.132773549861
-0.133171810126
-0.133583268888
-0.134006003968
-0.134437403253
-0.13487466721
-0.135315188196
-0.13575646747
-0.136195702769
-0.136629287735
-0.137052376314
-0.137458730993
-0.137841429259
-0.138194355882
-0.138513371951
-0.13879575702
-0.139038032559
-0.139238384412
-0.139404589897
-0.139553620549
-0.139701357142
-0.139851351934
-0.140000773063
-0.14014779892
-0.140292271119
-0.140420085522
-0.140514071064
-0.140557352784
-0.140581112177
-0.140588983679
-0.140573167134
-0.140532301066
-0.14047496273
-0.140414036654
-0.14035619087
-0.140304910711
-0.140265412614
-0.140240735258
-0.140229604667
-0.126227666518
-0.126235156081
-0.126247954001
-0.126260564905
-0.126278823989
-0.126295782278
-0.126315420273
-0.126338983605
-0.126363115695
-0.126404159701
-0.126448481304
-0.126502531002
-0.126563346007
-0.126622465469
-0.12668043838
-0.126747581287
-0.126825433051
-0.126906447627
-0.126992344855
-0.127087528817
-0.127195986649
-0.127319135353
-0.127458578983
-0.127609528395
-0.12778448241
-0.127989545805
-0.128197344218
-0.12842545782
-0.128669101793
-0.128922989643
-0.129198609812
-0.129472677061
-0.129741218245
-0.130012492046
-0.130297608135
-0.130596867804
-0.130909988593
-0.131237673439
-0.131580521673
-0.13193886054
-0.132312984108
-0.132702824629
-0.133107743633
-0.133526537896
-0.133957347326
-0.134397786578
-0.134845397039
-0.135297918914
-0.135753079339
-0.136208124696
-0.136659351837
-0.137101639
-0.137528420142
-0.137932552404
-0.138307749129
-0.138648738992
-0.138948645326
-0.139197757083
-0.139397360352
-0.139567589797
-0.139732327782
-0.139903959052
-0.140075002801
-0.140240002134
-0.140395836937
-0.140537861195
-0.140662203991
-0.140769764218
-0.140820675832
-0.140838189915
-0.140827374173
-0.140783111514
-0.140703831053
-0.140600716945
-0.140500569682
-0.140411675806
-0.140334082776
-0.140276040376
-0.140244215017
-0.140232821389
-0.126166016424
-0.126171767344
-0.126180898448
-0.12619740987
-0.126220716204
-0.126236586086
-0.126255852572
-0.126281245306
-0.126303425152
-0.126340871422
-0.126389191839
-0.126443342126
-0.126502259492
-0.126560784496
-0.126620963964
-0.126686740512
-0.126761217549
-0.126838203622
-0.126920435101
-0.127011491655
-0.127115317786
-0.127234582936
-0.127378030745
-0.127534726137
-0.127701127605
-0.127902015353
-0.128113906894
-0.128334236595
-0.12858370158
-0.128838414736
-0.129102362012
-0.129368056416
-0.129633782865
-0.12990799573
-0.130194538113
-0.130495205001
-0.13081027025
-0.131140300033
-0.131485926534
-0.131847673044
-0.132226346735
-0.132622195587
-0.133034327854
-0.133461228107
-0.133901106721
-0.13435191781
-0.134811626183
-0.135278347644
-0.135750037995
-0.136224050927
-0.136696641264
-0.137162607568
-0.137615358713
-0.138047718581
-0.13845247274
-0.138820035302
-0.13913469372
-0.139382591492
-0.139579148051
-0.139762928845
-0.139961654012
-0.140171588905
-0.140364678032
-0.140543534714
-0.140704926941
-0.140842399877
-0.140955913828
-0.141051762189
-0.141128167916
-0.14115638532
-0.141140140258
-0.141061402411
-0.14092542221
-0.140742922682
-0.140585729427
-0.140460546146
-0.140346200057
-0.140261233871
-0.140227098341
-0.140222945957
-0.126096846851
-0.126100918259
-0.126104916182
-0.126123448471
-0.126146075367
-0.126165036067
-0.126185503902
-0.126212767375
-0.126237495312
-0.126272593482
-0.126321304885
-0.12637461374
-0.126431047038
-0.126486484196
-0.126549279908
-0.126617544508
-0.126688796339
-0.126761912505
-0.126840874956
-0.126928484846
-0.127027184983
-0.127139434702
-0.127279092905
-0.127447450868
-0.127614747262
-0.127802085626
-0.128019349149
-0.128239193336
-0.128476501357
-0.128731605526
-0.128992479584
-0.129253401216
-0.129515756878
-0.129791317026
-0.130079859999
-0.130382332693
-0.130699392165
-0.131031746532
-0.131380436657
-0.131745957209
-0.132129155091
-0.132530894534
-0.13295052513
-0.13338621578
-0.133836104836
-0.134298606462
-0.134772277552
-0.135255636631
-0.135746867371
-0.136243438715
-0.136741720031
-0.137236742274
-0.137722511763
-0.138191916219
-0.138634682288
-0.139030326029
-0.139353412985
-0.139594591345
-0.13978836529
-0.14000550631
-0.140270804773
-0.140537609808
-0.140745161841
-0.140937541456
-0.14109967273
-0.141218377033
-0.141302423578
-0.141371329361
-0.14144827315
-0.141506447996
-0.141520266172
-0.141420027539
-0.141198903233
-0.140879652953
-0.140650121259
-0.140499734465
-0.140328210444
-0.140195622932
-0.140176366582
-0.140204162105
-0.126020906845
-0.126025488705
-0.126032095697
-0.126044095675
-0.126062822194
-0.126083452401
-0.126105500519
-0.126132834485
-0.126162607898
-0.126196703073
-0.126244880911
-0.126296926423
-0.126351218421
-0.126403819656
-0.126464160436
-0.126534733699
-0.126605413088
-0.126676458211
-0.126752721508
-0.126837319967
-0.126931944563
-0.127037675262
-0.127169721838
-0.127341381579
-0.127516875343
-0.127696400001
-0.12791137431
-0.128134216594
-0.128361424544
-0.128609571912
-0.128861947365
-0.12911829963
-0.129384088913
-0.129661988978
-0.129952590548
-0.130257069692
-0.130576566625
-0.130911474598
-0.131262985147
-0.131632454603
-0.132020615971
-0.132428300093
-0.132855372609
-0.133300144587
-0.133760771958
-0.134236192452
-0.1347257207
-0.135228331189
-0.135742341939
-0.136265465891
-0.136794325779
-0.137324787159
-0.137852415517
-0.138370190451
-0.138859774661
-0.139277260549
-0.139607138934
-0.139847977234
-0.14003514596
-0.140319125515
-0.140729083925
-0.1411500313
-0.141308995315
-0.141503213402
-0.141646448787
-0.141747703626
-0.141837984449
-0.141915593702
-0.14198372902
-0.142067193434
-0.142349299895
-0.142281084139
-0.141901687594
-0.141095783851
-0.140649807572
-0.140525295475
-0.14024271195
-0.140012438701
-0.140069970976
-0.140202293767
-0.125936355668
-0.125941447238
-0.125952815471
-0.125958714295
-0.125973188618
-0.125993700046
-0.126016723433
-0.126045077993
-0.126080921698
-0.126113183066
-0.126159901865
-0.126210630738
-0.126263327801
-0.126314747477
-0.126372703535
-0.12644234072
-0.126512042358
-0.126581719198
-0.126655736415
-0.126737270409
-0.126828355969
-0.12692965857
-0.127051937993
-0.127216885771
-0.127404522201
-0.127583970197
-0.127785205059
-0.128016040923
-0.12824600283
-0.128475811616
-0.128718493654
-0.128972156934
-0.129238916957
-0.129518775734
-0.129811651858
-0.130118479354
-0.130440342007
-0.130778280698
-0.131133085038
-0.131506270411
-0.131899460581
-0.132313394437
-0.132747911519
-0.13320162951
-0.133673169096
-0.134162383358
-0.134669512953
-0.135193974836
-0.135734145428
-0.136287872777
-0.136852573489
-0.137426000264
-0.138006441692
-0.138586869088
-0.139129237466
-0.139549412281
-0.139939266843
-0.140264599855
-0.140353120622
-0.140722697597
-0.141075110896
-0.140801508053
-0.140504032795
-0.140319331229
-0.140128245018
-0.139931245428
-0.139717659673
-0.139555094531
-0.139515493848
-0.139550957314
-0.139515012152
-0.139415636458
-0.13916038233
-0.13921978402
-0.140283037153
-0.141017417965
-0.140438441871
-0.139615570341
-0.139878648611
-0.140310414163
-0.125841578724
-0.125846061053
-0.125855741128
-0.125862134527
-0.125874532915
-0.125895049256
-0.125917917383
-0.1259448487
-0.125985722755
-0.126020428744
-0.126065631439
-0.126115403965
-0.12616726558
-0.126218816847
-0.126275221286
-0.126342328934
-0.126410089684
-0.126478331856
-0.126550165192
-0.126628585906
-0.126715772427
-0.126813264233
-0.126928074904
-0.127082717079
-0.127274031363
-0.127461418256
-0.127649566002
-0.127868716705
-0.128102776673
-0.128331402321
-0.128565422454
-0.128814478194
-0.129080535703
-0.129361682607
-0.129656620996
-0.129965563359
-0.130289991799
-0.130630857991
-0.130989380067
-0.131366682229
-0.131764763315
-0.132184974863
-0.13262705702
-0.133089340571
-0.133570999983
-0.134073849767
-0.134600046091
-0.135149108224
-0.135718123694
-0.136305524542
-0.136911623479
-0.137536573236
-0.138182438589
-0.138841765468
-0.139423101311
-0.139837743631
-0.140318287586
-0.140113691781
-0.139717523161
-0.139448860898
-0.13936543091
-0.139139938515
-0.138492075097
-0.137627090792
-0.13663117579
-0.135591462282
-0.134582381288
-0.133734541693
-0.133195360312
-0.133029768234
-0.13313317254
-0.13339598568
-0.133772009384
-0.134457309971
-0.135389455633
-0.136229781528
-0.136531355681
-0.137728417326
-0.139405178116
-0.140860844371
-0.125738004502
-0.125741813421
-0.125751186535
-0.125756926673
-0.125768749754
-0.125788502412
-0.125810719953
-0.125834411027
-0.125873886385
-0.125914359361
-0.125960460244
-0.126010008848
-0.12606185532
-0.126115439377
-0.126170133485
-0.126234409273
-0.126299845124
-0.126366618994
-0.126436142515
-0.12651138286
-0.126594422104
-0.126687266102
-0.126795567337
-0.126938811866
-0.127123564255
-0.127323460733
-0.127509636937
-0.127712954296
-0.12793582919
-0.12816146573
-0.128392089771
-0.128640696098
-0.12890668046
-0.129188797539
-0.129485924962
-0.129797534364
-0.130124450646
-0.130468486061
-0.130830765635
-0.131212602835
-0.131615787083
-0.132041926483
-0.132491301353
-0.132961831313
-0.133452303222
-0.133967555293
-0.134513166476
-0.135087904256
-0.135686372262
-0.136309538406
-0.136962394597
-0.137648205389
-0.138371754122
-0.139123576428
-0.139860575446
-0.139624088773
-0.139399223195
-0.139117791978
-0.138453344686
-0.137653777193
-0.136853054831
-0.13599894403
-0.134810128148
-0.133351600085
-0.131711775151
-0.130019808987
-0.128387691723
-0.126950804577
-0.125856214837
-0.125211833435
-0.124976361959
-0.125031774295
-0.125323573924
-0.126069561297
-0.127551875463
-0.129532967251
-0.131216822688
-0.133417348601
-0.139682119866
-0.140941051448
-0.125627136659
-0.125629933122
-0.125636301405
-0.125642680983
-0.125656348566
-0.125675167005
-0.125697333828
-0.125718928739
-0.12575571923
-0.125798254377
-0.125844615269
-0.125893447562
-0.125944302159
-0.126000899791
-0.126055379282
-0.126116824267
-0.126180006829
-0.126245877012
-0.126313185726
-0.126385246064
-0.126464005834
-0.126551561282
-0.126653270432
-0.12678571542
-0.126960158281
-0.12716349707
-0.127358741824
-0.127552330667
-0.127760249984
-0.127975886974
-0.12820242461
-0.128449424764
-0.128714615086
-0.128997333545
-0.129296825052
-0.129611660324
-0.129942206322
-0.130289729414
-0.130656371839
-0.131042990643
-0.131451390011
-0.131883856893
-0.132340592215
-0.132818832331
-0.133314135147
-0.133833951331
-0.134395289619
-0.134999720264
-0.135629342362
-0.136286204032
-0.136986797126
-0.137734026163
-0.138522851214
-0.139371200775
-0.139073778966
-0.138666738323
-0.138189834111
-0.137519406259
-0.136539299918
-0.135317723598
-0.133916235215
-0.132380240675
-0.130671834007
-0.128843558642
-0.126938883747
-0.12503907027
-0.123215656564
-0.12154240829
-0.120092740298
-0.118945663446
-0.118154004023
-0.11764933754
-0.117427110158
-0.117654767403
-0.118662988239
-0.120637747512
-0.123434554727
-0.127215534829
-0.133049425958
-0.142303464471
-0.125510670631
-0.125512571927
-0.125515504875
-0.12552293035
-0.125537950375
-0.125555502298
-0.125577094152
-0.125598918807
-0.125631544544
-0.125673578788
-0.125718877029
-0.125766079152
-0.12581429627
-0.125870050822
-0.125927505507
-0.125987441979
-0.126048461121
-0.126113339715
-0.126179582278
-0.126249060581
-0.126323853558
-0.126405475861
-0.126500382378
-0.126622225402
-0.126782783882
-0.126976975265
-0.127180089785
-0.127373115598
-0.127571179303
-0.127778322685
-0.127997085339
-0.128239918119
-0.128504215407
-0.128785469267
-0.129087271131
-0.129405847183
-0.129739928293
-0.130092063413
-0.130464166859
-0.130857227452
-0.131271797353
-0.131710112886
-0.132173009736
-0.132658591234
-0.133162637507
-0.133689788881
-0.134255495441
-0.134860711201
-0.13550833723
-0.136203697412
-0.136954176973
-0.137757005933
-0.138647053472
-0.138110956745
-0.137575794468
-0.137154036767
-0.136386048099
-0.135258238782
-0.13381794456
-0.1321271264
-0.130222011588
-0.128158644598
-0.12598104483
-0.123740536358
-0.121456730792
-0.119165163196
-0.116904881732
-0.11472324123
-0.112671899069
-0.110823295947
-0.109267431668
-0.108004430653
-0.107018613776
-0.106419429809
-0.106484127421
-0.107696620344
-0.11043152429
-0.114031498294
-0.116740054107
-0.119286260756
-0.125389392128
-0.125390867659
-0.125392373145
-0.125401169242
-0.125415126066
-0.125430265934
-0.125448891417
-0.125471799721
-0.125500004505
-0.125540116763
-0.1255836937
-0.125628904766
-0.125674690364
-0.1257266521
-0.125785905834
-0.125845679173
-0.125905061077
-0.12596786191
-0.12603303256
-0.126100907039
-0.126172796291
-0.126248396228
-0.126336031222
-0.126447684662
-0.126593937449
-0.126774283808
-0.12697291799
-0.127167450081
-0.127357019
-0.127556196365
-0.127771939691
-0.128007218099
-0.128267861425
-0.128549303644
-0.128854118579
-0.129176994179
-0.129515388691
-0.129872880208
-0.130251417418
-0.130652175205
-0.131075244732
-0.131521631137
-0.131994427395
-0.132493568597
-0.133011385439
-0.133538414882
-0.134086602879
-0.134672390325
-0.135332383064
-0.136072326969
-0.136868187804
-0.137772034603
-0.13688832368
-0.136119715429
-0.135718337447
-0.135024232616
-0.133811986409
-0.132197636828
-0.130254793029
-0.128061596644
-0.125660680739
-0.123097848577
-0.120408086742
-0.117619125755
-0.114739632759
-0.111789920862
-0.108801581789
-0.105817498339
-0.102882111587
-0.10004668739
-0.0973783352026
-0.094919827954
-0.0925509864378
-0.0902104600236
-0.0880895763753
-0.0868567268576
-0.0869338938755
-0.085112925635
-0.0730012794493
-0.0557062143744
-0.125262114524
-0.125263387534
-0.125264708241
-0.125275213609
-0.125287582745
-0.12529988857
-0.125314491634
-0.125337263555
-0.125360022836
-0.125397368621
-0.125439054097
-0.125482139121
-0.125525841163
-0.125574965407
-0.125632854607
-0.125692061856
-0.125750220547
-0.125810679462
-0.125873217168
-0.125939189895
-0.126008977553
-0.126079092776
-0.12615855959
-0.126260226705
-0.126392649595
-0.12655746167
-0.126746673338
-0.126938922345
-0.127129893806
-0.127318555813
-0.127527671145
-0.12775777118
-0.128011286921
-0.128285283734
-0.128588933055
-0.12891942997
-0.129265069187
-0.129630087193
-0.130015975011
-0.130425374741
-0.130859703108
-0.131319375611
-0.131809744628
-0.132329499733
-0.132855326941
-0.133371767121
-0.133890841375
-0.134434965053
-0.135125560177
-0.135943779787
-0.136961869192
-0.135608053934
-0.134472153796
-0.134036308813
-0.13341910114
-0.132226128019
-0.130491924896
-0.128356076674
-0.125892944224
-0.123175297135
-0.120245567238
-0.117140374305
-0.113882658223
-0.110488705396
-0.10696945936
-0.10334582385
-0.0996457412868
-0.0958978565771
-0.0921175936253
-0.0883044409369
-0.0844585639921
-0.0805684240903
-0.0764200023914
-0.0717094585883
-0.0664447377638
-0.0611679867597
-0.0555832596322
-0.0432297085219
-0.00899377868209
0.040908759559
-0.125126062681
-0.125127074995
-0.125129182219
-0.125141614124
-0.125152552463
-0.125162303948
-0.125174178839
-0.125194650752
-0.125211661898
-0.125245299652
-0.125284732172
-0.125325373912
-0.125366742877
-0.125412836092
-0.125467923546
-0.125525772499
-0.125583404377
-0.125641206504
-0.12569992773
-0.125762864125
-0.125830310349
-0.125895813844
-0.125965975257
-0.126057465686
-0.126176831762
-0.126325052997
-0.126500304424
-0.126681678192
-0.126873221184
-0.127061892038
-0.127261098337
-0.127479622291
-0.127728327923
-0.128002739461
-0.128298219563
-0.128628233572
-0.12898248472
-0.12935706211
-0.129754582917
-0.130175414368
-0.130622844522
-0.131103746692
-0.131624337514
-0.132169009661
-0.132700040954
-0.133202784769
-0.133686414856
-0.134106027435
-0.134812156602
-0.135960083742
-0.13442028842
-0.132985545487
-0.132368275446
-0.131740750365
-0.130582947008
-0.128797225951
-0.126498106624
-0.123812672231
-0.120816760044
-0.117573852941
-0.114124189712
-0.110502303941
-0.106732574929
-0.102834087896
-0.0988217278288
-0.0947103725444
-0.090508907539
-0.0862123387028
-0.0817901277095
-0.0771775641601
-0.0722745461926
-0.066944118641
-0.0609729376117
-0.0539038127369
-0.045560440566
-0.0361929060258
-0.024217013417
-0.000495033509891
0.0508645226697
0.115549070694
-0.124977198631
-0.124977970664
-0.124980853471
-0.124994936437
-0.125004090142
-0.125012960758
-0.125022919104
-0.125039489744
-0.125052470234
-0.125083258134
-0.125120261086
-0.125158090803
-0.125196686013
-0.12523913225
-0.125290127057
-0.125344937835
-0.125402468397
-0.125457462539
-0.125512005162
-0.125570814746
-0.125634159823
-0.125696580373
-0.125757394776
-0.12583730856
-0.125944340233
-0.126076357476
-0.126235170825
-0.126401482645
-0.126581239197
-0.126772857256
-0.126972003544
-0.127180783635
-0.127411524636
-0.127679760334
-0.12797877756
-0.128306710345
-0.128665577227
-0.12904923426
-0.129459119596
-0.129896195243
-0.13036488709
-0.13087818912
-0.131438382674
-0.132011838805
-0.1325656432
-0.133084962795
-0.133542638149
-0.133428000697
-0.134674585471
-0.133296885267
-0.131658368984
-0.130873423006
-0.130169784724
-0.129006483336
-0.127201303086
-0.124789892974
-0.121908588477
-0.118675195315
-0.115166987996
-0.111443864141
-0.10754745524
-0.103513077662
-0.099366474983
-0.0951244665818
-0.0907924412673
-0.086362867842
-0.0818096579049
-0.0770833759692
-0.072105837809
-0.0667602821045