/*--------------------------------*- C++ -*----------------------------------*\
| =========                 |                                                 |
| \\      /  F ield         | OpenFOAM: The Open Source CFD Toolbox           |
|  \\    /   O peration     | Version:  v1806                                 |
|   \\  /    A nd           | Web:      www.OpenFOAM.com                      |
|    \\/     M anipulation  |                                                 |
\*---------------------------------------------------------------------------*/
FoamFile
{
    version     2.0;
    format      ascii;
    class       volVectorField;
    location    "169";
    object      U;
}
// * * * * * * * * * * * * * * * * * * * * * * * * * * * * * * * * * * * * * //

dimensions      [0 1 -1 0 0 0 0];


internalField   nonuniform List<vector> 
6400
(
(-7.99437081339e-05 -0.000108577722918 0)
(-0.000222449809938 -8.68634660962e-05 0)
(-0.000328023033458 -7.36636739864e-05 0)
(-0.000454644485286 -6.75953482097e-05 0)
(-0.000543399043634 -3.91988074886e-05 0)
(-0.000603538664903 -1.45305140675e-05 0)
(-0.000620196032074 -5.76902310393e-06 0)
(-0.000627356016533 -1.92306170091e-05 0)
(-0.000711517641061 -3.50313836694e-05 0)
(-0.000803425471117 -3.25296050017e-05 0)
(-0.000814399221076 -2.85708463434e-05 0)
(-0.000901204184466 -3.50572942316e-05 0)
(-0.000974126462025 -3.16200269581e-05 0)
(-0.00103113390381 -2.28842955696e-05 0)
(-0.0010630411174 -1.81713710283e-05 0)
(-0.00109914362746 -2.27262992981e-05 0)
(-0.00115526714771 -2.41318496981e-05 0)
(-0.00119769548476 -1.91190059303e-05 0)
(-0.00121756948579 -1.01044913877e-05 0)
(-0.0012273269559 -3.13457969633e-06 0)
(-0.00124698040889 -9.99935364873e-06 0)
(-0.00128472027676 -2.01590700086e-05 0)
(-0.00133452923456 -2.43411770463e-05 0)
(-0.00138039336783 -2.63321522637e-05 0)
(-0.00142618993713 -2.43750870121e-05 0)
(-0.00146823504192 -1.99468930581e-05 0)
(-0.00151206338407 -1.92978448393e-05 0)
(-0.00155242875531 -1.72809919529e-05 0)
(-0.00158257652943 -1.3132694432e-05 0)
(-0.00160420567564 -9.73909651212e-06 0)
(-0.00161677326937 -1.02024310136e-05 0)
(-0.00163496558252 -9.23137336169e-06 0)
(-0.00165288183655 -4.82820536277e-06 0)
(-0.00166120756278 -4.60926824652e-06 0)
(-0.00166431054684 -2.83180240719e-06 0)
(-0.0016792370737 -1.59465538712e-06 0)
(-0.0016943717368 -3.83605879304e-06 0)
(-0.00167189611299 -2.32502050971e-06 0)
(-0.00167989170328 6.10453859662e-07 0)
(-0.00170419026085 -3.45153792265e-06 0)
(-0.00173235723061 -2.37675525925e-05 0)
(-0.00175884162719 -3.07929344663e-05 0)
(-0.00177975806765 -8.53005966357e-06 0)
(-0.00178394997745 4.68656251378e-06 0)
(-0.00177273397188 9.76826967247e-06 0)
(-0.00175518574978 1.50983840927e-05 0)
(-0.00172926657032 1.92538648338e-05 0)
(-0.00169282776029 2.41428083958e-05 0)
(-0.00164854129118 2.65401107113e-05 0)
(-0.00160160399779 1.87383206558e-05 0)
(-0.00156238324688 2.564739207e-06 0)
(-0.00157342748871 4.4374980653e-06 0)
(-0.00152376344253 4.52888162794e-05 0)
(-0.00145119490913 5.95030211592e-05 0)
(-0.00134268911649 6.66272502312e-05 0)
(-0.00116152968094 8.44496460123e-05 0)
(-0.000992832034213 7.17648606785e-05 0)
(-0.000868488422747 5.76776295656e-05 0)
(-0.000757875052371 6.7671438103e-05 0)
(-0.000567696491817 7.32587725331e-05 0)
(-0.000396308127527 7.6754975883e-05 0)
(-0.000207669414417 0.000102454138197 0)
(4.37059210104e-05 0.000134134586677 0)
(0.000299558686556 9.67170595289e-05 0)
(0.000430375760785 6.01734927626e-05 0)
(0.000512784381273 4.32965914447e-05 0)
(0.000579421306396 3.19868566934e-05 0)
(0.000643793588851 2.55338498904e-05 0)
(0.000704534451259 2.06831510671e-05 0)
(0.000743529854956 1.33190885973e-05 0)
(0.000766762923905 3.95596183305e-06 0)
(0.000754619587155 -7.48612489951e-06 0)
(0.000712438634266 -2.18677072676e-05 0)
(0.000684602976601 -4.0736833798e-05 0)
(0.00055396206056 -4.20613306185e-05 0)
(0.000511714952167 -4.44117546149e-05 0)
(0.000354804060452 -3.0407627987e-05 0)
(0.000378884690973 -4.93743079484e-05 0)
(0.000167385094545 -3.84928060764e-05 0)
(0.000125352347864 -7.47324264365e-05 0)
(-2.86385820461e-05 -0.000146861261828 0)
(-0.000123507375129 -0.000168861365723 0)
(-0.000217365572918 -0.000158791084955 0)
(-0.000274765968698 -0.000126299260248 0)
(-0.000412366619053 -0.000125797932276 0)
(-0.000557213681387 -8.84478069931e-05 0)
(-0.000644394881689 -4.83283641384e-05 0)
(-0.000697035858319 -7.02238717075e-05 0)
(-0.000751148606017 -0.000101111536764 0)
(-0.000814179266799 -9.82706874344e-05 0)
(-0.000874459802105 -9.27544482309e-05 0)
(-0.000928670314016 -9.56433640029e-05 0)
(-0.000978082736154 -8.44850678901e-05 0)
(-0.00102250819766 -6.71678245209e-05 0)
(-0.00106900295701 -5.84486476235e-05 0)
(-0.00111407106231 -7.63487312077e-05 0)
(-0.00115929786926 -8.06733457062e-05 0)
(-0.00118779214928 -3.95344340889e-05 0)
(-0.00114383197214 -1.21181405798e-05 0)
(-0.00116540081099 -9.49874509803e-06 0)
(-0.00120271968489 -3.44720093887e-05 0)
(-0.00125748039769 -7.31143902573e-05 0)
(-0.00133476359986 -8.68742610173e-05 0)
(-0.00139657281087 -7.58144407621e-05 0)
(-0.0014099934855 -6.75671730071e-05 0)
(-0.00147079198395 -6.58818804807e-05 0)
(-0.00152204165396 -5.98508083964e-05 0)
(-0.00155494224943 -4.93164149493e-05 0)
(-0.00158089797621 -3.84340843481e-05 0)
(-0.00160278625683 -2.94681913344e-05 0)
(-0.00162155458522 -2.67710005824e-05 0)
(-0.00161689269537 -2.23096474231e-05 0)
(-0.00163261063445 -8.60266900647e-06 0)
(-0.00163427432609 -1.09223055901e-05 0)
(-0.0016244918082 -1.53470964814e-05 0)
(-0.00166811509039 -2.98887909845e-06 0)
(-0.00166039578864 -8.07532202193e-06 0)
(-0.00164392914235 -1.67577765214e-05 0)
(-0.00167058540006 -1.31376117814e-05 0)
(-0.00172675969615 -1.08163280489e-05 0)
(-0.00176145733638 -4.59334602081e-06 0)
(-0.00156081844935 2.47350730304e-06 0)
(-0.00150565280895 5.49499561829e-06 0)
(-0.00151676560922 7.58514954105e-06 0)
(-0.00151521711808 1.03303212822e-05 0)
(-0.00153001859606 1.54863864375e-05 0)
(-0.00155149178587 2.44541186456e-05 0)
(-0.00155298311816 3.55599425492e-05 0)
(-0.00156660581592 4.71377745332e-05 0)
(-0.00155951007651 5.47635558814e-05 0)
(-0.00150146648251 5.29679093452e-05 0)
(-0.00138104111127 5.2816596511e-05 0)
(-0.00126964343366 6.21738577953e-05 0)
(-0.00144956585903 0.000109704552802 0)
(-0.00131389199528 0.000166538105514 0)
(-0.00121177975514 0.000199308972859 0)
(-0.00119196407456 0.00020855297435 0)
(-0.00106635926458 0.000208607663195 0)
(-0.000907851860697 0.000239513935635 0)
(-0.000732929862277 0.000285300963635 0)
(-0.000525298789248 0.000330413617331 0)
(-0.0002210117834 0.000309108390497 0)
(2.96922812364e-05 0.000395314756432 0)
(0.000287195426888 0.000301384857354 0)
(0.000424113434153 0.000190310144994 0)
(0.000488168412211 0.000118436269109 0)
(0.000544310799705 9.26057762109e-05 0)
(0.000635462152886 8.62359498485e-05 0)
(0.000701045353156 6.94924012875e-05 0)
(0.000752867928706 4.27676195974e-05 0)
(0.000767927214012 6.6698370863e-06 0)
(0.000748307111239 -3.25534758137e-05 0)
(0.000688422389732 -6.04362570602e-05 0)
(0.000676524187533 -9.25042184551e-05 0)
(0.000622263005851 -0.00011375553092 0)
(0.000559272601697 -0.00012615914199 0)
(0.000478658702026 -0.000123415115902 0)
(0.000392166082203 -0.000149518155574 0)
(0.000248002800175 -0.00017511088485 0)
(0.000116483598217 -0.000297610569432 0)
(-4.5001589511e-05 -0.000253247647984 0)
(-0.000122063481937 -0.000283663958747 0)
(-0.000187179487232 -0.000270418205796 -1.00035690353e-28)
(-0.000337926878388 -0.000287024223025 9.83458405252e-29)
(-0.000487301199482 -0.000295155466814 9.23992062793e-29)
(-0.000567520043678 -0.000236689165629 -8.58076038137e-29)
(-0.000617808518151 -0.000114515069726 8.79678405954e-29)
(-0.000673517025444 -0.00012720033278 -8.91843183523e-29)
(-0.000732329338827 -0.00016063336295 0)
(-0.000800990595767 -0.000166490041417 0)
(-0.000869202714576 -0.000157000014627 0)
(-0.000926235994927 -0.000145066364711 0)
(-0.000975968347428 -0.000127955765281 0)
(-0.00101852441247 -0.000115461875136 0)
(-0.00106018258597 -0.000103111245729 0)
(-0.00110003329767 -7.56596039478e-05 0)
(-0.000922602754083 -3.59941591407e-05 0)
(-0.000874166384581 -1.40436281637e-05 0)
(-0.000896463450903 -2.30997823302e-05 0)
(-0.000964365628885 -6.95647519132e-05 0)
(-0.00117114971528 -0.000129892189566 0)
(-0.00129460142186 -0.000155359496809 0)
(-0.00130621187517 -0.000144006589726 0)
(-0.00137055065154 -0.00012839638949 0)
(-0.00143870879405 -0.000119267370357 0)
(-0.00148102471915 -0.000112122232252 0)
(-0.00151540638494 -9.58413470569e-05 0)
(-0.0015482543366 -7.77414686105e-05 0)
(-0.00157449179983 -6.13199189102e-05 0)
(-0.00158923840439 -4.86714241938e-05 -2.05292465545e-28)
(-0.00161538877812 -3.64033210754e-05 1.99981592854e-28)
(-0.00159471129792 -2.67118099153e-05 0)
(-0.00159612434423 -1.33009335198e-05 0)
(-0.00164361494628 2.89659541638e-06 0)
(-0.00154713487131 -1.46009929332e-05 0)
(-0.00158375932808 -2.22322586137e-05 0)
(-0.00166749990984 -8.89005894581e-06 0)
(-0.00157838723798 -2.58030212522e-05 0)
(-0.00163075665626 -5.3687923495e-05 0)
(-0.00172138817089 -4.61841054637e-05 0)
(-0.00177434492533 1.01426866144e-05 0)
(-0.00178481046136 4.56073439297e-05 0)
(-0.00178850918778 2.78419743922e-05 0)
(-0.00178607762553 1.45347741063e-05 0)
(-0.00177492858525 1.35150655363e-05 0)
(-0.00175791632364 1.77107182096e-05 0)
(-0.00173638644439 2.96594678041e-05 0)
(-0.00171096582251 4.47026561136e-05 0)
(-0.00168221639652 6.32319685304e-05 0)
(-0.00165102751526 8.98555990431e-05 0)
(-0.00161902037047 0.000117479360101 0)
(-0.0015820542891 0.000129360507698 0)
(-0.00152554202598 0.000115370945846 0)
(-0.00142072783433 0.000157273415024 0)
(-0.00129735204606 0.000223685060959 0)
(-0.00127075586011 0.000264547237472 0)
(-0.00119106256279 0.000299115796509 0)
(-0.00105899484737 0.000346216019707 0)
(-0.000898550418573 0.000404513864792 0)
(-0.000714975799699 0.000475134996157 0)
(-0.000506307550049 0.000551357372142 0)
(-0.000274135323172 0.00063211985637 0)
(-5.88392935053e-06 0.000694466755057 0)
(0.000223419934816 0.000480458371116 0)
(0.000352620233161 0.000288214914782 0)
(0.000465861128526 0.000208389137748 0)
(0.000564911712084 0.000175967596044 0)
(0.000633756728032 0.000150062691571 0)
(0.000689278389193 0.000113291723323 0)
(0.000726928956138 6.382863826e-05 0)
(0.000737558749263 8.65912462062e-06 0)
(0.000734372109188 -4.0274582521e-05 0)
(0.000745756182417 -8.01972105198e-05 0)
(0.000732220328194 -0.000132771389978 0)
(0.000664872898936 -0.000184274013683 0)
(0.000576982990169 -0.000208882373118 0)
(0.000481474987707 -0.000219880128291 0)
(0.000385616924523 -0.000279998676014 0)
(0.000272404236277 -0.000406206043512 0)
(7.25380614389e-05 -0.000422408065509 0)
(-4.64548375871e-05 -0.000389237627963 0)
(-5.19933413887e-05 -0.000249814736221 0)
(-0.000156508625223 -0.000419294570931 0)
(-0.00030730335452 -0.000436855892491 0)
(-0.00041189338637 -0.00036408315575 0)
(-0.000209524093282 -0.000123623332255 0)
(-0.000257700437246 -0.000123412772118 0)
(-0.000517280190473 -0.000249105442427 0)
(-0.000680311997393 -0.000278671891992 0)
(-0.000768701096844 -0.000251621972621 0)
(-0.000854663377971 -0.00023033864023 0)
(-0.000921626636613 -0.000204943152025 0)
(-0.000973132455861 -0.000175759473307 0)
(-0.000997676932071 -0.000123524905098 0)
(-0.000887793656736 -5.27212273018e-05 0)
(-0.000811597321793 -8.45158918677e-06 0)
(-0.000802718733566 -1.5904179741e-06 0)
(-0.000858593561465 -4.57630433362e-05 0)
(-0.00100979583958 -0.000123150554919 0)
(-0.00119587366549 -0.000216430739568 0)
(-0.00123605241429 -0.000238787074616 0)
(-0.00128130235435 -0.000218287614544 0)
(-0.00134306907344 -0.000200339470761 0)
(-0.00139413364124 -0.000187182501609 0)
(-0.00143596102903 -0.000168857226183 0)
(-0.00147211457118 -0.000147789228969 0)
(-0.00150148064893 -0.000127013200624 0)
(-0.00154227299082 -0.000105280879733 0)
(-0.00155486815681 -8.33090343708e-05 0)
(-0.00159249751908 -6.40362954419e-05 0)
(-0.00157226766904 -4.53388610866e-05 0)
(-0.00161268164373 -2.41040267954e-05 0)
(-0.00154705718853 2.79286499576e-07 0)
(-0.00155135163748 3.89340467062e-06 0)
(-0.00163223908758 -1.0392692316e-05 0)
(-0.00154964514425 -3.81170070766e-05 0)
(-0.00162514794375 -4.95263010558e-05 0)
(-0.00172561894074 -6.55630331213e-05 0)
(-0.00174943719753 -9.25187656745e-05 0)
(-0.00175689870659 -7.59368648425e-05 0)
(-0.001768850192 -2.40174149637e-05 0)
(-0.00178014696113 1.52175663189e-05 0)
(-0.00178618541498 2.34130262099e-05 0)
(-0.00178470146011 2.39342860653e-05 0)
(-0.00177506003391 2.89791702043e-05 0)
(-0.00175945455825 3.90818848226e-05 2.11212281634e-28)
(-0.00173932840534 5.41389267957e-05 -2.12622202614e-28)
(-0.00171530683737 7.26563520295e-05 0)
(-0.0016877249874 9.46325207474e-05 0)
(-0.00165676288703 0.000120406242222 0)
(-0.00162171257546 0.000146590496156 0)
(-0.00157802726496 0.000170505735351 0)
(-0.00151896814831 0.000200291614281 0)
(-0.00144482430751 0.000251502755061 0)
(-0.00136729616213 0.000299951019044 0)
(-0.00128663815622 0.000345894656972 0)
(-0.00118578809769 0.000414666956947 0)
(-0.00105234556939 0.000496216346306 3.9029174835e-28)
(-0.000886454583347 0.00058521285725 -4.36589675797e-28)
(-0.00069365570385 0.000680073889038 0)
(-0.000481010454585 0.000770506665429 0)
(-0.000261432999606 0.00084557457889 0)
(-6.29637094418e-05 0.000863929872594 0)
(0.000151651367923 0.000684457486727 0)
(0.000350328191333 0.0004611438016 0)
(0.000458925000771 0.000313852082408 0)
(0.000547000790968 0.000249859779324 0)
(0.000628157123586 0.000209464203346 0)
(0.000692629781349 0.000158695494037 0)
(0.000751740094036 9.52596138285e-05 0)
(0.00079101015299 2.89843493429e-05 0)
(0.00081223010489 -3.28456727028e-05 0)
(0.000791173254023 -0.000108663107185 0)
(0.000694118481251 -0.000189549491937 0)
(0.000614926387428 -0.000256689902222 0)
(0.00053634047892 -0.000310665841217 0)
(0.000424129504624 -0.000341144667552 0)
(0.000260633015501 -0.000333410572049 0)
(0.000193257858033 -0.000472367063624 0)
(6.61568905222e-05 -0.000569213604966 0)
(-1.96994424931e-06 -0.000377888338309 0)
(-2.29930379547e-05 -0.000305635395752 0)
(-0.000148348164638 -0.000568619538803 0)
(-0.000260598131089 -0.000519885950582 0)
(-0.000252082179363 -0.000309856855007 0)
(-0.000190425321616 -0.000162767999022 0)
(-0.000331780253973 -0.000282782182976 0)
(-0.000560173855395 -0.000443818885966 0)
(-0.000638627793265 -0.000400247056451 0)
(-0.000735739413192 -0.000347418714 0)
(-0.000824615526497 -0.000319128970216 0)
(-0.000894085702995 -0.000269249093439 0)
(-0.000868745596751 -0.000157809518816 0)
(-0.000756002560353 -5.60413161551e-05 0)
(-0.00076912100931 -1.64562924548e-05 0)
(-0.000819014772918 -2.52561681575e-05 0)
(-0.000918602654986 -7.98199116211e-05 0)
(-0.00106522444534 -0.000176765249476 0)
(-0.00117994976912 -0.00025852886988 0)
(-0.00118142476708 -0.000269543500666 0)
(-0.00122584327428 -0.000274558227027 0)
(-0.00129472937651 -0.000275969557199 0)
(-0.00134407351048 -0.000257340281588 0)
(-0.00138945203046 -0.000231706372899 0)
(-0.00142772214769 -0.000206006717941 0)
(-0.00145765751336 -0.000183168658644 0)
(-0.00150228972433 -0.000157800572308 0)
(-0.00150731267676 -0.000130099105403 0)
(-0.00156245463576 -0.000104011608273 0)
(-0.00153128762693 -7.50602796496e-05 0)
(-0.00159966926269 -4.90513100057e-05 -1.94343634091e-28)
(-0.00149886536467 -2.07370902564e-05 1.74207621203e-28)
(-0.00157224299237 -5.89868653396e-06 0)
(-0.00162561365785 -8.01339680777e-07 0)
(-0.00155750679228 -2.47972065014e-05 0)
(-0.00166564482721 -7.40143078195e-05 0)
(-0.00170879771275 -0.00011484165728 0)
(-0.00174057186639 -0.00011647261232 0)
(-0.00175584198509 -0.000102297880204 0)
(-0.00176264107839 -7.55404551416e-05 0)
(-0.00177267414978 -3.49348742382e-05 0)
(-0.00178302188463 7.04135190238e-07 0)
(-0.00178849269785 1.93921393195e-05 0)
(-0.0017869731741 3.01968351594e-05 0)
(-0.00177820384583 4.19404897675e-05 0)
(-0.00176380183165 5.71223130148e-05 0)
(-0.00174483818022 7.6095637525e-05 0)
(-0.00172180009873 9.83629315425e-05 0)
(-0.00169475812737 0.000124121894057 0)
(-0.00166336569716 0.000153755740317 0)
(-0.00162649037552 0.000186537485536 0)
(-0.00158116342346 0.000222624723593 0)
(-0.00152426394192 0.000265572261898 0)
(-0.00145622841464 0.000318625251622 0)
(-0.00138064985802 0.000376148037282 0)
(-0.00129499350549 0.000446188815867 0)
(-0.00118805687874 0.000540058333186 0)
(-0.00104971347561 0.000651965500898 0)
(-0.000877529158913 0.000770162416334 0)
(-0.000679259750939 0.000883970215758 0)
(-0.000469157229057 0.000981163076101 0)
(-0.000267270281943 0.00104866227425 0)
(-0.000109904177665 0.0010354020618 0)
(0.000103787364153 0.000915851661892 0)
(0.000341861073784 0.000662138683825 0)
(0.000471065545231 0.000444142730606 0)
(0.000567795489184 0.000341985078986 0)
(0.000646953876396 0.000279702425999 0)
(0.00071318917738 0.00021543070161 0)
(0.000781525718895 0.000143798195748 0)
(0.000847652721341 6.16766836802e-05 0)
(0.000851624844276 -5.05444481133e-05 0)
(0.000751025465196 -0.00017080150254 0)
(0.000675154420105 -0.000268719722774 0)
(0.000603060398253 -0.000352640049815 0)
(0.000512087143666 -0.000427823387235 0)
(0.000378031933245 -0.000441177187295 0)
(0.00025609063854 -0.000449569141106 0)
(0.000176072554345 -0.000615831911441 0)
(4.98692560809e-05 -0.000666802179832 0)
(2.5136988406e-06 -0.000348267310917 0)
(-3.23166303588e-05 -0.000375193945407 0)
(-0.000153327312307 -0.000647821850996 0)
(-0.000205145731989 -0.000508033040255 0)
(-0.000143559395864 -0.000231418388975 0)
(-0.00019348441498 -0.000236892918348 0)
(-0.000451545621945 -0.000494753746126 0)
(-0.000550263993673 -0.000540008096607 0)
(-0.000612643204103 -0.000485937941744 0)
(-0.000693587667353 -0.000437818340711 0)
(-0.000771074188693 -0.000366894198275 0)
(-0.000670730167507 -0.000216172628365 0)
(-0.000597092266596 -9.39267679087e-05 0)
(-0.000648822911987 -6.06401398911e-05 0)
(-0.000712868115502 -7.457912114e-05 0)
(-0.000848128892622 -0.000136326408677 0)
(-0.00101416574504 -0.000225542067398 0)
(-0.00112971848383 -0.000280946979021 0)
(-0.00110283609016 -0.000273057399266 0)
(-0.00116152474335 -0.000303213071125 0)
(-0.00124476728049 -0.000337768736493 0)
(-0.00129243159059 -0.000330328854164 0)
(-0.0013361839322 -0.000304566886577 0)
(-0.0013739845922 -0.000275155892566 0)
(-0.00142534128421 -0.000247449855185 0)
(-0.00145605651248 -0.000210619576212 0)
(-0.00143855209733 -0.000180756099172 0)
(-0.00152621609899 -0.000156475388753 0)
(-0.00146332285534 -0.000114404196027 0)
(-0.00157030142379 -7.87337928328e-05 0)
(-0.00142252597853 -3.68268601543e-05 0)
(-0.00155482415036 -2.90976749287e-05 0)
(-0.00143702309375 -2.63942034723e-05 0)
(-0.00154448019341 -3.51977368674e-05 0)
(-0.00165505627207 -7.98254227721e-05 0)
(-0.0017050921056 -0.000135316582633 0)
(-0.00173021569121 -0.000146663318703 0)
(-0.00174779569204 -0.000134523369161 0)
(-0.00175915230087 -0.000111879883113 0)
(-0.00176849764936 -8.19984616878e-05 0)
(-0.00177832773732 -4.5330018876e-05 0)
(-0.00178747428677 -1.03705940005e-05 0)
(-0.00179248398199 1.54906933219e-05 0)
(-0.00179098232013 3.50394259268e-05 0)
(-0.00178303779425 5.3660607076e-05 0)
(-0.00176951934942 7.41229455348e-05 0)
(-0.00175142735169 9.73688366398e-05 0)
(-0.00172896626501 0.000123681904983 0)
(-0.00170185448405 0.00015367375429 0)
(-0.0016696910854 0.000188117714213 0)
(-0.00163168925774 0.000227528523175 0)
(-0.00158620849274 0.000272800704228 0)
(-0.00153170757544 0.000325514493042 0)
(-0.00146790107962 0.000386753567938 0)
(-0.00139430251857 0.000458179494139 0)
(-0.00130628292509 0.000549561063432 0)
(-0.00119480664646 0.000668847996572 0)
(-0.00105321728241 0.000809569588453 0)
(-0.00088227638621 0.000956301883465 0)
(-0.000685945934705 0.00108479534636 0)
(-0.000487024187829 0.00117862796558 0)
(-0.000308259890231 0.00120251261955 0)
(-0.000135071161193 0.00108498177838 0)
(6.71818960915e-05 0.00120086616254 0)
(0.000293398569124 0.000840773826531 0)
(0.000438627182923 0.000569748370013 0)
(0.000566772509849 0.000440249183583 0)
(0.000673971727631 0.000358986900907 0)
(0.000756678497429 0.000283811067253 0)
(0.000856041342295 0.000204989820087 0)
(0.000917849095685 7.28582813183e-05 0)
(0.000836865982338 -0.000102115301881 0)
(0.000745830241117 -0.000240432498409 0)
(0.000690895912757 -0.000351104834814 0)
(0.000605683316505 -0.000451872781446 0)
(0.00051517333553 -0.000543056517677 0)
(0.000372893396828 -0.000532812536827 0)
(0.000264343179047 -0.000556141538427 0)
(0.000179520817259 -0.000731110736927 0)
(5.48562948981e-05 -0.000765111652959 0)
(-1.20981901111e-05 -0.000378061268646 0)
(-8.49618580612e-05 -0.000502185187447 0)
(-0.000209243223769 -0.0007064107677 0)
(-0.000223320847308 -0.000635718031915 0)
(-0.000134329364318 -0.000286234202277 0)
(-0.000295537224337 -0.000439687821163 0)
(-0.000492267207145 -0.000627346647764 0)
(-0.000530568370296 -0.000602262630435 0)
(-0.000592693166262 -0.000546828258049 0)
(-0.000616745039143 -0.000480352516866 0)
(-0.000724884272442 -0.000383102973161 4.02530727879e-28)
(-0.000515237965192 -0.000149016402263 -2.12111937039e-28)
(-0.000603547004924 -0.000119965996695 0)
(-0.000638378377019 -0.000124931847348 0)
(-0.000751741684643 -0.000186975552616 0)
(-0.000933070337688 -0.000298368508894 0)
(-0.00106080854662 -0.000343828760029 0)
(-0.00100373642514 -0.000288917952509 0)
(-0.00107166549842 -0.000313297414128 0)
(-0.00118496185361 -0.000381282958316 0)
(-0.0012323104855 -0.00039698746106 0)
(-0.00128384857894 -0.000378851855383 0)
(-0.00133015415903 -0.000350036400524 0)
(-0.00137168714455 -0.000314653717384 0)
(-0.00139139254085 -0.000270959006627 0)
(-0.00138533311713 -0.000223463878412 0)
(-0.00146126868448 -0.000200500111476 0)
(-0.0013772236986 -0.000167455355852 0)
(-0.00151922052027 -0.000129347549118 0)
(-0.00135951346518 -5.47370685483e-05 0)
(-0.00149976976995 -4.33169875332e-05 0)
(-0.00140459260685 -5.06293003048e-05 1.62706417105e-28)
(-0.00152334051459 -5.69129286513e-05 -1.78822561342e-28)
(-0.00154567269256 -0.000110215284988 0)
(-0.00169548332558 -0.000166697474439 0)
(-0.00172250855671 -0.000177153945769 0)
(-0.00173760199276 -0.000166879418319 0)
(-0.00175083902971 -0.000147399508122 0)
(-0.00176409705145 -0.000121692297724 0)
(-0.00177567996389 -9.06528091908e-05 0)
(-0.00178549457594 -5.49315394615e-05 0)
(-0.00179397461377 -1.90816250285e-05 0)
(-0.00179855404827 1.22222825914e-05 0)
(-0.00179713289131 3.90890153336e-05 0)
(-0.0017896606482 6.43331842293e-05 0)
(-0.00177680748238 9.02665697618e-05 0)
(-0.00175920449112 0.000118200684781 0)
(-0.00173672330689 0.000149044120233 0)
(-0.00170897122123 0.000183768727708 0)
(-0.001675836228 0.000223397854615 0)
(-0.0016371283689 0.000268902016292 0)
(-0.00159213534652 0.000321335137212 0)
(-0.00154001823263 0.000381971597522 0)
(-0.00147974131231 0.000453017511146 0)
(-0.00140877716373 0.00054008642329 0)
(-0.00132161178512 0.000653240191526 0)
(-0.00121083539413 0.000797558846113 0)
(-0.00107168510645 0.000964370917418 0)
(-0.000904279460072 0.00113368835754 0)
(-0.000716984867145 0.00127655397451 0)
(-0.000531561729747 0.00135305645649 0)
(-0.000370005408921 0.00135952572341 0)
(-0.00020193673702 0.00139040722503 0)
(-3.0660014728e-05 0.00137580880145 0)
(0.000212913167546 0.00102355155093 0)
(0.000405784900979 0.000709986776939 0)
(0.000591219585186 0.000588128028723 0)
(0.0007493162595 0.000489049795299 0)
(0.000866917982202 0.000385894320281 0)
(0.000958222701801 0.000250836648543 0)
(0.00095047170633 3.95156440654e-05 0)
(0.000846298181173 -0.0001637973931 0)
(0.000791475411737 -0.000313402784906 0)
(0.000720436940904 -0.000437075265457 0)
(0.000634834042517 -0.000556193438977 0)
(0.000524858083384 -0.000626490699611 0)
(0.000413347992452 -0.000654063907529 0)
(0.000278666081655 -0.000668295846166 0)
(0.000186076322205 -0.000834909658074 0)
(6.4614078088e-05 -0.000894495654276 0)
(-2.62111546751e-05 -0.0004424704065 0)
(-0.000129300714994 -0.000635310586346 0)
(-0.00024072001876 -0.000725571532012 0)
(-0.000131450291391 -0.000387254548879 0)
(-0.000140750934362 -0.000360968804539 0)
(-0.00037094276695 -0.000652922813249 0)
(-0.00045603196907 -0.000690471396489 0)
(-0.000518328225043 -0.000663614643594 0)
(-0.000537400121124 -0.000573795819644 0)
(-0.000596623552515 -0.000509004017882 0)
(-0.000449305810292 -0.000261955139825 0)
(-0.00052034653322 -0.000178073158836 0)
(-0.000589397171152 -0.000174781389073 0)
(-0.000637863903327 -0.000208783165538 0)
(-0.00082861110772 -0.000336836213294 0)
(-0.000982722986179 -0.000416915992176 0)
(-0.000919299263936 -0.000342798019914 0)
(-0.000968227378962 -0.000331069287285 0)
(-0.00109854848673 -0.000407275034129 0)
(-0.00117722808371 -0.000452170797649 0)
(-0.00121584608649 -0.000446676910361 0)
(-0.00125701460947 -0.000424169432674 0)
(-0.00131540657887 -0.000399553481736 0)
(-0.00135359339044 -0.000356628859415 0)
(-0.00140730661348 -0.000290827507592 0)
(-0.0013542669197 -0.000245494804465 0)
(-0.00145815344726 -0.00021303490055 0)
(-0.00141191696415 -0.000166098502961 0)
(-0.00136494789966 -0.000118177873137 0)
(-0.0013931680013 -8.58544018557e-05 0)
(-0.00154974420998 -7.56691347139e-05 0)
(-0.00147286119512 -6.08430092844e-05 0)
(-0.00146468150192 -0.000118947514276 0)
(-0.00167653039042 -0.000202779470459 0)
(-0.00170151504449 -0.00022830489923 0)
(-0.00172529517135 -0.000207290119189 0)
(-0.00174180857506 -0.000183730834394 0)
(-0.00175549516062 -0.000160419509341 0)
(-0.0017701921895 -0.000133426023294 0)
(-0.00178377680153 -0.000101134682337 0)
(-0.00179437870873 -6.44765702565e-05 0)
(-0.0018023642913 -2.6581923893e-05 0)
(-0.00180669363394 9.45130697191e-06 0)
(-0.0018055425899 4.27380388555e-05 0)
(-0.00179846852292 7.43653787006e-05 2.04520646742e-28)
(-0.00178598359747 0.000105983497897 -2.03885928763e-28)
(-0.00176834346512 0.000139119478449 0)
(-0.00174515863832 0.000175057039745 0)
(-0.00171612516326 0.000214856568312 0)
(-0.0016816388238 0.000259522643606 0)
(-0.00164216906703 0.000310172766961 0)
(-0.00159777757241 0.000368185470678 0)
(-0.00154816862969 0.000435644094392 0)
(-0.00149195982066 0.000516630135226 0)
(-0.00142568168993 0.0006188268018 0)
(-0.00134383637695 0.000751747126969 0)
(-0.00124028924315 0.000918704385078 0)
(-0.00111037060947 0.00111105755754 0)
(-0.000951625932774 0.00130760514016 0)
(-0.000768093966446 0.00146112568597 0)
(-0.000586589633324 0.00151616864209 0)
(-0.000434619600918 0.00152322280484 0)
(-0.000288787857477 0.00152731566333 0)
(-0.000145312689294 0.00151045726104 0)
(0.000103378652385 0.0014372310167 0)
(0.000380001440492 0.000918439641969 0)
(0.000623235443224 0.000775995294364 0)
(0.000834739478361 0.000643952363967 0)
(0.000966899538267 0.000475681871847 0)
(0.00103152058271 0.000256373912141 0)
(0.000988603470655 -1.02909894374e-05 0)
(0.000909625907364 -0.000227393395412 0)
(0.000853325853293 -0.000391187297428 0)
(0.000766122811778 -0.000530527430465 0)
(0.000676296798047 -0.000653612930305 0)
(0.000561576526484 -0.000718991535071 0)
(0.000462556917733 -0.000784350670935 0)
(0.000310661567619 -0.000816354240183 0)
(0.000186161095122 -0.000946272739913 0)
(6.55905835926e-05 -0.00104200913712 0)
(-3.87082954323e-05 -0.000528033477972 0)
(-0.0001560218769 -0.000752339011722 0)
(-0.000200836168349 -0.000734205824544 0)
(-0.00012683579849 -0.000424220946734 0)
(-0.000211221709405 -0.000494964415412 0)
(-0.000400567875741 -0.000761450093399 0)
(-0.000417652399259 -0.000747787020803 0)
(-0.000506474314251 -0.000718796587314 0)
(-0.000448916307433 -0.000547691951297 0)
(-0.000613919468265 -0.000569642827654 0)
(-0.00043967283411 -0.000281278625446 0)
(-0.0005392951462 -0.000244011348185 0)
(-0.000585837841384 -0.000243857091731 0)
(-0.000698111344437 -0.000336222595076 0)
(-0.000881668241522 -0.000483495074802 0)
(-0.000967517287979 -0.0004747360791 0)
(-0.000896185375559 -0.00037104633555 0)
(-0.00099042060332 -0.00041532038293 0)
(-0.00109682307331 -0.000492629704459 0)
(-0.001155310762 -0.000510869046581 0)
(-0.00120655814683 -0.000494264799566 0)
(-0.00123218407917 -0.000462390140007 0)
(-0.00128053281027 -0.000434149965708 0)
(-0.00128893134737 -0.000385259550241 0)
(-0.00127953399932 -0.000295168473334 0)
(-0.00139730207193 -0.00026605846224 0)
(-0.00126232116631 -0.000222602327159 0)
(-0.00149541891717 -0.00018511749588 0)
(-0.00133637115441 -0.000138357422139 0)
(-0.0015490831857 -0.000139555223062 0)
(-0.00138297312802 -0.000100826158614 0)
(-0.00158524487561 -0.000109064620075 0)
(-0.00163066380606 -0.000193733114883 2.04885510307e-28)
(-0.00168754949095 -0.000266040680014 -2.1827980765e-28)
(-0.00170743435904 -0.00025874520765 0)
(-0.00172749856694 -0.000230427486478 0)
(-0.00174689908376 -0.000202010554142 0)
(-0.00176242646053 -0.000175384374518 0)
(-0.00177769037376 -0.000146789921479 0)
(-0.00179223829559 -0.000113126414387 0)
(-0.00180418579232 -7.45803007745e-05 0)
(-0.0018127543035 -3.37361370268e-05 0)
(-0.00181717882316 6.86136075142e-06 0)
(-0.00181637824902 4.6052633138e-05 0)
(-0.00180988079657 8.40214722972e-05 0)
(-0.00179753187588 0.000121775170111 0)
(-0.00177916878044 0.000160764795316 0)
(-0.0017544591797 0.000202387288948 0)
(-0.00172341222874 0.000247536509984 0)
(-0.00168687962608 0.000296895929278 0)
(-0.0016460859292 0.000351576351962 0)
(-0.00160205521777 0.000413518915679 0)
(-0.00155527795948 0.000486130772894 0)
(-0.00150454393578 0.000575321858513 0)
(-0.00144622326936 0.000689870177456 0)
(-0.00137501022099 0.000838629283746 0)
(-0.00128490665044 0.00102505794417 0)
(-0.0011697085348 0.00124324263693 0)
(-0.00102487936968 0.00147275720982 0)
(-0.00085291075534 0.00164493035696 0)
(-0.000688691120612 0.00167462001837 0)
(-0.000554722572431 0.00165575414315 0)
(-0.000411316067116 0.00167333243451 0)
(-0.000230658674444 0.00169572279441 0)
(-1.54019073869e-05 0.00164353493583 0)
(0.000343432055157 0.00133701346124 0)
(0.000658521388762 0.000946918474619 0)
(0.000960692645124 0.00084077284567 0)