/*--------------------------------*- C++ -*----------------------------------*\
| =========                 |                                                 |
| \\      /  F ield         | OpenFOAM: The Open Source CFD Toolbox           |
|  \\    /   O peration     | Version:  v1806                                 |
|   \\  /    A nd           | Web:      www.OpenFOAM.com                      |
|    \\/     M anipulation  |                                                 |
\*---------------------------------------------------------------------------*/
FoamFile
{
    version     2.0;
    format      ascii;
    class       volScalarField;
    location    "88";
    object      p;
}
// * * * * * * * * * * * * * * * * * * * * * * * * * * * * * * * * * * * * * //

dimensions      [0 2 -2 0 0 0 0];


internalField   nonuniform List<scalar> 
6400
(
0.144174883848
0.1441767699
0.144182082005
0.144192041898
0.144205846307
0.144223166138
0.14424420868
0.144270237
0.144300893096
0.144335463628
0.144379348635
0.144435291541
0.14449906816
0.144571037638
0.144653438119
0.144748587724
0.144856549349
0.144976314883
0.145107218214
0.145245188157
0.145383093315
0.145519717277
0.145659755956
0.145809546761
0.145974256706
0.146153854313
0.146344453281
0.146543730644
0.146752334265
0.14697210515
0.147204858952
0.147449831911
0.147700433346
0.14795049955
0.148199546065
0.148442186662
0.148675361792
0.148912244522
0.149152612129
0.149378761568
0.149592101755
0.149816089413
0.15006301775
0.150322388187
0.150586717901
0.15085172916
0.151113767175
0.151372446835
0.151627801909
0.151879886287
0.152131492966
0.152372048789
0.152595648833
0.152792481906
0.152967582771
0.153143208537
0.153312685517
0.153453099352
0.153561153956
0.153648845632
0.153721553158
0.153779749301
0.153822037511
0.15385424902
0.153892303986
0.153936395921
0.153976287935
0.153998639425
0.153999241508
0.15398159408
0.153949295486
0.153904183209
0.153847610848
0.15378546378
0.153719417863
0.153654362165
0.153593967446
0.153551270665
0.153522118971
0.153509487431
0.144171902239
0.144173836352
0.144178404152
0.144188136244
0.14420348926
0.144222439211
0.144244094273
0.144268539787
0.144297342245
0.144332101646
0.144375633115
0.144429953872
0.144493968613
0.144567187268
0.144650170881
0.144743862389
0.144851081702
0.14497157639
0.145104656385
0.145244836313
0.14538104926
0.145515022621
0.145653785163
0.145802244673
0.145966862816
0.146147581794
0.146337902031
0.146537453175
0.146747196989
0.146967932099
0.147199902547
0.147444768142
0.147697136455
0.147947092735
0.148197136179
0.148440236791
0.14867245747
0.148910173599
0.149151538113
0.149374968786
0.149577386911
0.149795418132
0.150053050692
0.150318437374
0.150585393174
0.150853264233
0.151117588926
0.151378751892
0.151634676814
0.151881181764
0.152121526254
0.152362016003
0.152607684768
0.152808202533
0.152985334898
0.153172297463
0.15333317824
0.153461495553
0.153568214635
0.153655514382
0.153724083137
0.153784876182
0.153832503861
0.153866755014
0.153907684165
0.153954976668
0.153997666395
0.154019729337
0.154018368367
0.153998250195
0.153963034201
0.153914445048
0.153853226658
0.153784842179
0.153714714041
0.153646976581
0.153587351549
0.153542800055
0.153512752008
0.15350227063
0.144163806495
0.144167189896
0.144170955227
0.144179817299
0.144194795953
0.144216569978
0.144241008567
0.144264811646
0.144291678949
0.144325391486
0.144368231448
0.144421714514
0.144485723802
0.14455956153
0.144642781654
0.144732705323
0.144837934759
0.144967331968
0.145105064422
0.145244159725
0.145375640972
0.145501568358
0.145637244036
0.145789028883
0.145953783527
0.146132546892
0.146324142524
0.146525939944
0.146737326932
0.146959488219
0.147192009057
0.147437262797
0.147693584852
0.147941801298
0.148188368517
0.148437629835
0.148668221466
0.148900478653
0.14914249658
0.149368561374
0.149581548485
0.149805055144
0.150051885048
0.150311777697
0.150577031511
0.150844063112
0.151109861105
0.151372840964
0.15163131987
0.151883604097
0.152129823681
0.152369021986
0.152596414568
0.152804868598
0.153005812463
0.153192624388
0.153346274193
0.153473634335
0.153580647225
0.153669607068
0.153743529989
0.153806158101
0.15385291322
0.153893958658
0.153944357809
0.153998755799
0.154042935461
0.154063762029
0.15405933061
0.154034260556
0.153992431559
0.153935107578
0.153865009996
0.153788244511
0.15371039157
0.153636925551
0.153574131668
0.153526181304
0.153495042227
0.153483080118
0.144153253116
0.144156501765
0.144158967851
0.144167088072
0.144180241148
0.144201877207
0.144234931463
0.144258487185
0.14428319205
0.144315042814
0.144356933632
0.144409914649
0.144474053667
0.144547129392
0.144631011441
0.144729312737
0.144842204782
0.144969181815
0.145099630755
0.145224639448
0.145348517663
0.145477673678
0.145615270286
0.145765883265
0.145931165658
0.146111357875
0.146305148963
0.146509345887
0.146723347111
0.146946973043
0.147182381439
0.147429180071
0.147685844569
0.147943314878
0.148184321704
0.148424233045
0.148664045812
0.148892210892
0.149118411741
0.149343999387
0.149567941198
0.149799381239
0.150045842891
0.150303959772
0.150568632679
0.150836111096
0.151103396833
0.151368419869
0.15162942585
0.151884888781
0.152133818584
0.152374631447
0.152604691211
0.152821096249
0.153024793375
0.153208542025
0.153363606439
0.153492512386
0.15360085914
0.153692587753
0.153770782576
0.153837130766
0.153892142155
0.153948532787
0.154007757788
0.15406725756
0.154115832957
0.154136548149
0.154126654174
0.154092670219
0.154040007346
0.153970522255
0.153887556095
0.153795679688
0.15370232269
0.153619421425
0.153551621466
0.153494069717
0.15345306892
0.153435801736
0.144137057406
0.144136910508
0.144140047905
0.144148410491
0.144162996395
0.144182953886
0.144212071416
0.144239242478
0.144266321057
0.144299192342
0.144340578825
0.144393384839
0.144458383453
0.144538405479
0.144632016831
0.144732794573
0.144841096023
0.144955357245
0.145072383044
0.145193201131
0.145318404942
0.145447553453
0.145585240208
0.145736486307
0.145902627258
0.146084651917
0.146280262777
0.146487670632
0.146704517064
0.146932060824
0.147169452435
0.147422017477
0.14768779781
0.147936760036
0.148177514957
0.148412665986
0.148638745022
0.148864047317
0.14909060094
0.149318927334
0.14954945914
0.149786550666
0.150034519672
0.150292639875
0.150557713277
0.150826359153
0.151095579513
0.151363075269
0.151627063683
0.151886070317
0.152138714551
0.152383247144
0.152617597874
0.1528395357
0.153046194795
0.153230632661
0.153387426742
0.153518808162
0.153630257804
0.15372651419
0.153810996444
0.153885670954
0.153954764293
0.154030603035
0.154096288097
0.154165418774
0.154223079347
0.154245424741
0.154227839498
0.154179620285
0.154109727345
0.154021615401
0.153917012466
0.153800537492
0.153687242143
0.153589221822
0.153503936427
0.153423193087
0.15336962215
0.153349039679
0.144105976825
0.14410504237
0.144111756067
0.144119965932
0.144135854237
0.144157830292
0.144183793829
0.144212085444
0.144242227827
0.144276985377
0.144317185686
0.144371306173
0.144446348455
0.144535035535
0.144629037822
0.144725011566
0.144823649285
0.144928047532
0.145041081266
0.145160706399
0.145282391618
0.145409841074
0.14554810039
0.145700814437
0.145868605302
0.146051105307
0.14625048713
0.146460635228
0.146682280005
0.146913165649
0.147157117132
0.147413390831
0.14767581156
0.147934852929
0.148165048037
0.148384217132
0.148604694691
0.148829448687
0.149057922909
0.149289703488
0.149525277266
0.149767152966
0.150017868154
0.15027749028
0.150544000297
0.150814518499
0.151086167101
0.151356595485
0.151624100091
0.151887327273
0.152144840498
0.152394820265
0.152635004961
0.152862331481
0.153072243861
0.153258738963
0.153418649186
0.153554365876
0.15367074412
0.153773111073
0.153866080884
0.153954349517
0.154049956859
0.15414100816
0.154218123477
0.154303637179
0.154375983593
0.154401536873
0.154373077464
0.154303269191
0.15420777249
0.154091179054
0.153953028165
0.153803774581
0.153662484194
0.153537160226
0.15341909453
0.153310048237
0.153241479187
0.153211086792
0.144058022691
0.144061122338
0.144074099861
0.144086810542
0.144099465191
0.144121171604
0.144149443209
0.144178385166
0.144211059972
0.144247912055
0.144292192078
0.144349105574
0.144432481569
0.144522052353
0.14461256069
0.144700234896
0.144791718481
0.144894806095
0.145008000283
0.145121350737
0.145238934832
0.145366314999
0.145504961747
0.145657772467
0.145826851457
0.146015241745
0.146214027119
0.14642928142
0.146655604908
0.14689587308
0.147145682592
0.147401227084
0.147664884211
0.147911561532
0.148134639889
0.148346147681
0.148564232536
0.148789808596
0.149020705528
0.149255755586
0.149495543269
0.149741756061
0.149995878235
0.150258082036
0.150526962801
0.150800060139
0.151074685155
0.151348626685
0.151620392975
0.15188881259
0.152152446864
0.152409245202
0.152656320841
0.152889603689
0.153103881933
0.15329422378
0.153458917844
0.15360030499
0.153722694211
0.153831824364
0.153936053245
0.154046608548
0.154166574317
0.154275284817
0.154396007406
0.154503643829
0.154591373287
0.154615281137
0.154570081951
0.154471824063
0.154340980104
0.154183393286
0.153998893395
0.153806258806
0.15362330349
0.15345244524
0.153287661896
0.15314773899
0.153061320887
0.153018867703
0.144002209558
0.144008852096
0.144024879097
0.144045076817
0.144059150642
0.144080422927
0.144108047789
0.14413824581
0.144174343666
0.14420907318
0.144260198487
0.144329301722
0.144411198703
0.144498940097
0.14458223769
0.144661892735
0.144753080224
0.144859036069
0.144966565454
0.14507422442
0.145188767231
0.145316022574
0.145455573411
0.145610807622
0.145782845562
0.145973035219
0.146178043217
0.146389414252
0.146627400031
0.146882026186
0.147130287918
0.147378188783
0.147640000337
0.14787457281
0.148087133083
0.148299844903
0.148518725133
0.148745353004
0.148978400688
0.149216534853
0.149460134019
0.149710482038
0.149968476678
0.150234087294
0.150506140863
0.150782487074
0.151060702186
0.151338871358
0.151615812106
0.151890549261
0.152161602171
0.152426542544
0.152681679145
0.152922025642
0.153142198186
0.153338248475
0.153509243705
0.153656761177
0.153783412482
0.153896530356
0.154012070195
0.154145398555
0.154295264377
0.154453024814
0.154620028455
0.154774917392
0.154885365758
0.154903903643
0.154835118797
0.1546997758
0.154521567418
0.154306309723
0.154060059302
0.153807050329
0.153562016816
0.153325720085
0.153107333798
0.152931872471
0.152825164458
0.152774477815
0.143941677288
0.143950771848
0.143967476966
0.143983425135
0.144003149431
0.144031965237
0.144058419527
0.144089456154
0.144131127461
0.144170299419
0.14421803978
0.144295825858
0.144380471299
0.144463429903
0.144540397062
0.144619808771
0.144710242282
0.144813810518
0.144916362555
0.145020973027
0.145133243556
0.145258438883
0.145396931688
0.14555288898
0.145736206815
0.145925990165
0.146137106638
0.146359787916
0.146597204713
0.146849484816
0.14710497483
0.147363094221
0.147597560634
0.147819322168
0.148032264127
0.148247204577
0.14846778926
0.148695605038
0.148930481008
0.149171509619
0.149418826037
0.149673298698
0.14993548393
0.15020514473
0.150481082452
0.150761322845
0.151043804739
0.151327046041
0.151610209948
0.151892491236
0.152172329965
0.152446835288
0.152711453294
0.152960385799
0.153188207737
0.153391605254
0.153569545239
0.153721484422
0.153846586176
0.153957442995
0.154084231934
0.154251807783
0.154454225503
0.154673111435
0.154892549963
0.155124571674
0.155295186656
0.155295078049
0.155193189131
0.155011026446
0.15476714132
0.154471495604
0.154142018159
0.153804171802
0.153470837057
0.153151463051
0.152871717485
0.152655631011
0.152522771936
0.152462446997
0.143875853533
0.143887149319
0.143906619998
0.143922573973
0.143942995162
0.143973127253
0.14399996586
0.144031062671
0.144070326949
0.144123685798
0.144175917085
0.144253339615
0.144338751988
0.144416712204
0.144487683443
0.144569762207
0.144664748968
0.144762013234
0.144858734321
0.144960975482
0.145073077101
0.145197173176
0.145334869176
0.14548783417
0.145678600124
0.145878815402
0.146079677325
0.146315408262
0.14655700832
0.146815948357
0.147071386264
0.147322804985
0.147549865074
0.147759101282
0.147971450978
0.14818862033
0.148411076951
0.148640219561
0.148876641217
0.149120220088
0.149371163138
0.149629907975
0.149896610451
0.150170827595
0.15045129608
0.150736130073
0.151023627947
0.151312857486
0.151603385898
0.151894532264
0.152184612826
0.152470263896
0.152746073185
0.15300545798
0.153242799818
0.153454762035
0.153638627806
0.153789231867
0.153899566553
0.153999642949
0.154146394249
0.154375173573
0.154653966916
0.154948369992
0.155241754749
0.155524279731
0.155742782144
0.155827602025
0.155680181005
0.155432821604
0.155098518117
0.154694486909
0.154249473096
0.153792868872
0.153340565523
0.152918693122
0.152562628603
0.15229208476
0.152116785685
0.152034971217
0.143801979584
0.143813361708
0.143833926582
0.14385499093
0.143882202799
0.143906065744
0.143932489248
0.143965192452
0.143997115278
0.144056259052
0.14412054208
0.144198407971
0.144284068555
0.144360359224
0.144430073307
0.144511354315
0.144608097537
0.144701281924
0.144793727618
0.144892613182
0.145004731612
0.145130042245
0.14527238372
0.145424118118
0.14560484654
0.145824663814
0.146034796084
0.1462673253
0.14650858202
0.146751847791
0.147019593743
0.14726809002
0.14748653203
0.147691699616
0.147904780322
0.148123828684
0.1483481739
0.14857886286
0.148816729068
0.14906238927
0.149316681402
0.149579821066
0.149851384965
0.150130635428
0.150416232245
0.150706392104
0.150999794554
0.151296050936
0.151595131076
0.151896483217
0.152198308701
0.152496807731
0.152785807535
0.15305795374
0.153306991442
0.153528330574
0.153714375052
0.153849158907
0.153922852722
0.154012464079
0.154209731978
0.154538987153
0.154918711533
0.155303612231
0.155671100922
0.155992351098
0.156242237737
0.156411563447
0.156325180287
0.156019544812
0.155554710873
0.154998684077
0.15438773688
0.153766069568
0.153156176661
0.15260163311
0.152141802508
0.15178927314
0.151552008606
0.151434642086
0.143718427122
0.143727450624
0.143742071085
0.143769586495
0.143806929316
0.143828748701
0.143855053824
0.143891523386
0.143921895343
0.143976928605
0.144050461686
0.144130666491
0.144215417916
0.144291574468
0.144366912176
0.144449359672
0.144543384104
0.144632370938
0.144721855848
0.144817567865
0.14492612516
0.145048432849
0.145200716439
0.145366483066
0.145538405029
0.145756810766
0.145976575249
0.146199348848
0.146457899311
0.146707196593
0.146959138996
0.147190368975
0.147403944506
0.147615713238
0.147831078974
0.148052016876
0.148278387636
0.148510969651
0.14875056131
0.148997900581
0.149254859231
0.149522312367
0.149799180405
0.150083962612
0.15037525746
0.150671535292
0.150971869905
0.151276328507
0.151585204455
0.151898083205
0.152213067181
0.152526047079
0.152830545284
0.153118570215
0.153382375363
0.153613676811
0.153787739472
0.153872436123
0.153919419992
0.154007789147
0.154316316561
0.154784391123
0.155286232935
0.155773439855
0.156226447868
0.156601463077
0.156874330441
0.157049215018
0.157083091304
0.156804897723
0.156204438742
0.155425083781
0.154563945342
0.153714605999
0.152889571751
0.152153934126
0.151554709753
0.151091707891
0.150785711355
0.150634760034
0.143624793492
0.143631212461
0.143637097699
0.143668701044
0.143705443927
0.14373332122
0.143762737864
0.143803524667
0.143839547365
0.143892440524
0.143969721614
0.144050912731
0.14413367985
0.144206318642
0.144288537584
0.144379401744
0.144469738778
0.144555084762
0.144642526487
0.144736686092
0.144841298214
0.144956892844
0.145105468913
0.145296597922
0.145474717023
0.145674222011
0.145910405698
0.14613852369
0.146380738222
0.146635259016
0.146883263084
0.147107329027
0.147315647569
0.147530916061
0.14774941971
0.147972691405
0.148200992194
0.148435188878
0.148677033539
0.148926719855
0.149185871666
0.14945682332
0.149738987173
0.150029906658
0.15032759921
0.150630868937
0.150939307588
0.1512533121
0.151573320583
0.151898941499
0.152228139007
0.15255686158
0.152879327278
0.153187031879
0.15346890884
0.153706438978
0.153833154422
0.153866305791
0.153900194385
0.154027159441
0.154512110824
0.155161640781
0.155805302279
0.156409016908
0.156979163745
0.157415881744
0.1577085511
0.15787492432
0.158020308827
0.157831883938
0.157092195655
0.156034868948
0.154766283181
0.153621890934
0.152501452578
0.151512698564
0.150739084021
0.150141305054
0.149772571334
0.149594199614
0.143522198313
0.14352965286
0.143541019404
0.143561259548
0.143592579032
0.143624163997
0.143657518384
0.143700045541
0.143746149217
0.143799078358
0.143878505061
0.143960151651
0.144041655711
0.14411225081
0.144193029556
0.144291881206
0.144383307707
0.144468123163
0.144554674797
0.144648218638
0.144750988972
0.144861743598
0.145003710312
0.145204847084
0.145399360368
0.145593196362
0.145833548512
0.146069394727
0.146301617218
0.146552978558
0.146783693029
0.14700081973
0.147217026952
0.147436870491
0.147658854098
0.147884716293
0.148115860689
0.148351901322
0.148594845902
0.148847028929
0.149109208137
0.149383372293
0.149670182948
0.149967299247
0.15027210731
0.150583469853
0.150901434581
0.151226535432
0.151559036301
0.151898472111
0.152242362145
0.152587297616
0.152929941156
0.153262069522
0.153568937326
0.153808221572
0.153831797457
0.153839180444
0.153886440103
0.154135246046
0.154866505221
0.155763111496
0.156553746885
0.157265803804
0.157957484741
0.158369959354
0.158607710156
0.15871278536
0.158746117387
0.158672042763
0.158352527513
0.156891342692
0.154951299042
0.153479084991
0.151946771276
0.150573204281
0.149624882547
0.14885906328
0.14843130976
0.14822935216
0.14340747145
0.143415674642
0.143436481121
0.143446728626
0.143471356818
0.143503939973
0.143540395212
0.14358645222
0.1436451819
0.14369710533
0.143776819506
0.143858895068
0.143940132382
0.144011857726
0.144092521819
0.144193698935
0.14428626182
0.144371965043
0.144458648117
0.144551561393
0.144653411149
0.144762999476
0.14489608922
0.145090116943
0.145311200226
0.145511985921
0.145735697906
0.145993345855
0.146234576768
0.146456618949
0.146675051943
0.146890475543
0.147110119295
0.14733342141
0.147559067965
0.147788046538
0.148021202676
0.148259896268
0.148504701991
0.14875815594
0.149023162744
0.149300995894
0.149592209854
0.149895109986
0.150207343795
0.150528078643
0.150857233451
0.151195275978
0.151542068426
0.1518960505
0.152254037724
0.152614391511
0.152977206748
0.15333330082
0.153644126477
0.153792322862
0.15381587932
0.15381480596
0.153890769655
0.154441665444
0.155488289213
0.156765538628
0.157356735068
0.157578963207
0.157906381137
0.158288497846
0.158566312755
0.158725768573
0.158795848668
0.158775079432
0.158781312333
0.158334263975
0.154553409774
0.153161921021
0.151186246529
0.149185233528
0.148169781549
0.147095531058
0.146642638521
0.146440477574
0.143278292102
0.143285312316
0.143303002498
0.143315367465
0.143336989942
0.143371199971
0.143408891295
0.143453605499
0.143524585006
0.143584293456
0.143663347202
0.143746521357
0.143828691524
0.143904182276
0.143986533943
0.144087555351
0.144180518866
0.144267740245
0.144355157846
0.144447773024
0.144548374457
0.144657867673
0.144786168077
0.144970152117
0.145204804611
0.145421425749
0.145632143459
0.145878804664
0.146131283622
0.146353872299
0.146563270679
0.146775052907
0.146996004055
0.147222404375
0.147451171497
0.147682252016
0.14791767565
0.148157933027
0.148404985261
0.148660089289
0.148927009937
0.149208302028
0.149504160299
0.149812343808
0.150131089029
0.150461744614
0.150805119935
0.151159958825
0.151522522854
0.151889717977
0.152261365002
0.152636989055
0.153019946293
0.153411086105
0.153754772248
0.153777171026
0.153770268589
0.153796809105
0.154018831948
0.155040323132
0.156048740362
0.156584127395
0.157090482138
0.157487561313
0.157783023779
0.158105962996
0.158354575908
0.158478567761
0.158481524917
0.158344331783
0.15790273215
0.156587251702
0.15583828769
0.155156501373
0.150593846362
0.145998487365
0.146078098779
0.144567731548
0.144275308616
0.144153552743
0.143137212575
0.143143036799
0.143160531947
0.143172340417
0.143193259235
0.143227712553
0.143266002619
0.143306506039
0.143377329706
0.143451405776
0.143535004177
0.143620860151
0.143705386647
0.143788415488
0.143872678788
0.143973054097
0.144066344976
0.144155851052
0.144244476035
0.144337249596
0.144436892888
0.144545051302
0.144669868808
0.144843149879
0.145074016818
0.145318477359
0.145534005737
0.145763503822
0.146005473228
0.146223684748
0.146429849817
0.146646606038
0.146871338737
0.147101020592
0.147333495528
0.147567776362
0.147804698437
0.14804667525
0.148295007006
0.148551900299
0.148820437081
0.149103573352
0.149403292611
0.149717285259
0.150042707518
0.150384568583
0.150745025703
0.151119200791
0.151497455481
0.15187781092
0.152263041793
0.152653362702
0.15304618767
0.15343182158
0.153770846166
0.153773515199
0.15372258572
0.153754709961
0.154287788838
0.154970569546
0.155669242016
0.156284727806
0.156782129421
0.157179245904
0.15747446133
0.157724504453
0.157887664897
0.157919772141
0.157802282741
0.157506131222
0.156854884059
0.155650546343
0.154205767163
0.151591853237
0.148773746349
0.148861427854
0.148143730496
0.140154232313
0.140913971974
0.141351768372
0.142986421142
0.14299067837
0.143003550474
0.143016219196
0.143041128565
0.143075178841
0.143115391235
0.14315383408
0.143222472227
0.143304774446
0.1433922301
0.143480097399
0.143565256884
0.14365822202
0.143748108549
0.14384750505
0.143941691226
0.144035266163
0.144125851401
0.144219360997
0.144318568078
0.144424960255
0.144546553885
0.144711292539
0.144936081918
0.145195676208
0.145428955674
0.145650260611
0.145874433657
0.14608316782
0.146287620965
0.14650659539
0.146733763241
0.146966291401
0.14720253084
0.147441177109
0.147681683786
0.147924975026
0.148174937938
0.148432682867
0.148701842489
0.148987278861
0.149290208402
0.149608528318
0.149934243546
0.150278978616
0.150662029682
0.151071722999
0.151472196905
0.151864156898
0.152265012098
0.152672804165
0.153078864436
0.153454637959
0.153754382325
0.153759650517
0.153666239307
0.153639794033
0.153985135523
0.154697676413
0.155348045819
0.155907723232
0.156348267191
0.156685126639
0.15691610827
0.157051894171
0.15707443838
0.15695080042
0.156650457613
0.156130933941
0.155305503621
0.153994224674
0.152177240177
0.14987880727
0.147554826684
0.145748159534
0.142289783109
0.142019160063
0.141815665887
0.139935502871
0.142828060245
0.142831077326
0.142838811921
0.142852740369
0.142881351194
0.142914209318
0.142955438568
0.142996608008
0.143060295586
0.143146450304
0.143235985842
0.143324765884
0.143408534649
0.143504751832
0.143606378123
0.143707478595
0.143803035019
0.143901306565
0.14399672523
0.1440924231
0.144192508388
0.144296667861
0.144415205733
0.144572335469
0.144785717813
0.145038459416
0.145292080424
0.145519032435
0.145735413354
0.145938659478
0.146137207162
0.146356083702
0.146586300966
0.146817147324
0.1470580633
0.147301443876
0.147544170503
0.147790347086
0.148042841696
0.148303547614
0.148573304929
0.148857555335
0.149160158897
0.149483600834
0.14982555228
0.150187567811
0.150582160967
0.150995690778
0.151412459812
0.1518352401
0.152273251072
0.15272894011
0.153193502443
0.153622867021
0.153943105981
0.15372669864
0.153554954164
0.153536941345
0.153854516476
0.154437060494
0.154981823912
0.155419379631
0.155742331109
0.155955654127
0.156054121386
0.156030907797
0.155868942593
0.155539756515
0.155010005125
0.154236980305
0.153168960648
0.151663850745
0.149627874038
0.147132507243
0.144309126524
0.141490065841
0.138537907081
0.136805116835
0.134944802183
0.129557786277
0.14266252619
0.142665058081
0.142670980875
0.142687884129
0.142716084062
0.142745900042
0.142783612637
0.14283013649
0.142888635511
0.142975836331
0.143066683757
0.143156296349
0.143240146365
0.143334902632
0.143446029078
0.143552162754
0.143650754332
0.143752130948
0.143853080681
0.143953447411
0.144057133558
0.144159741911
0.144275018855
0.144426016759
0.144628161439
0.144870882893
0.14512836709
0.145365561394
0.14557016405
0.145767711806
0.145971269044
0.146184876869
0.146415707774
0.146651610886
0.146898044583
0.147145798436
0.147391267919
0.147640624791
0.147896199801
0.148159987364
0.148432761669
0.14871788684
0.149026086132
0.149364374825
0.149729305944
0.150104122514
0.150497449116
0.150913791571
0.151353743057
0.151824184629
0.15233169771
0.152876634173
0.153460303327
0.154103244073
0.154962774431
0.154637290302
0.153583604514
0.153281738955
0.153748803249
0.154179961349
0.154509607072
0.154770122542
0.154929264453
0.154969152322
0.1548812425
0.154651938814
0.154260085005
0.153677049525
0.152867821963
0.151788716664
0.150384644097
0.148595089225
0.146255106967
0.14327993823
0.139778035757
0.135900396956
0.131482879098
0.126403683461
0.121117809755
0.117178479322
0.142487136931
0.142489421987
0.142495725555
0.142517535304
0.142544328631
0.142570711252
0.142602677359
0.142652925667
0.14270506343
0.142791551887
0.142883800347
0.142974528616
0.143059680252
0.143155148387
0.143270619077
0.143382016358
0.143485252823
0.143590283076
0.143694646465
0.143799902673
0.143909545771
0.144012799492
0.144124158401
0.144270085308
0.144462314603
0.144694162226
0.144949938766
0.145190857097
0.145403754023
0.145591932207
0.145796262164
0.146010987948
0.146235162899
0.146462846738
0.14670978731
0.146969223524
0.147221526444
0.147476488227
0.147734453998
0.148000622561
0.148278203538
0.148569911276
0.148890914051
0.149253205594
0.149631947975
0.150012591627
0.150410943109
0.150849863178
0.151343791722
0.151879704051
0.152470949642
0.153061970439
0.153707976378
0.15428854247
0.154563885716
0.15453343361
0.154001132254
0.153528950501
0.153635998708
0.15379398114
0.153894662773
0.153940431863
0.153889359727
0.153712013043
0.153393277764
0.152914833072
0.152251755891
0.151373024245
0.150240837421
0.14880856692
0.147018236649
0.144804326344
0.142038641811
0.138490433021
0.134043267634
0.128551614779
0.121374903556
0.111062699997
0.0938763279462
0.0544166998833
0.142296631718
0.14229844459
0.142306838447
0.142335073351
0.142360723023
0.142384528346
0.142413375162
0.142463230253
0.142509045658
0.142592730281
0.142686409433
0.142778336258
0.142865081768
0.14296134527
0.143078918101
0.143194992088
0.143305173945
0.143414407266
0.143520988932
0.143630123649
0.143746445463
0.143853402952
0.143960227122
0.14410124737
0.144285504563
0.14450553928
0.144753210014
0.144985092401
0.145209787929
0.145407431191
0.145605222897
0.145812718214
0.146039816164
0.146274582404
0.146508991067
0.146767174632
0.147028952461
0.147290948585
0.147557107904
0.147827055524
0.148107661758
0.148412898615
0.148759254196
0.149140701751
0.149522750617
0.149908362898
0.150332241977
0.150827883215
0.151397514145
0.151981308542
0.152629936456
0.15309743886
0.15351797789
0.153890351414
0.154245281021
0.154340775772
0.153934054731
0.153490320938
0.153321196583
0.153231247601
0.1531025607
0.152906943201
0.152609917597
0.152180266276
0.151595932301
0.150833999325
0.14986605425
0.148657401366
0.147165629162
0.145338047917
0.143108353285
0.140392189589
0.137088117273
0.132922004692
0.127490926018
0.120403512408
0.110778287731
0.0967027866567
0.0742966170545
0.0383222840211
0.142083405404
0.142084827989
0.142095137092
0.142129541541
0.14215361056
0.142178569476
0.142206159786
0.142252325383
0.142294856033
0.142377781601
0.142473309131
0.142566487715
0.142654810944
0.142751428208
0.142869167518
0.142987517281
0.143106704285
0.143221343947
0.143330242304
0.143442403899
0.143563797402
0.143678432916
0.143781959334
0.143916892596
0.144095139377
0.144304700694
0.144542151345
0.144763604191
0.144980467158
0.145194376821
0.145403439505
0.145606974182
0.145815265233
0.14604940077
0.146295611978
0.146549711005
0.146815231744
0.147082467155
0.147355164199
0.147633397732
0.147925733069
0.148250903403
0.148622572274
0.149011779451
0.149400882581
0.149810099019
0.150281628396
0.150846122265
0.151479746897
0.151979394322
0.152460674743
0.152917412696
0.153227153592
0.153527516263
0.153754552498
0.153760198531
0.153475113316
0.153088549189
0.152759848525
0.152448378853
0.152083992705
0.151635155833
0.151073503419
0.150369231374
0.149496243206
0.148427824351
0.147132172024
0.145570461396
0.143694845674
0.141445254621
0.13874476522
0.135492603362
0.1315518356
0.126737473382
0.120577724125
0.112392886748
0.10136704031
0.0860891403994
0.0639372412071
0.0340666768554
0.141840917604
0.141844405128
0.141855010934
0.141888221086
0.141914934429
0.141946845778
0.141977111036
0.142022104521
0.142068979443
0.142146323377
0.1422432003
0.14233760431
0.142427611977
0.142524336892
0.142640891658
0.142757814979
0.142881255406
0.143005058931
0.143119346458
0.143235602549
0.143359514847
0.143484104976
0.143594159118
0.143716749629
0.143890300879
0.144091511603
0.144318578085
0.144531923475
0.144737464875
0.144954977945
0.145175903034
0.145392332093
0.145593528836
0.145810684565
0.146051509081
0.146310820751
0.146580874345
0.146855445895
0.147131362116
0.147419140016
0.147730150414
0.148082532342
0.148468971023
0.148865746623
0.149273834004
0.149722562401
0.150242241731
0.150790219408
0.151314039827
0.151841535537
0.152330918347
0.152628381326
0.152875596402
0.153085198272
0.153200220808
0.15313471074
0.152850699742
0.152422018834
0.151941303233
0.151416903917
0.150815322034
0.150109869011
0.149275720471
0.148285578305
0.147111965362
0.145725400331
0.144090972688
0.142165938365
0.139897238354
0.137217844521
0.134041383873
0.130254065798
0.125701740253
0.120168541058
0.113354626626
0.104612566306
0.0930214182446
0.0774801592119
0.0562128456985
0.0296772587335
0.141573932469
0.141581589254
0.141591775103
0.141616916364
0.141650357652
0.141689282397
0.141725238962
0.141773782786
0.141830317464
0.141900675236
0.141995720856
0.14209064642
0.142182422943
0.142279524971
0.142395125206
0.142511371509
0.142632807737
0.142764615766
0.142887462176
0.143009626935
0.143136320215
0.143270962398
0.143397234309
0.14351982295
0.143675684048
0.143867932218
0.144085500885
0.144291923066
0.144485333185
0.144697773235
0.144921539847
0.145154811157
0.145361690599
0.14556719183
0.145792561858