/*--------------------------------*- C++ -*----------------------------------*\
| =========                 |                                                 |
| \\      /  F ield         | OpenFOAM: The Open Source CFD Toolbox           |
|  \\    /   O peration     | Version:  v1806                                 |
|   \\  /    A nd           | Web:      www.OpenFOAM.com                      |
|    \\/     M anipulation  |                                                 |
\*---------------------------------------------------------------------------*/
FoamFile
{
    version     2.0;
    format      ascii;
    class       surfaceScalarField;
    location    "625";
    object      phi;
}
// * * * * * * * * * * * * * * * * * * * * * * * * * * * * * * * * * * * * * //

dimensions      [0 3 -1 0 0 0 0];
oriented        oriented;


internalField   nonuniform List<scalar> 
12640
(
-2.35487195332e-07
2.36099543683e-07
-4.45170058049e-07
2.10166789001e-07
-6.24452237066e-07
1.79639466399e-07
-7.72757678624e-07
1.48590161254e-07
-8.81197640872e-07
1.08696078181e-07
-9.4913475216e-07
6.81907055804e-08
-9.96891383243e-07
4.79907545511e-08
-1.06815234915e-06
7.14717985232e-08
-1.16419747372e-06
9.62357370851e-08
-1.25365678325e-06
8.96247600893e-08
-1.33496333646e-06
8.14437852429e-08
-1.41780830818e-06
8.29681714894e-08
-1.49081173852e-06
7.31154707388e-08
-1.54974939135e-06
5.90421465112e-08
-1.6025897302e-06
5.29377851941e-08
-1.6623753895e-06
5.98815191942e-08
-1.72361810187e-06
6.13324260241e-08
-1.77417331555e-06
5.06403114557e-08
-1.81267881282e-06
3.85790851115e-08
-1.84780412449e-06
3.51925794335e-08
-1.89537767584e-06
4.76355053593e-08
-1.95604375008e-06
6.07263819752e-08
-2.01822580729e-06
6.22377691703e-08
-2.07623114502e-06
5.80589775762e-08
-2.12832402806e-06
5.214178656e-08
-2.17471973451e-06
4.6443442397e-08
-2.21758494827e-06
4.2909385293e-08
-2.2558927429e-06
3.83516528983e-08
-2.28861766845e-06
3.27651094581e-08
-2.31696228534e-06
2.8384453968e-08
-2.34377587329e-06
2.68495019342e-08
-2.36802466858e-06
2.42849517969e-08
-2.38787626386e-06
1.98857695599e-08
-2.40737080124e-06
1.95280526985e-08
-2.42678821979e-06
1.94465008985e-08
-2.44492041109e-06
1.81615098023e-08
-2.46340992694e-06
1.8514394802e-08
-2.48030171119e-06
1.69145178003e-08
-2.49303663588e-06
1.27537824512e-08
-2.50240763914e-06
9.39035766322e-09
-2.51270525243e-06
1.031407365e-08
-2.52002587256e-06
7.33698114097e-09
-2.51664060742e-06
-3.37237836025e-09
-2.50550034843e-06
-1.11283001646e-08
-2.4900695002e-06
-1.54226251724e-08
-2.46960758082e-06
-2.04540881043e-08
-2.44345469505e-06
-2.61486596763e-08
-2.41025951486e-06
-3.31914088497e-08
-2.36989061131e-06
-4.03686717644e-08
-2.32630590156e-06
-4.35847506671e-08
-2.28400246976e-06
-4.23080781171e-08
-2.23624052357e-06
-4.77666922998e-08
-2.16829391448e-06
-6.79541528032e-08
-2.08382040332e-06
-8.44817787141e-08
-1.98394389259e-06
-9.9888707137e-08
-1.86340219058e-06
-1.20555085058e-07
-1.73762652347e-06
-1.25798513266e-07
-1.61088698248e-06
-1.26770309536e-07
-1.46476270965e-06
-1.46167569817e-07
-1.29764741844e-06
-1.67174280517e-07
-1.11903952395e-06
-1.78685529729e-07
-9.05445714591e-07
-2.13686008181e-07
-5.94696381608e-07
-3.10847287219e-07
-2.86562957005e-07
-3.08198964248e-07
-8.07052167727e-08
-2.05899223627e-07
5.38056942758e-08
-1.34536648168e-07
1.57052825814e-07
-1.03272595664e-07
2.46975733156e-07
-8.99504757449e-08
3.24568544113e-07
-7.76253342761e-08
3.85196530889e-07
-6.06620951468e-08
4.22183895042e-07
-3.70233259037e-08
4.31812804483e-07
-9.66458870041e-09
4.1511181856e-07
1.66687075477e-08
3.70570095496e-07
4.45106408401e-08
3.16777787965e-07
5.37644304518e-08
2.58972249519e-07
5.77751615077e-08
2.12685506116e-07
4.62553979565e-08
1.52826630742e-07
5.98263049709e-08
9.39485397885e-08
5.88444682576e-08
9.39154149279e-08
-1.23501407783e-07
3.59897047372e-07
-2.86097571315e-07
3.73102536385e-07
-4.4135845174e-07
3.35171821173e-07
-5.99488906874e-07
3.06946332291e-07
-7.92575818565e-07
3.02023096107e-07
-9.36826968651e-07
2.12679030187e-07
-1.01892255191e-06
1.30324168704e-07
-1.09582010347e-06
1.48585881268e-07
-1.17999330912e-06
1.80602887355e-07
-1.27032217588e-06
1.80115285213e-07
-1.35555662495e-06
1.66822340173e-07
-1.42623127164e-06
1.53764675856e-07
-1.48900759061e-06
1.36009033997e-07
-1.5476783928e-06
1.17821671458e-07
-1.60354122969e-06
1.08911649236e-07
-1.66520566128e-06
1.21645256631e-07
-1.72186251651e-06
1.18083333586e-07
-1.75282618565e-06
8.16791200494e-08
-1.7790722093e-06
6.48960895306e-08
-1.82157541999e-06
7.77571352571e-08
-1.88097748543e-06
1.07102187788e-07
-1.95357595348e-06
1.33382216631e-07
-2.02239060596e-06
1.311128315e-07
-2.07675633312e-06
1.12475763901e-07
-2.12588790706e-06
1.01326833787e-07
-2.17560583696e-06
9.62065372799e-08
-2.21916656183e-06
8.65189738957e-08
-2.25590189573e-06
7.51279009429e-08
-2.28839447255e-06
6.53024354956e-08
-2.31734402029e-06
5.73709377561e-08
-2.34232183049e-06
5.18684736335e-08
-2.36397506165e-06
4.59727793478e-08
-2.38138727651e-06
3.73357580243e-08
-2.39927477525e-06
3.74462216171e-08
-2.42179130518e-06
4.19976220935e-08
-2.44086583112e-06
3.72610990516e-08
-2.45797873068e-06
3.56551179914e-08
-2.47853368071e-06
3.74892949769e-08
-2.49940068425e-06
3.36443399586e-08
-2.51205535115e-06
2.20616240707e-08
-2.50118844074e-06
-5.31499591943e-10
-2.47674156224e-06
-1.70960145609e-08
-2.46209391145e-06
-1.80031627746e-08
-2.4546795823e-06
-1.85335490678e-08
-2.44617580904e-06
-2.39143566416e-08
-2.43476582599e-06
-3.18591440664e-08
-2.41789133263e-06
-4.3015087043e-08
-2.39530390131e-06
-5.57775145849e-08
-2.36558010112e-06
-7.00884154041e-08
-2.32178221837e-06
-8.73850963056e-08
-2.25860253078e-06
-1.05487689529e-07
-2.18949510719e-06
-1.16880242733e-07
-2.13773313846e-06
-1.19720855998e-07
-2.07641864653e-06
-1.4580723521e-07
-1.98718691041e-06
-1.89131073749e-07
-1.8918943374e-06
-2.15867364001e-07
-1.7850771554e-06
-2.32638005649e-07
-1.65600274024e-06
-2.55880429278e-07
-1.51228874362e-06
-2.89927289346e-07
-1.34510359224e-06
-3.34423571366e-07
-1.12553217768e-06
-3.98325376126e-07
-8.74898207818e-07
-4.6440217416e-07
-5.80809137193e-07
-6.05021824963e-07
-2.96328270688e-07
-5.92747964594e-07
-8.77219875926e-08
-4.14538643144e-07
5.42640031181e-08
-2.76549322516e-07
1.64006425094e-07
-2.13037796124e-07
2.60299453894e-07
-1.86272058631e-07
3.41434564908e-07
-1.58790946616e-07
4.01421232591e-07
-1.2068556037e-07
4.31355959536e-07
-6.69953525539e-08
4.30707987269e-07
-9.05212268439e-09
4.14570664945e-07
3.27721615287e-08
3.92741383681e-07
6.63049740259e-08
3.54590447215e-07
9.18804786187e-08
3.07931916223e-07
1.04399308057e-07
2.48471149434e-07
1.0568069294e-07
1.87352401601e-07
1.20909094832e-07
1.00071365507e-07
1.46076982749e-07
1.9396683936e-07
-1.59189539148e-07
5.19398097642e-07
-2.41422491619e-07
4.55613439064e-07
-4.28030641125e-07
5.2204805932e-07
-6.40078125459e-07
5.19253344113e-07
-8.32054130798e-07
4.94237824998e-07
-9.3177743258e-07
3.12595882456e-07
-9.81521731227e-07
1.80257868216e-07
-1.06665061088e-06
2.33915200592e-07
-1.16555852043e-06
2.79692143728e-07
-1.26165712865e-06
2.76372316256e-07
-1.35009915219e-06
2.55400770277e-07
-1.42449826194e-06
2.28292243624e-07
-1.48784124664e-06
1.99476220701e-07
-1.54800220657e-06
1.78103572404e-07
-1.59420201142e-06
1.55223480996e-07
-1.58434029502e-06
1.11881653449e-07
-1.54317695888e-06
7.69954011901e-08
-1.55063015115e-06
8.91980437332e-08
-1.62396891978e-06
1.38295347946e-07
-1.75275773291e-06
2.06608691571e-07
-1.8808378499e-06
2.35245673099e-07
-1.95959193914e-06
2.12199603335e-07
-2.0159367859e-06
1.87514726994e-07
-2.07542085404e-06
1.72015314078e-07
-2.13073024247e-06
1.56686526125e-07
-2.17630120893e-06
1.41826899823e-07
-2.2165262355e-06
1.26788882749e-07
-2.2532567647e-06
1.11903395535e-07
-2.28565502452e-06
9.77417748442e-08
-2.31466978908e-06
8.64274336721e-08
-2.33795681161e-06
7.51938425608e-08
-2.35816207009e-06
6.62156064095e-08
-2.37858559677e-06
5.77949115403e-08
-2.38927566377e-06
4.81710596616e-08
-2.4044846804e-06
5.72352407814e-08
-2.4340155744e-06
6.6820451252e-08
-2.45440716363e-06
5.60710133266e-08
-2.47026827509e-06
5.3373778363e-08
-2.49383501839e-06
5.72311367382e-08
-2.51303334674e-06
4.12814733489e-08
-2.52368182652e-06
1.01353495151e-08
-2.52661395021e-06
-1.41458403118e-08
-2.52069571964e-06
-2.39076346626e-08
-2.509181381e-06
-3.00343696762e-08
-2.49364670343e-06
-3.94392636862e-08
-2.47323820788e-06
-5.22579995313e-08
-2.44809204845e-06
-6.81552407402e-08
-2.41756289571e-06
-8.63009389477e-08
-2.38095163186e-06
-1.06697400888e-07
-2.33880192358e-06
-1.29532653493e-07
-2.29165471216e-06
-1.52636224424e-07
-2.2352443947e-06
-1.73292895505e-07
-2.15839141454e-06
-1.96579729535e-07
-2.07042890284e-06
-2.33777029122e-07
-1.98588310147e-06
-2.73690484936e-07
-1.8931066252e-06
-3.08660336693e-07
-1.77920663049e-06
-3.46564915392e-07
-1.64389835204e-06
-3.91221743479e-07
-1.48800765429e-06
-4.45863590754e-07
-1.30680983225e-06
-5.15674091142e-07
-1.10025933492e-06
-6.04939615488e-07
-8.36791057828e-07
-7.27940442819e-07
-5.56820368585e-07
-8.85058570572e-07
-2.92345051223e-07
-8.57271460813e-07
-7.70630574931e-08
-6.29856521931e-07
7.40094066819e-08
-4.27646329574e-07
1.93873749403e-07
-3.32927177172e-07
2.86628832838e-07
-2.79051953066e-07
3.58109523637e-07
-2.30303259628e-07
4.08958230321e-07
-1.71569604147e-07
4.41740197127e-07
-9.98149446889e-08
4.62916369548e-07
-3.02652169145e-08
4.63735215377e-07
3.19165369129e-08
4.33353778168e-07
9.66517005584e-08
3.75925500931e-07
1.49275834115e-07
3.0806303846e-07
1.7222886813e-07
2.43433885125e-07
1.70277160524e-07
1.87157430806e-07
1.7715268683e-07
8.27513922361e-08
2.50457756315e-07
2.76701368154e-07
-1.14485926492e-07
6.34100702542e-07
-1.54561120181e-07
4.95875005218e-07
-3.66596225585e-07
7.34335558148e-07
-5.39381326868e-07
6.92288882945e-07
-5.53779440641e-07
5.08818294648e-07
-4.93798934329e-07
2.52707534724e-07
-6.74931920151e-07
3.61511564002e-07
-9.48330296715e-07
5.07485709933e-07
-1.12242845062e-06
4.53960598091e-07
-1.23981198246e-06
3.93907212802e-07
-1.34003222184e-06
3.5576217995e-07
-1.42403524707e-06
3.12430761875e-07
-1.48206759321e-06
2.57637353092e-07
-1.48170039111e-06
1.77853772324e-07
-1.43551592449e-06
1.09138042626e-07
-1.41900115056e-06
9.5445823672e-08
-1.47409541774e-06
1.32158174512e-07
-1.59485224577e-06
2.10019587195e-07
-1.73946202343e-06
2.8297275923e-07
-1.83920825905e-06
3.06423329962e-07
-1.89809185708e-06
2.94195996104e-07
-1.95990757379e-06
2.7407734332e-07
-2.0227923139e-06
2.50458680957e-07
-2.07777757974e-06
2.27054978228e-07
-2.12680206158e-06
2.0576316195e-07
-2.17092865422e-06
1.86001435537e-07
-2.21211398942e-06
1.68021077914e-07
-2.24912456853e-06
1.48957127348e-07
-2.28227229312e-06
1.30932433985e-07
-2.30921000498e-06
1.13405864522e-07
-2.3343099797e-06
1.0033374143e-07
-2.35147007091e-06
8.34136544282e-08
-2.36189900151e-06
6.82587626803e-08
-2.38844110175e-06
7.47446479739e-08
-2.41176084996e-06
8.05853053447e-08
-2.43220567845e-06
8.72915691731e-08
-2.46925872727e-06
9.31492347874e-08
-2.50008591628e-06
8.42240988453e-08
-2.51245415166e-06
6.96225847329e-08
-2.51814978839e-06
4.69976350713e-08
-2.52443860569e-06
1.64436704435e-08
-2.52809284031e-06
-1.04750068241e-08
-2.52437408702e-06
-2.76104176622e-08
-2.5138389338e-06
-4.05561018995e-08
-2.49813676331e-06
-5.51287122992e-08
-2.47753664713e-06
-7.28480508864e-08
-2.45204129143e-06
-9.36414957388e-08
-2.42123309781e-06
-1.1710282014e-07
-2.38470636363e-06
-1.43218852716e-07
-2.3423385779e-06
-1.71897774457e-07
-2.29288238654e-06
-2.02090733862e-07
-2.23260720777e-06
-2.33568854098e-07
-2.15913527788e-06
-2.70054277675e-07
-2.07809471618e-06
-3.14825375847e-07
-1.98924550847e-06
-3.62550003956e-07
-1.88589880981e-06
-4.120266633e-07
-1.76370331648e-06
-4.68782272242e-07
-1.61896820291e-06
-5.35989339085e-07
-1.44754898114e-06
-6.17319235871e-07
-1.24489517603e-06
-7.18370396163e-07
-1.00709179123e-06
-8.42785778397e-07
-7.48549515371e-07
-9.86529548401e-07
-5.39905144996e-07
-1.09375513622e-06
-3.12996730329e-07
-1.08422849304e-06
-6.70428571291e-08
-8.75843765748e-07
1.02459006159e-07
-5.9717336525e-07
2.26447506086e-07
-4.56935663883e-07
3.27741281081e-07
-3.80372385545e-07
4.09508249457e-07
-3.12100589245e-07
4.75503346467e-07
-2.37602498221e-07
5.22458627659e-07
-1.4680953608e-07
5.31483977696e-07
-3.93286096527e-08
4.88713036744e-07
7.46550565477e-08
4.19525902488e-07
1.65809937526e-07
3.47061867318e-07
2.21711941796e-07
2.64747283665e-07
2.54516312484e-07
1.82391997892e-07
2.52611107026e-07
1.22937979139e-07
2.36592705121e-07
6.31397868161e-08
3.10231622695e-07
3.39837082809e-07
-2.45398207297e-08
6.58796051611e-07
-1.37579544233e-07
6.09064770232e-07
-3.09885931223e-07
9.06858808606e-07
-4.3718302428e-07
8.197896351e-07
-4.18145173145e-07
4.89906571185e-07
-5.18398552677e-07
3.53050078433e-07
-7.45749635553e-07
5.88992831674e-07
-9.20058296517e-07
6.81954007643e-07
-1.06538836493e-06
5.99445945971e-07
-1.19574949642e-06
5.24418427027e-07
-1.31306674082e-06
4.73226618214e-07
-1.37652717454e-06
3.76022183875e-07
-1.35717306675e-06
2.38396985617e-07
-1.33182008031e-06
1.52594504668e-07
-1.37274208224e-06
1.5014025148e-07
-1.47231291196e-06
1.95091936522e-07
-1.60591397772e-06
2.65832941471e-07
-1.72229407097e-06
3.26473462843e-07
-1.78816926153e-06
3.48920476361e-07
-1.8350569047e-06
3.53381290497e-07
-1.89559665412e-06
3.54802901833e-07
-1.96030895504e-06
3.38853311677e-07
-2.02018727728e-06
3.10396068045e-07
-2.07346521143e-06
2.80388700423e-07
-2.12124635626e-06
2.53596013244e-07
-2.16624681128e-06
2.31051480244e-07
-2.20571120117e-06
2.0753057942e-07
-2.24336459097e-06
1.86654992146e-07
-2.27421377573e-06
1.61824860851e-07
-2.30103723243e-06
1.4027161991e-07
-2.31745873318e-06
1.16794751203e-07
-2.33943000645e-06
1.05421006981e-07
-2.37453059318e-06
1.03392625371e-07
-2.39500554442e-06
9.52503944489e-08
-2.42313447828e-06
1.08742220528e-07
-2.46047583557e-06
1.24660131777e-07
-2.48719350549e-06
1.1989275704e-07
-2.50567036313e-06
1.02726138571e-07
-2.51661296067e-06
8.05882758674e-08
-2.52321851128e-06
5.3624931883e-08
-2.52907979526e-06
2.23244304354e-08
-2.53238606097e-06
-7.15048619126e-09
-2.52948949726e-06
-3.04906336027e-08
-2.51979151862e-06
-5.02385826684e-08
-2.50433260422e-06
-7.05738631951e-08
-2.48369742283e-06
-9.34705490012e-08
-2.45796895729e-06
-1.19359359493e-07
-2.4268517892e-06
-1.48210787129e-07
-2.3899186363e-06
-1.80144968992e-07
-2.34654780363e-06
-2.15262800598e-07
-2.29517478379e-06
-2.53459913655e-07
-2.23334220018e-06
-2.95399327739e-07
-2.16025617563e-06
-3.43141800051e-07
-2.07761584958e-06
-3.97469416611e-07
-1.98339623578e-06
-4.56781413044e-07
-1.87221188184e-06
-5.23222273716e-07
-1.73899652795e-06
-6.02018665197e-07
-1.57824619052e-06
-6.96759126706e-07
-1.38519629171e-06
-8.10393053973e-07
-1.15982978283e-06
-9.43759357601e-07
-9.14101383879e-07
-1.08854017165e-06
-6.8480932039e-07
-1.21585367284e-06
-5.07829632925e-07
-1.27076967926e-06
-2.79145502472e-07
-1.31294778459e-06
-5.09416597474e-08
-1.10408064922e-06
1.32931316321e-07
-7.81068066255e-07
2.76794150638e-07
-6.00823780897e-07
3.90362946645e-07
-4.93965083988e-07
4.81998475346e-07
-4.03768211113e-07
5.60165024479e-07
-3.15803880266e-07
6.0220402012e-07
-1.88886082978e-07
5.71422733053e-07
-8.57941469115e-09
4.98788041089e-07
1.47262843945e-07
4.17170039466e-07
2.474030567e-07
3.26160000507e-07
3.12698514805e-07
2.31614054255e-07
3.49042866073e-07
1.64843013424e-07
3.19367615473e-07
1.04656359053e-07
2.96763977351e-07
4.40567830317e-08
3.70826224739e-07
3.83884926169e-07
-1.27364261738e-08
6.7161947092e-07
-1.67248688806e-07
7.63708441289e-07
-2.64829196214e-07
1.00462124561e-06
-3.27418042436e-07
8.82529911332e-07
-3.24741016782e-07
4.87315175945e-07
-5.63061629077e-07
5.91475983664e-07
-7.87588796406e-07
8.13663517678e-07
-8.97054274117e-07
7.91563888031e-07
-1.01946073108e-06
7.22001112258e-07
-1.13380911155e-06
6.38918432397e-07
-1.19361924409e-06
5.33175058698e-07
-1.15381025872e-06
3.3632078766e-07
-1.14922445791e-06
2.3389571124e-07
-1.22617967318e-06
2.29624929873e-07
-1.35253911204e-06
2.76573813613e-07
-1.5138336592e-06
3.56463460948e-07
-1.65025833755e-06
4.02336873109e-07
-1.72000955108e-06
3.96302744569e-07
-1.76553470562e-06
3.94520313087e-07
-1.83097059228e-06
4.1888931868e-07
-1.89787719832e-06
4.21778195661e-07
-1.95711642689e-06
3.98156740079e-07
-2.01355588441e-06
3.66895539141e-07
-2.06835080374e-06
3.35238952795e-07
-2.11744502412e-06
3.0274274093e-07
-2.15402191765e-06
2.67676834388e-07
-2.19455358149e-06
2.48109162366e-07
-2.22981891932e-06
2.21965128063e-07
-2.26145370476e-06
1.93502561382e-07
-2.27686284234e-06
1.55721689352e-07
-2.29513043039e-06
1.35100742665e-07
-2.32107946139e-06
1.3140478864e-07
-2.3467092773e-06
1.29053529639e-07
-2.39927344362e-06
1.47843822305e-07
-2.44688238792e-06
1.56379712397e-07
-2.47657452626e-06
1.54380305831e-07
-2.4964323646e-06
1.39777918337e-07
-2.51124155923e-06
1.17561245259e-07
-2.52187392959e-06
9.12450951693e-08
-2.52948962122e-06
6.1262970187e-08
-2.53540180807e-06
2.82571876748e-08
-2.53837343271e-06
-4.1599561155e-09
-2.53584274726e-06
-3.30033348675e-08
-2.52684003353e-06
-5.92243741993e-08
-2.51181994412e-06
-8.55779342389e-08
-2.49129888963e-06
-1.13976968384e-07
-2.46540305306e-06
-1.45241801614e-07
-2.43386056652e-06
-1.79741492257e-07
-2.39614310614e-06
-2.17852019682e-07
-2.35140659693e-06
-2.59990519118e-07
-2.29821818937e-06
-3.06641049632e-07
-2.23490047236e-06
-3.58712328011e-07
-2.16059385491e-06
-4.17445929586e-07
-2.07452909686e-06
-4.83538389213e-07
-1.97318217241e-06
-5.58131432509e-07
-1.85096699383e-06
-6.45449948674e-07
-1.70226849784e-06
-7.50723395222e-07
-1.52241625844e-06
-8.7662284012e-07
-1.31095920951e-06
-1.02185788803e-06
-1.07728319885e-06
-1.17744482001e-06
-8.43642117441e-07
-1.32219351418e-06
-6.35611750788e-07
-1.42390211084e-06
-4.48108942216e-07
-1.45830073997e-06
-2.37855327234e-07
-1.52323836888e-06
-1.68210911065e-08
-1.32514074668e-06
1.62088688223e-07
-9.60002629325e-07
3.28115409716e-07
-7.66869555033e-07
4.71858209744e-07
-6.37736044941e-07
5.92667979855e-07
-5.24605141619e-07
6.80624385948e-07
-4.03793546941e-07
6.84619600027e-07
-1.92912976953e-07
6.17383706194e-07
5.86298291254e-08
5.28483127974e-07
2.36140121821e-07
4.24466971318e-07
3.51397493369e-07
3.12696700974e-07
4.24450006501e-07
2.205715414e-07
4.41152366123e-07
1.47142787554e-07
3.92785018685e-07
8.63541242063e-08
3.57547261112e-07
3.92521374563e-08
4.17911087775e-07
4.23136293315e-07
-6.49421919653e-08
7.36664315051e-07
-2.42226340871e-07
9.41123611483e-07
-3.27992783584e-07
1.09055060411e-06
-2.93765234497e-07
8.48431690993e-07
-3.90291763369e-07
5.83930832657e-07
-6.47171076163e-07
8.48479271985e-07
-7.73735445141e-07
9.40364254869e-07
-8.69251112576e-07
8.8722061766e-07
-9.57783715357e-07
8.10675695866e-07
-1.0741142677e-06
7.5538973854e-07
-1.06999817151e-06
5.29177513482e-07
-1.05131786977e-06
3.17724579583e-07
-1.12819587139e-06
3.10848116287e-07
-1.23708567908e-06
3.38584322005e-07
-1.39625089308e-06
4.35815730302e-07
-1.54751869695e-06
5.07815944343e-07
-1.62517033127e-06
4.80071118415e-07
-1.67445286825e-06
4.45662593772e-07
-1.75247000445e-06
4.72613040474e-07
-1.82912324993e-06
4.95616240722e-07
-1.89230512538e-06
4.85029570393e-07
-1.95183747103e-06
4.57754313616e-07
-2.00949739251e-06
4.24614896196e-07
-2.05887517113e-06
3.84672888405e-07
-2.09953984706e-06
3.43460255717e-07
-2.13933552339e-06
3.07521211588e-07
-2.17025635388e-06
2.79076496858e-07
-2.20645263682e-06
2.58205113815e-07
-2.23119043497e-06
2.18282586324e-07
-2.24864460115e-06
1.73215373521e-07
-2.27921298021e-06
1.65705585839e-07
-2.31571683095e-06
1.67941957373e-07
-2.36535124044e-06
1.78718404495e-07
-2.41337965994e-06
1.95901882992e-07
-2.45866107205e-06
2.01691009394e-07
-2.48603293091e-06
1.81781577144e-07
-2.50363315959e-06
1.57406335152e-07
-2.5175234326e-06
1.31478339486e-07
-2.52869144708e-06
1.02438161807e-07
-2.5371961905e-06
6.97910926225e-08
-2.54331502008e-06
3.43977605214e-08
-2.54612140192e-06
-1.33294230198e-09
-2.54379488493e-06
-3.53101788831e-08
-2.53532509604e-06
-6.76751594245e-08
-2.52076099877e-06
-1.00123908233e-07
-2.50040753819e-06
-1.34313103238e-07
-2.47431073189e-06
-1.71322316611e-07
-2.44216044874e-06
-2.11876467163e-07
-2.40337509591e-06
-2.56623302021e-07
-2.35708583441e-06
-3.06267035434e-07
-2.30204434642e-06
-3.61671970028e-07
-2.23677995713e-06
-4.23968450357e-07
-2.15972432243e-06
-4.94498679329e-07
-2.06827895823e-06
-5.74980864401e-07
-1.9576946345e-06
-6.68721266823e-07
-1.82211330762e-06
-7.81028748908e-07
-1.65681945856e-06
-9.16020265523e-07
-1.46093032655e-06
-1.07250921707e-06
-1.24159995653e-06
-1.24118855687e-06
-1.01476056046e-06
-1.40428659075e-06
-8.03027426065e-07
-1.5339352772e-06
-6.16434154575e-07
-1.61051539482e-06
-4.16818205035e-07
-1.65794654807e-06
-2.53498316088e-07
-1.68658622717e-06
2.90244694668e-09
-1.58157004167e-06
2.18920361619e-07
-1.17603830385e-06
4.17268552394e-07
-9.65243938718e-07
6.03041530303e-07
-8.23530181816e-07
7.48328853444e-07
-6.69920685541e-07
8.1350453929e-07
-4.68996537063e-07
7.81086851911e-07
-1.60520930873e-07
6.98343871972e-07
1.41350009176e-07
5.80574648646e-07
3.53888074793e-07
4.39715478093e-07
4.92237667983e-07
3.04032305787e-07
5.60116938513e-07
2.10360810197e-07
5.34812153854e-07
1.24929359125e-07
4.78206907996e-07
6.04152276914e-08
4.22047958336e-07
3.00574179008e-08
4.48268088164e-07
4.53185095841e-07
-1.14999903516e-07
8.51749711912e-07
-2.66886963324e-07
1.09314106909e-06
-3.10415736314e-07
1.13419915605e-06
-2.32059452056e-07
7.70158505489e-07
-4.33311860786e-07
7.85279628013e-07
-6.41945668001e-07
1.05724201993e-06
-7.41436974387e-07
1.03998887933e-06
-8.44134582338e-07
9.90052603264e-07
-8.8041432043e-07
8.47090778704e-07
-9.24993618624e-07
8.00091631646e-07
-9.10067665475e-07
5.14335869623e-07
-1.0168566166e-06
4.24586739426e-07
-1.11811413201e-06
4.12173304773e-07
-1.26569460833e-06
4.86238485327e-07
-1.42751795388e-06
5.97724040097e-07
-1.51648900147e-06
5.96873368555e-07
-1.56788550236e-06
5.31548326803e-07
-1.65540317197e-06
5.33258547127e-07
-1.74804402983e-06
5.65331505636e-07
-1.81892053262e-06
5.66567623323e-07
-1.87926585696e-06
5.45445172662e-07
-1.93741401567e-06
5.15966176685e-07
-1.99821580044e-06
4.85477286766e-07
-2.05580275799e-06
4.42317185299e-07
-2.09199427095e-06
3.7970279095e-07
-2.13455942824e-06
3.50135934824e-07
-2.16782152476e-06
3.12384804288e-07
-2.18065523635e-06
2.71082518481e-07
-2.20461270747e-06
2.4228007442e-07
-2.26355381056e-06
2.32194294986e-07
-2.30506017694e-06
2.07247741172e-07
-2.32713601086e-06
1.90049688772e-07
-2.37782682142e-06
2.29440250136e-07
-2.43454586331e-06
2.52652054156e-07
-2.46779281749e-06
2.34968872543e-07
-2.49167732507e-06
2.05696258412e-07
-2.51015015089e-06
1.75908185563e-07
-2.52493147821e-06
1.46287280341e-07
-2.53694068594e-06
1.14473476769e-07
-2.54627664527e-06
7.91515996585e-08
-2.55275346214e-06
4.08977830345e-08
-2.5555901374e-06
1.52592517167e-09
-2.55348741336e-06
-3.73913258903e-08
-2.54549268369e-06
-7.56488322014e-08
-2.53136306414e-06
-1.14232859041e-07
-2.5111527892e-06
-1.54503163007e-07
-2.4847630169e-06
-1.97692306496e-07
-2.45182057256e-06
-2.44799710732e-07
-2.41174188108e-06
-2.96683619549e-07
-2.36371881108e-06
-3.54273287296e-07
-2.30659654489e-06
-4.18779724117e-07
-2.23873989775e-06
-4.91814702218e-07
-2.15767740715e-06
-5.75552968207e-07
-2.05941906954e-06
-6.73238279267e-07
-1.93845061301e-06
-7.89682806849e-07
-1.78959388724e-06
-9.29882421574e-07
-1.61080348042e-06
-1.09480306129e-06
-1.40528659329e-06
-1.27802186087e-06
-1.18384021273e-06
-1.46263687353e-06
-9.63401612922e-07
-1.62473334694e-06
-7.62156651208e-07
-1.73519596776e-06
-5.79728764334e-07
-1.79296636655e-06
-4.11687072414e-07
-1.82601752277e-06
-2.69327998391e-07
-1.82898166835e-06
-4.1427693483e-08
-1.8095010304e-06
2.79733552735e-07
-1.49722939901e-06
5.2184907831e-07
-1.20737521767e-06
7.34519506571e-07
-1.03622297731e-06
8.91578029595e-07
-8.26998490046e-07
9.53714199866e-07
-5.31154528686e-07
9.26590367415e-07
-1.33420288725e-07
8.22749611572e-07
2.45169599396e-07
6.51335380417e-07
5.25282224235e-07
4.56480104534e-07
6.8707606506e-07
2.93109979057e-07
7.23473121482e-07
1.75319846753e-07
6.52590678547e-07
8.58882218727e-08
5.67627771352e-07
2.0604291575e-08
4.87328074991e-07
4.00282973717e-09
4.64852065701e-07
4.57187074207e-07
-1.46176100276e-07
9.9804200593e-07
-2.60400495132e-07
1.20749373227e-06
-2.59004125915e-07
1.13291992857e-06
-2.85767190426e-07
7.97003724124e-07
-5.05170504162e-07
1.00478873444e-06
-6.05156198329e-07
1.15735389284e-06
-6.98754216979e-07
1.13371715826e-06
-7.98287776733e-07
1.08971091141e-06
-8.42860313045e-07
8.91775787908e-07
-8.89090353933e-07
8.4643427441e-07
-9.19598311432e-07
5.44916445682e-07
-1.01568060936e-06
5.20735190497e-07
-1.13453200755e-06
5.31091930308e-07
-1.2968487039e-06
6.48633333582e-07
-1.43329341029e-06
7.34258084396e-07
-1.49691744169e-06
6.60585066063e-07
-1.55721512389e-06
5.91926633565e-07
-1.64687368497e-06
6.22996482473e-07
-1.73287688296e-06
6.51413294658e-07
-1.8056949708e-06
6.39460151814e-07
-1.86864136045e-06
6.0845960926e-07
-1.92138018151e-06
5.68770052195e-07
-1.96829570858e-06
5.32455510526e-07
-2.0177115287e-06
4.91788019057e-07
-2.06176740656e-06
4.23811095363e-07
-2.0934128732e-06
3.81830492177e-07
-2.13803125603e-06
3.57047457302e-07
-2.18565264288e-06
3.18747312704e-07
-2.22624547462e-06
2.8291302865e-07
-2.25997794089e-06
2.6596339524e-07
-2.30177466416e-06
2.49077179822e-07
-2.37059229408e-06
2.58899280042e-07
-2.41454821129e-06
2.73427799319e-07
-2.44572054239e-06
2.83856288483e-07
-2.4737074297e-06
2.62987711247e-07
-2.49770654103e-06
2.29726470902e-07
-2.51751049044e-06
1.95741911926e-07
-2.53349329442e-06
1.6229845683e-07
-2.54640470277e-06
1.27411876801e-07
-2.55655842733e-06
8.93310839097e-08
-2.56362665062e-06
4.7990766687e-08
-2.56679176353e-06
4.71514944201e-09
-2.56503491773e-06
-3.91245140878e-08
-2.557534449e-06
-8.31257554617e-08
-2.54384524211e-06
-1.27898523372e-07
-2.52373803834e-06
-1.74586648423e-07
-2.49694779863e-06
-2.24458646071e-07
-2.4630533987e-06
-2.7867033142e-07
-2.42149719719e-06
-3.38216740511e-07
-2.37155026323e-06
-4.04199315833e-07
-2.31208624221e-06
-4.7822607244e-07
-2.24117373876e-06
-5.6271415809e-07
-2.15552888851e-06
-6.61191410853e-07
-2.05023531579e-06
-7.78524703333e-07
-1.91974077325e-06
-9.20171916666e-07
-1.76038585683e-06
-1.08923017762e-06
-1.57248373484e-06
-1.28270161655e-06
-1.35847682032e-06
-1.49203743612e-06
-1.13044569217e-06
-1.69068390651e-06
-9.09802910816e-07
-1.84539868476e-06
-7.18846331681e-07
-1.92618029667e-06
-5.51210800315e-07
-1.96063604268e-06
-3.8905215143e-07
-1.98821757737e-06
-2.24607790583e-07
-1.99346769579e-06
-7.26914833589e-08
-1.96146179103e-06
2.5437916219e-07
-1.82432670635e-06
6.43468273944e-07
-1.59648959009e-06
8.87909120293e-07
-1.28067753207e-06
1.06508728974e-06
-1.00419284943e-06
1.15733492904e-06
-6.23421848319e-07
1.15667601966e-06
-1.32780442268e-07
1.0051315683e-06
3.96692966481e-07
7.4035115921e-07
7.90044723281e-07
4.61692946468e-07
9.65718053225e-07
2.46408019349e-07
9.38745111396e-07
9.42254850649e-08
8.04762664781e-07
7.25420502404e-09
6.54589876548e-07
-3.70062922084e-08
5.31573290925e-07
-3.26666454516e-08
4.60511386891e-07
4.24510961614e-07
-1.64974054829e-07
1.16310533511e-06
-2.72455998935e-07
1.31508927441e-06
-2.39241376625e-07
1.09980049439e-06
-3.38104876434e-07
8.9595846883e-07
-5.24116526713e-07
1.19091960339e-06
-5.69997156748e-07
1.20335709396e-06
-6.49710137903e-07
1.21355083811e-06
-7.00497404712e-07
1.14061183608e-06
-7.806071176e-07
9.7198119729e-07
-7.95584066579e-07
8.61493941106e-07
-8.90325839392e-07
6.39724437634e-07
-1.00745032654e-06
6.37922552325e-07
-1.13810211512e-06
6.6181305651e-07
-1.28712964799e-06
7.97745613281e-07
-1.37815518375e-06
8.25371852581e-07
-1.42881269594e-06
7.11323550516e-07
-1.52483715255e-06
6.88030926305e-07
-1.6247577025e-06
7.22997584333e-07
-1.707943657e-06
7.3467735357e-07
-1.78486869135e-06
7.16458401117e-07
-1.85735853079e-06
6.81020006109e-07
-1.92031589253e-06
6.31794298404e-07
-1.95996848928e-06
5.72167787423e-07
-1.99191248524e-06
5.23788387473e-07
-2.05128223429e-06
4.83231892523e-07
-2.09019581391e-06
4.20791020624e-07
-2.10439986526e-06
3.71298112101e-07
-2.13224542055e-06
3.46635116016e-07
-2.18394957052e-06
3.34655577037e-07
-2.25124808107e-06
3.33297015062e-07
-2.31443978995e-06
3.1230093818e-07
-2.36684480922e-06
3.11335169112e-07
-2.42226833843e-06
3.28883361193e-07
-2.45576541772e-06
3.17386501303e-07
-2.48143185222e-06
2.886868362e-07
-2.50518567695e-06
2.5351185301e-07
-2.52611162807e-06
2.16698178207e-07
-2.54335675862e-06
1.79572741225e-07
-2.55719654197e-06
1.41279739505e-07
-2.56811241531e-06
1.00274103663e-07
-2.57589454853e-06
5.57993152303e-08
-2.57968315486e-06
8.52965570365e-09
-2.57850352679e-06
-4.02782590079e-08
-2.57159439622e-06
-9.00087285547e-08
-2.55840517211e-06
-1.4106093011e-07
-2.53844955989e-06
-1.94514667539e-07
-2.51122836489e-06
-2.51651586477e-07
-2.47625944517e-06
-3.13610873374e-07
-2.43307499167e-06
-3.81374135178e-07
-2.38107780913e-06
-4.56172209367e-07
-2.31920156925e-06
-5.4008313067e-07
-2.24532558983e-06
-6.36577483978e-07
-2.15565632389e-06
-7.5085337934e-07
-2.04485730161e-06
-8.89316441118e-07
-1.90781681979e-06
-1.05720034896e-06
-1.74221122824e-06
-1.25483173737e-06
-1.54778508996e-06
-1.47713253123e-06
-1.31721029907e-06
-1.72263007043e-06
-1.07200821985e-06
-1.93591867716e-06
-8.50315000655e-07
-2.06713824694e-06
-6.85751311428e-07
-2.09078251591e-06
-5.35270878096e-07
-2.11115645687e-06
-3.51353005941e-07
-2.172179405e-06
-1.41450467043e-07
-2.20342146199e-06
4.93084120802e-08
-2.15226511071e-06
2.9242412888e-07
-2.06748853184e-06
6.5571065216e-07
-1.95980423886e-06
1.01499158377e-06
-1.63997712749e-06
1.24069233951e-06
-1.22990682641e-06
1.43893289118e-06
-8.21677744518e-07
1.51323130796e-06