/*--------------------------------*- C++ -*----------------------------------*\
| =========                 |                                                 |
| \\      /  F ield         | OpenFOAM: The Open Source CFD Toolbox           |
|  \\    /   O peration     | Version:  v1806                                 |
|   \\  /    A nd           | Web:      www.OpenFOAM.com                      |
|    \\/     M anipulation  |                                                 |
\*---------------------------------------------------------------------------*/
FoamFile
{
    version     2.0;
    format      ascii;
    class       volScalarField;
    location    "566";
    object      alphak;
}
// * * * * * * * * * * * * * * * * * * * * * * * * * * * * * * * * * * * * * //

dimensions      [0 0 -1 0 0 0 0];


internalField   nonuniform List<scalar> 
6400
(
0.880623123852
1.39583963461
2.20228198783
2.71529613892
3.20706416988
3.70560348491
4.35966497284
5.09629424035
5.48584967196
6.1064486471
7.32941189895
8.14593856525
8.82079198512
9.59090620409
10.5603374472
11.5746503589
12.4633729947
13.2982413847
14.0007573556
14.3924328207
14.5489151798
14.8208201587
15.4218774391
16.3440728753
17.3623596788
18.2700541305
19.0017294179
19.6743989257
20.3946660224
21.1773365499
21.9673668047
22.5614108068
22.8829668587
23.0610250064
23.1320843494
23.0781853804
23.1995220041
23.5747281516
23.6102461968
23.4076305585
23.5987771714
24.3217102382
25.0563154111
25.4418473443
25.5348170949
25.4269151591
25.1867145618
24.8628113435
24.4681560476
24.0230535505
23.4313492841
22.4490496221
21.1644017375
19.6343054165
18.3404544074
17.364740373
15.938326884
13.7108588684
11.3514149787
9.58165180681
7.74761354365
5.84128928723
3.88344847515
4.64396261333
8.54018264985
13.4471485201
16.4320842555
16.1456525344
14.1770631585
12.6035185407
11.7859994389
12.0401005218
12.6269224326
12.5387562203
14.6185252397
14.0718955775
15.9594591024
9.86162460536
12.8673988344
4.80988496048
3.14252785987
2.50553748681
3.11353003128
4.36329420173
4.25909806952
4.1416923391
4.35058261144
4.78826831213
5.41437856265
6.21374386299
7.18244951723
8.14831459959
8.99780799826
9.81014780817
10.6363543998
11.582940636
12.5768032412
13.5294071504
14.5494591962
14.7635413483
14.7176261253
14.9524439902
15.5142597952
16.4173564024
17.5799392057
18.4213065609
19.1185131908
19.8344507911
20.5729130429
21.3236215454
22.0798424761
22.7779636488
23.095262439
23.2704159892
23.3809989377
23.220940626
23.4001632592
23.7987878574
23.7724631514
23.4064922017
23.5623740756
24.9564148115
26.0595517614
26.3377452714
26.3619880309
26.1524782578
25.7813382432
25.3658535998
24.7698749742
24.1269980584
23.6210753829
23.2783554423
22.2520925149
19.8591136576
18.7118028115
17.4612751878
15.3243296296
13.1595869226
11.0920823373
9.05654783407
7.21231700508
6.21580117585
4.29184796131
5.064552816
8.67415316437
14.494049701
18.2421219693
16.9698730804
14.8220146789
12.9327604599
12.2835377585
12.7538663941
13.9003541236
13.3507561725
13.2267023625
12.7222544151
11.5398623292
9.71059090766
8.16779188002
4.25250293401
3.22258781019
2.82594159873
3.33997902184
3.61243029769
4.13257883216
4.56414394811
4.55084936661
4.6956253872
5.32014734752
6.19151537564
7.16665524083
8.15229450591
9.04912291558
9.86658713608
10.5477885202
11.4027342843
14.0568134875
16.0665891038
16.4730750875
15.860983887
14.5258456098
14.5991929976
15.6471420997
16.6043847438
17.4923544278
18.410314978
19.2250986434
19.9438610591
20.6612858945
21.4112831152
22.1287305366
22.9290685577
23.2491270972
23.1623337518
23.6435537787
23.4983375565
23.3019820614
23.9290291529
23.9404312785
23.6288737448
23.7977790989
24.5120923476
25.2333613006
25.6240002469
25.741909825
25.6770465514
25.4705664599
25.1432394896
24.6978242444
24.1578901482
23.5258653243
22.689755889
21.522081961
20.3108209984
19.1283929823
17.3101911479
15.2296352324
13.1578827152
11.1302911825
9.20292348661
7.51999133816
5.94035658849
4.88584423532
6.40961337972
11.0575051693
15.4946758986
17.6740333597
17.795944917
16.2357266828
14.6044254032
13.9656404188
13.9183735568
13.2940565037
12.7310371698
12.7308367833
12.4070830424
11.4386841645
9.82247729565
7.39056795663
7.5745161944
3.21857826196
5.49434697635
3.64690184915
3.76036017086
4.45164327149
11.8646521195
10.2491172333
5.27501082876
5.29623569053
6.19273597531
7.19119808598
8.19543184026
9.06782917068
9.90981749831
11.6252167022
13.7348395189
15.4056580221
15.816991185
14.7540301198
13.9516460212
14.2758209904
14.8509472111
15.6137340989
16.5745504691
17.5814731732
18.536928117
19.3826455573
20.0771542378
20.8203648838
21.4894462571
22.3580111764
22.9184090436
23.5656238086
23.4889556892
23.1522089125
23.5970319822
23.4977837147
23.4182461177
23.6220114779
23.8125768081
24.1239937131
24.6822575947
25.2690994176
25.6549359487
25.8123401605
25.7843142896
25.6062452294
25.3000703178
24.8754001281
24.3404583698
23.6811248538
22.8406962844
21.7823928323
20.5685117704
19.1397245565
17.3510276447
15.3170887446
13.2562164856
11.2826584434
9.48802844084
7.98269542402
6.8768759202
6.61352494812
7.69118111666
10.4933083446
15.9028148753
19.3833849594
19.55897015
17.9096140054
15.5761785038
14.0093816669
13.2664106864
13.4742038934
14.9028747638
14.853231151
13.5412392895
13.4051142174
16.6927634903
13.0970879929
11.1164599153
5.64852395425
7.55609382731
4.39460567405
4.71244973294
6.56455784229
11.7563831855
8.20469981306
5.7193055958
5.81829578921
6.41586301793
7.33733786659
8.35665071295
9.77564408252
12.0796515793
13.1091392406
13.5017713214
13.526035799
13.3365470934
13.436451841
14.0037545013
14.4103338306
14.8953799456
15.7066937639
16.6808999047
17.7069314065
18.6967508376
19.5078166331
20.3416451244
20.9383454359
21.8237479267
22.3984470209
23.6029989671
23.4917080353
23.1002447196
23.2921056164
23.0705146444
23.1885634596
23.4600776708
23.7556384608
24.040821786
24.3904225351
24.8680121995
25.3669736301
25.7359789093
25.9183690627
25.9223798123
25.7725337629
25.4905289071
25.0888002822
24.5691280356
23.9142666903
23.0900040365
22.073394023
20.8532563609
19.354802703
17.5298885846
15.5158732587
13.5180701203
11.6818987176
10.1273175963
8.97736317106
8.37167982374
8.53588697881
8.90623081991
10.7174135036
15.4175687468
19.4619602451
20.8648087613
19.7118075636
16.9637683757
14.5111454103
14.2211852159
16.5011272993
17.3830744889
16.3532108587
15.4419815316
18.0962705953
21.10757763
16.4235322665
15.539693608
9.94586460164
9.10904591869
5.47285958441
6.04040802967
12.0380308934
11.5087354746
6.57477651994
6.30854264968
6.44110160978
6.76669488873
7.58989332108
10.2244502746
13.445346798
13.8885805062
13.5467285308
12.6443566374
12.2987113667
12.6601345352
13.6003186788
13.9813765385
14.2970323961
14.9663028507
15.8551091659
16.8652828385
17.8193707704
18.8215634224
19.9062438826
20.4479018023
21.5020294152
21.8713668962
23.3323016877
23.3716747304
24.1877189237
23.3575490832
22.6778286366
22.7779505864
23.1702308539
23.5774718203
23.9402674544
24.2759841728
24.6458458789
25.082750905
25.5261248305
25.8759776947
26.0715165041
26.1011953419
25.9783716497
25.7235297285
25.3507909093
24.8594497159
24.23145863
23.4372541928
22.443778585
21.2067067991
19.670155314
17.855368554
15.9228852845
14.0723414929
12.4554002032
11.1980183853
10.3925070132
10.1873569913
10.7883114634
9.93454931522
12.5196271543
17.3215799594
20.7662443163
22.1334815956
21.2260754828
17.8692991165
15.6942762006
17.5165972497
19.7362533422
19.2223373094
18.2328266958
18.3132612818
22.8757451106
24.4575607171
19.4575823987
19.2588272025
12.061686882
8.94933970788
6.65513451306
6.24072641336
11.977086848
8.37563485817
6.78273449983
6.89587462291
7.01932639157
7.70964925422
8.19574221539
13.1923646337
13.8766571914
13.9182544161
12.5809661689
11.5974497418
11.8864997118
13.2117280817
13.5760159839
13.6819896785
14.3132509421
15.0827840183
15.9738763828
16.9819222856
18.1343800662
19.2411548686
19.9324571063
21.3169027056
21.5755390226
23.1642544879
23.0532489144
24.110922949
23.6118184128
23.1129637438
22.4861277699
22.7159458394
23.2456329173
23.7377589926
24.1442782794
24.5147986408
24.9033498559
25.3234194756
25.7352124582
26.0700787853
26.2731722201
26.3234297006
26.2274933777
26.0050604579
25.6707555864
25.221752706
24.6369023913
23.8816355096
22.9106707566
21.6736500178
20.1487780031
18.4097630558
16.6329530215
15.0014696257
13.6291760594
12.5747896624
11.9375507313
11.7566128294
11.5576341032
11.561590152
14.0166916056
19.9394892285
22.1750729833
22.4796627586
21.4175216691
19.1548724211
18.9003989855
21.4673151157
21.9128772941
21.0873430811
20.5097925572
22.4851307407
25.2278444197
26.6846888983
22.1036070649
20.9661373369
11.7697574584
8.58629495446
7.79097566901
12.1316800416
12.072419459
7.37803748407
7.42805835972
7.56966188978
7.67334208138
8.23788722632
12.9526396394
13.890330306
13.9735545641
13.4905819639
11.4000810817
11.1736118194
12.7416399303
13.3599456236
13.2040668085
13.557973179
14.3587195402
15.266907418
16.1856822346
17.251411211
18.2361882382
19.6118209528
20.0347517746
21.3330398711
22.8765511714
23.3001092023
22.7400912628
23.5693926709
23.7012312377
22.5300954879
22.4667818457
22.8597068458
23.3923727323
23.9114275056
24.358288627
24.762939297
25.1715008964
25.590880369
25.9886282339
26.3144422831
26.5229513287
26.5915296467
26.5245913561
26.3416850107
26.0567970317
25.6641419369
25.1376123787
24.4349244566
23.5040334075
22.3056372782
20.8579526792
19.2723380895
17.7157296708
16.3048623056
15.0590569016
14.0203907925
13.3569570172
13.0953914839
13.0747241669
13.4104895981
13.4745587833
20.0567887295
23.9741783135
23.9350276073
23.3256456715
22.3662934924
23.1831306413
24.5386446359
23.8612327961
23.1934061715
23.4200947285
25.7548249533
26.4252260516
27.0010525432
24.1224553527
21.9856002601
11.0357381087
8.4950342049
8.45526130647
13.1045163713
11.0312376537
7.98076514353
8.12726719069
8.39826297537
9.60833211631
8.33929008142
13.7262563995
14.4064855073
14.0102677344
12.2439876751
11.017432798
11.3135043994
12.8266567305
13.0703190367
13.090004093
13.5853752526
14.36378793
15.3549231957
16.3792864738
17.8593463974
19.1095952477
19.5736474945
21.5058440074
21.2214188288
23.0863265161
22.7025886329
23.9431515864
22.8838445187
22.5238542353
22.4388311757
22.6375407602
23.0587808483
23.5736225574
24.0999449507
24.5827132016
25.0257271448
25.4585128414
25.8861611712
26.2823319302
26.6062544079
26.8206585478
26.907926532
26.8745860714
26.7398832739
26.515970056
26.194193984
25.7435595462
25.1155133652
24.2588077478
23.155806076
21.8622142156
20.502331564
19.1838716793
17.8914356481
16.5645127411
15.4036728587
14.7978688392
14.8337509128
15.1337640073
15.3217036661
15.1435084043
16.7672433744
24.1379868922
25.7648153882
25.7092630128
26.303949987
27.3225267934
26.9484420765
25.9359224802
25.7559764702
26.7705373007
27.9721568895
27.8158632239
27.1955946916
26.1732825943
24.8007677705
10.4861989193
8.92077562972
9.61075433136
13.1688703757
9.04586381867
8.99646989389
8.83270164605
9.09617975555
12.2096908602
10.9297706617
14.5607806328
14.6723829154
14.0758468309
11.5425367007
11.0458764365
12.6465982504
13.0637424482
12.8224214759
13.0584043809
13.7434749212
14.4975134945
15.43364864
16.3183633463
18.022846061
20.1664093247
19.5183138552
21.456943086
22.7215611675
23.3333964381
23.9171422079
23.1644410122
23.1585083781
22.2232332979
22.3503555245
22.8046119298
23.2787411752
23.781347783
24.305989816
24.8170433319
25.3020481642
25.7680045155
26.2125924682
26.615119473
26.9434289125
27.1674588287
27.275991359
27.2815456484
27.2046423386
27.0542795917
26.8189988557
26.4654545158
25.9432571364
25.2093949742
24.2728985206
23.2149295629
22.1288903012
20.981179184
19.5824235296
18.0236695228
16.9173765227
16.7357853371
17.2673378115
17.7638836377
17.8732338111
17.5513449791
16.2059076065
16.1367538575
27.4727590779
30.2420702079
31.1401179762
30.9044395814
29.4176447803
28.4847181704
28.7936028505
29.9801292214
30.3285594191
30.076825331
29.7701495378
30.1021848224
30.2822971771
10.4477830924
9.75002801567
13.0339124894
13.322194347
9.13617680424
9.75030289926
9.5329768367
10.0255394346
11.7025529735
14.4323817627
15.3818821625
14.9345059669
14.3074740642
11.5432264856
11.2007673919
13.1687785345
13.1632488245
12.796901626
13.0867036289
13.8824878392
14.866918153
15.794776491
16.5059841995
17.6545836274
20.3401132155
21.5310171462
21.0700487298
22.8521553969
22.1736194075
23.9488275481
24.2507055377
23.104758085
22.190218602
22.4626586461
23.0027884434
23.5097473957
24.0132528109
24.5364678832
25.0644697924
25.5897652768
26.0991349409
26.5711950304
26.9874621655
27.3256016429
27.5639096517
27.6992708138
27.7507250557
27.740269405
27.6749604409
27.5424438034
27.310578782
26.933403002
26.3839723006
25.697558722
24.95075385
24.1211296048
22.9297920042
21.2296598436
19.7218235562
19.1435159068
19.7187941103
20.7729626315
21.3895013372
21.4160377671
20.7819885531
19.1811950405
16.6705492422
17.3579032305
31.5665296383
36.714193488
35.2356428826
32.6848966364
31.8159446264
32.3380423245
33.178836111
33.5473750515
33.8530748943
34.3439322739
34.9381584298
35.6001723871
10.7864773094
10.6127883656
14.671357533
14.0185514481
12.1037139589
10.9672988476
10.4568153953
11.4866048769
11.1608986662
15.3943763616
16.0249070334
15.2700032148
14.3835012991
12.1519431838
11.9633913117
13.6355628782
13.1833005607
12.8795141874
13.2062971003
13.9286018338
15.0179497399
16.2547822299
17.9645711338
17.7954660109
19.8398307653
21.9121808321
20.956200813
23.1216238419
23.9280124892
23.1129868531
23.3186505185
22.4331677336
22.4854515811
22.7924745441
23.2582634008
23.7652133647
24.2750512441
24.8009271754
25.3331982561
25.8843042039
26.4448265814
26.9633829252
27.4023271839
27.7533446692
28.0112522537
28.1812290061
28.2865470455
28.34990499
28.3784243599
28.3626060706
28.2765509028
28.0894414601
27.8003379401
27.4539992699
27.0495688447
26.3032253287
24.809107571
23.1300154034
22.2988675574
22.6622056803
24.1748197267
25.6319628082
26.3257137658
26.4406913088
25.8153191355
24.0094521881
20.8029832153
16.0471226184
26.3198299664
37.2168408853
40.0779253648
37.1184796738
36.2980531924
36.7556273208
37.4443178855
37.8818978631
38.8404749171
39.5862164352
39.5397205263
39.7463327257
11.3790395047
11.258278114
14.4096872976
14.4985667909
14.5068269153
12.0941068394
11.5129105456
14.3543936757
11.5204153722
16.2531216293
16.5153120384
15.6160333445
14.4612045421
12.7558788516
14.5928438105
14.6939872681
13.3676521573
13.0982241534
13.4590315441
14.074863406
14.9813314338
16.2446487697
19.2608331801
20.2059230259
19.32257577
21.9852093191
22.9134412849
22.6903563616
23.8979877104
24.2440782278
23.6777906094
22.4650721113
22.6916083358
23.126300833
23.5691426541
24.0532869608
24.5542525998
25.0968895617
25.652014504
26.209596294
26.7991910985
27.3734879511
27.8572153916
28.2306834026
28.5122904568
28.7247931101
28.8926618501
29.035010788
29.1602682111
29.2669578808
29.345624446
29.3980271987
29.4548773122
29.5211856771
29.3761694102
28.3788984165
26.7960714418
26.4321486868
27.066621736
28.6650714925
30.9703782265
32.3778127883
32.3249193499
32.0004792133
30.3763531595
27.7391535911
24.3938077667
17.8534161126
17.6027265963
31.868021646
39.0559655179
40.1306298614
38.736739166
40.0670933053
41.3907273438
43.0524592841
44.5293223024
45.0835513245
45.0591877872
45.242742382
12.0309323279
11.9530512414
11.6077810561
14.819309159
15.0334015592
12.854465269
12.4650882748
15.3327841796
12.1671934915
17.1374184193
16.9562967469
15.9761258258
14.6503780415
13.0635287389
15.7539558261
15.2543604031
13.7939074284
13.4911667979
13.8097258727
14.3907673424
15.0698583826
16.1413115904
19.7811031591
21.2780409718
19.668884227
22.0323421102
23.439879266
22.1666106415
23.531110274
23.7900881846
22.6464260443
22.8183621546
23.142096388
23.5109758856
23.9121301578
24.3949493074
24.8896719947
25.4028433519
25.9841797333
26.5855158631
27.1948712701
27.8036709415
28.3379345968
28.752161666
29.069813618
29.3342792024
29.571686033
29.7919322925
30.0080057232
30.2317255721
30.4786928866
30.818980155
31.3086414545
31.8177238486
31.6319665484
30.1219370876
29.6417494211
27.6759080011
25.5943895203
24.9755882514
23.8234701873
18.9137271629
4.8213234795
0.491908969645
0.0390358895558
0.0109956225098
0.129426750256
1.32242179147
13.2049477117
18.1234245951
44.3903903847
49.1525989197
48.6116811251
44.0220824309
40.7922043283
43.7433054558
48.9037547458
50.5146603432
51.8723401153
52.3653107239
12.8625584764
12.9520304079
15.4556794247
15.4547896325
15.4741608147
13.5015723389
13.5020264705
16.1702710674
13.1747883618
17.9017214572
17.3763395028
16.3589702381
14.9206074181
13.4520768838
16.0320648961
15.440446682
14.2189455068
13.9414713003
14.1941747675
14.7083735234
15.3266369783
16.170681399
19.1798870173
22.0938716884
22.2357163951
21.3991918992
23.6571830178
24.4304032247
22.3540521708
22.2387087406
22.5856140835
23.0567482698
23.497331704
23.8974065281
24.3141607236
24.7618639922
25.2555289822
25.7838927597
26.3415777139
26.9753347576
27.6348560549
28.2767361622
28.8480710771
29.3074942077
29.6795090019
30.0098991742
30.3227149754
30.6219998353
30.9094646104
31.2084022124
31.6097434846
32.2754422597
33.2572563448
34.1001079548
33.4824996763
30.1558901554
21.447664645
0.00163496775989
1.79829498951e-06
3.37116024076e-08
5.71434762895e-10
1.65330254904e-12
4.69832494886e-15
8.1327115595e-20
6.36143111104e-20
1.54440919007e-19
1.04105389995e-18
4.87623834458e-18
1.80128487855e-17
1.1446883907e-16
8.96265457004e-17
7.77559013e-15
4.42561000499e-12
4.44868240141e-10
3.37579844632e-08
7.77364809275e-06
0.130854959263
53.542298386
58.0396509472
59.7756485109
13.6435207846
13.8339055152
17.0681842547
16.1139960584
15.5734106979
14.1567249071
14.5090788503
16.8738351201
16.8469341711
18.8494379801
17.8560923517
16.8333439982
15.2735388434
13.9864357181
16.3274923077
15.5675127879
14.6301745744
14.4009629964
14.5831626745
15.0172253883
15.6053699911
16.4207589446
18.6562633363
22.3574634423
23.6129450454
21.1099736944
23.1917651642
24.4905475644
24.1960487012
22.6992189153
22.683676407
23.2850314342
23.8608449508
24.3347215188
24.7035407739
25.1580291829
25.6417317514
26.1862757055
26.7601601971
27.3989673052
28.1032842968
28.7968338051
29.3969498384
29.8836050298
30.3192774987
30.766804195
31.1949178518
31.545627128
31.8049988342
32.1229695317
32.684254211
33.6453771724
35.0803090545
36.1708752665
29.0573263275
0.00241973506699
9.04121920515e-10
3.66125746276e-12
1.05877639047e-13
1.54138434229e-15
1.25234220556e-18
2.08965298387e-21
1.47300597843e-22
0
0
0
0
0
0
0
0
2.04870011679e-26
6.90984136429e-24
1.03356498579e-21
5.99641305756e-19
8.37551742041e-16
4.53555674514e-11
6.88779044853e-07
5.36998526005
61.9814151985
14.2821250369
14.4945750695
19.2260821972
16.6221128308
15.4204586038
14.7394009303
15.2314658536
16.91594689
18.4369809607
19.9419227564
18.4926604188
17.4413193714
15.8759731408
14.8158712444
16.8297431503
15.8492535962
15.1217752419
14.9111574413
15.0122309738
15.3629299735
15.8816626418
16.6378372225
18.4445569327
22.2347886102
24.6080849394
23.8128319502
22.6727875322
23.8598706049
23.9286211958
22.6655947559
23.1397474617
23.7725147698
24.3968857656
24.8261516823
25.2115074074
25.5899681894
26.0859286577
26.6173731405
27.2157614227
27.8734996088
28.5964677922
29.3432713809
30.0195702063
30.5346369631
31.0221569726
31.5941864083
32.1506884203
32.5157773863
32.7023019851
33.0049672612
33.6640605201
34.7252100122
36.2879399309
29.5077634788
5.98719561397e-06
1.30896128388e-12
4.29282307841e-16
1.73584035742e-17
2.36676607279e-19
6.49031579033e-22
0
0
0
0
0
0
0
0
0
0
0
0
0
2.63974986647e-25
2.62316557589e-24
5.75054730057e-23
2.78836086731e-21
1.54844077221e-17
1.28886574693e-08
2.48449676711e-13
14.7811393421
14.9826757497
21.2913586929
17.0112222899
15.5290451778
15.2831717648
16.0374551683
16.2567082393
19.3893309454
20.7243750554
19.112360606
18.0654641422
16.680024409
16.7165325366
17.5317159102
16.3737122995
15.8101852537
15.6194191867
15.5499329602
15.7961816252
16.2112628186
16.8911635358
18.4258486081
22.1002890988
25.024272511
25.4659337681
22.4192239771
22.7520225625
22.6321212921
22.7894231178
23.4479066093
24.2766915382
24.9011018445
25.3585817867
25.7599237912
26.2171507044
26.5951989186
27.1163513223
27.7129245607
28.370664794
29.159430169
29.9714827071
30.6926073666
31.1756752184
31.6662163051
32.8790915006
34.5242331612
35.0569909868
34.1735083128
34.1986079409
34.8009635573
35.8484753749
27.976221262
6.92678900203e-07
1.04395783998e-11
4.68335900981e-23
4.73259229792e-20
7.72228640972e-22
0
0
0
0
0
0
0
0
0
0
0
0
0
0
0
0
0
0
4.07833078361e-24
2.76177824502e-23
5.09294806024e-21
94.1221624551
15.2213119139
15.3888700096
21.119545871
16.4284947943
15.7279877828
15.7546955946
16.9541143785
16.2453873261
20.1937881828
21.4560503097
19.7053483168
18.6476471458
17.3035588833
18.9567516793
18.5140176587
17.1030713564
16.6040282172
16.6954828315
16.3108746571
16.3991355858
16.6407538198
17.1845333049
18.5502638028
21.9526183927
24.8978545135
26.5745797146
25.1819709621
24.1519010824
23.6580111314
23.0614472275
23.7596246803
24.9332711081
25.3507923812
25.8920372115
26.5670656749
26.8242627877
27.2013309746
27.7227561223
28.3311804901
28.988169997
29.7204359268
30.5819549781
31.4394671315
32.3373224567
33.4301434673
35.0122831121
36.2738399816
36.1978870588
36.0670969199
36.6064897458
37.6150022848
32.0889968863
3.15003336058e-06
2.87535141811e-11
3.7791389792e-15
5.13279508847e-17
0
0
0
0
0
0
0
0
0
0
0
0
0
0
0
0
0
0
0
0
0
0
1.25489580752e-23
9.13380458748e-13
15.7336602098
15.8788293207
20.7499182682
16.0911726068
16.0251592058
16.1400143777
17.7417898408
16.7094539582
20.890684647
22.1753105409
20.2982872748
19.2367183644
17.8305485653
19.7058396967
19.4255898817
17.9063083228
17.3864457905
17.5890977358
17.2233511191
17.2246201023
17.2733132242
17.5246277139
18.8357831832
21.9352588295
24.6257360968
26.9116249769
26.3943716871
24.6623232521
23.0392614924
23.5821701655
24.3009341184
25.4343426864
26.244957762
26.903227203
27.4145664294
27.5363602027
27.890717846
28.4254034874
29.0437635625
29.7286617316
30.4629680842
31.3996681059
32.5977318847
34.148815598
35.1896573753
35.5423340554
36.1880784822
36.6359722885
38.2947665151
40.4445686537
38.419807794
2.87029296668e-05
3.81120109506e-11
6.57222088889e-15
1.34799634954e-17
3.26375846371e-19
1.09553293154e-21
0
0
0
0
0
0
0
0
0
0
0
0
0
0
0
0
0
0
0
0
0
2.1088946103e-24
2.79026019147e-24
16.493309408
16.6389224567
20.4134322894
16.3780189481
16.5932489383
16.6270883861
17.7415245057
17.4433567208
21.3907064764
22.8602679006
20.9285143862
19.8789496017
18.4817657347
20.3922536183
20.2516425198
18.8056239079
18.2329223764
18.462948805
18.1133371207
18.1976082176
18.1850659637
18.0268421828
19.3161874484
22.1071203035
24.5022959977
27.011499382
26.9444316102
25.3725429305
23.5257730259
23.8184748713
24.9524139756
25.5837805374
26.2577256448
27.1338553352
28.360644068
28.5845730812
28.8497637515
29.2337987417
29.8095828428
30.5708709794
31.4160039916
32.483793146
34.4332611648
36.1972284224
36.3845452948
36.5419059176
37.6437062285
40.6376693827
44.588697238
42.8184772931
8.2005163977e-06
1.3622497553e-12
5.6373080446e-17
1.84828829851e-20
1.15970178622e-22
2.35062153813e-22
3.60967754388e-23
0
0
0
0
0
0
0
0
0
0
0
0
0
0
0
0
0
0
0
0
0
1.55874589865e-25
7.07780710618e-25
17.6384518318
17.7426365648
20.6983901081
17.3296881354
17.7702719833
17.4905615502
18.0473561595
18.7819811402
21.4289138169
23.3735119624
21.6254610816
20.5959518427
19.2435288992
21.1729778697
21.106860567
19.8712801681
19.2692858768
19.4876778909
19.0116090067
19.2708575358
19.4167048476
18.7624936324
19.8645223182
22.4685669888
24.5697652533
26.8758130118
27.19602165
26.0108007444
25.5885780329
24.7037313957
25.384979104
26.4528682407
27.7309506008
27.7373831011
28.5912668636
29.6444521402
29.9162459791
30.3801125851
30.8431193191
31.5013975
32.4885169481
34.4300699156
37.1370990647
38.0120824356
37.7631224071
38.900934598
43.3768495895
49.9372699252
48.7708018699
2.94973974694e-07
2.06388191332e-14
1.92691518147e-19
1.31845888827e-21
0
0
0
0
0
0
0
0
0
0
0
0
0
0
0
0
0
0
0
0
0
0
0
0
0
0
0
19.2386382409
19.1061122189
21.5133226491
19.2443419662
19.7525783585
18.7692850328
18.9959144288
20.7209314117
21.6452287068
23.9967185973
22.443270109
21.398362313
20.0919783942
21.9918619503
21.9578815054
21.0472122959
20.7929214998
20.8292748235
20.0028306507
20.4439140232
20.9551568744
19.8217707388
20.2946637844
22.9161956332
24.834965735
26.7542396773
27.3843223858
26.1700049456
26.7895184678
26.3185105122
26.48696762
26.1645617961
27.428502904
29.0224572373
29.5705473532
30.3709651434
30.9855791954
31.4721606311
32.0932283634
32.7708300655
34.2723259972
37.4958564374
39.7671222389
40.082270629
40.7459362471
44.6244507098
52.8755604534
51.5621473667
4.18414182728e-09
1.84184397545e-16
3.21993202043e-19
1.47436581697e-21
0
0
0
0
0
0
0
0
0
0
0
0
0
0
0
0
0
0
0
0
0
0
0
0
0
0
0
0
20.9361602723
20.3918835902
22.4023661984
21.784536597
21.4890300594
20.2575711326
20.0483543158
21.8768206244
20.8798045607
24.4846901303
23.3643435158
22.2786610605
21.018263009
22.8253898833
22.7504225355
22.0318101893
22.911509261
22.4493457503
21.1214303485
21.7453786291
22.3229985803
21.1880305922
20.4620601321
22.9258143963
25.0309449257
26.6727459909
27.4660684577
26.2714671135
27.1901110009
27.6281735519
27.8568984147
26.9634430792
27.7175359557
28.9504469137
30.5261713795
31.6207570451
32.2918050513
32.7406031422
33.3347742379
34.4928015876
37.4752234914
40.9369994784
42.6174670455
43.4550411578
45.9896769211
51.817519567
49.0956568534
20.5535347973
4.95932445236e-16
7.17966846765e-19
2.51445840525e-21
0
0
0
0
0
0
0
0
0
0
0
0
0
0
0
0
0
0
0
0
0
0
0
0
0
0
0
0
0
21.792211297
21.3055317597
22.9816843388
22.8608139897
22.5839395604
21.6734162006
21.2692521467
23.2820277976
21.9463145763
25.1079851487
24.296927607
23.2058751014
22.0176147896
23.6918161367
23.5579698132
22.8624863776
23.9020737234
23.5791075734
22.2189627342
23.0358766621
23.088057793
22.0276845238
21.5238490779
21.7477744593
24.5598963359
26.2078139011
27.2816860177
26.2724233233
27.2874296264
28.1979532238
28.9838178938
28.831153297
28.0722796712
29.0380398403
30.7969579675
32.5287688733
33.7166500369
34.4349865937
35.0396715467
37.5067516197
41.4388468663
44.443424824
45.8540909041
47.5283461824
51.3795590096
45.2602626374
19.8177898285
2.61993898645e-15
2.36004180672e-18
6.72152124714e-21
0
0
0
0
0
0
0
0
0
0
0
0
0
0
0
0
0
0
0
0
0
0
0
0
0
0
0
0
0
0
21.921849502
21.8969732068
23.3532653525
23.1160639069
23.2970566616
22.784011506
22.34216562
24.6657913009
23.6631644152
25.9129191223
25.2908586316
24.167046155
23.0852804955
24.6063471316
24.4381606936
23.8274379595
24.7327619257
24.571419426
23.3744433071
24.0896388395
22.9172569109
22.8131678677
22.5962029378
22.8691962496
23.7112084375
24.7154338792
26.4843475308
26.1137773036
26.8853587845
28.2666617438
29.478792545
30.2241508809
29.6465304136
29.8670659874
31.0243970788
32.7259455405
34.6405924351
36.2082867551
37.674431091
41.3916990201
45.3136750037
47.725645441
48.7272448606
50.2516238123
44.741615809
23.8820936939
7.07931871101
8.1977367007e-18
1.83636970731e-20
0
0
0
0
0
0
0
0
0
0
0
0
0
0
0
0
0
0
0
0
0
0
0
0
0
0
0
0
0
0
0
22.2183776022
22.332425037
23.6874016496
22.2883676982
23.628084895
23.4185567387
23.0812240325
25.3186266627
24.5564160682
26.742627736
26.3267798573
25.1339370859
24.228318891
25.5563203086
25.3638730819
24.9280334868
25.6528741869
25.673811065
24.6522981107
25.5221708477
24.2928708389
24.4764159356
23.8793535323
24.1837444585
25.5423003481
26.1699216034
26.1633402687
25.8913938762
26.4590009089
28.2503618843
29.5256827196
30.5213479224
31.0448428241
31.0083730086
32.4279075061
33.5159970831
35.4150121609
37.88235923
40.978310259
45.4190906694
48.8593524482
50.3336135579
49.2431189897
44.6187931906
36.8576352081
24.5182702078
6.87893574837e-17
1.56602338366e-19
0
0
0
0
0
0
0
0
0
0
0
0
0
0
0
0
0
0
0
0
0
0
0
0
0
0
0
0
0
0
0
0
22.969664577
23.0480270946
24.0469403855
22.7467748763
23.9262845668
23.79302061
23.6180399366
25.5717098441
25.1956775336
27.3721651707
27.3441096915
26.0479594187
25.4332782957
26.4973634596
26.2554729611
25.9974902409
26.5425776521
26.8616126938
25.9759614958
26.9656465234
26.0881403715
26.5604442629
26.3269543302
25.1956809162
26.3158219969
27.2938310472
27.4250965616
25.7804759612
25.9706223679
28.1950740726
29.7150745245
30.2296929983
30.9069005371
31.4041733013
32.8277974231
34.2066672472
36.3212584998
39.6087860544
44.4706999336
49.4765751495
52.1334504978
51.8951865023
48.1830399222
41.0429489372
25.3125838345
7.82139984268e-16
1.09126665847e-18
4.42511056192e-21
0
0
0
0
0
0
0
0
0
0
0
0
0
0
0
0
0
0
0
0
0
0
0
0
0
0
0
0
0
0
0
0
23.9109113321
24.9188763055
24.5615872048
23.7569431268
24.5068055494
24.227964374
24.1377115892
25.7968863769
25.7808242259
27.6620427276
28.3303503017
26.8703954613
26.5068919947
27.2790757963
27.1019904205
26.8193603267
26.8920198378
27.9461771298
27.3632949694
28.2316253108
28.0536400555
27.9231999792
27.7735923454
27.3932827934
26.7056954079
27.4770723138
28.4134531761
25.3695416352
25.5395175421
27.5739440348
29.8071063666
30.8358597604
31.6895699435
31.5033524578
32.7687052757
34.5275155521
36.9008365257
41.2258626112
47.9217286249
53.3143683081
54.7664583199
49.9400339748
46.5573236898
40.9588057176
27.3996974167
7.39670440191e-18
1.88781687377e-20
0
0
0
0
0
0
0
0
0
0
0
0
0
0
0
0
0
0
0
0
0
0
0
0
0
0
0
0
0
0
0
0
0
24.6366057922
25.6798253132
25.3103561576
24.6753341554
25.2448303648
24.8371980175
24.7246587173
26.1020201585
26.3484480141
27.6938555988
29.2114893684
27.6596261094
27.1771690485
27.9322458776
28.0133593162
27.5690991991
27.1827444604
28.7299348202
28.781081055
29.340651731
29.4158156646
29.5675133851
28.4059548211
28.3960236852
27.9484761417
29.1209784068
29.7884837551
27.1901511429
25.2015271064
26.6581982957
29.1942374479
31.0723597858
32.0008988266
32.1438289934
32.5314835613
34.4243452092
36.9469233185
42.497127281
51.1892564712
57.1690112959
55.6590077401
49.2627069748