/*--------------------------------*- C++ -*----------------------------------*\
| =========                 |                                                 |
| \\      /  F ield         | OpenFOAM: The Open Source CFD Toolbox           |
|  \\    /   O peration     | Version:  v1806                                 |
|   \\  /    A nd           | Web:      www.OpenFOAM.com                      |
|    \\/     M anipulation  |                                                 |
\*---------------------------------------------------------------------------*/
FoamFile
{
    version     2.0;
    format      ascii;
    class       surfaceScalarField;
    location    "39";
    object      phia;
}
// * * * * * * * * * * * * * * * * * * * * * * * * * * * * * * * * * * * * * //

dimensions      [0 3 -1 0 0 0 0];
oriented        oriented;


internalField   nonuniform List<scalar> 
12640
(
7.35006385062e-07
-6.86802401794e-07
1.47797487115e-06
-6.97363916938e-07
2.22075837228e-06
-7.03838068595e-07
2.91138509603e-06
-6.52109709209e-07
3.37542532305e-06
-4.25718084166e-07
3.47810027803e-06
-6.51747776618e-08
3.3499189631e-06
1.62895887448e-07
3.47090475661e-06
-8.77418165911e-08
3.93791534454e-06
-4.29843905349e-07
4.35653259507e-06
-3.81827623187e-07
4.74758222136e-06
-3.58901602582e-07
5.40846158206e-06
-6.26460533733e-07
6.04649083828e-06
-6.00554038831e-07
6.43710667792e-06
-3.52395377871e-07
6.63547329995e-06
-1.6135536004e-07
7.00113263065e-06
-3.29411971369e-07
7.47438166781e-06
-4.33400263379e-07
7.75694330294e-06
-2.41770795645e-07
7.7261269177e-06
7.09641602057e-08
7.37742699632e-06
3.92127054409e-07
7.07646528891e-06
3.49148291523e-07
7.00447717279e-06
1.24659747383e-07
7.08684929256e-06
-2.26037953377e-08
7.40351548925e-06
-2.53021105275e-07
7.77405032179e-06
-3.09286008443e-07
8.05428509562e-06
-2.14078997232e-07
8.49623155313e-06
-3.67014444294e-07
8.99127878492e-06
-4.12718650439e-07
9.34432065695e-06
-2.65225903561e-07
9.4638489965e-06
-3.32972636722e-08
9.67095314151e-06
-1.18102672221e-07
9.91467873147e-06
-1.55521540434e-07
9.72024497448e-06
2.87864147037e-07
9.29540331778e-06
5.16452522864e-07
8.64872672604e-06
7.40593025347e-07
7.7000530731e-06
1.04450486386e-06
6.62169491553e-06
1.16908284118e-06
5.61630428494e-06
1.09458769443e-06
4.68905605459e-06
1.03056279262e-06
3.75382513076e-06
1.09426212357e-06
3.27435999683e-06
6.93093487453e-07
3.25460880743e-06
2.27957522826e-07
2.93469931564e-06
5.29597532425e-07
2.57345182968e-06
5.64076245076e-07
2.37728170989e-06
3.90173605938e-07
2.12395892119e-06
4.39783471581e-07
1.73956164353e-06
5.55415915314e-07
1.25410276819e-06
6.43688011482e-07
7.03310654786e-07
6.94821905551e-07
2.49459394842e-07
5.84515614373e-07
2.43931010549e-07
1.58595621784e-07
6.31519356106e-07
-2.03837722571e-07
6.30662947493e-07
1.90053627533e-07
1.30830459795e-07
7.10406558793e-07
-2.16653888237e-07
4.74488766219e-07
-2.08779289376e-07
7.18086390351e-08
-1.12683118015e-07
8.63595744072e-08
-2.50673283473e-07
4.41674233932e-07
-4.06918153106e-07
5.29759336717e-07
-4.91142239273e-07
4.55097366848e-07
-7.80015672882e-07
5.59562974016e-07
-9.54281608738e-07
3.22496954822e-07
-8.84967316869e-07
9.48395465758e-08
-7.94464276397e-07
1.15631823077e-08
-7.3058239138e-07
-3.55247637764e-09
-6.85489033731e-07
-2.86363129218e-09
-6.44650652489e-07
-3.46707379051e-09
-6.08658326545e-07
4.16639960774e-09
-5.79796551384e-07
1.70312280355e-08
-5.57445891311e-07
2.90855172433e-08
-5.39948704091e-07
3.65397201496e-08
-5.2271845881e-07
3.52293515433e-08
-4.96451211936e-07
2.37368414462e-08
-4.52084464065e-07
3.80808745803e-09
-4.00920862464e-07
-6.78491223032e-09
-3.43387281947e-07
-1.53321785603e-08
-2.89487044325e-07
-8.91491237992e-09
-2.12635008623e-07
-3.17567856276e-08
-1.15067097048e-07
-3.70566345019e-08
-6.48229031548e-08
3.39823696108e-07
-9.98905744536e-07
7.75575827124e-07
-1.10192994413e-06
1.211825343e-06
-1.11309636234e-06
1.70634718145e-06
-1.12257194493e-06
2.56205638244e-06
-1.25266146658e-06
3.45007854297e-06
-9.1817342957e-07
4.03638476566e-06
-3.84162565866e-07
4.43800435317e-06
-4.46542188229e-07
4.80270937677e-06
-7.51658100799e-07
5.27104524597e-06
-8.08507014824e-07
5.76679070591e-06
-8.15191676183e-07
6.0639033002e-06
-8.8564799322e-07
6.30719939321e-06
-8.07266725005e-07
6.62872468185e-06
-6.36570438581e-07
6.98271546958e-06
-4.77463977384e-07
7.31433892109e-06
-6.2063757822e-07
7.36349036515e-06
-4.47589091092e-07
6.73656492159e-06
4.19142091709e-07
6.14549454967e-06
6.93129141351e-07
5.94446180632e-06
6.28416733113e-07
5.92434060568e-06
4.13292325912e-07
6.43541026201e-06
-3.28924890754e-07
7.19161426629e-06
-7.17757275062e-07
7.41535103593e-06
-4.12617605719e-07
7.66321180589e-06
-4.94257093504e-07
8.47903064777e-06
-9.56972173862e-07
9.05719870139e-06
-8.67053917059e-07
9.26626765883e-06
-5.37295518455e-07
9.32334490727e-06
-2.38601338347e-07
9.28970440638e-06
8.66307767701e-08
8.93085382319e-06
3.23525448523e-07
8.45451903993e-06
3.93943252821e-07
7.86339293331e-06
9.53673820306e-07
7.12217586636e-06
1.33629136329e-06
6.95200701287e-06
9.78490927745e-07
6.27870590868e-06
1.80053357867e-06
5.24497295459e-06
2.29315879897e-06
4.77680801024e-06
1.64338052581e-06
4.52179874557e-06
1.41825690743e-06
3.78325911003e-06
1.99646874626e-06
2.58627129672e-06
2.110713017e-06
1.4594714066e-06
1.56835379641e-06
1.14703185193e-06
1.13056726016e-06
1.06012562654e-06
1.06452899048e-06
1.22418113811e-06
5.8448873219e-07
1.36122690795e-06
6.30157909293e-07
1.43242882682e-06
8.02258425455e-07
1.41492890664e-06
9.79876569407e-07
1.11257051805e-06
1.31891152153e-06
5.32613349691e-07
1.49777780015e-06
3.99485082379e-07
6.54710759468e-07
6.52658621695e-07
-2.39521328395e-07
7.37941075042e-07
2.483000418e-07
2.91496950495e-07
1.30435060753e-06
-2.68517675284e-07
1.14021624945e-06
-4.60996649444e-07
4.92977131472e-07
-1.81501324014e-07
4.83342543403e-07
-4.80174500111e-07
1.76471483089e-06
-1.71537330507e-06
2.90554042055e-06
-2.45147290025e-06
2.15439688942e-06
-1.75566977779e-06
4.23585801173e-07
-1.0816457955e-06
-1.25496416625e-07
-8.67299304418e-07
9.55587275354e-08
-8.03862300591e-07
5.15247699264e-08
-7.14283860651e-07
-3.41005354348e-08
-6.35880992106e-07
-4.10470142075e-08
-5.95175550757e-07
-8.06411924121e-09
-5.74481954456e-07
2.27853083784e-08
-5.55698180451e-07
4.30772268293e-08
-5.36894634994e-07
6.0553343711e-08
-5.17560103651e-07
6.9249667487e-08
-4.96451571245e-07
6.40202642597e-08
-4.81439944635e-07
5.71685462922e-08
-4.72827671322e-07
4.49060923483e-08
-4.51845204731e-07
2.14313268962e-08
-4.16969724632e-07
-4.53346202006e-10
-3.54772215356e-07
-2.05078474172e-08
-2.69634313702e-07
-5.91743859382e-08
-1.36358426032e-07
-9.87366322933e-08
-1.53485425756e-07
4.73944539037e-07
-1.44829525954e-06
6.32377772361e-07
-1.23237858476e-06
1.36351981168e-06
-1.81477587998e-06
2.40271701596e-06
-2.12910423102e-06
3.275328884e-06
-2.09244165963e-06
3.58360438639e-06
-1.19863770003e-06
3.71284097942e-06
-4.81437721509e-07
4.12674351567e-06
-8.20930396323e-07
4.66838777542e-06
-1.25007901781e-06
5.22160575776e-06
-1.31983650134e-06
5.7161414459e-06
-1.2706343756e-06
6.0540020466e-06
-1.18711321185e-06
6.29585341952e-06
-1.0134350746e-06
6.51406096491e-06
-8.19339381239e-07
6.41926127497e-06
-3.48247482197e-07
5.2780810384e-06
5.49892799333e-07
3.97139760479e-06
8.79427940413e-07
3.62371997713e-06
7.86244728258e-07
3.71312299889e-06
6.26955477115e-07
4.42324590383e-06
-4.60165619101e-08
5.69116104251e-06
-8.02970279631e-07
6.32332145281e-06
-9.01104446212e-07
6.5468843781e-06
-8.82900868374e-07
7.45566679355e-06
-1.25676862257e-06
8.42447344859e-06
-1.39142865685e-06
8.77270073204e-06
-1.23315434723e-06
8.80421785472e-06
-8.23859187233e-07
8.80598248758e-06
-4.62361435016e-07
8.61646761311e-06
2.88038460551e-08
8.47133494373e-06
3.08576117582e-07
8.14172337307e-06
7.24174229439e-07
7.53504039738e-06
1.06756119278e-06
7.48572820819e-06
1.06565007487e-06
6.56506121586e-06
2.32315633661e-06
5.32798533159e-06
2.28266755322e-06
5.43915231689e-06
1.76526060218e-06
4.81551683916e-06
3.01767976837e-06
3.61965340342e-06
2.97363267564e-06
4.32442051316e-06
9.01084361764e-07
7.09239423262e-06
-4.79333016677e-07
1.54981249843e-05
-5.55866930495e-06
2.9134708617e-05
-1.12403515181e-05
4.72167859711e-05
-1.59221793957e-05
6.55359436338e-05
-1.60781560619e-05
7.79415811327e-05
-1.07807725292e-05
8.62782414282e-05
-6.73890805769e-06
9.00021011783e-05
-1.98465945714e-06
8.82583024427e-05
3.64945346932e-06
8.00575897513e-05
1.04447632929e-05
6.53589913777e-05
1.71790279042e-05
4.58752473499e-05
2.10413129777e-05
2.59597362508e-05
2.02105911194e-05
1.06274085169e-05
1.5918277106e-05
2.98990763262e-06
9.2248993557e-06
2.69325924721e-07
4.20187352975e-06
1.01507714625e-08
1.30923848428e-06
6.34516167712e-07
5.88724516325e-07
-1.33433208207e-07
3.32371402436e-06
-5.38563101813e-07
4.05353794632e-06
-7.62679809198e-07
2.9700120057e-06
-1.5240024213e-06
1.65477668751e-06
-1.72352429452e-06
4.81731424294e-07
-1.11801786797e-06
-2.44851470739e-07
-7.75950390116e-07
-1.99387857674e-07
-6.40567346413e-07
-1.14359631284e-07
-5.99406113969e-07
-4.26006988912e-08
-5.64110755649e-07
-8.17392879853e-09
-5.27327529601e-07
2.20707213199e-08
-4.9753472157e-07
5.364589752e-08
-4.77918066037e-07
8.59103990293e-08
-4.76049989947e-07
1.14294723508e-07
-4.95770991131e-07
1.31828815205e-07
-5.18660113451e-07
1.29798313868e-07
-5.16694847692e-07
9.23065620544e-08
-4.87643209025e-07
4.08986824739e-08
-4.42919502386e-07
3.98426241932e-09
-3.8331770175e-07
-2.87539104451e-08
-2.9889575917e-07
-9.38091163291e-08
-1.2840657866e-07
-2.02968456678e-07
-2.56733897677e-07
3.14606854684e-07
-1.73645162503e-06
3.35299013567e-07
-1.23497942935e-06
1.41002270618e-06
-2.85657952607e-06
2.12786490636e-06
-2.81376977248e-06
1.7556271705e-06
-1.69893842739e-06
1.15288371931e-06
-5.86896883337e-07
1.64079818805e-06
-9.53780826388e-07
3.02588126499e-06
-2.17203954826e-06
4.22837161777e-06
-2.41069403616e-06
4.99961866374e-06
-2.05158463642e-06
5.62007161975e-06
-1.85344389281e-06
5.99275974848e-06
-1.52501696184e-06
5.87125528046e-06
-8.61223982134e-07
4.96785305353e-06
1.09512557853e-07
3.85388923772e-06
7.85702405129e-07
3.46451257417e-06
9.58909014418e-07
3.5039450025e-06
8.59924849169e-07
3.92934501238e-06
3.86291986323e-07
5.10918144528e-06
-5.12997450092e-07
6.12140496922e-06
-1.00756798909e-06
6.425382514e-06
-1.05101952779e-06
6.92091207047e-06
-1.3337976071e-06
7.7334179984e-06
-1.62670988359e-06
8.21109543132e-06
-1.66453186067e-06
8.37338566795e-06
-1.48709995727e-06
8.30532263967e-06
-1.09789287877e-06
8.35512718153e-06
-8.06864315269e-07
8.24274843797e-06
-2.7856187868e-07
8.22643283176e-06
1.15126370284e-07
7.97266349618e-06
6.31476221422e-07
7.76289617727e-06
9.99526890357e-07
7.52742182825e-06
1.35924089052e-06
6.43273864945e-06
2.21459498702e-06
6.47985854242e-06
2.34727607323e-06
6.11330646666e-06
2.73021338191e-06
5.17969112387e-06
2.80996200878e-06
6.49999303929e-06
1.8593280683e-06
1.07331363221e-05
-9.72681998771e-07
1.96806996435e-05
-7.51562708326e-06
3.97620259e-05
-1.96980609381e-05
6.77054381342e-05
-3.23714270777e-05
8.23397819407e-05
-2.50611195088e-05
9.00736804734e-05
-2.29984338255e-05
9.61838509632e-05
-2.16024246625e-05
0.000103500254729
-1.75518263249e-05
0.000109090921323
-1.18051285292e-05
0.000111781195083
-4.15713519842e-06
0.000111165121382
4.77786608168e-06
0.00010800504656
1.41018849783e-05
0.000102994890516
2.26758042492e-05
9.53269990767e-05
2.92015381628e-05
8.30736325152e-05
3.29936650864e-05
6.6811717774e-05
3.27787033616e-05
4.69077998368e-05
2.98585663065e-05
2.69134469501e-05
2.51041053214e-05
1.20436341982e-05
1.714456752e-05
3.85971082389e-06
9.4255855832e-06
1.16996114399e-07
7.52096235871e-06
-1.00481871853e-06
5.53558986645e-06
-1.21077193684e-06
3.49693477515e-06
-1.22105871589e-06
1.97564551578e-06
-1.19419220885e-06
7.30955950793e-07
-1.04838113413e-06
-2.09911352827e-07
-7.87863615803e-07
-3.48618890481e-07
-6.34974207153e-07
-2.07045652752e-07
-5.45214575071e-07
-9.46730139613e-08
-4.9241987599e-07
-2.97010253502e-08
-4.60346434204e-07
2.20771556571e-08
-4.44093326433e-07
7.31087341715e-08
-4.48104725969e-07
1.30760351006e-07
-4.76486670586e-07
1.88529891818e-07
-5.09438217357e-07
2.12594182152e-07
-5.1133918885e-07
1.76813743197e-07
-4.91844828195e-07
1.15255987593e-07
-4.69101120156e-07
6.15453978411e-08
-4.20982851863e-07
1.4310051302e-09
-3.28807452497e-07
-8.23520041055e-08
-2.26990278918e-07
-1.58847878072e-07
-1.123087037e-07
-2.82607098295e-07
-3.42128446285e-07
5.77011918871e-09
-1.73129181397e-06
3.46574863602e-07
-1.55831730893e-06
1.30148083746e-06
-3.78268571563e-06
1.47289440782e-06
-2.96305687086e-06
1.04610063271e-06
-1.25990074084e-06
1.2399762223e-06
-7.7028777146e-07
2.29195081222e-06
-1.98269982279e-06
3.47945624759e-06
-3.3234476127e-06
4.17039145362e-06
-3.0636395893e-06
4.75287005498e-06
-2.59798633462e-06
5.13283281365e-06
-2.20054773125e-06
4.80016426864e-06
-1.16723661153e-06
3.9288863504e-06
2.79556888783e-08
3.49497561542e-06
5.59585783464e-07
3.58487966419e-06
7.15285538377e-07
3.93274518202e-06
6.33317106726e-07
4.66312663222e-06
1.5940887048e-07
5.81363093537e-06
-7.20710833209e-07
6.27407788453e-06
-9.25241308448e-07
6.12117771445e-06
-8.05381426421e-07
6.58399908868e-06
-1.45519896714e-06
7.31517025777e-06
-1.99735826949e-06
7.79458748771e-06
-2.03881847172e-06
7.92362056468e-06
-1.73037827457e-06
7.91905715793e-06
-1.41861519443e-06
8.07232169017e-06
-1.1907208754e-06
7.84282447315e-06
-5.13927744705e-07
7.80885211911e-06
-1.82660495509e-07
7.63593107295e-06
3.52102704636e-07
7.54702088939e-06
7.81386303252e-07
7.3971781659e-06
1.20505831419e-06
7.16166557412e-06
1.64490345986e-06
7.96018409419e-06
1.47863881039e-06
7.3217815504e-06
3.07696361266e-06
7.14881962572e-06
3.03886618475e-06
8.16034672809e-06
1.9891397275e-06
1.15135980272e-05
-1.2433482528e-06
3.24522112057e-05
-2.12206713332e-05
6.40801849425e-05
-3.83259277881e-05
8.43734099152e-05
-3.92239322855e-05
8.89174586232e-05
-3.63983724518e-05
9.41157960328e-05
-2.98531822009e-05
9.8690733454e-05
-2.72148410654e-05
0.000101992956488
-2.45649039255e-05
0.000104160212964
-1.9384818576e-05
0.000104156916142
-1.14667130041e-05
0.000101730039616
-1.38819764036e-06
9.7218969965e-05
9.63554826561e-06
9.16170932415e-05
2.00398064799e-05
8.5771122923e-05
2.88478893352e-05
7.97116894925e-05
3.55855754611e-05
7.29657600583e-05
4.00722214005e-05
6.38624233142e-05
4.22356492557e-05
5.18015593939e-05
4.23004379336e-05
3.75988488324e-05
3.97590139117e-05
2.22280451556e-05
3.29872660407e-05
9.68843134166e-06
2.23473390988e-05
2.03657690828e-06
1.54957461322e-05
-1.69725518492e-06
9.59733898016e-06
-2.16377608814e-06
4.2330838393e-06
-1.81396864843e-06
1.83822081973e-06
-1.52195710325e-06
6.11397148573e-07
-1.21419643737e-06
-3.46042159451e-07
-7.67499006164e-07
-6.80005518965e-07
-6.24318479088e-07
-2.87441241054e-07
-5.11491360669e-07
-1.65180409072e-07
-4.31343928196e-07
-7.81042999798e-08
-3.85371287919e-07
5.20012766161e-09
-3.71947402212e-07
9.1559391473e-08
-3.9423967724e-07
1.90848055748e-07
-4.41347092112e-07
2.7835153922e-07
-4.68806554181e-07
2.81657855901e-07
-4.76705210292e-07
2.22749987478e-07
-4.87380638711e-07
1.64289097071e-07
-4.77454839798e-07
9.23893757758e-08
-4.20174263714e-07
-1.6410347203e-08
-3.3615164856e-07
-1.33044976636e-07
-2.4180025679e-07
-2.27200370737e-07
-1.09023221689e-07
-3.70295810153e-07
-4.36410588994e-07
7.89515573155e-09
-1.72781281771e-06
5.67489721718e-07
-2.10398832285e-06
9.72916063703e-07
-4.16422991023e-06
9.7355096137e-07
-2.94640009588e-06
8.24955794416e-07
-1.10273937999e-06
1.58297739997e-06
-1.51315227498e-06
2.99811103111e-06
-3.36818499181e-06
3.66496531471e-06
-3.95495572346e-06
4.02798530131e-06
-3.39520632146e-06
4.09095324212e-06
-2.63080819989e-06
3.63356082729e-06
-1.71905609706e-06
2.91768182663e-06
-4.38339320008e-07
2.80936307355e-06
1.4874859629e-07
3.06826746297e-06
3.16616214856e-07
3.52349678853e-06
2.80297979534e-07
4.39949954606e-06
-2.12952939316e-07
5.65453031951e-06
-1.05317351694e-06
5.92953454158e-06
-9.52289965106e-07
5.57054092107e-06
-5.24774275192e-07
6.15802322188e-06
-1.33945308489e-06
6.94418324599e-06
-2.17618696107e-06
7.30554457649e-06
-2.29311339336e-06
7.45794106223e-06
-2.12824937924e-06
7.67187101475e-06
-1.88383546096e-06
7.83121410609e-06
-1.51996616399e-06
7.29491712527e-06
-6.00084368587e-07
7.23328489744e-06
-3.99581585888e-07
7.06066903737e-06
4.612517363e-08
6.94219432287e-06
5.25579360465e-07
6.68391925272e-06
1.09226659972e-06
6.36545322576e-06
1.56658455449e-06
6.42844533552e-06
1.63478982927e-06
6.16218084403e-06
1.80682756453e-06
7.62820346648e-06
1.73069403874e-06
9.87090419733e-06
1.00945986838e-06
1.58221683215e-05
-3.68474295649e-06
4.74009157964e-05
-3.20778657131e-05
8.37995680924e-05
-5.67220999873e-05
9.36165326724e-05
-4.76038311151e-05
9.50850894822e-05
-4.03250026877e-05
9.56992978251e-05
-3.67235028382e-05
9.92338965823e-05
-3.3135890379e-05
0.000103059950888
-3.08013846977e-05
0.00010534672499
-2.66114810206e-05
0.000105347393027
-1.91394417293e-05
0.000102761239752
-8.62549360721e-06
9.80113852372e-05
3.62528793009e-06
9.19826492581e-05
1.59335193698e-05
8.57190991945e-05
2.65682901597e-05
7.99219696728e-05
3.4897824546e-05
7.47580591975e-05
4.0995593329e-05
7.00863770284e-05
4.49899508813e-05
6.54477577625e-05
4.71216340214e-05
6.02578648145e-05
4.7745965775e-05
5.35398157511e-05
4.67330693689e-05
4.39448799572e-05
4.28326395071e-05
3.08950587924e-05
3.56249485178e-05
1.7856297682e-05
2.88129327007e-05
6.14169122294e-06
2.16192219103e-05
-1.75241003236e-06
1.23905869346e-05
-2.10454315722e-06
2.36896387034e-06
-1.69314435884e-06
3.52855358626e-07
-1.25558064297e-06
-6.58241886135e-07
-8.32966539818e-07
-9.31777507727e-07
-5.58041320266e-07
-4.8534985849e-07
-4.21821125803e-07
-2.6224404518e-07
-3.33760144363e-07
-1.35234970116e-07
-2.85738124313e-07
-1.36581680112e-08
-2.82853242527e-07
1.18560587877e-07
-3.219015418e-07
2.64707649863e-07
-3.72704591686e-07
3.67479635382e-07
-4.13449498865e-07
3.58412312478e-07
-4.67356771669e-07
3.12113337388e-07
-5.13722484912e-07
2.48441608374e-07
-5.17653127475e-07
1.36038859972e-07
-4.6279010266e-07
-3.3673682286e-08
-3.79267277359e-07
-1.86917327488e-07
-2.73274732239e-07
-2.96885480095e-07
-1.39184410132e-07
-4.77300638352e-07
-5.46604468454e-07
1.9434678757e-07
-1.91370805805e-06
1.06011031283e-06
-2.95398185855e-06
1.36991848983e-06
-4.45375185862e-06
9.91023202332e-07
-2.55218355654e-06
1.10394686927e-06
-1.205129098e-06
2.37400281803e-06
-2.76053681567e-06
3.32907982492e-06
-4.29016693657e-06
3.64009781118e-06
-4.23734016194e-06
3.49956567542e-06
-3.22710997583e-06
3.4764883719e-06
-2.58696935094e-06
3.06410828908e-06
-1.29002752643e-06
2.73274504389e-06
-9.61494299913e-08
2.9082026142e-06
-1.29689425325e-08
3.22088915897e-06
2.19493773006e-08
3.92384005846e-06
-3.96351694308e-07
5.17129125568e-06
-1.42140410149e-06
5.42974803677e-06
-1.27253387288e-06
5.00662567189e-06
-4.94643990405e-07
5.57014107243e-06
-1.04215217617e-06
6.46236984107e-06
-2.16966230925e-06
7.00946472484e-06
-2.65970112292e-06
7.21314971873e-06
-2.43294433761e-06
7.2794428318e-06
-2.13326221808e-06
7.02348192452e-06
-1.57385780161e-06
6.52619819547e-06
-9.72576901382e-07
6.43360475603e-06
-4.63255856467e-07
6.11384791327e-06
-3.00244217465e-08
6.15170115876e-06
5.40863552325e-08
6.02663719492e-06
6.97388051519e-07
5.78751847892e-06
1.36900186995e-06
5.71526539441e-06
1.6903051951e-06
6.11718435663e-06
1.28325068744e-06
6.48127025732e-06
1.53661049987e-06
9.14126915396e-06
-7.63658052313e-07
1.69490149148e-05
-6.53322619582e-06
5.54038316931e-05
-4.14649464133e-05
9.43883348108e-05
-7.03242192359e-05
9.84295980217e-05
-6.03511034561e-05
9.74738758334e-05
-4.6362176369e-05
9.73440232916e-05
-3.99640353286e-05
9.88628508142e-05
-3.80376459056e-05
0.000102327388868
-3.64047044986e-05
0.000105071373553
-3.33493775889e-05
0.000105415595022
-2.67537543101e-05
0.000102836757104
-1.63505841308e-05
9.77751545727e-05
-3.34620336832e-06
9.12957826748e-05
1.03303285091e-05
8.46464970644e-05
2.28151760183e-05
7.87563723132e-05
3.26831030185e-05
7.41781674142e-05
3.96880671454e-05
7.11269789437e-05
4.4249677085e-05
6.96235774921e-05
4.66894919145e-05
6.95565376509e-05
4.73789694786e-05
7.06905859451e-05
4.67928507307e-05
7.23741005942e-05
4.52217533221e-05
7.25228801776e-05
4.28437425756e-05
6.78187831687e-05
4.04950651129e-05
5.78400814039e-05
3.89879161358e-05
4.21338850265e-05
3.76018947352e-05
2.24351338567e-05
3.23995883253e-05
5.34803734853e-06
1.96863557245e-05
-1.94497381136e-06
7.84820590049e-06
-1.98798169861e-06
-3.81826209023e-07
-1.11437930324e-06
-1.62526676646e-06
-4.53717718558e-07
-1.08935335383e-06
-3.04702549221e-07
-3.77292043627e-07
-2.1248760559e-07
-1.95546082912e-07
-1.60742791455e-07
-3.52782176904e-08
-1.59399585023e-07
1.48933801891e-07
-2.0737158495e-07
3.47429763058e-07
-2.79423067938e-07
4.75051182993e-07
-3.7693798994e-07
4.91012372934e-07
-4.92141669053e-07
4.65037308163e-07
-5.76278835785e-07
3.7336297937e-07
-5.95680414174e-07
1.97087190459e-07
-5.55388528528e-07
-3.60422711275e-08
-4.64734535338e-07
-2.39751279017e-07
-3.39593589604e-07
-3.92985796009e-07
-1.76119649445e-07
-5.83000610831e-07
-7.0552315932e-07
3.75532630242e-07
-2.27718032364e-06
1.38121685326e-06
-3.94329415805e-06
1.29693623664e-06
-4.35228722275e-06
6.58567067068e-07
-1.90535678518e-06
1.36806235395e-06
-1.90082191913e-06
2.72764800628e-06
-4.09292932427e-06
3.16376104727e-06
-4.69881853466e-06
3.43505811406e-06
-4.48094433194e-06
2.91990943628e-06
-2.69428116212e-06
2.72335714433e-06
-2.37113807627e-06
2.36769476803e-06
-9.24903437624e-07
2.71666159325e-06
-4.33243024428e-07
2.98637662226e-06
-2.67108325336e-07
3.4741197628e-06
-4.45472866757e-07
4.49126860937e-06
-1.37912143173e-06
4.91432879877e-06
-1.80415804121e-06
4.59706003615e-06
-9.25198749588e-07
5.03641908922e-06
-8.9722106815e-07
5.9098339888e-06
-1.86105684385e-06
6.48709527112e-06
-2.68255601655e-06
6.71216084005e-06
-2.82181582922e-06
6.85935910861e-06
-2.52181646146e-06
7.04860919401e-06
-2.26844351802e-06
7.15490095744e-06
-1.62881029418e-06
6.68285832015e-06
-4.57109999978e-07
6.46297348134e-06
-2.0030113677e-07
6.2948325704e-06
1.83506789057e-07
5.59474002023e-06
7.98642813787e-07
5.59397963705e-06
7.34956030082e-07
6.27416849273e-06
7.34841933922e-07
6.80633146153e-06
1.2113880754e-06
6.19235073295e-06
1.98736689931e-06
7.83213143803e-06
9.86641917273e-09
1.53946122608e-05
-8.08933380898e-06
5.99928943291e-05
-5.04968094336e-05
0.000102700301099
-8.34997591063e-05
0.000105046918817
-7.23207927946e-05
9.94460910403e-05
-5.45129957164e-05
9.69104053936e-05
-4.36320658014e-05
9.74915849519e-05
-4.03688642249e-05
9.97532461259e-05
-4.01275463667e-05
0.000102183296857
-3.86630588766e-05
0.000102662229428
-3.36500096648e-05
0.000100266777253
-2.41750325452e-05
9.52189934302e-05
-1.11108220051e-05
8.8560434513e-05
3.50935782072e-06
8.16045684277e-05
1.74897896212e-05
7.54819787587e-05
2.91403566576e-05
7.07154512885e-05
3.76471959487e-05
6.72505581531e-05
4.33329725147e-05
6.49710236293e-05
4.66954953173e-05
6.37832664919e-05
4.80327312873e-05
6.35999622825e-05
4.77072029238e-05
6.43895678579e-05
4.61373259642e-05
6.60342217583e-05
4.36998929705e-05
6.79896264225e-05
4.10011641472e-05
6.93023903296e-05
3.92920374726e-05
6.88654021819e-05
3.95435259267e-05
6.52752075537e-05
4.13264374451e-05
5.53949513443e-05
4.24351803935e-05
3.54120413093e-05
3.98743188104e-05
1.45726211609e-05
2.90151686214e-05
5.00873952655e-07
1.39250926481e-05
-1.76782826213e-06
8.24142266251e-07
-4.26411994762e-07
-2.29361927885e-06
-1.74051574491e-07
-5.94522617743e-07
-4.37410783812e-08
-2.95471037523e-07
2.39096617932e-08
-6.9766302008e-08
2.60597594207e-08
1.76797957014e-07
-5.12058457043e-08
4.55084078289e-07
-1.81782061417e-07
6.38259540452e-07
-3.6416758785e-07
7.09222613998e-07
-5.50693528201e-07
6.91399859643e-07
-6.83676005519e-07
5.49386345636e-07
-7.32344883682e-07
2.89923322074e-07
-7.09645320125e-07
-1.43158785545e-08
-6.16162953017e-07
-2.9335323636e-07
-4.35984929083e-07
-5.19146871461e-07
-2.34090533261e-07
-7.52813124815e-07
-8.99878865312e-07
5.52489391066e-07
-2.81664144393e-06
1.50777187481e-06
-4.880238274e-06
1.04449274129e-06
-3.87557090088e-06
9.61826769734e-07
-1.81377623079e-06
2.0772131493e-06
-2.99909134806e-06
2.63626163087e-06
-4.62578162492e-06
2.98292853897e-06
-5.0208574774e-06
3.06354388281e-06
-4.5412156527e-06
2.89283428141e-06
-2.50738631641e-06
2.82033008517e-06
-2.28195965935e-06
2.66008281974e-06
-7.54225783466e-07
2.89900415598e-06
-6.59661515117e-07
3.23190308648e-06
-5.8321527044e-07
3.9336091907e-06
-1.11979648294e-06
5.04043334062e-06
-2.44855115359e-06
5.04738133744e-06
-1.77614257832e-06
4.88151936649e-06
-7.28813649268e-07
5.35843747054e-06
-1.33022729756e-06
6.03649456077e-06
-2.48001935144e-06
6.35384938382e-06
-2.9363648413e-06
6.34546711282e-06
-2.7494523079e-06
6.10227966237e-06
-2.22980089048e-06
5.85534584805e-06
-1.97272404698e-06
5.65689259981e-06
-1.39552738822e-06
5.73589424249e-06
-5.02154182864e-07
5.67378008588e-06
-9.56380782087e-08
6.15632606964e-06
-2.6345323595e-07
6.58347058126e-06
4.18279067947e-07
6.88519256506e-06
4.70021500828e-07
6.94027086594e-06
7.27481026701e-07
7.57710536433e-06
6.51394081894e-07
8.82015053243e-06
8.48439143e-07
1.18185342347e-05
-2.78558515373e-06
6.17058342052e-05
-5.73102846949e-05
0.000108914121658
-9.70064940917e-05
0.00011126435171
-8.55177408502e-05
0.000102786458067
-6.36314571082e-05
9.6673963374e-05
-4.82308552529e-05
9.52305430034e-05
-4.20336727396e-05
9.67082421698e-05
-4.16934296152e-05
9.89258699875e-05
-4.21920643059e-05
0.000100060457685
-3.96369453454e-05
9.88803659399e-05
-3.230663527e-05
9.53584270679e-05
-2.04813168365e-05
9.03157036305e-05
-5.89416646306e-06
8.4908608511e-05
9.09524262309e-06
8.01172895708e-05
2.24580944578e-05
7.65161095885e-05
3.29189274695e-05
7.4135794849e-05
4.0191104175e-05
7.25519298413e-05
4.50618404234e-05
7.14930918138e-05
4.78831947773e-05
7.07770296879e-05
4.88640466149e-05
7.02739444875e-05
4.83140702822e-05
6.99527777619e-05
4.65526952561e-05
6.98927124899e-05
4.38462251607e-05
7.02796353484e-05
4.06972048915e-05
7.12339728696e-05
3.84188066384e-05
7.25104449427e-05
3.83479987955e-05
7.35428633865e-05
4.03692271696e-05
7.26939166702e-05
4.33550538123e-05
6.70991681068e-05
4.55723779048e-05
5.19721032571e-05
4.43025301437e-05
2.86946740891e-05
3.74592488474e-05
8.75542002264e-06
2.11124586406e-05
-6.94779166133e-07
7.44401066888e-06
8.57097706927e-08
-1.21955696945e-06
1.58344682577e-07
-3.30802017474e-07
2.56005798084e-07
-1.38394142109e-07
2.78743814955e-07
1.80795370351e-07
1.46843125334e-07
6.13889467598e-07
-7.90440879352e-08
8.94002768094e-07
-3.71396561475e-07
1.03660923185e-06
-6.47584892944e-07
1.00845067869e-06
-8.43149218756e-07
7.90301662645e-07
-9.36910583649e-07
4.31576275021e-07
-9.3661216499e-07
3.24105187025e-08
-8.22921269426e-07
-3.5289778044e-07
-5.97247421649e-07
-7.06835426441e-07
-2.91387307903e-07
-9.83229855048e-07
-1.17539105007e-06
7.85774232934e-07
-3.5864082162e-06
1.62643647285e-06
-5.69978452818e-06
1.03389792074e-06
-3.27118472141e-06
1.27552884272e-06
-2.0446170113e-06
2.35329665942e-06
-4.05680385156e-06
2.23129274305e-06
-4.48499433364e-06
2.69276427805e-06
-5.45795305941e-06
2.34620173065e-06
-4.17849856305e-06
2.49440622711e-06
-2.64295984966e-06
2.34448940846e-06
-2.1201916047e-06
2.64193269893e-06
-1.04140161141e-06
2.98968665794e-06
-9.92706427796e-07
3.3956089448e-06
-9.70869061538e-07
4.1808920557e-06
-1.87613649943e-06
4.58313502208e-06
-2.81188459937e-06
4.27552429135e-06
-1.44302941204e-06
4.712299567e-06
-1.13281866077e-06
5.34883198077e-06
-1.9195252572e-06
5.90768751499e-06
-2.97926460695e-06
6.2887842067e-06
-3.25271668044e-06
6.27051164387e-06
-2.67959610281e-06
6.29544483354e-06
-2.19917907134e-06
6.06404515884e-06
-1.69760082127e-06
5.69731714298e-06
-9.92575538787e-07
6.09967446898e-06
-8.70983009003e-07
5.93663099688e-06
1.02560399505e-07
5.086633896e-06
6.21011533471e-07
5.020707942e-06
5.13987464293e-07
5.1102356647e-06
4.17865630667e-07
6.13503401617e-06
-2.45467757666e-07
6.88967630268e-06
-1.64339530282e-08
8.5871159959e-06
-7.25608766555e-07
4.91668894247e-05
-4.28672801772e-05
0.000105702012647
-0.000113076863357
0.000115570237209
-0.000106538423641
0.000106165311741
-7.59159024891e-05
9.74049392382e-05
-5.47192738434e-05
9.32863923675e-05
-4.3975523526e-05
9.3418596106e-05
-4.20294881635e-05
9.55183065525e-05
-4.36569497751e-05
9.745147662e-05
-4.39824615689e-05
9.78805337804e-05
-3.99166319398e-05
9.64902777809e-05
-3.07632999767e-05
9.38808004263e-05
-1.7706224411e-05
9.1023130811e-05
-2.87125753088e-06
8.87379298473e-05
1.15487903584e-05
8.74226386701e-05
2.39352573511e-05
8.7054208675e-05
3.34425517189e-05
8.72996774088e-05
4.00878165422e-05
8.75547282397e-05
4.49250217268e-05
8.74102417221e-05
4.81256925982e-05
8.66741746161e-05
4.96846115644e-05
8.52267749536e-05
4.98352566925e-05
8.31203618153e-05
4.87260431406e-05
8.07758350537e-05
4.62551917662e-05
7.90568135344e-05
4.2481462194e-05
7.86512509792e-05
3.88933244787e-05
7.9158345928e-05
3.7911019012e-05
8.0028882026e-05
3.95633914329e-05
8.05647175149e-05
4.28758680488e-05
7.9628265679e-05
4.6563884232e-05
7.48634863111e-05
4.91450613868e-05
6.31078566112e-05
4.93363424715e-05
4.00489195052e-05
4.43893452838e-05
1.61740765337e-05
3.16639839045e-05
4.32092878922e-06
1.1011925335e-05
6.68481588275e-07
3.43278879105e-06
5.67146240364e-07
-1.0714395216e-08
6.29932191154e-07
1.3726411848e-07
4.05671404862e-07
8.58681765187e-07
4.11091935147e-08
1.28478335553e-06
-3.96553455164e-07
1.50695961307e-06
-7.90609600457e-07
1.44061867683e-06
-1.07257554213e-06
1.11671320477e-06
-1.22709233728e-06
6.33874546633e-07
-1.23817887443e-06
9.72204834244e-08
-1.09308505121e-06
-4.52096642768e-07
-7.8420020476e-07
-9.50914782595e-07
-3.97007755888e-07
-1.34636208146e-06
-1.53816985132e-06
8.82781063291e-07
-4.45295530655e-06