/*--------------------------------*- C++ -*----------------------------------*\
| =========                 |                                                 |
| \\      /  F ield         | OpenFOAM: The Open Source CFD Toolbox           |
|  \\    /   O peration     | Version:  v1806                                 |
|   \\  /    A nd           | Web:      www.OpenFOAM.com                      |
|    \\/     M anipulation  |                                                 |
\*---------------------------------------------------------------------------*/
FoamFile
{
    version     2.0;
    format      ascii;
    class       surfaceScalarField;
    location    "839";
    object      phi;
}
// * * * * * * * * * * * * * * * * * * * * * * * * * * * * * * * * * * * * * //

dimensions      [0 3 -1 0 0 0 0];
oriented        oriented;


internalField   nonuniform List<scalar> 
12640
(
-2.59515245553e-07
2.59890281164e-07
-4.86836593795e-07
2.27643189146e-07
-6.78271010808e-07
1.91674782212e-07
-8.35819480251e-07
1.57744506996e-07
-9.52406729919e-07
1.16755021103e-07
-1.02793691876e-06
7.56948093283e-08
-1.08277479889e-06
5.4991834417e-08
-1.15938434792e-06
7.67481507161e-08
-1.25878405401e-06
9.95265438402e-08
-1.35143324447e-06
9.27600438831e-08
-1.4353264705e-06
8.39862635733e-08
-1.51878844636e-06
8.35453557598e-08
-1.5920795805e-06
7.33668602933e-08
-1.65189598648e-06
5.98867745647e-08
-1.70587945337e-06
5.40490367528e-08
-1.76563414673e-06
5.98174865148e-08
-1.8264443472e-06
6.08689335499e-08
-1.87766582709e-06
5.12767417098e-08
-1.91849905345e-06
4.08828658117e-08
-1.95693583156e-06
3.8483111192e-08
-2.0057133558e-06
4.88210396308e-08
-2.06437855911e-06
5.87068276258e-08
-2.12285131161e-06
5.85114877068e-08
-2.17645984116e-06
5.364499414e-08
-2.22429429566e-06
4.786808271e-08
-2.26685073038e-06
4.25884570607e-08
-2.30578448353e-06
3.89638066435e-08
-2.34039596997e-06
3.46405219004e-08
-2.37002989444e-06
2.96611787631e-08
-2.39572435205e-06
2.57208460789e-08
-2.41958586954e-06
2.38862097915e-08
-2.44088609894e-06
2.13244642177e-08
-2.45843656814e-06
1.75738567566e-08
-2.47519854274e-06
1.67848008997e-08
-2.49154535416e-06
1.63682567739e-08
-2.50641536123e-06
1.48911891433e-08
-2.52061336671e-06
1.42177352745e-08
-2.53281121154e-06
1.22166710851e-08
-2.5410402212e-06
8.24669441351e-09
-2.54531013423e-06
4.28761000523e-09
-2.54795336536e-06
2.66001472848e-09
-2.5470451511e-06
-8.91777450041e-10
-2.5385000529e-06
-8.52982033952e-09
-2.52419673084e-06
-1.42883504753e-08
-2.50624143298e-06
-1.79413023777e-08
-2.48407176292e-06
-2.21556388686e-08
-2.45708807154e-06
-2.69705137739e-08
-2.42434006587e-06
-3.27347430332e-08
-2.38563738243e-06
-3.86902922039e-08
-2.34329769863e-06
-4.23272110881e-08
-2.30000743557e-06
-4.32790071733e-08
-2.25194498354e-06
-4.80510321265e-08
-2.19086297156e-06
-6.10711976391e-08
-2.11826850934e-06
-7.25832138621e-08
-2.034376358e-06
-8.38816796814e-08
-1.93678360988e-06
-9.7582233108e-08
-1.83459447638e-06
-1.02180324217e-07
-1.73016850053e-06
-1.04418110119e-07
-1.61367470398e-06
-1.1648802188e-07
-1.4846387925e-06
-1.290329456e-07
-1.34882555955e-06
-1.35812262291e-07
-1.19305271683e-06
-1.55772039796e-07
-9.88740121506e-07
-2.04306907128e-07
-7.55550168627e-07
-2.33180107286e-07
-5.66470414878e-07
-1.89073343003e-07
-4.3617574904e-07
-1.30290716277e-07
-3.322933481e-07
-1.03880271432e-07
-2.38250391662e-07
-9.40418510931e-08
-1.50086998115e-07
-8.81619594513e-08
-6.77647364492e-08
-8.23241257371e-08
2.65046912116e-09
-7.04143041222e-08
5.52258960663e-08
-5.25794532833e-08
8.85239228754e-08
-3.32989248422e-08
1.04368007585e-07
-1.58430265465e-08
1.06512576109e-07
-2.14333562053e-09
9.91833897005e-08
7.32973547228e-09
8.93311931437e-08
9.85254504161e-09
6.85109730759e-08
2.08230088534e-08
4.33970029843e-08
2.51203754119e-08
4.34029510871e-08
-1.38283748728e-07
3.98406580378e-07
-3.19870590578e-07
4.09464240112e-07
-4.91835424432e-07
3.63835812837e-07
-6.63704220144e-07
3.29770916109e-07
-8.67032292995e-07
3.20246654391e-07
-1.01618130422e-06
2.24998599253e-07
-1.10174286194e-06
1.40706441912e-07
-1.18278818075e-06
1.57937989326e-07
-1.27153534032e-06
1.88403580696e-07
-1.36512900581e-06
1.86463998138e-07
-1.45273362098e-06
1.71689050503e-07
-1.52598187486e-06
1.56877336601e-07
-1.59070427046e-06
1.38167855682e-07
-1.65040411955e-06
1.19659378067e-07
-1.70681850184e-06
1.10535470179e-07
-1.76791649702e-06
1.20981274844e-07
-1.82513503251e-06
1.18148939731e-07
-1.86085107623e-06
8.70449168925e-08
-1.89240060726e-06
7.24816865952e-08
-1.93764823421e-06
8.37755074835e-08
-1.99614695642e-06
1.0736518416e-07
-2.06361261273e-06
1.26213959619e-07
-2.12659826345e-06
1.21538232205e-07
-2.17731202893e-06
1.04394935249e-07
-2.22287670945e-06
9.34685666254e-08
-2.26780210587e-06
8.75455339556e-08
-2.3072874732e-06
7.84813331422e-08
-2.34082847604e-06
6.82100170505e-08
-2.37038492105e-06
5.92468805472e-08
-2.39658790147e-06
5.19496438487e-08
-2.4192774896e-06
4.66026912691e-08
-2.43890885151e-06
4.0979787922e-08
-2.45493554476e-06
3.36255513721e-08
-2.47072663068e-06
3.25981070314e-08
-2.48917650674e-06
3.4841640764e-08
-2.50481534116e-06
3.0550141058e-08
-2.51808433325e-06
2.75078942993e-08
-2.53243021152e-06
2.65806464514e-08
-2.54580939357e-06
2.16454411672e-08
-2.55241353002e-06
1.09087195609e-08
-2.54297219904e-06
-6.76264747758e-09
-2.52362073809e-06
-2.0227553198e-08
-2.50865759399e-06
-2.34759998798e-08
-2.4969237798e-06
-2.60080021027e-08
-2.4831567651e-06
-3.1692581799e-08
-2.46604937524e-06
-3.92497793673e-08
-2.44412111152e-06
-4.88837796049e-08
-2.41725500054e-06
-5.95882243974e-08
-2.38465768236e-06
-7.12733369341e-08
-2.34226401774e-06
-8.47089763053e-08
-2.28702115844e-06
-9.85084952419e-08
-2.22684379073e-06
-1.08217325415e-07
-2.17412884877e-06
-1.13773607873e-07
-2.11353876371e-06
-1.33162627737e-07
-2.03458117802e-06
-1.62827657319e-07
-1.94947536945e-06
-1.82678736385e-07
-1.8560151318e-06
-1.95630877823e-07
-1.74852706299e-06
-2.1189916004e-07
-1.63117375214e-06
-2.33835583129e-07
-1.50021721564e-06
-2.59987036011e-07
-1.34291838294e-06
-2.93107357639e-07
-1.16702211133e-06
-3.31663452641e-07
-9.62873267461e-07
-4.08446966739e-07
-7.42707857163e-07
-4.53337832495e-07
-5.49502174271e-07
-3.82271684725e-07
-4.01345508334e-07
-2.78443918772e-07
-2.96336932786e-07
-2.08885989241e-07
-2.10243411359e-07
-1.80133744891e-07
-1.28058152081e-07
-1.70347714248e-07
-4.93517665284e-08
-1.61028798712e-07
1.78592441683e-08
-1.37631818575e-07
6.69397176472e-08
-1.01659500747e-07
9.99277369262e-08
-6.62901340465e-08
1.20944945296e-07
-3.68626521061e-08
1.28865609362e-07
-1.00649767076e-08
1.26487436784e-07
9.7067646081e-09
1.12307598101e-07
2.40325440377e-08
8.95418823323e-08
4.35898953573e-08
4.98103459402e-08
6.485698838e-08
9.32115443227e-08
-1.74984471905e-07
5.73555567781e-07
-2.70058289608e-07
5.0472995023e-07
-4.71664174432e-07
5.65626655821e-07
-6.96107712911e-07
5.54389088739e-07
-8.99985000548e-07
5.24278312735e-07
-1.00931416766e-06
3.34457590156e-07
-1.06579427736e-06
1.97317446443e-07
-1.15544469746e-06
2.47723635391e-07
-1.25834790202e-06
2.9142989967e-07
-1.35754921015e-06
2.85774192524e-07
-1.44852580914e-06
2.62758776461e-07
-1.5254010377e-06
2.33838236474e-07
-1.59077344019e-06
2.03621109676e-07
-1.65208945355e-06
1.81053178056e-07
-1.70122364368e-06
1.5974242535e-07
-1.70247217829e-06
1.22294802667e-07
-1.67609672334e-06
9.18266588324e-08
-1.6916678702e-06
1.02663636549e-07
-1.76544192448e-06
1.46300629736e-07
-1.88390151124e-06
2.02280585862e-07
-1.99798615255e-06
2.2149482184e-07
-2.06991683208e-06
1.98188172417e-07
-2.12284774287e-06
1.74508825177e-07
-2.1770265337e-06
1.58611401247e-07
-2.22715193095e-06
1.43628534638e-07
-2.26914643951e-06
1.29573197445e-07
-2.30630132366e-06
1.15666863813e-07
-2.33998792387e-06
1.01926523323e-07
-2.36966025863e-06
8.89470763703e-08
-2.39599719015e-06
7.83140629354e-08
-2.41758698459e-06
6.82181692407e-08
-2.43640895571e-06
5.98268682536e-08
-2.45467515464e-06
5.19157361431e-08
-2.46600440659e-06
4.39509528353e-08
-2.47985037851e-06
4.87090920357e-08
-2.5023438807e-06
5.30649661452e-08
-2.51796100138e-06
4.31447696666e-08
-2.5291040358e-06
3.77430689131e-08
-2.54338537679e-06
3.59449098007e-08
-2.55336564509e-06
2.09075511512e-08
-2.55619659804e-06
-3.914342724e-09
-2.55266867396e-06
-2.37382077648e-08
-2.54258651594e-06
-3.35423476188e-08
-2.52798244868e-06
-4.05961102666e-08
-2.5097521996e-06
-4.99079794122e-08
-2.48728022461e-06
-6.17065520085e-08
-2.46053058315e-06
-7.56192123144e-08
-2.42906325919e-06
-9.10409812283e-08
-2.39239302004e-06
-1.07929944506e-07
-2.35075146475e-06
-1.26336518133e-07
-2.30445328058e-06
-1.44793567549e-07
-2.25097774772e-06
-1.61679519619e-07
-2.18404871932e-06
-1.80690093942e-07
-2.10844737987e-06
-2.08751354545e-07
-2.03214028772e-06
-2.39123455736e-07
-1.94890237207e-06
-2.65905891217e-07
-1.85130653427e-06
-2.93217488586e-07
-1.73930886111e-06
-3.2388880225e-07
-1.61387574781e-06
-3.59262460992e-07
-1.47302715699e-06
-4.00829658015e-07
-1.31499680327e-06
-4.51131288059e-07
-1.12214885963e-06
-5.24502324636e-07
-8.97183084195e-07
-6.33401877717e-07
-6.69897678756e-07
-6.80613117048e-07
-4.8415220718e-07
-5.68010940911e-07
-3.60974181176e-07
-4.01617473162e-07
-2.5709620678e-07
-3.12761063075e-07
-1.65825745549e-07
-2.71402964484e-07
-8.58508946836e-08
-2.50319005349e-07
-1.3992859189e-08
-2.32894807517e-07
4.82164553579e-08
-1.99836719049e-07
9.93524442551e-08
-1.52804248699e-07
1.36661875958e-07
-1.03602466145e-07
1.53250361679e-07
-5.34551292953e-08
1.53269445872e-07
-1.00891886526e-08
1.42748649861e-07
2.02234529155e-08
1.25040891392e-07
4.1735725979e-08
1.01019216348e-07
6.76088121602e-08
4.70881888586e-08
1.18782238272e-07
1.40298401736e-07
-1.26958158367e-07
7.00690599673e-07
-1.76505701561e-07
5.54404614654e-07
-4.01304096443e-07
7.90591784406e-07
-5.87329230178e-07
7.40578705512e-07
-6.13310909171e-07
5.50384387099e-07
-5.60776640538e-07
2.81990961324e-07
-7.57494085311e-07
3.94121900035e-07
-1.0408266286e-06
5.31176689375e-07
-1.21780856757e-06
4.68528973237e-07
-1.33784091526e-06
4.05910179034e-07
-1.44021075517e-06
3.65222920274e-07
-1.52655099918e-06
3.2026526382e-07
-1.5885854682e-06
2.65736889567e-07
-1.59821177194e-06
1.90754406443e-07
-1.56600604472e-06
1.27602817882e-07
-1.55885383203e-06
1.15199072621e-07
-1.61621177222e-06
1.49235271518e-07
-1.73131055503e-06
2.17810594151e-07
-1.86291719859e-06
2.77955998702e-07
-1.95403682775e-06
2.93448128016e-07
-2.01131869183e-06
2.7882255998e-07
-2.0701393333e-06
2.57051523743e-07
-2.12852259449e-06
2.32932312303e-07
-2.17976537022e-06
2.09891248372e-07
-2.2254658501e-06
1.89363980646e-07
-2.26657831859e-06
1.70718097768e-07
-2.30458932582e-06
1.53708976336e-07
-2.3387140913e-06
1.36080390544e-07
-2.36899030487e-06
1.19251595526e-07
-2.39401053927e-06
1.0336117395e-07
-2.4168980765e-06
9.11318133287e-08
-2.43378595627e-06
7.6739602465e-08
-2.4457572597e-06
6.39107529058e-08
-2.46772661889e-06
6.59427565847e-08
-2.48697363108e-06
6.79780367012e-08
-2.50332764531e-06
6.94394307053e-08
-2.52886230444e-06
6.86994039381e-08
-2.5488846354e-06
5.77844565657e-08
-2.55584716443e-06
4.29263467783e-08
-2.55735290666e-06
2.24311891004e-08
-2.55787267357e-06
-3.37699271648e-09
-2.55529076899e-06
-2.63035194052e-08
-2.54672920716e-06
-4.20874138615e-08
-2.53259899572e-06
-5.47105567575e-08
-2.51400337554e-06
-6.84877554822e-08
-2.4911074932e-06
-8.45872033078e-08
-2.46384558302e-06
-1.02865771508e-07
-2.43191295574e-06
-1.22958835261e-07
-2.39503418037e-06
-1.44793810306e-07
-2.35311521314e-06
-1.68240990257e-07
-2.30533904402e-06
-1.92555056741e-07
-2.24930108591e-06
-2.17703045516e-07
-2.18352837358e-06
-2.46448462661e-07
-2.11124547588e-06
-2.81020861229e-07
-2.03250601785e-06
-3.17850358693e-07
-1.94310562845e-06
-3.55295039322e-07
-1.84004734846e-06
-3.96265464646e-07
-1.72127958132e-06
-4.42647421549e-07
-1.58456661694e-06
-4.95966713736e-07
-1.42630805871e-06
-5.59078901265e-07
-1.24020465673e-06
-6.37222562709e-07
-1.02814088866e-06
-7.3655272066e-07
-8.30265213002e-07
-8.31265600631e-07
-6.46824408125e-07
-8.64044929375e-07
-4.53830702628e-07
-7.60997553841e-07
-3.03784373687e-07
-5.51658900318e-07
-1.94436613809e-07
-4.22105576844e-07
-1.06312365933e-07
-3.59523728598e-07
-3.19830203703e-08
-3.24655721431e-07
3.6894613943e-08
-3.01764472056e-07
1.02965122435e-07
-2.65923782327e-07
1.52065267887e-07
-2.01901077683e-07
1.7023973787e-07
-1.21784477789e-07
1.70069994387e-07
-5.32926695031e-08
1.63643809382e-07
-3.67035642348e-09
1.45042049232e-07
3.88157936745e-08
1.11279018324e-07
7.54912820998e-08
7.85165719247e-08
1.00364165592e-07
4.16582601233e-08
1.55634422991e-07
1.8194304316e-07
-3.16853379161e-08
7.32447990471e-07
-1.56327464487e-07
6.79144232505e-07
-3.39188684434e-07
9.73586906403e-07
-4.82741885537e-07
8.84254255455e-07
-4.74615009054e-07
5.42345996612e-07
-5.87382275355e-07
3.9482629559e-07
-8.25211675835e-07
6.32047121896e-07
-1.00633070716e-06
7.12405377835e-07
-1.15998876392e-06
6.22294050812e-07
-1.29556491254e-06
5.41584961955e-07
-1.41618514538e-06
4.85935996538e-07
-1.48732427641e-06
3.91486923821e-07
-1.48048676967e-06
2.58972224183e-07
-1.46502229954e-06
1.75353834426e-07
-1.50974242615e-06
1.72381185008e-07
-1.60802766811e-06
2.13540035601e-07
-1.73360163611e-06
2.74863537245e-07
-1.8402909354e-06
3.24553020911e-07
-1.90370978108e-06
3.41425750056e-07
-1.95201173349e-06
3.41798498333e-07
-2.01052931549e-06
3.37385897165e-07
-2.07161266025e-06
3.18177891428e-07
-2.12802810935e-06
2.89387561087e-07
-2.17827192675e-06
2.60172226385e-07
-2.22317187421e-06
2.34298466072e-07
-2.2649609581e-06
2.12539837343e-07
-2.30201717136e-06
1.90795527031e-07
-2.33677811178e-06
1.70870557275e-07
-2.36576987171e-06
1.4827143278e-07
-2.39054834387e-06
1.28166793613e-07
-2.40737900774e-06
1.07988093355e-07
-2.42769607745e-06
9.70808291068e-08
-2.45667448675e-06
9.29121771393e-08
-2.47522341878e-06
8.45138664297e-08
-2.49726063521e-06
9.00363395628e-08
-2.52383575859e-06
9.60351656035e-08
-2.54246130623e-06
8.73448016876e-08
-2.5545131128e-06
6.98556406601e-08
-2.56043805855e-06
4.8869801889e-08
-2.56238257113e-06
2.43937249799e-08
-2.56267401774e-06
-3.06828398667e-09
-2.56004643824e-06
-2.89141522694e-08
-2.55207357143e-06
-5.00438596572e-08
-2.53837730387e-06
-6.83904400882e-08
-2.51970723925e-06
-8.71417363287e-08
-2.49648181152e-06
-1.07796479693e-07
-2.4687366913e-06
-1.30595011875e-07
-2.4362643856e-06
-1.55415183255e-07
-2.39879611997e-06
-1.82246205748e-07
-2.35594253438e-06
-2.11078549526e-07
-2.30666657709e-06
-2.41814779928e-07
-2.24932695529e-06
-2.75026482168e-07
-2.18340409613e-06
-3.12355528382e-07
-2.10995557352e-06
-3.544545002e-07
-2.02772383841e-06
-4.00068384322e-07
-1.93302346355e-06
-4.49982775097e-07
-1.82216490295e-06
-5.07112272354e-07
-1.69123119572e-06
-5.73569611572e-07
-1.53594563987e-06
-6.51240461799e-07
-1.35272570994e-06
-7.42285324422e-07
-1.14402912233e-06
-8.45904529137e-07
-9.33916094572e-07
-9.46651343586e-07
-7.5794728153e-07
-1.00722225212e-06
-5.81562866613e-07
-1.04041908834e-06
-4.13705549399e-07
-9.28847234747e-07
-2.63220970113e-07
-7.0213927343e-07
-1.37247589214e-07
-5.4807654605e-07
-3.91918581709e-08
-4.57585220047e-07
3.77129021945e-08
-4.01552351171e-07
1.08032463857e-07
-3.72106517602e-07
1.69039695369e-07
-3.26918114327e-07
1.94379132619e-07
-2.2725599374e-07
1.96890176489e-07
-1.24300694734e-07
1.96547631849e-07
-5.29604806136e-08
1.85097676001e-07
7.76620793357e-09
1.55065774921e-07
6.88354379312e-08
1.20551521172e-07
1.0999441386e-07
8.35896037858e-08
1.37314261577e-07
3.9050594234e-08
2.00148761888e-07
2.20988065037e-07
-1.79917081603e-08
7.50525130587e-07
-1.8539766452e-07
8.4663601581e-07
-2.93001313138e-07
1.08129788842e-06
-3.668235361e-07
9.58173188565e-07
-3.71760564474e-07
5.47343309565e-07
-6.28531681521e-07
6.51676090014e-07
-8.61400733927e-07
8.65016795443e-07
-9.80288691117e-07
8.31393626599e-07
-1.11282202589e-06
7.54921813643e-07
-1.23709163465e-06
6.6595206931e-07
-1.30826555909e-06
5.57195958251e-07
-1.281236074e-06
3.6452635957e-07
-1.28369348094e-06
2.61487710619e-07
-1.3645192509e-06
2.56234733632e-07
-1.49106935738e-06
2.98987490444e-07
-1.64484931169e-06
3.67377707812e-07
-1.77178086351e-06
4.01852168796e-07
-1.84070761479e-06
3.93534264228e-07
-1.88850649689e-06
3.89276115019e-07
-1.95104150279e-06
4.04382521049e-07
-2.01430642962e-06
4.0069695939e-07
-2.07115323391e-06
3.7506749946e-07
-2.12505284027e-06
3.43326949588e-07
-2.1766425311e-06
3.11798683853e-07
-2.22272431127e-06
2.80414644999e-07
-2.25862832588e-06
2.48475892219e-07
-2.29641871118e-06
2.28616423308e-07
-2.33007570276e-06
2.04556577347e-07
-2.35974510462e-06
1.77968548827e-07
-2.37695541244e-06
1.45403456618e-07
-2.39515031072e-06
1.26208015166e-07
-2.4185076854e-06
1.20461777399e-07
-2.4414200688e-06
1.1584678505e-07
-2.48156366225e-06
1.24678983114e-07
-2.516420376e-06
1.24914163106e-07
-2.53768297656e-06
1.17318314376e-07
-2.55136486974e-06
1.01046654574e-07
-2.56077266129e-06
7.92826580939e-08
-2.56635977903e-06
5.44755193914e-08
-2.56887156941e-06
2.6923377558e-08
-2.569174935e-06
-2.74757584853e-09
-2.56635139757e-06
-3.1720791568e-08
-2.55859493744e-06
-5.77835290417e-08
-2.54523598491e-06
-8.173270138e-08
-2.52662823769e-06
-1.05732703606e-07
-2.50316271351e-06
-1.31245241032e-07
-2.47493487287e-06
-1.5880592383e-07
-2.44177573227e-06
-1.88557211884e-07
-2.40336827801e-06
-2.20636347124e-07
-2.35919275781e-06
-2.55236182068e-07
-2.30831844151e-06
-2.92671165082e-07
-2.24964600766e-06
-3.33680779073e-07
-2.18265301499e-06
-3.79331259066e-07
-2.10685772105e-06
-4.30233543585e-07
-2.01983740814e-06
-4.87073951518e-07
-1.91737612534e-06
-5.52430036813e-07
-1.79466003472e-06
-6.29814430934e-07
-1.64665125064e-06
-7.21564433265e-07
-1.46964346228e-06
-8.28233312902e-07
-1.26547062994e-06
-9.46442303473e-07
-1.0478868476e-06
-1.06347207757e-06
-8.43072474137e-07
-1.15145094258e-06
-6.6457095667e-07
-1.18571175508e-06
-4.91838379521e-07
-1.21314228823e-06
-3.26151107713e-07
-1.09452935578e-06
-1.92284095997e-07
-8.36002655801e-07
-6.6977030048e-08
-6.73387095689e-07
4.0069119975e-08
-5.64626895029e-07
1.26066160234e-07
-4.87572825279e-07
1.95221750009e-07
-4.41245606007e-07
2.28826943824e-07
-3.60551567959e-07
2.30730743583e-07
-2.2915741338e-07
2.35530796331e-07
-1.29111860166e-07
2.35753178539e-07
-5.31941603844e-08
2.17387053627e-07
2.611988329e-08
1.80022731788e-07
1.06186064908e-07
1.36435019266e-07
1.53567640298e-07
9.27651571641e-08
1.80966749329e-07
4.62784715084e-08
2.46624121206e-07
2.67246065286e-07
-7.37892141122e-08
8.2436264134e-07
-2.61831352059e-07
1.03475727802e-06
-3.5738817053e-07
1.17694134854e-06
-3.31461606842e-07
9.32325192166e-07
-4.42185297578e-07
6.58132661277e-07
-7.11281438677e-07
9.20862160548e-07
-8.44849357484e-07
9.98680971362e-07
-9.5065168485e-07
9.3728448444e-07
-1.05127300627e-06
8.55637273248e-07
-1.17907192279e-06
7.93832712309e-07
-1.18833298662e-06
5.66530909752e-07
-1.17897875771e-06
3.55227792953e-07
-1.2617120402e-06
3.44275231498e-07
-1.37471142382e-06
3.69288579184e-07
-1.53023769783e-06
4.54571900022e-07
-1.67325958796e-06
5.10459792486e-07
-1.75202073465e-06
4.80670770539e-07
-1.80557649965e-06
4.4714372572e-07
-1.88002455814e-06
4.63775924662e-07
-1.95189514059e-06
4.76302553133e-07
-2.01240999646e-06
4.61257862232e-07
-2.06959806001e-06
4.32298467418e-07
-2.12470187266e-06
3.98470085693e-07
-2.17254737589e-06
3.59680692286e-07
-2.21277006441e-06
3.20671589034e-07
-2.25124170024e-06
2.86979240149e-07
-2.28216251244e-06
2.59567389539e-07
-2.3162652607e-06
2.38687687434e-07
-2.34175232397e-06
2.03482680009e-07
-2.36079341821e-06
1.64470112694e-07
-2.38785351647e-06
1.53292435194e-07
-2.41863409424e-06
1.51265282385e-07
-2.45814568481e-06
1.55380270186e-07
-2.49476832867e-06
1.61323084836e-07
-2.52779963723e-06
1.5796661525e-07
-2.5475811756e-06
1.37120428893e-07
-2.55958895197e-06
1.13074250395e-07
-2.56815257041e-06
8.78654157263e-08
-2.57393216589e-06
6.02735422594e-08
-2.57692830537e-06
2.99373894002e-08
-2.57728820916e-06
-2.3702760911e-09
-2.5742848036e-06
-3.47069996649e-08
-2.56657443066e-06
-6.54767977068e-08
-2.55342274172e-06
-9.48671470211e-08
-2.53488191365e-06
-1.24256148168e-07
-2.51119344133e-06
-1.54915985835e-07
-2.48241111838e-06
-1.87570120702e-07
-2.44835491663e-06
-2.22594846161e-07
-2.40868694802e-06
-2.60284880321e-07
-2.36289786423e-06
-3.01005673886e-07
-2.31023154204e-06
-3.45317180968e-07
-2.24980184449e-06
-3.94090992147e-07
-2.18066998844e-06
-4.48444361233e-07
-2.10111228122e-06
-5.09774360241e-07
-2.00758951854e-06
-5.80580612954e-07
-1.89501366206e-06
-6.64989790055e-07
-1.75782665539e-06
-7.66985180116e-07
-1.59184602276e-06
-8.87528323038e-07
-1.39797282483e-06
-1.02208994616e-06
-1.18533576343e-06
-1.15906309393e-06
-9.72306549177e-07
-1.27648561882e-06
-7.76639898407e-07
-1.34710435923e-06
-5.86635215788e-07
-1.37570496477e-06
-4.30729085928e-07
-1.36904086332e-06
-2.4739161011e-07
-1.2778597848e-06
-9.6349312565e-08
-9.87046567427e-07
2.92913602309e-08
-7.99028424456e-07
1.43058420984e-07
-6.78416059851e-07
2.30892644412e-07
-5.75395975976e-07
2.75906592098e-07
-4.86295821155e-07
2.77203005263e-07
-3.61836858078e-07
2.77991346028e-07
-2.29959044347e-07
2.88860504825e-07
-1.39985176059e-07
2.88217133145e-07
-5.25563037772e-08
2.61890567261e-07
5.24391800025e-08
2.18328586991e-07
1.49739033547e-07
1.61487420494e-07
2.10399670821e-07
1.04044487012e-07
2.38397312762e-07
5.49381942253e-08
2.95695742242e-07
3.2218283365e-07
-1.26868087675e-07
9.51317878523e-07
-2.85869461643e-07
1.19383959441e-06
-3.39444652422e-07
1.23059553644e-06
-2.68470185736e-07
8.61405365634e-07
-4.85190496438e-07
8.74922016852e-07
-7.01502803428e-07
1.13726623875e-06
-8.11586376709e-07
1.10885046775e-06
-9.2478109219e-07
1.05056741785e-06
-9.75554607126e-07
9.0648611081e-07
-1.03130999722e-06
8.49665508804e-07
-1.02958547533e-06
5.64859005922e-07
-1.14364574335e-06
4.69340308451e-07
-1.25171259836e-06
4.52393526716e-07
-1.40098494226e-06
5.1861701968e-07
-1.5578070841e-06
6.11455922169e-07
-1.64759872821e-06
6.00311351973e-07
-1.70516182418e-06
5.38289258929e-07
-1.79067039234e-06
5.32705907522e-07
-1.87815830509e-06
5.51316256317e-07
-1.94648307835e-06
5.44676985664e-07
-2.00510007042e-06
5.19921062123e-07
-2.06113377658e-06
4.88374315388e-07
-2.1187371834e-06
4.56112601149e-07
-2.17334950695e-06
4.14329747546e-07
-2.21062040504e-06
3.57975630186e-07
-2.25117799394e-06
3.27568458836e-07
-2.28448472531e-06
2.9290380218e-07
-2.30078684563e-06
2.55017842207e-07
-2.32541399122e-06
2.28135873401e-07
-2.37478529721e-06
2.13866256358e-07
-2.41096041928e-06
1.89491338264e-07
-2.43149466726e-06
1.71821949809e-07
-2.47040022437e-06
1.94307723768e-07
-2.51265250468e-06
2.03596942641e-07
-2.53793481996e-06
1.83269982088e-07
-2.555342713e-06
1.54548709641e-07
-2.56788598887e-06
1.25637226541e-07
-2.57690150475e-06
9.68999524507e-08
-2.58307755207e-06
6.64680206134e-08
-2.58648559269e-06
3.33633436836e-08
-2.5869531954e-06
-1.88508897078e-09
-2.58383995367e-06
-3.78028123072e-08
-2.5761371472e-06
-7.31620703059e-08
-2.56312248991e-06
-1.07864050158e-07
-2.54461536248e-06
-1.42745066228e-07
-2.52066055804e-06
-1.78852008446e-07
-2.49120275951e-06
-2.17008434362e-07
-2.45601659369e-06
-2.57760426806e-07
-2.41477111288e-06
-3.01509338429e-07
-2.36702891707e-06
-3.48725668313e-07
-2.31216717437e-06
-4.00157465983e-07
-2.24927864094e-06
-4.56958411353e-07
-2.17687914447e-06
-5.20824742667e-07
-2.09223274655e-06
-5.94403265186e-07
-1.9909106153e-06
-6.81884789625e-07
-1.8674043305e-06
-7.88477818563e-07
-1.71673941143e-06
-9.17631275858e-07
-1.53730200193e-06
-1.06694608995e-06
-1.33444095997e-06
-1.22493242996e-06
-1.11978859503e-06
-1.37369746425e-06
-9.04994976793e-07
-1.49126347716e-06
-7.00593468492e-07
-1.55149174596e-06
-5.18057517523e-07
-1.55823078858e-06
-3.72167889737e-07
-1.51492215559e-06
-2.07450378412e-07
-1.44257733751e-06
4.82101755394e-09
-1.19931847258e-06
1.49260013352e-07
-9.43482150139e-07
2.57901268407e-07
-7.87053840076e-07
3.27420646446e-07
-6.44951269958e-07
3.42514822385e-07
-5.01375941244e-07
3.31226714131e-07
-3.50568275826e-07
3.3691233639e-07
-2.35642747213e-07
3.52399072953e-07
-1.554727984e-07
3.5609073934e-07
-5.62478963273e-08
3.2746495339e-07
8.10646667279e-08
2.69449428573e-07
2.07748047349e-07
1.9509569496e-07
2.84739941861e-07
1.16413753811e-07
3.1706069695e-07
5.69271437353e-08
3.55179496502e-07
3.79083335468e-07
-1.58344726043e-07
1.10971530811e-06
-2.7883706063e-07
1.3144076208e-06
-2.88526453173e-07
1.24034791133e-06
-3.24873001285e-07
8.97808490079e-07
-5.55467375693e-07
1.10558975671e-06
-6.64076807452e-07
1.24595838282e-06
-7.6811002052e-07
1.21296483574e-06
-8.79170472909e-07
1.1617013648e-06
-9.37263445692e-07
9.64649050817e-07
-9.95939519913e-07
9.08406364966e-07
-1.0363416863e-06
6.05310758513e-07
-1.14069805346e-06
5.73744239569e-07
-1.2668904207e-06
5.78639401254e-07
-1.42868851109e-06
6.80474254627e-07
-1.56191608377e-06
7.44743964846e-07
-1.63245946222e-06
6.70913448403e-07
-1.69729498649e-06
6.0317969565e-07
-1.78440188362e-06
6.19866778095e-07
-1.86741153085e-06
6.34378407143e-07
-1.9387461597e-06
6.1606098985e-07
-2.00064996322e-06
5.81870162924e-07
-2.05282475849e-06
5.4059096846e-07
-2.09923367001e-06
5.02561083821e-07
-2.14798443259e-06
4.6311558582e-07
-2.19210557453e-06
4.02129788624e-07
-2.22386497673e-06
3.59359153064e-07
-2.26518576575e-06
3.34253128335e-07
-2.30847866923e-06
2.98338462754e-07
-2.34485375025e-06
2.64536664116e-07
-2.37616305469e-06
2.45199665601e-07
-2.41245051246e-06
2.25801470505e-07
-2.46650190402e-06
2.25895659863e-07
-2.50070992628e-06
2.28537620196e-07
-2.52496055114e-06
2.27869013181e-07
-2.54635790153e-06
2.04688266015e-07
-2.56387982893e-06
1.72090903092e-07
-2.57730205145e-06
1.39078998101e-07
-2.58701431198e-06
1.06631132243e-07
-2.59363504608e-06
7.31071349457e-08
-2.59741685454e-06
3.7163154477e-08
-2.5981017163e-06
-1.18245256138e-09
-2.59502839404e-06
-4.08583419517e-08
-2.58737204567e-06
-8.08004468135e-08
-2.57447459151e-06
-1.2074304201e-07
-2.55598076009e-06
-1.61219760684e-07
-2.53170186772e-06
-2.031108097e-07
-2.50143025011e-06
-2.47258710575e-07
-2.46487713595e-06
-2.94291313568e-07
-2.42171626498e-06
-3.44646506672e-07
-2.37158537151e-06
-3.98833310371e-07
-2.31394051606e-06
-4.57779112052e-07
-2.2477643101e-06
-5.23113397476e-07
-2.17109834606e-06
-5.97471821737e-07
-2.08057524308e-06
-6.84907038693e-07
-1.97152134542e-06
-7.90918936401e-07
-1.83899409345e-06
-9.20983018916e-07
-1.67917599677e-06
-1.07742458376e-06
-1.491156378e-06
-1.25494277637e-06
-1.28254225684e-06
-1.43352349955e-06
-1.06564603112e-06
-1.59057327448e-06
-8.40810285877e-07
-1.71608111794e-06
-6.23787101973e-07
-1.76850065643e-06
-4.29498694154e-07
-1.75250913936e-06
-2.63030032621e-07
-1.68138622571e-06
-1.35446872707e-07
-1.57015727865e-06
6.56187350168e-08
-1.40039175778e-06
2.84067013896e-07
-1.16193180391e-06
3.85878894883e-07
-8.88894272668e-07
4.29200159971e-07
-6.88263758553e-07
4.18108244717e-07
-4.90307027153e-07
3.95833594503e-07
-3.28287824606e-07
3.96887730787e-07
-2.36699351568e-07
4.21020882297e-07
-1.79604028504e-07
4.43552506801e-07
-7.87757286196e-08
4.19210082312e-07
1.05401448832e-07
3.30608993643e-07
2.96339521039e-07
2.24683334611e-07
3.90657721234e-07
1.25181866482e-07
4.16551238449e-07
5.14996309208e-08
4.28816707442e-07
4.30585514711e-07
-1.75980958195e-07
1.28579128091e-06
-2.91478968141e-07
1.42998499564e-06
-2.68462829477e-07
1.21739629727e-06
-3.79295216646e-07
1.00869861243e-06
-5.73593269591e-07
1.29996236277e-06
-6.30248140905e-07
1.30268589949e-06
-7.19120420274e-07
1.30191329447e-06
-7.82577610025e-07
1.22522288626e-06
-8.73639528685e-07
1.05577047932e-06
-9.02362151253e-07
9.37181697874e-07
-1.00588609275e-06
7.08879662089e-07
-1.13172692609e-06
6.99634719273e-07
-1.26935035519e-06
7.16314194415e-07
-1.41874790694e-06
8.29931461651e-07
-1.51349579362e-06
8.39551938016e-07
-1.57391965571e-06
7.31390981484e-07
-1.6704095626e-06
6.9972340666e-07
-1.76728195838e-06
7.16793343672e-07
-1.84852647041e-06
7.15674997986e-07
-1.92394584647e-06
6.91528909531e-07
-1.99530863555e-06
6.53278122608e-07
-2.05715043082e-06
6.02475428063e-07
-2.09778547207e-06
5.43233988095e-07
-2.13108157435e-06
4.96446797354e-07
-2.18718961438e-06
4.58270260377e-07
-2.22716659449e-06
3.99366048317e-07
-2.24475246767e-06
3.51868163952e-07
-2.27288555534e-06
3.26498273979e-07
-2.31765741637e-06
3.09333584682e-07
-2.37413314478e-06
3.0169884867e-07
-2.42696868088e-06
2.7865923694e-07
-2.46970187846e-06
2.68650573524e-07
-2.51203600971e-06
2.70893472041e-07
-2.5377610269e-06
2.5361544208e-07
-2.55700859799e-06
2.23956590454e-07
-2.57406663994e-06
1.89168971707e-07
-2.58814278336e-06
1.53174533319e-07
-2.59859368717e-06
1.17100893824e-07
-2.60566980465e-06
8.02017032432e-08
-2.60975601184e-06
4.12675301463e-08
-2.61069721498e-06
-2.23175971861e-10
-2.60781692792e-06
-4.37204759451e-08
-2.60032166309e-06
-8.82771288331e-08
-2.58757615801e-06
-1.33469279425e-07
-2.56911273908e-06
-1.79662851267e-07
-2.5445115203e-06
-2.27690400889e-07
-2.51333950982e-06
-2.78407828996e-07
-2.47519514003e-06
-3.32411220095e-07
-2.42975666664e-06
-3.90060391432e-07
-2.37672815285e-06
-4.51837015605e-07
-2.31562870594e-06
-5.18855539007e-07
-2.24537894486e-06
-5.93342436892e-07
-2.16381163442e-06
-6.79020055835e-07
-2.06754134186e-06
-7.81156640822e-07
-1.95267163551e-06
-9.05762854687e-07
-1.81583369244e-06
-1.05779379412e-06
-1.65255772506e-06
-1.24067479451e-06
-1.45635963701e-06
-1.45110851625e-06
-1.24131941543e-06
-1.64853767153e-06
-1.02899824593e-06
-1.80287144134e-06
-7.88240809455e-07
-1.95682201934e-06
-5.42098970647e-07
-2.014631136e-06
-3.09487959441e-07
-1.98511192665e-06
-1.06354197895e-07
-1.88451470355e-06
5.1439412513e-08
-1.72795166935e-06
1.98182219106e-07
-1.54713394531e-06
3.71099899946e-07
-1.33486825728e-06
5.10133265027e-07
-1.02792538109e-06
5.35919726374e-07
-7.14070132167e-07
5.05783627788e-07
-4.60161905978e-07