/*--------------------------------*- C++ -*----------------------------------*\
| =========                 |                                                 |
| \\      /  F ield         | OpenFOAM: The Open Source CFD Toolbox           |
|  \\    /   O peration     | Version:  v1806                                 |
|   \\  /    A nd           | Web:      www.OpenFOAM.com                      |
|    \\/     M anipulation  |                                                 |
\*---------------------------------------------------------------------------*/
FoamFile
{
    version     2.0;
    format      ascii;
    class       volScalarField;
    location    "932";
    object      alpha;
}
// * * * * * * * * * * * * * * * * * * * * * * * * * * * * * * * * * * * * * //

dimensions      [0 0 -1 0 0 0 0];


internalField   nonuniform List<scalar> 
6400
(
0.912827843444
1.49098691829
2.38685530815
3.0360775252
3.65443666601
4.26398223205
4.99510488575
5.80693017947
6.37186982085
7.18856947457
8.53231412583
9.56233069509
10.4558298526
11.4306066653
12.5844078367
13.8037373736
14.9437672671
16.0244898746
16.9495402443
17.5752745503
18.021707349
18.6387459903
19.6119721924
20.8997447956
22.2833375145
23.5630562128
24.6817559434
25.7399883073
26.8301621162
27.9675453553
29.0967843725
30.0447387434
30.7351035417
31.2726727243
31.709136428
32.0661953697
32.5807073939
33.26777098
33.6822954208
33.9042622547
34.4480567224
35.4225441785
36.3752340543
36.9616129986
37.2094598815
37.2129303632
37.0353986759
36.7146430867
36.2633700321
35.6996791997
34.9553058127
33.844026661
32.3292948572
30.5018832149
28.7407411217
27.0411594345
24.8689309319
22.0623913927
19.1358402962
16.496913897
13.8362011483
11.0761422001
8.60347601864
7.87171982612
10.1647050691
14.3262115398
16.9183745175
16.3387231703
14.1168977379
12.3458553311
11.4037054516
11.6285072356
12.2537482335
12.1976075435
14.4059520501
13.8967021073
15.8794691334
9.77205618345
12.8499353752
4.79729265678
3.18544775445
2.58743298695
3.24867521818
4.54585111682
4.60221308687
4.66201230048
5.00228239616
5.56172697563
6.3339157069
7.30185234242
8.44658506529
9.59362828954
10.6294351836
11.6297506783
12.6595767649
13.8264180425
15.0584958328
16.2331194683
17.3772900016
17.8503010696
18.1397728568
18.7482069771
19.7146850303
20.9968013144
22.4742324689
23.7107674673
24.8064264703
25.8945148949
26.9954217331
28.1063166806
29.213601674
30.2287932882
30.9126167606
31.4416619786
31.9020781467
32.2005728105
32.7487323145
33.4606950352
33.8482305653
33.9743804055
34.4967220039
35.8291147455
36.9835046898
37.4975978779
37.7005582882
37.6550789086
37.417406678
37.0552506587
36.4951624115
35.811866172
35.1126822492
34.3556923033
32.9702073559
30.7234208066
29.0371146622
27.1866013894
24.6470437628
21.8955823375
19.1256691062
16.3605601625
13.7109585558
11.3247441587
8.94818768987
8.35652185152
10.4957916687
15.3684346842
18.6707955264
17.1369636047
14.7537258293
12.6776694731
11.918404004
12.3623660661
13.5585085849
13.0172331395
12.9504256357
12.50509445
11.3863220157
9.60433622539
8.11359530045
4.19260564945
3.34846585168
2.99382463831
3.52731232581
3.9174809344
4.59409293577
5.12328664728
5.17866213404
5.44518707629
6.22476202073
7.27086727728
8.42849220471
9.59445428784
10.6712737097
11.6700646949
12.5564643267
13.6280164419
16.1379706844
18.1597840358
18.8012966987
18.5940288016
17.9463893909
18.477173781
19.8110393012
21.1372026515
22.4203998738
23.7048333333
24.8848458314
25.974826267
27.0569072742
28.1600543755
29.2419343511
30.3270732752
31.0001012425
31.3539854879
32.0404948669
32.3606150499
32.6907675654
33.532467872
33.9775336411
34.1734385648
34.7104349797
35.6564614681
36.5784299354
37.1639402586
37.4366202038
37.4793270742
37.3344888371
37.0214381135
36.5435394219
35.9186053779
35.1410592944
34.0988624799
32.6720015998
31.059653389
29.346180012
27.1388358859
24.576799784
21.8712950679
19.1171739254
16.3945500594
13.7875278052
11.2824606713
9.46291284825
9.62851004245
12.7291094054
16.3984084878
18.1351850388
17.9405215635
16.1737733327
14.3984603261
13.6659861171
13.5663929889
12.9026450045
12.3429744444
12.4053855761
12.1617776467
11.2667251097
9.68818389929
7.25128722979
7.47011821617
3.48156535637
5.62940314551
3.95353028931
4.1506360555
4.90458320415
12.0045361368
10.4573141166
5.91786658478
6.17335040452
7.25215104932
8.44334398262
9.63178340677
10.6829911246
11.674863915
13.3456227745
15.4090063313
17.1742803882
17.8845843645
17.3946417389
17.1670495133
17.8043448524
18.69743709
19.8146842272
21.1279912303
22.4866013912
23.7946286026
24.9963104384
26.071761068
27.1633732558
28.2141404668
29.3819449346
30.3223492352
31.1957029992
31.5224945234
31.7146380057
32.4153041143
32.8312114057
33.2702047272
33.8497893767
34.3816338813
35.0065700785
35.8267174506
36.6391747972
37.2207065963
37.530232838
37.6074021373
37.4884718071
37.1945028341
36.7341459525
36.1118901425
35.3067812222
34.2527146239
32.9042928118
31.3118252311
29.4466802324
27.194786757
24.6218786327
21.9027839188
19.1575425117
16.4821207113
13.9911473617
11.9239754532
10.8953781768
11.2143474156
12.7953146639
16.8987630245
19.822702135
19.7040268693
17.8677528503
15.3982791022
13.7097188724
12.8719084886
13.0550834294
14.5528967307
14.5550989318
13.293178004
13.2249695334
16.5892905886
12.9511234375
10.9357526474
5.91663627735
7.74550554251
4.86135636531
5.18567459836
6.87494577765
11.9079532573
8.61000719791
6.49838237712
6.70274497701
7.46235159819
8.57286558856
9.77022087895
11.238097587
13.4050356208
14.5305918212
15.156204806
15.5677336705
15.8739467673
16.3874657046
17.197992992
17.9152385388
18.7547029088
19.8990202311
21.2105496441
22.5754101629
23.904396573
25.0878440032
26.2522034693
27.2526974689
28.4221431316
29.4165907557
30.7541043517
31.1423861059
31.2575242306
31.7584976497
32.1067512996
32.6825025256
33.3529214902
34.0058924036
34.6200919855
35.276849925
36.0286760124
36.7654563271
37.3329687012
37.6676314442
37.776348952
37.6842265755
37.4121607043
36.9706905408
36.3579047183
35.550117182
34.5035714337
33.1872266634
31.5899700244
29.6558377269
27.3417776304
24.7461027357
22.0365412114
19.3515573438
16.829503302
14.6699172905
13.2038957147
12.760242551
12.7187103572
13.5110095228
16.7933882269
20.0660442971
21.0724843401
19.7119638907
16.8317897155
14.2453169179
13.8460511594
16.1322365186
17.0294832996
16.0264600924
15.1536331182
17.8923994507
20.9570739358
16.2024473663
15.3064046206
10.1831807281
9.38236891988
6.06517258868
6.52889627576
12.2032342545
11.7237903429
7.28168294918
7.1515712024
7.36139446903
7.81848788021
8.78714215327
11.2962235487
14.3544997698
14.9463723513
14.8497218509
14.3992655894
14.5519033738
15.2978609512
16.4285272478
17.1421100058
17.8314964225
18.8180702186
20.020247273
21.349432227
22.6556065756
23.9877434134
25.3503009321
26.3398248147
27.6201881052
28.4705242969
29.9829157886
30.5940145065
31.5522504313
31.3897887849
31.3601367855
31.9297324321
32.7194250185
33.4975879541
34.2094596992
34.874084085
35.551407167
36.2680034757
36.955980508
37.5079366811
37.8579453964
37.993231403
37.9275015167
37.6798602974
37.261564882
36.6681345716
35.8759527711
34.8479557118
33.5458775779
31.9271817249
29.9417883761
27.5994452721
25.0246763378
22.3905133652
19.8612937057
17.6236855079
15.9132135908
15.0178827787
14.9335138593
14.1755057163
15.5368695179
18.9422493983
21.5968094065
22.4793748629
21.309742025
17.814624218
15.4936099204
17.1947665038
19.3627384684
18.8240952383
17.8484637556
17.949513205
22.6267602145
24.2547647173
19.1721492574
18.9743250562
12.3394561415
9.39719385698
7.3615604541
6.9038982097
12.2083217923
8.89683547528
7.63961253519
7.79517769795
7.98197904007
8.72688319142
9.34152833293
13.9031447011
14.7523111743
14.9601777396
14.0221378365
13.5664372463
14.2185999517
15.6422131863
16.3456514089
16.8822785615
17.827346063
18.9073759452
20.1131591859
21.4378292402
22.8760119466
24.2551904638
25.3614060915
26.9094241168
27.7118027494
29.2948617369
29.7959261375
31.0121034613
31.1609049672
31.2108688484
31.2625256113
31.9248851733
32.8239314868
33.6777727689
34.4366187984
35.14078416
35.8393511034
36.5426830494
37.2033405468
37.7439080279
38.1043311718
38.2619055251
38.2224554786
38.0031135549
37.6149650615
37.051827077
36.288456741
35.2851498711
33.9930075943
32.3602320896
30.359416989
28.0440401758
25.562507319
23.0961466998
20.8152712396
18.8972395929
17.5546956954
16.8614911989
16.3705378138
16.2453859337
17.6338494346
21.8213812667
23.2818278166
23.0650758131
21.6804213382
19.2364020444
18.7685179716
21.1512810476
21.483059649
20.6173978072
20.0226510213
22.0565174563
24.8904726944
26.4220808568
21.7682062003
20.6178204702
12.1395633481
9.22309364659
8.56098083553
12.4720393718
12.4025499726
8.19740592423
8.34684689407
8.54002286461
8.64225072892
9.2702875113
13.5863152376
14.585161154
14.8366074918
14.5833088532
13.0720043751
13.2410492982
14.8395228793
15.7168541921
16.0270735729
16.7491365946
17.836067703
19.0320500171
20.2743779798
21.6417789896
22.948444755
24.5093384307
25.4055984927
26.9141471622
28.6042393267
29.4266520913
29.5582638757
30.5998983224
31.1698198923
30.8686667071
31.2836954518
32.0769694941
32.9880005124
33.8739933273
34.6787589074
35.423788131
36.1474480757
36.8535413451
37.5038128762
38.0393276614
38.4086946566
38.5865788394
38.5748481239
38.3890584661
38.0393145829
37.5173554077
36.79465651
35.8257786908
34.5554342054
32.9386634619
30.9805709409
28.7725655732
26.4732032088
24.236427167
22.1814329941
20.4608131646
19.2725335252
18.6321980658
18.3820083266
18.5650289474
18.5401430787
22.6702828048
25.456945717
24.8482626291
23.8540902573
22.6110071688
23.0972261672
24.1920648619
23.3567036431
22.6069537028
22.7994439848
25.2246876806
25.9813926739
26.6514849819
23.7486985958
21.5868876085
11.5327360473
9.29200343243
9.25554967191
13.4986692005
11.572545102
8.94718406897
9.11769713604
9.44496128578
10.4905567956
9.44242373315
14.3499949809
15.1461387761
14.9064782166
13.5465288527
12.8330975299
13.3615690544
14.8718080559
15.4711329379
15.9176914639
16.7412999673
17.8131468137
19.0644131361
20.3903204766
22.0928330046
23.5493012146
24.4705941012
26.4142295894
26.8514827295
28.7114702489
29.0691777136
30.3476678998
30.1226513825
30.3573844431
30.8168303465
31.4578043529
32.2804427977
33.1856269159
34.0889529942
34.9364507467
35.7267952516
36.4818691031
37.2019024312
37.8551176808
38.3934055764
38.7732153542
38.9720653724
38.9916357295
38.8460415021
38.5436250523
38.0741987704
37.4060894538
36.4896358675
35.2708811574
33.7241491778
31.890777205
29.8848781812
27.8323676591
25.7888074103
23.8102338401
22.1616986954
21.1667685962
20.8464554356
20.889580603
20.9084656557
20.687164286
21.1848400934
26.1767969478
27.20194814
26.6278125989
26.7161187266
27.2770300346
26.5637733589
25.3220307845
24.9961664906
25.9841072668
27.2822051754
27.2509701649
26.741006451
25.768668072
24.4152800515
11.1532824431
9.84212752218
10.40256253
13.6210097434
9.9223125439
9.98237636232
9.89303344126
10.1904753086
13.0014466417
11.8649610425
15.1822333882
15.457584963
15.0380231589
13.0252662044
12.9099216898
14.4409780624
15.0592338888
15.2498229971
15.8647920595
16.8472333999
17.9089201658
19.1041455125
20.2895867514
22.1858384567
24.3580273539
24.4097680886
26.3346229973
27.862913065
28.8924379045
29.8693075975
29.8496116914
30.2558419948
30.1422685455
30.7553562553
31.6218897477
32.5062747877
33.4118139139
34.3255086833
35.2102060684
36.0498016102
36.84586354
37.5907039768
38.2572239949
38.8062017913
39.2012609488
39.4245312142
39.480538571
39.3830615207
39.1380203036
38.7338442683
38.1384694324
37.3032936959
36.1850754911
34.7863648306
33.1791909806
31.4616646834
29.6417619203
27.6187524787
25.5839736001
24.1798082935
23.7159461281
23.8555298302
24.0161760916
23.8167757273
23.2247540005
21.733369404
20.7896811233
29.3271905587
31.4958751445
31.7685353869
30.9508402413
29.0042527131
27.7081517577
27.7782139306
28.9291548817
29.3869081752
29.3470307027
29.249845412
29.7183248162
29.9814972325
11.2929523824
10.7698008763
13.6745549748
13.9080668673
10.1990586511
10.7870159151
10.6692369462
11.091007682
12.680843536
15.1960544006
16.0789696771
15.797927004
15.3634920861
13.1650223796
13.0826997087
14.893238646
15.1789469821
15.235806963
15.8631188281
16.9352436256
18.1939272468
19.4232645692
20.411896624
21.798045958
24.4738422729
25.8741418762
26.0508998063
27.9181841554
28.0591140479
29.8469245616
30.5848006856
30.2405333317
30.1363201023
30.8563139578
31.8089469333
32.7399522799
33.6609904423
34.5877823981
35.5027483473
36.3919166962
37.239474626
38.0215107015
38.7115839199
39.2793346671
39.696492712
39.9512419746
40.0514509743
40.0106505742
39.8333196969
39.508878358
39.009555421
38.2960868107
37.3468654985
36.1967234093
34.923447667
33.5264137176
31.7961536997
29.6213882323
27.7181602629
27.0776639757
27.5443907476
28.0972685428
28.250084886
27.7805330932
26.6862748406
24.7570030777
22.1814772129
21.9670060032
33.325685265
37.5553020524
35.463364862
32.2619608501
30.8042561442
30.918241349
31.627311401
32.1451421145
32.8862199178
33.8083255705
34.6159562411
35.4117379378
11.7813747225
11.7067733689
15.3555320981
14.7430147509
13.0287484324
12.0575451346
11.6802686726
12.5223160592
12.3175895364
16.1765303012
16.807927862
16.223113991
15.5758937928
13.8842577063
13.8315493667
15.3171166606
15.234545275
15.3277345027
15.9498543264
16.9387841251
18.282354891
19.8381576784
21.5937616904
21.8530702274
23.9635396395
26.1700520048
25.9705089661
28.0789815086
29.2752523695
29.2362247628
29.8961797144
29.8491485382
30.3850499457
31.1445930214
32.048244744
32.9922048316
33.935355537
34.8818927541
35.8206757112
36.7513983734
37.6585420588
38.4954265669
39.2211780714
39.8154282453
40.2635858969
40.5605242442
40.7155911082
40.7410238497
40.6415126191
40.4116575904
40.0350461418
39.4943891637
38.8018867285
38.0135397303
37.1468041674
35.9852843155
34.2168327823
32.0973084091
30.7131004464
31.6570453258
34.0373464006
34.6914546976
34.7850640832
34.1411973619
32.7778111374
30.3278270928
26.7168829884
21.9131124837
28.620340139
38.6495623504
40.4732879467
36.6406035813
35.0247715563
34.9283844473
35.2110455244
35.7107193081
37.5117470794
39.0688417521
39.2933956058
39.7033232772
12.4672319642
12.4063432011
15.1857740915
15.3229733599
15.3851452899
13.2784698533
12.8158201886
15.2555122992
12.8103038979
17.0456057329
17.3654403699
16.6532421539
15.7752971465
14.5737912376
16.170736066
16.33567561
15.4799179738
15.5596346481
16.1725691897
17.0338788076
18.1962609264
19.8051893759
22.6998410343
23.7370074679
23.4862886831
26.1504290988
27.356140724
27.6643824251
29.1912028641
30.0138372598
30.1348734217
29.8866409298
30.563958932
31.4405454108
32.3397047372
33.2770356528
34.2296246503
35.205903573
36.1824674074
37.1449594902
38.1004580089
39.0029395924
39.7850261801
40.4191703098
40.9087107109
41.2615176339
41.4856837198
41.5881366632
41.5747590444
41.4513032611
41.2243460604
40.9158076981
40.5777817866
40.2423635896
39.7492026228
38.6994819845
37.4414146064
36.363340108
34.971193477
37.5823110697
36.6753416471
34.6125463224
31.857953643
28.7034307714
24.0994206084
18.172011409
15.0603970017
0.16758940492
0.00707576712097
26.9539213281
36.3162618304
36.5193091879
32.1503522203
31.553805133
33.8011235807
36.7099170892
41.4205500985
44.5237087991
44.9023643401
45.28262092
13.2012303683
13.1542326487
12.8052344579
15.7087129295
15.9877000696
14.1329548044
13.8259178984
16.3070302736
13.5528985506
17.9581827819
17.8757809743
17.0944721784
16.0647166849
14.9439532281
17.2955938484
16.9980952444
15.9896404014
15.9774801493
16.5103501605
17.2993011504
18.2287325035
19.6347650212
23.1122182334
24.7638973761
23.7819236685
26.0655771555
27.789757155
27.2821649883
28.7645306638
29.6416240802
29.5166004057
30.1861944258
30.9555543095
31.7854068584
32.661974319
33.6070499509
34.5703470196
35.5483646337
36.5657388422
37.585697395
38.5873685863
39.54624195
40.3944917721
41.0884059399
41.6377096907
42.065125418
42.3760064647
42.5658111668
42.6433170999
42.6326167369
42.5759956
42.5605472903
42.6649636382
42.7896174302
42.4520811453
41.788595769
42.2052118948
34.640009226
26.65776327
3.6189800107
1.22671888608e-10
2.49118973577e-14
8.62828984346e-17
8.80325326591e-18
6.98590274676e-19
1.96778785799e-19
2.31623436894e-18
2.36661957254e-17
2.67334671707e-16
6.98253483157e-16
1.15950433218e-12
3.04364213229e-10
2.77737153497e-07
0.000143863795871
0.363617119631
38.161369834
43.3340073091
48.0828059703
51.6573810222
51.9805060329
14.1095635499
14.2113495457
16.3623763593
16.4160476881
16.5088690304
14.8614158416
14.8942486776
17.2269551374
14.6126677023
18.7670698305
18.3724393859
17.5606661775
16.4324280975
15.3684841461
17.6138244436
17.2904457023
16.4865029758
16.4592531431
16.8989929836
17.6014053973
18.4399587433
19.5744910644
22.5789382893
25.5214584783
25.8195723224
25.4886633712
27.9270666885
29.0289114022
27.9244394967
28.4688852972
29.4299831237
30.382773114
31.2810630391
32.1461443037
33.0349177442
33.9666578811
34.9442423569
35.950662486
36.9792950989
38.0510261869
39.1217308899
40.1412141169
41.0525035654
41.8169152037
42.4503517026
42.9795813632
43.4006004418
43.6931145057
43.8590024845
43.9469340964
44.0749520177
44.4081124695
44.9880742393
45.3497418915
44.5517424828
42.7822020147
27.7166268745
2.92595503641e-20
3.21824711813e-23
6.03306286949e-25
1.02264550011e-26
2.95876716273e-29
8.40817041418e-32
1.45543838423e-36
1.13844822233e-36
2.76389049303e-36
1.86308071416e-35
8.72656604803e-35
3.22359785417e-34
2.04854605948e-33
1.60396583481e-33
1.39152756771e-31
7.92011695949e-29
7.96140755625e-27
6.04136344963e-25
1.39118001873e-22
2.34179374351e-18
38.0161473611
55.706893805
51.1134231704
14.9652553565
15.1611862613
17.9988686056
17.1646699239
16.7371114363
15.5810125267
15.9196554209
18.0277490104
18.0114878928
19.776949536
18.9423702634
18.1237111458
16.8892941283
15.9270162506
17.9497709315
17.5032578604
16.9429896097
16.9400798683
17.2983660106
17.9083428758
18.696270289
19.7410175417
22.0888526946
25.7233322795
27.0903111991
25.2945126098
27.3531020588
29.0912967142
29.3471380118
28.7796274731
29.443375153
30.5461963419
31.5925848039
32.5366489252
33.4114845147
34.3555406756
35.3434141493
36.3817560605
37.4465287435
38.554058513
39.69323525
40.7911966784
41.7668426509
42.5964019282
43.3320440578
44.0179112718
44.6021573967
45.0003901933
45.2053562399
45.3702282737
45.7166764099
46.4303281296
47.4745955882
47.4075877299
39.3320481143
16.1409866209
1.61802584232e-26
6.55222382703e-29
1.89479706458e-30
2.75847719448e-32
2.24120442835e-35
3.73966436679e-38
2.6361065747e-39
0
0
0
0
0
0
0
0
3.66637469672e-43
1.23659228253e-40
1.84967847675e-38
1.0731242179e-35
1.4988911696e-32
8.11687877092e-28
1.23264602808e-23
9.61018058128e-17
61.5862198393
15.6577815827
15.8753203208
20.0825500352
17.7527261292
16.7285856178
16.2064220534
16.6593350678
18.1791044975
19.5795041112
20.9193173647
19.6616892746
18.8202950102
17.5913974475
16.7617018729
18.4890568195
17.8581444
17.4645777255
17.4585336182
17.731463325
18.2491747348
18.9572052584
19.921717038
21.8602205771
25.5446402673
28.0159976883
27.4788171526
26.8152326487
28.4028811215
29.1515220956
28.8785235235
29.8099237775
30.9240701734
32.0188847178
32.9700706822
33.8745526677
34.7825147843
35.7884668727
36.8440283619
37.9520999754
39.1058520945
40.3000360118
41.4821110541
42.5554384504
43.4553385867
44.2973198301
45.1735796853
45.9638146168
46.4719683084
46.7041911253
46.9300829485
47.4961182084
48.6507300166
49.8580733004
37.6579067093
0.0308694804247
2.34253051038e-29
7.68248011665e-33
3.10647766935e-34
4.23558878688e-36
1.16151355645e-38
0
0
0
0
0
0
0
0
0
0
0
0
0
4.72412337794e-42
4.69444396178e-41
1.02912383039e-39
4.99007914603e-38
2.77110545368e-34
2.3065673318e-25
4.44628084236e-30
16.1840899087
16.3942744517
22.0771557102
18.1970252092
16.9248921243
16.7687556636
17.4439594893
17.6800771481
20.4979218152
21.7312369653
20.344900816
19.5236884362
18.4743607352
18.5399992303
19.246838202
18.4502656104
18.174582542
18.1617972794
18.2688490481
18.671725072
19.2668758633
20.1442827279
21.8026123416
25.3257174635
28.3612398456
29.0377332747
26.7959977603
27.4606108262
28.1090045176
28.9137029922
30.0549477074
31.3243477782
32.4417470077
33.4489621031
34.3867364052
35.3473110845
36.2968524415
37.365050328
38.5006501285
39.6880740033
40.964753012
42.2456028226
43.4105385879
44.3424295303
45.2420358543
46.5979703828
48.1848080193
48.9217092436
48.6385853901
48.7397338936
49.4250475879
50.7480278866
37.2280708331
1.23962524913e-23
1.86827763496e-28
8.38138721648e-40
8.46949561277e-37
1.38198827937e-38
0
0
0
0
0
0
0
0
0
0
0
0
0
0
0
0
0
0
7.29862251061e-41
4.94250661311e-40
9.11439197312e-38
94.4013238518
16.6167983455
16.7940211283
21.9433235692
17.7279843623
17.1601342095
17.2425169714
18.323443245
17.7469436485
21.2796703281
22.4723485198
20.9774437101
20.1622485892
19.1585133155
20.629887722
20.2766709693
19.236143054
18.9888407432
19.1867166763
19.0226960626
19.2590539007
19.6713747134
20.4137442209
21.8774600413
25.092585346
28.1631849997
30.0571151716
29.1317770016
28.5430525483
28.7514118225
29.0438223717
30.2460179106
31.8098457367
32.84843015
33.9403917706
35.0739090505
35.9300098454
36.8878901512
37.9760160624
39.1468354739
40.3648065643
41.6486148787
43.011870781
44.3226128572
45.5473795259
46.848431092
48.5387421429
50.0834205205
50.6918952961
51.0453460754
51.2690778866
51.4997793004
40.6883060218
5.63733194156e-23
5.14575832605e-28
6.76318579533e-32
9.18570262267e-34
0
0
0
0
0
0
0
0
0
0
0
0
0
0
0
0
0
0
0
0
0
0
2.24577438055e-40
1.6345950171e-29
17.0918835623
17.2444872712
21.6059393992
17.4489363791
17.4477474839
17.6183150476
19.0746663747
18.2208987335
21.9710941675
23.1940823575
21.5904273808
20.7792410997
19.7125991993
21.3903912215
21.2154163272
20.0682718842
19.780439633
20.0673273541
19.918681172
20.0567266693
20.2632891286
20.7431211176
22.108693517
24.9918226841
27.7990101017
30.2745779021
30.2377672516
29.1298014849
28.3972333051
29.4235210856
30.6069400701
32.1487146796
33.5120891605
34.7561721891
35.8488586726
36.6259525332
37.561758678
38.6677013
39.8723738898
41.1430243968
42.4639251233
43.921132661
45.4988578218
47.1699434803
48.5032549032
49.5775784348
50.9810538167
52.3252956651
54.2829531868
55.3391915978
44.8631747075
5.13670566961e-22
6.82056448601e-28
1.17617137671e-31
2.4123880634e-34
5.84085555006e-36
1.96057694667e-38
0
0
0
0
0
0
0
0
0
0
0
0
0
0
0
0
0
0
0
0
0
3.77409937838e-41
4.99347819599e-41
17.7899400793
17.9417064549
21.3157258563
17.7261079642
17.9710027657
18.0788962376
19.1152521076
18.9138000195
22.4803166845
23.8752318493
22.2218301124
21.4264602834
20.3588744913
22.0609218001
22.0385774131
20.9556388806
20.6033045574
20.9077515525
20.7868973894
20.9874911303
21.1042483371
21.2212875441
22.5304400863
25.096789898
27.5758251831
30.2523318419
30.7347853867
29.927562414
28.8926374161
29.5602278209
31.0436192122
32.2911524037
33.5720989587
35.0010112009
36.684846125
37.6041422957
38.4692193944
39.4715106183
40.6540480112
42.0036491848
43.4398099216
45.0317759785
47.0825365127
48.9045062478
49.7474345451
50.7564595404
52.7386956846
56.3382645836
62.3032168879
49.5076424183
1.46757280747e-22
2.43789610423e-29
1.00885841725e-33
3.30771565558e-37
2.07541418576e-39
4.20669636242e-39
6.45991587631e-40
0
0
0
0
0
0
0
0
0
0
0
0
0
0
0
0
0
0
0
0
0
2.78954761344e-42
1.26665160361e-41
18.8530064946
18.9690629424
21.622282057
18.6145910698
19.0638609145
18.8920246185
19.4366872589
20.1550117474
22.5748483472
24.3911107051
22.9003226811
22.1276494697
21.0953599025
22.8239042075
22.8795809263
21.981958132
21.5815474855
21.8722305799
21.6560988586
22.0000821838
22.227805804
21.9002472967
23.0372949107
25.4151928932
27.5565668696
30.0353636453
30.9099972737
30.5887813959
30.6660155638
30.3129037703
31.3024043517
32.8549594847
34.6602667346
35.5326843001
36.9822539626
38.5522888915
39.5028406443
40.5532044066
41.6605595218
42.9526748754
44.522271527
46.6706782754
49.1928668464
50.4464207837
50.92226464
52.4768257726
56.6125603319
62.7112396299
56.0302228622
34.5812313574
3.69354419518e-31
3.44842713005e-36
2.35952752041e-38
0
0
0
0
0
0
0
0
0
0
0
0
0
0
0
0
0
0
0
0
0
0
0
0
0
0
0
20.3461267744
20.2464337219
22.4312407072
20.3999210015
20.9144532962
20.0924653273
20.3425160718
21.9489769111
22.809552523
24.9950467174
23.6752664758
22.8921877107
21.8963756758
23.6181970784
23.7124573991
23.1052377316
22.9972884811
23.1295166942
22.6138765659
23.0898361275
23.621301442
22.8563390869
23.4291267148
25.8242795132
27.7489003445
29.8450901598
30.978153964
30.7109562714
31.7720719225
31.7852549551
32.2047551057
32.5824900472
34.4407173386
36.5604133731
37.8634230732
39.2927606366
40.5337017626
41.6400852559
42.8645124069
44.1846118653
46.0635919437
48.9996155277
51.2823095818
52.1166630338
53.0843628313
56.4264954103
63.346157455
59.2854878448
34.5273476036
3.29618282909e-33
5.76242329862e-36
2.63854015565e-38
0
0
0
0
0
0
0
0
0
0
0
0
0
0
0
0
0
0
0
0
0
0
0
0
0
0
0
0
21.9169943749
21.4332566596
23.2862602287
22.7651794141
22.5340065763
21.4608590807
21.3168492269
23.0157659797
22.1245270003
25.46011501
24.5289891863
23.7104268728
22.7489341884
24.4108382672
24.4761563447
24.0337084305
24.9153009548
24.6283053319
23.6698654348
24.2646046686
24.860429791
24.0606023857
23.563505778
25.7423910292
27.8373400341
29.6696324526
30.93067366
30.6856169032
32.0874854367
32.9732482262
33.5233644679
33.2586624004
34.4858204165
36.4645053288
38.678038675
40.4350732826
41.7832802737
42.887388675
44.1109093345
45.7428711459
48.5090043622
51.6375096458
53.5425273969
54.737681719
57.111057556
61.9344560119
61.1324499239
33.6043858372
8.87525779687e-33
1.28488081711e-35
4.49990049662e-38
0
0
0
0
0
0
0
0
0
0
0
0
0
0
0
0
0
0
0
0
0
0
0
0
0
0
0
0
0
22.6569146282
22.2229537815
23.7969268353
23.736295443
23.5086512783
22.7237840683
22.4029397083
24.2872929611
23.0949337109
26.0495672667
25.3871857731
24.554926917
23.646166044
25.2117790608
25.2228799537
24.7825340865
25.8139617775
25.6567792185
24.6436655868
25.3711647755
25.512762843
24.7739835443
24.402436816
24.6058356638
27.1519983116
28.9803583238
30.5407948398
30.4706439752
32.0047311063
33.4039723121
34.5796183628
34.8858149922
34.8253647844
36.4073509061
38.8038192857
41.2281768435
43.1411065501
44.5107011815
45.7293803754
48.1330493436
51.5515743509
54.4207878667
56.1480109799
58.1078759698
61.7394458024
58.3984470657
36.0376279186
25.8222158046
4.22355497149e-35
1.20289032163e-37
0
0
0
0
0
0
0
0
0
0
0
0
0
0
0
0
0
0
0
0
0
0
0
0
0
0
0
0
0
0
22.6554666778
22.6565978343
24.0539928414
23.8681835006
24.0745737046
23.6659356909
23.3198511566
25.531858345
24.6524871397
26.7825823205
26.2827186954
25.4080563338
24.5825279717
26.0360763378
26.0128054829
25.629804939
26.5334999356
26.516072937
25.6203380548
26.2725107986
25.3523924423
25.3907707254
25.2668631613
25.4806328009
26.2318014319
27.3363472602
29.4107259638
29.9457322866
31.3869843303
33.2274770824
34.8585592219
36.0894731783
36.1933801105
37.0557052545
38.9102363174
41.3657409869
44.0183992347
46.1998022551
48.0225415325
51.2267292157
54.71077108
57.1910606585
58.7193238196
60.7442401266
56.5395529277
38.1578454535
40.083290829
1.46707535005e-34
3.28638602279e-37
0
0
0
0
0
0
0
0
0
0
0
0
0
0
0
0
0
0
0
0
0
0
0
0
0
0
0
0
0
0
0
22.7722752623
22.9051230528
24.2306208451
22.9253140709
24.2478968242
24.1247908394
23.8823563794
26.0491484521
25.3888325169
27.4896578971
27.1800434145
26.2339590973
25.5626034173
26.8709981808
26.8239913482
26.5948432932
27.3476079559
27.4809580194
26.7246303113
27.5503461026
26.5568609358
26.8329354224
26.3848145355
26.6631622464
27.8218669797
28.4132770498
28.7205816265
29.2898677744
30.6361997436
32.8416881989
34.5341768743
36.0772898286
37.2126790797
37.9593544993
39.9399558799
41.933171554
44.6813060334
47.7292325217
50.814951431
54.6173286566
57.8301761209
59.7326218409
59.8489731184
57.948706886
58.2739940723
35.5308657311
1.23106138188e-33
2.8025714751e-36
0
0
0
0
0
0
0
0
0
0
0
0
0
0
0
0
0
0
0
0
0
0
0
0
0
0
0
0
0
0
0
0
23.3017458868
23.4007292599
24.3995279349
23.1704666089
24.3671648938
24.3068286408
24.215458444
26.1395566148
25.8406005272
27.9656136999
28.0212555039
26.9721135617
26.5714850753
27.6629621133
27.5679946994
27.5083467536
28.1152845958
28.5140730809
27.8731446139
28.8566084383
28.1915234551
28.6926833121
28.5579534457
27.5576292378
28.4836195745
29.3177932787
29.525629196
28.6840580205
29.7494897917
32.3334666265
34.2694341721
35.4113086827
36.7169441691
37.9423008733
40.0832153891
42.3945431449
45.3974452295
49.2304679658
53.7871671107
58.1727398068
60.8109816083
61.537646743
60.1053815663
55.4430893598
35.9358870369
49.0085334813
1.95294198073e-35
7.91922315105e-38
0
0
0
0
0
0
0
0
0
0
0
0
0
0
0
0
0
0
0
0
0
0
0
0
0
0
0
0
0
0
0
0
23.9919649632
25.0130886989
24.6837816503
23.9270544592
24.7223543692
24.5138596727
24.500803684
26.1677909227
26.2185735148
28.0789915513
28.7979594547
27.5814351497
27.4218212287
28.2557967586
28.2119392259
28.1435507099
28.3366466378
29.4110008959
29.0490406411
29.9564718517
29.9183867958
29.8795950518
29.7832410472
29.4067286595
28.6778407706
29.2367724631
30.0823213539
27.742561173
28.6605827397
31.14684339
33.8185882607
35.3936807546
36.7635319295
37.3873607811
39.4325171914
42.2075141697
45.6643151105
50.5681691269
56.782817546
61.6960669227
63.4963796481
60.7831753655
59.4454289505
62.8391402373
42.6202667603
1.32372179003e-34
3.37845639843e-37
0
0
0
0
0
0
0
0
0
0
0
0
0
0
0
0
0
0
0
0
0
0
0
0
0
0
0
0
0
0
0
0
0
24.4355983243
25.5068601038
25.1578326784
24.5580491259
25.1876506128
24.8496697948
24.8155279602
26.234623709
26.5537551073
27.9008965407
29.4372680246
28.1102382389
27.8489696565
28.6693287513
28.8494372703
28.6444339925
28.4404214979
29.9876823102
30.2088637538
30.8654715359
31.0453917645
31.2836384372
30.2513225135
30.2477852964
29.6755053384
30.4748071075
30.9778948682
28.7083365376
27.4057766701
29.3553377592
32.328188109
34.8146144456
36.3948893436
37.1864509805
38.2508889957
41.1087241254
45.0223268802
51.408103757
59.6231879284
65.3149338153
65.3915757952