/*--------------------------------*- C++ -*----------------------------------*\
| =========                 |                                                 |
| \\      /  F ield         | OpenFOAM: The Open Source CFD Toolbox           |
|  \\    /   O peration     | Version:  v1806                                 |
|   \\  /    A nd           | Web:      www.OpenFOAM.com                      |
|    \\/     M anipulation  |                                                 |
\*---------------------------------------------------------------------------*/
FoamFile
{
    version     2.0;
    format      ascii;
    class       volVectorField;
    location    "932";
    object      U;
}
// * * * * * * * * * * * * * * * * * * * * * * * * * * * * * * * * * * * * * //

dimensions      [0 1 -1 0 0 0 0];


internalField   nonuniform List<vector> 
6400
(
(-0.000119940709581 -0.000155032759817 0)
(-0.000314124787693 -0.000110679019485 0)
(-0.000453268421125 -8.4718536419e-05 0)
(-0.000597287838325 -7.20272915548e-05 0)
(-0.000704064513461 -4.66565001685e-05 0)
(-0.000782717419056 -2.7957079118e-05 0)
(-0.000830575532997 -2.05709063361e-05 0)
(-0.000871605117974 -2.90044471524e-05 0)
(-0.000956486673889 -3.84208095681e-05 0)
(-0.00103827623103 -3.59382797493e-05 0)
(-0.0010828711064 -3.20740271351e-05 0)
(-0.00115509036886 -3.23139476363e-05 0)
(-0.00122039653348 -2.85535414909e-05 0)
(-0.00127314102433 -2.32388932098e-05 0)
(-0.00131395333977 -2.08691572593e-05 0)
(-0.00135530015178 -2.28000292963e-05 0)
(-0.00140332455662 -2.31418645058e-05 0)
(-0.00144550794683 -2.017572181e-05 0)
(-0.0014789218674 -1.65058974404e-05 0)
(-0.00151170586992 -1.52110404006e-05 0)
(-0.00155119198863 -1.87874811288e-05 0)
(-0.00159535612528 -2.20972416746e-05 0)
(-0.00163905288693 -2.18812161474e-05 0)
(-0.00167770010816 -2.02046547665e-05 0)
(-0.0017129460445 -1.80359460717e-05 0)
(-0.00174621674686 -1.58660995573e-05 0)
(-0.00177824986702 -1.45086679349e-05 0)
(-0.00180689849456 -1.29381878837e-05 0)
(-0.00183092161507 -1.106187744e-05 0)
(-0.00185083569911 -9.56941168786e-06 0)
(-0.00186715124717 -8.87199800301e-06 0)
(-0.00188314160391 -7.90324580017e-06 0)
(-0.00189882624635 -6.52132499256e-06 0)
(-0.00191181072771 -6.12200936199e-06 0)
(-0.00192375789562 -5.80957280206e-06 0)
(-0.00193772564867 -5.2670246461e-06 0)
(-0.00194817963815 -4.93624712495e-06 0)
(-0.00195174901715 -4.00411651765e-06 0)
(-0.00195938004226 -2.40433069292e-06 0)
(-0.00196865804421 -9.27155992645e-07 0)
(-0.00197072697834 -5.31201524403e-07 0)
(-0.00196461798241 7.0114365574e-07 0)
(-0.00195615989182 3.77631722978e-06 0)
(-0.001946822411 6.11821642478e-06 0)
(-0.00193440198846 7.54448304415e-06 0)
(-0.00191868878055 9.14518870313e-06 0)
(-0.001899363957 1.09380740395e-05 0)
(-0.00187584594035 1.30852295863e-05 0)
(-0.00184806619197 1.52713158596e-05 0)
(-0.00181573297931 1.65096285343e-05 0)
(-0.00178014687869 1.67571779471e-05 0)
(-0.00174389693706 1.86852212373e-05 0)
(-0.0017021233827 2.38137068936e-05 0)
(-0.00165528173613 2.77453589542e-05 0)
(-0.00159680101158 3.15202366033e-05 0)
(-0.00152318680039 3.63449331332e-05 0)
(-0.00144617661682 3.77525535281e-05 0)
(-0.00137435292462 3.84711084457e-05 0)
(-0.00129786193511 4.26780448148e-05 0)
(-0.00120290980149 4.65542191992e-05 0)
(-0.0011038826591 4.83117071918e-05 0)
(-0.00100312613304 5.54996525986e-05 0)
(-0.00090924862283 7.07578100919e-05 0)
(-0.000769953266252 8.14762541554e-05 0)
(-0.000576522422968 6.76972368353e-05 0)
(-0.000439681021256 4.91144342035e-05 0)
(-0.000358556297722 4.10857468796e-05 0)
(-0.000294334332611 3.65263120868e-05 0)
(-0.000232486499013 3.39982795644e-05 0)
(-0.000167570167826 3.15052084825e-05 0)
(-0.000107789984836 2.75560924535e-05 0)
(-5.66719922609e-05 2.16707060196e-05 0)
(-2.03764818561e-05 1.56646255033e-05 0)
(4.49694363532e-06 1.03090355649e-05 0)
(1.82488399408e-05 4.91827233977e-06 0)
(2.73723856498e-05 1.83585089554e-06 0)
(2.41868298806e-05 1.7540329466e-07 0)
(3.04874168901e-05 -2.42712661919e-06 0)
(1.45904668079e-05 -2.95168106583e-06 0)
(1.13446081631e-05 -6.59433553753e-06 0)
(-4.65631083099e-05 -0.000223412073781 0)
(-0.000195645642208 -0.000243852297671 0)
(-0.000337748003978 -0.000213124017389 0)
(-0.000432058640015 -0.000170568449253 0)
(-0.000607083665817 -0.000162921545785 0)
(-0.000753857419909 -0.000114815735388 0)
(-0.000840097863399 -7.65154938425e-05 0)
(-0.000901709106308 -9.18998730523e-05 0)
(-0.000966690996447 -0.0001118124018 0)
(-0.00103737792027 -0.000108034598144 0)
(-0.00110347160957 -9.91434427876e-05 0)
(-0.00116380086878 -9.31822281577e-05 0)
(-0.0012194883683 -8.1944625278e-05 0)
(-0.00126882893083 -6.93571022972e-05 0)
(-0.00131557789644 -6.35199780986e-05 0)
(-0.00135943483635 -7.09555075506e-05 0)
(-0.00140355568188 -7.32359026489e-05 0)
(-0.0014417480938 -5.71821846732e-05 0)
(-0.00145663220288 -4.51725370785e-05 0)
(-0.00149589410156 -4.6585959521e-05 0)
(-0.00154404101015 -5.80886201132e-05 0)
(-0.00159216428016 -6.93116125879e-05 0)
(-0.00164061528919 -6.80049839087e-05 0)
(-0.00168138250786 -5.94710736027e-05 0)
(-0.00171041451322 -5.28505988313e-05 0)
(-0.00174664441925 -4.86451985214e-05 0)
(-0.0017801174474 -4.39147357716e-05 0)
(-0.00180743430937 -3.84130745361e-05 0)
(-0.00183085759509 -3.31651539029e-05 0)
(-0.00185151889223 -2.89287151068e-05 0)
(-0.00186886609103 -2.62107396714e-05 0)
(-0.00188157703182 -2.30814950139e-05 0)
(-0.0018972843553 -1.88777723279e-05 0)
(-0.00190984561837 -1.81515246974e-05 0)
(-0.00192057263641 -1.84640671193e-05 0)
(-0.00193804219217 -1.58968126804e-05 0)
(-0.00194691081724 -1.43537760938e-05 0)
(-0.00195036625074 -1.29605492693e-05 0)
(-0.00196022009413 -9.20181436533e-06 0)
(-0.00197384249958 -3.59398544082e-06 0)
(-0.00197675193857 3.42792092216e-06 0)
(-0.00195373806879 9.6170950056e-06 0)
(-0.00193636119333 1.37492176774e-05 0)
(-0.00192956926181 1.70359795715e-05 0)
(-0.00191889568204 2.06710656089e-05 0)
(-0.00190606966292 2.5164541492e-05 0)
(-0.00189027967891 3.06026804622e-05 0)
(-0.00186917383457 3.67406076327e-05 0)
(-0.00184584668684 4.33071717884e-05 0)
(-0.00181739820088 4.9654437292e-05 0)
(-0.00177979220511 5.50921018568e-05 0)
(-0.00172988205996 6.02433321093e-05 0)
(-0.00168241952627 6.69449899263e-05 0)
(-0.00165462566571 7.84848649236e-05 0)
(-0.0015923509447 9.29683475936e-05 0)
(-0.00152355984686 0.000104589730947 0)
(-0.00146109216591 0.00011105749567 0)
(-0.00138714957712 0.000117583819502 0)
(-0.00130312792658 0.00012901169576 0)
(-0.00121308818628 0.000141977851773 0)
(-0.00111250556576 0.000154585250118 0)
(-0.000987572101134 0.000171270027201 0)
(-0.000890994743526 0.000211615888171 0)
(-0.000746945803242 0.000244685665148 0)
(-0.000569877792454 0.000219218640583 0)
(-0.000413730462697 0.000155475054843 0)
(-0.000321847578258 0.000114900786838 0)
(-0.000270202888514 0.000103217995573 0)
(-0.000210378183741 9.93579459005e-05 0)
(-0.000151666339695 9.62421362504e-05 0)
(-9.2679674948e-05 8.4472221699e-05 0)
(-4.38644928981e-05 6.45822947914e-05 0)
(-9.1682880994e-06 4.28539372148e-05 0)
(1.37452638018e-05 2.8542247829e-05 0)
(2.8318327908e-05 1.61535096879e-05 0)
(3.61825902006e-05 6.68464658399e-06 0)
(3.8194096621e-05 8.22344042644e-08 0)
(3.57640513693e-05 -7.84367704545e-06 0)
(2.41563756788e-05 -1.4034337208e-05 0)
(1.19453120764e-05 -2.78812024023e-05 0)
(-6.62889388553e-05 -0.000384501244999 0)
(-0.000185423052284 -0.000406680512401 0)
(-0.000288966129707 -0.000368545325987 -8.22249271501e-29)
(-0.00046946053936 -0.000357365571678 7.44260396198e-29)
(-0.000631167407526 -0.000340342171695 6.40489632136e-29)
(-0.000740588643271 -0.000270921990969 -5.78263459636e-29)
(-0.000822057426421 -0.000152184604609 5.73023566878e-29)
(-0.000886620189562 -0.000154849308664 -5.45960052639e-29)
(-0.000953315277642 -0.000183125391297 0)
(-0.00102785112139 -0.000182194963778 0)
(-0.00109958150027 -0.00016795997857 0)
(-0.001162858495 -0.000150900249383 0)
(-0.00121877645905 -0.000132035920036 0)
(-0.00126719028355 -0.00011758377079 0)
(-0.00131593347143 -0.000109745308981 0)
(-0.00136113030906 -0.000100506293035 0)
(-0.00131367460961 -8.28500650166e-05 0)
(-0.00130437836962 -7.15636358767e-05 0)
(-0.00134981225034 -8.04673668088e-05 0)
(-0.00142608810345 -0.000105568123502 0)
(-0.00154242536537 -0.000124871187763 0)
(-0.0016043182959 -0.000123323733978 0)
(-0.00163581756176 -0.000111341952855 0)
(-0.00167637973093 -9.85877895606e-05 0)
(-0.00171648542135 -8.8949707442e-05 0)
(-0.00174930802035 -8.13666225007e-05 0)
(-0.00177925360112 -7.26061191271e-05 0)
(-0.00180695412719 -6.35309150919e-05 0)
(-0.00183097046591 -5.53141956865e-05 0)
(-0.00185121881067 -4.85606369774e-05 -9.30346199479e-29)
(-0.00186991988836 -4.27181271641e-05 8.96370246668e-29)
(-0.00187960965247 -3.7398322339e-05 0)
(-0.00189459595691 -3.18139209774e-05 0)
(-0.00191433258425 -2.80092213772e-05 0)
(-0.00191348133293 -2.99081756774e-05 0)
(-0.00193151281095 -2.94642456829e-05 0)
(-0.00195154566118 -2.40425863446e-05 0)
(-0.00194857049683 -2.11200531641e-05 0)
(-0.00195894957347 -1.82238988293e-05 0)
(-0.0019730957902 -8.50192613274e-06 0)
(-0.00197653885483 7.18678721693e-06 0)
(-0.00196973055656 1.95089403826e-05 0)
(-0.00196018467174 2.45239641912e-05 0)
(-0.00195021240983 2.83348351611e-05 0)
(-0.00193751798286 3.4178248655e-05 0)
(-0.00192135786445 4.15866109371e-05 0)
(-0.00190174615247 5.0454868595e-05 0)
(-0.00187855568575 6.0205059968e-05 0)
(-0.00185178718028 7.07843484965e-05 0)
(-0.00182098309278 8.25478530146e-05 0)
(-0.00178547304811 9.45324683645e-05 0)
(-0.00174536752299 0.000104515335766 0)
(-0.00170133107712 0.000113603780692 0)
(-0.00164824615836 0.000130205539802 0)
(-0.00158572857732 0.000151392617099 0)
(-0.00152631769623 0.000168249696903 0)
(-0.0014597715054 0.000182586353874 0)
(-0.00138189691199 0.000198943178199 0)
(-0.00129462663849 0.000218248594524 0)
(-0.0011983392841 0.000240287337399 0)
(-0.00108961013335 0.000266821968979 0)
(-0.000975426479453 0.000305258544828 0)
(-0.000850632458969 0.000369594768007 0)
(-0.000683435463952 0.000403833050417 0)
(-0.000493581125509 0.000335217948377 0)
(-0.000377572676148 0.000254247638143 0)
(-0.000302726764759 0.00020170736815 0)
(-0.000232484093936 0.000171963724272 0)
(-0.00017101642998 0.000160421167572 0)
(-0.000113399172518 0.000150025077108 0)
(-6.00825234972e-05 0.00012832813334 0)
(-1.75359662059e-05 9.85488543899e-05 0)
(1.3633097463e-05 7.2393909658e-05 0)
(3.45425038415e-05 4.86472127308e-05 0)
(4.45265012431e-05 2.66862804035e-05 0)
(4.86633989443e-05 1.07468578154e-05 0)
(4.82780495596e-05 -1.41614988208e-06 0)
(4.28915761121e-05 -1.6761578421e-05 0)
(3.21460532765e-05 -3.69334563047e-05 0)
(8.95588352592e-06 -4.2712658315e-05 0)
(-6.51928817584e-05 -0.000558398191097 0)
(-9.70721544749e-05 -0.000397449334808 0)
(-0.000235867301157 -0.00054665541782 0)
(-0.000401675779494 -0.000527871530303 0)
(-0.000558020051366 -0.000447425201942 0)
(-0.000363222185619 -0.000194869093009 0)
(-0.000463362011587 -0.00019366877329 0)
(-0.0007871433125 -0.000304387000816 0)
(-0.000912272853861 -0.00029902646408 0)
(-0.0010063322355 -0.000268610143482 0)
(-0.00108949685013 -0.000242811403381 0)
(-0.0011599695374 -0.000214426392056 0)
(-0.0012201451258 -0.000185797816562 0)
(-0.00126475522697 -0.00015228999279 0)
(-0.00124728132955 -0.000114294015587 0)
(-0.00122319585325 -8.98890912453e-05 0)
(-0.00123649345295 -8.93340999346e-05 0)
(-0.00130091955819 -0.000119519648059 0)
(-0.00141741461863 -0.000163327026614 0)
(-0.00151207480814 -0.000193931570747 0)
(-0.00155493644133 -0.000191446888246 0)
(-0.00159831625185 -0.000171584106235 0)
(-0.00164224359579 -0.000153292999342 0)
(-0.00168107268143 -0.000138582671776 0)
(-0.00171627714038 -0.000124998557867 0)
(-0.0017483192079 -0.000112443495073 0)
(-0.0017777872469 -0.000100724758176 0)
(-0.0018070412982 -8.90046170329e-05 0)
(-0.00182998001204 -7.77215588577e-05 0)
(-0.0018531601371 -6.78707306299e-05 0)
(-0.0018661588724 -5.9379577367e-05 0)
(-0.00188430463645 -5.09682121362e-05 0)
(-0.00188840350942 -4.26530941114e-05 0)
(-0.00190595316274 -4.00602469888e-05 0)
(-0.00192932562749 -4.18822038703e-05 0)
(-0.00193066763039 -4.2813413591e-05 0)
(-0.00194960431549 -3.81299769173e-05 0)
(-0.00196641766685 -3.15570390103e-05 0)
(-0.00197232335878 -2.48162664259e-05 0)
(-0.00197575532974 -1.14242034604e-05 0)
(-0.00197634849995 7.08342988767e-06 0)
(-0.0019719654027 2.28208595195e-05 0)
(-0.00196419005914 3.26860304732e-05 0)
(-0.00195411711336 4.04407209187e-05 0)
(-0.00194100304946 4.93670372343e-05 0)
(-0.0019244894941 6.00162738022e-05 7.59832516775e-29)
(-0.00190453477804 7.21587555119e-05 -7.62229545918e-29)
(-0.00188102711575 8.54557440323e-05 0)
(-0.00185385304819 9.98508287086e-05 0)
(-0.00182268963312 0.000115264802986 0)
(-0.00178702276447 0.000130934236038 0)
(-0.00174634079132 0.000146427654799 0)
(-0.00170008675029 0.000164086583117 0)
(-0.00164697602194 0.000186651077306 0)
(-0.00158798785712 0.000210628438201 0)
(-0.00152462457255 0.000233522991257 0)
(-0.00145378437921 0.000257673883888 0)
(-0.00137221298156 0.000284409174217 1.36140925869e-28)
(-0.00127924687789 0.000314433244084 -1.55302195054e-28)
(-0.00117385864113 0.000349062235705 0)
(-0.00105436583214 0.000391683902978 0)
(-0.000922088362558 0.000450814074807 0)
(-0.000774147618667 0.000520097475385 0)
(-0.000625932893407 0.000549744020128 0)
(-0.000488984530679 0.000490637468408 0)
(-0.000340498378202 0.000351965742543 0)
(-0.000248415556139 0.000270912413408 0)
(-0.000181127952666 0.000236988878869 0)
(-0.000122076529067 0.000219128802438 0)
(-7.02848083925e-05 0.000206212763537 0)
(-2.0404222585e-05 0.000180014575334 0)
(2.14962632436e-05 0.00014085290554 0)
(4.66361457647e-05 9.70361849933e-05 0)
(5.37073542044e-05 5.61826488528e-05 0)
(5.75399506632e-05 2.99371924198e-05 0)
(6.00952384149e-05 1.05465482389e-05 0)
(5.50031295146e-05 -8.86547142968e-06 0)
(3.61577777912e-05 -2.45214519956e-05 0)
(2.76890936335e-05 -4.69702599276e-05 0)
(9.70135171825e-06 -6.212873082e-05 0)
(-1.29193935089e-05 -0.00057699189594 0)
(-5.64216585067e-05 -0.000482301977871 0)
(-0.000208931565059 -0.000702794879156 0)
(-0.000346309637554 -0.000648352339666 0)
(-0.000406244754038 -0.000455036641555 0)
(-0.000341266763357 -0.000264629190791 0)
(-0.000555946540893 -0.000398938856952 0)
(-0.000766149421754 -0.000491568553618 0)
(-0.000865105531212 -0.000427130608186 0)
(-0.000974622005209 -0.000368445830416 0)
(-0.00106747429536 -0.000331347222491 0)
(-0.00114715956403 -0.000288020899017 0)
(-0.00118039339313 -0.000216224242372 0)
(-0.00113810974664 -0.000142350311799 0)
(-0.00116568456649 -0.000115461477164 0)
(-0.00122607765317 -0.000126042005046 0)
(-0.00131400603708 -0.000164588987104 0)
(-0.00140825798342 -0.000213674130903 0)
(-0.00147354215206 -0.000242492858067 0)
(-0.00150726756875 -0.000241923766797 0)
(-0.00155214204075 -0.000232393791863 0)
(-0.00160078787765 -0.000217097248685 0)
(-0.00164260876571 -0.000196846036095 0)
(-0.00168118190893 -0.000176732438272 0)
(-0.00171591702898 -0.000158916770813 0)
(-0.00174700556915 -0.000143733434494 0)
(-0.00177894614208 -0.000129217594181 0)
(-0.00180342076054 -0.000114669482714 0)
(-0.00183261625558 -0.000100230577588 0)
(-0.00184711364937 -8.64746407975e-05 0)
(-0.00187119846416 -7.48116737461e-05 -8.94859200826e-29)
(-0.00186718073972 -6.43513648646e-05 8.56444909832e-29)
(-0.00189504028783 -5.81201743954e-05 0)
(-0.00192033660757 -5.47321968884e-05 0)
(-0.00192650837878 -5.59731032733e-05 0)
(-0.00194905728052 -5.76870276852e-05 0)
(-0.00196247601782 -5.34984508232e-05 0)
(-0.00197128013604 -4.22499585969e-05 0)
(-0.001976486698 -2.8254871614e-05 0)
(-0.00197906699337 -1.13498038179e-05 0)
(-0.00197919785141 8.2479648274e-06 0)
(-0.00197580765187 2.62987845016e-05 0)
(-0.00196894013857 4.02883790116e-05 0)
(-0.00195893889955 5.22022323699e-05 0)
(-0.00194560405242 6.46677214266e-05 0)
(-0.00192882146901 7.8648612104e-05 0)
(-0.0019085490991 9.41608699369e-05 0)
(-0.00188466805629 0.00011101269584 0)
(-0.00185699967132 0.000129147846514 0)
(-0.00182523812855 0.00014849162582 0)
(-0.00178890361613 0.000168765652239 0)
(-0.00174735711752 0.000190206735328 0)
(-0.00169989840281 0.000214304011746 0)
(-0.00164599451869 0.00024194165028 0)
(-0.00158613823917 0.000271576355104 0)
(-0.0015200832054 0.000302856568332 0)
(-0.00144474615308 0.000337506639106 0)
(-0.00135674489175 0.000376724899485 0)
(-0.00125395570857 0.000421498324466 0)
(-0.00113448897635 0.000473721116971 0)
(-0.00099773355489 0.000535796514887 0)
(-0.000848040419134 0.000604858196861 0)
(-0.000694401828456 0.000658624584893 0)
(-0.000566503968203 0.000679768937601 0)
(-0.000447023138205 0.000627388826169 0)
(-0.000313715461466 0.000481268667896 0)
(-0.000210268980533 0.000370569513058 0)
(-0.000129189426779 0.000309689886251 0)
(-6.46867500697e-05 0.000275626494548 0)
(-1.10336447435e-05 0.00025405310384 0)
(3.79980115986e-05 0.000225130201915 0)
(6.93543003617e-05 0.000168012352126 0)
(7.27098155214e-05 0.000100274085266 0)
(7.40060593839e-05 5.89556052805e-05 0)
(7.67034506633e-05 3.15093548267e-05 0)
(7.54987817652e-05 5.04830920458e-06 0)
(6.09805796119e-05 -2.06974948499e-05 0)
(4.3344752578e-05 -3.91769218702e-05 0)
(3.1897488189e-05 -6.73257936966e-05 0)
(9.59964632082e-06 -7.90567623183e-05 0)
(-3.28474894499e-06 -0.000549663471841 0)
(-6.34943372453e-05 -0.000582549544059 0)
(-0.000206664931622 -0.000806664266212 0)
(-0.000300374153082 -0.000697818744191 0)
(-0.000250648928542 -0.000377762719686 0)
(-0.000344735891478 -0.000380489516928 0)
(-0.000641286708261 -0.000611117698699 0)
(-0.000731402841594 -0.000603221634115 0)
(-0.000829009437132 -0.000537056040642 0)
(-0.000936666542198 -0.000476449300891 0)
(-0.0010369580482 -0.0004094315108 0)
(-0.00102411670869 -0.000302062395609 0)
(-0.000974201011131 -0.000194397280606 0)
(-0.00104127707901 -0.000166350148885 0)
(-0.00112273963214 -0.0001814996463 0)
(-0.00124731101742 -0.000224832661303 0)
(-0.00135565014716 -0.000264474418916 0)
(-0.00142609981104 -0.000280766445014 0)
(-0.00145388930266 -0.000278818246102 0)
(-0.00150414028489 -0.00028264107467 0)
(-0.00155752091968 -0.000279853675858 0)
(-0.00160104144544 -0.000261990813576 0)
(-0.00164158224436 -0.000238395877624 0)
(-0.00167917075712 -0.000215131431826 0)
(-0.00171725010243 -0.000193774449308 0)
(-0.00174854702033 -0.000173473896917 0)
(-0.0017698695478 -0.00015705574042 0)
(-0.00180784562032 -0.00014115019162 0)
(-0.00181987824963 -0.000121800277972 0)
(-0.0018548403587 -0.000103341597442 0)
(-0.00184498822897 -8.70073925071e-05 0)
(-0.00188025590672 -8.10880540756e-05 0)
(-0.00187581934204 -7.62802068277e-05 0)
(-0.00191506988721 -7.52538205408e-05 0)
(-0.00194667250047 -7.61308765408e-05 0)
(-0.00196072513294 -7.43309907002e-05 0)
(-0.00196968639847 -6.40542000255e-05 0)
(-0.00197661110691 -4.88639444813e-05 0)
(-0.00198128892692 -3.14336205929e-05 0)
(-0.00198374760953 -1.18803213603e-05 0)
(-0.00198379992041 9.36877928441e-06 0)
(-0.00198081893718 2.97998052404e-05 0)
(-0.00197444436218 4.76033357435e-05 0)
(-0.00196458663872 6.37094655754e-05 0)
(-0.00195118262714 7.99968278822e-05 0)
(-0.00193420946752 9.7522250856e-05 0)
(-0.00191363913092 0.000116546937877 0)
(-0.00188932125415 0.000137050922605 0)
(-0.00186101840501 0.000159044520311 0)
(-0.00182841937972 0.000182564354903 0)
(-0.00179107582453 0.000207685702144 0)
(-0.00174838143329 0.000234880436442 0)
(-0.00169971765814 0.000265072954768 0)
(-0.00164467036558 0.000298687442105 0)
(-0.00158293229098 0.000335572451506 0)
(-0.00151291403458 0.000376809485809 0)
(-0.00143099042211 0.000424447045426 0)
(-0.00133325118172 0.000479908115181 0)
(-0.00121688285024 0.000543972968036 0)
(-0.00108059276099 0.000616217449615 0)
(-0.000927982036607 0.000691964246933 0)
(-0.000769070062011 0.000754128527841 0)
(-0.000610062490057 0.000778981034099 0)
(-0.000500907564054 0.000815218182306 0)
(-0.000366856151141 0.000735537786545 0)
(-0.000248037770564 0.000576929712429 0)
(-0.000155666831713 0.000461033057042 0)
(-6.97246216912e-05 0.000385297917991 0)
(3.14771173847e-06 0.000334594310039 0)
(6.39559622407e-05 0.000308934544407 0)
(0.000107323378318 0.000261053491777 0)
(0.000108705602436 0.000167401496535 0)
(0.000100054148422 9.81328401551e-05 0)
(0.000100541465446 5.98595322045e-05 0)
(9.87999376183e-05 2.85789602488e-05 0)
(9.32584670242e-05 -5.83889891775e-06 0)
(7.18813061293e-05 -3.43542271198e-05 0)
(5.44155866137e-05 -5.55853630247e-05 0)
(3.95517940983e-05 -8.87710390178e-05 0)
(1.23751170371e-05 -9.98826307664e-05 0)
(-2.24017909575e-05 -0.000599817687369 0)
(-0.000123363097886 -0.000741671041967 0)
(-0.000255321182156 -0.000884762666811 0)
(-0.000308292257419 -0.000834719544817 0)
(-0.000243031114838 -0.00048018464207 0)
(-0.000463877074381 -0.000637903439352 0)
(-0.000638324944195 -0.000737396824873 0)
(-0.000706264571934 -0.000691452350136 0)
(-0.000799899976384 -0.000629787482311 0)
(-0.000874859949368 -0.000567137533868 0)
(-0.00100790744169 -0.000471640112629 2.60597499141e-28)
(-0.000868721500439 -0.000271368437706 -1.77438719707e-28)
(-0.00096464753473 -0.000238175672976 0)
(-0.00102659765628 -0.000245867449529 0)
(-0.00115427302179 -0.000292626690415 0)
(-0.00128333346176 -0.000343402928094 0)
(-0.00136282403322 -0.000346904566139 0)
(-0.00138340610337 -0.000322005424212 0)
(-0.00144467626941 -0.000324601898947 0)
(-0.00151072221832 -0.000335473288911 0)
(-0.00155475565277 -0.000326880244676 0)
(-0.00159939844871 -0.000305412907821 0)
(-0.00164192238833 -0.000279947504615 0)
(-0.00168116869987 -0.00025305019853 0)
(-0.00171226209606 -0.000226015156163 0)
(-0.00173867526278 -0.000201318967008 0)
(-0.00177703774095 -0.000183345257721 0)
(-0.00178254482032 -0.000165994979318 0)
(-0.00182994108306 -0.000144178554906 0)
(-0.00181821446952 -0.000115155482257 0)
(-0.00186292585357 -0.000103995799781 0)
(-0.00185826581415 -0.00010034669522 8.53041940555e-29)
(-0.00189773901346 -9.92561429232e-05 -8.48970796929e-29)
(-0.00192405849544 -0.000102503098213 0)
(-0.00195646685507 -9.99778677967e-05 0)
(-0.00196921400255 -8.81800035849e-05 0)
(-0.00197645047126 -7.23921288831e-05 0)
(-0.0019825572337 -5.44018438911e-05 0)
(-0.00198724927037 -3.45199864445e-05 0)
(-0.00198981646249 -1.27234949586e-05 0)
(-0.00198986963247 1.04697864958e-05 0)
(-0.00198706227093 3.34205892586e-05 0)
(-0.00198094609516 5.48260464563e-05 0)
(-0.00197122582056 7.50328984224e-05 0)
(-0.0019578133738 9.52943397595e-05 0)
(-0.00194070036053 0.000116583673669 0)
(-0.00191981953574 0.000139332567146 0)
(-0.0018949607117 0.000163691669808 0)
(-0.00186584267253 0.000189771886666 0)
(-0.00183216530587 0.000217733389847 0)
(-0.00179353840563 0.000247864549612 0)
(-0.00174943669505 0.000280723258644 0)
(-0.00169928251912 0.000317070154416 0)
(-0.00164242627703 0.000357634681608 0)
(-0.00157766417885 0.000403583521595 0)
(-0.00150225447366 0.000457253755539 0)
(-0.00141181401046 0.000521231447501 0)
(-0.00130202480925 0.000596566276703 0)
(-0.00117097864212 0.000681499240404 0)
(-0.00102134107024 0.00077027955499 0)
(-0.000860740432515 0.000849903964762 0)
(-0.00070102077381 0.000903130993699 0)
(-0.00055611101104 0.000932597751938 0)
(-0.000431933032788 0.000932225264647 0)
(-0.000306984275515 0.000847257216626 0)
(-0.000173980645194 0.000661151632067 0)
(-8.37109864748e-05 0.000555345689812 0)
(4.60823700896e-06 0.000480415445202 0)
(8.65597800455e-05 0.000418487149318 0)
(0.000150012262014 0.000360569810267 0)
(0.000168669697648 0.000263010916316 0)
(0.000147324981696 0.000154513909778 0)
(0.000136111703622 9.26696191722e-05 0)
(0.000128398593273 5.4993647596e-05 0)
(0.000122889338831 2.14625692888e-05 0)
(0.0001103146233 -1.77620280795e-05 0)
(9.37314860782e-05 -5.21402838547e-05 0)
(6.94220330549e-05 -7.59769171015e-05 0)
(4.9488254559e-05 -0.000113343485553 0)
(1.69749165789e-05 -0.000130108458537 0)
(-4.22714435137e-05 -0.000698108156355 0)
(-0.00016438730631 -0.00088433267358 0)
(-0.000279207829285 -0.000934561665698 0)
(-0.000215635757008 -0.000628029642399 0)
(-0.000257041148726 -0.000594830368908 0)
(-0.000508909685226 -0.000838176862689 0)
(-0.000597148633576 -0.000825780414993 0)
(-0.000684371527812 -0.000779265208596 0)
(-0.000756276888515 -0.000706286970977 0)
(-0.000852212011035 -0.000636413046161 0)
(-0.000762858027126 -0.000414426983473 0)
(-0.000857645181857 -0.000325654165188 0)
(-0.000946899308241 -0.000315268331 0)
(-0.00102739234012 -0.000344029669177 0)
(-0.00119796585049 -0.000418431225187 0)
(-0.00129163195295 -0.000432636921623 0)
(-0.00130528116631 -0.000390342216178 0)
(-0.00136606177565 -0.000375171022878 0)
(-0.00145060510406 -0.000389116364427 0)
(-0.00150770830823 -0.000388991825032 0)
(-0.00155091348097 -0.000371983865493 0)
(-0.00159346049963 -0.000348265906583 0)
(-0.00163825959153 -0.000322841525689 0)
(-0.00167774114821 -0.000292609293702 0)
(-0.00171877460838 -0.000257160354315 0)
(-0.00173294951522 -0.000231165212569 0)
(-0.00178185622285 -0.000209383244334 0)
(-0.00179353555853 -0.000185079282141 0)
(-0.00179563602106 -0.000161071434232 0)
(-0.00182582463744 -0.000141081663641 0)
(-0.00187973654222 -0.000128672647081 0)
(-0.00188038917653 -0.000118742019013 0)
(-0.0018960578846 -0.000126356067933 0)
(-0.00194606189528 -0.000130665002573 0)
(-0.00196368279795 -0.000120175242056 0)
(-0.0019750917808 -0.000100719186957 0)
(-0.00198343451959 -8.03610845372e-05 0)
(-0.00198968519808 -5.978198359e-05 0)
(-0.00199439906236 -3.77706693266e-05 0)
(-0.00199710748946 -1.3838603027e-05 0)
(-0.00199725158045 1.15301940602e-05 0)
(-0.00199452239715 3.71416551551e-05 0)
(-0.00198855173492 6.20290748511e-05 0)
(-0.00197896660157 8.62390567938e-05 0)
(-0.0019655901364 0.00011056492134 7.40660116765e-29)
(-0.00194835949594 0.000135834094059 -7.37270558469e-29)
(-0.00192712648999 0.000162579978289 0)
(-0.00190160308539 0.000191090469252 0)
(-0.00187147390726 0.000221560544151 0)
(-0.00183646380586 0.000254235846811 0)
(-0.00179624693015 0.000289538364191 0)
(-0.00175037140975 0.00032815670419 0)
(-0.00169822606621 0.000371083090634 0)
(-0.00163878382698 0.000419796775413 0)
(-0.00156999440755 0.000476775482385 0)
(-0.00148818220987 0.000545483194287 0)
(-0.00138844677446 0.000628704794915 0)
(-0.00126698731731 0.000725660482686 0)
(-0.00112460125307 0.000829947115118 0)
(-0.000966851003837 0.000930950725496 0)
(-0.000801365990028 0.00101257230739 0)
(-0.000638901508291 0.00105978439489 0)
(-0.000491371645344 0.00106914503206 0)
(-0.000365260514284 0.00104099712574 0)
(-0.000267573968991 0.000997822858891 0)
(-0.000118704132388 0.000781240434486 0)
(-1.14723513031e-06 0.000642853123671 0)
(9.19809813028e-05 0.000567575659939 0)
(0.000176232151738 0.00048785893202 0)
(0.000233094846599 0.000386349404533 0)
(0.00023122211687 0.000246371864933 0)
(0.000199223346884 0.00013370671757 0)
(0.00017412413661 7.46988429852e-05 0)
(0.000152715959134 4.27073066867e-05 0)
(0.0001442728427 1.38498490799e-05 0)
(0.000134949425762 -2.66077403172e-05 0)
(0.000124633687012 -7.26084613642e-05 0)
(9.34237318628e-05 -0.000106032620425 0)
(6.1146535578e-05 -0.000145400619488 0)
(2.15031447645e-05 -0.000170910034673 0)
(-5.62373845383e-05 -0.000816682824867 0)
(-0.000180317926422 -0.000997691236961 0)
(-0.00024563891595 -0.000980714208719 0)
(-0.000210229609795 -0.000689908574994 0)
(-0.000330800512159 -0.000765483093743 0)
(-0.000511245973705 -0.00094388325779 0)
(-0.000562884036268 -0.000909635392875 0)
(-0.000664931766592 -0.000863523663765 0)
(-0.000681081617446 -0.000740944512268 0)
(-0.000855664994668 -0.000719477417368 0)
(-0.000742837638737 -0.000464009192247 0)
(-0.000857729316789 -0.000412897341534 0)
(-0.000937827420485 -0.000407766817901 0)
(-0.00107384612883 -0.000471614347349 0)
(-0.00120338804389 -0.000529162256625 0)
(-0.00127870443219 -0.000499616398726 0)
(-0.00129385112811 -0.000442204193583 0)
(-0.00136958682265 -0.000443470233753 0)
(-0.00144392597754 -0.000453664177835 0)
(-0.00149968391327 -0.000442359856962 0)
(-0.00154958269842 -0.000418555319112 0)
(-0.00159088584334 -0.00038973250499 0)
(-0.00163394928357 -0.00036206490384 0)
(-0.00166066869562 -0.000330909005856 0)
(-0.00169192568938 -0.000287512679115 0)
(-0.00174658965044 -0.000258721930494 0)
(-0.00173297367041 -0.000234745410024 0)
(-0.00181203923497 -0.000209987171363 0)
(-0.00179595703451 -0.000185071604249 0)
(-0.00185917174769 -0.000172746106049 0)
(-0.0018469851791 -0.000152187606705 0)
(-0.00190832384233 -0.000146123957802 0)
(-0.00193460360249 -0.000153077233381 8.74611629369e-29)
(-0.00195422623447 -0.000153605441236 -8.61702152016e-29)
(-0.00196986890023 -0.000136043002035 0)
(-0.00198190937657 -0.000112485027642 0)
(-0.00199123378651 -8.88391986926e-05 0)
(-0.00199796196455 -6.55258704044e-05 0)
(-0.002002731786 -4.12532203646e-05 0)
(-0.00200549833606 -1.51755581815e-05 0)
(-0.00200578207605 1.2507169156e-05 0)
(-0.00200318404916 4.08999928285e-05 0)
(-0.00199733640033 6.92170065317e-05 0)
(-0.00198788497351 9.73552157841e-05 0)
(-0.00197459392525 0.000125819028309 0)
(-0.00195726830098 0.000155298415286 0)
(-0.00193563154859 0.000186369064298 0)
(-0.00190931828943 0.000219405930634 0)
(-0.00187798323197 0.000254645636331 0)
(-0.00184136024446 0.000292367498057 0)
(-0.00179917856764 0.000333101111361 0)
(-0.00175104996449 0.000377782805794 0)
(-0.00169630582675 0.00042793537003 0)
(-0.00163357148684 0.000486009115366 0)
(-0.00156020881086 0.000555679007525 0)
(-0.00147210075699 0.000641172065464 0)
(-0.00136441083086 0.000744894098319 0)
(-0.00123442039661 0.000863563550682 0)
(-0.00108509409917 0.000986250210509 0)
(-0.000920982399381 0.00110012194868 0)
(-0.000747112221658 0.00118542955016 0)
(-0.000573902868403 0.00122248578262 0)
(-0.000415767853475 0.00121008445091 0)
(-0.000281281426318 0.00116029241112 0)
(-0.000182542182656 0.00108401745818 0)
(-7.69105233202e-05 0.000956482893696 0)
(6.25708373144e-05 0.000722637786816 0)
(0.000177210604226 0.00066119592531 0)
(0.000271754284681 0.000575215120834 0)