/*--------------------------------*- C++ -*----------------------------------*\
| =========                 |                                                 |
| \\      /  F ield         | OpenFOAM: The Open Source CFD Toolbox           |
|  \\    /   O peration     | Version:  v1806                                 |
|   \\  /    A nd           | Web:      www.OpenFOAM.com                      |
|    \\/     M anipulation  |                                                 |
\*---------------------------------------------------------------------------*/
FoamFile
{
    version     2.0;
    format      ascii;
    class       volScalarField;
    location    "805";
    object      alphak;
}
// * * * * * * * * * * * * * * * * * * * * * * * * * * * * * * * * * * * * * //

dimensions      [0 0 -1 0 0 0 0];


internalField   nonuniform List<scalar> 
6400
(
0.903891368622
1.46480200866
2.33618284083
2.94863252167
3.53235669211
4.11095333299
4.81912226885
5.60763781432
6.12316174191
6.88461746877
8.19087851669
9.15984354215
9.98974947403
10.9035589101
12.0002525569
13.1560106458
14.2195669869
15.2238425343
16.0768011395
16.6252221177
16.9777998103
17.4857662947
18.3426993262
19.5155127622
20.7837711324
21.9454222757
22.9413173044
23.8764427198
24.8468931476
25.8679958217
26.8844800381
27.7156439642
28.2847315203
28.7028186295
29.0177992766
29.2420532356
29.6298286621
30.211057685
30.5042009925
30.5950248093
31.0299787995
31.9257689415
32.810543841
33.3336953107
33.5309674727
33.4971053947
33.2968968739
32.9708066204
32.5317911404
31.9989619961
31.297912784
30.2298286879
28.7815919664
27.0385812468
25.4079694915
23.9023549913
21.9305378842
19.2869485864
16.5269002389
14.1231472237
11.6954861574
9.15991579186
6.83681952142
6.43597075823
9.26924732882
13.7398240799
16.4862908142
16.0183918706
13.8972564696
12.2236089229
11.3583825281
11.6344622901
12.2835295815
12.2388809035
14.4374804602
13.9263814723
15.8941581663
9.78960451433
12.8534640138
4.79987535873
3.17342218848
2.56457102561
3.2109659199
4.49444881672
4.50661249875
4.51865927766
4.82278421492
5.34744596866
6.07764298327
6.99709886287
8.09082270942
9.18474370865
10.1651457232
11.1086557295
12.0765638596
13.176002569
14.3348795313
15.4390825913
16.5354279905
16.9243172732
17.1078676554
17.6003684797
18.4432320609
19.6076130348
20.9819517388
22.0950026211
23.0650729539
24.0332977947
25.0162220251
26.0092252702
27.0007995256
27.9078659258
28.4707082951
28.881181321
29.2233944939
29.3778345321
29.8043371835
30.410396946
30.6685070391
30.6475055506
31.0577412368
32.3800672237
33.5041885926
33.9461149421
34.0923959757
33.9979459994
33.7223976756
33.3442842386
32.7761940201
32.1058618034
31.4590167515
30.8089726248
29.5171823292
27.2612339056
25.7218414767
24.0399393094
21.6279507864
19.0450115138
16.4734700475
13.9153665549
11.4984028494
9.44465026342
7.21360068254
6.95124048651
9.56174000442
14.8175162714
18.3020899531
16.8466855528
14.5535618018
12.5582728976
11.8720047495
12.3656461791
13.5855152375
13.0580607158
12.9921986489
12.5425398898
11.4153312496
9.62570667247
8.12478631884
4.20516911736
3.3133780116
2.94745735983
3.47557744606
3.83426221998
4.4691194667
4.97092388553
5.00582013795
5.23765670297
5.97290770192
6.96911915952
8.07427912741
9.18753353087
10.2108506103
11.15472255
11.9783888016
12.9831128498
15.5167829345
17.5242788046
18.0891250631
17.757342759
16.9139458041
17.3095117696
18.5497509515
19.7611769374
20.9218821341
22.0897322116
23.1523440299
24.1225819567
25.0859132392
26.0724782149
27.0352292358
28.0199490125
28.5743832241
28.7884263987
29.3900893089
29.5639181744
29.7354843703
30.4929531849
30.8053119393
30.852207005
31.2771534326
32.1482884731
33.0055765374
33.5289556109
33.7511844649
33.7577572517
33.5909580171
33.2705327157
32.7996921841
32.197948674
31.4622202613
30.4797549908
29.1269569575
27.6247112109
26.056915779
23.9698759137
21.5503818505
19.025212243
16.4761800857
13.9782004538
11.6289992315
9.37742831751
7.79713257818
8.34550134693
11.9436914888
15.8755697364
17.7586435859
17.6838529207
16.0014931426
14.2944417406
13.6220015885
13.5682381362
12.9357413282
12.3923831817
12.4553456288
12.2045866284
11.2998452711
9.71574963159
7.2810230904
7.49270821611
3.40945132347
5.59130725717
3.87019574121
4.04559688834
4.78146404366
11.9641718568
10.3965660451
5.73663822655
5.92917789466
6.95649795679
8.09303297756
9.22814633866
10.2263484243
11.1712824512
12.8426691327
14.9085088417
16.6387373596
17.2564281101
16.6000119452
16.2090873119
16.7479640277
17.5405648864
18.5475127393
19.749914821
20.9966224819
22.1914417311
23.2778601154
24.2311451656
25.2074608579
26.134889933
27.198327663
28.0156544201
28.8003205603
28.9937266801
29.0243045331
29.6276509854
29.8876957997
30.1726642394
30.6332227547
31.0554238796
31.5804227022
32.3171118124
33.0578320879
33.5769048817
33.8368925323
33.8787847354
33.7387985953
33.4382596891
32.9860711736
32.3877617678
31.6241726317
30.6310775104
29.364693459
27.8790206193
26.1387313785
24.0212800814
21.6037132671
19.0717520657
16.5441843873
14.1169398633
11.9057945028
10.1259730512
9.3763476865
9.95068281212
11.8474621012
16.3745131255
19.4965426807
19.4814404652
17.7149941679
15.2943273244
13.6594125973
12.8743241745
13.0904858458
14.5955282341
14.5989995421
13.3348248206
13.2589697265
16.6106383753
12.9830210727
10.9762421198
5.84236740526
7.6924291926
4.73638779635
5.05836206837
6.78816809536
11.8641748305
8.49479368327
6.28389551102
6.45784221937
7.17160545291
8.22861637966
9.3743568515
10.8220956713
13.0175165649
14.1102720017
14.6637151386
14.960644627
15.1246625329
15.5174952149
16.2480431016
16.8677556791
17.5981006019
18.6374956359
19.8419604542
21.0982083776
22.3172396389
23.3815480595
24.4353558936
25.3074745693
26.3759120903
27.2380082374
28.5106272236
28.7436261687
28.6996929209
29.0886451238
29.2673591789
29.7007824377
30.2448757669
30.7828977919
31.2906126355
31.8488385568
32.5133689563
33.1746182462
33.6787098696
33.9638940585
34.0376824727
33.9251504479
33.6474137178
33.2154584323
32.628271229
31.8637180661
30.8802006047
29.6485923149
28.1580763249
26.3481274707
24.1741862353
21.7445613556
19.2371326982
16.7936341927
14.5520008954
12.6999458021
11.5283869199
11.3341573157
11.4465157852
12.4760825995
16.1685268923
19.7023369552
20.8529691855
19.569969837
16.7330953401
14.1890639429
13.8395791735
16.1559035645
17.0672274976
16.0702761805
15.1997732585
17.9310378111
20.9890857872
16.2524706265
15.3607468219
10.1171831756
9.30649095723
5.90724792604
6.3957677063
12.1561498901
11.6622299201
7.08818577894
6.92158661896
7.10821233635
7.52751336045
8.45413264537
10.989374934
14.0878790873
14.6343949057
14.4630130977
13.8813158207
13.8929076069
14.5271808831
15.591976272
16.2036947496
16.7804462393
17.6673015638
18.7697826403
19.9965874648
21.1911155923
22.4156897698
23.6814325522
24.5325427427
25.7259353314
26.4291748902
27.895594807
28.3361741688
29.223307566
28.8609809204
28.6379863842
29.0614393924
29.723785896
30.3820414408
30.980621203
31.5386767466
32.1170733085
32.7443736657
33.3545104778
33.841840018
34.1418229795
34.2421376148
34.1564723779
33.9042514136
33.4973529977
32.9321166452
32.1861826437
31.2242112842
30.0091925382
28.4982290697
26.6398720243
24.4472152175
22.055265108
19.6463975311
17.3863861157
15.4527797249
14.0488598769
13.4197488451
13.5840471562
12.8570828631
14.5169366585
18.3028284377
21.1979801679
22.2424486877
21.1657858791
17.7068389189
15.4188049088
17.1743763175
19.3778224576
18.8587739969
17.8944224505
18.0074389609
22.6754818208
24.2995154734
19.2397508986
19.0439311607
12.2625327122
9.27510991748
7.17451187617
6.72576771392
12.142358863
8.75250335181
7.40901272924
7.55115623328
7.71860996113
8.44506689764
9.02367544278
13.6967270807
14.4985653416
14.6544333791
13.5996174585
12.996028356
13.5442578022
14.9270910736
15.5279565427
15.9385973843
16.7859272896
17.768371356
18.8742632092
20.0974322935
21.4405555912
22.7255819519
23.7022613705
25.1796649901
25.8199615666
27.3716947248
27.6910197226
28.8338035476
28.7885506719
28.6654428856
28.5184332381
29.0424380035
29.820564315
30.556304639
31.2006539005
31.7967186842
32.3952666982
33.0078293576
33.5890328392
34.0637457156
34.373361302
34.4957040263
34.436840463
34.2144762261
33.8404189346
33.3091069775
32.5960820957
31.6627067158
30.4608718486
28.9392119521
27.0722435138
24.9201690355
22.641743392
20.4236667486
18.4274457189
16.8027900573
15.7273505673
15.2512273595
14.9037260996
14.8674494327
16.5137660948
21.1641318966
22.8438546411
22.7837216081
21.5006440352
19.1006570373
18.6790655705
21.1215206214
21.4900761484
20.6466414265
20.0755651413
22.1259199245
24.9590753
26.4822469308
21.8518146184
20.7082785387
12.0380294952
9.05278772248
8.3577074811
12.3772098983
12.3094994473
7.9771988455
8.10040359703
8.27836515834
8.37699879011
8.98564223318
13.4044962584
14.3860757547
14.5881559745
14.2650817285
12.5916459307
12.6504309961
14.2281353721
15.0252931855
15.2013978513
15.8131305228
16.8095352734
17.913761403
19.0544642381
20.3243164394
21.5274798113
23.0157231891
23.7671667899
25.1944295881
26.8199733175
27.5111961739
27.4385868617
28.3923880752
28.8174080425
28.2681194655
28.5303261582
29.1929980719
29.9800115571
30.7458742908
31.4341735056
32.0688873588
32.6906918614
33.3045394979
33.8739010372
34.3422115917
34.6597869847
34.8021205566
34.7717623059
34.5851783907
34.2532225593
33.7679267368
33.1009783027
32.2073427872
31.0323348273
29.5326629259
27.7180596309
25.6882023918
23.6089730727
21.6298490126
19.8459795216
18.377743102
17.4078520431
16.9448594454
16.8210638444
17.1013235633
17.1270533125
21.852824004
24.9685371673
24.5199639866
23.632716765
22.4512452748
23.002518183
24.1537046388
23.3490062207
22.6267393925
22.8597009017
25.3099940389
26.0736368891
26.7348192555
23.8473127369
21.698144912
11.3981067314
9.08236710597
9.04412208921
13.3895263465
11.4239804483
8.69100770451
8.85289754971
9.16437287255
10.2472872704
9.14185858326
14.1725693123
14.937328789
14.6506183556
13.1744635511
12.3204261439
12.7808525868
14.2791387249
14.7744268774
15.0970329538
15.8203887499
16.8003506564
17.9668121241
19.1967218435
20.8220747512
22.2028627888
22.9860607293
24.8985290466
25.1291233679
26.9585080353
27.1024809446
28.3348204457
27.868092712
27.9182871876
28.208494178
28.7055929303
29.3962678452
30.1734752835
30.9532618653
31.6817733012
32.3593198684
33.0100422325
33.6357381158
34.206324658
34.675843019
35.0025990841
35.1655416402
35.1676677685
35.0243203245
34.7445402896
34.3180790383
33.7128290196
32.8787893635
31.7623348183
30.3403048361
28.6598890375
26.8425486019
25.0155304768
23.2174069935
21.4695249273
20.0165766324
19.2013707511
19.0569300955
19.2402507482
19.3634710697
19.2032685225
19.9688137279
25.5779134019
26.7905973124
26.3421813625
26.543228189
27.1895398706
26.5172738862
25.2897632006
24.9940592058
26.0419573145
27.3868413979
27.3685096951
26.8537437325
25.8828638617
24.5322367362
10.9759277765
9.60324013661
10.1933408081
13.4965193185
9.6894163524
9.72113798459
9.61096322597
9.8973868258
12.7821751102
11.6078255202
15.006856812
15.2377442454
14.765350075
12.609022031
12.3896273195
13.9281887796
14.4848019523
14.5524061901
15.0561300146
15.9464763824
16.9132000914
18.0244660369
19.1148782014
20.9421867754
23.0839495672
22.9360292714
24.8358885977
26.2707754212
27.1650886767
28.0107076025
27.7736931832
28.037568072
27.6856782571
28.1422015419
28.8724627521
29.6219516546
30.3952642397
31.1813368958
31.9437907533
32.6678116087
33.3566916496
34.0044342876
34.5859081758
35.0640557043
35.4044756787
35.5913043291
35.631286106
35.5399255399
35.323700586
34.9705208682
34.4471614101
33.7036101276
32.6960541912
31.4291273096
29.9797466457
28.4503562454
26.8442285294
25.032552953
23.1699210108
21.8915581241
21.5783464351
21.9304546394
22.2735160243
22.2264091009
21.7602800647
20.3550462553
19.6378382821
28.8463312231
31.1818132193
31.604105424
30.891435172
28.9609133579
27.636964364
27.7183249557
28.9604993974
29.5153264774
29.500554583
29.3842114685
29.8346718835
30.0810924487
11.0725787369
10.5083374656
13.5041202773
13.7503218311
9.92202450823
10.5131819619
10.3693381556
10.8042208387
12.4142694964
14.9850497132
15.8849552253
15.558028377
15.0668510708
12.7161755029
12.5625350083
14.4034421428
14.6053825768
14.5421252572
15.0694434732
16.0553401181
17.2270719412
18.3632049061
19.264005266
20.5701465889
23.2259730358
24.5484286975
24.538182755
26.3542825857
26.2595963048
28.0091516865
28.601739089
28.0176130827
27.6774186118
28.2494594421
29.0651128938
29.8567291466
30.6406456282
31.4349334316
32.2231175643
32.99321626
33.7304939955
34.4120513084
35.0137921782
35.5078441156
35.868125292
36.0855213407
36.17112268
36.1408357743
35.9997128552
35.7361830878
35.3202648782
34.7095936252
33.8799367181
32.8657235349
31.7455501192
30.5180697775
28.9677246464
26.9616588565
25.177864456
24.5421882513
25.107665112
25.9814530355
26.3939969063
26.1467173056
25.2360623534
23.4547797501
20.9817056128
20.9174908854
32.896022063
37.4512425054
35.5031490187
32.2681888282
30.6604555791
30.6916342069
31.5640082338
32.3276193854
33.1068884347
33.9511089359
34.7176901122
35.4780427872
11.5264659603
11.4287503479
15.1756896419
14.5525838899
12.7862855713
11.7716880237
11.3609777408
12.2436746351
12.0075786736
15.9621885362
16.5930481641
15.960604564
15.2448040432
13.4102581498
13.3184323879
14.8429386463
14.6577322651
14.6385584085
15.1724834831
16.0786205686
17.3398538112
18.7987965831
20.5246636054
20.6602005631
22.7308822943
24.878561987
24.4621045082
26.5547788948
27.6208842528
27.3511945576
27.8580315109
27.5664453479
27.9432752524
28.5535915755
29.3123523439
30.1121497842
30.9128102999
31.721141139
32.5268814876
33.3332272691
34.1266271652
34.8597248012
35.4928664618
36.0091734331
36.3971158233
36.6549433876
36.7962521961
36.8365346931
36.7813896754
36.6239762524
36.3442214291
35.9194193254
35.3559171889
34.7036697704
33.9700522197
32.9231592881
31.2741493401
29.3317585849
28.0398147032
28.5971020888
30.7667995449
32.1779036693
32.6596154361
32.3356287649
31.250446603
29.1061520184
25.8376760702
21.2889348666
28.5114036735
38.6881695769
40.900775564
36.9719648386
34.8243939754
34.2889692608
34.8898614282
36.0012539617
37.8646561023
39.2025984468
39.3623328824
39.7091997145
12.1925961056
12.1172944177
14.9840933926
15.1098230525
15.1565529255
12.9729396031
12.4802150754
15.0128957418
12.4703153378
16.8302987961
17.1350471266
16.3702689031
15.4142243429
14.0812464238
15.7319166377
15.8754048252
14.8923642924
14.8736816221
15.4109703867
16.1962261613
17.2765081378
18.7816161788
21.6892838797
22.6879367315
22.2584454117
24.8960265857
26.0046224642
26.148107374
27.5611609853
28.2259321613
28.1337958469
27.6098680977
28.1354706668
28.8651946602
29.6135967055
30.4010947075
31.204977526
32.038028958
32.8761018329
33.7063998622
34.5418045967
35.3365041712
36.0217052336
36.5723833703
36.9964559686
37.3066293182
37.5163415151
37.6368574218
37.6756698479
37.636860916
37.5216996691
37.3444756279
37.1479461912
36.9490760885
36.5461830792
35.4628394667
34.2268863172
33.5773289851
32.5009753707
34.4341339599
35.1867709053
34.4700738747
32.6778420094
30.6301335096
27.3764650408
23.4582076226
19.9521400123
11.762710611
11.1081360459
29.9894835733
37.9887360545
36.7859926301
32.6868014807
31.7047679309
33.3487850811
38.4685135457
42.8426234918
44.6763061313
44.9090237072
45.2244693915
12.9113040002
12.8567173097
12.5064463331
15.4811749016
15.7432118084
13.8092324542
13.4803322299
16.0497350251
13.1944123512
17.7378556522
17.630074127
16.793078336
15.6809266186
14.4400821327
16.8698947521
16.5163606337
15.3860892362
15.2917572325
15.7601907286
16.4839877374
17.3346191859
18.6406380624
22.1403642901
23.7391937362
22.5834992348
24.8612811031
26.4769203206
25.7459140371
27.1625597279
27.8444165011
27.4273050573
27.9322264794
28.5512589592
29.2276988189
29.9471565953
30.738220857
31.5467062329
32.3720247333
33.2452272104
34.1275648374
35.0007931513
35.8446424835
36.5903232121
37.1943488987
37.6708458651
38.0491159041
38.3415547661
38.5494435785
38.684809601
38.7700438224
38.8399993425
38.9748796692
39.2444932725
39.5278360181
39.1896820505
38.0822932401
38.5759965346
32.5681628498
26.545475936
17.6420605603
7.94230119527e-05
1.61290247021e-08
5.58632279283e-11
5.69960157374e-12
4.52297134783e-13
1.27402977438e-13
1.49962890486e-12
1.53225043431e-11
1.73083866788e-10
4.52079081592e-10
7.50712551012e-07
0.000197058371072
0.179818877106
28.5446631348
41.5636810579
42.4353435292
44.6993052966
49.3168866896
51.6738243648
52.0500793085
13.8073237866
13.906111281
16.1350589568
16.1739989817
16.248674339
14.5239642677
14.5464397657
16.9551066941
14.2478668185
18.53796511
18.1104074161
17.2417559038
16.0288523891
14.8618773721
17.1837501211
16.7882472585
15.8715995874
15.7730389766
16.1564538733
16.800228319
17.5693831666
18.6165020861
21.6036975485
24.5250848241
24.768763588
24.2892295172
26.6518127609
27.6380229243
26.2540750318
26.5935726568
27.3600505208
28.1510154841
28.8949757591
29.6039965287
30.3345078885
31.1051222037
31.9220410296
32.7701695825
33.6440148228
34.5710383496
35.5063644632
36.4018401322
37.201877119
37.867783418
38.4186778722
38.8878295223
39.2805863273
39.5859673268
39.8101841536
39.9998810086
40.266214451
40.7718037717
41.5690023348
42.2065015851
41.4614566416
38.4486390295
25.2863326331
1.89438806615e-14
2.08363042447e-17
3.90606217801e-19
6.62104306867e-21
1.91563203598e-23
5.44380808746e-26
9.42312876237e-31
7.3707992757e-31
1.78946056962e-30
1.20623790429e-29
5.64995099861e-29
2.08709471916e-28
1.32631607791e-27
1.03847588161e-27
9.00934288181e-26
5.12782146815e-23
5.15455476131e-21
3.91143632757e-19
9.00709270154e-17
1.51617713392e-12
47.0536071953
56.4451281377
54.7850203664
14.6528018351
14.8470973398
17.7708304738
16.9066160494
16.4520695897
15.2352356993
15.573007445
17.7388549035
17.7175164003
19.5368198921
18.6617006384
17.7875397173
16.4666606268
15.4223458638
17.5166722983
16.9879203099
16.3256078865
16.2578408384
16.5633725708
17.1189921418
17.8441941279
18.8180283295
21.1222880299
24.7581733779
26.0820167141
24.0934148395
26.1262561874
27.717743298
27.7946715608
26.9553819196
27.4091539002
28.3447454858
29.2319205074
30.0164743542
30.723161694
31.5025119915
32.3226591779
33.1964311944
34.0989899033
35.0517867865
36.04715559
37.0119296467
37.8648617887
38.5834001393
39.2233247887
39.8352678701
40.3752853378
40.7697332632
41.017726035
41.2815650881
41.773028534
42.6672596919
44.0015890014
44.7105586314
35.4529491637
11.7869280069
1.04757893005e-20
4.24218912123e-23
1.22677242208e-24
1.78595576929e-26
1.45105132172e-29
2.42121818678e-32
1.70672781162e-33
0
0
0
0
0
0
0
0
2.37376732898e-37
8.00622577437e-35
1.19756072426e-32
6.94786381397e-30
9.70446062504e-27
5.25521345566e-22
7.98067604019e-18
6.22204072863e-11
61.7645433001
15.3417818884
15.5577776593
19.8771524623
17.483148132
16.4184319963
15.8591194513
16.3154730474
17.8711454572
19.2987573292
20.6743198432
19.3670173591
18.4689816635
17.1532634643
16.2648368481
18.0544294073
17.3338723513
16.8500049114
16.7854077441
17.0074699836
17.4740919148
18.1233143296
19.0233620097
20.9160376502
24.6108072704
27.0416947187
26.4236744343
25.6178095882
27.0658714547
27.6001869647
27.0414582037
27.8154436477
28.7668113376
29.6998001308
30.476858933
31.2075861712
31.9391978062
32.7731994993
33.6544843397
34.592973093
35.5825682294
36.6212850388
37.6596373338
38.6014120104
39.3758980278
40.1037211352
40.8836386566
41.6018038583
42.0716126029
42.3139968215
42.6292596774
43.3278138631
44.557702007
46.0874882833
35.1744721615
3.65256601979
1.51665414821e-23
4.97396524222e-27
2.01126611699e-28
2.74230080474e-30
7.52013408484e-33
0
0
0
0
0
0
0
0
0
0
0
0
0
3.05859893225e-36
3.03938321257e-35
6.66298654156e-34
3.23079003803e-32
1.79413184282e-28
1.49337005277e-19
2.87871182629e-24
15.8727817997
16.0803890488
21.8941747875
17.9248591553
16.6063298322
16.4281462887
17.1142210987
17.3455563199
20.2340537467
21.4878627129
20.0432650364
19.1613512274
18.0278466591
18.0808091672
18.8071813979
17.9186272691
17.5655447411
17.5019506542
17.5584323992
17.914023761
18.4541208584
19.2709075558
20.8879372771
24.4338742565
27.4248873892
28.022422857
25.563195527
26.1101007854
26.5246009992
27.1219882045
28.0978653505
29.2119528426
30.160000241
30.9840435573
31.7414693399
32.5287824252
33.2894688406
34.1748856544
35.1309355251
36.1430288238
37.2567883315
38.3826912754
39.4014211848
40.1872409754
40.9508211637
42.2338851131
43.7986497141
44.4568607657
44.0252713577
44.1899912777
45.0070724346
46.3372281046
34.4030187369
8.0258624935e-18
1.20960261244e-22
5.42646750312e-34
5.4835126362e-31
8.94758146115e-33
0
0
0
0
0
0
0
0
0
0
0
0
0
0
0
0
0
0
4.7254394587e-35
3.19998955152e-34
5.90104604111e-32
97.7647336872
16.320376737
16.4944411826
21.7599747461
17.4449682124
16.8476056815
16.9148651545
18.0141196217
17.4080575026
21.0305819817
22.2366594472
20.6768458029
19.796482512
18.7097279397
20.2165265323
19.8371765683
18.7016876754
18.3870908231
18.551614501
18.3287024979
18.5212704527
18.8827796154
19.5658238898
20.9968908676
24.2457051635
27.2683206011
29.0832180115
28.0189650505
27.2923735368
27.2855413423
27.3148241993
28.3448442789
29.762344606
30.598450191
31.5035478403
32.4716156897
33.1297668607
33.8935214281
34.7911865354
35.7736788459
36.8054063025
37.9079652397
39.1047221605
40.2630131443
41.3635282923
42.5645241328
44.1759924996
45.5934365656
45.9665727382
46.1173969615
46.5245155729
47.3063152451
37.8953009622
3.64984909957e-17
3.33158337802e-22
4.37877489585e-26
5.94721559663e-28
0
0
0
0
0
0
0
0
0
0
0
0
0
0
0
0
0
0
0
0
0
0
1.45401010366e-34
1.05830652038e-23
16.8197614766
16.9694945299
21.4269288822
17.1712688793
17.1530872372
17.3078823954
18.7875087696
17.895462638
21.7342256483
22.9693392715
21.2982629771
20.4203417114
19.2724680159
20.9893568284
20.7852892711
19.5427208845
19.1924279054
19.4514803836
19.2456598968
19.3438355199
19.5044046554
19.9198969189
21.2650582396
24.1920252089
26.956430874
29.3580213259
29.173437839
27.881606337
26.8984323467
27.7604030991
28.7810059551
30.1689535259
31.3417643709
32.3865009869
33.2813334642
33.8439071517
34.5823894595
35.493504606
36.5008643062
37.576017795
38.7038289685
39.9869200071
41.4265620138
43.0184170866
44.2261615224
45.0639430938
46.1998806487
47.2074737423
48.7718097832
50.1291057565
42.8409978383
3.3257223022e-16
4.41592430707e-22
7.61503506397e-26
1.56188290707e-28
3.78161896285e-30
1.26936112289e-32
0
0
0
0
0
0
0
0
0
0
0
0
0
0
0
0
0
0
0
0
0
2.44351288174e-35
3.23299072793e-35
17.5502953519
17.699451853
21.1428132498
17.4715476668
17.7040917886
17.7915695337
18.8378259429
18.6139343641
22.2542807877
23.6651035812
21.9455968429
21.0833226455
19.9386053168
21.6817613926
21.6282864424
20.4532255268
20.0415361064
20.320000499
20.1398231956
20.3060825837
20.3845005365
20.4284630781
21.7257817757
24.3411936925
26.7902726562
29.3986111208
29.7114871267
28.6808304225
27.4208197535
27.9590352648
29.3066527109
30.3489135982
31.422128032
32.6547048853
34.1644986986
34.8553157178
35.5147314336
36.3081015468
37.2848167362
38.4349585391
39.6742082852
41.0896182366
43.0650643711
44.8217010061
45.4481535036
46.181006877
47.8559300079
51.1476807029
55.7030533591
46.8935012529
9.50169219307e-17
1.57839790048e-23
6.5317796148e-28
2.14155617095e-31
1.34371164864e-33
2.72359461704e-33
4.18242501751e-34
0
0
0
0
0
0
0
0
0
0
0
0
0
0
0
0
0
0
0
0
0
1.8060720835e-36
8.20084263763e-36
18.6529532453
18.7656568931
21.4656341024
18.3969477752
18.8349060331
18.6360686006
19.1782958523
19.8920409789
22.3530562948
24.1967588412
22.6474599693
21.808175691
20.7025333205
22.4688885211
22.4942255734
21.5124077455
21.0581048914
21.3218454422
21.0401831815
21.358166892
21.5586653062
21.1487897109
22.2700890123
24.6986887692
26.8263478948
29.2383070695
29.9397606118
29.3661165422
29.2864803616
28.7794714987
29.6509862899
31.0273081316
32.6360781779
33.2338755616
34.4712465171
35.8485731066
36.5705256766
37.4151677109
38.3045641507
39.3832873135
40.7565713183
42.8014433346
45.3185987868
46.4284066887
46.6637916553
48.0612553018
52.2943278235
59.2992506191
53.1708380069
24.2746539703
2.39135802091e-25
2.23265878008e-30
1.52765873733e-32
0
0
0
0
0
0
0
0
0
0
0
0
0
0
0
0
0
0
0
0
0
0
0
0
0
0
0
20.1925343776
20.0868898452
22.3009174507
20.2322712495
20.7339166585
19.8774436871
20.1173082911
21.7328824975
22.6055739563
24.8247013498
23.4541719871
22.6044778995
21.5389216712
23.291136643
23.3548414775
22.6742855403
22.5249816825
22.6237950775
22.0330080907
22.4962225344
23.0147292166
22.1611242152
22.7066754028
25.1496433987
27.0727430754
29.1064221172
30.079347644
29.5399159977
30.4477562419
30.3171968722
30.643371078
30.8058289239
32.4464498778
34.3590588408
35.4047922333
36.6078606428
37.6258047014
38.5134992463
39.5256670783
40.6281343798
42.357939015
45.3129918198
47.5506949419
48.2017659304
49.0076666518
52.3414877526
59.4694647466
56.1687409396
32.1796283984
2.13408932727e-27
3.73083857857e-30
1.70830341571e-32
0
0
0
0
0
0
0
0
0
0
0
0
0
0
0
0
0
0
0
0
0
0
0
0
0
0
0
0
21.8148434635
21.3230379961
23.1909013515
22.6540143344
22.4046292987
21.3004075468
21.1386567182
22.8446118549
21.9384708902
25.3172582718
24.3478578094
23.4634340033
22.4363154283
24.1188918488
24.1514034654
23.6452177055
24.5150807908
24.1806224753
23.137045212
23.734429218
24.3210433714
23.4430374508
22.9010019405
25.1406369667
27.2357848649
29.0057640546
30.1154988059
29.6012588832
30.8335346092
31.5735973672
32.0117475333
31.5626234939
32.6100577304
34.3224378765
36.2903243904
37.8009757295
38.9048344178
39.7745799874
40.7748637612
42.2266487021
44.989158725
48.1652287731
49.9874988168
51.0617809799
53.4044781693
58.2447843373
55.0811017929
31.5472666654
5.74622037767e-27
8.31886633957e-30
2.91342747704e-32
0
0
0
0
0
0
0
0
0
0
0
0
0
0
0
0
0
0
0
0
0
0
0
0
0
0
0
0
0
22.6092675667
22.169877523
23.7462792021
23.6768930986
23.4373816004
22.6284257293
22.2886061982
24.1762499742
22.9614187814
25.9388770983
25.2497424057
24.3569767404
23.3889328671
24.9653632319
24.9440500961
24.4476587602
25.4722521439
25.2741333883
24.1855945228
24.9280237073
25.0524512784
24.2470350998
23.8521836637
24.0828613061
26.6820529328
28.4534713854
29.8509541811
29.5148264599
30.8658814267
32.0998908791
33.1352017225
33.2915277774
33.0176321468
34.3678338336
36.5063768592
38.657165177
40.2966249901
41.4207661238
42.4123302415
44.7623849984
48.2647970378
51.1512465048
52.8097629104
54.7855202708
58.7196883513
55.432988389
29.9962139023
16.5809874889
2.73450959948e-29
7.78802490748e-32
0
0
0
0
0
0
0
0
0
0
0
0
0
0
0
0
0
0
0
0
0
0
0
0
0
0
0
0
0
0
22.6720972225
22.6695679845
24.0593186853
23.8692923964
24.0688962108
23.6404684448
23.2759233887
25.4830645543
24.5854562169
26.7202920489
26.1989609361
25.2696232297
24.3917880905
25.8457947251
25.7925025191
25.362230098
26.2618645017
26.2134897855
25.2597188838
25.92092357
24.9651654889
24.9735485873
24.83919835
25.0879025453
25.8836307925
26.970843973
28.9199638508
29.1878716091
30.4046681413
32.0768854338
33.550806883
34.6055686077
34.4957431764
35.131258126
36.7136286518
38.8636486017
41.2124095207
43.1348269032
44.7777644559
48.0398265206
51.595046133
54.0372787989
55.4316353011
57.3803340593
53.1273878441
35.1642524679
37.7930543229
9.4984714416e-29
2.12774645709e-31
0
0
0
0
0
0
0
0
0
0
0
0
0
0
0
0
0
0
0
0
0
0
0
0
0
0
0
0
0
0
0
22.8657852487
22.9936273866
24.3042695283
23.002619282
24.3121150583
24.1740871379
23.9157040425
26.0675966506
25.3977037779
27.4934216394
27.164287791
26.1678905177
25.4497436615
26.747336488
26.6727748686
26.4021597462
27.1484983502
27.2616892289
26.461215648
27.2908660355
26.2710803812
26.5256052749
26.0627943761
26.3657633654
27.5898024449
28.2188404982
28.4524403208
28.7722096323
29.866907699
31.9056619512
33.4424797801
34.7843933051
35.6988889556
36.1799863078
37.9123392222
39.553913218
41.9440484992
44.7073224372
47.6806335347
51.5686885334
54.7902165076
56.5463950737
56.3283928861
53.6358780884
51.8669491188
32.2698088268
7.97041636492e-28
1.81450428694e-30
0
0
0
0
0
0
0
0
0
0
0
0
0
0
0
0
0
0
0
0
0
0
0
0
0
0
0
0
0
0
0
0
23.4832266437
23.5761086154
24.555717803
23.3359562077
24.5092286997
24.4390284811
24.3353229257
26.2372274809
25.9340682248
28.0464347575
28.0857058605
26.9912254762
26.5473472359
27.6196461303
27.499427854
27.3993080959
27.9980200031
28.3860194861
27.7090767719
28.6868142645
27.9987878213
28.4950264557
28.3546860886
27.3729299751
28.3680769407
29.2737719649
29.4843178137
28.4547579406
29.2468314157
31.6643450271
33.4424235148
34.3787950477
35.456402666
36.4141218342
38.2463681173
40.170355814
42.7694298259
46.2801893455
50.7641623296
55.2116041218
57.7814042196
58.2024139085
56.1627589381
51.1767776574
32.6278152753
39.9147595456
1.26441792035e-29
5.12724277845e-32
0
0
0
0
0
0
0
0
0
0
0
0
0
0
0
0
0
0
0
0
0
0
0
0
0
0
0
0
0
0
0
0
24.2706883365
25.2690553134
24.937510499
24.1887598466
24.9566541335
24.741470354
24.7178096284
26.3564891405
26.401910309
28.2486402434
28.9527685485
27.698601544
27.4975558612
28.3119559702
28.2474311968
28.1349181089
28.3173669788
29.3887852852
28.9973523165
29.8929406427
29.8433819361
29.8021595353
29.7237659726
29.3881508546
28.7450445719
29.4162963311
30.2989439728
27.8825293442
28.5563534099
30.842535429
33.3200937943
34.7073538734
35.8865116397
36.2496212079
37.9601464686
40.2834414941
43.2274216978
47.7260310635
53.8542738658
58.7445733709
60.330347999
56.9689931934
55.1840468153
56.2392591719
37.9579439666
8.57033936177e-29
2.18735674456e-31
0
0
0
0
0
0
0
0
0
0
0
0
0
0
0
0
0
0
0
0
0
0
0
0
0
0
0
0
0
0
0
0
0
24.8223389033
25.8654888517
25.518168776
24.9279874633
25.5282709031
25.1861237585
25.1423597309
26.5280513696
26.8345386593
28.174487539
29.6934172134
28.3404900907
28.03784762
28.8454931059
29.0145815091
28.7626683795
28.5424410654
30.0829839805
30.2839056775
30.9260018768
31.1096557892
31.3504772493
30.355916521
30.3886210297
29.9298513336
30.8840018857
31.4829802435
29.2586054607
27.8611565475
29.6040077136
32.357589226
34.6006870723
35.9567718758
36.5479546484
37.3630288718
39.7559299648
42.9930965391
48.7767126938
56.7951526923