/*--------------------------------*- C++ -*----------------------------------*\
| =========                 |                                                 |
| \\      /  F ield         | OpenFOAM: The Open Source CFD Toolbox           |
|  \\    /   O peration     | Version:  v1806                                 |
|   \\  /    A nd           | Web:      www.OpenFOAM.com                      |
|    \\/     M anipulation  |                                                 |
\*---------------------------------------------------------------------------*/
FoamFile
{
    version     2.0;
    format      ascii;
    class       volScalarField;
    location    "543";
    object      p;
}
// * * * * * * * * * * * * * * * * * * * * * * * * * * * * * * * * * * * * * //

dimensions      [0 2 -2 0 0 0 0];


internalField   nonuniform List<scalar> 
6400
(
0.151338524451
0.151341216988
0.151348881638
0.15136380195
0.151385802549
0.15141477751
0.151450732895
0.151494713798
0.151547401871
0.15160991464
0.15168788904
0.15178429979
0.151896423305
0.152024234448
0.152169568194
0.15233475731
0.152521148755
0.152728544777
0.152955062976
0.153195658028
0.153444692952
0.153703147623
0.153977760205
0.154275811762
0.154601989989
0.154956188205
0.155335021702
0.155735969271
0.156158692949
0.156603862217
0.157071978071
0.15756126043
0.158065825944
0.158579720552
0.159100381567
0.159624777204
0.16015288718
0.160691175965
0.161238433588
0.161785092538
0.162332233162
0.162893278162
0.163475250025
0.164070104667
0.164667245275
0.165259641073
0.165841966495
0.166410349208
0.166961316826
0.167491915778
0.167999905303
0.168480445994
0.168925637966
0.169325329452
0.169678547949
0.169991890169
0.170262542534
0.170481834807
0.170648551903
0.17077165032
0.170858374203
0.170913986165
0.170943010044
0.170955942684
0.170959519177
0.17094973613
0.170921473241
0.170879554556
0.170833260745
0.170787751665
0.170744144313
0.170701661863
0.1706597995
0.170621336624
0.17058644197
0.17055613397
0.170531189111
0.170515018498
0.170504783715
0.170500497481
0.151334566066
0.151337418599
0.15134434503
0.151358924991
0.151382345991
0.151412695959
0.151449100914
0.151491483427
0.15154231659
0.15160468459
0.151682320386
0.151777665268
0.151890029572
0.15201874126
0.152164261915
0.152328133112
0.152513802432
0.152721859844
0.152949752823
0.153191066498
0.153438219159
0.153694491985
0.153968365645
0.15426623709
0.154592775819
0.15494771233
0.155326798526
0.155728286889
0.156151941036
0.156597844134
0.157065976615
0.157555633984
0.158061218226
0.158575179193
0.159095979804
0.159620619473
0.16014848175
0.160687211553
0.161235583113
0.161782810763
0.162328572086
0.162889754855
0.163475523544
0.164073238014
0.164671788633
0.165265735071
0.165849641677
0.166419953877
0.166972705154
0.167503481246
0.168010066016
0.168491720051
0.168942701728
0.169344697082
0.169699449015
0.170015931727
0.170284668779
0.170500230941
0.170666064672
0.170787858611
0.170871365557
0.17092615605
0.170955106498
0.17096838955
0.170972542809
0.170962927093
0.170932867164
0.170887754388
0.170838302204
0.170789994137
0.170744075878
0.1706995287
0.170655585935
0.170615109147
0.170579779539
0.170550017897
0.170526785052
0.170511161738
0.170501287404
0.17049801385
0.151323485761
0.151328223659
0.151334451009
0.151347839398
0.151370494265
0.151404388147
0.151443913089
0.151485038783
0.151533292701
0.151594200405
0.151671053561
0.151765802519
0.151878345717
0.152007748797
0.152153311993
0.152313873742
0.15249727771
0.152710291316
0.15294132391
0.153181387064
0.153424400444
0.15367520562
0.153947768224
0.154247867375
0.154575177511
0.15492980679
0.155310035603
0.155713289741
0.156138454446
0.156585604308
0.157054489364
0.15754512016
0.158052884592
0.158566399968
0.159085790281
0.159612313375
0.160140178718
0.160677720655
0.161227169604
0.161777444501
0.162329594451
0.162895500151
0.163480742259
0.164078042301
0.164677971265
0.165274028479
0.165861049524
0.166434830514
0.166991322498
0.167526737004
0.168038168529
0.168522001468
0.168970756251
0.169376231731
0.169739194815
0.170057251424
0.170323217993
0.170536363318
0.170699992274
0.17081927095
0.170901155979
0.170953195217
0.170980755896
0.170996330773
0.171002616938
0.170990995661
0.17095711487
0.170906532978
0.170849877478
0.170794721073
0.170742832773
0.170693289777
0.170646713143
0.17060523468
0.170569244652
0.170539867928
0.170518234083
0.170503744573
0.17049485736
0.170491726499
0.151307824781
0.151312648256
0.151317843779
0.151330158229
0.151350105181
0.151383864446
0.151434120275
0.151475315309
0.151519900339
0.151578259533
0.151653837116
0.151748217419
0.151861230252
0.151990474513
0.152135969049
0.152301054953
0.152488832198
0.152699263914
0.152922354848
0.153151201878
0.153389779205
0.153643923687
0.153918744245
0.154219242915
0.15454751175
0.154903492495
0.155285508728
0.155690862145
0.156118206699
0.156567048445
0.157037948273
0.1575300609
0.158039280481
0.158556215782
0.159072848734
0.159595911981
0.160127415817
0.160665106916
0.161212003873
0.161766053575
0.162326535231
0.162899051182
0.163487003627
0.164085988575
0.164688542059
0.165288196774
0.165879625845
0.16645832183
0.167020143897
0.167561219392
0.168077878229
0.16856560139
0.169018118232
0.169429627769
0.169797166601
0.170115983752
0.170381108041
0.170592319953
0.170753193549
0.170869427186
0.170948369294
0.170997904909
0.171026573541
0.171046198083
0.171053628646
0.171038532257
0.170996978346
0.170935714614
0.170866958756
0.170800618201
0.170740265768
0.170685455202
0.170635617815
0.17059015449
0.170551319196
0.170522746526
0.17050374628
0.170490027402
0.170480857592
0.1704771834
0.151283337328
0.151284241851
0.151290638017
0.151303282547
0.151325456212
0.151357286793
0.15140316777
0.151448528439
0.151496039641
0.151554976964
0.151629583698
0.151723820025
0.151837824071
0.151972353393
0.152125258641
0.152291278312
0.152472718818
0.152670548354
0.152882784132
0.153108603989
0.153348301706
0.153603585216
0.15387966919
0.154181542469
0.154511170213
0.154868853936
0.155252752751
0.155660745026
0.156090841997
0.156542617804
0.157015483333
0.157511234336
0.158024782498
0.158538958774
0.159054367745
0.159575675937
0.160104196431
0.160643590716
0.161193991538
0.161753535934
0.162321763739
0.162901369839
0.163494008324
0.164096645424
0.164703355193
0.165308043771
0.165905297047
0.166490404387
0.167059107482
0.167607367197
0.168131033078
0.168625230607
0.169084211852
0.169502435436
0.169874888505
0.170195791377
0.170460984862
0.170670862209
0.170829538399
0.170943464993
0.171020697809
0.171069950221
0.171100476517
0.171120952881
0.171123713201
0.171103504551
0.171053626756
0.170978381471
0.170892004722
0.170809150664
0.170736899652
0.170673858585
0.170615398338
0.170562386089
0.170521953994
0.170495241419
0.170477511111
0.170462928349
0.170454704797
0.170452228644
0.151238499898
0.151238426049
0.151249159971
0.15126229885
0.151286836729
0.151320786692
0.151363575332
0.15140971008
0.15146144456
0.151522452278
0.151595729953
0.151690582871
0.151813145686
0.151955940264
0.152108317232
0.152268603723
0.152440521646
0.15262944624
0.152836964071
0.153060644386
0.153298265139
0.15355337962
0.153830911144
0.154134709283
0.154466254425
0.154825339872
0.1552119134
0.155622663362
0.1560566277
0.156511909279
0.156989291589
0.157487148328
0.158000175664
0.158518340399
0.159029703785
0.159545600485
0.160074495501
0.160617484275
0.161172957153
0.161739034639
0.162315155607
0.162902485323
0.163501505951
0.164109744576
0.164722312486
0.165333580214
0.165938170009
0.166531264292
0.167108517926
0.167665754527
0.168198548608
0.168701822467
0.169169799115
0.169596353713
0.169975078302
0.170299746598
0.170566849302
0.17077739164
0.170936049575
0.171049911109
0.171127411235
0.171177629381
0.171209535193
0.171224755967
0.171221434763
0.171191461343
0.171128341002
0.171034877269
0.170925315972
0.170820187251
0.170730561793
0.170651462916
0.1705776995
0.170517920993
0.170477608815
0.170453023386
0.170435723919
0.17042339245
0.170418052119
0.170416200891
0.151170127012
0.151175290408
0.151193113624
0.151212595002
0.151233762651
0.151268105196
0.15131283719
0.1513608388
0.151415766329
0.151479312408
0.151556498293
0.151654780403
0.151784783185
0.151927127619
0.152075192605
0.152227711128
0.152393349547
0.152579930822
0.152785586854
0.153004186454
0.153238795485
0.153494240111
0.153772983517
0.154078102727
0.154411768494
0.15477474239
0.155162280836
0.155576522092
0.156015007044
0.156477463851
0.156958906013
0.15745684385
0.1579705022
0.158483262728
0.158993058967
0.159508505645
0.160039783196
0.16058739753
0.161148889457
0.161722199112
0.162306623563
0.162902450132
0.163509362754
0.164125048894
0.164745251649
0.165364759792
0.165978321676
0.16658112362
0.167168807954
0.167737133968
0.168281511635
0.168796631165
0.169276318066
0.169713617856
0.170101191595
0.170432716534
0.170705238957
0.170920203553
0.171082373421
0.171198562289
0.17127696006
0.171326711139
0.171355088235
0.171361773173
0.171356905408
0.171315198767
0.171229148063
0.171108214523
0.17096816512
0.170832458126
0.170713688474
0.170607197625
0.170515679932
0.170451389987
0.170412777972
0.170391520489
0.170377721519
0.170372043482
0.170372212178
0.170372185641
0.151089445588
0.151099606214
0.151120103699
0.151148228937
0.151171573906
0.151207294293
0.151250791374
0.151301283561
0.151360324557
0.151422019749
0.151506927495
0.151617086739
0.151745517553
0.151884782998
0.152026242191
0.152171736362
0.152336435186
0.15252362768
0.152724443286
0.152938018004
0.153170259352
0.153425574213
0.153705380433
0.154012967476
0.154349712337
0.154715400284
0.155107100021
0.155520887498
0.155967005371
0.156439197067
0.156921992007
0.157416467136
0.157927895761
0.158437449986
0.158945029209
0.15946443
0.160000451085
0.160553427194
0.161121490557
0.161702660698
0.162295999896
0.162901219829
0.163517457455
0.164142357839
0.164772004795
0.16540151931
0.166025840751
0.166640267624
0.16724051832
0.167822363192
0.168381113458
0.168911197939
0.169405915524
0.169857547136
0.170258206348
0.170601671084
0.170885266741
0.171110078972
0.171279377394
0.171398319127
0.171474600069
0.171517847785
0.171536030633
0.171535168953
0.171522912674
0.171479998574
0.171367686567
0.17120617477
0.171020849575
0.17083767656
0.170672841275
0.170529301986
0.170420710171
0.170353950628
0.170320597241
0.17030752038
0.170306234957
0.170312154303
0.170320969125
0.170325321845
0.151000707885
0.151013904544
0.151034791265
0.151058843372
0.151088649154
0.15113224697
0.151175925697
0.151227914772
0.15129408598
0.151360774258
0.151443507231
0.151561900914
0.151692886262
0.151826832668
0.151962589331
0.152107625636
0.152271595136
0.152455848512
0.15265211218
0.152862772686
0.153093222152
0.153347424321
0.153626696494
0.153935659817
0.154279948265
0.154646959781
0.155043183732
0.15546506953
0.155912476137
0.156385461642
0.156873888811
0.157374188894
0.157873359175
0.158377295934
0.158888899208
0.15941409713
0.159956015919
0.160515157094
0.161090379874
0.161680043666
0.16228305005
0.162898668914
0.163525631913
0.164161464263
0.164802395974
0.16544379263
0.16608083637
0.166709036215
0.167324269024
0.167922391488
0.168498697801
0.169047421588
0.169561443412
0.1700325612
0.170452704812
0.170815717798
0.171118365676
0.171359540966
0.171538291648
0.17165761492
0.17172674076
0.171758473509
0.171763578769
0.171748896633
0.171717528622
0.171669455628
0.17155392187
0.171337685719
0.171083336861
0.170826199661
0.170592538611
0.170403469237
0.17027792673
0.170212637302
0.170192527481
0.170200440579
0.170223734621
0.170248610101
0.170268694297
0.17027897683
0.150902532796
0.150917737764
0.150942066445
0.150965310133
0.150997398141
0.151041479732
0.151086993883
0.151139121706
0.151205085712
0.151287044578
0.151374406567
0.151492865973
0.151624539835
0.151754656816
0.151884868245
0.152032354322
0.152199278231
0.152378399297
0.152569178782
0.152777326102
0.153007184595
0.153261319098
0.153540420346
0.153847660919
0.154198075538
0.154573569675
0.154965824334
0.1553951194
0.155847487553
0.156324942281
0.156815911433
0.157313244164
0.157810591431
0.158310604835
0.158825508999
0.15935717933
0.15990593976
0.160472105459
0.161055154042
0.16165395129
0.162267436436
0.162894552086
0.163533663765
0.164182128021
0.164836225639
0.165491511298
0.166143437891
0.166787806745
0.167420731464
0.168038238743
0.16863573808
0.169207490154
0.169746308807
0.170244017199
0.170692706903
0.171085914955
0.171417941497
0.171682487692
0.171871107739
0.171987855136
0.172046606767
0.172063708819
0.172050522201
0.172013954893
0.171957881834
0.17187680403
0.171749820503
0.171518499642
0.171154859099
0.170779385637
0.170449478897
0.170205590429
0.170063178191
0.170007785076
0.170017382567
0.170068179964
0.170132720694
0.170185789894
0.170219696355
0.170235651067
0.150790696008
0.15080520137
0.150831588268
0.150859490713
0.150899241973
0.150938257266
0.150984239896
0.151038497066
0.151097347652
0.151187187335
0.151287340186
0.151406301492
0.151538043111
0.151668264132
0.151797424785
0.151945197398
0.152113242454
0.152289036424
0.152475645492
0.152680406442
0.152909138154
0.153164701832
0.1534483452
0.15375510124
0.154100058953
0.154488695197
0.154889136185
0.155317673856
0.155771412629
0.15624259987
0.156740805249
0.157240225644
0.157734585263
0.158235702169
0.158755264119
0.159293561088
0.159849731547
0.160423754987
0.161015393132
0.161623989786
0.16224876267
0.162888507269
0.163541229528
0.164204052019
0.16487325229
0.165544570722
0.166213768678
0.166876980622
0.167530606031
0.168170941977
0.168793729484
0.169393651432
0.169964118505
0.170497770053
0.170987264143
0.171424769394
0.171798123765
0.172094048531
0.172295052016
0.172411586685
0.172460640088
0.172458674369
0.172417642203
0.172350675792
0.172272004268
0.172150768564
0.17195597464
0.171678170874
0.171234638223
0.17067316314
0.170205913712
0.169892992974
0.169737337634
0.169710259122
0.169779863156
0.169908066508
0.170041292509
0.170134187862
0.170182349732
0.170201205891
0.150661937903
0.150673335321
0.15069399987
0.150729778469
0.150779289392
0.150818418677
0.150865367639
0.150925148194
0.150982511066
0.151068911329
0.151178833959
0.151300725521
0.151431819476
0.151563644776
0.151698963866
0.151848690513
0.152014962795
0.152187451695
0.152371357233
0.152572857946
0.152797715348
0.153050840635
0.153343266408
0.153661383712
0.154000564285
0.154388767829
0.154797689583
0.155223134149
0.155686966213
0.156163415754
0.156652648712
0.157146760928
0.157642305395
0.158151042759
0.158677345516
0.159222680518
0.159786780224
0.160369472611
0.160970592706
0.16158975028
0.162226582038
0.162880062924
0.163547899946
0.164226853154
0.164913160778
0.165602806618
0.166291909381
0.166976936276
0.167654568875
0.168321466307
0.168973977398
0.169607816262
0.170218052688
0.170799402475
0.17134543014
0.171844360456
0.172270607839
0.172615307876
0.172842352838
0.17297114366
0.173014075038
0.172981404303
0.172891605912
0.172779116068
0.172704117177
0.172577247718
0.172281009338
0.171838225956
0.17120726169
0.170438853122
0.16978863171
0.169389401547
0.169232537716
0.169270588989
0.169454057237
0.169722236907
0.16997564325
0.170121011594
0.170171766483
0.170183524896
0.150515924711
0.150524569044
0.150536822105
0.150576942114
0.150627154073
0.150673351561
0.150723929623
0.150789861282
0.150853956704
0.150939093409
0.151053014527
0.151176740905
0.151306744838
0.151436577271
0.151580085098
0.1517384993
0.151903400348
0.152073066575
0.152255371815
0.152455066454
0.152675858962
0.152922290705
0.153214429602
0.153552883101
0.153898326429
0.154274471413
0.154694921971
0.15512615397
0.155580887473
0.156061263094
0.156551743298
0.157043269401
0.157540285925
0.158055883579
0.158590191605
0.159143598847
0.159716300153
0.160308348883
0.160919925891
0.16155073008
0.162200529598
0.162868730192
0.163553097663
0.164250005241
0.16495552404
0.165665946069
0.16637784498
0.167087979603
0.167793206008
0.168490560461
0.169177303085
0.169851002983
0.170509938223
0.171152703974
0.171773689308
0.172352881968
0.172839692792
0.173289571389
0.173587929548
0.1737613493
0.173805739208
0.173716104445
0.173531800743
0.173325740552
0.173370219027
0.173396013963
0.173002125943
0.172095707928
0.171038577499
0.169970684648
0.169120895786
0.168620005158
0.168492509782
0.168642394271
0.169014196088
0.169533618443
0.170005796725
0.170203611476
0.170203952784
0.170180456976
0.15035364372
0.150363605405
0.150380614705
0.150410421312
0.150455288519
0.150506123547
0.150561404566
0.150630439996
0.150705731206
0.150792827284
0.150909687101
0.151034974934
0.151165133103
0.151293796669
0.151438854568
0.151605366337
0.151773269599
0.151943685376
0.152125949795
0.152325185797
0.152543946752
0.152784674418
0.15307140894
0.153420560968
0.153781349736
0.154154503044
0.154577974329
0.155017452746
0.15546719949
0.155944156935
0.156428516152
0.156919313883
0.157425622856
0.157949926408
0.158492831445
0.159055136724
0.159637478421
0.160239760962
0.160862423837
0.161505884204
0.162169957646
0.162854075218
0.163556275532
0.164272846547
0.1649997154
0.165733524324
0.166471396279
0.167210269534
0.167946904828
0.168678591665
0.169403726447
0.170122683069
0.170838835226
0.171556831667
0.172270787849
0.172952147393
0.173516321992
0.174290800051
0.174661998464
0.174866924805
0.174847991684
0.174515402921
0.173911958996
0.173291945219
0.173308362912
0.173522903461
0.173485514556
0.172711485896
0.170594682029
0.168947325484
0.167766854955
0.1671321074
0.167158205737
0.16758120182
0.168305497086
0.169309890734
0.170297322516
0.170486876329
0.170285848719
0.170159208054
0.15017107641
0.150182368782
0.150208660417
0.150229075382
0.150267665704
0.150319755097
0.15037881394
0.150452409431
0.150541146487
0.15062963608
0.150748264584
0.150875396513
0.151007098203
0.15113773987
0.151284029011
0.151453926306
0.151625048328
0.151798302054
0.151982085168
0.152181632143
0.152399963392
0.152638625068
0.152916410166
0.15326231509
0.153646727045
0.154027585728
0.154438900587
0.154893612498
0.155352205211
0.155812352199
0.156289541296
0.156784026815
0.157298048171
0.157831479474
0.15838403312
0.158956257116
0.159548909962
0.160162538837
0.160797454218
0.161454338216
0.162133789723
0.162835295001
0.163556830534
0.164294689485
0.165044919673
0.165804760466
0.166572036991
0.167343706345
0.1681158387
0.16888540358
0.169652205171
0.1704204155
0.171199727118
0.172002548528
0.172826634797
0.1737115534
0.173974990535
0.174185940189
0.174428720336
0.174582662257
0.174556443035
0.174333859099
0.17396599346
0.173569435605
0.173329964059
0.173224737568
0.172773747025
0.171564480155
0.169996287063
0.168701389589
0.167814100543
0.167418215816
0.167510431071
0.16801386062
0.168894091126
0.170190804368
0.171341255989
0.171432536657
0.170249298696
0.17002751326
0.149964434761
0.149975148808
0.150000218693
0.150022599693
0.150058872964
0.150112417241
0.150173483011
0.150247332407
0.150348785366
0.150446790807
0.150566971022
0.150696757384
0.150831622571
0.150966869413
0.151116066796
0.151287261797
0.151460630179
0.151637338546
0.151823544911
0.152024080559
0.152242327891
0.152480797234
0.152752594155
0.15309032905
0.153489153403
0.153887284529
0.15429044937
0.154737717281
0.155206068737
0.155670548612
0.156142488842
0.156637709326
0.157157942315
0.157700437167
0.158263101951
0.15884579134
0.159449630622
0.16007534325
0.160723651696
0.1613952029
0.16209105434
0.162811307566
0.163553895378
0.164314758173
0.165090047876
0.165878326787
0.166678889523
0.167488176696
0.168299762948
0.169109816207
0.169920701535
0.170739728357
0.171579876597
0.172456203421
0.173345659359
0.173578362354
0.173818759177
0.174050396993
0.17426014137
0.17438431413
0.174347960104
0.174132656444
0.173770537952
0.173336764522
0.172926343025
0.17252580528
0.171925332419
0.170979578987
0.169823027086
0.168697844543
0.167805769029
0.167286821903
0.167197563353
0.167530985276
0.168238911508
0.169228339883
0.170092400565
0.170936088515
0.170890093153
0.169335222238
0.149735622389
0.149745560479
0.149771605219
0.149794512212
0.149831289541
0.149885345386
0.149947984674
0.150019166762
0.150122808443
0.150235561258
0.150361997694
0.150496034787
0.150635819315
0.150779426868
0.150932279881
0.15110474434
0.151280258912
0.151460937601
0.15165014496
0.151852345703
0.152070917757
0.152308992491
0.152576807567
0.152904773242
0.153303428549
0.153727932566
0.15413968967
0.154573443634
0.155035556838
0.155501226274
0.155975394676
0.156476442086
0.157003950385
0.157555419907
0.15812863827
0.158722803967
0.159338504878
0.159977168707
0.160639739429
0.161327196559
0.162040669527
0.162780794786
0.163546114339
0.164332104191
0.16513430922
0.165953041484
0.16679037666
0.167641949908
0.168496863442
0.169350092958
0.170207714138
0.171078622392
0.171978669473
0.172869838902
0.173145328078
0.173401553876
0.173629025042
0.173827505918
0.173972037429
0.174019276478
0.173924213633
0.173674229543
0.173291546071
0.172821139448
0.172305775446
0.171732825093
0.171010314575
0.170067649182
0.1689697971
0.167883389205
0.166950796031
0.166289037134
0.16599397275
0.166080223525
0.166506413246
0.167198228784
0.167998436021
0.168969119574
0.169533516527
0.171789178993
0.149487001358
0.149495409669
0.14951730675
0.149543538177
0.149585241289
0.149640001743
0.149705736871
0.149776171071
0.149879026902
0.150000701091
0.150132882784
0.150270829709
0.150414277258
0.150569271998
0.150729225364
0.150903250556
0.151081588456
0.151267683583
0.151460922104
0.151665606993
0.151885131888
0.152122765136
0.152387599187
0.152707255016
0.153100049725
0.153540892533
0.153972770482
0.154402049017
0.154852227399
0.155313207016
0.155791157371
0.15629822982
0.156833359436
0.157393761394
0.157978089301
0.158585042369
0.159214105713
0.159866510514
0.160544470206
0.161248831226
0.161981082557
0.162742710089
0.163532682977
0.164345903056
0.165175658584
0.166025060775
0.166904813663
0.167808475426
0.168709446494
0.169605422842
0.170511067727
0.171438354413
0.172347983617
0.172650057648
0.172921659835
0.173161225528
0.17335726192
0.173498301519
0.173563745315
0.173524683352
0.173353419834
0.17303998551
0.172595859932
0.17204539427
0.17140966064
0.170684110962
0.169833201027
0.16883392665
0.167729616179
0.166623351263
0.16560387066
0.164740588332
0.164120440033
0.163784945237
0.16372207644
0.163913529205
0.164354336804
0.165294659467
0.167455530904
0.169618095496
0.149221713183
0.149228843373
0.149245368997
0.149275492589
0.149321407392
0.149376650685
0.149444816184
0.14951868182
0.149618475921
0.149744808136
0.149880817261
0.150021589347
0.150166199265
0.150327799808
0.150500407812
0.150678772477
0.150860807723
0.151053240318
0.151253066259
0.151462015744
0.151683896172
0.151921241048
0.152183954405
0.152496716389
0.15287867907
0.153317767731
0.153770797754
0.154211415136
0.154657953331
0.155115444059
0.155591915431
0.156102993357
0.156645540419
0.157213437866
0.157809799846
0.158430724193
0.159073415797
0.15974098402
0.160435744911
0.161158889968
0.16191140068
0.162695188895
0.163510544263
0.164354136914
0.16522088605
0.166113115684
0.167037072548
0.167979081896
0.168920870089
0.169869896198
0.170832064036
0.171808664344
0.172120666022
0.172389567489
0.172635337658
0.172837351171
0.172975536095
0.173036674423
0.1730051901
0.172861567961
0.172588204924
0.172177898062
0.171636358453
0.1709770949
0.17021195981
0.169341215224
0.168353176602
0.16724383573
0.166041406661
0.164805371317
0.16360173068
0.162444255655
0.161372077851
0.160432273903
0.159600174135
0.158823243921
0.158045116878
0.157223489666
0.156160539967
0.153836055541
0.148940939959
0.148947799944
0.148962760712
0.148996767704
0.149042709414
0.149096391124
0.149162735774
0.149241688051
0.149338307778
0.149467040458
0.149606114631
0.149749636586
0.149896351837
0.150059497797
0.15024292918
0.150429160027
0.150616841028
0.150815078431
0.151022352026
0.151238185477
0.151465215697
0.151703310145
0.151964554449
0.152272471534
0.152644112227
0.15307551983
0.153537196821
0.153991943873
0.154437094706
0.154892676187
0.155374458478
0.15588755102
0.156435157115
0.157012623802
0.157621607763
0.158256722898
0.158914320314
0.159598263002
0.160311007559
0.161054219031
0.161828969892
0.162637330875
0.163482708297
0.164366724137
0.165281538016
0.166214681716
0.167169362285
0.168145231571
0.16913978079
0.170160885755
0.171238508037
0.171563654294
0.171824620646
0.172066804949
0.172270216122
0.172407035204
0.172461209534
0.172421392973
0.172275450799
0.172010082954
0.171614009594
0.171082155441
0.170416976171
0.169625619038
0.168714724472
0.167685848526
0.166536049284
0.165266854462
0.163895122028
0.162452593004
0.16097630667
0.159433100302
0.157785653807
0.156038171872
0.154105384799
0.151805074627
0.148869288986
0.145006156782
0.140224381451
0.139593523083
0.148641858363
0.14864898981
0.148664670336
0.148702976706
0.148748363107
0.148799841073
0.148862131835
0.148944240969
0.149036168409
0.149165754443
0.149307964595
0.149454419681
0.149604330181
0.149770390594
0.149960074042
0.150154385563
0.150349421725
0.150553982044
0.150767552327
0.150990989313
0.151225992711
0.151467013534
0.15172718971
0.15203184703
0.152394912052
0.152816605795
0.153278388286
0.153742059822
0.15419748474
0.154653702754
0.155138979754
0.155656641966
0.156206433442
0.156787048871
0.157405413547
0.158057966297
0.158733919871
0.159436359808
0.160168053172
0.160932226836
0.16173147275
0.162568614029
0.163452780411
0.164385873187
0.16534294837
0.16630745524
0.167294320422
0.168329124657
0.169410339108
0.170593697351
0.170952785708
0.171219740593
0.171462821447
0.171665096422
0.171798475804
0.171845460231
0.171794132609
0.171634702479
0.171357943043
0.170954917078
0.170418325446
0.169744453606
0.168933775569
0.16798937124
0.16691406934
0.165708101994
0.164369323487
0.1628968218
0.161294726337
0.159570119414
0.157723410797
0.155721485565
0.153422497804
0.150704628085
0.147389581844
0.143045537345
0.136819410617
0.126907389956
0.108171063933
0.0625541057474
0.148317808829
0.148325170889
0.148343517401
0.148386698428
0.148432309883
0.148482269273
0.148542692348
0.148625068381
0.148711822034
0.148840046309
0.148985080507
0.149134435729
0.149287615825
0.149456713623
0.149650713023
0.149852480844
0.150056974579
0.150268769826
0.150487876637
0.150718242456
0.150962897302
0.151209953686
0.151469224791
0.151771386397
0.152128350467
0.152539626427
0.15299500048
0.15345729684
0.153925891594
0.154396349299
0.154883227866
0.155400009113
0.155955633774
0.156546011621
0.157167369474
0.157830696856
0.158526553852
0.159249945334
0.160004256103
0.160791442391
0.16161628018
0.162489698266
0.163425517435
0.164408141467
0.165398436587
0.166394481038
0.167440810455
0.168598312915
0.169819980625
0.170242091121
0.170541810677
0.170808885141
0.171020153424
0.171153523924
0.171195218756
0.171133628241
0.17095916419
0.170664363278
0.170242900212
0.169688992414
0.168997823312
0.168166364744
0.167193543888
0.166079264205
0.164822705684
0.16342083856
0.161868036672
0.160156847031
0.158278184281
0.156218010975
0.153948357278
0.151420218711
0.148436517387
0.144709406326
0.139950284232
0.1335438997
0.124248770588
0.109654273307
0.084898139212
0.0436027462951
0.14795959102
0.147967149073
0.147988119494
0.148036334116
0.148082046406
0.148133810699
0.148194230587
0.148275104544
0.148359939103
0.148487935627
0.14863585327
0.148787983518
0.148944249759
0.149115875591
0.149312476969
0.149519429971
0.149735308236
0.14995605493
0.150181120642
0.150417802076
0.150671795555
0.150929217713
0.151189096962
0.151487699243
0.151840860616
0.152243451949
0.152690550438
0.153147063722
0.153617013465
0.154105338938
0.1546079894
0.155127452846
0.155675144089
0.156269826776
0.156905177695
0.157578636013
0.158290738299
0.159035381481
0.159813423822
0.160627336025
0.161484914212
0.162407613813
0.163400859169
0.164426757301
0.165456535756
0.166513330518
0.167668003467
0.169052602341
0.169478129435
0.16977355629
0.170083051914
0.170324313983
0.170469975595
0.170513219106
0.170445861375
0.170259305458
0.169947000852
0.169504289786
0.168927374554
0.168212672544
0.167356798595
0.166356787714
0.16520999242
0.163913357081
0.162462231
0.160849141611
0.159062846828
0.157087466433
0.154900603783
0.152468690778
0.149737902735
0.146619325608
0.142970252949
0.138407101421
0.132425301
0.124433827582
0.113314764099
0.0971853993171
0.0727496640989
0.0389926361736
0.147559684979
0.147569244432
0.147591403354
0.147639291587
0.14768845234
0.147747313392
0.147811745219
0.14789424922
0.14798415477
0.148108200928
0.148258335062
0.148413246042
0.148572615277
0.148746518649
0.148944584404
0.149153081785
0.149376584365
0.149609614233
0.149843526727
0.150087898001
0.15034952786
0.15062053932
0.150889044717
0.151180925235
0.15153005349
0.151926242048
0.152365292577
0.152816303075
0.153281395822
0.153777837522
0.154297915672
0.154832459173
0.155381075531
0.155969653205
0.156607812674
0.157294721624
0.158024645673
0.158791627116
0.159593640094
0.160437251155
0.16134130195
0.162325702628
0.163374671866
0.164450121789
0.165548396132
0.166704868122
0.167912723061
0.168761115455
0.169084545415
0.169329726211
0.169575095005
0.169744636771
0.169800781056
0.169734960649
0.169541634221
0.169215857728
0.168754247843
0.16815459062
0.167414999302
0.166533284294
0.165506677864
0.16433172158
0.163003992224
0.161517459348
0.159863491689
0.158029652591
0.155998335848
0.153744973827
0.151235078779
0.14841899051
0.145223137981
0.141536518063
0.137193516221
0.131908885917
0.125106402839
0.116060415927
0.103923062103
0.0873348954364
0.063875829279
0.0341714627624
0.147122950226
0.147135890917
0.147158225071
0.147200074062
0.147255621066
0.147322069373
0.147393334854
0.147481743901
0.147582454451
0.147701898688
0.147851573888
0.1480086069
0.148171215581
0.148347662056
0.148547524724
0.148757969964
0.148983626652
0.149227298872
0.149472993877
0.149727832442
0.149997158105
0.150281397592
0.150568204333
0.150863944603
0.151201373739
0.151589713112
0.152020614485
0.152466518167
0.152924915831
0.153420431863
0.153948947993
0.154503500311
0.15506509072
0.155650847487
0.156284991844
0.156975640743
0.157720322656
0.158511609688