/*--------------------------------*- C++ -*----------------------------------*\
| =========                 |                                                 |
| \\      /  F ield         | OpenFOAM: The Open Source CFD Toolbox           |
|  \\    /   O peration     | Version:  v1806                                 |
|   \\  /    A nd           | Web:      www.OpenFOAM.com                      |
|    \\/     M anipulation  |                                                 |
\*---------------------------------------------------------------------------*/
FoamFile
{
    version     2.0;
    format      ascii;
    class       volScalarField;
    location    "317";
    object      p;
}
// * * * * * * * * * * * * * * * * * * * * * * * * * * * * * * * * * * * * * //

dimensions      [0 2 -2 0 0 0 0];


internalField   nonuniform List<scalar> 
6400
(
0.153952177731
0.153954386478
0.153960623777
0.153972565054
0.153989714695
0.154011839482
0.154039017706
0.154072327811
0.154111906381
0.154157977472
0.154215771642
0.154287973657
0.154371344323
0.154465968164
0.154573686497
0.154696586452
0.154835361439
0.154989400598
0.155157205526
0.155334164254
0.155514177814
0.155697217375
0.155888821931
0.156095447341
0.156321579475
0.156567056468
0.15682843099
0.157103313396
0.157391605216
0.15769417028
0.158011740852
0.158342851936
0.158681775467
0.159022878991
0.159364250794
0.159702342474
0.160036322355
0.160373876173
0.160714231713
0.161046732628
0.161372829251
0.161707726085
0.16205968421
0.162420970261
0.162782811272
0.163140139082
0.163489140453
0.16382768699
0.16415402741
0.16446681277
0.16476550295
0.165046167165
0.165303154338
0.165528230931
0.165721805694
0.165892565413
0.166038241973
0.166150365003
0.166228185577
0.166279362695
0.166308881484
0.16631952902
0.166317134338
0.166299774096
0.166256759326
0.16616883774
0.166033032877
0.165874496302
0.165720352196
0.165579111456
0.1654483558
0.165322049451
0.165196192804
0.165077297903
0.164964846202
0.164862807982
0.164774295231
0.164714443433
0.164675032286
0.16465829204
0.153948844345
0.153951155277
0.153956687078
0.153968369798
0.153986965711
0.154010524218
0.154038205255
0.154070003733
0.154107829959
0.154153922791
0.154211416099
0.154282415925
0.154366050337
0.154461701071
0.154569787111
0.154691438787
0.154829602298
0.154984420993
0.155153937879
0.155332177144
0.155510464876
0.155691219876
0.15588191245
0.156088051667
0.15631446463
0.156560834959
0.156822405485
0.157097843799
0.15738720316
0.157690648386
0.158008154783
0.158339629652
0.158679830614
0.159021060039
0.159362812698
0.159701234529
0.160034736789
0.160372675925
0.160713977542
0.161046183229
0.161368804957
0.161702655015
0.162059495697
0.162424143895
0.16278735586
0.163146137707
0.16349639819
0.163836509021
0.164164066088
0.164475925239
0.16477179489
0.165053323568
0.165317989166
0.165545301962
0.165740115617
0.165914715807
0.166058236703
0.16616644505
0.16624351573
0.16629399144
0.166322023053
0.166332896591
0.166329682541
0.166311871537
0.166269050361
0.166181984016
0.166043856009
0.165882375141
0.165725575482
0.165581450098
0.165447908739
0.165318373826
0.165188012102
0.165063163613
0.164948420213
0.164846185891
0.164761606633
0.164701466701
0.164662100844
0.164648663372
0.153939654287
0.153943569423
0.153948383004
0.153959067015
0.153977106293
0.154003776832
0.154034347474
0.154065245192
0.154100914251
0.154145815613
0.15420263895
0.154273024476
0.154356820439
0.154453188957
0.154561493819
0.154679892272
0.15481613839
0.154977331732
0.15515065083
0.155327951718
0.155502030098
0.15567660221
0.155865496886
0.15607417527
0.15630128173
0.156547062577
0.156809963644
0.157087447221
0.157378515822
0.157683434716
0.158001830148
0.158334354476
0.158677315212
0.159017989298
0.159358106898
0.1596993112
0.160032302759
0.160367981807
0.160709921684
0.161044509931
0.161373819908
0.161712088341
0.162066123743
0.1624287891
0.162792265184
0.163152015723
0.163504515342
0.163847259195
0.164177818476
0.164493980874
0.164794535493
0.165077712985
0.165338093134
0.165568917652
0.165773491712
0.165949782809
0.166090799107
0.166197667404
0.166273765157
0.166323013577
0.166350173835
0.166360294642
0.166355556803
0.166338459425
0.166295111261
0.166204643072
0.166067095526
0.165903911582
0.165739610059
0.165587076112
0.165445123104
0.165307133104
0.165171760323
0.165043593025
0.16492483633
0.164820521852
0.164736956632
0.164676396204
0.164637847698
0.164623532191
0.153927124214
0.153931017908
0.153934709038
0.153944493618
0.153960344178
0.153986882571
0.154026954107
0.154057787415
0.154090638437
0.154133428708
0.154189215433
0.154259270275
0.154343476767
0.154439571649
0.154548260764
0.154672759941
0.15481478299
0.154973810717
0.155139688731
0.155305032015
0.155473790194
0.155651710703
0.155842861808
0.156051654979
0.156279782681
0.156527155187
0.156792188647
0.157072086661
0.157365686178
0.157672510465
0.157993440363
0.158327731875
0.158672283037
0.159018001614
0.159354818533
0.159691270962
0.160028767212
0.160363231566
0.160699482209
0.161036538796
0.161374012331
0.161718305543
0.162073667549
0.16243660057
0.162801310111
0.163163213233
0.163518706239
0.163864977256
0.164199549592
0.164520196181
0.164824952471
0.165111198436
0.165374810881
0.165611876217
0.165821067289
0.165998373184
0.166139976831
0.166246794379
0.166322221562
0.166370469364
0.166396264478
0.16640397171
0.166397523339
0.166380779361
0.166338457031
0.166249622822
0.16610772306
0.165935626686
0.16575905172
0.165593755016
0.16544183463
0.165297545496
0.165156637844
0.165017145863
0.16488623066
0.164778120591
0.164695731278
0.164629183032
0.164582568244
0.164563187828
0.153907706545
0.15390804613
0.153912633137
0.153922660122
0.153940309938
0.153965234188
0.154001275775
0.154035941646
0.154071346332
0.154114947141
0.154170066122
0.154240069878
0.154325278218
0.154427348124
0.154544508673
0.154670856572
0.154807565273
0.154954341328
0.155108858812
0.155271031256
0.155441138587
0.155619989593
0.155812194636
0.1560223353
0.156251940025
0.15650134758
0.15676858078
0.157051599549
0.15734829255
0.157658669155
0.157981950651
0.158320956065
0.15867134555
0.159013269216
0.159349186622
0.159683090936
0.160014894012
0.160349599161
0.160688128946
0.161029453022
0.161373600477
0.161723732369
0.162082212055
0.162447133645
0.16281424414
0.163179303084
0.163538680584
0.163889412348
0.164228976162
0.164555083401
0.164865407469
0.165157072384
0.165426478301
0.165670039315
0.165884336317
0.166064782532
0.166208428705
0.166316438903
0.166392383828
0.166440597929
0.166465645064
0.166471831849
0.16646322202
0.166444648453
0.166398841262
0.166309119842
0.166164688042
0.16598283713
0.165789891662
0.165607598382
0.165443216592
0.165288370328
0.165129979683
0.16496888634
0.164825327659
0.164710593412
0.164617103284
0.164530974559
0.164475588048
0.164455188515
0.153871345204
0.153870818921
0.153879229123
0.153889444568
0.153908883813
0.153935859167
0.153968885514
0.154004424227
0.15404343887
0.154088991679
0.154142930833
0.154213920905
0.154308352832
0.15441897805
0.154536241087
0.154657539799
0.154785044373
0.154923033002
0.155073516934
0.155234200929
0.155402054089
0.155580459654
0.155774043115
0.155986206147
0.156217946704
0.156468906101
0.156739545995
0.157025740547
0.157326999044
0.157641248128
0.157970318453
0.158312345713
0.158662100527
0.159009751806
0.1593400852
0.159665828384
0.159996381537
0.160333351821
0.160675666173
0.161022088682
0.161372552964
0.161728680157
0.162091645513
0.162460143419
0.162830922322
0.163200185073
0.163564390332
0.16392054498
0.164266150355
0.164598925459
0.164916430446
0.165215712644
0.165493193664
0.165744789563
0.165965829356
0.166151523492
0.166299497846
0.16641106053
0.166489682899
0.16653954339
0.166564908269
0.16657044098
0.166560185807
0.166534889574
0.166485214971
0.166388254918
0.166235939579
0.166043453417
0.165833148834
0.165631707692
0.165449815807
0.165271453663
0.165082005715
0.164897185651
0.1647374861
0.164606022028
0.164486946133
0.164380639096
0.164316719479
0.164288944589
0.153815566254
0.15381952317
0.153834382417
0.153849889913
0.15386615236
0.153893128464
0.153928216649
0.153965018758
0.154006844258
0.154054701266
0.154112563331
0.154186857702
0.15428924716
0.154400226733
0.154513769086
0.15462741844
0.154748656071
0.154885100535
0.155034872151
0.155190554394
0.155355375178
0.15553425471
0.155729077846
0.155942519338
0.156176527366
0.156432392028
0.156704148544
0.156994856832
0.157301184882
0.157624007983
0.157958345298
0.158300848299
0.158652022398
0.158992638861
0.159319943762
0.159643371701
0.159974973481
0.160315299061
0.160662209847
0.161014159608
0.161370976437
0.161733461876
0.162102015337
0.16247548329
0.162851195078
0.163225748466
0.163595772066
0.163958375042
0.164311188882
0.164652046812
0.164978536527
0.16528764349
0.16557552962
0.165837434572
0.166067930783
0.166262186907
0.166418069785
0.166536645322
0.166620710123
0.166673596749
0.166699240397
0.166703020155
0.166689055217
0.166654573812
0.166604162496
0.16649911507
0.166330410605
0.166121646259
0.165892839915
0.165668241691
0.165455713999
0.165238390596
0.16501240808
0.16480076572
0.164615258087
0.164451877472
0.164297991185
0.164173615749
0.164101363738
0.164065882837
0.15375017503
0.153758315078
0.153775851691
0.153799192427
0.153817199329
0.153844653245
0.153878737889
0.15391744947
0.153962975957
0.154008977625
0.154074077385
0.154160355841
0.15426143507
0.154370153566
0.154477114013
0.154583696017
0.154704556556
0.154842829641
0.154987999164
0.155138871653
0.155301556058
0.155480652053
0.155676831284
0.155893088544
0.156130612741
0.156389621889
0.1566667222
0.156956875981
0.157272717888
0.157607447955
0.157942718086
0.15828155274
0.158631011302
0.158966572601
0.159289423577
0.159616085635
0.159951320792
0.160295655905
0.160647537113
0.161005415604
0.161368890692
0.161738254873
0.162113397313
0.162493096573
0.162874967674
0.163255914625
0.163632796901
0.164002944469
0.164364229399
0.164714699969
0.165052078685
0.165373331469
0.165674322781
0.165949747119
0.166193727785
0.16640135865
0.166570210211
0.166700196011
0.166792206523
0.166847888308
0.166871432085
0.166869729611
0.166846869688
0.166804421799
0.166747122642
0.166646315882
0.166461326085
0.166227023365
0.165970742817
0.165711232167
0.165454187888
0.165189194483
0.164924184601
0.164675965136
0.164449432317
0.164239459052
0.164052384091
0.163909898641
0.163830594198
0.163793485319
0.153678752894
0.153689624134
0.153707632973
0.153726933947
0.153750714403
0.153785622002
0.153819289279
0.153859125259
0.153910937978
0.153961586893
0.154024264527
0.154118906568
0.154222715662
0.154326546014
0.15442789781
0.154534233317
0.154654842591
0.154790818825
0.15493177009
0.155080160581
0.155241382017
0.155419542092
0.155615477295
0.155833389263
0.156080089953
0.156340634275
0.15662355951
0.156923620503
0.157241294585
0.157576493362
0.15791867722
0.158265215424
0.158599047492
0.158927214533
0.159253486235
0.159585082251
0.159925082897
0.160274126823
0.160631395376
0.1609956399
0.161366274279
0.161743177179
0.162125865068
0.162512973961
0.162902203184
0.163290664703
0.163675494845
0.16405434257
0.164425406247
0.164787047847
0.165137254575
0.165473123263
0.165790440811
0.166083659085
0.166346725238
0.166574381505
0.166762845929
0.166909070265
0.16700996501
0.167065678161
0.167083843555
0.167076050437
0.167046235206
0.166992553669
0.166913991284
0.16680867204
0.166631381036
0.166364961447
0.166068415062
0.165760433662
0.165446682105
0.165129755752
0.164819358223
0.164519062861
0.164231491598
0.163965744121
0.163746346498
0.163587605438
0.163499175605
0.163461866871
0.153600341286
0.153613275836
0.153634345585
0.153653197334
0.153678485714
0.153714102558
0.153748951627
0.153788840677
0.153839546108
0.153904536327
0.153971857295
0.154066523167
0.154171150652
0.154270819707
0.154366719047
0.154475833662
0.154600275885
0.154731206372
0.154867063292
0.155013519299
0.155174743412
0.1553530165
0.15554913119
0.155765641474
0.156019620391
0.156289897801
0.156568152837
0.156878169202
0.157201847567
0.157542824647
0.157887738966
0.158230620636
0.158561873681
0.158884291945
0.159213192001
0.159550323727
0.159895911754
0.160250416041
0.160613586467
0.160984650355
0.161363028602
0.161748257764
0.162139484319
0.162535145907
0.162932926888
0.163330070702
0.163723991464
0.164112719992
0.164494851137
0.164869141075
0.165234020337
0.165587038252
0.165924356241
0.166240792348
0.166530405829
0.166787026596
0.167003495598
0.167170127641
0.16727734782
0.167328510494
0.167340936237
0.167332476359
0.167300380028
0.16723307955
0.167124880547
0.166980647936
0.166798998604
0.166542590387
0.166187720929
0.165813001374
0.165436252877
0.165066652412
0.164701382954
0.164326761166
0.163950983891
0.163618264525
0.163361616758
0.163183154294
0.163078061094
0.163033013555
0.153511626045
0.153524182405
0.153546872999
0.153570346508
0.153602676219
0.153632896809
0.153667801406
0.153709541274
0.153753258163
0.153825057876
0.153904586032
0.153999757924
0.154104569729
0.154203702479
0.154298530732
0.154407963581
0.154534030233
0.15466176206
0.154793909037
0.154937600164
0.155098592327
0.155278701228
0.155479834043
0.155696481841
0.155944616127
0.156230920951
0.156518792551
0.15682846099
0.157153907705
0.157487317777
0.157841888216
0.158186497015
0.158513210119
0.158835912083
0.15916890823
0.159511755552
0.159863489327
0.160224234918
0.160593963065
0.160972339568
0.161359055801
0.161753461224
0.16215428871
0.162559683256
0.162967239047
0.163374294047
0.16377853024
0.164178349826
0.164572733747
0.16496091057
0.165341970107
0.165714381528
0.166075554203
0.166421681125
0.16674754473
0.16704502144
0.167298983016
0.167487187602
0.167596533383
0.167642147517
0.167653683312
0.167656763451
0.167633190242
0.167553710824
0.167407411122
0.167200542898
0.166954508995
0.166683828325
0.166326694106
0.165873592954
0.165427953389
0.165007998596
0.164582367751
0.164101157013
0.163588766631
0.163163147012
0.162859236371
0.162652135873
0.162525835393
0.162467377446
0.153410214571
0.153420028416
0.153437088195
0.153467559491
0.15350941745
0.15353886728
0.153574186774
0.153620604134
0.153662836687
0.153731054241
0.15381990501
0.153917691437
0.154021757452
0.154121840533
0.15422246225
0.154333823143
0.154458129205
0.154582603155
0.154712408852
0.154853469407
0.155011400007
0.155189444921
0.155400167257
0.15562967495
0.155872367668
0.156159174208
0.156456608482
0.156762579934
0.157101523651
0.157441798495
0.157786311489
0.158123187584
0.158449773353
0.158780567234
0.159119816618
0.159468872793
0.159827355047
0.160195176995
0.160572324768
0.160958646461
0.161354262798
0.161758706599
0.162170302795
0.162586698491
0.163005326275
0.163423627664
0.163839523266
0.164251676133
0.164659353863
0.165062207634
0.16546018248
0.165853317003
0.166241599655
0.166624570161
0.166998842015
0.167351782952
0.167651213852
0.167862627032
0.167977626826
0.168023616139
0.168039993182
0.16807736971
0.168087268982
0.16800243473
0.167805048382
0.167510930974
0.167156741007
0.166796176289
0.166398514051
0.165913733921
0.165420892202
0.164970234064
0.164501564832
0.163863023511
0.163098386169
0.162533684591
0.162184319094
0.161952185023
0.161819927499
0.161757911691
0.153295775262
0.153302952351
0.153311714103
0.153346256432
0.153388256525
0.153424059213
0.153462559305
0.153514194122
0.153562465735
0.153629122433
0.153721803332
0.153821031978
0.153923653808
0.154021218243
0.154129459152
0.154249411076
0.154371700225
0.154493349314
0.154621816751
0.154761685396
0.154916342403
0.155088445662
0.155298489387
0.155550568922
0.155800519734
0.156074291306
0.156386168865
0.156699397869
0.157028469679
0.157374272213
0.157719964554
0.158053174418
0.158380300847
0.158717851492
0.159064633383
0.159420963223
0.159786896016
0.16016248991
0.160548096653
0.160943484403
0.161348778018
0.161764000174
0.162187489949
0.162616301415
0.163047467563
0.163478519685
0.163907597507
0.164333449368
0.164755282492
0.165172957075
0.165587228759
0.166000370112
0.166416965431
0.16684314222
0.167279289745
0.167703136724
0.168054217294
0.168303344093
0.168446884194
0.168508401383
0.168511287761
0.168626711857
0.168734698926
0.168670488745
0.168399389872
0.167964183547
0.167435687257
0.166900747374
0.166385182067
0.165864898815
0.165385171258
0.164983856907
0.164570780211
0.163698099538
0.162364873484
0.161603665378
0.161273644959
0.161047683783
0.160945157254
0.160894390832
0.153169261872
0.153177596037
0.153191216557
0.153215306885
0.153252062136
0.153291956818
0.153334588424
0.153388618448
0.153447228105
0.153515018213
0.153610247108
0.153710538523
0.153812745647
0.15390885095
0.154017733338
0.154145593336
0.154270173481
0.154392268406
0.154520748229
0.154660571169
0.154813918938
0.154981460916
0.155186775585
0.155450076793
0.155716138922
0.155987764096
0.156304754002
0.156626943061
0.156951392515
0.157295566315
0.157632618203
0.157963829398
0.158301186796
0.15864743898
0.159002469002
0.159367005975
0.159741620453
0.160125947288
0.160520563745
0.160926084044
0.161342454783
0.161769561181
0.162206018632
0.162648636421
0.163093982828
0.163539565296
0.163983692907
0.164424841523
0.164861663225
0.165293521363
0.165721490147
0.16615035086
0.166591357423
0.167062700065
0.16757166878
0.168078416346
0.168488283878
0.168843376718
0.169103598912
0.169205654365
0.169069663177
0.169415238859
0.169748463414
0.169653889718
0.16918304693
0.168534684793
0.167794112492
0.167006612118
0.166283483868
0.165695918171
0.165173085867
0.164964309753
0.16507886081
0.163806546264
0.161186488441
0.160191129854
0.160105259338
0.159907620252
0.159882802914
0.159846910777
0.153027194642
0.153036561849
0.153059190875
0.15307387612
0.153104335279
0.15314532888
0.153191272684
0.153249207795
0.153320453895
0.153388614533
0.153484933799
0.153586416502
0.153689375158
0.15378708628
0.153896852936
0.154027715992
0.15415472729
0.154279027512
0.154408793479
0.154549007543
0.154702310775
0.154868906604
0.155066382005
0.155325934013
0.155617526234
0.155898056945
0.156202762306
0.156543924828
0.156878433112
0.157202957977
0.157532335635
0.157867527816
0.15821283012
0.158568019305
0.158932400561
0.159306299084
0.159690228585
0.160084607945
0.160489615361
0.160906020984
0.161334665184
0.1617752508
0.162226155788
0.162684051882
0.163145287822
0.163607453262
0.164068933018
0.164527657899
0.16498068814
0.165425487951
0.165862212836
0.166297299954
0.166748407744
0.167253873389
0.167830402865
0.16843480264
0.168962024127
0.169690129071
0.170293100218
0.170334774443
0.168917440135
0.168846688594
0.169191161899
0.169197718056
0.168775960323
0.168142762307
0.167440145852
0.166750716258
0.16612661264
0.165623487095
0.165415121223
0.165925983028
0.16710251576
0.166170124303
0.157902653676
0.157119060055
0.158520980315
0.158521014854
0.158645559559
0.158606878736
0.152866545716
0.152875072333
0.152895702606
0.152912290705
0.15294017539
0.152982594283
0.15303012546
0.153087540252
0.153170845991
0.153247545065
0.153344372769
0.153447729657
0.153552835481
0.153654653998
0.153766938733
0.153898614654
0.154027207547
0.154154320794
0.154286103802
0.154427188092
0.154580501087
0.154747680705
0.154940532869
0.155192483054
0.155499415164
0.155797307739
0.156094199731
0.156428729766
0.156774597021
0.157103664591
0.157427762889
0.157764039271
0.158115765698
0.158480015875
0.158854190838
0.159237906925
0.159632174223
0.160037374531
0.160454129293
0.160882948775
0.161325055911
0.161780710481
0.162247997926
0.162722995956
0.163201793916
0.163682738432
0.164164976335
0.164645050701
0.165116164245
0.165572309542
0.166012028642
0.166438408488
0.166866337673
0.167365528063
0.167962335275
0.16876346029
0.169182701739
0.169448119508
0.169792650755
0.16990911361
0.169524515535
0.169084587185
0.169037508888
0.16886871413
0.168407251903
0.167768528791
0.1670634558
0.166352428593
0.165685804905
0.165102683023
0.164674373436
0.164419146342
0.163804694361
0.160939712256
0.158525639198
0.15983607832
0.160739684788
0.156845338463
0.157312494567
0.157069872004
0.152689459462
0.1526970405
0.152718096663
0.152734696291
0.152762519966
0.152805213269
0.152853839576
0.152907932137
0.152992371062
0.153083137889
0.153185208271
0.15329192658
0.153400720822
0.153510264088
0.15362552577
0.153757767139
0.153887841917
0.154018361078
0.15415266198
0.154295160095
0.154448784238
0.154615893104
0.154805754237
0.155048922369
0.155355637935
0.15568149899
0.155987498982
0.156309096891
0.156649246637
0.156978653927
0.157304654216
0.157648258219
0.158008232152
0.15838178994
0.158766407274
0.159161200024
0.159566559234
0.159983678858
0.160413206814
0.160856041669
0.161313203216
0.161785350501
0.162271181
0.162766069749
0.163264861964
0.16376685311
0.16427327487
0.164779348353
0.165272294818
0.165741298529
0.166181801918
0.166584025974
0.166922526746
0.167292628026
0.167763223244
0.168346268282
0.168894968587
0.169270201359
0.169470082424
0.169484148066
0.169173181839
0.168732059878
0.168430727492
0.168090052437
0.167571983546
0.166904009833
0.166156756075
0.165382466095
0.164622556134
0.163889063783
0.16316882552
0.162404468902
0.161371763129
0.159737434971
0.158404326059
0.158144784011
0.157157009017
0.157991285017
0.157513589579
0.157153715645
0.152498113989
0.152504172678
0.152520997462
0.152539767789
0.152571915967
0.152614711386
0.152665812363
0.1527185146
0.152801526618
0.152900604318
0.153007346526
0.153116941719
0.153227985867
0.153347992124
0.153469582972
0.153602343679
0.153734476927
0.153869911546
0.154007615253
0.154152193101
0.154306652375
0.15447340724
0.154660926273
0.154897019931
0.15519938444
0.155542682796
0.155868573103
0.156185688986
0.156513606792
0.15683829246
0.15716859254
0.157519140378
0.157887607339
0.158270420162
0.158666132082
0.15907376818
0.159492217367
0.159922149543
0.160365977336
0.160824149295
0.161298105173
0.16178929085
0.162296449254
0.162814082339
0.163334238075
0.163859579712
0.164400199465
0.164946453584
0.165465400872
0.165950410449
0.166400321635
0.166781869078
0.166933912431
0.166993892859
0.167439198491
0.167926604677
0.168499325603
0.168819759572
0.168915252014
0.1688359305
0.168547976768
0.168126231177
0.167686448928
0.167192033965
0.166572471559
0.165826127312
0.164992589245
0.164109553614
0.163202063061
0.162282121002
0.161296479322
0.160194432865
0.15892282353
0.157400139746
0.155872673408
0.154910823726
0.154353758112
0.154909912272
0.155209299992
0.156665968097
0.15229510749
0.15229993219
0.152311627262
0.152333090447
0.152368968135
0.152411447596
0.15246424499
0.152519842635
0.152598993889
0.152702170328
0.152811800688
0.152923216545
0.153034217847
0.153159387413
0.153292858635
0.153428719502
0.153563559506
0.153704688139
0.153848353162
0.153996572236
0.154153146336
0.154319396864
0.154505077995
0.154735211869
0.155028144758
0.155369351872
0.155717122236
0.156045237617
0.156369891447
0.156692089881
0.15702124569
0.157376946009
0.157753846606
0.158143787219
0.158552140296
0.158974076455
0.159405594413
0.159850296065
0.160310373514
0.160786687935
0.161279715623
0.161791232354
0.162321553853
0.162868180526
0.163426782934
0.16399712548
0.164578519133
0.165150472911
0.165693853913
0.166222646643
0.166733631259
0.167210471705
0.167014397343
0.166880559157
0.167124948478
0.167664774768
0.168064351322
0.168235478107
0.168220464875
0.168041711545
0.167694469259
0.16721046601
0.166643957711
0.165998134729
0.165244802366
0.164377347213
0.163414025283
0.162376730389
0.161279038799
0.160126808909
0.158857319927
0.157401427211
0.155748789793
0.153887810107
0.151965103627
0.150337212893
0.149058761616
0.148337560367
0.148626323867
0.150480072157
0.152081213019
0.152085661502
0.152095695266
0.152120600856
0.152156178675
0.152196439577
0.152246680316
0.152307140638
0.152382252183
0.152487089818
0.152598858189
0.1527120333
0.152824118952
0.152949546076
0.153092941157
0.153235282343
0.153374591832
0.153520484727
0.153670804281
0.153825126125
0.153986497898
0.154153039055
0.154337125209
0.154562990807
0.154846830164
0.155181395876
0.155538161419
0.155880213402
0.156201030149
0.156521379125
0.15685812571
0.157216529895
0.15759970757
0.158000683526
0.158422455706
0.15885844801
0.159304555636
0.159765651108
0.160243742622
0.160740148138
0.161255470386
0.161791702662
0.162353741869
0.162947321504
0.163563870702
0.164179286378
0.164787388732
0.165383863215
0.165978226057
0.166604915495
0.167338476619
0.168640684414
0.167364783474
0.166963235027
0.167122971073
0.167393805189
0.167532621577
0.167523591693
0.167369801028
0.167067624301
0.166616189005
0.166030946998
0.165337638301
0.164544385141
0.163641529457
0.162623544146
0.161496131202
0.160267404124
0.158938658111
0.15749906061
0.155917341121
0.154082206903
0.151936331248
0.149492657499
0.146784024496
0.143889904372
0.140760914747
0.13751307517
0.13473326551
0.138047245835
0.151853801878
0.151858283963
0.151868763287
0.151898095789
0.151932713948
0.151970256092
0.152015767967
0.152079310642
0.152149000666
0.152253871569
0.152367837357
0.152482952293
0.15259721666
0.152724488897
0.15287309664
0.15302211951
0.153167510462
0.153318613371
0.153474081325
0.153634972308
0.153803743693
0.153972635772
0.154155097029
0.154377875824
0.154654002423
0.154980257039
0.155338322492
0.155688508279
0.1560192796
0.156339165389
0.156681262991
0.157045906522
0.157431203984
0.157834920095
0.158266551329
0.158721361245
0.159186334311
0.159666391015
0.160163687483
0.160681739128
0.161223114393
0.161790657169
0.16239939348
0.163057742446
0.163729232023
0.164382721981
0.165025692365
0.165677982009
0.166345867112
0.167019770989
0.167758665624
0.167935065841
0.167997846072
0.167298802057
0.167041117979
0.166998391409
0.166905151456
0.166704761219
0.166384192017
0.16593196884
0.165343567603
0.164624466256
0.163785645305
0.162832017727
0.161759406722
0.160562162448
0.159237564402
0.157782292108
0.156186443082
0.15442857974
0.152477091899
0.150208299816
0.147477330668
0.14423652854
0.140374451045
0.135626368336
0.129344060144
0.120026985551
0.102852653615
0.0605575332673
0.151607086893
0.151611486633
0.151624205939
0.151658776519
0.151693057728
0.151728598655
0.151771667279
0.151835027229
0.151898958638
0.152001680832
0.152117627388
0.152234671224
0.15235121752
0.15248037239
0.152632128659
0.152787209094
0.152940786606
0.153097839763
0.153257484344
0.153424085973
0.153601594807
0.153775872451
0.153956516208
0.154176523068
0.154446971849
0.154763894228
0.155116707711
0.155464125337
0.155808601411
0.156143154647
0.156486488721
0.156850861154
0.157244346481
0.157659976525
0.158092873862
0.158558476651
0.159044573706
0.159546200632
0.160067532178
0.160609855752
0.16117854722
0.16178955998
0.162468082647
0.163196682272
0.163918718855
0.164627124483
0.165359992892
0.166153222657
0.166941814625
0.16751570416
0.167621074382
0.167733980245
0.167571577826
0.167072169148
0.166703814754
0.166442135646
0.166142738298
0.16575071355
0.165250150841
0.164629574415
0.16388188373
0.163006140315
0.162004706335
0.160877607701
0.159619777927
0.158222946364
0.156677237242
0.154969106857
0.153076886096
0.150965687117
0.14858126109
0.145845423196
0.142535685147
0.138420860285
0.133289616411
0.12663839065
0.11738369822
0.103337552591
0.0799023475147
0.0412143291627
0.151332970412
0.15133730209
0.151352184332
0.151391887001
0.151425550248
0.151462413763
0.151504793459
0.151565624549
0.151626856982
0.151728793927
0.151846851665
0.151965707888
0.152084381184
0.152214881006
0.152367941814
0.152526736279
0.15269042982
0.152854879644
0.153018906192
0.153190465876
0.153375902983
0.15355975963
0.153739891017
0.153955774727
0.154222483544
0.154531382187
0.154876952877
0.155218467385
0.155563018737
0.155916478761
0.156276719321
0.156644219836
0.157028307298
0.157449688389
0.157899471004
0.158374871492
0.15887770572
0.159401215563
0.159947299511
0.160518111155
0.161124323262
0.161799783791
0.162559351003
0.163352688944
0.164146175372
0.164974432551
0.165899029693
0.166964185903
0.167498758835
0.1675095389
0.167448318031
0.167350811341
0.16709988995
0.16666602183
0.166195550065
0.165734163377
0.165230750041
0.164644970737
0.163958541096
0.163159657969
0.16223958283
0.161193016672
0.160016419448
0.158704859034
0.157249793101
0.155638750972
0.153855136429
0.151876277938
0.149669645354
0.147187837563
0.144361970894
0.141095253128
0.137205983896
0.132341920268
0.126123370614
0.118034031123
0.10706634196
0.0915074487577
0.0683037770444
0.0366451685993
0.151024649385
0.151030884208
0.151046511706
0.151085375427
0.151121870434
0.151165302573
0.151210780592
0.151271830352
0.151337348985
0.15143436632
0.151553859126
0.151674471688
0.151795255394
0.151926785477
0.152079883562
0.152238672605
0.15240838481
0.152583608957
0.152754815377
0.152932553418
0.15312375157
0.153320047267
0.153508022324
0.153715402344
0.153978457459
0.154281363359
0.154619572929
0.154956227169
0.15529533199
0.1556572565
0.156035147448
0.156418709905
0.156804248636
0.157219206893
0.157672184411
0.158162669806
0.15868415054
0.159230848236
0.159801039924
0.16040355283
0.161066927024
0.161825006957
0.162660014216
0.163528544545
0.164440281769
0.165472412433
0.166621362259
0.167409120773
0.167472383735
0.167324937463
0.167139810626
0.166904905665
0.16654638672
0.16604500571
0.165460078982
0.164830623424
0.164142591929
0.163371845471
0.162502687134
0.161524089242
0.16042673503
0.159202597533
0.157843931683
0.15634137631
0.154682185738
0.152849102203
0.150819202085
0.148561722598
0.14603448118
0.14317885535
0.139912958771
0.136121903695
0.131646810215
0.12618295107
0.119226697816
0.110180734537
0.0982797884574
0.0822828871753
0.0599719057492
0.0320173191903
0.150686762448
0.150696481077
0.150711972714
0.150744040101
0.150786558006
0.15083682685
0.150888157939
0.150953676785
0.151028883931
0.151119961213
0.151237976221
0.151359591012
0.151482534327
0.151615265272
0.151768595921
0.151927839618
0.152097753357
0.152282121793
0.152463429811
0.152649727334
0.152846624165
0.153054797866
0.153260443525
0.153470209118
0.153719499463
0.154015262013
0.154346236434
0.154678673881
0.155010761711
0.155371983096
0.155758083825
0.156163350477
0.156562301932
0.156973644716
0.157422681209
0.157917499554