/*--------------------------------*- C++ -*----------------------------------*\
| =========                 |                                                 |
| \\      /  F ield         | OpenFOAM: The Open Source CFD Toolbox           |
|  \\    /   O peration     | Version:  v1806                                 |
|   \\  /    A nd           | Web:      www.OpenFOAM.com                      |
|    \\/     M anipulation  |                                                 |
\*---------------------------------------------------------------------------*/
FoamFile
{
    version     2.0;
    format      ascii;
    class       surfaceScalarField;
    location    "317";
    object      phi;
}
// * * * * * * * * * * * * * * * * * * * * * * * * * * * * * * * * * * * * * //

dimensions      [0 3 -1 0 0 0 0];
oriented        oriented;


internalField   nonuniform List<scalar> 
12640
(
-1.86573351259e-07
1.86774458492e-07
-3.59913452396e-07
1.73475966579e-07
-5.14497336545e-07
1.54679491923e-07
-6.44728030666e-07
1.30295083193e-07
-7.36340206621e-07
9.16769705772e-08
-7.86316332645e-07
5.00665982472e-08
-8.15568249775e-07
2.93393729593e-08
-8.72976034013e-07
5.74853362897e-08
-9.60907626766e-07
8.79951797735e-08
-1.04173469929e-06
8.0876912891e-08
-1.11542454449e-06
7.37189239672e-08
-1.19658586063e-06
8.11825771122e-08
-1.26808497702e-06
7.15118841505e-08
-1.32259018283e-06
5.45156474318e-08
-1.36902904428e-06
4.64493170127e-08
-1.42518462457e-06
5.61803556887e-08
-1.48341380438e-06
5.82513346948e-08
-1.52723240634e-06
4.38419420031e-08
-1.55334730241e-06
2.61158748893e-08
-1.57096708052e-06
1.76040112378e-08
-1.60443355659e-06
3.34372645642e-08
-1.6587224067e-06
5.42586406778e-08
-1.71953921725e-06
6.07803230032e-08
-1.77910051697e-06
5.95278920552e-08
-1.83260258817e-06
5.34650914007e-08
-1.87881523129e-06
4.61788088344e-08
-1.9217771537e-06
4.29216102905e-08
-1.95917121279e-06
3.73565676554e-08
-1.98854252809e-06
2.93243342119e-08
-2.01145935186e-06
2.28718428286e-08
-2.03345682446e-06
2.19408470484e-08
-2.05242546534e-06
1.89135615849e-08
-2.06365102886e-06
1.1166417046e-08
-2.07450191169e-06
1.07861737587e-08
-2.08422738083e-06
9.63682894212e-09
-2.09124958001e-06
6.93521883958e-09
-2.10105546135e-06
9.69974378349e-09
-2.1097759549e-06
8.5986843271e-09
-2.11341801321e-06
3.50071100334e-09
-2.11757481969e-06
4.01569219139e-09
-2.1371368455e-06
1.94156722691e-08
-2.15853956251e-06
2.1272998374e-08
-2.15667754362e-06
-1.98885251621e-09
-2.13967962645e-06
-1.71232396472e-08
-2.11601631008e-06
-2.37956426873e-08
-2.08460951829e-06
-3.15360074986e-08
-2.04538980377e-06
-3.93583113868e-08
-1.99639790103e-06
-4.9130268915e-08
-1.93850676298e-06
-5.80399442357e-08
-1.88185891207e-06
-5.67945645084e-08
-1.8367260033e-06
-4.53044644827e-08
-1.78537227821e-06
-5.15239387217e-08
-1.69013437558e-06
-9.54176753403e-08
-1.56333424455e-06
-1.27004519452e-07
-1.41606681669e-06
-1.47487644631e-07
-1.23630335671e-06
-1.79992566604e-07
-1.05341658191e-06
-1.83178566249e-07
-8.76160851917e-07
-1.77623379321e-07
-6.73783059325e-07
-2.02820275965e-07
-4.46374897186e-07
-2.27951306873e-07
-1.98041747635e-07
-2.48989970398e-07
6.78786965763e-08
-2.66657715252e-07
3.95391183438e-07
-3.28301184972e-07
6.22360134263e-07
-2.27492885257e-07
7.54248782288e-07
-1.32223354416e-07
8.40448387534e-07
-8.64335867314e-08
8.99805731995e-07
-5.95739356039e-08
9.4668601787e-07
-4.71098107344e-08
9.81624826236e-07
-3.51958143802e-08
9.98691630324e-07
-1.73409817449e-08
9.93576614325e-07
4.83348731032e-09
9.62875549554e-07
3.04335052716e-08
9.03536175726e-07
5.90872321648e-08
8.03341208949e-07
9.99484354636e-08
6.92123355084e-07
1.10988272252e-07
5.73771826339e-07
1.18146307436e-07
4.77870104068e-07
9.56347093263e-08
3.47909141979e-07
1.29731734353e-07
2.15212651753e-07
1.32343531738e-07
2.14886455919e-07
-9.35905470005e-08
2.80410135176e-07
-2.17221999574e-07
2.97187352279e-07
-3.37437241335e-07
2.74945455595e-07
-4.65777116921e-07
2.58678076705e-07
-6.37408983784e-07
2.63378724353e-07
-7.74011469946e-07
1.8673993704e-07
-8.50774929597e-07
1.06189930157e-07
-9.18122605577e-07
1.24902823799e-07
-9.90323044015e-07
1.60257583079e-07
-1.07184876796e-06
1.62438514431e-07
-1.1502394462e-06
1.52141927142e-07
-1.2123000228e-06
1.43256053817e-07
-1.26769320622e-06
1.26926777372e-07
-1.32139815932e-06
1.08240228387e-07
-1.37296527246e-06
9.80551999357e-08
-1.432182704e-06
1.15423142617e-07
-1.48160854348e-06
1.07711049828e-07
-1.4920143943e-06
5.42474371461e-08
-1.49599418524e-06
3.00899718324e-08
-1.52219776566e-06
4.37771206067e-08
-1.57328391185e-06
8.44942503925e-08
-1.6503302997e-06
1.31258661044e-07
-1.7263293443e-06
1.36750861523e-07
-1.7801536514e-06
1.13307714798e-07
-1.8285458641e-06
1.01828951972e-07
-1.88202125584e-06
9.96077358289e-08
-1.92628055812e-06
8.71507853603e-08
-1.96014447769e-06
7.11686968289e-08
-1.98841764645e-06
5.75611341236e-08
-2.01194174815e-06
4.63360516902e-08
-2.02909164068e-06
3.90471931585e-08
-2.04149644101e-06
3.12592716247e-08
-2.04642639192e-06
1.6043108374e-08
-2.05248680693e-06
1.67655274171e-08
-2.06876752536e-06
2.58519950463e-08
-2.07649005698e-06
1.4544113035e-08
-2.08266091755e-06
1.57606242207e-08
-2.10126306695e-06
2.70633037906e-08
-2.12429819222e-06
2.64070367271e-08
-2.1338998353e-06
1.34596839095e-08
-2.08925543224e-06
-2.53549183054e-08
-2.01973212978e-06
-4.8384059009e-08
-1.98649852993e-06
-3.53349383796e-08
-1.97662891086e-06
-2.71298717872e-08
-1.97094518889e-06
-2.96016094394e-08
-1.96632925768e-06
-3.62963704648e-08
-1.95589423407e-06
-4.99222796122e-08
-1.93871846916e-06
-6.64561718872e-08
-1.91066440077e-06
-8.62321080479e-08
-1.85453966564e-06
-1.13078332694e-07
-1.75879379813e-06
-1.41194292555e-07
-1.65636413805e-06
-1.54118575105e-07
-1.60870840587e-06
-1.43248751251e-07
-1.54781831853e-06
-1.88109229819e-07
-1.43243633127e-06
-2.63094611421e-07
-1.31081439934e-06
-3.01892077808e-07
-1.16492054241e-06
-3.29400092878e-07
-9.75954356706e-07
-3.66997509904e-07
-7.62062406305e-07
-4.17205975972e-07
-5.13211770285e-07
-4.77412342653e-07
-2.18466720905e-07
-5.44375502367e-07
8.05754945741e-08
-5.66391229233e-07
3.914399092e-07
-6.39901304081e-07
6.12735516934e-07
-4.49311746094e-07
7.33386459863e-07
-2.53185549026e-07
7.9715369407e-07
-1.50434380554e-07
8.63255725427e-07
-1.25887009518e-07
9.31742049959e-07
-1.15826955969e-07
9.79600892105e-07
-8.33082613059e-08
9.98839027379e-07
-3.68565411875e-08
9.83985153269e-07
1.94111405851e-08
9.38463854822e-07
7.56984646003e-08
8.86552448961e-07
1.10753854835e-07
8.39552700103e-07
1.46705964903e-07
7.68072093896e-07
1.82225164741e-07
6.80630207281e-07
2.05333150341e-07
5.61207143957e-07
2.14823532306e-07
4.29724459198e-07
2.60862529945e-07
2.32115645533e-07
3.29525491904e-07
4.46791111442e-07
-1.26235705041e-07
4.06773066445e-07
-1.82683762328e-07
3.53696044062e-07
-3.39557678947e-07
4.31876321528e-07
-5.28422830324e-07
4.47615013811e-07
-6.96719027822e-07
4.3174976556e-07
-7.75821338839e-07
2.65899544566e-07
-8.11285272602e-07
1.41697826199e-07
-8.8573926021e-07
1.99401481487e-07
-9.74693327975e-07
2.49246938479e-07
-1.06277382695e-06
2.50545628085e-07
-1.14404462945e-06
2.33430790527e-07
-1.21054792695e-06
2.09789105847e-07
-1.26652209604e-06
1.82941994195e-07
-1.3210774862e-06
1.62843065291e-07
-1.35492097549e-06
1.3194177255e-07
-1.30841256742e-06
6.89470242796e-08
-1.22330315629e-06
2.260479931e-08
-1.20604494833e-06
3.6981581186e-08
-1.26785861002e-06
9.18802902575e-08
-1.41129664193e-06
1.87184382008e-07
-1.56801794691e-06
2.41179710036e-07
-1.65702159593e-06
2.20232579278e-07
-1.71311572083e-06
1.92808899022e-07
-1.77925868918e-06
1.79419828953e-07
-1.84025672426e-06
1.62789150829e-07
-1.88508831368e-06
1.44406256731e-07
-1.92223670367e-06
1.24256951491e-07
-1.95529135977e-06
1.04185153972e-07
-1.98219125006e-06
8.44127235809e-08
-2.00514617329e-06
6.92480266132e-08
-2.01819529712e-06
5.20485802582e-08
-2.0259849775e-06
3.89956553707e-08
-2.03652637697e-06
2.65309929549e-08
-2.02407601344e-06
4.25234725152e-09
-2.02033374785e-06
2.20112150158e-08
-2.05141917165e-06
4.5525132342e-08
-2.0628549849e-06
2.70715838121e-08
-2.07037525727e-06
3.44518391312e-08
-2.10678468997e-06
6.26711308138e-08
-2.14062624172e-06
4.71662743982e-08
-2.16279456945e-06
-3.32586086634e-09
-2.17190937859e-06
-3.94011565019e-08
-2.16227319699e-06
-4.51129605127e-08
-2.14370251257e-06
-4.58358693538e-08
-2.12042692026e-06
-5.30207233603e-08
-2.09100034775e-06
-6.58597432012e-08
-2.05670619857e-06
-8.4360800081e-08
-2.016429311e-06
-1.06871655381e-07
-1.96923506979e-06
-1.33571756103e-07
-1.91728898061e-06
-1.65164050335e-07
-1.86102691889e-06
-1.97607669524e-07
-1.78946913677e-06
-2.25837188172e-07
-1.67515061515e-06
-2.57745970191e-07
-1.54792211146e-06
-3.15532595101e-07
-1.438730246e-06
-3.72515319452e-07
-1.31447641014e-06
-4.26416561924e-07
-1.15112450906e-06
-4.93080115976e-07
-9.51241502149e-07
-5.67266727819e-07
-7.20962413156e-07
-6.47943239776e-07
-4.64726568242e-07
-7.34166198914e-07
-1.984621513e-07
-8.11233870343e-07
1.05041237448e-07
-8.70553365639e-07
3.43484568507e-07
-8.78980201862e-07
5.24395889615e-07
-6.30664395803e-07
6.63134814294e-07
-3.92220065446e-07
7.84211594785e-07
-2.71737863686e-07
8.67631175061e-07
-2.09518241828e-07
9.15721911493e-07
-1.64133696946e-07
9.42796741781e-07
-1.10624272384e-07
9.50111825442e-07
-4.44286179188e-08
9.49001154814e-07
2.02653970813e-08
9.55392686508e-07
6.90633935613e-08
9.49141169276e-07
1.1676853132e-07
9.01250418545e-07
1.94360447634e-07
8.05918433226e-07
2.77342032757e-07
6.86121884448e-07
3.24908919836e-07
5.61456157598e-07
3.39203166773e-07
4.39249927961e-07
3.82854353439e-07
1.98447892461e-07
5.70038212247e-07
6.45091108247e-07
-8.87714018504e-08
4.95559804483e-07
-1.10448726002e-07
3.7541528035e-07
-2.99863109101e-07
6.2135682369e-07
-4.47079631687e-07
5.94912501388e-07
-4.35296845238e-07
4.20019626802e-07
-3.59666170753e-07
1.90285316701e-07
-5.04899783468e-07
2.869420494e-07
-7.56438983493e-07
4.50951890141e-07
-9.2658690767e-07
4.19412890602e-07
-1.03833536103e-06
3.62312362114e-07
-1.13317627064e-06
3.28304787978e-07
-1.21006415456e-06
2.86726302239e-07
-1.25405457158e-06
2.26988971773e-07
-1.22215859257e-06
1.31001903412e-07
-1.13645993975e-06
4.62758268816e-08
-1.0955065924e-06
2.79955543554e-08
-1.13869293251e-06
6.5778036471e-08
-1.26124364239e-06
1.59507573856e-07
-1.43082359156e-06
2.61432482624e-07
-1.54813325005e-06
3.04468059955e-07
-1.60376967017e-06
2.96791600441e-07
-1.66515705335e-06
2.81589634763e-07
-1.73210009324e-06
2.59723139946e-07
-1.78764939302e-06
2.34936648128e-07
-1.83524808353e-06
2.10358802867e-07
-1.87634038944e-06
1.8546273633e-07
-1.91469143155e-06
1.62575282396e-07
-1.94707509168e-06
1.36525729835e-07
-1.9752287427e-06
1.12527264122e-07
-1.99292085214e-06
8.68985957678e-08
-2.00930656592e-06
6.83914913525e-08
-2.01059268914e-06
4.0241338423e-08
-1.99577473191e-06
1.16527790678e-08
-2.01772854998e-06
2.61226088266e-08
-2.03133422431e-06
3.55219370965e-08
-2.04106907839e-06
5.51411499225e-08
-2.0986597961e-06
8.45303878105e-08
-2.14843844335e-06
8.40912624035e-08
-2.15840986086e-06
7.25101992837e-08
-2.15693020661e-06
4.55469675721e-08
-2.16311859741e-06
2.72169661834e-09
-2.16943199259e-06
-3.32343524374e-08
-2.16376777849e-06
-5.09173397161e-08
-2.14791042737e-06
-6.18354764148e-08
-2.12547218688e-06
-7.5595483777e-08
-2.09720388868e-06
-9.42672545865e-08
-2.06369885295e-06
-1.18000438207e-07
-2.02444589711e-06
-1.46262671059e-07
-1.97886053455e-06
-1.79291497663e-07
-1.9268282569e-06
-2.17335205528e-07
-1.86561096617e-06
-2.58964064355e-07
-1.7878072201e-06
-3.03787903349e-07
-1.68855913845e-06
-3.57156100971e-07
-1.58010131957e-06
-4.24174574328e-07
-1.45724013252e-06
-4.95592633545e-07
-1.30839903776e-06
-5.75513549659e-07
-1.12912807111e-06
-6.72649649713e-07
-9.15683398942e-07
-7.81062166181e-07
-6.70639655389e-07
-8.93383880446e-07
-4.05601411814e-07
-9.99648414737e-07
-1.36030997628e-07
-1.08127104261e-06
1.10548067502e-07
-1.11763985162e-06
2.80620786444e-07
-1.04955026362e-06
4.95063297807e-07
-8.45523179022e-07
6.71500003496e-07
-5.68963069151e-07
7.69451487989e-07
-3.69911554741e-07
8.41485326944e-07
-2.81745856703e-07
9.00677095407e-07
-2.2353216955e-07
9.46888140095e-07
-1.57059748907e-07
9.83811516798e-07
-8.16010523312e-08
1.0120393907e-06
-8.21026559228e-09
1.01133898607e-06
6.95279523872e-08
9.50120062224e-07
1.77786402154e-07
8.51601868519e-07
2.92713427831e-07
7.44604210029e-07
3.84142631637e-07
6.06392499753e-07
4.62934005324e-07
4.42345815439e-07
5.0313726481e-07
3.07611914797e-07
5.17420380158e-07
1.60874599549e-07
7.16621560241e-07
8.05938539708e-07
-1.12638093958e-08
5.06891848346e-07
-1.00586067286e-07
4.64770032621e-07
-2.56066341383e-07
7.76909760229e-07
-3.48172985453e-07
6.87098310622e-07
-3.06487948993e-07
3.78365184847e-07
-3.7981850578e-07
2.6361789685e-07
-5.85254004464e-07
4.92375617002e-07
-7.49243539276e-07
6.14955177292e-07
-8.76151107852e-07
5.46333303045e-07
-9.94007857557e-07
4.80200008351e-07
-1.10167550735e-06
4.36027468707e-07
-1.14101582487e-06
3.26121846467e-07
-1.08660893581e-06
1.72633766047e-07
-1.03694096153e-06
8.13596335617e-08
-1.0665933523e-06
7.59258390298e-08
-1.16090223181e-06
1.22288567427e-07
-1.30519258704e-06
2.10044772251e-07
-1.44203941383e-06
2.96328776992e-07
-1.50938353674e-06
3.28755678295e-07
-1.54405349111e-06
3.39118703602e-07
-1.60301422983e-06
3.55730410582e-07
-1.6700998632e-06
3.48651398132e-07
-1.73046244842e-06
3.20059815413e-07
-1.78186524555e-06
2.86315677143e-07
-1.82676581327e-06
2.55230910836e-07
-1.86972588396e-06
2.28397530241e-07
-1.90311069843e-06
1.95921753312e-07
-1.93606765757e-06
1.69449263957e-07
-1.95781973298e-06
1.34246811167e-07
-1.9763886722e-06
1.0543509464e-07
-1.97609657044e-06
6.80630392841e-08
-1.98571328856e-06
4.98056124036e-08
-2.02305933414e-06
4.89290641456e-08
-2.02600904736e-06
2.8977695097e-08
-2.05185094326e-06
6.12478055188e-08
-2.10566677391e-06
1.08830519688e-07
-2.13914498353e-06
1.17878564466e-07
-2.15845913917e-06
1.03276859748e-07
-2.1650329878e-06
7.89496580504e-08
-2.16614228897e-06
4.65174450563e-08
-2.17025308244e-06
6.68623388063e-09
-2.17369594271e-06
-2.99381906531e-08
-2.16879609261e-06
-5.59651129189e-08
-2.15469023858e-06
-7.60841023313e-08
-2.13349198443e-06
-9.69345522441e-08
-2.10642249473e-06
-1.2147167641e-07
-2.07396198087e-06
-1.5059443367e-07
-2.03579956572e-06
-1.84554300186e-07
-1.99122865463e-06
-2.23992336739e-07
-1.93903649105e-06
-2.69653874479e-07
-1.8762176019e-06
-3.21911767325e-07
-1.79820829455e-06
-3.81934012463e-07
-1.70304553804e-06
-4.52462757084e-07
-1.5927985268e-06
-5.34592819987e-07
-1.46146700797e-06
-6.27119247504e-07
-1.30070772295e-06
-7.36501516354e-07
-1.10644291711e-06
-8.67183479943e-07
-8.77197016693e-07
-1.01060808982e-06
-6.19495016902e-07
-1.15141510998e-06
-3.5071324517e-07
-1.26877320265e-06
-9.37361755459e-08
-1.33862419719e-06
1.18383713186e-07
-1.33015091004e-06
2.63557164505e-07
-1.19511530249e-06
5.03428983982e-07
-1.08577886508e-06
6.91723616086e-07
-7.57555254921e-07
7.98102677742e-07
-4.76515430984e-07
8.61823462841e-07
-3.45670579722e-07
9.11374114297e-07
-2.73279448126e-07
9.584913507e-07
-2.04394362971e-07
1.00878310951e-06
-1.32110985344e-07
1.03722021511e-06
-3.68725333488e-08
9.98748616435e-07
1.07832979948e-07
9.17542812168e-07
2.58860878566e-07
8.2656282512e-07
3.83535424278e-07
7.10088692233e-07
5.00520695726e-07
5.59068327512e-07
6.13834995144e-07
4.28548966229e-07
6.33535408703e-07
2.90532044166e-07
6.55425016864e-07
1.31893063824e-07
8.75219222501e-07
9.37780661595e-07
-3.8309964124e-09
5.10708765131e-07
-1.32348544657e-07
5.93322280143e-07
-2.12026427716e-07
8.5665271689e-07
-2.51124632808e-07
7.26239473449e-07
-2.34869339171e-07
3.62123129831e-07
-4.32569198562e-07
4.61319535393e-07
-6.44528778978e-07
7.04344293389e-07
-7.37117323873e-07
7.07550251755e-07
-8.37143431037e-07
6.4639135351e-07
-9.25896760479e-07
5.69003630452e-07
-9.53684855492e-07
4.63869196897e-07
-8.83161282367e-07
2.55644169013e-07
-8.64565951132e-07
1.54056880784e-07
-9.29925536725e-07
1.46715432231e-07
-1.0475424545e-06
1.93524409546e-07
-1.21842537797e-06
2.93144574145e-07
-1.3750918758e-06
3.66687464976e-07
-1.44047316985e-06
3.61696204366e-07
-1.47078884891e-06
3.5905802576e-07
-1.53866281866e-06
4.06977125857e-07
-1.60972246239e-06
4.26772864138e-07
-1.66725608407e-06
4.06166373523e-07
-1.72125065492e-06
3.74035102894e-07
-1.77510268365e-06
3.401443998e-07
-1.82216129863e-06
3.02269391207e-07
-1.84707870566e-06
2.5328664308e-07
-1.88280453034e-06
2.31622717126e-07
-1.90820546113e-06
1.94822924788e-07
-1.93126089851e-06
1.5727086051e-07
-1.92641058098e-06
1.00553085176e-07
-1.92806902111e-06
6.96823517879e-08
-1.94461650553e-06
6.62932399499e-08
-1.95726501962e-06
6.14933862731e-08
-2.02887465385e-06
1.0048034462e-07
-2.09793886993e-06
1.30188484522e-07
-2.13563746913e-06
1.4640517283e-07
-2.15532655298e-06
1.37445061917e-07
-2.16665373109e-06
1.14479233142e-07
-2.17250012078e-06
8.46661984231e-08
-2.17570232856e-06
4.95801977485e-08
-2.17916815897e-06
1.00043515615e-08
-2.18080833144e-06
-2.84506940543e-08
-2.17596219738e-06
-6.09622293203e-08
-2.16312711054e-06
-8.90669767769e-08
-2.14328374186e-06
-1.16919901293e-07
-2.11749615639e-06
-1.4739667997e-07
-2.08623970644e-06
-1.81982516049e-07
-2.04923275234e-06
-2.21690030137e-07
-2.00561402437e-06
-2.67734905621e-07
-1.95385708779e-06
-3.21534886367e-07
-1.89133172231e-06
-3.84561640458e-07
-1.81477633904e-06
-4.58614150761e-07
-1.72169093653e-06
-5.45695421641e-07
-1.60907489115e-06
-6.47357634751e-07
-1.46971354849e-06
-7.66661168202e-07
-1.29657734757e-06
-9.09844880246e-07
-1.08737597e-06
-1.07660748371e-06
-8.4527252927e-07
-1.25295487189e-06
-5.8060337884e-07
-1.41633541924e-06
-3.1261977038e-07
-1.53703185062e-06
-7.0807364058e-08
-1.58072303625e-06
1.18067053843e-07
-1.51932793475e-06
2.95160422432e-07
-1.37253857958e-06
4.99482840879e-07
-1.29044082237e-06
6.65149414271e-07
-9.23494704344e-07
7.77964370808e-07
-5.89540728135e-07
8.64238410807e-07
-4.32135568702e-07
9.32729295641e-07
-3.41979934387e-07
9.98104187009e-07
-2.69958203038e-07
1.05091466773e-06
-1.8514223859e-07
1.04200921389e-06
-2.81195502059e-08
9.83572668157e-07
1.66126843174e-07
9.1674146086e-07
3.25575816804e-07
8.31174270746e-07
4.69064737794e-07
7.1045003508e-07
6.2110128924e-07
5.76052124395e-07
7.48210893924e-07
4.34872223763e-07
7.74739950327e-07
2.89515221491e-07
8.00715047269e-07
1.43985037324e-07
1.02068514216e-06
1.08174099066e-06
-4.8227221046e-08
5.58975359118e-07
-2.06724709852e-07
7.51854578607e-07
-2.74827717735e-07
9.24823324939e-07
-2.2428737879e-07
6.75738284835e-07
-2.9033523429e-07
4.28174639241e-07
-5.24181208801e-07
6.95168574606e-07
-6.4223982912e-07
8.2240814565e-07
-7.17244553621e-07
7.82586389981e-07
-7.768004185e-07
7.05979524625e-07
-8.63999767856e-07
6.56261750543e-07
-8.30348381351e-07
4.30267816331e-07
-7.91689701714e-07
2.17006649273e-07
-8.52345781278e-07
2.14712420969e-07
-9.45756873873e-07
2.40104659755e-07
-1.10545060551e-06
3.53189688444e-07
-1.27470535369e-06
4.62381816763e-07
-1.34365280014e-06
4.35626081207e-07
-1.37214649181e-06
3.90179553233e-07
-1.45464295428e-06
4.41541287771e-07
-1.53980158496e-06
4.92123560808e-07
-1.60358812419e-06
4.90547261622e-07
-1.66129797301e-06
4.63863083533e-07
-1.71654782431e-06
4.2926555722e-07
-1.75899659929e-06
3.82578469851e-07
-1.78807639154e-06
3.31332098251e-07
-1.81922967243e-06
2.84418805424e-07
-1.83596339243e-06
2.48331567945e-07
-1.86472545911e-06
2.23556322239e-07
-1.87336992083e-06
1.65889253172e-07
-1.87071880049e-06
9.78700659126e-08
-1.8945488325e-06
9.34599411998e-08
-1.93012892928e-06
1.01806452347e-07
-1.98856905937e-06
1.19839980269e-07
-2.05269325725e-06
1.64491739377e-07
-2.11969328895e-06
1.97072398299e-07
-2.15108885798e-06
1.77685138711e-07
-2.16558838418e-06
1.51827239493e-07
-2.17513227991e-06
1.23900535078e-07
-2.182053147e-06
9.14555705504e-08
-2.18671563283e-06
5.41008982072e-08
-2.18997471079e-06
1.31127928348e-08
-2.19056130379e-06
-2.80194101852e-08
-2.18556337266e-06
-6.61162788292e-08
-2.17355242906e-06
-1.0123099599e-07
-2.1548862432e-06
-1.35734392721e-07
-2.13033956494e-06
-1.72085394072e-07
-2.10028846422e-06
-2.12170262813e-07
-2.06447637108e-06
-2.57631263044e-07
-2.02210758976e-06
-3.10231958061e-07
-1.971772632e-06
-3.71992999929e-07
-1.91121778637e-06
-4.45240280019e-07
-1.83736638352e-06
-5.32606054621e-07
-1.74621634253e-06
-6.36966257537e-07
-1.6318064367e-06
-7.61926491664e-07
-1.48595809498e-06
-9.12670817844e-07
-1.30259662272e-06
-1.09337249862e-06
-1.08149904264e-06
-1.29788685926e-06
-8.28488876371e-07
-1.50614258933e-06
-5.55116423495e-07
-1.68991359952e-06
-2.80940680385e-07
-1.81141938346e-06
-4.16281842427e-08
-1.82027555563e-06
1.54164618833e-07
-1.71538951138e-06
3.53275801329e-07
-1.57193479231e-06
4.63515399302e-07
-1.40097130483e-06
6.47121801553e-07
-1.10733952849e-06
7.82205251394e-07
-7.24824301155e-07
9.05456184808e-07
-5.55611440703e-07
1.00491850081e-06
-4.41644133487e-07
1.07060312319e-06
-3.35884044732e-07
1.08289131248e-06
-1.97580972746e-07
1.045844304e-06
8.72982297795e-09
1.00395837869e-06
2.07924811475e-07
9.53649241032e-07
3.75856987905e-07
8.70764031322e-07
5.51794730035e-07
7.49964174062e-07
7.41992155306e-07
6.30137613441e-07
8.67988819249e-07
4.66454996388e-07
9.38355311406e-07
2.96256212449e-07
9.7092501273e-07
1.61259235096e-07
1.15559136577e-06
1.24289246018e-06
-9.17961253308e-08
6.50756058286e-07
-2.36230149127e-07
8.96326615778e-07
-2.58975930995e-07
9.47592476613e-07
-1.65375197381e-07
5.82150098255e-07
-3.34451235474e-07
5.97255904078e-07
-5.34628674682e-07
8.95352472869e-07
-6.14309119161e-07
9.02113990547e-07
-6.96492292167e-07
8.64797607115e-07
-6.97695730935e-07
7.07241682744e-07
-7.16604122101e-07
6.75208982771e-07
-6.74494732865e-07
3.88183849984e-07
-7.64346147113e-07
3.06859636729e-07
-8.46958887937e-07
2.97308609951e-07
-9.83185557387e-07
3.76309772471e-07
-1.15397228085e-06
5.23956418028e-07
-1.23805724918e-06
5.46455982009e-07
-1.26561046377e-06
4.63175078035e-07
-1.353343899e-06
4.77904834853e-07
-1.4558477679e-06
5.44035071047e-07
-1.52765303058e-06
5.63920258864e-07
-1.58538031457e-06
5.48266025469e-07
-1.6411745219e-06
5.19642149376e-07
-1.7020073828e-06
4.9008988045e-07
-1.75817251645e-06
4.3873455597e-07
-1.77826198573e-06
3.51404028704e-07
-1.81360802357e-06
3.19749852315e-07
-1.83365749295e-06
2.68359521294e-07
-1.82141784734e-06
2.11292513525e-07
-1.82992437851e-06
1.74364907046e-07
-1.90186896825e-06
1.69772453791e-07
-1.94263922051e-06
1.34176598379e-07
-1.94636689312e-06
1.05452546548e-07
-2.01487571603e-06
1.88251989824e-07
-2.09859479188e-06
2.48103504336e-07
-2.13576239825e-06
2.34131825443e-07
-2.15891599714e-06
2.00729617944e-07
-2.17432015476e-06
1.67117387536e-07
-2.18523611603e-06
1.34695394605e-07
-2.19351020171e-06
9.95982856289e-08
-2.19935875736e-06
5.98073298864e-08
-2.2026972005e-06
1.6298777533e-08
-2.20266400458e-06
-2.82110705529e-08
-2.19753218828e-06
-7.14088808161e-08
-2.18610429486e-06
-1.1281793614e-07
-2.16837024626e-06
-1.53624395089e-07
-2.14485552005e-06
-1.95752033429e-07
-2.11587201053e-06
-2.41300262759e-07
-2.08128976755e-06
-2.92358496217e-07
-2.04059009651e-06
-3.51067790275e-07
-1.9927508261e-06
-4.19972498698e-07
-1.9358299709e-06
-5.02308629127e-07
-1.86643973432e-06
-6.02118185126e-07
-1.77910332107e-06
-7.24472254672e-07
-1.66564267387e-06
-8.75514360051e-07
-1.51698002471e-06
-1.0614778801e-06
-1.32740212532e-06
-1.28311401904e-06
-1.09718605387e-06
-1.52824161783e-06
-8.30381842632e-07
-1.77311135626e-06
-5.34482649064e-07
-1.9859616425e-06
-2.36089739595e-07
-2.1100170835e-06
1.74920750585e-08
-2.07407905378e-06
2.20640110201e-07
-1.91878171867e-06
3.81021614286e-07
-1.73257018591e-06
4.99590251243e-07
-1.51979373454e-06
6.647041398e-07
-1.2727231208e-06
8.26700781017e-07
-8.87055727364e-07
9.52459636989e-07
-6.81578637148e-07
1.05273657247e-06
-5.42169397207e-07
1.10161108272e-06
-3.84919443184e-07
1.09580425193e-06
-1.92011789187e-07
1.07315800943e-06
3.13111088677e-08
1.05613123052e-06
2.2484612976e-07
1.02231702191e-06
4.09510979319e-07
9.47938026074e-07
6.26297098219e-07
8.35669463065e-07
8.54039700324e-07
6.97905000278e-07
1.00579824444e-06
5.19344264889e-07
1.11695116233e-06
3.10284202475e-07
1.17982038837e-06
1.58291650208e-07
1.3074337699e-06
1.40119485646e-06
-1.2339302249e-07
7.74191892974e-07
-2.33946760752e-07
1.00691446251e-06
-2.07286644968e-07
9.20973226641e-07
-2.14709336418e-07
5.89581843429e-07
-4.14900767446e-07
7.97456699795e-07
-5.01853861301e-07
9.82325185248e-07
-5.7581040909e-07
9.76106934778e-07
-6.50989558707e-07
9.40019744718e-07
-6.6681933886e-07
7.23102649571e-07
-6.86819835281e-07
6.95251074564e-07
-6.95207108442e-07
3.96575574143e-07
-7.71709794022e-07
3.83355337098e-07
-8.70583127274e-07
3.96159382276e-07
-1.02956878689e-06
5.35268884827e-07
-1.17637244123e-06
6.70754305685e-07
-1.21824601877e-06
5.88332686061e-07
-1.2604763936e-06
5.05401349656e-07
-1.35243660544e-06
5.69855994987e-07
-1.44199035851e-06
6.33581114354e-07
-1.51209938123e-06
6.34021335276e-07
-1.56983176636e-06
6.05984548188e-07
-1.6146294622e-06
5.64435877315e-07
-1.65245432995e-06
5.27915031403e-07
-1.69214666686e-06
4.78420580042e-07
-1.72587637982e-06
3.85129873544e-07
-1.74610040446e-06
3.39958982893e-07
-1.78935657054e-06
3.11594974642e-07
-1.83762833013e-06
2.59539741628e-07
-1.876345288e-06
2.13054264706e-07
-1.90078664582e-06
1.94170765898e-07
-1.94168707914e-06
1.75007678913e-07
-2.03557163553e-06
1.99247472073e-07
-2.08733334136e-06
2.39911758214e-07
-2.1191744709e-06
2.79842875367e-07
-2.14588655914e-06
2.60745150764e-07
-2.16780494893e-06
2.22545228716e-07
-2.18482683822e-06
1.84029014841e-07
-2.19731426703e-06
1.47061775208e-07
-2.20662709108e-06
1.08779024242e-07
-2.21339080319e-06
6.64263195394e-08
-2.21719388723e-06
1.99473728488e-08
-2.21705786454e-06
-2.85100444816e-08
-2.21186756779e-06
-7.67663414284e-08
-2.20083679675e-06
-1.24018966403e-07
-2.18377277325e-06
-1.70859161159e-07
-2.16094056326e-06
-2.1875486436e-07
-2.13271053552e-06
-2.69699773731e-07
-2.0992817424e-06
-3.25946856178e-07
-2.0606412937e-06
-3.89876419734e-07
-2.01635953397e-06
-4.64414138575e-07
-1.96497077027e-06
-5.53839805021e-07
-1.90296178936e-06
-6.64321496106e-07
-1.82351362838e-06
-8.04026184956e-07
-1.71662574722e-06
-9.82556727955e-07
-1.57136245966e-06
-1.20689070899e-06
-1.38003581581e-06
-1.47454776748e-06
-1.13910743029e-06
-1.76931592953e-06
-8.44465544544e-07
-2.06784996044e-06
-5.04117515859e-07
-2.32650744756e-06
-1.74040048441e-07
-2.44028343441e-06
7.15151191559e-08
-2.31987729402e-06
2.55068995401e-07
-2.10256894019e-06
4.21732898148e-07
-1.89947069212e-06
5.81108032153e-07
-1.67941820465e-06
7.15141246722e-07
-1.40701113425e-06
8.91782196617e-07
-1.06396599653e-06
1.03647637229e-06
-8.2653795486e-07
1.12331905027e-06
-6.29200904731e-07
1.15015761566e-06
-4.12032674059e-07
1.13256448279e-06
-1.74483589984e-07
1.12537424809e-06
3.82515526692e-08
1.13191243194e-06
2.18168607257e-07
1.1230531747e-06
4.18431129743e-07
1.06314260694e-06
6.85810030287e-07
9.43806033109e-07
9.73545723705e-07
7.67458596218e-07
1.18200884579e-06
5.63039756858e-07
1.32120747984e-06
3.29788926259e-07
1.41305196599e-06
1.46741003346e-07
1.4904629167e-06
1.54781329586e-06
-1.47266655975e-07
9.21435913973e-07
-2.46772688012e-07
1.10643358347e-06
-1.90188406851e-07
8.64402003102e-07
-2.64813893819e-07
6.64224183867e-07
-4.40451151144e-07
9.73117085946e-07
-4.63779570802e-07
1.00569318467e-06
-5.28828011886e-07
1.04118237328e-06
-5.49959347883e-07
9.6119330447e-07
-6.0789545615e-07
7.8106478261e-07
-5.96141707956e-07
6.83508447037e-07
-6.72758857248e-07
4.73193078805e-07
-7.6944824728e-07
4.80024263084e-07
-8.81679752466e-07
5.08373747449e-07
-1.02967831044e-06
6.83257531007e-07
-1.11183733997e-06
7.52909022961e-07
-1.13314943629e-06
6.09646188541e-07
-1.22538991972e-06
5.97637983048e-07
-1.33020640496e-06
6.74665480301e-07
-1.41416255471e-06
7.17530212354e-07
-1.48931913791e-06
7.0916865051e-07
-1.55707638658e-06
6.73743743866e-07
-1.6150273621e-06
6.2238807238e-07
-1.64199983262e-06
5.54885261865e-07
-1.65868876749e-06
4.95111858168e-07
-1.7183327709e-06
4.44766832188e-07
-1.74250766448e-06
3.64118933341e-07
-1.73167767857e-06
3.00754377733e-07
-1.74643060931e-06
2.74274844922e-07
-1.80181632986e-06
2.68404500232e-07
-1.88601326692e-06
2.78317154226e-07
-1.95977721036e-06
2.48698285904e-07
-2.0212251882e-06
2.6060223828e-07
-2.09793078426e-06
3.16516054538e-07
-2.13389211223e-06
3.15712475084e-07
-2.15761876987e-06
2.84380163006e-07
-2.17942628475e-06
2.44254396468e-07
-2.19793673909e-06
2.02430480237e-07
-2.21188982974e-06
1.60895497201e-07
-2.22194803155e-06
1.18705170489e-07
-2.22919707753e-06
7.35320939529e-08
-2.23346643233e-06
2.40609142064e-08
-2.23360020178e-06
-2.85412113397e-08
-2.22853633183e-06
-8.20042687067e-08
-2.21771759868e-06
-1.35018245106e-07
-2.20100135581e-06
-1.87763516444e-07
-2.17850460964e-06
-2.41445498632e-07
-2.1505945909e-06
-2.97801323566e-07
-2.11795353448e-06
-3.58794031093e-07
-2.0814096109e-06
-4.26601854213e-07
-2.04158570055e-06
-5.04431205612e-07
-1.99801654549e-06
-5.97627040408e-07
-1.94757352048e-06
-7.14878518024e-07
-1.88290092655e-06
-8.68895247816e-07
-1.79152631971e-06
-1.07404659515e-06
-1.65850397787e-06
-1.34001004622e-06
-1.46952069371e-06
-1.66368862995e-06
-1.20938069123e-06
-2.0295465114e-06
-8.58359853278e-07
-2.41907770345e-06
-4.53404185859e-07
-2.73161381129e-06
-1.17341527378e-07
-2.77657792032e-06
7.41267634289e-08
-2.51157031283e-06
2.43061718216e-07
-2.27174611558e-06
4.55022607919e-07
-2.11166398839e-06
6.83157444193e-07
-1.9077719427e-06
8.99974043925e-07
-1.62407523524e-06
1.12086278408e-06
-1.28514008476e-06
1.20882294709e-06
-9.14754638185e-07
1.18796513127e-06
-6.08647197435e-07
1.18552945255e-06
-4.09662641553e-07
1.17165132811e-06
-1.60911474132e-07
1.17852535105e-06
3.13608654441e-08
1.2131010829e-06
1.83493864082e-07
1.25762152511e-06