/*--------------------------------*- C++ -*----------------------------------*\
| =========                 |                                                 |
| \\      /  F ield         | OpenFOAM: The Open Source CFD Toolbox           |
|  \\    /   O peration     | Version:  v1806                                 |
|   \\  /    A nd           | Web:      www.OpenFOAM.com                      |
|    \\/     M anipulation  |                                                 |
\*---------------------------------------------------------------------------*/
FoamFile
{
    version     2.0;
    format      ascii;
    class       volVectorField;
    location    "36";
    object      U;
}
// * * * * * * * * * * * * * * * * * * * * * * * * * * * * * * * * * * * * * //

dimensions      [0 1 -1 0 0 0 0];


internalField   nonuniform List<vector> 
6400
(
(-8.16640907753e-05 -0.000120345519246 0)
(-0.000240177471536 -0.00010702476326 0)
(-0.000360541698106 -0.000102092198447 0)
(-0.000531998791851 -0.000105988260169 0)
(-0.000650427469694 -5.7705961235e-05 0)
(-0.00072288694771 3.84364438138e-06 0)
(-0.000680208636913 2.45752790772e-05 0)
(-0.000629192071209 -6.57582813053e-06 0)
(-0.000729882696846 -4.21187909961e-05 0)
(-0.000908603183571 -3.92747217595e-05 0)
(-0.000835540203052 -3.51355053713e-05 0)
(-0.00102753501319 -7.24154262519e-05 0)
(-0.00117492061934 -7.5900230823e-05 0)
(-0.00131348539956 -4.25614564329e-05 0)
(-0.00132609021546 -1.62662072854e-05 0)
(-0.00135944666716 -4.06387134767e-05 0)
(-0.00149533632194 -6.34092019821e-05 0)
(-0.00158492805417 -5.26999608478e-05 0)
(-0.0015890952877 -4.67361857472e-06 0)
(-0.00153086425783 5.20788001625e-05 0)
(-0.00145574637055 4.93550369133e-05 0)
(-0.00140726040451 2.87604716813e-05 0)
(-0.00140297735851 1.3984605311e-05 0)
(-0.0014047290528 -2.59420557196e-05 0)
(-0.00146965233269 -3.70871789628e-05 0)
(-0.00149963689112 -1.1159730287e-05 0)
(-0.00155809354359 -3.74833733704e-05 0)
(-0.00166979991863 -5.68187345678e-05 0)
(-0.00174024490486 -4.32652521723e-05 0)
(-0.00179128871207 -1.35706103427e-05 0)
(-0.0017474166059 -2.7997342057e-05 0)
(-0.00181614935535 -3.88052387923e-05 0)
(-0.00183616726815 3.17884987097e-05 0)
(-0.00174270344192 7.28556205254e-05 0)
(-0.00158273616006 0.000100565306511 0)
(-0.00144438474156 0.000118668024438 0)
(-0.00132240361451 0.000138126285036 0)
(-0.000939229418584 0.000113433426497 0)
(-0.00083778344898 9.8308996109e-05 0)
(-0.000686698583953 8.03184079045e-05 0)
(-0.00056846568001 5.34594801681e-05 0)
(-0.000490225860267 5.25826492807e-05 0)
(-0.00043813410829 5.28133817099e-05 0)
(-0.000381698675306 5.10031021876e-05 0)
(-0.000321274308917 4.48074646305e-05 0)
(-0.00027657252269 3.47111845248e-05 0)
(-0.000237625778758 2.12061294283e-05 0)
(-0.000210925572388 7.0920325416e-06 0)
(-0.000200353025709 -4.87485664423e-06 0)
(-0.00021200494692 -1.48901096581e-05 0)
(-0.000204118185034 -2.94377588004e-05 0)
(-0.000308182488522 -3.70175515276e-05 0)
(-0.000296169933975 -3.50470690888e-05 0)
(-0.000338668975743 -1.16420604653e-05 0)
(-0.000296988703928 1.36680866198e-05 0)
(-0.000218024889239 -3.11974434896e-07 0)
(-0.000130742111482 -4.8388428389e-05 0)
(3.40661545639e-05 -5.16077194813e-05 0)
(0.000147941899076 -1.18199697699e-05 0)
(0.000242478104312 4.50287380936e-05 0)
(0.000691940512282 0.000182606176048 0)
(0.00127680259716 0.000392661706136 0)
(0.00228169846049 0.000357779497273 0)
(0.00262736592495 0.000236660844899 0)
(0.00285609474788 0.00013268246381 0)
(0.00300241217599 9.33250651745e-05 0)
(0.00313300759504 5.43355678146e-05 0)
(0.00327091867846 3.30814876643e-05 0)
(0.00339552864196 1.82209603688e-05 0)
(0.00342865549574 -5.76181862932e-06 0)
(0.00341131841339 -3.46193776996e-05 0)
(0.00327074310083 -6.98979322133e-05 0)
(0.0030295462516 -0.000119915573844 0)
(0.00286901386489 -0.00019288278645 0)
(0.00229798007217 -0.000189824332218 0)
(0.00210620109367 -0.000193700737468 0)
(0.00145248687018 -0.000129647030264 0)
(0.00153774447198 -0.000203879303268 0)
(0.000681661930374 -0.000161052151722 0)
(0.000513082428739 -0.000300355852063 0)
(-2.65822029127e-05 -0.000154686124652 0)
(-0.000116413798268 -0.000185599107141 0)
(-0.000208985107884 -0.00018831389163 0)
(-0.000261744895187 -0.000147369082764 0)
(-0.000412217163256 -0.000145400494327 0)
(-0.000622693498554 -9.97257826163e-05 0)
(-0.000788772445642 -2.57513014382e-05 0)
(-0.000870564642479 -6.67919786468e-05 0)
(-0.000942636028843 -0.000143660589958 0)
(-0.00103777453476 -0.000137913985788 0)
(-0.00112941853955 -0.000144819459384 0)
(-0.0012101360564 -0.000192232586658 0)
(-0.00126731153218 -0.000176381007435 0)
(-0.00131828495933 -0.000121120781279 0)
(-0.00140391024241 -8.75642392025e-05 0)
(-0.00147260952311 -0.000145371601641 0)
(-0.00151139386244 -0.000151766564328 0)
(-0.00148634184062 2.9837004737e-05 0)
(-0.00119158741407 0.000108007279667 0)
(-0.00120243208038 0.000137652897753 0)
(-0.00117229433779 0.0001046860717 0)
(-0.00119468958431 -6.42743512612e-06 0)
(-0.00134325150116 -8.13549845414e-05 0)
(-0.00153553507584 -6.41200707558e-05 0)
(-0.00133190005699 -6.98850008378e-05 0)
(-0.00156241486247 -0.000130804895936 0)
(-0.00173038315219 -0.000164829959652 0)
(-0.00175277035048 -0.000130593350744 0)
(-0.00176558198233 -7.41378505593e-05 0)
(-0.00172101892265 2.56220009353e-06 0)
(-0.00175005696637 1.72713265723e-05 0)
(-0.00147982825448 2.29899988635e-05 0)
(-0.00148276329173 0.000141500580364 0)
(-0.00131963922429 0.000185495748322 0)
(-0.00110945077652 0.000179814343582 0)
(-0.00125358214108 0.000310941965653 0)
(-0.000958221802102 0.000308234177482 0)
(-0.000775489110902 0.000267252139417 0)
(-0.000717793662572 0.000241908961562 0)
(-0.000701376208203 0.000213915908282 0)
(-0.0006443513904 0.000108491292059 0)
(-0.000194991624596 2.99135316126e-06 0)
(-0.000130334363788 -6.98801855907e-06 0)
(-0.000103796417531 -5.51358926138e-06 0)
(-8.16809938317e-05 -6.40521452704e-07 0)
(-6.67460517651e-05 4.61886422944e-06 0)
(-6.12008607756e-05 1.0251914166e-05 0)
(-6.59688552115e-05 1.36516016146e-05 0)
(-8.82796205676e-05 1.49244500432e-05 0)
(-0.000119912141424 1.37821444806e-05 0)
(-0.000133687091657 4.94063367827e-06 0)
(-0.000117003409795 1.11497179824e-05 0)
(-0.000104181429234 1.88677195541e-05 0)
(-0.000359600487379 3.69888818671e-05 0)
(-0.000307769940347 -6.94111851121e-06 0)
(-0.00024694954928 -2.08006012515e-05 0)
(-0.00111387204413 2.12706156648e-05 0)
(-0.000488997641834 0.000113541932574 0)
(0.000505375730581 0.000478812288961 0)
(0.00144294116056 0.00097184364382 0)
(0.00248255296905 0.000981404280442 0)
(0.00133957934347 0.000456530078338 0)
(0.00266502496442 0.000899818024917 0)
(0.00266338730263 0.000689669558478 0)
(0.00288286160144 0.00036857000393 0)
(0.00287395208418 0.000191906226402 0)
(0.00292918135199 0.000156417445733 0)
(0.00319569257275 0.000152513770522 0)
(0.00334217321498 9.34165483493e-05 0)
(0.00343790216521 -5.91713199375e-06 0)
(0.00338817783094 -0.000129896016492 0)
(0.00322120714383 -0.000257069085736 0)
(0.00291193518692 -0.000334944071517 0)
(0.00282265498347 -0.000443702737684 0)
(0.00257194439145 -0.000510960564625 0)
(0.00229651174878 -0.000546901679404 0)
(0.0019541288227 -0.000522349974494 0)
(0.00159791030941 -0.000617695769674 0)
(0.00100671791795 -0.000719217109448 0)
(0.000469933685863 -0.00120299863816 0)
(-4.51868112475e-05 -0.000260914102134 0)
(-0.000114618682786 -0.000307438525431 0)
(-0.000180177517394 -0.00031505031606 -1.22501537575e-28)
(-0.000380232699798 -0.000362671369582 1.32035880745e-28)
(-0.000618105565804 -0.000417741937063 1.44453045483e-28)
(-0.000701920948885 -0.000330637280431 -1.3684218342e-28)
(-0.000725313014801 -0.000140895261829 1.40928302546e-28)
(-0.000809798268104 -0.000174935131349 -1.59541748548e-28)
(-0.000900785491485 -0.000235218628616 0)
(-0.00101253899338 -0.000250907768177 0)
(-0.0011276627935 -0.000245563668535 0)
(-0.00120351909136 -0.000245220268 0)
(-0.00126255924617 -0.000223755109884 0)
(-0.00130264955646 -0.000198483201183 0)
(-0.00132071535002 -0.000134216458868 0)
(-0.00131809412829 2.51879621006e-06 0)
(-0.000771473227391 7.7577490807e-05 0)
(-0.000710990187603 0.000126518529444 0)
(-0.000700588937709 0.000134166552625 0)
(-0.000730880199716 6.58268273007e-05 0)
(-0.000975126582766 -2.03428041808e-05 0)
(-0.00133383703237 -0.000136787314124 0)
(-0.00116295660119 -0.000156268910149 0)
(-0.00132917595653 -0.000164792489827 0)
(-0.0015961248747 -0.000228879923701 0)
(-0.00169907622352 -0.000293166382073 0)
(-0.00167832874451 -0.000211487107038 0)
(-0.00167332365338 -0.00011444376184 0)
(-0.00165898306171 -1.35600795491e-05 0)
(-0.00150610143289 5.37673299216e-05 -5.68329193186e-28)
(-0.00161055987172 0.000138033939358 5.86011728288e-28)
(-0.00132677185455 0.000161833686433 0)
(-0.00122916711973 0.000207694832218 0)
(-0.00144630431614 0.000431027764448 0)
(-0.000852981474342 0.000262493095575 0)
(-0.000852440342049 0.000305375425665 0)
(-0.00103914829729 0.000514249439417 0)
(-0.000581863746894 0.000272380437173 0)
(-0.000511772722439 0.00012540089744 0)
(-0.000487347509702 1.8508581371e-05 0)
(-0.000927882558415 -6.74398313202e-05 0)
(-0.001274387683 -4.65514550179e-05 0)
(-0.000239525961311 0.000137214031809 0)
(0.000810082668442 0.000153877480515 0)
(0.00165123784736 8.12792737133e-05 0)
(0.00223226082696 -1.7646369878e-05 0)
(0.00250338144815 -9.84902652315e-05 0)
(0.00241447957368 -0.000140998406163 0)
(0.0020509268471 -0.000168048032599 0)
(0.0013948569856 -0.000218815602322 0)
(0.0003907404313 -0.000277993014881 0)
(-0.000650540989829 -0.000342647819296 0)
(-0.000699778198074 -0.000249245054227 0)
(-0.0011771745433 -8.97768523662e-05 0)
(-0.00176588822038 0.000293298990524 0)
(-0.00136775474278 0.000888106532129 0)
(-0.00131878418228 0.00217653807513 0)
(-0.000538833011333 0.00175025677534 0)
(0.000332950674902 0.00057075149017 0)
(0.00109715058762 -1.84844724739e-05 0)
(0.00178319134046 -0.000148078522281 0)
(0.00247433745486 0.000439121876965 0)
(0.00313376366237 0.0014378536795 0)
(0.00238126700202 0.000791484003717 0)
(0.00247909538959 0.00046310508944 0)
(0.00273490241175 0.000347861321395 0)
(0.00298713499449 0.000320569980099 0)
(0.00312163095556 0.000274727035783 0)
(0.0032209760963 0.000150320792044 0)
(0.00325812152986 -2.71781718534e-05 0)
(0.00319971424238 -0.00020867437348 0)
(0.00311189376686 -0.000352491564182 0)
(0.0031091734175 -0.000464459138547 0)
(0.00302316607997 -0.000639845545045 0)
(0.00273004581635 -0.000822286378556 0)
(0.00235696825494 -0.000901336760943 0)
(0.00195549476334 -0.000924355768501 0)
(0.00156313354906 -0.00115660232172 0)
(0.00110701618663 -0.00167000074487 0)
(0.000296297932246 -0.00173427300604 0)
(-4.73188209226e-05 -0.000414008304794 0)
(-3.62013350468e-05 -0.000246343391851 0)
(-0.000158898616613 -0.000514223814439 0)
(-0.000411027044232 -0.000603243932442 0)
(-0.000488249330763 -0.000463971660563 0)
(-0.000186735693717 -0.00011939661654 0)
(-0.000213825909683 -0.000117606062153 0)
(-0.000462659220416 -0.000303689229966 0)
(-0.000806489011731 -0.000442491913179 0)
(-0.000940478228533 -0.000400864760874 0)
(-0.00110411690225 -0.00037469369274 0)
(-0.00119202699495 -0.000334231636308 0)
(-0.0012227071212 -0.000253371337503 0)
(-0.00115494770131 -8.53501243509e-05 0)
(-0.000800769802933 6.63604261628e-05 0)
(-0.000689003884193 0.000145005485764 0)
(-0.000661227011372 0.000176179654776 0)
(-0.000691141405548 0.00012927736664 0)
(-0.000822086288835 4.63278661821e-05 0)
(-0.00121162557043 -0.000121281300301 0)
(-0.00125516930796 -0.000222346039132 0)
(-0.00128753176593 -0.000229566751696 0)
(-0.00146401566942 -0.000288625076951 0)
(-0.00160545785352 -0.000376500597285 0)
(-0.00163364242522 -0.000363410320403 0)
(-0.00163296850137 -0.000270428758866 0)
(-0.00153375677309 -0.000171193253504 0)
(-0.00165238037433 -7.0742266463e-05 0)
(-0.0014236169285 3.38324489624e-05 0)
(-0.00163553225213 0.00013644985457 0)
(-0.00126008249094 0.00017946170842 0)
(-0.00153958981021 0.00030354307041 0)
(-0.00110704589374 0.00031446653503 0)
(-0.00102315481454 0.000358497727966 0)
(-0.0012668164888 0.000550537143581 0)
(-0.000785857463137 0.000335376363737 0)
(-0.000806379437837 0.000331278614377 0)
(-0.00110372883721 0.000221545461307 0)
(-0.00176939438949 -0.000232749314887 0)
(-0.00137536891721 -0.000166879954378 0)
(0.00115411937884 0.000983531427171 0)
(0.00320051847288 0.00171061563172 0)
(0.00500619229227 0.00200871558921 0)
(0.006501462919 0.0019380551871 0)
(0.00770255235169 0.001612632561 0)
(0.00860018361451 0.00113908613685 2.38930186039e-27)
(0.00917618774461 0.000598018649379 -2.35474993104e-27)
(0.00940160723296 5.01431520618e-05 0)
(0.00925654214233 -0.00049001685243 0)
(0.00877038408739 -0.00102683444244 0)
(0.00792119110361 -0.00152444875841 0)
(0.00678253246446 -0.00194679909814 0)
(0.00564149191269 -0.00217555201012 0)
(0.00423423866135 -0.00193999544621 0)
(0.00242462275455 -0.0010717593358 0)
(0.00074324817962 0.000859146956575 0)
(0.000449608983489 0.00202168935034 0)
(0.000862856550872 0.000769592316246 2.64246139385e-27)
(0.000556923255442 -0.000264844117596 -1.99723840218e-27)
(0.000334610129113 -0.000258501569097 0)
(0.000568755242076 0.000238240228843 0)
(0.0011646369024 0.000981640571139 0)
(0.00185274772142 0.00138898120338 0)
(0.00206634030664 0.000955624497108 0)
(0.00252725265431 0.000707288675151 0)
(0.00265018329484 0.000555024842194 0)
(0.00281938687836 0.000469540721206 0)
(0.00300109855355 0.000378520103715 0)
(0.00313788725039 0.000215633358026 0)
(0.00327502142383 -7.4958724489e-06 0)
(0.00334438363271 -0.000216874632926 0)
(0.00336466406534 -0.000386049777267 0)
(0.00324447563343 -0.00061695269772 0)
(0.00283388954562 -0.000890756431109 0)
(0.00249874805187 -0.00113393684939 0)
(0.0021634630495 -0.001331054166 0)
(0.00170316501506 -0.0014283884843 0)
(0.00105150979071 -0.00137960879703 0)
(0.000782504756735 -0.00194657827335 0)
(0.000265289420031 -0.00234341815023 0)
(3.82013823008e-06 -0.000381504610149 0)
(-7.17196426871e-06 -0.000301338050962 0)
(-0.000183133228462 -0.000785464708477 0)
(-0.000339461219351 -0.00068035733694 0)
(-0.000240247674117 -0.000315843522601 0)
(-0.000165373915852 -0.000149914148148 0)
(-0.000284011841232 -0.000291633322837 0)
(-0.0006612576808 -0.000664237479684 0)
(-0.000813999313162 -0.000656140098918 0)
(-0.000926286240953 -0.000558728420928 0)
(-0.00103361987391 -0.00049828621023 0)
(-0.00105723609097 -0.000348602442856 0)
(-0.000846238525558 -7.44980580732e-05 0)
(-0.000663785502276 7.55194612223e-05 0)
(-0.000683171813963 0.00015189519163 0)
(-0.000726710261694 0.000166777009711 0)
(-0.000819177033468 0.000119563906279 0)
(-0.00100801910542 -2.16351777209e-05 0)
(-0.00134432273738 -0.000215486516935 0)
(-0.00117690856847 -0.00020526455882 0)
(-0.00121573036325 -0.000258982524553 0)
(-0.00142369742076 -0.000395701545139 0)
(-0.00152193153248 -0.000453536029962 0)
(-0.00156171704901 -0.000406091101512 0)
(-0.00155881923334 -0.00032159044977 0)
(-0.00148985915409 -0.000248367986644 0)
(-0.00162616818845 -0.000142553679357 0)
(-0.00132407009774 -2.67424390819e-05 0)
(-0.00162318012061 8.35943248986e-05 0)
(-0.00117921160242 0.000151221348891 0)
(-0.00160109466237 0.000302202615428 -5.23408065034e-28)
(-0.00106536258277 0.000276057200396 3.08923872508e-28)
(-0.00129977303842 0.000421900232192 0)
(-0.00155411080698 0.00063320233425 0)
(-0.000939145096185 0.000406516483596 0)
(-0.00129441228417 0.000423481827359 0)
(-0.00113892975896 2.65241165629e-05 0)
(-0.00317736847255 -0.000705575019675 0)
(0.000662383822831 0.00148869599938 0)
(0.00337004135345 0.00279895169603 0)
(0.0058739217262 0.00358487504932 0)
(0.00807070583933 0.00388691641704 0)
(0.0099598038435 0.00379895220173 0)
(0.0115367752101 0.00338334853834 0)
(0.0128111033214 0.00273372349937 0)
(0.0137808663195 0.00193729507853 0)
(0.0144387423283 0.00106491921889 0)
(0.0147798925078 0.000172638130406 0)
(0.0147717633084 -0.000707758361555 0)
(0.0144705069857 -0.00156219898278 0)
(0.0138512784542 -0.00235015626756 0)
(0.0129181369045 -0.00301123816222 0)
(0.011702530612 -0.00344610047506 0)
(0.0101567324347 -0.00355053510211 0)
(0.00805593552548 -0.00321143002994 0)
(0.00609333224813 -0.00248152910588 0)
(0.00381037067658 -0.0016297794547 0)
(0.00213674105897 -0.00139279859502 0)
(0.000729511298202 -0.0010706362385 0)
(-0.00011268285633 -0.000447879154366 0)
(-0.000241945177121 0.000411067447087 0)
(0.000160670950795 0.00149634470101 0)
(0.000710151619337 0.00196193493439 0)
(0.00174939007149 0.00157161691499 0)
(0.00248413860408 0.00111799042021 0)
(0.00269772944775 0.000743520450737 0)
(0.00284651208687 0.00060548548668 0)
(0.00297553479851 0.000502551404878 0)
(0.00310421530987 0.000331456818967 0)
(0.00327778598519 0.000103211005453 0)
(0.00346638609584 -0.000153078837377 0)
(0.00344164356584 -0.000497839240151 0)
(0.00302866908855 -0.000884339151745 0)
(0.00271846994506 -0.00122832210585 0)
(0.00241653490175 -0.00153774112844 0)
(0.00204070331085 -0.00181510788051 0)
(0.00150862456052 -0.00183893494283 0)
(0.0010249326102 -0.00185259055292 0)
(0.000703411867544 -0.00253044560467 0)
(0.000197343990083 -0.00274032023597 0)
(4.49885201713e-06 -0.00034732488699 0)
(-2.42640582497e-05 -0.000376635539804 0)
(-0.000198965752396 -0.000891626128621 0)
(-0.000226956198451 -0.000568170610427 0)
(-0.000135601003273 -0.000216788506038 0)
(-0.000168262865507 -0.000214531276362 0)
(-0.00047547480679 -0.000601213738881 0)
(-0.000761828038207 -0.000861895859041 0)
(-0.000799465131141 -0.000753820820515 0)
(-0.000861638974911 -0.00064160198239 0)
(-0.000855721849384 -0.000443903342976 0)
(-0.000581570163606 -0.000149072672135 0)
(-0.000511533893388 1.31527053365e-05 0)
(-0.000568697507841 7.65302657473e-05 0)
(-0.000626570562956 8.90789563419e-05 0)
(-0.00075903322743 4.07365931748e-05 0)
(-0.000990041091751 -0.000102089464005 0)
(-0.00132620340732 -0.000259670276999 0)
(-0.00103910483808 -0.000152258054745 0)
(-0.00110644310433 -0.000218454245297 0)
(-0.0013654435028 -0.000438462248239 0)
(-0.00144225172377 -0.000522553565506 0)
(-0.00148469482551 -0.000498842944387 0)
(-0.00144377706175 -0.000413446256218 0)
(-0.00156135506616 -0.000348354896191 0)
(-0.00153558612746 -0.000199372935015 0)
(-0.00118838881898 -6.70862353399e-05 0)
(-0.00158353868301 1.50972492657e-05 0)
(-0.0010471872353 0.00010615254373 0)
(-0.00152750054229 0.000275093747441 0)
(-0.000912061994609 0.000267675508498 0)
(-0.00131912682014 0.000419556012762 0)
(-0.000888524100698 0.000288172179489 0)
(-0.00104526847452 0.000422509407716 0)
(-0.00132014505407 0.000408997098354 0)
(-0.00156491089428 -1.740707673e-05 0)
(-0.00232635821388 -0.000264814817484 0)
(0.00183189179638 0.00265834525547 0)
(0.00497142092693 0.00450291004624 0)
(0.00774337638707 0.00558259428164 0)
(0.0102475159009 0.00606821406826 0)
(0.0124630009783 0.00605317531166 0)
(0.0143759443504 0.00563716173414 0)
(0.0159802630211 0.00490663233899 0)
(0.0172765015925 0.00394969039806 0)
(0.0182639873127 0.00284648822972 0)
(0.0189410413783 0.00166439655655 0)
(0.0193110288065 0.000457791986169 0)
(0.0193539359147 -0.000732732890949 0)
(0.0191276286485 -0.00188923752375 0)
(0.0186123315296 -0.00296978490326 0)
(0.0177928601524 -0.00393227764385 0)
(0.01665800879 -0.00473209107833 0)
(0.0151340939512 -0.0053543431444 0)
(0.0131301183043 -0.00585750108951 0)
(0.0107618173051 -0.00616701403383 0)
(0.00759434357588 -0.00531012320898 0)
(0.00462583825525 -0.00375324813202 0)
(0.00158160770726 -0.00195032058514 0)
(-0.000945776386825 8.69847271366e-06 0)
(-0.00148024752658 0.00131024375572 0)
(-0.00111153087154 0.00192305431085 0)
(-0.000216354700104 0.00141802076308 0)
(0.00147667958323 0.00285894207006 0)
(0.00208575449608 0.00151448325456 0)
(0.00246611445909 0.000963873608185 0)
(0.00273049496655 0.000754439569788 0)
(0.00294892501818 0.000644193402283 0)
(0.00312968688481 0.000492300422568 0)
(0.0034291572 0.000265021508833 0)
(0.00362508673926 -0.000154565805866 0)
(0.003302554501 -0.000706093788261 0)
(0.00295624291224 -0.00116601913444 0)
(0.00274079970303 -0.00156466576705 0)
(0.00239684143753 -0.00194141562776 0)
(0.00203786870551 -0.00228300020035 0)
(0.00147941387968 -0.00220841872991 0)
(0.00104944815971 -0.00227995206571 0)
(0.000711799063365 -0.00299304162645 0)
(0.000215646421593 -0.00313430861615 0)
(-1.22643268595e-05 -0.00037934353522 0)
(-9.56138929033e-05 -0.00053866425849 0)
(-0.000307282034459 -0.000984947260774 0)
(-0.000278822499895 -0.000764403885483 0)
(-0.000131371831932 -0.000251142429034 0)
(-0.000289631362131 -0.000438795823502 0)
(-0.000681080648243 -0.000935835556005 0)
(-0.000747164803377 -0.000942421224539 0)
(-0.000774557867016 -0.000780509487252 0)
(-0.000666001462159 -0.000557565144437 0)
(-0.000761475020034 -0.0003778523821 6.20045949477e-28)
(-0.000449527886953 -5.64268888689e-05 -2.49429897115e-28)
(-0.000558411004431 -5.50488606887e-07 0)
(-0.00057625948956 1.90087545423e-05 0)
(-0.000669779519047 -2.28545505049e-05 0)
(-0.000898516030051 -0.000190919454239 0)
(-0.00125163256122 -0.000348072054781 0)
(-0.000917132035606 -0.000150707281116 0)
(-0.000972723349582 -0.000163131215952 0)
(-0.00126002693643 -0.000426452176688 0)
(-0.001369991205 -0.000596970270235 0)
(-0.00143529741332 -0.000577873586187 0)
(-0.0014398882342 -0.000496630588092 0)
(-0.00143126210878 -0.000400454029387 0)
(-0.00132485024129 -0.000255577751787 0)
(-0.00113054002423 -9.0019112721e-05 0)
(-0.00135191990821 -3.08251868317e-05 0)
(-0.000943661060627 3.49175811332e-05 0)
(-0.00136168385817 0.000190134904902 0)
(-0.000880716124809 0.000260366255291 0)
(-0.0011763419921 0.00038269937063 0)
(-0.000877419083793 0.000287831387233 2.50746514081e-28)
(-0.00111383747514 0.000416027484222 -3.40034994367e-28)
(-0.000836770196274 0.000208598479009 0)
(-0.00154218286697 -0.000134233818909 0)
(-0.00193459722834 8.4684578208e-05 0)
(0.00257441775772 0.00364685375762 0)
(0.00596743718718 0.00602507314757 0)
(0.00901455830454 0.00756431547109 0)
(0.01180513529 0.00835895808087 0)
(0.0143260555261 0.00853388345087 0)
(0.0165518924517 0.00819955322275 0)
(0.0184672713055 0.00746056472967 0)
(0.0200676020739 0.00641247108332 0)
(0.0213550195502 0.0051434036263 0)
(0.0223332334357 0.00373122974208 0)
(0.0230059540679 0.00224198743949 0)
(0.023379603195 0.000730423355617 0)
(0.0234452578971 -0.000756133346954 0)
(0.0232482713913 -0.0021996342127 0)
(0.0227824671381 -0.00355639586123 0)
(0.0220419314511 -0.0047996519622 0)
(0.0210432001247 -0.00591509258953 0)
(0.0198062120073 -0.00691731382821 0)
(0.0183734482151 -0.00789715527159 0)
(0.0169725945839 -0.008886924487 0)
(0.0154265730613 -0.00909843601198 0)
(0.0132467459801 -0.00794173067277 0)
(0.0101476941706 -0.00578613812892 0)
(0.00647439264568 -0.00300360601666 0)
(0.00219473340587 0.00074115433243 0)
(-0.00143411284452 0.00326083676413 0)
(-0.00133798118426 0.00372342168685 0)
(-3.631397609e-05 0.00414054648884 0)
(0.00162180410137 0.00176899147579 0)
(0.00218996035302 0.00128692943682 0)
(0.002668727447 0.0010864963979 0)
(0.00306732916492 0.000953002906339 0)
(0.00338548681575 0.000760529515802 0)
(0.00367201056713 0.000385941609135 0)
(0.00363688049402 -0.000277747775336 0)
(0.00326765293057 -0.000927631197824 0)
(0.00308620558588 -0.0014420769155 0)
(0.0028251801756 -0.00189762358112 0)
(0.00249597004459 -0.00235552968722 0)
(0.00207066878107 -0.00261448134155 0)
(0.00163330046297 -0.00269542390069 0)
(0.00109333217113 -0.00272598515855 0)
(0.000732243762771 -0.00340469417375 0)
(0.000257957850432 -0.00364908385933 0)
(-2.38708484496e-05 -0.000449697294582 0)
(-0.000175184836334 -0.00075149136922 0)
(-0.000385652951016 -0.000974081677096 0)
(-0.000143448991095 -0.000368548027129 0)
(-0.000133974179341 -0.000318051693506 0)
(-0.000449337422508 -0.000792150105918 0)
(-0.000651643061198 -0.00102644102598 0)
(-0.000731335931381 -0.00100094858996 0)
(-0.000622700893236 -0.000685161284848 0)
(-0.000646202256454 -0.000532685707094 0)
(-0.000409921246322 -0.000200341256658 0)
(-0.000492702161222 -6.97314026438e-05 0)
(-0.000560738003198 -4.73808283024e-05 0)
(-0.000581158050466 -5.76312818761e-05 0)
(-0.000765968757598 -0.00020329321505 0)
(-0.00113181458143 -0.000417922754781 0)
(-0.000852142440701 -0.000236047357267 0)
(-0.000881556952731 -0.00015666152599 0)
(-0.00108209548846 -0.000352264081578 0)
(-0.00132140980392 -0.000617676741215 0)
(-0.00133610291588 -0.000674534764589 0)
(-0.00131280771432 -0.000596199786587 0)
(-0.00143658820639 -0.000532591081847 0)
(-0.00135562039881 -0.000369972192143 0)
(-0.00148871408312 -0.000161124608898 0)
(-0.00108187776836 -5.45558019506e-05 0)
(-0.00140443314949 5.00784275429e-05 0)
(-0.00108834323481 0.000105418161146 0)
(-0.00100227059221 0.000165805700564 0)
(-0.000983939651146 0.000241611968596 0)
(-0.00138793474307 0.000385528164355 0)
(-0.0010781526347 0.000328408609473 0)
(-0.000811620096197 0.000205552206074 0)
(-0.00139436939875 -0.000194262898578 0)
(-0.00233069246966 -0.000458485346278 0)
(0.00280963595336 0.00422252151357 0)
(0.00641757477637 0.00726455195747 0)
(0.00972742449415 0.00936430858319 0)
(0.0128082932078 0.0106128639396 0)
(0.0156265981679 0.0111096577244 0)
(0.0181478819877 0.0109703590666 0)
(0.020349687404 0.0103124113459 0)
(0.0222245087369 0.00924866436122 0)
(0.0237768602105 0.00788182064702 0)
(0.0250175231361 0.00630190862841 1.033528343e-27)
(0.0259580129474 0.00458555014481 -1.05069987854e-27)
(0.0266078812124 0.00279706661761 0)
(0.0269750932314 0.000990846154967 0)
(0.0270610768934 -0.000783606505074 0)
(0.0268839568645 -0.00250555961344 0)
(0.0264531005345 -0.00412192768524 0)
(0.025770829644 -0.00560438871581 0)
(0.0248664977739 -0.00693708480918 0)
(0.0237814125154 -0.00811032927307 0)
(0.0225683913556 -0.00912124645031 0)
(0.0213601910403 -0.00991775300634 0)
(0.020163794571 -0.0100762994524 0)
(0.0187156015056 -0.00932149868147 0)
(0.0167889691957 -0.00787536932655 0)
(0.0143932161986 -0.00596821286382 0)
(0.0114569156614 -0.00357253462682 0)
(0.00809833119057 -0.00077647368436 0)
(0.00227783233453 0.00380546033244 0)
(-0.00102569568705 0.00558343908251 0)
(0.00155623108633 0.00278444641161 0)
(0.00200428893758 0.00154746842265 0)
(0.00261141059189 0.00150166406101 0)
(0.00315422893562 0.00136367856568 0)
(0.0035542459807 0.00103179928852 0)
(0.00378845928396 0.000409770295961 0)
(0.00367095104165 -0.000421520973158 0)
(0.00344075320408 -0.00112594004261 0)
(0.00328782279343 -0.00170318944127 0)
(0.00299338430326 -0.00223983541907 0)
(0.00266370683923 -0.00273556175158 0)
(0.00221359883204 -0.00298463124009 0)
(0.00181793304011 -0.00321857845197 0)
(0.00120869742881 -0.00331366587646 0)
(0.000720431754749 -0.00383637588208 0)
(0.000255389219831 -0.00423310602601 0)
(-3.37895265627e-05 -0.000545982983738 0)
(-0.000247467505323 -0.00098927262837 0)
(-0.000328799217489 -0.000934640795923 0)
(-0.000151369552033 -0.000401680568322 0)
(-0.000239371196629 -0.000483872001067 0)
(-0.000589638446093 -0.00107276252315 0)
(-0.000577295686815 -0.00110167067553 0)
(-0.000714839649781 -0.00103258690557 0)
(-0.000463029552555 -0.000559045753973 0)
(-0.000741225445431 -0.000596621870252 0)
(-0.000423903999567 -0.000192762386569 0)
(-0.000551001297467 -0.00013401606601 0)
(-0.000579271565859 -0.000108114579671 0)
(-0.000656298457486 -0.000182999367545 0)
(-0.000946169639656 -0.000457625606201 0)
(-0.00116906202811 -0.000480805157529 0)
(-0.000845598440404 -0.000198668204745 0)
(-0.000975636572744 -0.000273472957943 0)
(-0.00117732992292 -0.000547083041046 0)
(-0.00126817222157 -0.000706723366099 0)
(-0.00130883988013 -0.000689255059552 0)
(-0.00117673449173 -0.00056344555617 0)
(-0.00122350173796 -0.000478517416882 0)
(-0.00112158789731 -0.000323258540405 0)
(-0.00099602410137 -8.68710539198e-05 0)
(-0.0013039528922 -3.07485779402e-05 0)
(-0.000869312225994 -3.06883323508e-06 0)
(-0.00158568739576 0.000177464673042 0)
(-0.0009440546289 0.00017299524034 0)
(-0.00166037445803 0.000238289597747 0)
(-0.000929090331227 0.000184179788483 0)
(-0.00162685063111 0.00034101085934 0)
(-0.00122554079323 -5.37155754524e-05 5.78732401126e-28)
(-0.00263956235755 -0.000849038291147 -4.17213239812e-27)
(0.00255273346967 0.00429888608739 0)
(0.00637797975279 0.00807383686351 0)
(0.00991805872824 0.010859664642 0)
(0.0132763770467 0.0126955909912 0)
(0.0163865561819 0.0136509944917 0)
(0.0191903967403 0.0138272664952 0)
(0.021652193866 0.0133484086764 0)
(0.0237594851541 0.0123461295669 0)
(0.0255201147522 0.0109466884187 0)
(0.026955785688 0.009261275012 0)
(0.0280932498742 0.00738127480027 0)
(0.0289564664371 0.00537957202323 0)
(0.029562406611 0.00331453819555 0)
(0.0299201230841 0.00123520449547 0)
(0.0300335687415 -0.000811920656535 0)
(0.0298942749955 -0.00280109522077 0)
(0.0295123709342 -0.00466855058453 0)
(0.0288913147203 -0.00637566331275 0)
(0.0280610130977 -0.00789523661006 0)
(0.0270600638143 -0.00920159903509 0)
(0.025945782372 -0.0102599141029 0)
(0.0248297637317 -0.0110179528742 0)
(0.0238032319108 -0.0112881601105 0)
(0.022765765977 -0.0109026941668 0)
(0.0214970575524 -0.00986042425711 0)
(0.0198427436596 -0.00822215802195 0)
(0.0176795365915 -0.00604203802835 0)
(0.0149373596017 -0.00347301336926 0)
(0.0111551286858 -0.000764683817881 0)
(0.00670229232848 0.00144578523574 0)
(0.00394630290976 0.00319737364668 0)
(0.00203124241318 0.00153722859301 0)
(0.00244948654097 0.00186541788726 0)
(0.00327440995148 0.00198258617487 0)
(0.00384532409178 0.00137529896821 0)
(0.0040107250439 0.000410286043889 0)
(0.00388315683801 -0.000534452544027 0)
(0.00375996589095 -0.00131359123126 0)
(0.00355442476603 -0.00198413201559 0)
(0.00322408809153 -0.00259133997356 0)
(0.00284100112829 -0.0030837713995 0)
(0.00241484044285 -0.00342982604615 0)
(0.00195127656658 -0.0037521889737 0)
(0.0013405624516 -0.00403389402897 0)
(0.000724854629477 -0.00440178063775 0)
(0.000231382412917 -0.00473743948648 0)
(-5.26498988089e-05 -0.000690510727147 0)
(-0.00032737848549 -0.00121210164273 0)
(-0.000298005267284 -0.000819774725313 0)