/*--------------------------------*- C++ -*----------------------------------*\
| =========                 |                                                 |
| \\      /  F ield         | OpenFOAM: The Open Source CFD Toolbox           |
|  \\    /   O peration     | Version:  v1806                                 |
|   \\  /    A nd           | Web:      www.OpenFOAM.com                      |
|    \\/     M anipulation  |                                                 |
\*---------------------------------------------------------------------------*/
FoamFile
{
    version     2.0;
    format      ascii;
    class       volScalarField;
    location    "424";
    object      pa;
}
// * * * * * * * * * * * * * * * * * * * * * * * * * * * * * * * * * * * * * //

dimensions      [0 2 -2 0 0 0 0];


internalField   nonuniform List<scalar> 
6400
(
-0.123866869706
-0.123868447111
-0.123872859113
-0.123881366745
-0.123893758396
-0.123909933039
-0.123929948277
-0.123954577914
-0.123984193969
-0.12401928755
-0.124063530918
-0.124118972663
-0.124183796191
-0.124258208422
-0.124343726665
-0.12444218643
-0.124554639492
-0.124681081517
-0.124820645668
-0.124970183738
-0.125125683333
-0.125287721603
-0.125461097368
-0.125651304385
-0.125862277205
-0.126094347831
-0.12634525769
-0.126613484067
-0.126899325166
-0.127203937222
-0.127528405638
-0.127871939692
-0.128230031512
-0.128598077611
-0.128974558211
-0.129356776794
-0.129744625158
-0.130145110547
-0.130557577017
-0.13097244405
-0.131391218122
-0.13182890799
-0.132294025461
-0.132779096056
-0.133274502286
-0.13377427068
-0.134273858535
-0.134770359961
-0.13526122006
-0.135744452472
-0.136219003229
-0.13667993023
-0.137118577511
-0.137522075427
-0.137889972193
-0.138232592551
-0.138545786346
-0.138814426762
-0.139032073031
-0.139209144059
-0.139352291173
-0.139464717283
-0.139542386661
-0.139608949314
-0.139701119973
-0.139843964399
-0.140027467798
-0.14021177532
-0.140366994453
-0.14049045357
-0.140589635413
-0.140673084495
-0.140746323752
-0.140808226236
-0.140860823926
-0.140904467103
-0.140939187481
-0.140961240594
-0.140974985839
-0.140980698633
-0.123864585953
-0.123866256283
-0.123870198889
-0.123878515117
-0.123891836379
-0.123908922808
-0.123929207551
-0.123952770644
-0.123981165767
-0.124016179679
-0.124060146026
-0.124114737964
-0.124179604898
-0.124254515534
-0.124340035493
-0.124437385919
-0.124549195667
-0.124675941316
-0.124816368832
-0.124966423373
-0.125120406578
-0.125280632724
-0.125453268027
-0.12564303515
-0.125854015156
-0.126086477651
-0.126337303744
-0.126605668418
-0.126892001901
-0.127196929802
-0.1275209995
-0.127864467363
-0.128223177513
-0.128590890274
-0.128967293557
-0.129349504768
-0.129736707152
-0.130137340138
-0.130550624385
-0.130965449458
-0.131381435663
-0.131818041025
-0.132287055311
-0.132774972725
-0.13327146254
-0.13377248689
-0.13427327186
-0.13477134079
-0.135263480319
-0.135745616865
-0.136216636135
-0.136677821336
-0.137124806516
-0.137531438167
-0.137901184909
-0.138248874665
-0.138559131872
-0.138822026595
-0.139039846086
-0.139216557036
-0.139354790495
-0.139467989771
-0.139550296522
-0.139620474101
-0.139715027567
-0.139858302703
-0.140044148989
-0.140227937269
-0.140381543239
-0.140504088567
-0.140602552445
-0.140685677457
-0.140759074418
-0.140821333616
-0.140872669633
-0.140914246382
-0.140945854821
-0.140966687653
-0.140979712498
-0.140984022478
-0.123858194331
-0.123860951473
-0.123864390794
-0.123871970474
-0.123884816401
-0.12390393265
-0.123925999274
-0.123948703422
-0.123975413259
-0.124009391022
-0.124052673138
-0.12410658507
-0.124171210727
-0.124246177597
-0.124331336849
-0.124425857808
-0.124535447767
-0.124665510157
-0.124807871413
-0.124956809523
-0.125107577459
-0.125263137769
-0.12543409275
-0.125625162564
-0.125836128385
-0.126067580478
-0.126318678277
-0.126587838235
-0.126874703844
-0.127179940635
-0.127503860696
-0.127847297341
-0.128207327175
-0.128573714177
-0.128947806588
-0.129331581179
-0.129717978142
-0.130116267075
-0.130529867174
-0.130946981154
-0.131369025853
-0.131809531375
-0.132275940732
-0.13276166046
-0.133258108938
-0.133759889238
-0.134262709127
-0.134763252876
-0.135258269219
-0.135744637033
-0.136220303562
-0.136682507205
-0.137123659727
-0.137534064036
-0.137915615386
-0.138265384767
-0.138571994333
-0.138832952458
-0.139050227293
-0.139227102201
-0.139368864442
-0.139481823418
-0.13956671851
-0.139645691026
-0.139750530887
-0.139899619673
-0.140078791846
-0.140256307193
-0.140409662382
-0.140532933741
-0.140631998946
-0.14071479292
-0.14078494375
-0.140843095137
-0.140891726741
-0.140930511187
-0.140958550581
-0.140977056714
-0.140988387181
-0.140992358024
-0.123849333213
-0.123852081273
-0.123854787783
-0.123861699765
-0.12387288259
-0.123891645506
-0.123919809825
-0.123942391846
-0.123966908527
-0.123999135298
-0.124041342353
-0.124094622887
-0.124159024313
-0.124233186857
-0.124317542459
-0.124414735568
-0.124526865451
-0.12465448857
-0.124790945076
-0.124931094461
-0.125077716737
-0.125235116008
-0.125407033289
-0.125597463611
-0.125808278676
-0.12603987474
-0.126291452882
-0.126561320009
-0.126848926331
-0.127154435696
-0.127478976902
-0.127822554896
-0.128182478944
-0.128551331934
-0.128921609497
-0.129300491495
-0.129689973186
-0.130087070293
-0.130495897176
-0.130915197456
-0.131344564488
-0.131790504452
-0.13225780967
-0.132743224351
-0.133240381104
-0.133743889482
-0.134249358306
-0.134753159039
-0.135251961281
-0.135742623781
-0.136222221637
-0.136686885078
-0.137130516039
-0.13754689543
-0.137933129986
-0.138283295677
-0.138589611214
-0.13885013228
-0.139067222027
-0.139245018711
-0.139389170108
-0.139505843919
-0.139602042585
-0.139697396683
-0.139809161654
-0.139952567622
-0.140128771168
-0.140304767029
-0.14045766844
-0.140580703118
-0.140677344893
-0.140754476778
-0.140818470557
-0.140874609521
-0.140921962007
-0.140956573821
-0.140979390101
-0.140995796956
-0.141006858793
-0.141011366478
-0.123835554303
-0.123835876479
-0.123839205177
-0.123846162631
-0.123858379216
-0.123875511456
-0.123900695693
-0.123925812095
-0.123951845004
-0.123984175298
-0.124025414077
-0.124078115269
-0.12414237249
-0.124219178276
-0.124307680974
-0.124404723425
-0.124512100205
-0.124630427799
-0.124758291645
-0.124895280953
-0.125041756013
-0.125198937083
-0.125370703704
-0.125561014973
-0.125771629391
-0.126003309132
-0.126255062769
-0.126525699418
-0.126814138378
-0.127120609804
-0.127445284945
-0.127790538857
-0.128153345481
-0.128517684963
-0.128885507188
-0.129261214689
-0.129645668735
-0.130042728885
-0.130453104696
-0.130875798957
-0.131310952101
-0.131761991706
-0.132231721555
-0.132718374517
-0.133217248666
-0.133723371983
-0.134232309578
-0.13474024766
-0.135243760952
-0.135739580656
-0.13622427745
-0.136693598035
-0.137142150889
-0.137564401127
-0.137955057913
-0.1383070684
-0.138614281246
-0.138875667585
-0.13909422333
-0.13927497212
-0.139424265735
-0.139549416938
-0.139660649465
-0.13977098654
-0.139886203339
-0.140027812207
-0.140200063717
-0.140373183684
-0.140524647927
-0.140645169308
-0.140735774478
-0.140805986494
-0.140868152479
-0.140924481458
-0.140967498088
-0.14099603874
-0.141015198706
-0.141031543467
-0.141040821572
-0.141043606623
-0.123810055798
-0.123809762603
-0.123815588266
-0.1238225618
-0.123835661041
-0.123853622153
-0.123876837019
-0.123902183855
-0.12393030748
-0.123963476727
-0.124003289587
-0.124055628535
-0.124124344681
-0.124205252092
-0.124292447788
-0.124385090521
-0.124485474825
-0.124596818276
-0.124720258529
-0.124854540974
-0.124998241155
-0.125153949479
-0.125325400553
-0.125515720246
-0.125726292673
-0.125957343556
-0.126209534878
-0.126480703796
-0.126770437586
-0.127077913037
-0.127404377609
-0.127749684654
-0.128109806402
-0.128476828837
-0.128838849453
-0.129207179219
-0.129589761321
-0.129987994058
-0.130400957055
-0.130827588608
-0.131268015481
-0.131724136795
-0.132197476708
-0.132686824948
-0.133188576416
-0.133698274697
-0.134211571653
-0.134724578548
-0.135233817955
-0.135735921932
-0.136227209771
-0.136703252186
-0.137158737551
-0.13758770355
-0.137983471189
-0.138338848955
-0.138649006453
-0.138913846956
-0.139136899285
-0.139323733228
-0.139481202953
-0.139617719274
-0.13974619236
-0.139865733008
-0.13998475334
-0.140129622687
-0.140301577893
-0.140469792828
-0.140615304792
-0.140728044379
-0.140810506446
-0.140878294652
-0.140942347282
-0.140994739518
-0.141030395361
-0.141052596915
-0.141069478432
-0.141082205051
-0.141087639246
-0.141089597932
-0.123771228863
-0.123773944502
-0.123783866349
-0.123794232954
-0.123804742884
-0.123822595827
-0.123846892552
-0.123872705209
-0.123902185399
-0.123936229082
-0.123977878285
-0.124030763873
-0.12410267676
-0.124182266326
-0.124265746017
-0.124352551129
-0.124447808567
-0.124556278078
-0.124677120322
-0.12480640916
-0.124946481194
-0.125100917725
-0.125271587524
-0.125461055983
-0.12567124342
-0.125903477239
-0.126154042129
-0.126425941256
-0.126717173272
-0.12702828056
-0.127355597805
-0.127698769611
-0.128057434705
-0.128417062638
-0.128775875977
-0.129141287546
-0.129523488125
-0.129923428112
-0.130339386395
-0.130770097639
-0.131215599154
-0.131676951925
-0.132154836677
-0.132648171719
-0.133154001596
-0.133668331233
-0.134186988452
-0.134706133277
-0.13522231483
-0.135732137045
-0.136231774203
-0.136716588463
-0.137180930118
-0.137618134921
-0.138020806844
-0.138382150125
-0.138698492516
-0.138970489631
-0.139201801357
-0.139397753941
-0.139565713616
-0.139715699237
-0.139855901969
-0.139983722935
-0.140117815639
-0.140266582497
-0.140436214494
-0.140594946509
-0.140728388676
-0.140830944968
-0.140909941514
-0.140980848024
-0.141043363872
-0.141087227265
-0.141113799269
-0.141129160322
-0.141141193033
-0.141146274736
-0.141145385335
-0.141145230426
-0.123725810257
-0.123731375735
-0.12374277278
-0.123757879584
-0.123769030071
-0.123787411932
-0.123810551947
-0.123837119311
-0.123868400917
-0.123900287895
-0.123945511192
-0.124004035752
-0.124073651425
-0.124150062575
-0.124228333523
-0.124309444075
-0.124402616637
-0.124509927538
-0.124625893279
-0.12475011153
-0.124886730156
-0.125039279837
-0.12520882359
-0.125398165937
-0.125608466886
-0.125839982456
-0.126091851757
-0.1263597841
-0.126654992381
-0.1269713966
-0.12729769469
-0.127634128541
-0.127988599335
-0.12834295068
-0.128697014268
-0.129063485137
-0.129447148249
-0.129848998869
-0.130267963365
-0.130702834442
-0.131153436216
-0.13162029944
-0.132103552044
-0.132602038385
-0.133113142834
-0.133633237421
-0.134158392754
-0.134684930227
-0.135209512468
-0.135728766608
-0.136238761917
-0.136734575664
-0.137210050935
-0.137657881838
-0.138070453042
-0.13844161225
-0.138768595537
-0.139052079697
-0.139294655053
-0.139500546648
-0.13967781668
-0.139837597293
-0.139988081249
-0.140134227845
-0.140281758537
-0.140438938705
-0.140601508681
-0.140748186348
-0.140868940872
-0.140964578714
-0.141045024905
-0.141117800143
-0.141172794207
-0.14120537349
-0.141220466832
-0.141226074353
-0.141225820814
-0.141219535638
-0.141209416493
-0.1412042602
-0.123676370232
-0.123683663684
-0.123695046027
-0.123707031927
-0.12372166576
-0.123744592285
-0.123767010096
-0.123793675091
-0.12382821993
-0.12386209683
-0.123903937311
-0.123966116349
-0.124035874553
-0.124107613315
-0.124181223647
-0.124260723925
-0.124351188384
-0.124454638812
-0.124565803734
-0.124686193994
-0.124819517081
-0.124968993642
-0.12513574161
-0.125323528631
-0.12553746089
-0.125766601363
-0.126019167268
-0.126291231304
-0.126583561279
-0.126897700857
-0.127225553076
-0.12756500518
-0.12790454088
-0.128251025669
-0.128605770931
-0.128974376981
-0.129360124367
-0.129764165688
-0.13018617213
-0.130625280626
-0.131081159632
-0.131553920586
-0.13204329896
-0.13254800884
-0.133065576786
-0.133592648091
-0.134125592246
-0.134660996806
-0.135195703869
-0.135726410283
-0.136249086654
-0.13675851654
-0.137248038803
-0.137709936009
-0.138136699638
-0.13852282997
-0.138865680969
-0.139164580078
-0.139419431404
-0.139633321795
-0.139817144571
-0.139986206814
-0.140150569816
-0.140313594048
-0.140474664487
-0.14064489991
-0.140808085154
-0.140936977637
-0.141045237644
-0.141137508149
-0.141221051337
-0.141291040374
-0.141335205204
-0.141353801928
-0.141353053971
-0.141340751681
-0.141320467906
-0.141297183168
-0.141275309746
-0.141262933953
-0.123622280156
-0.123630752947
-0.123643777808
-0.123654833828
-0.123670404957
-0.123693107479
-0.123715643985
-0.123741529526
-0.123774330359
-0.123816350269
-0.123859054548
-0.12391954059
-0.123988167202
-0.124056052702
-0.124124624765
-0.124203778758
-0.124293982703
-0.124391867319
-0.124497261284
-0.124613841671
-0.124744625047
-0.124891494236
-0.125055341552
-0.125238416946
-0.125453854003
-0.12568704352
-0.125931227123
-0.126206624789
-0.126498763635
-0.126814101559
-0.127140525506
-0.127474357409
-0.127809422834
-0.128148586734
-0.128502757155
-0.12887358124
-0.129261783898
-0.129668333196
-0.130093482066
-0.130536885363
-0.130998260881
-0.131477392264
-0.131973652797
-0.132485595118
-0.133010809639
-0.133546162754
-0.13408835548
-0.134634329579
-0.135181187925
-0.135725712249
-0.136263825822
-0.136790046559
-0.137297375795
-0.137777957806
-0.138224644833
-0.138632041815
-0.138996151198
-0.139312608058
-0.139577948722
-0.139797284086
-0.139987894903
-0.140169843611
-0.140350565207
-0.140528328713
-0.140702491814
-0.140875252275
-0.141034398598
-0.141167797867
-0.141264997914
-0.141355248464
-0.141440899079
-0.141505946957
-0.14153847947
-0.141539596282
-0.141515384884
-0.141473198471
-0.141424938291
-0.141377799273
-0.141339885393
-0.141318704631
-0.123561392063
-0.123569427116
-0.123583116879
-0.123596493849
-0.123616273911
-0.12363492311
-0.123656685027
-0.123682675335
-0.123709595186
-0.123754525904
-0.123802966269
-0.123862135604
-0.123929112312
-0.123995477056
-0.124061563452
-0.124138069773
-0.12422656464
-0.124319979671
-0.124420223153
-0.124532007203
-0.124659610055
-0.124804881487
-0.124969390447
-0.125148223274
-0.125354659914
-0.125595020314
-0.125841395999
-0.126111671547
-0.126401671821
-0.126705841971
-0.127035535934
-0.127367324033
-0.127697214864
-0.128033744655
-0.128388097577
-0.128760789757
-0.129151499406
-0.129560858919
-0.129989349631
-0.13043710256
-0.130904154567
-0.131390139527
-0.131894047339
-0.132414208148
-0.132948244691
-0.133493262993
-0.134046345706
-0.13460485848
-0.13516620363
-0.135727343583
-0.136284165349
-0.136831071554
-0.137360940689
-0.137866203122
-0.138340061279
-0.138776002685
-0.139165154088
-0.13949770014
-0.139772143057
-0.139999494972
-0.140202093444
-0.140402685755
-0.140601345435
-0.140790454
-0.140967550321
-0.141132028191
-0.14128384127
-0.141425924708
-0.141525604187
-0.14162125517
-0.141710933434
-0.141774699162
-0.141796472697
-0.141774242109
-0.141713886952
-0.141625449377
-0.141539528833
-0.141458855387
-0.141396893574
-0.141363148223
-0.123492064573
-0.123498180106
-0.123507959266
-0.123525464898
-0.12355036093
-0.123567832269
-0.123589087538
-0.12361684639
-0.123641391662
-0.123682193474
-0.123734423244
-0.123793343146
-0.12385795806
-0.123923454258
-0.123991472722
-0.124065931171
-0.124150298991
-0.124238924175
-0.124334650445
-0.124441331435
-0.124563237461
-0.124703716007
-0.124871713203
-0.125055656009
-0.125252184083
-0.125487235856
-0.125737138735
-0.125998701514
-0.126293541887
-0.126597784259
-0.126914949378
-0.127238157639
-0.127565205999
-0.127904671181
-0.128260690761
-0.128635192779
-0.129028445335
-0.129440926262
-0.129873134741
-0.130325392482
-0.130798203969
-0.131291444073
-0.131803771515
-0.132333124192
-0.132877138808
-0.133433253923
-0.133999033827
-0.134572298942
-0.135150852284
-0.135731857087
-0.13631133252
-0.136883621078
-0.137441908926
-0.137979336853
-0.138489450518
-0.138960951239
-0.139373985669
-0.139719859771
-0.140011459816
-0.140259613347
-0.14048256633
-0.140708197994
-0.140926505642
-0.141123225685
-0.141294380661
-0.141442533298
-0.141577293885
-0.14170388308
-0.141825076022
-0.14193160642
-0.142046272917
-0.142121659503
-0.142137337158
-0.142081891435
-0.141965035598
-0.141796315078
-0.14166211895
-0.141531870921
-0.141431892595
-0.141378778709
-0.123414308616
-0.123418595067
-0.123422942903
-0.123442468812
-0.123466546972
-0.123487109183
-0.123509470743
-0.123538965212
-0.123565932665
-0.123603921321
-0.12365606447
-0.123713704977
-0.123775318453
-0.123837233437
-0.123907513164
-0.12398386712
-0.124064401715
-0.124148354231
-0.124239925339
-0.124342142107
-0.124457732419
-0.124589889373
-0.124753289369
-0.124948380633
-0.125144854026
-0.125364967656
-0.125619206401
-0.125879230766
-0.126160721183
-0.126464518388
-0.126778103263
-0.127096065766
-0.12741961647
-0.127760500518
-0.128118855176
-0.128495670967
-0.128891628789
-0.129307364795
-0.129743759274
-0.130201105619
-0.130679922974
-0.131180602997
-0.131701928881
-0.132241416285
-0.132796544155
-0.133365189817
-0.133945546856
-0.13453601616
-0.1351348002
-0.135739523137
-0.136346347423
-0.136949770022
-0.137543550529
-0.138122135881
-0.138679268775
-0.139191420284
-0.139620086026
-0.139980145323
-0.140316270904
-0.140611854559
-0.140858281581
-0.141113036896
-0.141354479993
-0.141557112195
-0.141706127674
-0.141810248156
-0.141903757213
-0.14200111085
-0.142114855878
-0.142235851871
-0.142417634436
-0.142545404868
-0.142567160667
-0.142468420152
-0.142271529632
-0.14196029407
-0.141789463228
-0.141584139429
-0.14142307757
-0.141340543336
-0.123328874972
-0.123333666226
-0.123340603705
-0.123353264383
-0.123373029706
-0.123395171776
-0.123418972712
-0.123448282498
-0.123480252277
-0.123516865452
-0.123567950058
-0.123623817301
-0.123682759155
-0.123741166605
-0.123808324362
-0.123886397825
-0.123965839926
-0.124046981738
-0.124134951872
-0.124233115522
-0.124343428365
-0.124467580283
-0.124621875478
-0.124819559598
-0.125023826659
-0.125234488964
-0.125484995476
-0.125747405202
-0.126017332878
-0.126312651281
-0.126617303756
-0.126930384018
-0.127257221265
-0.127600596053
-0.127961365543
-0.128340782601
-0.128740006502
-0.129159403318
-0.129600002793
-0.130062900935
-0.130548488304
-0.131057051371
-0.131587728503
-0.132138000721
-0.132705228883
-0.133287731275
-0.133884537741
-0.134494664672
-0.135116964418
-0.135749743153
-0.136389770225
-0.137031469596
-0.137669090151
-0.138298089832
-0.138915177381
-0.139473128182
-0.139900058343
-0.140285313626
-0.140761905354
-0.141232241392
-0.141463078922
-0.141754353408
-0.142023074573
-0.142223071498
-0.142308096245
-0.142372895864
-0.142496302105
-0.142615531685
-0.142727526052
-0.142830128053
-0.143292402373
-0.143562811666
-0.143581996508
-0.143363145074
-0.143005879474
-0.142096598804
-0.141927785384
-0.141590001084
-0.141330035842
-0.141208396876
-0.123233919982
-0.123239245121
-0.123250988927
-0.123257133175
-0.123272282489
-0.123294057049
-0.123318626487
-0.123348699634
-0.123386660322
-0.123420955987
-0.123470041569
-0.123524056172
-0.123580853999
-0.123637424974
-0.123701338791
-0.123777709905
-0.123855521247
-0.123934540417
-0.124019335848
-0.124113357081
-0.124218929913
-0.12433719343
-0.12447988358
-0.124669638353
-0.124885443474
-0.125094719919
-0.125329645349
-0.125598894371
-0.125870757487
-0.126146462519
-0.126440267806
-0.126750093694
-0.127077749239
-0.127423293496
-0.127786779107
-0.12816923838
-0.128571833842
-0.128995568358
-0.129441112225
-0.129909715322
-0.130402579841
-0.130919833529
-0.131460419675
-0.132021866629
-0.132601728607
-0.133199087319
-0.1338138636
-0.134445871177
-0.135094675542
-0.135760236503
-0.136440947581
-0.137130832908
-0.137821689572
-0.138504869572
-0.139198333527
-0.139830317196
-0.140248362007
-0.140596383735
-0.141113056797
-0.140970561442
-0.140706825709
-0.140504296909
-0.140271927265
-0.140035507193
-0.139807273623
-0.13956362088
-0.139280632236
-0.139069198695
-0.139030619362
-0.139129596339
-0.139224811456
-0.139577293648
-0.139996752048
-0.140225653101
-0.140328162581
-0.141104786285
-0.14235967959
-0.141758524066
-0.141100509406
-0.140928116373
-0.123127603119
-0.123132287365
-0.123142284849
-0.123148727484
-0.123161558482
-0.123183047496
-0.123207151046
-0.123235508001
-0.123278181884
-0.123314447748
-0.123361559457
-0.123414074858
-0.123469515917
-0.123525547446
-0.123587035983
-0.123659965459
-0.12373497575
-0.123811667183
-0.123893259022
-0.12398300175
-0.124083394524
-0.12419638687
-0.124329763072
-0.124507321187
-0.12472570633
-0.124942431862
-0.125162111899
-0.125417640869
-0.125692735269
-0.125966443785
-0.126250313819
-0.126554657023
-0.126881268212
-0.127228216735
-0.12759424409
-0.127979636141
-0.128385951168
-0.128814184038
-0.12926541936
-0.129740551746
-0.130241123944
-0.130767773174
-0.131319155511
-0.131892174338
-0.132484502759
-0.133096711793
-0.133730470891
-0.134385839759
-0.13506262276
-0.13576457765
-0.136496810991
-0.137250973124
-0.138007944522
-0.138720986259
-0.13951706928
-0.140423638185
-0.140178382641
-0.139940257311
-0.139934912445
-0.139791006387
-0.139291879425
-0.138553833181
-0.137619229814
-0.136564882834
-0.135464842381
-0.134384368017
-0.133377591519
-0.132563330732
-0.132077964956
-0.131981385017
-0.132203745448
-0.132800149372
-0.133685854875
-0.134686488668
-0.135767182228
-0.137028409727
-0.138157774306
-0.138913307154
-0.140218030554
-0.140368030504
-0.123011511594
-0.123015462351
-0.123025029829
-0.123030660628
-0.123042768548
-0.123063188868
-0.123086260897
-0.123110928515
-0.123151713513
-0.123193310234
-0.12324084189
-0.123292563126
-0.123347468072
-0.123404885934
-0.123463709222
-0.123532834489
-0.12360452737
-0.123678706533
-0.123756838544
-0.123842119244
-0.123936939696
-0.124043731952
-0.124168774729
-0.124332723766
-0.124542861165
-0.124771377953
-0.124987579609
-0.125224816507
-0.125486801837
-0.125756681198
-0.126036309693
-0.126339246871
-0.12666523922
-0.127013122223
-0.127381775408
-0.12777069851
-0.128180819823
-0.128614013521
-0.129071358208
-0.12955393203
-0.130063091008
-0.130599690979
-0.131162703265
-0.131748161699
-0.132352667538
-0.13297890825
-0.133631126388
-0.134308449989
-0.13500971459
-0.13574861072
-0.136548321907
-0.137397484984
-0.138238093448
-0.138827488177
-0.139719321913
-0.139644677142
-0.13936222545
-0.138967021092
-0.138492778149
-0.137954151755
-0.137108842651
-0.135962738529
-0.13455782453
-0.132988023097
-0.131342935942
-0.129711605104
-0.128175464639
-0.12683633689
-0.125810062253
-0.125200173476
-0.125048775269
-0.125341967846
-0.126039966677
-0.127087646938
-0.128501107328
-0.130448074217
-0.132890885529
-0.135269125485
-0.137467492642
-0.13995803354
-0.122887228679
-0.122890056983
-0.122896378233
-0.122902632813
-0.122916488814
-0.122935688714
-0.122958321616
-0.122980439032
-0.123017928164
-0.12306092789
-0.123108120351
-0.123158483024
-0.123211795323
-0.12327151071
-0.123329090667
-0.123394410178
-0.123462765744
-0.123534885111
-0.123609538854
-0.12369023958
-0.123779209578
-0.123879006171
-0.123995525577
-0.124146280065
-0.124343588102
-0.124574103448
-0.124798829572
-0.125024349679
-0.125269089966
-0.125527144944
-0.125801428151
-0.126101778093
-0.126426352372
-0.126774690876
-0.127146116123
-0.127539161024
-0.12795431236
-0.128393019632
-0.128857418948
-0.129348231428
-0.129866875
-0.130414879332
-0.130991066378
-0.131590284867
-0.132205106074
-0.132839336482
-0.133505825124
-0.134203359268
-0.134919476684
-0.135682625822
-0.1365733852
-0.13759794089
-0.13878662838
-0.138792386695
-0.13857167908
-0.138324230957
-0.138042373439
-0.137447618101
-0.136590714265
-0.135526611678
-0.13420523905
-0.132668075075
-0.130948400649
-0.129118461584
-0.127246792523
-0.125400269637
-0.12363879065
-0.122024632407
-0.120627671941
-0.119542371278
-0.118878292742
-0.118653743684
-0.11886839416
-0.119530441605
-0.120758697911
-0.122833738604
-0.125721484894
-0.128664760497
-0.132509090953
-0.142885393169
-0.122756765051
-0.122758576659
-0.122761116427
-0.122768441141
-0.122783464812
-0.122801103522
-0.122822724812
-0.122844616108
-0.122877267604
-0.122918939875
-0.122964304137
-0.123012233748
-0.123062103977
-0.123120030898
-0.123179571335
-0.123242391199
-0.123307431547
-0.123377272574
-0.123449497482
-0.123526140794
-0.123609438773
-0.123701433595
-0.123809099528
-0.123946730418
-0.124127227537
-0.124346382007
-0.124577873794
-0.12480145496
-0.125034170864
-0.12528156359
-0.125546288418
-0.125841045989
-0.126163838309
-0.126510487265
-0.126884502259
-0.127282197097
-0.127702409456
-0.128147901956
-0.128620760063
-0.129121948939
-0.129651839767
-0.130212054615
-0.13080213213
-0.131417474178
-0.132049981106
-0.132698807051
-0.133369773967
-0.134052324983
-0.134742031357
-0.135478989679
-0.136457614453
-0.137745070721
-0.138346524642
-0.137796037462
-0.13706475436
-0.13680018826
-0.136191826561
-0.135218576579
-0.133935459145
-0.13238897078
-0.130608723754
-0.128655340085
-0.126557304936
-0.124354703705
-0.122085609008
-0.119794291189
-0.117530445271
-0.115351750466
-0.113326048371
-0.111550078545
-0.110148303639
-0.109176434099
-0.108603037846
-0.108433000676
-0.108828350034
-0.110213588957
-0.112715307442
-0.115057158234
-0.116250033645
-0.120527732355
-0.122621008065
-0.122622305796
-0.12262324676
-0.122631803991
-0.122645455831
-0.122660275458
-0.122678425151
-0.122700814307
-0.122728304227
-0.122767178554
-0.122809926237
-0.122854947638
-0.122901385131
-0.122954342692
-0.123014590893
-0.123076149835
-0.123138283024
-0.123204626844
-0.123274283066
-0.123347740915
-0.123426319282
-0.123510262006
-0.123608449602
-0.123733261145
-0.123896319236
-0.124098479949
-0.124323230351
-0.124546886792
-0.124769579062
-0.125006916986
-0.125266511947
-0.125551946265
-0.125869693747
-0.126215787572
-0.126592947554
-0.126995867811
-0.127421971751
-0.127875104038
-0.128357598553
-0.128870838589
-0.129414969938
-0.129990829457
-0.130600558365
-0.131242239164
-0.131903849054
-0.132567843145
-0.133229611368
-0.133877874162
-0.134491952237
-0.135046519937
-0.136064570489
-0.137352518743
-0.136357681928
-0.135546078145
-0.135295410338
-0.134755513421
-0.13369440091
-0.13225460857
-0.130498363815
-0.128479449921
-0.12623386065
-0.123804363908
-0.121208742059
-0.11846907517
-0.115611040177
-0.112672519833
-0.109702068287
-0.106755486702
-0.103891227258
-0.101180088263
-0.0987137269044
-0.0965503602153
-0.094570104104
-0.0926479232567
-0.0908629173964
-0.0897379767544
-0.0894279716484
-0.0863482815849
-0.0723048819281
-0.0545531413304
-0.122478918754
-0.122479947569
-0.122480546135
-0.122490540031
-0.12250223025
-0.12251372435
-0.122527294784
-0.122548841791
-0.122570014948
-0.122605194729
-0.122645070434
-0.122686919593
-0.122730185971
-0.122779053479
-0.122836601925
-0.122896309906
-0.122955806442
-0.123018191464
-0.123083514061
-0.123153326206
-0.123227841581
-0.123304069251
-0.123391686854
-0.123503747241
-0.123649723736
-0.123832734867
-0.124044931997
-0.124264428416
-0.124486935372
-0.124711544845
-0.124961966269
-0.125240023512
-0.125549045588
-0.125886561931
-0.126262165505
-0.126673350066
-0.127108314463
-0.127571309255
-0.12806448567
-0.128590933604
-0.129152533977
-0.129750171899
-0.130389639055
-0.131068985666
-0.13176137793
-0.132443967569
-0.133109899403
-0.133745321124
-0.134234805813
-0.134072346325
-0.135643710017
-0.134507711572
-0.133433236927
-0.133352910525
-0.133012567373
-0.132039244561
-0.130507901866
-0.12857272314
-0.126312931807
-0.123788173994
-0.121030605142
-0.118067289657
-0.114911365137
-0.111581822424
-0.108104021719
-0.10451302846
-0.100849073743
-0.0971509782566
-0.0934478048775
-0.0897602399084
-0.0861121646093
-0.0825022887098
-0.0787245994456
-0.0744267811683
-0.0695113559962
-0.0643858491316
-0.0586195565306
-0.0455736062139
-0.00954213835441
0.0437301554184
-0.12232752763
-0.122328251506
-0.122329559737
-0.122341107018
-0.12235097245
-0.122359362449
-0.12236963606
-0.122388086475
-0.122402529056
-0.122433070398
-0.12246957503
-0.12250781659
-0.12254750479
-0.122591987433
-0.12264525017
-0.122702119286
-0.122759506744
-0.122817417544
-0.122876984309
-0.122941769415
-0.123011773619
-0.123080933909
-0.123156555629
-0.12325551117
-0.123385057687
-0.123547590416
-0.123742114494
-0.123947939565
-0.124168891414
-0.124391457509
-0.124629374312
-0.124892970971
-0.125194787897
-0.125531167777
-0.125897848649
-0.126308652443
-0.126753559133
-0.127228485561
-0.127736581398
-0.128279025685
-0.128860013641
-0.129487889852
-0.130170968589
-0.13089475499
-0.131620894902
-0.132340465824
-0.133071947115
-0.133864357841
-0.134785187884
-0.133750601633
-0.132502647863
-0.13150327748
-0.131209460291
-0.131075073316
-0.130233770744
-0.128736225423
-0.126685316224
-0.1242255224
-0.121440377407
-0.118390352102
-0.115109665958
-0.111624835023
-0.107954679144
-0.104122267923
-0.100153175874
-0.0960737893807
-0.0919046623713
-0.0876531942587
-0.0833049164324
-0.0788155417802
-0.0741040123851
-0.0690379341356
-0.0633847348295
-0.0566500586833
-0.048582543305
-0.0393442776489
-0.0273122342023
-0.00319966290352
0.0496510551622
0.117353613848
-0.122162818957
-0.12216322335
-0.122165178824
-0.12217798739
-0.122185610851
-0.122192539122
-0.122200310589
-0.122214004544
-0.122223485709
-0.122250191837
-0.122283030399
-0.122317133228
-0.122352663708
-0.122391986897
-0.122439509031
-0.122491661563
-0.122547169
-0.122600196937
-0.122653460099
-0.122711882013
-0.122775298655
-0.122838734536
-0.122902060708
-0.122986174546
-0.123099859777
-0.123242149244
-0.123416019152
-0.123602936285
-0.123809004385
-0.124032186058
-0.124267625912
-0.124518377238
-0.124799017809
-0.125126826184
-0.125495660154
-0.12590408053
-0.126354382332
-0.126840472409
-0.12736408876
-0.127927117266
-0.128535280662
-0.129204102721
-0.129938608242
-0.130707380522
-0.131480936734
-0.132276193658
-0.133096695718
-0.1342469926
-0.133431805581
-0.132189194288
-0.13063580914
-0.129730315253
-0.129301639526
-0.128542131564
-0.127049932205
-0.124942096481
-0.122318375123
-0.119314401383
-0.116010332569
-0.112467240939
-0.108724831738
-0.104814908784
-0.100761322381
-0.0965847496177
-0.0922987139481
-0.0879054929453
-0.0833896673502
-0.0787129908716
-0.0738098013743
-0.0685765881018