/*--------------------------------*- C++ -*----------------------------------*\
| =========                 |                                                 |
| \\      /  F ield         | OpenFOAM: The Open Source CFD Toolbox           |
|  \\    /   O peration     | Version:  v1806                                 |
|   \\  /    A nd           | Web:      www.OpenFOAM.com                      |
|    \\/     M anipulation  |                                                 |
\*---------------------------------------------------------------------------*/
FoamFile
{
    version     2.0;
    format      ascii;
    class       volVectorField;
    location    "424";
    object      U;
}
// * * * * * * * * * * * * * * * * * * * * * * * * * * * * * * * * * * * * * //

dimensions      [0 1 -1 0 0 0 0];


internalField   nonuniform List<vector> 
6400
(
(-8.80773728722e-05 -0.000117811899301 0)
(-0.000239207221355 -8.98629357222e-05 0)
(-0.000349768295069 -7.27804281784e-05 0)
(-0.000473420860064 -6.42414315703e-05 0)
(-0.000561921623561 -3.90293230299e-05 0)
(-0.000624348637792 -1.90734694857e-05 0)
(-0.000653040181805 -1.17689444689e-05 0)
(-0.000674211213181 -2.2197117488e-05 0)
(-0.00075294880893 -3.4183664652e-05 0)
(-0.000832825531411 -3.19030974193e-05 0)
(-0.000859361347331 -2.83237322945e-05 0)
(-0.000932588198557 -3.12923897088e-05 0)
(-0.000996717451384 -2.79269560396e-05 0)
(-0.00104739101464 -2.15515734727e-05 0)
(-0.00108181887851 -1.84696933833e-05 0)
(-0.00111852043719 -2.15280876789e-05 0)
(-0.00116718901313 -2.22782711733e-05 0)
(-0.00120695734622 -1.84533208684e-05 0)
(-0.00123226921269 -1.26905877673e-05 0)
(-0.00125323179481 -9.37944954685e-06 0)
(-0.00128327699666 -1.48133054828e-05 0)
(-0.0013246973806 -2.13971113906e-05 0)
(-0.00137111597902 -2.31282318005e-05 0)
(-0.0014128865012 -2.27353163931e-05 0)
(-0.00145211922504 -2.05181376591e-05 0)
(-0.00148880452621 -1.74607623947e-05 0)
(-0.0015251904022 -1.62046591114e-05 0)
(-0.00155776236156 -1.43223196284e-05 0)
(-0.00158346944431 -1.14994018916e-05 0)
(-0.00160321335906 -9.2309496147e-06 0)
(-0.00161721827686 -8.80276496074e-06 0)
(-0.00163254901394 -7.67230162571e-06 0)
(-0.00164759792638 -5.15387501994e-06 0)
(-0.00165732153223 -4.80781222549e-06 0)
(-0.00166485449564 -4.18363716404e-06 0)
(-0.00167860479676 -3.52780717047e-06 0)
(-0.00168923271388 -4.20054248575e-06 0)
(-0.00168350394638 -3.2496185992e-06 0)
(-0.00169071326594 -1.10820248848e-06 0)
(-0.00170523952521 -8.09217221518e-07 0)
(-0.00171259482936 -5.62331241696e-06 0)
(-0.00171080621156 -6.14555966362e-06 0)
(-0.00170638202397 2.3203007111e-06 0)
(-0.00169733919401 8.12420298308e-06 0)
(-0.00168096583636 1.06717406323e-05 0)
(-0.00165979410016 1.34928439035e-05 0)
(-0.00163308810955 1.62631699267e-05 0)
(-0.00159943522179 1.97596150614e-05 0)
(-0.00155911534074 2.29229477376e-05 0)
(-0.00151252372476 2.26058087674e-05 0)
(-0.00146442757485 1.91438325079e-05 0)
(-0.00142618658675 2.24363527772e-05 0)
(-0.0013667661782 3.88678394263e-05 0)
(-0.0012938100631 4.77144421344e-05 0)
(-0.00119800754804 5.44899955337e-05 0)
(-0.0010656955223 6.53737515731e-05 0)
(-0.000928492320905 6.43787222208e-05 0)
(-0.000806967471728 6.24538697917e-05 0)
(-0.000682646190444 7.17396846646e-05 0)
(-0.000511781734416 7.69499187683e-05 0)
(-0.000344593123542 7.96379013638e-05 0)
(-0.000168497565994 9.60078211963e-05 0)
(6.12884742902e-05 0.000122872722503 0)
(0.000290179473035 8.181484973e-05 0)
(0.00038167803504 4.28364610964e-05 0)
(0.000434042840191 2.68664575941e-05 0)
(0.000471616664606 1.55896645411e-05 0)
(0.000503361541815 8.56149886586e-06 0)
(0.000527201133325 2.99130272521e-06 0)
(0.000529773781973 -3.58064615729e-06 0)
(0.000519369558332 -9.96182447109e-06 0)
(0.000486791721985 -1.58234264085e-05 0)
(0.000441006644888 -2.23913546285e-05 0)
(0.000409132808726 -3.12151263779e-05 0)
(0.000321060015192 -2.87728270475e-05 0)
(0.000289593318998 -2.81311811598e-05 0)
(0.000197055443558 -1.8518132395e-05 0)
(0.000207186106405 -2.81502040113e-05 0)
(9.07298693771e-05 -2.12438980837e-05 0)
(6.78378328645e-05 -4.04842054353e-05 0)
(-3.26842024953e-05 -0.000163435217717 0)
(-0.000139735960984 -0.000184073850821 0)
(-0.000244283192197 -0.000167831050994 0)
(-0.000310650173479 -0.000134006931761 0)
(-0.000454106821866 -0.000131647383794 0)
(-0.000589142740024 -9.26633693255e-05 0)
(-0.000667549145096 -5.64723809377e-05 0)
(-0.00071923279676 -7.45599747321e-05 0)
(-0.000773926386744 -9.86522416636e-05 0)
(-0.000835755058815 -9.59706935098e-05 0)
(-0.000894376986933 -8.93903953451e-05 0)
(-0.000947677818674 -8.77999581804e-05 0)
(-0.000996898774498 -7.75182152771e-05 0)
(-0.0010407934754 -6.385114531e-05 0)
(-0.00108428386906 -5.74059181098e-05 0)
(-0.00112610545122 -6.9528994549e-05 0)
(-0.00116871714148 -7.30253497507e-05 0)
(-0.00120096547904 -4.72140106306e-05 0)
(-0.00118992142228 -2.86419219038e-05 0)
(-0.00121917061222 -2.87515215993e-05 0)
(-0.00126213936196 -4.72186767489e-05 0)
(-0.00131295121275 -7.0967470093e-05 0)
(-0.00137242268641 -7.58485385383e-05 0)
(-0.00142081564458 -6.62165086023e-05 0)
(-0.0014447770217 -5.87360140529e-05 0)
(-0.00148962106445 -5.50903119072e-05 0)
(-0.00152948263576 -4.95262419827e-05 0)
(-0.0015586589961 -4.1860051229e-05 0)
(-0.00158260678119 -3.4240487033e-05 0)
(-0.00160327894147 -2.80325605126e-05 0)
(-0.00162012153831 -2.49994638353e-05 0)
(-0.00162595024891 -2.09560268652e-05 0)
(-0.00164044331935 -1.31615017299e-05 0)
(-0.00164794080997 -1.34868207949e-05 0)
(-0.00165089177908 -1.55627037742e-05 0)
(-0.00167612948449 -1.03377106149e-05 0)
(-0.00167958891392 -1.12701938933e-05 0)
(-0.00167504500807 -1.34097467631e-05 0)
(-0.00169007833622 -9.59944635915e-06 0)
(-0.00171811438682 -3.80636538902e-06 0)
(-0.00172813006707 4.93935858489e-06 0)
(-0.00165327452613 1.26077310158e-05 0)
(-0.0016164354144 1.68516269034e-05 0)
(-0.00161392163065 2.01330222711e-05 0)
(-0.00160240222629 2.40534031549e-05 0)
(-0.00159357039533 2.97360155614e-05 0)
(-0.00158333613947 3.77161255235e-05 0)
(-0.00156168401319 4.73093718931e-05 0)
(-0.00154064949357 5.80019887939e-05 0)
(-0.00150830456416 6.78957935927e-05 0)
(-0.00145305219666 7.46922301686e-05 0)
(-0.00136511245013 8.0956407982e-05 0)
(-0.00128142658733 9.19426724599e-05 0)
(-0.00129388246293 0.000121352565257 0)
(-0.00118603142673 0.000153769682065 0)
(-0.00107740329331 0.000177051298486 0)
(-0.000994156063469 0.000190950105865 0)
(-0.000869017482573 0.000203066195318 0)
(-0.000721399077076 0.000228451435224 0)
(-0.000560581118005 0.000260178039657 0)
(-0.000380040763367 0.000293046887778 0)
(-0.000146140181229 0.000284320349196 0)
(7.87490171245e-05 0.000355450625013 0)
(0.000289732805339 0.0002526216279 0)
(0.00038556504547 0.00013488759665 0)
(0.000417090614198 6.90692789486e-05 0)
(0.000443863595477 4.49371707481e-05 0)
(0.000496767334462 3.33655639855e-05 0)
(0.00052271506223 1.39194188416e-05 0)
(0.000534086657771 -1.05052419743e-05 0)
(0.000516376693453 -3.5058353202e-05 0)
(0.000478249137426 -5.44713096315e-05 0)
(0.00042094541826 -6.24200144956e-05 0)
(0.000399109515316 -7.4535946762e-05 0)
(0.000356045342449 -7.99356486813e-05 0)
(0.000312275772797 -8.10828434828e-05 0)
(0.000261954177685 -7.47908254768e-05 0)
(0.000211364457104 -8.49458136161e-05 0)
(0.000132530823036 -9.60817597696e-05 0)
(6.16475946808e-05 -0.000160323144707 0)
(-4.95526156996e-05 -0.000282371627327 0)
(-0.000136158320149 -0.000308763535912 0)
(-0.000209581492058 -0.000287674954724 -9.76129760662e-29)
(-0.00036043961221 -0.000293601087434 9.24216147901e-29)
(-0.000502412996232 -0.000291204623363 8.31359908226e-29)
(-0.000587739920535 -0.000233287554715 -7.63136422488e-29)
(-0.000646336424154 -0.000120978797409 7.72548326639e-29)
(-0.000700473574767 -0.000129494352157 -7.60213588999e-29)
(-0.000758290940573 -0.000159173170063 0)
(-0.000824517188243 -0.000162142811799 0)
(-0.0008893887092 -0.000151470914889 0)
(-0.000945454264774 -0.000138071324217 0)
(-0.000994797105785 -0.00012144010866 0)
(-0.00103730391694 -0.000109053585308 0)
(-0.00108014421678 -0.000100559175006 0)
(-0.00112092922553 -8.48647917798e-05 0)
(-0.00101608031819 -5.72500579039e-05 0)
(-0.000984190077587 -4.08842125069e-05 0)
(-0.00101688282043 -5.08179227463e-05 0)
(-0.00108980299495 -8.75964796284e-05 0)
(-0.00124948164226 -0.000127008343423 0)
(-0.00133404971601 -0.000136454536356 0)
(-0.00135879585868 -0.000124803020982 0)
(-0.00140794789907 -0.000110556322122 0)
(-0.00145814324332 -0.000100572906913 0)
(-0.00149437517822 -9.26993279152e-05 0)
(-0.00152607725445 -8.08627566433e-05 0)
(-0.00155566271386 -6.80627707712e-05 0)
(-0.00158030998201 -5.64345792023e-05 0)
(-0.00159868084104 -4.70745810374e-05 -1.54326322421e-28)
(-0.00161909489717 -3.85097977336e-05 1.49726495117e-28)
(-0.00161730690269 -3.10456164118e-05 0)
(-0.00162713317951 -2.20544347408e-05 0)
(-0.00165480867374 -1.43340055935e-05 0)
(-0.00162089902166 -2.22044056517e-05 0)
(-0.0016463795638 -2.55703722808e-05 0)
(-0.00168683437637 -1.81604110741e-05 0)
(-0.00165627503079 -2.16030204904e-05 0)
(-0.00167880809114 -2.77484761257e-05 0)
(-0.00171535202747 -1.61732955219e-05 0)
(-0.00172929194211 1.42699236488e-05 0)
(-0.00172289284319 3.54211875665e-05 0)
(-0.00171294906958 3.52064344988e-05 0)
(-0.00170162832213 3.42897390732e-05 0)
(-0.00168518037006 3.92260821573e-05 0)
(-0.00166388030452 4.74892164932e-05 0)
(-0.00163813083743 5.97567282032e-05 0)
(-0.00160775751976 7.43087471942e-05 0)
(-0.00157269777798 9.12656087263e-05 0)
(-0.00153238878534 0.000112311529061 0)
(-0.00148621700647 0.000134821452058 0)
(-0.00143256475479 0.000151785704198 0)
(-0.00136815341716 0.000162131276133 0)
(-0.00128007326323 0.000194580302592 0)
(-0.00117432450227 0.00023863718982 0)
(-0.00109302468622 0.000273889654648 0)
(-0.000986955434984 0.000306203009237 0)
(-0.000850936763235 0.000344121879615 0)
(-0.000693446228786 0.000388523910977 0)
(-0.00051734731269 0.000438697528412 0)
(-0.000323452261608 0.000489875539365 0)
(-0.000117668636467 0.000544475154922 0)
(9.92327248706e-05 0.00057592977174 0)
(0.000253917123044 0.00038093514381 0)
(0.000333272088314 0.000199415847495 0)
(0.000408501629837 0.00012316154939 0)
(0.000468341459137 8.69875810392e-05 0)
(0.000497168535454 5.69614776888e-05 0)
(0.000511883778334 1.94922135589e-05 0)
(0.00050986756432 -2.23706540701e-05 0)
(0.0004875234406 -5.80637222772e-05 0)
(0.000459204958731 -8.0250334204e-05 0)
(0.000444873704715 -9.39423391762e-05 0)
(0.000420760045537 -0.000113354618632 0)
(0.000371285174651 -0.000130808165824 0)
(0.000314206747458 -0.00013452725806 0)
(0.000256284366319 -0.000132311453287 0)
(0.0002020684911 -0.000157683634822 0)
(0.000141328123303 -0.000219657390806 0)
(3.72804628141e-05 -0.000225186948303 0)
(-5.01512717952e-05 -0.000423996531641 0)
(-6.35032754892e-05 -0.000284073156346 0)
(-0.000172666809569 -0.000436679974534 0)
(-0.000316125443549 -0.000438810240255 0)
(-0.000433525742538 -0.000370327274563 0)
(-0.000246177565476 -0.000140512623311 0)
(-0.000308398299031 -0.000140607725725 0)
(-0.000580036787664 -0.000255973800228 0)
(-0.000713833328004 -0.000268145276118 0)
(-0.000798583084969 -0.000242024382525 0)
(-0.000876880702682 -0.00022052085023 0)
(-0.000940929898339 -0.000195645850573 0)
(-0.000993435150225 -0.000169350350397 0)
(-0.00102650819766 -0.000130264359584 0)
(-0.000966986377716 -7.870370424e-05 0)
(-0.000914364303913 -4.49751227311e-05 0)
(-0.000914456092396 -4.18133731397e-05 0)
(-0.000973785625488 -7.98729651408e-05 0)
(-0.00110898252825 -0.000142633004598 0)
(-0.00124106246175 -0.000202453956185 0)
(-0.00128118534998 -0.000210948873715 0)
(-0.00132457235052 -0.000190613153075 0)
(-0.00137479200727 -0.000172005968142 0)
(-0.00141805299031 -0.000157414492671 0)
(-0.00145596525885 -0.000141741461 0)
(-0.00148975225152 -0.000125737535262 0)
(-0.00151965121551 -0.000110307641078 0)
(-0.00155298815495 -9.44119576926e-05 0)
(-0.00157290531152 -7.87078338302e-05 0)
(-0.00160044522863 -6.48192160746e-05 0)
(-0.0016023922473 -5.20654681071e-05 0)
(-0.00162640833158 -3.83013395198e-05 0)
(-0.00160514460932 -2.33420467789e-05 0)
(-0.0016187212513 -2.08575515179e-05 0)
(-0.00166100545792 -2.90525239884e-05 0)
(-0.00163471412301 -3.99959786775e-05 0)
(-0.00167290571087 -4.07064613142e-05 0)
(-0.00171348347242 -4.00020591262e-05 0)
(-0.00172236691461 -4.15451796505e-05 0)
(-0.00172548319685 -2.43878771422e-05 0)
(-0.00172752140013 7.39859097805e-06 0)
(-0.00172451432895 3.25315548118e-05 0)
(-0.00171721597074 4.31766627452e-05 0)
(-0.00170597983299 4.96569926262e-05 0)
(-0.00168965407332 5.89434626383e-05 0)
(-0.00166859772376 7.17744412776e-05 1.41755889415e-28)
(-0.00164315652674 8.80413845015e-05 -1.42820539389e-28)
(-0.00161321988178 0.000107176586731 0)
(-0.00157853771877 0.000129335637203 0)
(-0.00153849247495 0.000154693398455 0)
(-0.00149187953466 0.000181631446774 0)
(-0.00143620004893 0.000208870903765 0)
(-0.00136849682202 0.000241322565397 0)
(-0.00128677820368 0.000286142453217 0)
(-0.00119455739429 0.000332835642868 0)
(-0.00109257029363 0.00037992912181 0)
(-0.000971560066694 0.000436546552296 0)
(-0.000824807585106 0.000500276726775 2.79883272654e-28)
(-0.000652712629298 0.000569004455638 -3.24615223389e-28)
(-0.000458986514829 0.000639211958747 0)
(-0.000252334551813 0.00069862926563 0)
(-5.13813992728e-05 0.000728315150447 0)
(0.000105584680891 0.000684270573704 0)
(0.000240102753285 0.000513737221019 0)
(0.000370231667437 0.000316956282731 0)
(0.00042350004692 0.00018508802221 0)
(0.000464757399613 0.000120111372162 0)
(0.00049685714153 7.3097206968e-05 0)
(0.000512153409441 2.17234697958e-05 0)
(0.000520431223525 -3.35337121144e-05 0)
(0.000511241786637 -7.7937874545e-05 0)
(0.00049179173003 -0.000105403034371 0)
(0.000455398090114 -0.000131799738452 0)
(0.000385640246637 -0.000156745197152 0)
(0.000331849606701 -0.00017899466736 0)
(0.000281067607626 -0.00019685563112 0)
(0.000216515876792 -0.000200659339348 0)
(0.000131420394873 -0.000184675540999 0)
(9.68003672827e-05 -0.000252613865576 0)
(3.28999059217e-05 -0.000300175903506 0)
(-5.05077578579e-06 -0.000422783788695 0)
(-3.20342472238e-05 -0.000346505636044 0)
(-0.000157501817746 -0.000575373944895 0)
(-0.000270102420167 -0.000529924311642 0)
(-0.00028731536036 -0.000342200467462 0)
(-0.000226689120503 -0.000187778397898 0)
(-0.000386556690483 -0.000308541503708 0)
(-0.000591545306348 -0.000432198108557 0)
(-0.000670779668642 -0.000383484038995 0)
(-0.000766661273221 -0.000332913806876 0)
(-0.000851507134465 -0.000303631343431 0)
(-0.000921896224129 -0.000261336728255 0)
(-0.000927229785892 -0.00017634601348 0)
(-0.000848158074553 -9.09232106443e-05 0)
(-0.00086474067625 -5.91157326965e-05 0)
(-0.000917424457908 -6.99913355375e-05 0)
(-0.00101082588221 -0.000118373533793 0)
(-0.00112871574716 -0.000191928319489 0)
(-0.00121142984001 -0.000244776449114 0)
(-0.00123123024888 -0.000251136762342 0)
(-0.00127457353857 -0.000248692207453 0)
(-0.00132975829162 -0.000240118682945 0)
(-0.00137412180306 -0.000220563376743 0)
(-0.00141535547834 -0.000198283002335 0)
(-0.00145170941663 -0.000177305855739 0)
(-0.00148284105691 -0.000158947614028 0)
(-0.00151945857338 -0.000140021184665 0)
(-0.0015381721992 -0.000120209742681 0)
(-0.00157607333538 -0.000100731492148 0)
(-0.00157564426052 -8.0672582384e-05 0)
(-0.00161370087549 -6.27751907866e-05 -1.47545433937e-28)
(-0.00157375095945 -4.47291256597e-05 1.38395517507e-28)
(-0.00161806546885 -3.55067960896e-05 0)
(-0.0016532439914 -3.24382522328e-05 0)
(-0.0016358257625 -4.30835817305e-05 0)
(-0.00168581116166 -6.17277629393e-05 0)
(-0.00170799072345 -7.07604040396e-05 0)
(-0.00172210635218 -6.13842161494e-05 0)
(-0.00172873456384 -4.50288338658e-05 0)
(-0.00173091455629 -2.21713286727e-05 0)
(-0.0017319012569 7.22681820141e-06 0)
(-0.00172983877245 3.34353989733e-05 0)
(-0.00172342221579 5.07411963618e-05 0)
(-0.00171231494922 6.38773842891e-05 0)
(-0.00169621059946 7.81426148089e-05 0)
(-0.00167551805419 9.5322983492e-05 0)
(-0.00165050507869 0.000115752642244 0)
(-0.00162105994775 0.000139391447188 0)
(-0.00158678096942 0.000166557983688 0)
(-0.00154687050373 0.000197597621246 0)
(-0.00149990745901 0.000232301876216 0)
(-0.00144354756495 0.00027114995148 0)
(-0.00137528839329 0.000316850098954 0)
(-0.00129362904735 0.000371109752029 0)
(-0.00119881055393 0.000431108092026 0)
(-0.00108840461407 0.000499794560502 0)
(-0.00095514931148 0.000581258601324 0)
(-0.000793645250598 0.00067231169665 0)
(-0.000604548806528 0.000765697010765 0)
(-0.000395935095781 0.000848813691324 0)
(-0.000184969189081 0.000900657411131 0)
(3.45037707078e-06 0.000896675445597 0)
(0.000133752535034 0.00080236572296 0)
(0.000273646937711 0.000656896794077 0)
(0.00041834046974 0.000442373371113 0)
(0.000473364471843 0.000248805267697 0)
(0.000504675219522 0.000149418688437 0)
(0.000519610724976 8.54819370543e-05 0)
(0.000524238789359 2.42081581639e-05 0)
(0.000528796565981 -3.81909101944e-05 0)
(0.000528026411646 -9.53353067159e-05 0)
(0.000494498977752 -0.000145559394886 0)
(0.000415845659451 -0.000181969910533 0)
(0.000359877923138 -0.000212692680944 0)
(0.000309553902861 -0.000240894120761 0)
(0.00025411412597 -0.000264301793393 0)
(0.000184071059465 -0.000252518770476 0)
(0.000123585895952 -0.000244442191123 0)
(8.35253202934e-05 -0.00032491330797 0)
(2.32883934845e-05 -0.000347192995043 0)
(1.00490114288e-06 -0.000394342624626 0)
(-4.00138889192e-05 -0.000422286311833 0)
(-0.000159633726035 -0.000657146850088 0)
(-0.000223092530399 -0.000542939821956 0)
(-0.000168078426783 -0.000266544546509 0)
(-0.000229726240099 -0.000271946672246 0)
(-0.000486573362406 -0.000506450317981 0)
(-0.000570110435571 -0.00052571808233 0)
(-0.000641679229428 -0.000472755910135 0)
(-0.00072802884285 -0.000425025959709 0)
(-0.000811792703393 -0.000363061698336 0)
(-0.000755986197755 -0.000241524493737 0)
(-0.000690810565637 -0.000130045497524 0)
(-0.00074534947045 -0.000101737527339 0)
(-0.000813837444305 -0.000118188854812 0)
(-0.000942470603192 -0.000173331425471 0)
(-0.00107602547657 -0.000238225350226 0)
(-0.00116200055249 -0.00027251061985 0)
(-0.00116741978465 -0.000271059178276 0)
(-0.00121987145157 -0.000287878403721 0)
(-0.00128310722846 -0.000301016615702 0)
(-0.00132752036618 -0.000288177542008 0)
(-0.00136904910582 -0.000264320851081 0)
(-0.00140707428927 -0.000238974251548 0)
(-0.00145025677185 -0.000214966541713 0)
(-0.00148173469563 -0.000188357586952 0)
(-0.0014902381412 -0.000166969914585 0)
(-0.00154601201351 -0.000147204024866 0)
(-0.00153276206492 -0.000118773478589 0)
(-0.00159268568426 -9.23463927755e-05 0)
(-0.00153110928659 -6.48165550899e-05 0)
(-0.00160240348527 -5.87186390373e-05 0)
(-0.00155423817904 -5.39877296945e-05 0)
(-0.00162335414082 -5.88903894507e-05 0)
(-0.00168387750319 -7.58790950552e-05 0)
(-0.00170809740771 -9.21206110125e-05 0)
(-0.00172093079926 -8.69294732919e-05 0)
(-0.00172991878211 -7.01649326289e-05 0)
(-0.0017352512941 -4.8348517309e-05 0)
(-0.00173800851268 -2.23295874477e-05 0)
(-0.00173885842815 7.22729459259e-06 0)
(-0.0017369142019 3.5257204064e-05 0)
(-0.00173087575694 5.7971846932e-05 0)
(-0.00171999130243 7.72793149713e-05 0)
(-0.00170424741547 9.67467809455e-05 0)
(-0.00168398107087 0.000118390515777 0)
(-0.0016594839507 0.000143032742754 0)
(-0.00163059410564 0.000171137635854 0)
(-0.00159676961951 0.000203369956352 0)
(-0.00155712963708 0.000240519528636 0)
(-0.00151023569443 0.000283347804128 0)
(-0.00145392262625 0.00033304992883 0)
(-0.00138578049978 0.000391373763376 0)
(-0.00130366953127 0.000459322384474 0)
(-0.00120527539089 0.00053776578835 0)
(-0.00108602531473 0.000630798198994 0)
(-0.000939475412178 0.000740243214579 0)
(-0.000762593620834 0.000859450357088 0)
(-0.00055958027613 0.000974256599643 0)
(-0.00034169664083 0.00106132043636 0)
(-0.000130423922959 0.00109384609767 0)
(5.01347035729e-05 0.00103988148511 0)
(0.000179022519791 0.000877411478336 0)
(0.000346263836142 0.000815771755145 0)
(0.000443137070253 0.000532279258392 0)
(0.000491684150253 0.000298287820437 0)
(0.000533371733053 0.000169632592355 0)
(0.000550610154547 9.01957121356e-05 0)
(0.000549360453946 2.30144371653e-05 0)
(0.000559775114916 -4.86327129472e-05 0)
(0.00054680493013 -0.00013285125778 0)
(0.000466097494301 -0.0001981685415 0)
(0.000394262509829 -0.000237897287809 0)
(0.000346834365609 -0.000272011061284 0)
(0.000290589917123 -0.000301388400711 0)
(0.000240637124008 -0.000325025348901 0)
(0.000172746566159 -0.000296992877628 0)
(0.0001210411334 -0.000296837598836 0)
(8.05454913159e-05 -0.000379322217986 0)
(2.43894458267e-05 -0.000392174214282 0)
(-1.44394395508e-05 -0.00042866581593 0)
(-9.21063850634e-05 -0.000552546920654 0)
(-0.000208485978733 -0.000717184639651 0)
(-0.000235100267096 -0.000663664566477 0)
(-0.000159351824524 -0.000334625331821 0)
(-0.000332759672068 -0.000483844253425 0)
(-0.000503700197608 -0.000622365776224 0)
(-0.000548931798231 -0.000592518904982 0)
(-0.000618594433461 -0.000542059641256 0)
(-0.000663595852241 -0.000486729976361 0)
(-0.000775655677605 -0.000398488328821 3.53353214812e-28)
(-0.000602122762195 -0.000188932911493 -2.09558996099e-28)
(-0.000688417479203 -0.00016153911203 0)
(-0.000732004771865 -0.000169889572647 0)
(-0.000849111765504 -0.00022754787984 0)
(-0.00100095932846 -0.000310231345611 0)
(-0.00109626760982 -0.000333409936547 0)
(-0.00108369046951 -0.00029897181017 0)
(-0.00114683432275 -0.000313595546644 0)
(-0.00123002450106 -0.000349354086936 0)
(-0.00127423818455 -0.000351981883021 0)
(-0.00132103206899 -0.000333311050668 0)
(-0.00136517239149 -0.000307637216091 0)
(-0.00140582769317 -0.000278016609035 0)
(-0.00143313216468 -0.000244789575736 0)
(-0.0014486688452 -0.000211607426543 0)
(-0.00150118922383 -0.000191198484385 0)
(-0.00147382908108 -0.000167848722256 0)
(-0.00155752395538 -0.000138574444215 0)
(-0.00148723890115 -8.92946350523e-05 0)
(-0.00157113929068 -7.84061839857e-05 0)
(-0.00152998292494 -7.868877037e-05 1.34128467883e-28)
(-0.00160283150828 -8.25402381862e-05 -1.39861982012e-28)
(-0.00163287421436 -0.000105017332893 0)
(-0.00170397376259 -0.000121264912879 0)
(-0.00172133236558 -0.000114539821705 0)
(-0.00173009519115 -9.80559335842e-05 0)
(-0.00173750626134 -7.67543742222e-05 0)
(-0.0017435188141 -5.1789856893e-05 0)
(-0.00174707840947 -2.34413634564e-05 0)
(-0.00174794189366 7.45061805039e-06 0)
(-0.00174593954401 3.78768157711e-05 0)
(-0.00173998863492 6.52744503173e-05 0)
(-0.00172927969862 9.01692194369e-05 0)
(-0.00171382416091 0.00011477128931 0)
(-0.00169397740756 0.000140928976471 0)
(-0.0016699797549 0.000169813478268 0)
(-0.00164161687924 0.000202366246412 0)
(-0.00160833252699 0.000239673309431 0)
(-0.00156931144832 0.000283034867569 0)
(-0.0015232046627 0.000333942670762 0)
(-0.00146789718917 0.000394144939627 0)
(-0.00140069638342 0.000465557284522 0)
(-0.00131833563907 0.000550202345212 0)
(-0.00121645785135 0.000651231575605 0)
(-0.00108914943131 0.000772505862323 0)
(-0.000930874742481 0.00091228872533 0)
(-0.000741061184964 0.00105824678022 0)
(-0.000526092255828 0.00118944034571 0)
(-0.000297886905989 0.00127870909881 0)
(-7.56438090202e-05 0.0012895050785 0)
(0.000114545747526 0.00120362946221 0)
(0.000280449553318 0.00107973550633 0)
(0.000409683988541 0.0009044566573 0)
(0.000491183500091 0.000602511275125 0)
(0.000519393185964 0.000343241090458 0)
(0.00058689182788 0.000206008403225 0)
(0.000617442447872 0.000103890088894 0)
(0.000616210239297 1.6120171891e-05 0)
(0.000602866092941 -8.31600544881e-05 0)
(0.000544128431548 -0.000191466807449 0)
(0.000450128273749 -0.000258643348141 0)
(0.000391665772933 -0.00030202561595 0)
(0.000333126942312 -0.000332156098973 0)
(0.000280823098328 -0.000359092953592 0)
(0.00023029569769 -0.000361874449089 0)
(0.000181688464203 -0.00035435091876 0)
(0.000120309949317 -0.000349489136037 0)
(7.85442269195e-05 -0.000425186432545 0)
(2.73888600483e-05 -0.00044958340236 0)
(-2.99474108562e-05 -0.000500248228851 0)
(-0.000131762545848 -0.000678740285834 0)
(-0.000233839869634 -0.000745974450287 0)
(-0.000149026785469 -0.000444670804928 0)
(-0.000168073253039 -0.000418878842416 0)
(-0.000390395817148 -0.000675672235494 0)
(-0.000467151026456 -0.000689508580494 0)
(-0.000533055818361 -0.000658834462797 0)
(-0.000572323225927 -0.000588477587966 0)
(-0.000642901150166 -0.000530036969152 0)
(-0.000524308190535 -0.000305110714822 0)
(-0.000599017758511 -0.000225851762593 0)
(-0.000672004562904 -0.000222531330056 0)
(-0.000731617250196 -0.00025689522352 0)
(-0.000909042857107 -0.000362218847625 0)
(-0.00102348647538 -0.000408356614949 0)
(-0.00100230228916 -0.000355807523464 0)
(-0.00105587764366 -0.000345865642219 0)
(-0.00115825949659 -0.000388880860765 0)
(-0.00122182860661 -0.000408693835264 0)
(-0.00126265493426 -0.000398374619664 0)
(-0.00130453434997 -0.00037714215939 0)
(-0.00135452130335 -0.000353393946074 0)
(-0.00139450854514 -0.000319307391109 0)
(-0.00144069344352 -0.000272426882045 0)
(-0.00143062424934 -0.00023944652922 0)
(-0.00150144374641 -0.000213210215789 0)
(-0.00149222581061 -0.000179070989799 0)
(-0.00147238446855 -0.000143869704278 0)
(-0.00150400716378 -0.000118566793294 0)
(-0.00160057705095 -0.000107756788657 0)
(-0.00157126645252 -9.56095810927e-05 0)
(-0.00158136713875 -0.000124679016481 0)
(-0.00169127176694 -0.000156683734929 0)
(-0.00171241019071 -0.000156061421207 0)
(-0.00172797404008 -0.000133031550416 0)
(-0.00173888817338 -0.000108344568941 0)
(-0.00174687681398 -8.34520791136e-05 0)
(-0.00175351353585 -5.60597715066e-05 0)
(-0.00175787687104 -2.53759136689e-05 0)
(-0.00175904658627 7.69865096143e-06 0)
(-0.00175690446738 4.10183997239e-05 0)
(-0.00175089814079 7.27606295181e-05 0)
(-0.00174030559706 0.000102806525364 0)
(-0.00172504949918 0.000132391964827 1.3737626362e-28)
(-0.00170549169379 0.000163048459242 -1.37012330907e-28)
(-0.00168184192023 0.000196164013259 0)
(-0.00165391041309 0.000233065523926 0)
(-0.00162127959047 0.000275226872 0)
(-0.00158335786813 0.000324455305596 0)
(-0.00153895300125 0.000382970611 0)
(-0.0014859309606 0.000453399362257 0)
(-0.0014211199819 0.000538767996544 0)
(-0.00134001506837 0.0006427703835 0)
(-0.00123653866077 0.000769796871495 0)
(-0.0011038424545 0.000922099685648 0)
(-0.000937098043784 0.00109342657371 0)
(-0.00073681603927 0.0012664715066 0)
(-0.000507688772315 0.00141809890955 0)
(-0.000256445291937 0.00151624987843 0)
(-3.86726095137e-06 0.00151383860293 0)
(0.000216771631271 0.00140257394038 0)
(0.000390669852872 0.00121650360325 0)
(0.000496221704995 0.000977202209729 0)
(0.000634117543353 0.000734478430019 0)
(0.000607475731971 0.00038570275828 0)
(0.000650312072535 0.000239104827163 0)
(0.000685778789568 0.000112702856972 0)
(0.000668274206057 -1.01771639357e-05 0)
(0.000625642150716 -0.00014271978398 0)
(0.000542308188964 -0.000262487743353 0)
(0.000453322788024 -0.000331990484636 0)
(0.000384203978064 -0.000372623800329 0)
(0.000317616407653 -0.00039272930821 0)
(0.000272036670029 -0.000403745736746 0)
(0.000230027863245 -0.000397849691584 0)
(0.000192285967769 -0.000411769711768 0)
(0.000126736498351 -0.000417048986366 0)
(7.28107697207e-05 -0.000471805831855 0)
(2.5280659247e-05 -0.000511093861878 0)
(-4.24510949121e-05 -0.000591615572003 0)
(-0.00015139203586 -0.000782536792031 0)
(-0.000198355467271 -0.000767834916231 0)
(-0.000143691068491 -0.000487563741298 0)
(-0.000235321436846 -0.000557807544647 0)
(-0.000404733508674 -0.000770555011442 0)
(-0.000432834813414 -0.000751785949517 0)
(-0.000518403094185 -0.000720759542593 0)
(-0.000495566057723 -0.000587989538553 0)
(-0.000650094694795 -0.000594130073257 0)
(-0.000509750381394 -0.000334372504363 0)
(-0.000608679670779 -0.000296148749121 0)
(-0.000665115713574 -0.000297596664562 0)
(-0.000784195444731 -0.000380669329342 0)
(-0.000933680104052 -0.000483926485943 0)
(-0.00100692198526 -0.000467510006258 0)
(-0.000982912285205 -0.000395172528966 0)
(-0.00106444940949 -0.000419204188853 0)
(-0.00114978275635 -0.000460208643935 0)
(-0.0012052343087 -0.000463402930047 0)
(-0.00125498552846 -0.000445099379913 0)
(-0.00129062760174 -0.000417736957431 0)
(-0.00133621399008 -0.000391708799126 0)
(-0.0013564432137 -0.000355079598824 0)
(-0.00137262837828 -0.000293742667506 0)
(-0.0014525412503 -0.000264609372527 0)
(-0.001389510183 -0.000232532574449 0)
(-0.00153218943298 -0.000202751327277 0)
(-0.00145941472467 -0.000167328481959 0)
(-0.00158340246419 -0.000161152887647 0)
(-0.00151127339876 -0.000132115559483 0)
(-0.00163148867352 -0.000134279133264 0)
(-0.00166855898722 -0.000170363837543 1.50092098861e-28)
(-0.00170098481992 -0.000195240131166 -1.5296990935e-28)
(-0.00172011761981 -0.000178287483953 0)
(-0.0017358601476 -0.000149262912187 0)
(-0.00174893021531 -0.000119946672466 0)
(-0.00175826945774 -9.13346382242e-05 0)
(-0.00176539835169 -6.11924950154e-05 0)
(-0.00177023825925 -2.80087739179e-05 0)
(-0.00177190132654 7.78011730749e-06 0)
(-0.00176989799846 4.44547898242e-05 0)
(-0.00176379905161 8.04701642528e-05 0)
(-0.00175317709438 0.00011539389811 0)
(-0.00173800591763 0.000149846650775 0)
(-0.00171851063334 0.000185000897918 0)
(-0.00169489056577 0.000222278935818 0)
(-0.00166717561028 0.000263257891418 0)
(-0.00163529686048 0.000309729254016 0)
(-0.00159901767773 0.000363990540009 0)
(-0.00155745188825 0.000429147738039 0)
(-0.00150852582949 0.000509175870504 0)
(-0.00144860187086 0.000608953796553 0)
(-0.0013719542563 0.000734085872821 0)
(-0.00127086061257 0.000889470796654 0)
(-0.00113722763126 0.00107510089502 0)
(-0.000965217781875 0.00128064007566 0)
(-0.000753395699538 0.00148616832386 0)
(-0.000502076759214 0.00167102229804 0)
(-0.000213886759808 0.00179436336359 0)
(7.69657149607e-05 0.00177721603605 0)
(0.000318394402788 0.00161011988686 0)
(0.000503248048093 0.00136661774185 0)
(0.000643371226797 0.00108906972246 0)
(0.000760196097383 0.000778419529798 0)
(0.000836263640536 0.000447173937312 0)
(0.000747457305534 0.000226838155608 0)
(0.000772188740575 0.000108891978295 0)