/*--------------------------------*- C++ -*----------------------------------*\
| =========                 |                                                 |
| \\      /  F ield         | OpenFOAM: The Open Source CFD Toolbox           |
|  \\    /   O peration     | Version:  v1806                                 |
|   \\  /    A nd           | Web:      www.OpenFOAM.com                      |
|    \\/     M anipulation  |                                                 |
\*---------------------------------------------------------------------------*/
FoamFile
{
    version     2.0;
    format      ascii;
    class       surfaceScalarField;
    location    "650";
    object      phia;
}
// * * * * * * * * * * * * * * * * * * * * * * * * * * * * * * * * * * * * * //

dimensions      [0 3 -1 0 0 0 0];
oriented        oriented;


internalField   nonuniform List<scalar> 
12640
(
7.68950554185e-08
-7.52199204307e-08
1.45561993528e-07
-6.74290780527e-08
2.05160414419e-07
-5.86918153886e-08
2.55645136215e-07
-4.9763815432e-08
2.94342727308e-07
-3.8020627856e-08
3.2088828748e-07
-2.59202965514e-08
3.4227892976e-07
-2.08356363576e-08
3.73398170723e-07
-3.0617642864e-08
4.14922176478e-07
-4.1071393247e-08
4.5582538265e-07
-4.05043654026e-08
4.95081980903e-07
-3.89108037793e-08
5.36668618684e-07
-4.12712393476e-08
5.76925083225e-07
-3.99625573697e-08
6.14289161944e-07
-3.70901360848e-08
6.51597575983e-07
-3.70558597303e-08
6.93811370006e-07
-4.19726379621e-08
7.38402443354e-07
-4.43643453265e-08
7.8052349212e-07
-4.19038602038e-08
8.19569249372e-07
-3.8843707186e-08
8.59535088806e-07
-3.97696920615e-08
9.07533427264e-07
-4.78056990492e-08
9.63377966947e-07
-5.56509902479e-08
1.02123110981e-06
-5.76662858711e-08
1.07821056255e-06
-5.6796100288e-08
1.13343967287e-06
-5.50546356397e-08
1.18729310529e-06
-5.3679855405e-08
1.24104072596e-06
-5.35794608857e-08
1.29416286449e-06
-5.29525929711e-08
1.34596755477e-06
-5.16410989145e-08
1.39693056438e-06
-5.07983799931e-08
1.44851644258e-06
-5.14272897751e-08
1.50011794361e-06
-5.14393132184e-08
1.55092296777e-06
-5.06444003271e-08
1.60347772848e-06
-5.23905655241e-08
1.65760985739e-06
-5.39733433552e-08
1.71248805316e-06
-5.47131724072e-08
1.76860883517e-06
-5.59609267959e-08
1.82394697439e-06
-5.51772594877e-08
1.87703659094e-06
-5.29314155623e-08
1.92862970293e-06
-5.14257371786e-08
1.98118851598e-06
-5.23924489876e-08
2.0309603429e-06
-4.96011701638e-08
2.07232911085e-06
-4.12015262649e-08
2.10786983502e-06
-3.53674657527e-08
2.14035373677e-06
-3.23107009719e-08
2.16930970257e-06
-2.87731296332e-08
2.19425800032e-06
-2.47636211721e-08
2.21409477252e-06
-1.96416853831e-08
2.2288384898e-06
-1.45459751495e-08
2.24212135904e-06
-1.30735105208e-08
2.2583629381e-06
-1.6030291379e-08
2.27205844947e-06
-1.34695797355e-08
2.27019911802e-06
2.09718048996e-09
2.25747191884e-06
1.2989465364e-08
2.23336443189e-06
2.43833186984e-08
2.19258990413e-06
4.10746339176e-08
2.15416304225e-06
3.87500919258e-08
2.12664108951e-06
2.7891463665e-08
2.09187988987e-06
3.51828378042e-08
2.05028289624e-06
4.20828990678e-08
2.02381044856e-06
2.70515046484e-08
1.98447187446e-06
4.01155179131e-08
1.86046513172e-06
1.25068766223e-07
1.65672741954e-06
2.04770522017e-07
1.4780649634e-06
1.79316587794e-07
1.35644672483e-06
1.22081942353e-07
1.24791534036e-06
1.0892720051e-07
1.14055801602e-06
1.07779149769e-07
1.02893947935e-06
1.12100823549e-07
9.08401915362e-07
1.210879897e-07
7.85990587436e-07
1.22984942014e-07
6.6985178243e-07
1.16680399808e-07
5.61985317894e-07
1.08384215936e-07
4.50405732125e-07
1.1208448395e-07
3.55324354972e-07
9.55532487778e-08
2.72985054977e-07
8.27754783802e-08
2.14453674624e-07
5.89680999962e-08
1.49292474353e-07
6.56009748796e-08
9.06830472076e-08
5.94323602078e-08
9.11727305832e-08
4.0883352217e-08
-1.15418711564e-07
9.40839374283e-08
-1.19753670609e-07
1.45591827352e-07
-1.09519254552e-07
1.98472847998e-07
-1.02054679149e-07
2.63719417759e-07
-1.02675773357e-07
3.14198164593e-07
-7.57913796211e-08
3.46868349032e-07
-5.29149799549e-08
3.80652326231e-07
-6.38792078974e-08
4.18249078103e-07
-7.82034664653e-08
4.59141553745e-07
-8.09966621188e-08
4.99843737344e-07
-7.92582955835e-08
5.36919572865e-07
-7.80305577839e-08
5.73077959408e-07
-7.58218172995e-08
6.10073628898e-07
-7.38100949188e-08
6.48641634499e-07
-7.53556059792e-08
6.92131229742e-07
-8.52201272867e-08
7.34854860882e-07
-8.68607589934e-08
7.68557689547e-07
-7.54087517861e-08
8.02304001716e-07
-7.23956246928e-08
8.4546793858e-07
-8.27488147217e-08
8.98973959759e-07
-1.011136919e-07
9.60213221224e-07
-1.16702386067e-07
1.02083451696e-06
-1.18092993197e-07
1.07581635346e-06
-1.11601207589e-07
1.12954938057e-06
-1.08605344863e-07
1.18508810139e-06
-1.09051654305e-07
1.23920610736e-06
-1.07520896646e-07
1.29149012975e-06
-1.05074818223e-07
1.34321608614e-06
-1.03195165664e-07
1.39463508464e-06
-1.02060252887e-07
1.44536499581e-06
-1.01988780821e-07
1.49552515809e-06
-1.01443194803e-07
1.54492345132e-06
-9.98747570226e-08
1.59683962132e-06
-1.04150952364e-07
1.65314506902e-06
-1.10109087744e-07
1.70872070258e-06
-1.10134814557e-07
1.76417101719e-06
-1.11245080784e-07
1.82211435491e-06
-1.12967836414e-07
1.88097899402e-06
-1.11626927811e-07
1.93495686935e-06
-1.0524256476e-07
1.97208404734e-06
-8.93417421898e-08
1.99806394429e-06
-7.54173442942e-08
2.03039425849e-06
-7.33554659996e-08
2.06818502713e-06
-7.29920742467e-08
2.10548419601e-06
-6.9426860573e-08
2.14103830094e-06
-6.41506595838e-08
2.1729775767e-06
-5.65072619088e-08
2.20120189558e-06
-4.76751503e-08
2.22473350136e-06
-3.7867094435e-08
2.23759611606e-06
-2.57295097656e-08
2.2347072982e-06
-1.29159982151e-08
2.22804811082e-06
-6.58800395493e-09
2.24097846118e-06
-1.05850659668e-08
2.24988513438e-06
4.34017744276e-09
2.23604164917e-06
3.85101138218e-08
2.22361560711e-06
5.37952773189e-08
2.21033483891e-06
5.23726808629e-08
2.18554379257e-06
5.30582613253e-08
2.16005016659e-06
6.11162799803e-08
2.12826168058e-06
7.43709522602e-08
2.05034947357e-06
1.05600469576e-07
1.96053567183e-06
1.30735372368e-07
1.8317528643e-06
2.5488511551e-07
1.64124595509e-06
3.96177878637e-07
1.44054900182e-06
3.80653949278e-07
1.26536033636e-06
2.97699378305e-07
1.16052869035e-06
2.14150234743e-07
1.08489677443e-06
1.83823994014e-07
9.9394021458e-07
2.0353510769e-07
8.80204792921e-07
2.3534730423e-07
7.53034940757e-07
2.5069057123e-07
6.28988136708e-07
2.41235267594e-07
5.27475923463e-07
2.10392050156e-07
4.51831988939e-07
1.88237370581e-07
3.78805259148e-07
1.69086221744e-07
3.11292487935e-07
1.50789418828e-07
2.40405327876e-07
1.30398693674e-07
1.76800929619e-07
1.29838219038e-07
9.26371729257e-08
1.44261714286e-07
1.84546035862e-07
5.10700791317e-08
-1.65562415231e-07
7.76828475804e-08
-1.456527323e-07
1.38493350399e-07
-1.69637652473e-07
2.08372063261e-07
-1.71277019062e-07
2.72946951167e-07
-1.6663284089e-07
3.07522360624e-07
-1.0987774413e-07
3.28425053292e-07
-7.33422229558e-08
3.65231200211e-07
-1.00165511859e-07
4.07767729908e-07
-1.20271241411e-07
4.5031483695e-07
-1.23141022575e-07
4.91608034421e-07
-1.20193998759e-07
5.29467856085e-07
-1.15563605862e-07
5.65412684586e-07
-1.11459724946e-07
6.02871471644e-07
-1.10977824681e-07
6.37653603246e-07
-1.0987173478e-07
6.52257698382e-07
-9.95883193855e-08
6.5432821802e-07
-8.87361934593e-08
6.76858052402e-07
-9.77587152253e-08
7.30224785653e-07
-1.25583941659e-07
8.11049325385e-07
-1.6338179029e-07
8.94409184515e-07
-1.84274759796e-07
9.57649127149e-07
-1.79741552868e-07
1.01187478902e-06
-1.72129535235e-07
1.06901952326e-06
-1.68559599508e-07
1.12585137999e-06
-1.65260412561e-07
1.17934338347e-06
-1.62367841162e-07
1.23170152344e-06
-1.59710686247e-07
1.28405370763e-06
-1.57256851465e-07
1.33585120034e-06
-1.54828720209e-07
1.38756213904e-06
-1.53604461635e-07
1.43749656391e-06
-1.51761636787e-07
1.48719865642e-06
-1.5098252573e-07
1.53860392047e-06
-1.51119042008e-07
1.58651667162e-06
-1.51899641029e-07
1.63918328933e-06
-1.62620389561e-07
1.70165724066e-06
-1.72448181732e-07
1.75938667686e-06
-1.68817606702e-07
1.81477829553e-06
-1.68198786035e-07
1.87567596401e-06
-1.72364760779e-07
1.93383074006e-06
-1.63226458616e-07
1.98604045195e-06
-1.41381499598e-07
2.03296897068e-06
-1.22170882775e-07
2.07327978449e-06
-1.13495023911e-07
2.109101869e-06
-1.08635215417e-07
2.14186039594e-06
-1.02005926933e-07
2.17101860549e-06
-9.31192135063e-08
2.19679336616e-06
-8.20901689581e-08
2.21885433865e-06
-6.95332345616e-08
2.23670209305e-06
-5.55084472264e-08
2.25102592261e-06
-3.98344250449e-08
2.2628709773e-06
-2.45372038938e-08
2.26936370815e-06
-1.28433762038e-08
2.26026781657e-06
-1.24236121697e-09
2.24305500038e-06
2.18167052581e-08
2.23522519155e-06
4.66147170962e-08
2.22863672239e-06
6.06867886406e-08
2.21085608918e-06
7.04861560419e-08
2.18318493517e-06
8.11073105687e-08
2.1491306979e-06
9.5602689908e-08
2.10469670082e-06
1.19325046508e-07
2.04965418754e-06
1.61271816259e-07
1.93176318449e-06
2.49414819421e-07
1.71451348722e-06
4.7301244782e-07
1.45804718429e-06
6.53388018115e-07
1.27688642761e-06
5.62325165204e-07
1.19802779935e-06
3.76968416906e-07
1.11036192767e-06
3.02187621214e-07
1.0057974505e-06
2.88771257919e-07
8.96556493761e-07
3.13191652177e-07
7.80160178459e-07
3.52194154566e-07
6.71556351467e-07
3.59765689944e-07
5.88595353526e-07
3.24681176687e-07
5.18528415717e-07
2.80962786931e-07
4.48572370212e-07
2.58703656985e-07
3.67749476707e-07
2.50419996457e-07
2.86443514002e-07
2.32626951806e-07
2.17004089715e-07
2.0033837472e-07
1.64263586427e-07
1.83077559178e-07
7.12061050257e-08
2.38344294334e-07
2.55919926254e-07
3.5254271067e-08
-2.00319087966e-07
4.81193817017e-08
-1.58024800976e-07
1.15499389494e-07
-2.36361009061e-07
1.71902153019e-07
-2.27049548356e-07
1.78395265519e-07
-1.72669820949e-07
1.60281596256e-07
-9.15289673037e-08
2.22192722029e-07
-1.34917455712e-07
3.18546549147e-07
-1.96040049449e-07
3.84790954918e-07
-1.86056016647e-07
4.33915275251e-07
-1.71860325706e-07
4.78710298381e-07
-1.64627142113e-07
5.1917772617e-07
-1.55690221789e-07
5.52498728089e-07
-1.44463935718e-07
5.66171696484e-07
-1.24369663389e-07
5.64432154067e-07
-1.07891656595e-07
5.74989805226e-07
-1.09942064186e-07
6.16843165085e-07
-1.30401146552e-07
6.88934096792e-07
-1.69660678309e-07
7.74245326205e-07
-2.10693235889e-07
8.42692585673e-07
-2.31621745759e-07
8.9418648837e-07
-2.35561887376e-07
9.48740408549e-07
-2.34095790672e-07
1.00592775921e-06
-2.2912246428e-07
1.0609649e-06
-2.23411553582e-07
1.11457039994e-06
-2.18684969295e-07
1.16729491847e-06
-2.14919127063e-07
1.22029744823e-06
-2.12540956268e-07
1.27284609575e-06
-2.09639284644e-07
1.32530617402e-06
-2.07121502928e-07
1.37602112135e-06
-2.04155268995e-07
1.42757479349e-06
-2.03151009301e-07
1.4755905193e-06
-1.98837132871e-07
1.52168331316e-06
-1.97053234258e-07
1.58026735551e-06
-2.10327648329e-07
1.63901064424e-06
-2.2120541565e-07
1.6969459996e-06
-2.30229177708e-07
1.76598773845e-06
-2.37701248308e-07
1.83216726771e-06
-2.34218867844e-07
1.8859759149e-06
-2.26007420079e-07
1.9347506774e-06
-2.11834705465e-07
1.98399419066e-06
-1.90454200383e-07
2.03168688343e-06
-1.69693265368e-07
2.07398905982e-06
-1.55621302055e-07
2.1109361814e-06
-1.45404243732e-07
2.14381437899e-06
-1.34698169574e-07
2.1729668911e-06
-1.22081830022e-07
2.19853900064e-06
-1.07463659831e-07
2.22034245533e-06
-9.11334490409e-08
2.23820887617e-06
-7.31619985343e-08
2.25233957078e-06
-5.37458960906e-08
2.26217133449e-06
-3.41385199977e-08
2.26485920052e-06
-1.52909287184e-08
2.25837038444e-06
5.49902768563e-09
2.24901629622e-06
3.14326419837e-08
2.23946475451e-06
5.64448682042e-08
2.22466436972e-06
7.57845463357e-08
2.20181780138e-06
9.36639582435e-08
2.16894181806e-06
1.14356926328e-07
2.12223376934e-06
1.42739869784e-07
2.05324556374e-06
1.88820755182e-07
1.94425659884e-06
2.70869230097e-07
1.77355072903e-06
4.20801742535e-07
1.60076783104e-06
6.46449451992e-07
1.44336373093e-06
8.11367046415e-07
1.26344446638e-06
7.42742805479e-07
1.11219840238e-06
5.28597531707e-07
1.00170830366e-06
4.1301760069e-07
9.08704728094e-07
3.82107539831e-07
8.22262680808e-07
3.99984242169e-07
7.33264822984e-07
4.41586044048e-07
6.39600669399e-07
4.5386899669e-07
5.4962344859e-07
4.15128017191e-07
4.6179758788e-07
3.69241898194e-07
3.76312026307e-07
3.44618633751e-07
2.97017396265e-07
3.30158200581e-07
2.15079673278e-07
3.15024208707e-07
1.4317376696e-07
2.72696757823e-07
9.64631230785e-08
2.30262046688e-07
4.95477346142e-08
2.85461877436e-07
3.05918221359e-07
6.32865893216e-09
-2.06151077745e-07
4.10851396733e-08
-1.92371396551e-07
9.39548568032e-08
-2.88648084885e-07
1.34054598343e-07
-2.66600124137e-07
1.27520459581e-07
-1.65813396027e-07
1.6264192117e-07
-1.2640339768e-07
2.41290414753e-07
-2.1319723734e-07
3.01446805199e-07
-2.55747004411e-07
3.55149891778e-07
-2.39329311028e-07
4.07237675556e-07
-2.23540096551e-07
4.57391483441e-07
-2.14399918967e-07
4.88820720227e-07
-1.86786981688e-07
4.91946055075e-07
-1.47309898589e-07
4.94948360861e-07
-1.2713654723e-07
5.26082873386e-07
-1.38812342765e-07
5.84746389339e-07
-1.68394669542e-07
6.6091843017e-07
-2.06360926078e-07
7.32710203319e-07
-2.41237473273e-07
7.841428768e-07
-2.61912715529e-07
8.2860250228e-07
-2.75869718606e-07
8.80902462765e-07
-2.87653228923e-07
9.36838953827e-07
-2.89829049744e-07
9.92291654348e-07
-2.84379912994e-07
1.04621867829e-06
-2.77149653306e-07
1.09920760291e-06
-2.71493446937e-07
1.15253023647e-06
-2.68065165518e-07
1.20469406966e-06
-2.64536761336e-07
1.25795528454e-06
-2.62732048531e-07
1.30903357601e-06
-2.5803321106e-07
1.36029317118e-06
-2.55248485419e-07
1.40685248103e-06
-2.49549295946e-07
1.45903565673e-06
-2.50864462782e-07
1.52054444565e-06
-2.5840933773e-07
1.57688092021e-06
-2.66511395093e-07
1.64009719542e-06
-2.84269349946e-07
1.71043409153e-06
-3.00409936131e-07
1.77374507924e-06
-3.008541097e-07
1.83155323256e-06
-2.91864934605e-07
1.88450101574e-06
-2.78791809689e-07
1.93441530797e-06
-2.61581977308e-07
1.98386603128e-06
-2.39736235239e-07
2.03174954689e-06
-2.17403849484e-07
2.07513082424e-06
-1.98826601965e-07
2.11318863484e-06
-1.83279575487e-07
2.14663070392e-06
-1.67952461624e-07
2.17600196223e-06
-1.51257609271e-07
2.2014988287e-06
-1.32759369534e-07
2.22302900109e-06
-1.12454454697e-07
2.240417778e-06
-9.03347871464e-08
2.25345266726e-06
-6.65551911794e-08
2.26124704951e-06
-4.16971635995e-08
2.26213176285e-06
-1.59307013922e-08
2.25603571967e-06
1.18498336248e-08
2.24611595254e-06
4.16170578904e-08
2.23290766865e-06
6.99282693503e-08
2.21294647508e-06
9.60437190656e-08
2.18231104158e-06
1.24626521744e-07
2.13546013306e-06
1.6157021805e-07
2.06396144566e-06
2.14657402698e-07
1.95721125696e-06
2.96047357384e-07
1.8087002059e-06
4.19903423375e-07
1.63965512165e-06
5.90365599092e-07
1.51065078608e-06
7.75951746829e-07
1.38886041088e-06
9.33659149831e-07
1.25828306878e-06
8.73747409882e-07
1.10394846101e-06
6.83278535305e-07
9.51014468163e-07
5.66241839587e-07
8.26619630771e-07
5.06772360807e-07
7.30423392979e-07
4.96465146283e-07
6.44214852759e-07
5.28118087853e-07
5.53339771463e-07
5.451277004e-07
4.67349209299e-07
5.01493985375e-07
3.88290180272e-07
4.48639594292e-07
3.09290907129e-07
4.23962971701e-07
2.29850681058e-07
4.09986325071e-07
1.56874466398e-07
3.88413823566e-07
1.12838892809e-07
3.1703080549e-07
7.01498077743e-08
2.73153232522e-07
2.80096782456e-08
3.28327139604e-07
3.33947926679e-07
2.25418280688e-09
-2.08222549231e-07
4.83829814454e-08
-2.38140586498e-07
7.62649182861e-08
-3.16023391956e-07
9.47868662097e-08
-2.84705626637e-07
9.33448439028e-08
-1.6413301477e-07
1.71514015079e-07
-2.04279841588e-07
2.4605254022e-07
-2.87330201034e-07
2.83475525134e-07
-2.92760818352e-07
3.27637553203e-07
-2.83060612177e-07
3.72361257426e-07
-2.67867093236e-07
4.01422236893e-07
-2.43092066209e-07
3.93787477423e-07
-1.78878802423e-07
4.01035092776e-07
-1.54332868069e-07
4.41490209907e-07
-1.67381094206e-07
5.0641369514e-07
-2.0352199775e-07
5.89717891962e-07
-2.51473746357e-07
6.65722330199e-07
-2.82133920137e-07
7.15698450515e-07
-2.90988609995e-07
7.58099235159e-07
-3.04095073567e-07
8.11502214735e-07
-3.29055948979e-07
8.66740903342e-07
-3.42679414594e-07
9.19885242534e-07
-3.42767444382e-07
9.73492250902e-07
-3.37789378824e-07
1.02796936678e-06
-3.31438638556e-07
1.08136624126e-06
-3.24707320222e-07
1.13039943252e-06
-3.16924430123e-07
1.18394406965e-06
-3.17909802547e-07
1.23552332459e-06
-3.14144330705e-07
1.28769960919e-06
-3.1004467425e-07
1.33162826799e-06
-2.99015926227e-07
1.38105715433e-06
-2.98821090008e-07
1.43635506258e-06
-3.06012515315e-07
1.49424996117e-06
-3.16158809344e-07
1.57095606675e-06
-3.43069442229e-07
1.64823098104e-06
-3.61391434373e-07
1.71414152722e-06
-3.66164088819e-07
1.77332143238e-06
-3.59874808272e-07
1.82926414403e-06
-3.47646506121e-07
1.88262702492e-06
-3.31990792606e-07
1.93397848757e-06
-3.12767460941e-07
1.98418257478e-06
-2.89771155201e-07
2.03242523656e-06
-2.65473676408e-07
2.07663978049e-06
-2.42862440195e-07
2.11577339659e-06
-2.22228236948e-07
2.15001981337e-06
-2.02006492477e-07
2.17979942316e-06
-1.80838075321e-07
2.20530218892e-06
-1.58055330009e-07
2.22641955453e-06
-1.33357770983e-07
2.2428738386e-06
-1.06566748065e-07
2.25424042562e-06
-7.76897480567e-08
2.25974383484e-06
-4.69605477082e-08
2.2585698707e-06
-1.45052706181e-08
2.25103552316e-06
1.96398653718e-08
2.23833721958e-06
5.45781935094e-08
2.2194168118e-06
8.91246387526e-08
2.19026363944e-06
1.25489351155e-07
2.14524555733e-06
1.69963380781e-07
2.07696957244e-06
2.30200203121e-07
1.97735834521e-06
3.14647997862e-07
1.84316635572e-06
4.30657348455e-07
1.6831808013e-06
5.8032090982e-07
1.52335503609e-06
7.50614211722e-07
1.40855657407e-06
8.9114881836e-07
1.28727740464e-06
1.05530826613e-06
1.1369839532e-06
1.02439546249e-06
1.00919531993e-06
8.11356336716e-07
8.68288168692e-07
7.07413473345e-07
7.37083755741e-07
6.3822438191e-07
6.33671058969e-07
6.0012551633e-07
5.43414556306e-07
6.18673851429e-07
4.59474514643e-07
6.29359729441e-07
3.9316859096e-07
5.6807255041e-07
3.20734707707e-07
5.21337893835e-07
2.44284568061e-07
5.00702195569e-07
1.72226781314e-07
4.82366558145e-07
1.23694746368e-07
4.3723357083e-07
8.33647732978e-08
3.57656912719e-07
4.5903378916e-08
3.11037369581e-07
2.00744860351e-08
3.5415845958e-07
3.54412595304e-07
1.73738179438e-08
-2.2527249384e-07
6.8292107514e-08
-2.88688701663e-07
9.01946493085e-08
-3.37439726518e-07
7.61673966625e-08
-2.70306660317e-07
1.0694441893e-07
-1.94657158616e-07
1.89936168931e-07
-2.86924691141e-07
2.30226341181e-07
-3.27240125833e-07
2.61929482789e-07
-3.24047444048e-07
2.9362932952e-07
-3.14380286741e-07
3.37759829899e-07
-3.11590018749e-07
3.380003428e-07
-2.4301849493e-07
3.39157071286e-07
-1.79797501912e-07
3.77181151565e-07
-1.92143675317e-07
4.30493512884e-07
-2.20487259067e-07
5.09261420544e-07
-2.8205680097e-07
5.87400193583e-07
-3.29360493493e-07
6.36288759156e-07
-3.30782804438e-07
6.76814587325e-07
-3.31289080182e-07
7.33795434666e-07
-3.60851844614e-07
7.92240381949e-07
-3.87278239438e-07
8.45553318754e-07
-3.95775665705e-07
8.98501824619e-07
-3.95508366512e-07
9.52545255756e-07
-3.91635747879e-07
1.0041273843e-06
-3.82828969404e-07
1.05321500559e-06
-3.7361279311e-07
1.10359342832e-06
-3.67127817019e-07
1.15289278112e-06
-3.67039762378e-07
1.2057507221e-06
-3.66838350989e-07
1.25291537403e-06
-3.57048601256e-07
1.29818074947e-06
-3.4412456025e-07
1.35688044686e-06
-3.57368945939e-07
1.41967803171e-06
-3.6866469541e-07
1.49415585522e-06
-3.90493899293e-07
1.57109222203e-06
-4.19858223274e-07
1.64650346207e-06
-4.36648453339e-07
1.71104625809e-06
-4.30549504612e-07
1.7695678568e-06
-4.18237663704e-07
1.82590024845e-06
-4.03818324709e-07
1.88062490648e-06
-3.86552718685e-07
1.93359079035e-06
-3.6556737511e-07
1.98487648408e-06
-3.40886943949e-07
2.03379901535e-06
-3.14220822685e-07
2.07886858068e-06
-2.87750327709e-07
2.11905577548e-06
-2.62226238301e-07
2.15420689633e-06
-2.36960993802e-07
2.18450311276e-06
-2.10929686987e-07
2.20999311914e-06
-1.83333033624e-07
2.23046725097e-06
-1.53611400545e-07
2.24554607073e-06
-1.21415955735e-07
2.25474019077e-06
-8.66468304455e-08
2.25745476295e-06
-4.94255033376e-08
2.25323340547e-06
-1.00348200745e-08
2.24209909478e-06
3.10322697582e-08
2.22372762356e-06
7.32119667843e-08
2.19564226861e-06
1.17478840695e-07
2.15290966992e-06
1.6851446645e-07
2.08931414826e-06
2.33871595142e-07
1.99984953304e-06
3.19978724348e-07
1.88446731668e-06
4.30375933908e-07
1.75032993399e-06
5.65149161267e-07
1.61408580126e-06
7.16935763654e-07
1.49767048494e-06
8.67378869475e-07
1.37462143872e-06
1.01452325578e-06
1.25129460034e-06
1.17898608107e-06
1.05182460115e-06
1.22419239545e-06
9.03163113896e-07
9.60308892646e-07
7.84557533884e-07
8.2627194747e-07
6.57892293738e-07
7.65151847054e-07
5.39938596188e-07
7.18343828265e-07
4.44274523335e-07
7.14562060126e-07
3.84383966571e-07
6.89484903637e-07
3.28694637202e-07
6.23960558e-07
2.5680884202e-07
5.93431383557e-07
1.8532747147e-07
5.72418065405e-07
1.26400135507e-07
5.41539820707e-07
9.47138722522e-08
4.69196930845e-07
5.25451989633e-08
4.00049042187e-07
1.76941194483e-08
3.45987071959e-07
9.52077924879e-09
3.63048141132e-07
3.63889002497e-07
3.10803274032e-08
-2.56182129411e-07
7.24499225138e-08
-3.29694285328e-07
8.19360089668e-08
-3.46592470854e-07
5.45987211798e-08
-2.42721071461e-07
1.14436369569e-07
-2.5422094356e-07
1.77619284128e-07
-3.49752116994e-07
2.08012079341e-07
-3.57249026637e-07
2.40074862447e-07
-3.55743798708e-07
2.51793171533e-07
-3.25689390604e-07
2.73944318553e-07
-3.33401669958e-07
2.67610283103e-07
-2.36430403292e-07
3.10298840598e-07
-2.22267725469e-07
3.55736393199e-07
-2.37369730195e-07
4.24472840422e-07
-2.88995075453e-07
5.02319578733e-07
-3.5964605239e-07
5.53370707753e-07
-3.80150283055e-07
5.90082996703e-07
-3.67254993128e-07
6.47020605788e-07
-3.87994138722e-07
7.10059174992e-07
-4.23658317338e-07
7.65256415358e-07
-4.4224732108e-07
8.17365212722e-07
-4.47666502745e-07
8.69747756554e-07
-4.47684482584e-07
9.2532930237e-07
-4.47014895487e-07
9.79882781216e-07
-4.37191632869e-07
1.02558974599e-06
-4.19138151893e-07
1.07970752253e-06
-4.21069280972e-07
1.1274586256e-06
-4.14621701063e-07
1.17124687207e-06
-4.10463610617e-07
1.21740148437e-06
-4.03048666889e-07
1.28954558435e-06
-4.16115233511e-07
1.35149327042e-06
-4.19166518695e-07
1.41098877882e-06
-4.28018235279e-07
1.48946032055e-06
-4.68822068023e-07
1.57254408144e-06
-5.02791851931e-07
1.64050670141e-06
-5.04456697596e-07
1.70321987926e-06
-4.93106064282e-07
1.7634454806e-06
-4.78305318547e-07
1.82175676303e-06
-4.61969745551e-07
1.87839123414e-06
-4.43024509657e-07
1.93319586912e-06
-4.2020550905e-07
1.98590508059e-06
-3.93424759487e-07
2.03587378027e-06
-3.64011952133e-07
2.08199937046e-06
-3.3369085877e-07
2.12333444864e-06
-3.03368202322e-07
2.15948152439e-06
-2.72906498188e-07
2.19034319654e-06
-2.41581208181e-07
2.21574472398e-06
-2.08515961692e-07
2.23531762483e-06
-1.72956669305e-07
2.24858330826e-06
-1.3444681024e-07
2.25502668436e-06
-9.28426284666e-08
2.25410058577e-06
-4.82549854416e-08
2.24531704819e-06
-9.92345222349e-10
2.22805387271e-06
4.85467811673e-08
2.20074760938e-06
1.0076887224e-07
2.15996745418e-06
1.58535399112e-07
2.10091724927e-06
2.27854839601e-07
2.01977434412e-06
3.15289593457e-07
1.91857625952e-06
4.2149732812e-07
1.80494307658e-06
5.44288663381e-07
1.68705423734e-06
6.83356932165e-07
1.57246922156e-06
8.3184913639e-07
1.46531198425e-06
9.74861945767e-07
1.36603718565e-06
1.11410116191e-06
1.29251160043e-06
1.25279688312e-06
1.1194851779e-06
1.39752029272e-06
8.40587825957e-07
1.23943765257e-06
6.71013843968e-07
9.96134976403e-07
5.36643156175e-07
8.99795111665e-07
4.21739772532e-07
8.33499032972e-07
3.51751013291e-07
7.8478190679e-07
3.16751562044e-07
7.24626749668e-07
2.63776626738e-07
6.77087000409e-07
1.96777559354e-07
6.60600282665e-07
1.32813818818e-07
6.36587416032e-07
8.74733897833e-08
5.87093512241e-07
5.12933304379e-08
5.0561131824e-07
1.33707397952e-08
4.38254726604e-07
-1.78132607451e-08
3.77642722419e-07
-1.35697619581e-08
3.58701863115e-07
3.50732540483e-07
3.81686923865e-08
-2.93987224863e-07
6.56027219593e-08
-3.56758362214e-07
5.99575620752e-08
-3.40585557946e-07
6.51323167645e-08
-2.47657081393e-07
1.2914671446e-07
-3.17936497308e-07
1.55480236377e-07
-3.75730899226e-07
1.82597670845e-07
-3.84003236121e-07
2.12807852217e-07
-3.85588557411e-07
2.2240433745e-07
-3.34961168022e-07
2.37069026722e-07
-3.47720017035e-07
2.52651156483e-07
-2.51784624562e-07
2.91543588367e-07
-2.60941097933e-07
3.411473697e-07
-2.86763901134e-07
4.15761211158e-07
-3.63362575514e-07
4.80896428164e-07
-4.24497204656e-07
5.16257304158e-07
-4.15245111629e-07
5.58588562556e-07
-4.09341696328e-07
6.18351764411e-07
-4.47517425349e-07
6.78079154803e-07
-4.83147809767e-07
7.33196138653e-07
-4.97135775494e-07
7.86040626415e-07
-5.00293373478e-07
8.36070193945e-07
-4.97498920745e-07
8.85995526373e-07
-4.96735676362e-07
9.37440879739e-07
-4.88445439506e-07
9.83788253164e-07
-4.65303416573e-07
1.03395002253e-06
-4.71056048657e-07
1.08866100062e-06
-4.69166740538e-07
1.14706538007e-06
-4.68707733775e-07
1.20771377732e-06
-4.63541395302e-07
1.26570326552e-06
-4.73954774815e-07
1.33070236746e-06
-4.8402399722e-07
1.41694764794e-06
-5.14121998431e-07
1.49604081436e-06
-5.47769950334e-07
1.56422368278e-06
-5.70824493825e-07
1.62958833714e-06
-5.69666964551e-07
1.69353758798e-06
-5.56899253562e-07
1.75606060539e-06
-5.40671001576e-07
1.81680838072e-06
-5.22558304077e-07
1.87571465797e-06
-5.01768182362e-07
1.93265129817e-06
-4.76974804637e-07
1.98721182124e-06
-4.47811772481e-07
2.03869432751e-06
-4.15313514789e-07
2.08619556401e-06
-3.81002901427e-07
2.12887890151e-06
-3.4585351512e-07
2.16616567018e-06
-3.09985963915e-07
2.19764646947e-06
-2.72845843564e-07
2.22288085831e-06
-2.33524959398e-07
2.24131660352e-06
-1.91159492473e-07
2.25235561403e-06
-1.45240869524e-07
2.2553825661e-06
-9.5628404074e-08
2.2497470453e-06
-4.23582822072e-08
2.23458399822e-06
1.44121059951e-08
2.20853223541e-06
7.48416556424e-08
2.16918552016e-06
1.40377680118e-07
2.11316949544e-06
2.1482263959e-07
2.03789170126e-06
3.03399632534e-07
1.94401937426e-06
4.09480565765e-07
1.84166715319e-06
5.24080669844e-07
1.74132006024e-06
6.449284855e-07
1.64060539382e-06
7.84388408483e-07
1.53134908282e-06
9.41438257962e-07
1.42330741478e-06
1.08319954124e-06
1.33953163658e-06
1.19812220434e-06
1.27691092997e-06
1.31563879367e-06
1.21598516077e-06
1.45862979321e-06
9.28603606952e-07
1.52714290363e-06
5.68676539188e-07
1.35636106371e-06
4.12417360417e-07
1.05639773698e-06
3.13509860881e-07
9.32705418113e-07
2.64893648502e-07
8.33585530286e-07
2.44979878506e-07
7.44713857023e-07
2.03147575423e-07
7.19076260393e-07
1.44868282865e-07
7.19082213083e-07
8.57628717067e-08
6.95884267116e-07
3.83084403255e-08
6.34836814146e-07
-9.98296212516e-09
5.54231924134e-07
-4.50551803333e-08
4.73621133437e-07
-6.21637850895e-08
3.94854449668e-07
-4.18529347211e-08
3.39170091355e-07
3.08817155518e-07
4.10546104334e-08
-3.34868142336e-07
6.42938732318e-08
-3.79689852353e-07
4.79013579718e-08
-3.23922244302e-07
7.23498511511e-08
-2.71835177098e-07
1.23456963465e-07
-3.68697904476e-07
1.33168555657e-07
-3.85088058131e-07
1.54136548062e-07
-4.04631826981e-07
1.6925980392e-07
-4.00368625303e-07
1.94107349167e-07
-3.59527291504e-07
1.90031559954e-07
-3.43376786165e-07
2.24790910804e-07
-2.86319413109e-07
2.69765762804e-07
-3.05715915008e-07
3.21510549128e-07
-3.38278142514e-07
3.8756851925e-07
-4.29146708104e-07
4.34208724283e-07
-4.70859408569e-07
4.6222995482e-07
-4.43005692356e-07
5.17048098457e-07
-4.63909621359e-07
5.80126389075e-07
-5.10347553935e-07
6.38554375878e-07
-5.41334676365e-07
6.95376922327e-07
-5.53727113921e-07
7.51262883655e-07
-5.55951194872e-07
8.0441436422e-07
-5.50436001243e-07
8.49557551466e-07
-5.41670257114e-07
8.96318400106e-07
-5.35010744387e-07
9.51757766567e-07
-5.20565459377e-07
9.98126843417e-07
-5.17249218713e-07
1.04544029635e-06
-5.16313493325e-07
1.09203163706e-06
-5.151398216e-07
1.1629842325e-06
-5.34343289094e-07
1.23781755658e-06
-5.48644850122e-07
1.31727796509e-06
-5.63345508202e-07
1.39595342518e-06
-5.92659148669e-07
1.48073952046e-06
-6.32410512115e-07
1.55166568106e-06
-6.41598672556e-07
1.61721961433e-06
-6.3506677958e-07
1.68263524402e-06
-6.22159787347e-07
1.74760440952e-06
-6.05483913517e-07
1.81107030287e-06
-5.8586511216e-07
1.87258261983e-06
-5.63117253611e-07
1.93196405305e-06
-5.36187202825e-07
1.98877792789e-06
-5.04449613151e-07
2.04227139128e-06
-4.6862279267e-07
2.09158648574e-06
-4.30124872965e-07
2.13592819155e-06
-3.89992529827e-07
2.17458625199e-06
-3.48432076934e-07
2.20684459677e-06
-3.0488271548e-07
2.23192854343e-06
-2.58379375101e-07
2.24907106797e-06
-2.08061837982e-07
2.2575359113e-06
-1.53467390696e-07
2.25655709384e-06
-9.43915272213e-08
2.24512813873e-06
-3.06944134177e-08
2.22183992241e-06
3.79464957763e-08
2.18453532487e-06
1.12380767919e-07
2.13053842833e-06
1.94624563517e-07
2.0580888043e-06
2.87564969987e-07
1.96923720119e-06
3.9254746856e-07
1.86694648835e-06
5.12010846127e-07
1.76854950933e-06
6.22789989932e-07
1.68570189144e-06
7.28070753443e-07
1.60022628776e-06
8.70124457384e-07
1.48309462297e-06
1.0589146433e-06
1.35592468606e-06
1.2105989925e-06
1.27143323509e-06
1.28273678194e-06
1.2208547142e-06
1.3662534809e-06
1.20438601367e-06
1.47520717363e-06
1.10378765327e-06
1.62786980118e-06
7.0345412059e-07
1.75700399477e-06
2.92369803879e-07
1.46776900616e-06
1.87988337796e-07
1.03735876072e-06
1.56803026315e-07
8.64944426957e-07
1.68810582832e-07
7.32799465123e-07
1.56461331709e-07
7.31550799826e-07
1.0860416485e-07
7.67144378994e-07
4.45195325505e-08
7.60266149883e-07
-2.38790209134e-08
7.03582128591e-07
-8.67303798203e-08
6.17421672243e-07
-1.19917992737e-07
5.0732959386e-07
-1.11536208161e-07
3.87029608054e-07
-6.78575212366e-08
2.95320124547e-07
2.41336471277e-07
3.51108877616e-08
-3.69582154996e-07
5.3576204039e-08
-3.97810515415e-07
4.49451909856e-08
-3.15027280433e-07
8.14182624339e-08