/*--------------------------------*- C++ -*----------------------------------*\
| =========                 |                                                 |
| \\      /  F ield         | OpenFOAM: The Open Source CFD Toolbox           |
|  \\    /   O peration     | Version:  v1806                                 |
|   \\  /    A nd           | Web:      www.OpenFOAM.com                      |
|    \\/     M anipulation  |                                                 |
\*---------------------------------------------------------------------------*/
FoamFile
{
    version     2.0;
    format      ascii;
    class       volScalarField;
    location    "346";
    object      pa;
}
// * * * * * * * * * * * * * * * * * * * * * * * * * * * * * * * * * * * * * //

dimensions      [0 2 -2 0 0 0 0];


internalField   nonuniform List<scalar> 
6400
(
-0.12644469652
-0.126446130375
-0.126450127789
-0.126457788716
-0.126468838183
-0.126483151114
-0.126500793991
-0.126522501016
-0.126548497705
-0.12657905136
-0.126617599648
-0.12666602187
-0.126722417848
-0.126786968019
-0.12686108058
-0.126946402886
-0.127043742067
-0.127152943149
-0.12727321116
-0.127401594065
-0.127534122419
-0.127671067938
-0.1278166566
-0.127975830563
-0.128152196171
-0.128345986289
-0.128554992587
-0.128777752771
-0.129014555845
-0.129266483935
-0.129534570517
-0.129818113098
-0.130112883045
-0.130414606539
-0.130722025926
-0.13103242204
-0.131345398418
-0.131667854894
-0.131999245142
-0.132330142102
-0.132661954541
-0.133009231227
-0.133380216809
-0.133767829666
-0.13416349686
-0.134562094318
-0.134959688514
-0.135353980744
-0.135743019379
-0.13612537337
-0.136500589813
-0.136864245648
-0.137209089355
-0.137523870724
-0.137808927058
-0.138075064791
-0.138318969551
-0.13852696063
-0.138693636353
-0.138828778518
-0.13893832695
-0.139024714648
-0.139085984573
-0.139138598377
-0.139209967146
-0.139316324598
-0.139449550316
-0.139580757465
-0.139689059493
-0.139773105158
-0.139838522067
-0.139891468581
-0.139935988773
-0.139972084726
-0.140001454029
-0.140024872054
-0.140042777553
-0.14005380029
-0.14006046426
-0.140063229796
-0.126442637456
-0.126444153041
-0.126447707591
-0.126455204523
-0.126467163121
-0.126482378106
-0.126500309031
-0.126521021465
-0.126545874095
-0.126576405218
-0.126614714516
-0.126662315228
-0.126718788492
-0.12678388373
-0.126858082556
-0.126942411014
-0.127039200855
-0.127148755997
-0.127269955051
-0.127398997108
-0.127530161468
-0.127665408617
-0.127810293549
-0.12796901501
-0.128145403017
-0.128339647908
-0.128548596218
-0.128771528996
-0.129008861668
-0.129261160959
-0.129528873127
-0.129812375251
-0.130107821555
-0.130409272978
-0.130716714079
-0.1310271656
-0.131339496484
-0.131662124593
-0.131994284134
-0.132324938938
-0.1326534954
-0.132999401848
-0.133374517851
-0.133765107913
-0.134161921916
-0.134561829664
-0.134960592883
-0.135356382922
-0.135746545727
-0.136127555108
-0.136498950546
-0.136862773548
-0.137216266438
-0.137533972028
-0.137820560823
-0.138091661063
-0.138332518138
-0.138534758282
-0.138701416866
-0.138836223766
-0.138941579269
-0.139028801038
-0.139093777749
-0.139148954321
-0.139222030656
-0.139328999969
-0.13946401294
-0.139594678025
-0.139701495225
-0.139784497331
-0.139848975259
-0.13990120822
-0.139945253914
-0.139980900949
-0.14000898639
-0.140030761791
-0.1400466531
-0.140056716849
-0.140062861323
-0.140064855104
-0.126436884744
-0.126439401339
-0.126442477578
-0.126449310831
-0.126460858799
-0.126477963225
-0.126497603396
-0.126517599845
-0.126540947731
-0.126570571948
-0.126608289493
-0.126655281895
-0.126711585754
-0.126776819836
-0.126850802882
-0.126932524296
-0.127027371055
-0.127140522778
-0.127263808092
-0.127391922781
-0.127520086553
-0.127650809093
-0.127794058767
-0.12795417243
-0.128130613813
-0.128323906319
-0.128533237992
-0.128757063053
-0.128995019986
-0.129247731322
-0.129515403034
-0.129798940424
-0.130095842653
-0.130396060347
-0.130701301039
-0.131013564791
-0.131325066187
-0.13164523519
-0.131977690883
-0.132310439772
-0.132644976435
-0.132994632458
-0.133366725648
-0.133754947624
-0.13415160348
-0.134552097998
-0.134952759702
-0.135350860589
-0.13574373165
-0.136128831883
-0.136504716079
-0.136869382729
-0.137216516042
-0.137537701203
-0.137835866056
-0.138108706947
-0.138345931785
-0.138546453919
-0.138712730175
-0.138847877368
-0.138956453723
-0.139043813677
-0.139110042362
-0.139171704705
-0.139252448044
-0.13936391693
-0.139494310624
-0.139620241635
-0.139726180983
-0.139808772716
-0.139872611132
-0.139923404407
-0.139964109109
-0.13999598659
-0.140021399402
-0.140040728746
-0.140053967926
-0.140062235374
-0.14006718642
-0.140068873805
-0.126429015535
-0.126431507394
-0.126433875807
-0.126440107421
-0.126450161124
-0.126466971076
-0.126492360633
-0.126512246334
-0.126533672356
-0.12656174592
-0.126598539683
-0.126645012092
-0.12670119117
-0.126765746949
-0.126839205226
-0.126924010428
-0.127021774738
-0.127132821963
-0.127250703769
-0.127370388682
-0.127494496545
-0.127627075018
-0.127771356994
-0.127930915717
-0.128107352175
-0.128300965244
-0.128510955953
-0.128735641261
-0.128974491812
-0.129227613119
-0.129496097208
-0.129779926134
-0.13007681192
-0.130379890893
-0.130681484957
-0.130988835755
-0.131303647124
-0.131622450576
-0.131949596737
-0.13228416114
-0.132625744791
-0.132980602495
-0.133353400599
-0.133741228515
-0.134138480533
-0.134540533448
-0.134943635545
-0.135344749438
-0.135741116006
-0.13613017775
-0.136509643316
-0.136876476161
-0.137225752137
-0.137552441872
-0.137854677761
-0.138127543136
-0.138364558659
-0.138564863658
-0.138731196524
-0.138867409457
-0.138978230811
-0.139068432209
-0.139142975852
-0.139217173452
-0.139303162178
-0.13941085769
-0.139539182887
-0.139663468007
-0.139767872002
-0.139848734695
-0.139909223499
-0.13995442957
-0.139989255556
-0.1400179643
-0.140040849146
-0.140056471051
-0.140065833771
-0.140072011749
-0.1400761144
-0.140077765736
-0.126416787615
-0.126417040343
-0.126419964082
-0.12642624359
-0.126437264504
-0.126452704933
-0.126475340746
-0.12649759353
-0.126520453849
-0.126548743414
-0.126584756018
-0.126630795112
-0.12668698218
-0.126754434598
-0.126832329311
-0.12691738553
-0.127010986001
-0.127113384157
-0.127223102583
-0.127339905104
-0.12746410103
-0.127596583432
-0.127740833275
-0.127900439205
-0.128076884545
-0.128270827777
-0.128481224921
-0.128706908041
-0.128946771889
-0.129201093224
-0.129469927269
-0.129755713809
-0.130055840123
-0.130354460989
-0.13065395495
-0.130958242279
-0.131267675529
-0.131586189351
-0.131914609507
-0.132252191564
-0.132599139101
-0.132958721776
-0.133333691876
-0.133722609392
-0.134121429833
-0.134525895086
-0.134932214994
-0.135337163046
-0.135737881509
-0.136131685133
-0.136515809768
-0.136886851824
-0.137240509092
-0.137572406813
-0.137878421924
-0.138152772771
-0.138390628789
-0.138591880575
-0.138759728553
-0.138898640997
-0.139013696304
-0.139110373782
-0.139196364343
-0.139282376863
-0.139370857887
-0.139477657554
-0.139603573942
-0.139725237982
-0.139826903318
-0.139903601978
-0.139957321966
-0.13999515146
-0.140025874158
-0.14005176311
-0.140069600263
-0.140079785785
-0.14008537038
-0.140089868302
-0.140092000378
-0.140092422517
-0.126393971089
-0.126393657192
-0.126398903799
-0.126405171848
-0.126417028619
-0.126433389211
-0.126454126441
-0.126476677985
-0.126501512344
-0.126530679315
-0.126565466841
-0.126611395921
-0.12667228964
-0.126744026799
-0.126821018163
-0.126902162993
-0.126989288324
-0.127085215613
-0.127191099499
-0.127305711278
-0.127427443092
-0.127558673184
-0.127702821147
-0.127862676382
-0.128039355093
-0.128232954101
-0.128444155024
-0.128670637962
-0.128912076001
-0.129167598343
-0.129438582229
-0.129724805946
-0.130022464816
-0.130324240272
-0.130617992219
-0.13091474289
-0.131222106032
-0.1315414924
-0.131872153705
-0.132213244152
-0.132564974086
-0.13292918859
-0.133307436224
-0.13369881881
-0.134100305725
-0.13450810137
-0.134918486887
-0.135328154004
-0.135734183003
-0.136133788634
-0.136523961611
-0.136901115977
-0.13726098243
-0.137598784811
-0.137909156006
-0.138186330364
-0.138426770242
-0.13863113204
-0.138802914639
-0.138946870264
-0.139068367503
-0.139173909814
-0.139273948467
-0.139367172903
-0.139458814965
-0.139568620173
-0.139694905899
-0.139812487948
-0.139907690801
-0.139975489234
-0.140019737855
-0.140051772999
-0.14007923531
-0.140098491927
-0.140108465984
-0.140112063159
-0.140113673485
-0.140114027255
-0.140113002906
-0.140112376193
-0.126359097204
-0.126361546876
-0.126370649037
-0.126380042211
-0.126389564467
-0.126405774535
-0.126427611769
-0.126450600527
-0.126476788287
-0.126506886534
-0.126543589278
-0.126590337906
-0.126654770693
-0.126725655697
-0.126799410259
-0.126875138027
-0.12695754597
-0.12705116725
-0.127155123382
-0.127265264476
-0.1273838065
-0.127514132823
-0.127657816033
-0.127817120223
-0.127993736954
-0.128188977206
-0.128398933893
-0.128626606618
-0.128869798571
-0.129129274597
-0.129401540066
-0.129686031821
-0.129982675252
-0.130277186659
-0.130567733341
-0.130861370808
-0.131168140072
-0.131488924783
-0.131822184693
-0.132166861394
-0.132523113104
-0.132892034349
-0.13327440099
-0.133669441326
-0.134074718649
-0.134486847964
-0.13490226009
-0.135317677579
-0.13573019149
-0.136136971264
-0.136534850339
-0.136920008697
-0.137287820501
-0.137632845896
-0.137949106404
-0.138231282494
-0.138476921721
-0.138687253583
-0.138865751974
-0.139016894381
-0.139146590679
-0.139263078327
-0.139372947183
-0.139472860688
-0.139578496729
-0.139692455138
-0.139817272597
-0.139926760128
-0.140010403413
-0.140066529377
-0.140102867255
-0.140130790293
-0.140150753948
-0.140158901311
-0.140158516786
-0.140153791605
-0.140148978504
-0.140142906043
-0.140137292413
-0.140135041044
-0.126318369469
-0.126323404102
-0.126333962456
-0.126347860265
-0.126358060933
-0.126374602151
-0.126395452985
-0.126419189746
-0.126447182369
-0.126475392133
-0.126515696862
-0.126568323179
-0.126630857526
-0.126699129547
-0.126768071771
-0.126838542154
-0.126919375245
-0.127012503969
-0.127112166425
-0.127217836041
-0.127333469865
-0.127462416823
-0.127605431141
-0.12776502204
-0.127942177395
-0.128137158195
-0.128348952253
-0.128573130833
-0.128820810961
-0.129086028286
-0.129357459792
-0.129635702527
-0.129928739074
-0.130217980814
-0.130503613804
-0.130798176131
-0.1311061303
-0.131428469815
-0.131764283749
-0.132112564259
-0.132473294806
-0.132847118297
-0.133234324245
-0.133634079423
-0.134044254159
-0.134461789048
-0.134883323837
-0.135305714699
-0.135726135418
-0.136141748773
-0.1365492428
-0.136944479922
-0.137322295037
-0.137676617702
-0.138001260749
-0.138291529671
-0.13854576633
-0.138765150699
-0.138952254253
-0.139110803706
-0.13924768108
-0.139372306428
-0.13949118869
-0.139607719652
-0.139726513639
-0.139850541956
-0.139971084317
-0.140069987712
-0.140140591008
-0.140185807906
-0.140215357383
-0.140235468421
-0.140241349548
-0.140234171897
-0.140219826239
-0.14020354646
-0.140187648115
-0.140173196047
-0.140161939876
-0.140156822119
-0.126274060697
-0.126280731213
-0.126291350128
-0.126302367392
-0.126315861342
-0.126336765857
-0.126356936042
-0.126380854126
-0.1264120363
-0.126442340521
-0.126479710499
-0.126536216778
-0.126599232859
-0.126663373014
-0.126728068171
-0.126797341729
-0.12687608794
-0.12696605217
-0.12706156084
-0.127164047895
-0.127277002425
-0.127403457595
-0.12754429279
-0.127702865376
-0.127884229386
-0.128077417733
-0.128290554241
-0.12851941476
-0.128764816848
-0.129028104331
-0.129301526822
-0.12958334397
-0.129861626613
-0.130143214323
-0.130429427053
-0.130725847332
-0.131035536378
-0.131359636902
-0.131697963933
-0.132049849043
-0.132415152259
-0.13279416466
-0.133186850523
-0.133592275059
-0.134008437611
-0.134432519542
-0.13486142337
-0.135292231256
-0.135722253521
-0.136148663902
-0.136568004155
-0.136975769622
-0.137366229056
-0.137732806714
-0.138069337267
-0.138371654323
-0.138638209018
-0.138868985453
-0.139064475836
-0.139228271459
-0.139370371211
-0.139503849702
-0.139636348178
-0.13976951372
-0.139901846655
-0.140041143687
-0.140167176233
-0.140250810889
-0.140307365879
-0.140342315757
-0.140362919627
-0.140367952991
-0.140353528377
-0.140325328631
-0.140291540108
-0.140257859217
-0.140226520009
-0.140201160201
-0.140183548637
-0.140175281577
-0.126225671399
-0.126233512724
-0.126245718138
-0.126256025598
-0.126270324916
-0.126291171802
-0.126311513164
-0.126334858964
-0.126364441766
-0.126402704464
-0.126441335195
-0.126496543579
-0.126558813941
-0.126619449056
-0.126679633927
-0.126749045292
-0.126828202798
-0.126913279641
-0.12700378546
-0.127103200452
-0.127214308951
-0.127338769489
-0.127477407368
-0.127632089594
-0.127815598795
-0.12801334458
-0.12821883566
-0.12845187983
-0.128697705972
-0.128962799539
-0.12923516066
-0.129511752669
-0.129785859253
-0.130060240762
-0.13034582974
-0.130644132767
-0.130955827749
-0.131281907185
-0.131622744677
-0.131978186268
-0.132348170706
-0.132732720344
-0.133131504927
-0.133543473607
-0.133966696769
-0.134398553695
-0.134836237421
-0.135277135812
-0.135718748584
-0.136158273977
-0.136592106509
-0.137015400048
-0.137421915865
-0.137804727949
-0.138157720845
-0.138476757576
-0.138759115482
-0.139001313979
-0.139201547285
-0.139367671993
-0.139516763913
-0.139664713057
-0.139814981156
-0.13996470309
-0.140112044347
-0.140256813888
-0.140384806868
-0.140478673444
-0.140521307908
-0.140544052016
-0.140550611197
-0.140533386071
-0.140491289142
-0.140433083965
-0.140371840711
-0.140313873494
-0.140262646142
-0.140223333958
-0.140198850569
-0.140187842316
-0.126171215712
-0.126178739327
-0.126191595538
-0.126204264307
-0.12622260212
-0.126239631056
-0.126259348395
-0.12628300769
-0.126307235132
-0.126348449074
-0.126392954948
-0.126447227843
-0.126508289734
-0.126567635978
-0.126625821196
-0.12669320893
-0.126771346333
-0.12685264226
-0.126938822473
-0.127034309957
-0.12714310864
-0.127266637796
-0.127406509519
-0.127557915022
-0.127733402962
-0.127939102466
-0.128147515908
-0.128376296751
-0.128620631611
-0.128875210302
-0.12915157146
-0.129426321112
-0.129695460137
-0.129967288008
-0.130252966058
-0.130552792438
-0.130866480949
-0.131194735004
-0.131538153963
-0.131897064198
-0.132271758909
-0.132662167801
-0.133067647469
-0.133486987831
-0.133918319825
-0.134359248194
-0.134807305929
-0.135260228222
-0.13571574065
-0.13617108978
-0.136622574145
-0.137065072636
-0.137492016874
-0.137896261947
-0.138271518494
-0.138612511647
-0.138912352911
-0.139161281872
-0.139360607312
-0.139530650025
-0.139695540238
-0.139867614207
-0.140039090447
-0.140204526286
-0.140360822692
-0.14050327462
-0.140627912572
-0.140735550672
-0.140785933769
-0.140802113494
-0.140789331928
-0.140742906193
-0.140661744894
-0.14055732096
-0.140457190263
-0.140368346885
-0.140290988353
-0.140233397128
-0.140201976137
-0.140190815791
-0.126109304133
-0.126115081573
-0.12612425445
-0.12614084318
-0.126164255594
-0.12618019182
-0.126199537928
-0.126225037539
-0.126247308742
-0.126284914364
-0.126333445292
-0.126387827477
-0.126446991357
-0.126505746717
-0.126566156096
-0.126632183111
-0.126706942085
-0.126784202465
-0.12686671312
-0.126958069193
-0.12706223147
-0.127181875334
-0.127325784434
-0.127482980761
-0.127649904036
-0.127851434259
-0.128063977883
-0.128284965134
-0.128535174262
-0.128790607384
-0.129055268389
-0.129321621288
-0.129587947752
-0.129862747024
-0.130149876134
-0.130451134101
-0.13076679311
-0.131097419342
-0.131443645198
-0.131805993729
-0.132185273232
-0.132581730188
-0.132994466159
-0.133421956228
-0.133862399922
-0.134313739642
-0.13477393016
-0.135241080966
-0.135713144707
-0.136187476007
-0.136660331624
-0.137126512441
-0.137579428147
-0.138011898695
-0.138416706142
-0.138784258488
-0.139098798134
-0.139346349363
-0.139542333021
-0.139725685411
-0.139924784722
-0.140135696533
-0.140329370208
-0.140508784362
-0.140670838781
-0.140808977105
-0.140922976035
-0.141019039297
-0.141095170469
-0.141121955522
-0.141102795028
-0.141020544061
-0.140881493752
-0.14069657706
-0.140540812413
-0.140415901123
-0.140301984778
-0.140217986896
-0.140184624346
-0.140180904489
-0.126039841822
-0.126043931955
-0.126047947753
-0.126066568513
-0.126089300474
-0.126108344538
-0.126128901093
-0.126156284158
-0.126181119955
-0.126216373072
-0.126265305911
-0.126318851537
-0.126375528312
-0.126431189689
-0.126494236734
-0.126562776519
-0.126634305702
-0.126707690635
-0.126786931326
-0.126874841219
-0.126973872284
-0.127086488245
-0.127226607831
-0.127395541742
-0.127563387655
-0.127751332465
-0.127969301172
-0.128189831046
-0.128427856998
-0.128683707758
-0.128945302818
-0.129206878784
-0.129469839203
-0.129746012864
-0.130035171445
-0.130338263056
-0.130655944653
-0.130988924943
-0.131338247042
-0.131704405104
-0.132088247237
-0.132490638826
-0.132910923142
-0.133347256659
-0.133797763506
-0.134260843855
-0.134735041881
-0.13521886614
-0.135710495446
-0.136207397336
-0.136705946558
-0.137201180404
-0.137687110077
-0.138156620323
-0.138599430056
-0.138995035081
-0.139317978991
-0.139558641846
-0.139751302839
-0.139967297331
-0.140233575906
-0.140502710139
-0.14071070473
-0.14090366226
-0.141066754819
-0.141186553756
-0.141271428039
-0.14134074813
-0.141417734054
-0.141474740126
-0.141484352865
-0.141378233328
-0.141152032073
-0.140827334719
-0.140604115743
-0.140453532933
-0.140282310495
-0.140151820784
-0.140133980359
-0.14016252613
-0.125963579547
-0.125968183372
-0.125974822766
-0.125986880439
-0.126005696192
-0.126026420727
-0.126048569039
-0.126076028529
-0.126105938807
-0.126140191215
-0.12618859721
-0.126240882802
-0.126295417372
-0.126348239775
-0.12640883189
-0.126479704654
-0.126550669655
-0.126621986805
-0.126698530981
-0.126783432912
-0.126878388971
-0.126984478574
-0.127116977038
-0.127289249867
-0.127465349006
-0.127645479035
-0.127861182101
-0.128084745801
-0.128312661781
-0.128561559608
-0.128814632555
-0.129071637331
-0.129338070722
-0.129616617544
-0.129907866091
-0.130212994856
-0.130533146412
-0.130868712857
-0.131220889104
-0.13159103548
-0.131979885758
-0.13238827191
-0.132816055312
-0.133261533477
-0.133722844601
-0.134198908298
-0.134689021657
-0.13519214371
-0.135706579563
-0.136230041167
-0.136759158469
-0.137289813831
-0.137817590333
-0.138335456853
-0.138825035977
-0.139242357702
-0.139572209984
-0.139812609579
-0.139997718273
-0.140277912917
-0.140688436438
-0.141117988567
-0.141275041508
-0.14146942926
-0.1416140518
-0.1417169315
-0.14180821302
-0.1418864864
-0.141954789169
-0.142037762026
-0.142315112802
-0.142236695676
-0.141849764146
-0.141018568386
-0.140604470756
-0.140477045155
-0.140193914512
-0.139968564945
-0.140028400495
-0.140161934236
-0.125878668357
-0.125883784875
-0.125895210454
-0.125901139183
-0.125915684218
-0.12593629321
-0.125959425791
-0.125987916706
-0.126023932935
-0.126056351031
-0.126103300351
-0.12615427267
-0.126207214621
-0.12625886107
-0.126317071229
-0.126387017845
-0.126457013426
-0.126526969952
-0.126601273882
-0.126683115476
-0.126774536544
-0.126876201223
-0.126998915667
-0.127164469637
-0.127352794679
-0.127532881194
-0.127734815514
-0.127966443022
-0.128197153073
-0.128427654841
-0.128671017446
-0.128925349778
-0.129192784679
-0.129473323142
-0.129766880344
-0.13007439145
-0.130396942085
-0.130735575677
-0.131091083672
-0.131464986806
-0.131858914847
-0.132273608127
-0.132708902256
-0.133163401935
-0.133635707387
-0.134125649185
-0.134633442531
-0.135158475873
-0.135699101832
-0.136253158
-0.136818079367
-0.137391657255
-0.137972226063
-0.138552716114
-0.139094895033
-0.139514234513
-0.139904286426
-0.140231826467
-0.140317242605
-0.140672131544
-0.141064589537
-0.14078368758
-0.140483170899
-0.140300054216
-0.140110654468
-0.139915219123
-0.139702890225
-0.139541139254
-0.139501782263
-0.139536165764
-0.139494878638
-0.139381116395
-0.139117460245
-0.139200748365
-0.140287349072
-0.140972880226
-0.14037729233
-0.139572164683
-0.139839221322
-0.140272738474
-0.12578348567
-0.125787990216
-0.125797719946
-0.125804148516
-0.12581661016
-0.125837228406
-0.125860209673
-0.125887275671
-0.125928355318
-0.125963240378
-0.126008675031
-0.126058696554
-0.126110809224
-0.126162600128
-0.126219266437
-0.126286687019
-0.126354747699
-0.126423279033
-0.126495406906
-0.126574140703
-0.126661666395
-0.126759527171
-0.126874767257
-0.127029999656
-0.127222052497
-0.127410137411
-0.127598967279
-0.127818897099
-0.12805375089
-0.128283090044
-0.128517783375
-0.128767519211
-0.129034278196
-0.129316138215
-0.129611792589
-0.129921452554
-0.130246604568
-0.130588202391
-0.130947468994
-0.131325533401
-0.131724403886
-0.132145438214
-0.132588374421
-0.133051529605
-0.133534057384
-0.134037746859
-0.134564717934
-0.135114439191
-0.135683938324
-0.136271626182
-0.136877857854
-0.137502868002
-0.138148856525
-0.138808297684
-0.139388938758
-0.139800352832
-0.140290303999
-0.140085780249
-0.139688474595
-0.139412228295
-0.139328540899
-0.139121459461
-0.138479984684
-0.137618687187
-0.136624452181
-0.135585264229
-0.134575708573
-0.133727252785
-0.133188188457
-0.133022488571
-0.133122709118
-0.133376666806
-0.133744273062
-0.134432249017
-0.135371672498
-0.136202901604
-0.136501590976
-0.137699584656
-0.139371431747
-0.140829533184
-0.125679467066
-0.125683295117
-0.125692717247
-0.125698491728
-0.125710377695
-0.125730233262
-0.125752566044
-0.12577638154
-0.125816063834
-0.125856755554
-0.125903103444
-0.125952910599
-0.126005018699
-0.126058865613
-0.126113830001
-0.1261784213
-0.126244162941
-0.126311237613
-0.126381065031
-0.126456625497
-0.126540008685
-0.126633226235
-0.126741955607
-0.126885771943
-0.127071267772
-0.127271953705
-0.127458843746
-0.12766291072
-0.127886568697
-0.128112928781
-0.128344239197
-0.128593559339
-0.128860279332
-0.129143144742
-0.129441025627
-0.129753390531
-0.130081066308
-0.130425871528
-0.13078893628
-0.131171582116
-0.131575609254
-0.132002637308
-0.132452952148
-0.132924463719
-0.133415935076
-0.133932179072
-0.134478726632
-0.135054253037
-0.135653235121
-0.136276585306
-0.136929386173
-0.137615047551
-0.138338788094
-0.13909102267
-0.139827857952
-0.139592971329
-0.139370525977
-0.139092783859
-0.138428165221
-0.137623534876
-0.136817782102
-0.135971454798
-0.13478842644
-0.1333330711
-0.131694098412
-0.130001958414
-0.128369408225
-0.126932822333
-0.12583989032
-0.125197351754
-0.124960265913
-0.125008651439
-0.125291034294
-0.126037586129
-0.127533698607
-0.129521048189
-0.131205182734
-0.133392010997
-0.139659759621
-0.140910711913
-0.12556812192
-0.125570932999
-0.125577337812
-0.12558375585
-0.125597498649
-0.12561641972
-0.125638707523
-0.12566042248
-0.125697415197
-0.125740191877
-0.125786812691
-0.125835911572
-0.125887034001
-0.125943924135
-0.125998691957
-0.126060455151
-0.126123951045
-0.126190138467
-0.126257763014
-0.126330152552
-0.126409262625
-0.126497195294
-0.126599332743
-0.126732336871
-0.126907519522
-0.127111705796
-0.127307733104
-0.127502067574
-0.127710742075
-0.127927096451
-0.128154340524
-0.128402085289
-0.128668045072
-0.128951547449
-0.129251831973
-0.129567465347
-0.129898812584
-0.130247143493
-0.130614612594
-0.131002084416
-0.131411378561
-0.131844802502
-0.132302571421
-0.132781920331
-0.133278381032
-0.133799398805
-0.134361953985
-0.134967435874
-0.135597595044
-0.136254408001
-0.136954537866
-0.137701059269
-0.13849005166
-0.139341350555
-0.139048720454
-0.138643805664
-0.138165885118
-0.137496247648
-0.136515164038
-0.13529008043
-0.133885022918
-0.132350183851
-0.13064422141
-0.128818802357
-0.126916485251
-0.125018751684
-0.123197330325
-0.12152624664
-0.12007865158
-0.118932307575
-0.118138033335
-0.117625867363
-0.117393835311
-0.11761744169
-0.118631608076
-0.120616120792
-0.123420817283
-0.127201724781
-0.133025321694
-0.142264505638
-0.125451152995
-0.125453065247
-0.125456020171
-0.125463490077
-0.125478595906
-0.12549624844
-0.125517964701
-0.12553991754
-0.125572733722
-0.125615019965
-0.12566058582
-0.125708059259
-0.125756544014
-0.12581260392
-0.125870381539
-0.125930646472
-0.125991988117
-0.126057202241
-0.126123780362
-0.126193601641
-0.12626875526
-0.126350757785
-0.126446093867
-0.126568486383
-0.126729766473
-0.126924806406
-0.127128778522
-0.127322588089
-0.127521406024
-0.127729272289
-0.127948749051
-0.128192352557
-0.128457455881
-0.128739521022
-0.129042159998
-0.129361580482
-0.129696502033
-0.130049486455
-0.130422459054
-0.130816418797
-0.131231931085
-0.13167126067
-0.132135277395
-0.132622115964
-0.133127581848
-0.133656322896
-0.134223708834
-0.134830353923
-0.135478556222
-0.136173498604
-0.136922782054
-0.137723022268
-0.138614746988
-0.138090101143
-0.137559044712
-0.137133187479
-0.1363645752
-0.135235406598
-0.133793155812
-0.132099273123
-0.130191470255
-0.128127508683
-0.125950825299
-0.123712568038
-0.121431382548
-0.119142369899
-0.116884365506
-0.114704688132
-0.112654624971
-0.11080573993
-0.109247029027
-0.107977809424
-0.106984666719
-0.106382172628
-0.106450746806
-0.107673016832
-0.110420111484
-0.114029949074
-0.116737182094
-0.119262526875
-0.125329346625
-0.125330831796
-0.125332354799
-0.125341204941
-0.125355246677
-0.12537047961
-0.125389221013
-0.125412271548
-0.125440654266
-0.125481021726
-0.125524871486
-0.125570358353
-0.125616414474
-0.12566868128
-0.125728287144
-0.12578840829
-0.125848126565
-0.125911277695
-0.125976805761
-0.126045044195
-0.12611731218
-0.126193297631
-0.126281363669
-0.12639356123
-0.126540518341
-0.126721703112
-0.126921227938
-0.127116593956
-0.12730691259
-0.12750681995
-0.127723315789
-0.127959381792
-0.128220862014
-0.128503159995
-0.128808860814
-0.129132627282
-0.129471904432
-0.129830288
-0.130209735671
-0.130611433461
-0.131035486937
-0.131482935406
-0.131956938041
-0.132457531898
-0.132977118163
-0.13350623747
-0.134056761589
-0.134644778945
-0.135305735424
-0.136044812879
-0.136838250988
-0.137734731763
-0.136867135316
-0.136104749878
-0.135696855151
-0.135002285083
-0.133789073479
-0.132172817391
-0.130227738717
-0.128031874699
-0.125628806831
-0.123065085369
-0.120375665106
-0.117588154271
-0.114710529218
-0.111762637861
-0.10877583838
-0.105792911148
-0.102857940969
-0.100021468107
-0.0973498889869
-0.0948860956163
-0.0925113589464
-0.0901678300617
-0.0880501004772
-0.0868272691928
-0.0869196743163
-0.085116390385
-0.0730196636558
-0.0557221548265
-0.12520150973
-0.125202792083
-0.125204131501
-0.1252147044
-0.125227155105
-0.125239544976
-0.125254249744
-0.125277172775
-0.125300093408
-0.125337693129
-0.125379656749
-0.125423022515
-0.125467001154
-0.125516435484
-0.125574692047
-0.125634266834
-0.125692780337
-0.125753605635
-0.125816517331
-0.125882876082
-0.125953067972
-0.126023580277
-0.126103478386
-0.126205687673
-0.126338801624
-0.126504439089
-0.126694557158
-0.126887674916
-0.127079442615
-0.12726883919
-0.127478737242
-0.127709658808
-0.127964028431
-0.128238895031
-0.128543467128
-0.128874921256
-0.129221499233
-0.129587458626
-0.129974294693
-0.130384665628
-0.13082000871
-0.131280772356
-0.131772425083
-0.132293803456
-0.132821684628
-0.133340780288
-0.133863319528
-0.134411733093
-0.135104719372
-0.135921967454
-0.136940649933
-0.135589754166
-0.134454227364
-0.134012679722
-0.133393594951
-0.132201552697
-0.130465898176
-0.128328223194
-0.125862979309
-0.123143202371
-0.120211844564
-0.117105891083
-0.113848343275
-0.110455362136
-0.106937476125
-0.103315264849
-0.0996164613846
-0.0958695052684
-0.0920893852672
-0.0882749174989
-0.0844257937073
-0.0805308795198
-0.0763772724378
-0.0716635223194
-0.0664002740262
-0.0611309611817
-0.0555587510933
-0.0432215246066
-0.00900959134177
0.0408568859768
-0.125064850439
-0.12506587161
-0.125068004135
-0.125080519687
-0.125091537498
-0.125101366281
-0.12511333546
-0.125133956726
-0.125151111746
-0.125184997001
-0.125224712478
-0.125265639927
-0.125307291799
-0.125353700131
-0.125409163992
-0.12546739824
-0.125525409394
-0.125583595539
-0.125642704223
-0.125706046151
-0.125773924843
-0.125839845765
-0.125910437785
-0.126002469617
-0.126122519797
-0.126271551134
-0.126447707003
-0.126629952158
-0.12682234817
-0.127011811265
-0.127211816111
-0.127431174639
-0.127680776828
-0.127956114205
-0.12825252469
-0.12858353267
-0.12893878898
-0.129314364489
-0.129712885707
-0.130134717706
-0.130583166779
-0.131065174967
-0.131587076088
-0.132133364649
-0.132666469201
-0.133172389081
-0.133661458291
-0.13409031167
-0.134802840487
-0.135943373124
-0.134409267569
-0.132977140991
-0.132349892313
-0.131715439817
-0.130556952281
-0.128770585408
-0.126469501386
-0.123782139008
-0.120784267985
-0.117539690257
-0.114088850235
-0.110466438713
-0.106696854613
-0.102799062202
-0.0987876767481
-0.094677322454
-0.0904766656952
-0.0861804683373
-0.0817578254515
-0.0771436006876
-0.0722375165582
-0.0669030691102
-0.0609279826187
-0.0538564729827
-0.0455139196088
-0.0361513308916
-0.0241837446221
-0.000473848331995
0.0508616269499
0.115505705232
-0.124915310296
-0.124916090659
-0.124919004617
-0.124933186126
-0.124942416139
-0.124951367088
-0.124961417387
-0.124978127743
-0.124991243257
-0.125022276994
-0.12505956814
-0.125097687991
-0.125136571958
-0.125179336583
-0.125230711113
-0.125285917887
-0.125343857321
-0.125399256364
-0.125454200488
-0.125513432497
-0.125577234645
-0.125640105336
-0.125701353786
-0.125781805086
-0.125889519808
-0.12602233602
-0.126182046717
-0.126349226105
-0.126529845743
-0.126722333159
-0.12692234698
-0.127131989241
-0.127363612729
-0.12763281133
-0.127932833365
-0.12826179695
-0.128621724507
-0.129006440007
-0.129417380983
-0.129855499242
-0.130325235729
-0.130839650259
-0.131401053822
-0.131975737606
-0.132531061268
-0.133053579688
-0.133520614349
-0.133428083429
-0.134673319497
-0.133288809095
-0.13165341307
-0.130863302523
-0.130150509946
-0.128982631393
-0.127175550601
-0.124761890525
-0.121878083723
-0.118642572482
-0.115132560106
-0.111408110111
-0.107510853592
-0.103476130508
-0.0993296409433
-0.095088089247
-0.0907566761764
-0.0863276833046
-0.0817748514379
-0.0770485669646
-0.0720704280058
-0.0667234731929
-0.0608302583209