/*--------------------------------*- C++ -*----------------------------------*\
| =========                 |                                                 |
| \\      /  F ield         | OpenFOAM: The Open Source CFD Toolbox           |
|  \\    /   O peration     | Version:  v1806                                 |
|   \\  /    A nd           | Web:      www.OpenFOAM.com                      |
|    \\/     M anipulation  |                                                 |
\*---------------------------------------------------------------------------*/
FoamFile
{
    version     2.0;
    format      ascii;
    class       volVectorField;
    location    "346";
    object      Ua;
}
// * * * * * * * * * * * * * * * * * * * * * * * * * * * * * * * * * * * * * //

dimensions      [0 1 -1 0 0 0 0];


internalField   nonuniform List<vector> 
6400
(
(5.24658784259e-05 7.19042320226e-05 0)
(0.000145531405568 5.6667339993e-05 0)
(0.000213996228964 4.76319814575e-05 0)
(0.000292563409207 4.39594865193e-05 0)
(0.000349662808852 2.87494597956e-05 0)
(0.000390328431503 1.59387876094e-05 0)
(0.000408495692968 1.10015790222e-05 0)
(0.000421362031572 1.81277004519e-05 0)
(0.000475040666764 2.7749053197e-05 0)
(0.000532495646742 2.73044018463e-05 0)
(0.000551084396639 2.45045499156e-05 0)
(0.000604845792404 2.77904962211e-05 0)
(0.000653486491609 2.65686991168e-05 0)
(0.000693968282939 2.27020628167e-05 0)
(0.000723264778732 2.07267332402e-05 0)
(0.000755184102724 2.3465385746e-05 0)
(0.000797507253196 2.47013405713e-05 0)
(0.000833995076275 2.24742631174e-05 0)
(0.000859963167405 1.84104081498e-05 0)
(0.000882805764283 1.61160199609e-05 0)
(0.000913611971196 2.11725569384e-05 0)
(0.000955205706493 2.75213360293e-05 0)
(0.00100264942743 2.99303637368e-05 0)
(0.00104738824089 3.04911369775e-05 0)
(0.00109108573194 2.92952032407e-05 0)
(0.00113341210701 2.73188078335e-05 0)
(0.00117690149907 2.71972494201e-05 0)
(0.0012187512255 2.65443721105e-05 0)
(0.00125594573778 2.48355504621e-05 0)
(0.00128917728199 2.34352607038e-05 0)
(0.00131831671579 2.37834801381e-05 0)
(0.00135032349395 2.36236389325e-05 0)
(0.00138368945237 2.22558888415e-05 0)
(0.00141377419125 2.31691569173e-05 0)
(0.00144318359267 2.35293135059e-05 0)
(0.00148097967782 2.42245145635e-05 0)
(0.00151874347143 2.62837065572e-05 0)
(0.00153884290451 2.5629101541e-05 0)
(0.00157431413904 2.44092176223e-05 0)
(0.0016208315596 2.62581251538e-05 0)
(0.00166428503079 3.46513148351e-05 0)
(0.00170015117061 3.66438219743e-05 0)
(0.00173281161594 2.61790196574e-05 0)
(0.00175959673223 1.92428798362e-05 0)
(0.00177837963235 1.66198389073e-05 0)
(0.00179299314813 1.37779045392e-05 0)
(0.00180264808993 1.12005329167e-05 0)
(0.00180556719761 7.69474718754e-06 0)
(0.00180257413962 4.89949706439e-06 0)
(0.00179526135255 7.68268575405e-06 0)
(0.00179084114942 1.64301927964e-05 0)
(0.00181064476508 1.64476684076e-05 0)
(0.00180117619076 -6.46041579886e-06 0)
(0.00178015251189 -1.62409698767e-05 0)
(0.00173508746316 -2.36704620341e-05 0)
(0.00163062460294 -4.17136368644e-05 0)
(0.00152543391564 -3.60519891371e-05 0)
(0.00146929375759 -2.17284585695e-05 0)
(0.00144431192093 -2.81759147084e-05 0)
(0.00133011440834 -3.34026212338e-05 0)
(0.00126690348486 -1.73194535473e-05 0)
(0.0011917602343 -3.3304944917e-05 0)
(0.00123186289108 -8.92485146729e-05 0)
(0.000944487084695 -8.35479547367e-05 0)
(0.000760466103201 -5.49219349174e-05 0)
(0.000668429101821 -3.76088582522e-05 0)
(0.000609027969338 -3.50655765922e-05 0)
(0.000560030670557 -3.43384650428e-05 0)
(0.000508181802817 -3.47997359927e-05 0)
(0.0004428254663 -3.57132396916e-05 0)
(0.000375893564575 -3.49888369459e-05 0)
(0.000306373555272 -3.20122241965e-05 0)
(0.000244513193133 -2.91008352391e-05 0)
(0.000200825487504 -2.78015801848e-05 0)
(0.000141133540023 -2.05496717409e-05 0)
(0.000114752683787 -1.66775729592e-05 0)
(7.16376112254e-05 -9.78204628821e-06 0)
(6.97342593903e-05 -1.1732106832e-05 0)
(2.90766750948e-05 -7.47081427097e-06 0)
(2.13788745221e-05 -1.32356213249e-05 0)
(1.96180144754e-05 9.85983656093e-05 0)
(8.46481483232e-05 0.000111839797419 0)
(0.000148102654803 0.000103445711735 0)
(0.000188324870227 8.28113855899e-05 0)
(0.000277483414919 8.23286137283e-05 0)
(0.000364819459552 5.87720442155e-05 0)
(0.000417366867859 3.59703497221e-05 0)
(0.000453092740098 4.93012825219e-05 0)
(0.000491295220556 6.7022066588e-05 0)
(0.000534752677708 6.6256592546e-05 0)
(0.000576904837385 6.30915714223e-05 0)
(0.000616123781623 6.38111541397e-05 0)
(0.00065328329778 5.84116907484e-05 0)
(0.000687936704654 5.03664728916e-05 0)
(0.000723904803242 4.71906020254e-05 0)
(0.000760280657004 5.81056755852e-05 0)
(0.00079792533196 6.24686333438e-05 0)
(0.000828326517183 4.39697656801e-05 0)
(0.000824114113826 3.05260056016e-05 0)
(0.000852801786092 3.14210197137e-05 0)
(0.000893808161232 4.7138501046e-05 0)
(0.000943573544275 6.82504449925e-05 0)
(0.00100266111631 7.46318854239e-05 0)
(0.00105372029383 6.82870261798e-05 0)
(0.00108308240615 6.32568382162e-05 0)
(0.00113297006569 6.21742016917e-05 0)
(0.00117980160333 5.95258189056e-05 0)
(0.00121828982073 5.48494701554e-05 0)
(0.0012535601289 5.00854298717e-05 0)
(0.00128735218685 4.64709012048e-05 0)
(0.00131947713844 4.58980037727e-05 0)
(0.0013415447822 4.43607332815e-05 0)
(0.00137391568745 3.92005035859e-05 0)
(0.00140150096717 4.26228101224e-05 0)
(0.00142557623221 4.75489522546e-05 0)
(0.00147622643099 4.4625684646e-05 0)
(0.0015052752579 4.81615655885e-05 0)
(0.00152701866778 5.25640686468e-05 0)
(0.00157166420327 5.11140699743e-05 0)
(0.00163410015371 4.89656268789e-05 0)
(0.00168156888135 4.24779053482e-05 0)
(0.00161891636798 3.28718363563e-05 0)
(0.00160727350873 2.8354280772e-05 0)
(0.00163943943068 2.68304535714e-05 0)
(0.00166232239091 2.48222886951e-05 0)
(0.00169204312165 2.11941344605e-05 0)
(0.00172386025693 1.50724600456e-05 0)
(0.00174320964377 6.99512825414e-06 0)
(0.00176807234282 -1.51871337067e-06 0)
(0.00178139507457 -8.05299572859e-06 0)
(0.0017653927966 -9.82837121137e-06 0)
(0.00170396815498 -1.22188639056e-05 0)
(0.00164863413828 -1.82993191545e-05 0)
(0.00177806817745 -4.07719484911e-05 0)
(0.00171163825479 -8.22996749251e-05 0)
(0.00165504379517 -0.000107955123123 0)
(0.00167474289974 -0.000101242330309 0)
(0.00163866054361 -8.62303501325e-05 0)
(0.00158355716347 -9.96633297111e-05 0)
(0.00153170713184 -0.000120897825315 0)
(0.00149647963342 -0.000140267506378 0)
(0.00116802915433 -0.000146882163917 0)
(0.00123185884437 -0.00024563611354 0)
(0.000950460164933 -0.000244040967589 0)
(0.00077287075258 -0.000182096608187 0)
(0.000638246792052 -0.000125544838736 0)
(0.000561732863975 -9.47615064829e-05 0)
(0.000535044665359 -8.91352782108e-05 0)
(0.000486192083007 -9.52605976071e-05 0)
(0.000430465157978 -0.000104288216377 0)
(0.000360302488515 -0.000105383858069 0)
(0.00028951703524 -9.61658843549e-05 0)
(0.000223001151583 -7.88551481543e-05 0)
(0.000186047824948 -6.99419244775e-05 0)
(0.00014759092385 -5.92459394353e-05 0)
(0.000116316142969 -4.91282969274e-05 0)
(8.8518588158e-05 -3.84071810656e-05 0)
(6.57919072233e-05 -3.44584656583e-05 0)
(3.93560349487e-05 -3.30470288665e-05 0)
(1.74838067368e-05 -5.03910233167e-05 0)
(2.93040912914e-05 0.000171046597494 0)
(8.22573210437e-05 0.000187574168458 0)
(0.000126082294858 0.000177855019186 8.09652595512e-29)
(0.000220450610042 0.00018464527007 -7.74892739216e-29)
(0.000311271264867 0.000186330525283 -7.05238248151e-29)
(0.000364157516256 0.000150998966398 6.49633238826e-29)
(0.000400592595108 8.13570221369e-05 -6.60261368259e-29)
(0.000437638497795 8.95688545661e-05 6.54949622324e-29)
(0.000478375943862 0.000110634767776 0)
(0.000524802631644 0.000114620309529 0)
(0.000571017777796 0.000109483023204 0)
(0.000611755320342 0.000102829915068 0)
(0.000648728322601 9.42219903456e-05 0)
(0.000682268494857 8.8874915249e-05 0)
(0.000716793388136 8.6220314848e-05 0)
(0.000752529497122 7.7498788731e-05 0)
(0.000676437670169 5.60822647984e-05 0)
(0.000657434024202 4.40225241453e-05 0)
(0.000686104646637 5.257078347e-05 0)
(0.000745805297 8.34124747021e-05 0)
(0.000879542762481 0.000121250683276 0)
(0.000959667307842 0.000134355601805 0)
(0.000988039949758 0.000126971986082 0)
(0.00103889193063 0.000117820245798 0)
(0.00109236092907 0.000112620134215 0)
(0.00113438687138 0.000109047133214 0)
(0.00117326067594 0.000101985852807 0)
(0.00121176154424 9.4213311293e-05 0)
(0.00124744816788 8.73711474399e-05 0)
(0.0012785710789 8.23987392701e-05 1.37047897536e-28)
(0.00131414868532 7.80376925821e-05 -1.33087987876e-28)
(0.00132863053245 7.42023418538e-05 0)
(0.00135510436067 7.01499010371e-05 0)
(0.00140421429116 6.79880021865e-05 0)
(0.00138861915263 7.90391163628e-05 0)
(0.00143796201908 8.80081533095e-05 0)
(0.00150933800908 8.5658756014e-05 0)
(0.00150004411451 9.12648607015e-05 0)
(0.00155470457247 0.000104397870973 0)
(0.00162910467146 9.95147471421e-05 0)
(0.00168027493675 6.83932157223e-05 0)
(0.00170917079232 4.51412962213e-05 0)
(0.00173509438261 4.86070720507e-05 0)
(0.00175959854771 5.38318712845e-05 0)
(0.00177878295238 5.26279163835e-05 0)
(0.00179357285566 4.79463713127e-05 0)
(0.00180466716022 3.85360057228e-05 0)
(0.0018122190672 2.68393997539e-05 0)
(0.00181652126731 1.2791121677e-05 0)
(0.00181746418771 -6.1213249495e-06 0)
(0.00181547606318 -2.59171533161e-05 0)
(0.00180957766401 -3.44210608673e-05 0)
(0.0017953797588 -2.54057140068e-05 0)
(0.0017507428481 -5.23854964682e-05 0)
(0.00168563641978 -0.000100326336936 0)
(0.00168769994425 -0.00011865113869 0)
(0.00166962879476 -0.000122534133011 0)
(0.00162037736208 -0.000133182120515 0)
(0.00155830972545 -0.000154145025113 0)
(0.00148919302518 -0.000190734264445 0)
(0.00139764563997 -0.000260218128989 0)
(0.00129178572108 -0.000332333980469 0)
(0.00121277574224 -0.000462060032951 0)
(0.000896442523815 -0.000426428468256 0)
(0.000675376918327 -0.000284773281627 0)
(0.000602286123446 -0.000203967202197 0)
(0.000557677922199 -0.000163813693578 0)
(0.000500575533767 -0.000148819456062 0)
(0.00044471204448 -0.000156879581644 0)
(0.000383324931163 -0.000168446454383 0)
(0.000315080850813 -0.00016588487076 0)
(0.000253939485887 -0.000148025981311 0)
(0.000211212594856 -0.000128462975704 0)
(0.000174415140658 -0.000113211173888 0)
(0.00013696602603 -9.78812757399e-05 0)
(0.000102827513127 -8.15132104882e-05 0)
(7.39126047034e-05 -6.62613995083e-05 0)
(5.28813136233e-05 -6.14684533378e-05 0)
(3.49932833859e-05 -7.02695028257e-05 0)
(8.50148386867e-06 -6.63094915956e-05 0)
(2.84769701257e-05 0.000257660392103 0)
(3.70826913027e-05 0.00017011449027 0)
(0.000103131474393 0.000271019803628 0)
(0.000193735047152 0.000276537537882 0)
(0.000266261234856 0.000234462015898 0)
(0.00014636667226 8.77159286665e-05 0)
(0.000182302653942 8.9747792738e-05 0)
(0.000351780630143 0.000171327936196 0)
(0.000445194872069 0.00018540864545 0)
(0.000503450271794 0.000170495722014 0)
(0.00055866730616 0.000158712207097 0)
(0.000604587146485 0.000144792451368 0)
(0.000642906207447 0.000130855083746 0)
(0.000668777914556 0.000107778714142 0)
(0.000626754808976 7.27757169527e-05 0)
(0.000592427062821 4.90137211197e-05 0)
(0.000597427877256 4.72146000895e-05 0)
(0.000645677785834 7.70491382561e-05 0)
(0.000752463486986 0.000129567320436 0)
(0.000866013315652 0.000185055850721 0)
(0.000906074295283 0.000197614843846 0)
(0.000948439332015 0.000186071205375 0)
(0.000998613699612 0.000175352646006 0)
(0.00104422284455 0.000167248638982 0)
(0.00108600276397 0.000157833343622 0)
(0.0011252291673 0.000148090698289 0)
(0.00116199124143 0.000139124985719 0)
(0.00120386435272 0.000130269164764 0)
(0.00123424326042 0.000121065670456 0)
(0.00127473228296 0.0001138813659 0)
(0.00129076145777 0.000106201403654 0)
(0.00133196099406 9.89257733192e-05 0)
(0.00132665305848 8.84148236244e-05 0)
(0.00135809242183 9.3312847467e-05 0)
(0.00142651810237 0.000110775383461 0)
(0.0014206342118 0.00012624176173 0)
(0.00148822906026 0.000134842204817 0)
(0.00156415851938 0.000143266746595 0)
(0.00160524132783 0.000153059561507 0)
(0.00163942945209 0.000141240510361 0)
(0.00167417197328 0.000110328090165 0)
(0.00170590686868 8.43104470035e-05 0)
(0.00173447716976 7.52964061588e-05 0)
(0.00175931201991 7.23621531934e-05 0)
(0.00177900208451 6.70605359532e-05 0)
(0.00179427621543 5.83193579887e-05 -1.29678255609e-28)
(0.00180580543953 4.6079618962e-05 1.30646060669e-28)
(0.00181373676173 3.1114664064e-05 0)
(0.00181810670374 1.35151458473e-05 0)
(0.00181872181563 -6.76952001565e-06 0)
(0.00181497567929 -2.70215421651e-05 0)
(0.00180443364287 -4.41211253585e-05 0)
(0.00178336247739 -6.33428222245e-05 0)
(0.00175032631061 -9.63830727092e-05 0)
(0.00171537439764 -0.000126733238671 0)
(0.00168433592725 -0.000145685736273 0)
(0.00164471841837 -0.000168186242022 0)
(0.00158699509793 -0.000196570977624 -2.54898207688e-28)
(0.00151087707896 -0.000234468325319 2.92709389584e-28)
(0.00141534619513 -0.000290194730413 0)
(0.00129773169833 -0.000368431639643 0)
(0.00116735635072 -0.000469792634003 0)
(0.00105434469782 -0.000607682228579 0)
(0.000888142717132 -0.000610239623439 0)
(0.000722912309258 -0.000441630444883 0)
(0.000575778398381 -0.000277996856251 0)
(0.000505595824076 -0.000219156068474 0)
(0.000452507521258 -0.000208212234963 0)
(0.000398984743343 -0.000217405111376 0)
(0.000348007001329 -0.000234011568717 0)
(0.000288747237864 -0.000232057516328 0)
(0.000231390770482 -0.000208174194954 0)
(0.000181919825361 -0.000177536795709 0)
(0.000135023814151 -0.000146534002611 0)
(0.000101471724731 -0.000127581200338 0)
(7.22616809512e-05 -0.000113514612748 0)
(4.55612313389e-05 -9.24438458953e-05 0)
(2.44491916546e-05 -6.59011272043e-05 0)
(1.73265179579e-05 -7.5035903109e-05 0)
(5.48766227845e-06 -8.25205133778e-05 0)
(1.04032739016e-06 0.00025352503511 0)
(1.77523628761e-05 0.000207756008775 0)
(9.3960899757e-05 0.000358569087965 0)
(0.000163942296274 0.000331499861253 0)
(0.000169058784681 0.000211485985378 0)
(0.000131998279217 0.000117068946742 0)
(0.000229149984765 0.000196681314148 0)
(0.000363414972896 0.000287744490282 0)
(0.000415035076614 0.000262087475247 0)
(0.000478201652668 0.000232639489313 0)
(0.000536744741995 0.000216997897757 0)
(0.000585495489139 0.000192015610742 0)
(0.000587855293472 0.000136838927554 0)
(0.000533378201437 7.96577217363e-05 0)
(0.000547701581148 6.12976783058e-05 0)
(0.000589213853412 7.25047874444e-05 0)
(0.000662636444856 0.000110553655694 0)
(0.000759047811261 0.000170933778809 0)
(0.000832565760199 0.000218984587918 0)
(0.000853921626984 0.000229125645664 0)
(0.000895004201383 0.000234102623605 0)
(0.000947933661915 0.000234617743041 0)
(0.000992701684306 0.000224208289551 0)
(0.00103574692564 0.000210590901959 0)
(0.00107573852238 0.000197715723558 0)
(0.00111213790399 0.000187176559206 0)
(0.00115517124501 0.000176962973548 0)
(0.00118220549776 0.000165118816695 0)
(0.0012302058759 0.000155255975976 0)
(0.00124163886248 0.000142376107699 0)
(0.00129504542354 0.000133963035241 1.30699773699e-28)
(0.00127082488036 0.000119430525343 -1.21443403631e-28)
(0.00133197162485 0.000120640008851 0)
(0.00138806542728 0.000129053787875 0)
(0.00139047860946 0.000146118421324 0)
(0.00147175434058 0.000177782246758 0)
(0.00152451271551 0.000197904276209 0)
(0.00156894453457 0.000196317720837 0)
(0.0016059152035 0.000186768444878 0)
(0.00163907521117 0.000169868297277 0)
(0.00167279876506 0.000143993776798 0)
(0.00170538953188 0.000119449312851 0)
(0.00173486174488 0.000104370036665 0)
(0.00176010653788 9.46704896535e-05 0)
(0.00178045876276 8.45127228398e-05 0)
(0.00179646727278 7.1770784639e-05 0)
(0.00180858338685 5.59907588482e-05 0)
(0.00181684767597 3.73626052402e-05 0)
(0.00182101432542 1.58387409058e-05 0)
(0.00182054687431 -8.49519457411e-06 0)
(0.00181445284822 -3.44522489568e-05 0)
(0.00180071440838 -6.12744910227e-05 0)
(0.00177723604258 -9.13326821855e-05 0)
(0.0017443906356 -0.000126656839404 0)
(0.00170695438854 -0.000160181104772 0)
(0.00166599648352 -0.000191194477545 0)
(0.00161325907368 -0.000228444749536 0)
(0.00154018293576 -0.000276116273155 0)
(0.00144307582736 -0.000336447611289 0)
(0.00132295753391 -0.000412265395524 0)
(0.00118773029473 -0.000503311412168 0)
(0.00105682875909 -0.000607901765552 0)
(0.000944295402962 -0.000716474754129 0)
(0.000861963163287 -0.00073837679923 0)
(0.000727802340091 -0.000579413598629 0)
(0.000586022253337 -0.000397742730132 0)
(0.000493460064936 -0.000311018084099 0)
(0.000415598879182 -0.000278007998824 0)
(0.000350803045477 -0.000275769184977 0)
(0.000296400281935 -0.000289009310582 0)
(0.000241627371372 -0.000292756818622 0)
(0.000185046716718 -0.000263849787745 0)
(0.000133354465214 -0.000212972997776 0)
(9.81428126865e-05 -0.000181822626167 0)
(6.68524422203e-05 -0.000162463524491 0)
(3.98378390126e-05 -0.000141568644406 0)
(2.18396065244e-05 -0.000104601942824 0)
(1.23412089131e-05 -7.90652552028e-05 0)
(6.07332067721e-06 -8.86647282362e-05 0)
(8.04550028063e-07 -8.71606916262e-05 0)
(-1.77175910991e-06 0.000235229697915 0)
(2.26771948731e-05 0.000253228351636 0)
(9.52230959604e-05 0.000407620825567 0)
(0.000131598613013 0.000335053710894 0)
(9.60105145017e-05 0.000162483621252 0)
(0.000132129708626 0.000168026292896 0)
(0.00029272423312 0.000325644440771 0)
(0.000348963177734 0.000346997797033 0)
(0.000392904875867 0.000318888713956 0)
(0.000447616235 0.000293912511071 0)
(0.000503595327792 0.000257284272737 0)
(0.00046271234198 0.000174704796844 0)
(0.000420369542058 0.000102281373662 0)
(0.000457964313606 8.88412668023e-05 0)
(0.000507628422616 0.000105982426624 0)
(0.000602517029546 0.000151898163124 0)
(0.000708199249023 0.00020724343235 0)
(0.000781448179307 0.000240736837715 0)
(0.000789495778152 0.000243405959453 0)
(0.000836932535667 0.000264627039508 0)
(0.000895905881576 0.000284614437488 0)
(0.000939434940454 0.000281566247811 0)
(0.000981202279411 0.000268293489271 0)
(0.00102082061859 0.000253024062549 0)
(0.00106631677733 0.000239606312276 0)
(0.0011028311006 0.000223058321236 0)
(0.0011188053218 0.000210340395895 0)
(0.00118129448709 0.000202553683739 0)
(0.00117818840082 0.000182433394711 0)
(0.0012492459218 0.00017005644883 0)
(0.00120230054095 0.000147394845175 0)
(0.00129011193147 0.000153697661152 0)
(0.00125883513077 0.000153432622863 0)
(0.0013463644756 0.000174540277551 0)
(0.00143448268016 0.000209553509512 0)
(0.00148926803415 0.000238620770817 0)
(0.00153109750222 0.000243106389671 0)
(0.00156913602018 0.000234808348538 0)
(0.00160442128097 0.000220795655529 0)
(0.00163854972024 0.000201872513679 0)
(0.00167243869608 0.000177673288482 0)
(0.00170526136879 0.000153216627766 0)
(0.00173531214675 0.000133667289838 0)
(0.00176117584622 0.000118023600411 0)
(0.00178244951747 0.0001027817241 0)
(0.00179935943413 8.57729791994e-05 0)
(0.00181221375492 6.6104829905e-05 0)
(0.00182080356411 4.34137841976e-05 0)
(0.00182451954975 1.73440991601e-05 0)
(0.00182258073374 -1.22597388768e-05 0)
(0.00181393664938 -4.50604961101e-05 0)
(0.00179707840446 -8.08704656312e-05 0)
(0.00177084455457 -0.000120060390934 0)
(0.0017356801417 -0.000161769041818 0)
(0.00169306898865 -0.000203589483683 0)
(0.00164098772985 -0.000248724352747 0)
(0.00157217662295 -0.000304559139849 0)
(0.00148050991975 -0.000374397864859 0)
(0.00136636537889 -0.000457052057755 0)
(0.00123386188203 -0.000547164126884 0)
(0.00109849743989 -0.00064017405706 0)
(0.000977877643827 -0.00072421347709 0)
(0.000822170273563 -0.000750098808217 0)
(0.000841665778374 -0.000865090183848 0)
(0.000658949560508 -0.000677803619179 0)
(0.000536168323305 -0.000488152980482 0)
(0.00045792603969 -0.000402017987062 0)
(0.000374393879937 -0.000355554883468 0)
(0.000298725646359 -0.000337540264913 0)
(0.000242017123168 -0.000353487723864 0)
(0.000186212206099 -0.000356985104691 0)
(0.000131226495101 -0.000300976425691 0)
(9.19712850588e-05 -0.000247841451565 0)
(5.89662250497e-05 -0.000218544398804 0)
(2.87130815827e-05 -0.000191413405252 0)
(1.07820501842e-05 -0.000158799990668 0)
(3.12602481965e-06 -0.000110108904994 0)
(-1.25216520307e-06 -8.60033803019e-05 0)
(-3.44964422518e-06 -9.18005379564e-05 0)
(-1.5461588787e-06 -8.67472265834e-05 0)
(7.5281614547e-06 0.00025488796166 0)
(5.42184154361e-05 0.000332430906776 0)
(0.000125153933414 0.000442361927485 0)
(0.000136390071232 0.000409305492098 0)
(8.85618033846e-05 0.000202884919999 0)
(0.000192722327571 0.000300592181857 0)
(0.000303789216461 0.000400334985728 0)
(0.000331463368275 0.000388351694548 0)
(0.000373573781213 0.000361794587552 0)
(0.000399838001607 0.000330942460163 0)
(0.000469825636267 0.000279767259223 -3.02135483138e-28)
(0.000355860297754 0.000138443145548 1.73235026946e-28)
(0.000412630980026 0.000126772369315 0)
(0.0004440554772 0.000138139232546 0)
(0.000526346776501 0.00018715482526 0)
(0.000641540396092 0.00025865938181 0)
(0.000719648094928 0.000285650512135 0)
(0.000711675635431 0.000262024788832 0)
(0.000764197241893 0.000282278824003 0)
(0.000838002113022 0.000322322407502 0)
(0.000881003051952 0.00033286271116 0)
(0.000925704265999 0.000325539540256 0)
(0.000968998961288 0.000311853735512 0)
(0.00101038525532 0.000294057260547 0)
(0.00104136446076 0.000272335461913 0)
(0.00106133641461 0.000250949595784 0)
(0.00111870115614 0.000243494346696 0)
(0.00110274838706 0.000228052218715 0)
(0.0011918610672 0.000216192200857 0)
(0.0011353969455 0.00017405547381 0)
(0.00122989817367 0.000179395469292 0)
(0.00120765542164 0.000184787537268 -1.16659758066e-28)
(0.00129691890453 0.00020564992605 1.2320697378e-28)
(0.00134750690827 0.000244716737544 0)
(0.00144879699049 0.000283513734794 0)
(0.00149367091294 0.000289926255938 0)
(0.00153019322463 0.000282813697516 0)
(0.00156637813313 0.000270720314387 0)
(0.00160268736647 0.000255058977928 0)
(0.001638158474 0.000235352590395 0)
(0.00167252036048 0.000211497363793 0)
(0.00170568061482 0.000186354004273 0)
(0.00173626029999 0.000163264212114 0)
(0.0017629081533 0.000142532007571 0)
(0.00178520265051 0.000122313942365 0)
(0.00180321144366 0.000100803971111 0)
(0.00181693097495 7.67897379469e-05 0)
(0.00182579515448 4.93853142457e-05 0)
(0.00182889251682 1.78796754164e-05 0)
(0.00182532001582 -1.81222292782e-05 0)
(0.00181408690916 -5.86074291547e-05 0)
(0.00179401970228 -0.000103314857476 0)
(0.0017642857464 -0.000151690193071 0)
(0.00172465821519 -0.000202868705343 0)
(0.0016743389004 -0.00025747732204 0)
(0.0016096789587 -0.000320376342872 0)
(0.00152492184858 -0.000397039666158 0)
(0.00141789397446 -0.000487086708777 0)
(0.00129421383399 -0.000583984645659 0)
(0.00116688895813 -0.000678435377788 0)
(0.00104726632546 -0.000760520366474 0)
(0.000942393676993 -0.000824890499341 0)
(0.000859455126174 -0.000889480122675 0)
(0.000810730382487 -0.000947273063117 0)
(0.000651684306423 -0.000793326312717 0)
(0.000476639950872 -0.00056307466305 0)
(0.000414130238756 -0.000489148701768 0)
(0.000334669879554 -0.000447685252449 0)
(0.00025331581514 -0.000424113297686 0)
(0.000186124414529 -0.00042585432556 0)
(0.000130652992654 -0.000400750094973 0)
(8.60851924998e-05 -0.000333891566251 0)
(4.92557260762e-05 -0.000289246490106 0)
(1.36518553402e-05 -0.000251838117044 0)
(-1.03766827994e-05 -0.000212718834531 0)
(-1.72027791789e-05 -0.000160175369127 0)
(-1.74371063245e-05 -0.000115875559689 0)
(-1.7565355274e-05 -8.78026092889e-05 0)
(-1.41760129e-05 -8.72608936918e-05 0)
(-4.51219102843e-06 -8.29836043058e-05 0)
(1.63992486679e-05 0.000296490986294 0)
(7.8345396734e-05 0.000409896939802 0)
(0.000140314137625 0.000456602297252 0)
(8.2766916483e-05 0.000265581725016 0)
(9.16872079655e-05 0.000252580785728 0)
(0.000227750800739 0.000424007449657 0)
(0.000277112445426 0.0004408622572 0)
(0.000317166505262 0.000428712537725 0)
(0.000336622670088 0.000388122515997 0)
(0.00038036117275 0.00035865013305 0)
(0.000302247076693 0.00020773993317 0)
(0.000347168351495 0.00016381911222 0)
(0.000396017119122 0.000168531901274 0)
(0.000437629337044 0.000199263690671 0)
(0.00056219542613 0.000288639150283 0)
(0.000653305197924 0.000336184395719 0)
(0.00063938974734 0.000299445567656 0)
(0.000680881735444 0.000301289273323 0)
(0.000765168277595 0.000349224942748 0)
(0.000822776754906 0.000376590454458 0)
(0.000861956233331 0.000376753598479 0)
(0.000902091368186 0.000367448190643 0)
(0.000950251669461 0.000356784094335 0)
(0.000990124216964 0.000336128360366 0)
(0.00103582112551 0.000305027403544 0)
(0.00103425889417 0.000283723137444 0)
(0.00110490963837 0.000274457014843 0)
(0.00110725949338 0.000251716745867 0)
(0.00110102447267 0.000225112196046 0)
(0.00114009870627 0.000215270179789 0)
(0.00124501293866 0.000226217225922 0)
(0.0012345117228 0.000222169809893 0)
(0.00126434269137 0.000262770802443 0)
(0.00140061749362 0.000326387408168 0)
(0.001447337685 0.000344790079143 0)
(0.0014881862192 0.000334793329724 0)
(0.00152620391793 0.00032117229917 0)
(0.00156315299416 0.000307117120072 0)
(0.00160060410601 0.000290680241671 0)
(0.00163752045823 0.000270283542083 0)
(0.00167285059593 0.000245895663037 0)
(0.00170650376466 0.000219465172778 0)
(0.00173776624029 0.000193294318093 0)
(0.00176546214125 0.000168128255333 0)
(0.00178901840523 0.000143153918674 -1.25344901795e-28)
(0.00180833188299 0.000116965765381 1.24980072848e-28)
(0.00182303989334 8.80933992496e-05 0)
(0.00183219809215 5.52072651303e-05 0)
(0.00183465462551 1.73301287825e-05 0)
(0.00182945203319 -2.60467526015e-05 0)
(0.0018156353095 -7.50039209804e-05 0)
(0.00179215836809 -0.000129228038155 0)
(0.001758146543 -0.000188170577948 0)
(0.00171252654677 -0.00025189815725 0)
(0.00165296895325 -0.000322769054548 0)
(0.00157555796885 -0.000405364511194 0)
(0.0014772573833 -0.000501663600477 0)
(0.00136113585751 -0.000606449754148 0)
(0.00123820906403 -0.000709283207223 0)
(0.00112040326694 -0.000798988772994 0)
(0.00101215761905 -0.000864222673085 0)
(0.00092194353773 -0.000910749340806 0)
(0.000853010814537 -0.000954661143347 0)
(0.000795686659801 -0.00100301380137 0)
(0.000769283162373 -0.00102393300565 0)
(0.000488080352651 -0.000696325832542 0)
(0.000361274106535 -0.000577224892556 0)
(0.000276854262601 -0.000531375158855 0)
(0.000193046196031 -0.00049799528026 0)
(0.000128956066128 -0.00047990409546 0)
(8.20864950814e-05 -0.000436030898514 0)
(4.01025660039e-05 -0.00037666039973 0)
(-3.21372901575e-06 -0.000331247478787 0)
(-3.71705215199e-05 -0.000280096528764 0)
(-5.20011336125e-05 -0.000222319103066 0)
(-4.9856468281e-05 -0.00015904108855 0)
(-4.58260842031e-05 -0.00011567622834 0)
(-3.79575032238e-05 -8.51707190319e-05 0)
(-2.69512067425e-05 -7.54900528747e-05 0)
(-9.40229051893e-06 -7.14799245712e-05 0)
(2.3343741838e-05 0.000349879944796 0)
(9.02500951252e-05 0.000473334599992 0)
(0.000114763326248 0.000465503342796 0)
(7.78359970271e-05 0.000290519559798 0)
(0.000131218085941 0.000336781115586 0)
(0.00023570872356 0.000482247527317 0)
(0.000250729018075 0.000477915490722 0)
(0.000303113079289 0.000465279964699 0)
(0.000282796987231 0.000380424252226 0)
(0.000373748232875 0.000401397015844 0)
(0.000286723649257 0.000227589875245 0)
(0.000348196687887 0.000209750209555 0)
(0.000385273911248 0.000218857765646 0)
(0.000465003824778 0.000288606404481 0)
(0.000575251125991 0.000380412440279 0)
(0.000630671567598 0.000381325053243 0)
(0.000613287938769 0.000332069666982 0)
(0.000677745566335 0.000363403610383 0)
(0.000749791941772 0.000410893597305 0)
(0.000798962459727 0.000425532945725 0)
(0.000844120116393 0.000420683337761 0)
(0.000878332539191 0.000406729057573 0)
(0.000922286017789 0.000394609115115 0)
(0.000946957809932 0.000370312126633 0)
(0.000962935762181 0.000325514795286 0)
(0.00103978181566 0.00031718783028 0)
(0.00099459499996 0.000292372891948 0)
(0.00112890696342 0.000288620465379 0)
(0.00107516991848 0.000260125351317 0)
(0.00120296408149 0.000276121319514 0)
(0.00114880015296 0.000252989968438 0)
(0.00127819377393 0.000283063370398 0)
(0.00133904150565 0.000341746048631 -1.34092050295e-28)
(0.00139893615162 0.000388233250071 1.37962021618e-28)
(0.00144118480704 0.000390233965824 0)
(0.00148124202859 0.000376551286316 0)
(0.00152119740736 0.000360845439122 0)
(0.00155974386636 0.000345150906727 0)
(0.00159819008552 0.000327761464353 0)
(0.00163625744624 0.000306597528141 0)
(0.00167291725205 0.000281236263126 0)
(0.00170764786964 0.000253132377979 0)
(0.00173990689873 0.000224101770183 0)
(0.00176891707793 0.000194992810869 0)
(0.00179412982105 0.000165488475845 0)
(0.00181505838687 0.000134425733048 0)
(0.00183092702914 0.000100147001525 0)
(0.00184052985771 6.09870546637e-05 0)
(0.00184255445126 1.58065477898e-05 0)
(0.0018359234645 -3.5912898606e-05 0)
(0.00181964736462 -9.42814958967e-05 0)
(0.00179270045607 -0.000159176267038 0)
(0.00175398067439 -0.000230597701697 0)
(0.00170159812437 -0.000309647065972 0)
(0.00163236985402 -0.000399082565918 0)
(0.00154308565188 -0.000501252929259 0)
(0.00143420261934 -0.000613463074714 0)
(0.0013141101574 -0.000725721432205 0)
(0.00119798981405 -0.000828577468933 0)
(0.00109131027885 -0.000913670183186 0)
(0.000988858461465 -0.000963491355061 0)
(0.00089738305251 -0.000985478135784 0)
(0.000829402783448 -0.0010107227223 0)
(0.000779326893642 -0.00104807288407 0)
(0.000764301432777 -0.00108532425302 0)
(0.000630271535585 -0.000966686413435 0)
(0.000343572102695 -0.000679765901171 0)
(0.000213663864326 -0.000625562395932 0)
(0.000138130186389 -0.00057968651049 0)
(8.09424923551e-05 -0.000530561586302 0)
(3.50349068416e-05 -0.000477059178895 0)
(-1.50167678033e-05 -0.00042905935792 0)
(-6.51880541361e-05 -0.000373908142837 0)
(-9.49195404738e-05 -0.000300491175102 0)
(-9.97011267084e-05 -0.00022215258129 0)
(-9.23056597096e-05 -0.00015495842695 0)
(-8.10096583581e-05 -0.000106009193236 0)
(-6.27536151849e-05 -7.24286071509e-05 0)
(-3.921019012e-05 -5.53345250191e-05 0)
(-1.32892602841e-05 -4.87877984826e-05 0)
(2.90599092348e-05 0.000417461727848 0)
(0.000101271133846 0.000519656056503 0)
(0.000103476635701 0.000455446023624 0)
(7.81106662483e-05 0.00031072710172 0)