/*--------------------------------*- C++ -*----------------------------------*\
| =========                 |                                                 |
| \\      /  F ield         | OpenFOAM: The Open Source CFD Toolbox           |
|  \\    /   O peration     | Version:  v1806                                 |
|   \\  /    A nd           | Web:      www.OpenFOAM.com                      |
|    \\/     M anipulation  |                                                 |
\*---------------------------------------------------------------------------*/
FoamFile
{
    version     2.0;
    format      ascii;
    class       volVectorField;
    location    "952";
    object      U;
}
// * * * * * * * * * * * * * * * * * * * * * * * * * * * * * * * * * * * * * //

dimensions      [0 1 -1 0 0 0 0];


internalField   nonuniform List<vector> 
6400
(
(-0.000119192176641 -0.000153911563812 0)
(-0.000311890907736 -0.00010968922141 0)
(-0.000449875348807 -8.38462802966e-05 0)
(-0.000592447609995 -7.12343845178e-05 0)
(-0.000698240824041 -4.62134094758e-05 0)
(-0.000776244105467 -2.77894875335e-05 0)
(-0.000823923616602 -2.04903550246e-05 0)
(-0.000864857746328 -2.87503954775e-05 0)
(-0.000948677349063 -3.79695963226e-05 0)
(-0.00102937124269 -3.55107020048e-05 0)
(-0.00107371135644 -3.16881427123e-05 0)
(-0.00114488184552 -3.1863701486e-05 0)
(-0.00120925572652 -2.81423519599e-05 0)
(-0.00126126104445 -2.29167919272e-05 0)
(-0.00130157020598 -2.05849371638e-05 0)
(-0.00134235042498 -2.2454757939e-05 0)
(-0.00138958873402 -2.27760640136e-05 0)
(-0.00143111923457 -1.98662745265e-05 0)
(-0.0014641106482 -1.62831966367e-05 0)
(-0.00149651563695 -1.50264311948e-05 0)
(-0.00153541384185 -1.84885121623e-05 0)
(-0.00157875091661 -2.16670003881e-05 0)
(-0.00162151629996 -2.14111473674e-05 0)
(-0.00165930209668 -1.97378349469e-05 0)
(-0.00169372586873 -1.76027432261e-05 0)
(-0.00172620115549 -1.54775578171e-05 0)
(-0.00175743209091 -1.41376933912e-05 0)
(-0.00178533535892 -1.25944212827e-05 0)
(-0.00180871905797 -1.07610914138e-05 0)
(-0.00182808741925 -9.3020835867e-06 0)
(-0.00184394681207 -8.6107432508e-06 0)
(-0.00185945864462 -7.65918470121e-06 0)
(-0.00187465711662 -6.31453773538e-06 0)
(-0.00188723352175 -5.91628754263e-06 0)
(-0.0018987918396 -5.60690082346e-06 0)
(-0.00191225416251 -5.07050250582e-06 0)
(-0.00192227455305 -4.73058421912e-06 0)
(-0.00192566234545 -3.81495867832e-06 0)
(-0.00193291045238 -2.25491080906e-06 0)
(-0.00194169075096 -7.99525818567e-07 0)
(-0.00194344881048 -3.66539334813e-07 0)
(-0.00193725223399 8.52784208134e-07 0)
(-0.00192875576178 3.80892562136e-06 0)
(-0.00191941753572 6.06689775118e-06 0)
(-0.00190710102141 7.45617431726e-06 0)
(-0.00189156982948 9.01771380495e-06 0)
(-0.00187250945059 1.0770433275e-05 0)
(-0.00184935609536 1.28685108066e-05 0)
(-0.00182203130863 1.50114501354e-05 0)
(-0.00179023518384 1.62612730986e-05 0)
(-0.0017551820792 1.65762605925e-05 0)
(-0.00171931193046 1.84953143573e-05 0)
(-0.00167807432358 2.34577715168e-05 0)
(-0.00163181563857 2.73184246089e-05 0)
(-0.00157416378541 3.10525232983e-05 0)
(-0.00150183137051 3.57825162509e-05 0)
(-0.0014260132427 3.72908584304e-05 0)
(-0.00135478076749 3.81682897302e-05 0)
(-0.00127865302624 4.23437750875e-05 0)
(-0.00118471523965 4.62044832642e-05 0)
(-0.00108649094968 4.80883753153e-05 0)
(-0.000986526314847 5.50488782004e-05 0)
(-0.000892195142256 6.94876713269e-05 0)
(-0.000755718735441 7.96900272477e-05 0)
(-0.00056796688195 6.66611105979e-05 0)
(-0.000432495182616 4.85927577243e-05 0)
(-0.000351865823078 4.06179538417e-05 0)
(-0.000288228904668 3.60753327205e-05 0)
(-0.000227058459938 3.35364188744e-05 0)
(-0.000163051689264 3.10238434156e-05 0)
(-0.000104213561182 2.70770053028e-05 0)
(-5.4058274321e-05 2.12308246932e-05 0)
(-1.85824372364e-05 1.52757376393e-05 0)
(5.67540137957e-06 9.97347223998e-06 0)
(1.88207203617e-05 4.70053757146e-06 0)
(2.76205977636e-05 1.69072995636e-06 0)
(2.42070530182e-05 1.04545206687e-07 0)
(3.03874878707e-05 -2.46552615179e-06 0)
(1.45133552652e-05 -2.95128713326e-06 0)
(1.12816025128e-05 -6.57036586388e-06 0)
(-4.6327845484e-05 -0.000222020323966 0)
(-0.000194560599214 -0.000242131575558 0)
(-0.000335754884651 -0.000211389643188 0)
(-0.000429543156433 -0.00016917562085 0)
(-0.00060290892317 -0.000161460146003 0)
(-0.000747943733659 -0.000113784009715 0)
(-0.000833232988203 -7.593571171e-05 0)
(-0.000894246099951 -9.10057991487e-05 0)
(-0.000958557754493 -0.000110524131164 0)
(-0.00102844628604 -0.000106751584426 0)
(-0.00109376687577 -9.79168466483e-05 0)
(-0.00115337937504 -9.19330745179e-05 0)
(-0.00120838452881 -8.08144250443e-05 0)
(-0.00125709955902 -6.84058601029e-05 0)
(-0.00130319961785 -6.26349116489e-05 0)
(-0.00134640223215 -6.98347860614e-05 0)
(-0.0013898286857 -7.20266590378e-05 0)
(-0.00142749299614 -5.63731975361e-05 0)
(-0.00144256874219 -4.4652621466e-05 0)
(-0.00148131138315 -4.60180903175e-05 0)
(-0.00152863438728 -5.71422052236e-05 0)
(-0.00157577029276 -6.79096565278e-05 0)
(-0.00162308502685 -6.64953241976e-05 0)
(-0.00166289502571 -5.81048708428e-05 0)
(-0.00169134389224 -5.15958697813e-05 0)
(-0.00172665424702 -4.7438696274e-05 0)
(-0.0017592684829 -4.2786384366e-05 0)
(-0.00178589104665 -3.73978855568e-05 0)
(-0.00180869907501 -3.22639448161e-05 0)
(-0.00182879061587 -2.81187341745e-05 0)
(-0.00184563431348 -2.54440081092e-05 0)
(-0.00185800511173 -2.23773559691e-05 0)
(-0.00187322857415 -1.82881796619e-05 0)
(-0.00188540590607 -1.75452665586e-05 0)
(-0.00189580022794 -1.78087081788e-05 0)
(-0.00191259586541 -1.5304683512e-05 0)
(-0.00192111455319 -1.37545059003e-05 0)
(-0.00192437865148 -1.23430778647e-05 0)
(-0.00193373494577 -8.65973653526e-06 0)
(-0.00194665638534 -3.17990660563e-06 0)
(-0.00194921775131 3.65722460698e-06 0)
(-0.00192701688555 9.6795758694e-06 0)
(-0.00191005761616 1.37162703805e-05 0)
(-0.00190315250362 1.69388585388e-05 0)
(-0.00189250762285 2.05037764553e-05 0)
(-0.00187970978767 2.49040186479e-05 0)
(-0.00186398968612 3.02214129205e-05 0)
(-0.00184311685386 3.62233494798e-05 0)
(-0.00182001521508 4.26529961313e-05 0)
(-0.00179192372553 4.88950799407e-05 0)
(-0.00175496924401 5.42943876923e-05 0)
(-0.001706162991 5.94470105382e-05 0)
(-0.00165957777787 6.61249414265e-05 0)
(-0.00163128957644 7.74687412105e-05 0)
(-0.00157005566056 9.16662990793e-05 0)
(-0.00150226039888 0.000103178807056 0)
(-0.00144010814542 0.000109840710491 0)
(-0.00136675455662 0.000116611732616 0)
(-0.00128342199516 0.00012803096937 0)
(-0.00119393568628 0.000140874040878 0)
(-0.0010940295524 0.000153315819159 0)
(-0.000971521802955 0.000169654513611 0)
(-0.000874503538376 0.000207932654879 0)
(-0.000733402629156 0.000239392788014 0)
(-0.000560840670575 0.000215411124051 0)
(-0.000407047102664 0.000153572775076 0)
(-0.000315934774628 0.000113681483002 0)
(-0.000264493678028 0.000102059231 0)
(-0.000205269012641 9.80756671666e-05 0)
(-0.000147269310097 9.4775236782e-05 0)
(-8.92488291326e-05 8.29682146614e-05 0)
(-4.14082137928e-05 6.32197307505e-05 0)
(-7.59255150907e-06 4.17658390208e-05 0)
(1.47384881302e-05 2.76342179246e-05 0)
(2.87980805828e-05 1.5469691351e-05 0)
(3.63007258964e-05 6.21724844716e-06 0)
(3.808161591e-05 -1.95621229526e-07 0)
(3.55449752667e-05 -7.94943950353e-06 0)
(2.39751634684e-05 -1.4017627655e-05 0)
(1.18495235837e-05 -2.77483030887e-05 0)
(-6.58398078561e-05 -0.000382034999029 0)
(-0.000184254174417 -0.000403732104904 0)
(-0.000287244126296 -0.000365624139045 -8.2071653184e-29)
(-0.000466042086431 -0.000354073343868 7.42092904004e-29)
(-0.000626052699141 -0.000336885853145 6.37999148474e-29)
(-0.000734607610611 -0.00026811474615 -5.75746968311e-29)
(-0.000815559264664 -0.00015083785721 5.70171220418e-29)
(-0.000879504316598 -0.000153265879959 -5.42833136002e-29)
(-0.000945467078836 -0.000181066467663 0)
(-0.00101914063938 -0.000180027770852 0)
(-0.00109000750883 -0.000165884056552 0)
(-0.00115253279844 -0.000148958732654 0)
(-0.00120777617205 -0.000130281887802 0)
(-0.00125559578455 -0.000115956689456 0)
(-0.00130370317734 -0.000108187144908 0)
(-0.00134827171886 -9.91486542878e-05 0)
(-0.00130267304752 -8.19448960854e-05 0)
(-0.00129404099948 -7.09166711157e-05 0)
(-0.00133893239023 -7.95761491661e-05 0)
(-0.00141385334598 -0.000103926982455 0)
(-0.001527265157 -0.000122442051696 0)
(-0.00158764283013 -0.000120683419758 0)
(-0.00161857492301 -0.000108859355591 0)
(-0.00165817204287 -9.63145868588e-05 0)
(-0.00169727854295 -8.68173479367e-05 0)
(-0.00172931294144 -7.93405485649e-05 0)
(-0.00175852711702 -7.07477585286e-05 0)
(-0.00178551957345 -6.18593392147e-05 0)
(-0.00180890050366 -5.38125270596e-05 0)
(-0.00182860128261 -4.71962522578e-05 -9.19877452024e-29)
(-0.00184673550763 -4.14781440618e-05 8.8611436441e-29)
(-0.0018561999023 -3.62729062514e-05 0)
(-0.00187075009002 -3.08193218676e-05 0)
(-0.00188978928842 -2.71009301246e-05 0)
(-0.00188913564472 -2.88576863483e-05 0)
(-0.00190645923999 -2.83435106465e-05 0)
(-0.00192560806994 -2.30355731372e-05 0)
(-0.00192277212053 -2.01003975202e-05 0)
(-0.00193257905731 -1.71657585079e-05 0)
(-0.0019459513739 -7.6849336878e-06 0)
(-0.00194901077003 7.49023061009e-06 0)
(-0.00194216921191 1.94329163307e-05 0)
(-0.00193265475713 2.43837660401e-05 0)
(-0.00192271764589 2.81701701099e-05 0)
(-0.00191014117844 3.39107842716e-05 0)
(-0.00189418644893 4.11707446319e-05 0)
(-0.00187485733062 4.98458473574e-05 0)
(-0.0018520252515 5.93868455726e-05 0)
(-0.00182568267041 6.97476334998e-05 0)
(-0.00179537448759 8.12690566086e-05 0)
(-0.00176043457099 9.3037645616e-05 0)
(-0.00172096448544 0.000102951971392 0)
(-0.00167760353405 0.000112119473105 0)
(-0.00162542551482 0.00012853733915 0)
(-0.00156398015005 0.000149413040029 0)
(-0.00150509920276 0.000166259827218 0)
(-0.00143910607517 0.000180785856781 0)
(-0.00136193663595 0.000197300438732 0)
(-0.00127537510028 0.000216634736622 0)
(-0.00117977850928 0.000238475015713 0)
(-0.00107205751291 0.000264392350463 0)
(-0.000958961002003 0.000301505968922 0)
(-0.000835502316625 0.000362752331096 0)
(-0.000672267541959 0.000395796627677 0)
(-0.000486636438196 0.000330324481546 0)
(-0.000371389962566 0.000251303389161 0)
(-0.000296868065125 0.000199574070293 0)
(-0.000227262111392 0.000170112726213 0)
(-0.000166408270851 0.000158420148271 0)
(-0.00010951670507 0.000147774126122 0)
(-5.70923480849e-05 0.000126023544152 0)
(-1.54299404572e-05 9.64313805747e-05 0)
(1.49981136387e-05 7.05178205225e-05 0)
(3.52566164713e-05 4.70593451206e-05 0)
(4.47210276019e-05 2.54910111867e-05 0)
(4.84868362699e-05 9.94079892148e-06 0)
(4.78849876444e-05 -1.8809798345e-06 0)
(4.24555417858e-05 -1.69036235202e-05 0)
(3.18001365018e-05 -3.67799170022e-05 0)
(8.8538059428e-06 -4.2421551627e-05 0)
(-6.47045710827e-05 -0.000554347612527 0)
(-9.6731155208e-05 -0.000395163154034 0)
(-0.000234442491721 -0.00054205107148 0)
(-0.000398618060141 -0.000522938814219 0)
(-0.000553860681008 -0.000443230344332 0)
(-0.000361703669266 -0.000193674904962 0)
(-0.000461573042169 -0.0001924010747 0)
(-0.000781949594668 -0.000301223514468 0)
(-0.000905152508236 -0.000295487828568 0)
(-0.000998093598949 -0.000265356146162 0)
(-0.00108019729494 -0.000239785391408 0)
(-0.00114980521844 -0.000211686342478 0)
(-0.0012092694144 -0.000183363009201 0)
(-0.00125346578363 -0.000150388694899 0)
(-0.00123712620747 -0.000113191914855 0)
(-0.00121409490914 -8.93296485821e-05 0)
(-0.00122747304824 -8.87812615746e-05 0)
(-0.00129087445651 -0.000118210665321 0)
(-0.00140490794254 -0.000160761656535 0)
(-0.00149726435719 -0.000190211919898 0)
(-0.00153937851475 -0.000187492804434 0)
(-0.00158192153475 -0.000167905762278 0)
(-0.00162487722629 -0.000149872972864 0)
(-0.00166282852028 -0.000135362171966 0)
(-0.00169722255856 -0.000121995166782 0)
(-0.0017285073217 -0.000109662349671 0)
(-0.00175726193896 -9.81585950079e-05 0)
(-0.00178574236315 -8.66637704044e-05 0)
(-0.00180809940639 -7.56086211836e-05 0)
(-0.0018305924751 -6.59589795586e-05 0)
(-0.00184327714493 -5.76564910235e-05 0)
(-0.00186080626581 -4.94480225563e-05 0)
(-0.0018649420186 -4.1354871506e-05 0)
(-0.00188194286014 -3.87589634677e-05 0)
(-0.0019043777312 -4.04006964877e-05 0)
(-0.00190576437291 -4.11627976232e-05 0)
(-0.00192383874293 -3.64968365075e-05 0)
(-0.00193981191969 -2.99964871763e-05 0)
(-0.00194534400869 -2.33218569024e-05 0)
(-0.00194848508001 -1.02781604517e-05 0)
(-0.00194883892738 7.65961303685e-06 0)
(-0.00194434319488 2.29313229739e-05 0)
(-0.00193654338095 3.2564547278e-05 0)
(-0.00192651246617 4.01709823461e-05 0)
(-0.00191353160624 4.89152368852e-05 0)
(-0.00189724120321 5.93364836866e-05 7.48702227413e-29)
(-0.00187759221004 7.12147120474e-05 -7.5098721853e-29)
(-0.00185447096673 8.42282280793e-05 0)
(-0.00182776079217 9.83286921379e-05 0)
(-0.00179713953778 0.000113447839597 0)
(-0.00176209876811 0.000128865722563 0)
(-0.0017221384034 0.000144192532456 0)
(-0.00167670748224 0.000161703802716 0)
(-0.00162452717263 0.00018404047951 0)
(-0.00156646584746 0.000207885586944 0)
(-0.00150390695095 0.000230847523306 0)
(-0.00143382565741 0.000255141502168 0)
(-0.00135303446597 0.000282011742849 1.33616543023e-28)
(-0.00126085304217 0.000312028392532 -1.5226733255e-28)
(-0.00115633171137 0.000346274758063 0)
(-0.00103803912167 0.000387843600846 0)
(-0.000907388651943 0.000444816836214 0)
(-0.000761633174365 0.000511103884411 0)
(-0.0006154139868 0.000539471020992 0)
(-0.000480525455464 0.000482765377853 0)
(-0.000334600124413 0.000348144570147 0)
(-0.000243241627107 0.000268286464091 0)
(-0.000176456129148 0.00023453650129 0)
(-0.000117914691574 0.000216479945639 0)
(-6.66489991071e-05 0.000203133936827 0)
(-1.75612096965e-05 0.000176716319302 0)
(2.33880732586e-05 0.000137700803097 0)
(4.76262830478e-05 9.42803943912e-05 0)
(5.39704069659e-05 5.40517573722e-05 0)
(5.72952994998e-05 2.83453947857e-05 0)
(5.94854999925e-05 9.44898207613e-06 0)
(5.42708836113e-05 -9.3952653328e-06 0)
(3.56408007142e-05 -2.45385937885e-05 0)
(2.72985563829e-05 -4.6650591776e-05 0)
(9.56759556344e-06 -6.16082690742e-05 0)
(-1.29945601153e-05 -0.000573309192476 0)
(-5.64061095772e-05 -0.000479480298437 0)
(-0.000207573731062 -0.00069655541647 0)
(-0.000343766729793 -0.000642568469591 0)
(-0.000404105007395 -0.000451776076443 0)
(-0.000340027717757 -0.000263101670692 0)
(-0.000553157278365 -0.000395697013551 0)
(-0.000760529439575 -0.000486111218399 0)
(-0.000858648415734 -0.000422116671876 0)
(-0.000966945621488 -0.000363986207106 0)
(-0.00105866446531 -0.000327168880488 0)
(-0.00113741183756 -0.000284366575646 0)
(-0.00117076059175 -0.0002138098019 0)
(-0.00113003773782 -0.000141268639754 0)
(-0.00115749714717 -0.000114822781111 0)
(-0.0012170774095 -0.000125115282756 0)
(-0.00130337414919 -0.000162689850592 0)
(-0.00139555225721 -0.000210354455381 0)
(-0.00145943473937 -0.000238144125359 0)
(-0.00149277679987 -0.000237329385302 0)
(-0.00153684978018 -0.000227716220902 0)
(-0.00158447250836 -0.000212468106889 0)
(-0.00162541585906 -0.000192463212125 0)
(-0.00166313944275 -0.000172651557562 0)
(-0.0016970847746 -0.000155122315635 0)
(-0.00172744844381 -0.000140186216502 0)
(-0.00175856582929 -0.000125926269845 0)
(-0.00178246887567 -0.000111656089424 0)
(-0.00181080801031 -9.74952921209e-05 0)
(-0.00182500906035 -8.40372967978e-05 0)
(-0.00184825069168 -7.26337803065e-05 -8.84799586033e-29)
(-0.00184457658656 -6.24501370576e-05 8.46951558726e-29)
(-0.00187143104555 -5.6315420321e-05 0)
(-0.00189583726722 -5.29151586568e-05 0)
(-0.001901889737 -5.39563946186e-05 0)
(-0.00192340552697 -5.53929609924e-05 0)
(-0.00193619272668 -5.11367227425e-05 0)
(-0.00194452075946 -4.01176227832e-05 0)
(-0.00194937503734 -2.64643906025e-05 0)
(-0.00195168249953 -1.00119966068e-05 0)
(-0.0019515886638 9.02426251829e-06 0)
(-0.00194805713092 2.65659384741e-05 0)
(-0.00194114225842 4.01989818526e-05 0)
(-0.00193118637203 5.18386037598e-05 0)
(-0.00191799649504 6.40239115768e-05 0)
(-0.00190145445106 7.76907204316e-05 0)
(-0.00188151324356 9.28574180947e-05 0)
(-0.00185805353936 0.000109343293169 0)
(-0.00183089806971 0.000127101235099 0)
(-0.00179974513992 0.000146069858782 0)
(-0.00176412356053 0.00016599895125 0)
(-0.00172340749989 0.000187144960614 0)
(-0.00167690136858 0.000210977432998 0)
(-0.00162404923204 0.000238383651239 0)
(-0.00156525896776 0.000267918543849 0)
(-0.0015002134492 0.000299261829496 0)
(-0.00142585215509 0.000334062775999 0)
(-0.00133881621766 0.000373415035122 0)
(-0.0012369912438 0.000418103905693 0)
(-0.00111859045404 0.000469684067165 0)
(-0.000983231313767 0.000530199176816 0)
(-0.000835260602881 0.000596855360667 0)
(-0.000683416193021 0.000648302642031 0)
(-0.000556382260462 0.000668026616937 0)
(-0.000438284873032 0.000617330393804 0)
(-0.000307295065902 0.000475471599466 0)
(-0.00020508219836 0.00036675494899 0)
(-0.000124835189717 0.000306528179891 0)
(-6.09065212371e-05 0.000272439594547 0)
(-7.74356744334e-06 0.000250370764302 0)
(4.05593873845e-05 0.000220898038086 0)
(7.08975904266e-05 0.000163817885391 0)
(7.32668305293e-05 9.68023472468e-05 0)
(7.37802411486e-05 5.61561787748e-05 0)
(7.58308305997e-05 2.94022075437e-05 0)
(7.42922811005e-05 3.77296317825e-06 0)
(5.99313784955e-05 -2.10767283031e-05 0)
(4.26051896612e-05 -3.89952006428e-05 0)
(3.1361785746e-05 -6.6728970418e-05 0)
(9.4399275211e-06 -7.8267289269e-05 0)
(-3.40125302062e-06 -0.000546498726124 0)
(-6.33525828771e-05 -0.000579025946534 0)
(-0.00020521459081 -0.000799622988247 0)
(-0.000298489820218 -0.000692344517162 0)
(-0.000249725710937 -0.000375704406268 0)
(-0.000343459545794 -0.000378236232229 0)
(-0.000636851297184 -0.000605262683714 0)
(-0.000726012793705 -0.000596728126195 0)
(-0.000822958779137 -0.000531037666901 0)
(-0.000929643282714 -0.000470848413324 0)
(-0.00102890601624 -0.000404551462128 0)
(-0.00101728603129 -0.000298987812811 0)
(-0.000968669558062 -0.000193004675092 0)
(-0.0010350817555 -0.000165267130128 0)
(-0.00111558027636 -0.000179981956038 0)
(-0.00123798682456 -0.000222169218512 0)
(-0.00134403737729 -0.000260515424668 0)
(-0.0014130608933 -0.000276081311 0)
(-0.0014407198898 -0.000273989161251 0)
(-0.00149003978479 -0.000277363392697 0)
(-0.0015422965045 -0.000274212716136 0)
(-0.00158496806586 -0.000256434487098 0)
(-0.00162467931478 -0.000233126695085 0)
(-0.00166146449221 -0.000210189911418 0)
(-0.00169863876501 -0.000189149472124 0)
(-0.00172919989838 -0.000169208244493 0)
(-0.00175011441817 -0.000153069304864 0)
(-0.00178694376999 -0.000137423240338 0)
(-0.00179886513877 -0.00011849327789 0)
(-0.00183262433431 -0.000100424213573 0)
(-0.00182343012058 -8.45161396023e-05 0)
(-0.00185729132624 -7.86336522767e-05 0)
(-0.00185326737949 -7.38697138011e-05 0)
(-0.00189101652929 -7.26761562445e-05 0)
(-0.00192132166585 -7.3264508497e-05 0)
(-0.00193470612658 -7.12724288662e-05 0)
(-0.00194318384209 -6.11588911095e-05 0)
(-0.00194969464034 -4.63275704474e-05 0)
(-0.00195402870998 -2.93434460281e-05 0)
(-0.00195620331705 -1.03136630249e-05 0)
(-0.00195602777505 1.03472264032e-05 0)
(-0.00195289417463 3.02152097428e-05 0)
(-0.00194646117002 4.75505235345e-05 0)
(-0.00193664951429 6.32564102746e-05 0)
(-0.00192339863835 7.9152882649e-05 0)
(-0.00190668258629 9.62660999293e-05 0)
(-0.00188647028682 0.000114851626487 0)
(-0.00186261435413 0.00013489431401 0)
(-0.00183488411997 0.000156411145011 0)
(-0.00180297710945 0.000179449893329 0)
(-0.00176645691288 0.000204104588498 0)
(-0.00172473108311 0.000230864887318 0)
(-0.00167718442875 0.00026067025108 0)
(-0.00162337829789 0.000293987950193 0)
(-0.00156294888366 0.000330735434833 0)
(-0.00149425945637 0.000372007639622 0)
(-0.00141366410834 0.000419801071354 0)
(-0.00131720084943 0.000475429781847 0)
(-0.00120197421584 0.000539428273107 0)
(-0.00106668233609 0.000610987977619 0)
(-0.000915091110559 0.000684996511209 0)
(-0.000757316493369 0.000744922192007 0)
(-0.000600056830524 0.000768331647292 0)
(-0.000490943361979 0.000801803488145 0)
(-0.000359130340559 0.000724410385373 0)
(-0.000242190485216 0.000569953141039 0)
(-0.000150852400336 0.000456113351687 0)
(-6.57572534687e-05 0.000381426818198 0)
(6.57989872254e-06 0.000330971537899 0)
(6.70501044314e-05 0.000304597028492 0)
(0.000109745147622 0.000255775513486 0)
(0.000110018538272 0.000162315699441 0)
(0.000100233093107 9.36843181075e-05 0)
(9.95743566888e-05 5.61187241879e-05 0)
(9.70159791562e-05 2.59722724186e-05 0)
(9.13063158785e-05 -7.05217397314e-06 0)
(7.04284309318e-05 -3.44297555009e-05 0)
(5.33802281612e-05 -5.50863973557e-05 0)
(3.88453104733e-05 -8.77908130787e-05 0)
(1.21634687246e-05 -9.87358470006e-05 0)
(-2.23443985392e-05 -0.000596445273199 0)
(-0.000122579131565 -0.000736711431203 0)
(-0.000253195116663 -0.000877195345103 0)
(-0.000306223279122 -0.000827830352728 0)
(-0.000242275438501 -0.000477678492136 0)
(-0.00046130775832 -0.000633183339384 0)
(-0.000633501204956 -0.000730186868306 0)
(-0.000701180438877 -0.000684348987686 0)
(-0.000794189055233 -0.00062309803719 0)
(-0.00086883881915 -0.000560965759594 0)
(-0.00100056602413 -0.000466530450794 2.59241875522e-28)
(-0.000864456120521 -0.000269435963416 -1.77063920197e-28)
(-0.000959252686422 -0.000236452644942 0)
(-0.0010207386714 -0.000243832170295 0)
(-0.00114661635192 -0.000289357187956 0)
(-0.00127313236556 -0.000338454133553 0)
(-0.00135111149083 -0.000341378584141 0)
(-0.00137192474732 -0.000316870752263 0)
(-0.00143211004568 -0.000319016054333 0)
(-0.00149672144012 -0.000329103585748 0)
(-0.00153993887616 -0.000320294575879 0)
(-0.00158369445535 -0.000298975223943 0)
(-0.00162533773366 -0.000273792758784 0)
(-0.00166373232402 -0.000247265808709 0)
(-0.00169417214476 -0.000220674352525 0)
(-0.0017200739134 -0.000196418424799 0)
(-0.0017573351985 -0.000178690287605 0)
(-0.00176297448849 -0.000161647201788 0)
(-0.00180875024618 -0.000140245065175 0)
(-0.00179784630763 -0.000112006976975 0)
(-0.00184087702482 -0.000100948894881 0)
(-0.001836543657 -9.72503719969e-05 8.43910677597e-29)
(-0.0018744649099 -9.59895543578e-05 -8.39154964998e-29)
(-0.00189984313234 -9.88296297833e-05 0)
(-0.00193083365892 -9.60750980489e-05 0)
(-0.00194297299483 -8.44575221801e-05 0)
(-0.00194977352724 -6.90275753609e-05 0)
(-0.00195547494252 -5.14839449973e-05 0)
(-0.00195980090733 -3.21180534692e-05 0)
(-0.00196206232203 -1.09045721707e-05 0)
(-0.00196187842974 1.16548446587e-05 0)
(-0.00195891076372 3.39772217329e-05 0)
(-0.00195272984598 5.48089110771e-05 0)
(-0.00194305517659 7.44916519328e-05 0)
(-0.00192980239842 9.4243284651e-05 0)
(-0.00191296175981 0.000115009601809 0)
(-0.00189246691765 0.000137210772082 0)
(-0.00186811558003 0.000160995331561 0)
(-0.00183963865617 0.00018647648077 0)
(-0.00180674948302 0.000213821455311 0)
(-0.0017690744053 0.000243332496084 0)
(-0.00172610708704 0.000275588594112 0)
(-0.00167728122258 0.000311384670151 0)
(-0.00162194140129 0.000351507600541 0)
(-0.00155885881723 0.000397187662101 0)
(-0.00148525278084 0.000450801285201 0)
(-0.00139665538969 0.000514955072339 0)
(-0.00128853564612 0.000590675082392 0)
(-0.00115862729787 0.000676013070905 0)
(-0.00100919820857 0.000764697545762 0)
(-0.000848336176403 0.00084255867296 0)
(-0.00068882822764 0.000893212298564 0)
(-0.00054477125825 0.000919981458976 0)
(-0.000421723904925 0.000917557818223 0)
(-0.000299095732889 0.000834279704481 0)
(-0.000168975579696 0.000653122080681 0)
(-7.96812038272e-05 0.000549400201952 0)
(8.0278339305e-06 0.000475852037006 0)
(8.97998245101e-05 0.000414432783146 0)
(0.000153225315979 0.000355687250914 0)
(0.000171340674287 0.000256932708437 0)
(0.000148689854395 0.000148248961685 0)
(0.000135782853275 8.66373638786e-05 0)
(0.000126303701007 4.99858857888e-05 0)
(0.000119764952398 1.84178666108e-05 0)
(0.000107453826086 -1.85660854152e-05 0)
(9.16208745116e-05 -5.16738600552e-05 0)
(6.80528825003e-05 -7.49742058126e-05 0)
(4.86300260348e-05 -0.000111870651032 0)
(1.67069202593e-05 -0.000128466148279 0)
(-4.20473731248e-05 -0.000694145386692 0)
(-0.000163071991884 -0.000877869159779 0)
(-0.000276742237986 -0.00092693417668 0)
(-0.000214708393161 -0.000624563182733 0)
(-0.000256235440507 -0.000591578811575 0)
(-0.00050539307746 -0.000830938582741 0)
(-0.000592828871246 -0.000817973874438 0)
(-0.000679501407596 -0.000771576613556 0)
(-0.000751301957354 -0.000699313310807 0)
(-0.000846588555987 -0.000629966273054 0)
(-0.000759425530479 -0.000411290444511 0)
(-0.000853478157826 -0.000323417602557 0)
(-0.000941876607159 -0.000312816857482 0)
(-0.00102166369216 -0.000340755073915 0)
(-0.00118940680602 -0.000413000301849 0)
(-0.0012813060657 -0.000426151721402 0)
(-0.00129540641255 -0.000384518813648 0)
(-0.00135533993987 -0.000369262541276 0)
(-0.00143815472077 -0.000382236380958 0)
(-0.00149416427508 -0.000381566929839 0)
(-0.00153661133374 -0.000364525711669 0)
(-0.00157834795805 -0.000340965378926 0)
(-0.00162217016179 -0.000315759292835 0)
(-0.0016608000908 -0.000285938891822 0)
(-0.00170086887269 -0.000251121308333 0)
(-0.00171493897748 -0.000225542614118 0)
(-0.00176240535637 -0.000204061612356 0)
(-0.00177392350455 -0.000180242629289 0)
(-0.0017760953503 -0.000156768799071 0)
(-0.00180539240551 -0.00013711314605 0)
(-0.0018573484311 -0.000124763613498 0)
(-0.00185809682645 -0.000114970740553 0)
(-0.00187316026261 -0.000122033777383 0)
(-0.0019210420485 -0.000125796722817 0)
(-0.00193792390413 -0.000115369917327 0)
(-0.00194874374901 -9.6369055064e-05 0)
(-0.00195658547718 -7.65183347971e-05 0)
(-0.00196239969399 -5.64637108013e-05 0)
(-0.00196672083617 -3.50298454043e-05 0)
(-0.00196909681646 -1.17421074045e-05 0)
(-0.00196898656834 1.29317452008e-05 0)
(-0.00196608810401 3.78383799545e-05 0)
(-0.00196004611732 6.20471658847e-05 0)
(-0.00195050327726 8.56097570642e-05 0)
(-0.00193728982279 0.00010930006816 7.29928847693e-29)
(-0.00192034467106 0.000133922782141 -7.26557064828e-29)
(-0.00189952539537 0.000159995316205 0)
(-0.00187455731541 0.000187796877673 0)
(-0.00184514219123 0.000217519435387 0)
(-0.00181102345887 0.000249410720806 0)
(-0.00177189905025 0.000283901328428 0)
(-0.00172734705178 0.000321698938956 0)
(-0.00167678833486 0.000363833005754 0)
(-0.00161922443834 0.000411842039447 0)
(-0.00155262214883 0.000468288857123 0)
(-0.00147327274834 0.000536762993125 0)
(-0.00137609042405 0.000620251786661 0)
(-0.00125678043376 0.000718212018108 0)
(-0.00111528536023 0.000824194566738 0)
(-0.000956053278911 0.00092677475603 0)
(-0.00078818283168 0.00100611268354 0)
(-0.000625003426006 0.00104943498547 0)
(-0.000478443824067 0.00105514395986 0)
(-0.000354278316648 0.00102474374355 0)
(-0.000258336861518 0.000980611256221 0)
(-0.000113856305729 0.000770923122294 0)
(1.54059616821e-06 0.000635981377719 0)
(9.42814089379e-05 0.000562958439803 0)
(0.000179189632791 0.00048425260575 0)
(0.000236927002966 0.000381593044299 0)
(0.000234782091909 0.000239439306064 0)
(0.000200945839939 0.000125462010834 0)
(0.00017306772409 6.6251943107e-05 0)
(0.000148886063012 3.58695864602e-05 0)
(0.000139124660218 1.05291622817e-05 0)
(0.000130677224207 -2.65450667524e-05 0)
(0.000121679313812 -7.11519609998e-05 0)
(9.17080579599e-05 -0.000104189266635 0)
(6.02375431618e-05 -0.000143291300918 0)
(2.12204385344e-05 -0.000168667052547 0)
(-5.58472959164e-05 -0.000811839046541 0)
(-0.000178709220498 -0.000990013218409 0)
(-0.000243716996471 -0.000973149641128 0)
(-0.000209401475763 -0.000686166395422 0)
(-0.000329125138415 -0.000760699777379 0)
(-0.000507451796898 -0.000935604827804 0)
(-0.000559079412757 -0.000901314933272 0)
(-0.000660269126067 -0.000855329805617 0)
(-0.000677246486749 -0.000734482934073 0)
(-0.000850065225332 -0.000712437399372 0)
(-0.000739672333336 -0.000460759869793 0)
(-0.00085341663263 -0.000409887476916 0)
(-0.00093301431303 -0.000404413789436 0)
(-0.00106738538599 -0.000466478513542 0)
(-0.00119460303518 -0.000521899828584 0)
(-0.00126894259359 -0.000492296464696 0)
(-0.00128462478042 -0.000435796503509 0)
(-0.00135905037662 -0.000436353191884 0)
(-0.0014319766806 -0.000445581337127 0)
(-0.00148678342457 -0.000433965500458 0)
(-0.00153579029094 -0.000410218274129 0)
(-0.00157638346458 -0.000381612774997 0)
(-0.00161853168401 -0.000354161835654 0)
(-0.0016447238955 -0.000323436754954 0)
(-0.00167547806058 -0.000280880615128 0)
(-0.00172858559692 -0.000252401597649 0)
(-0.00171572182933 -0.000228841880228 0)
(-0.00179210836146 -0.000204412740161 0)
(-0.00177686887102 -0.000180023692549 0)
(-0.00183769766964 -0.000167669173627 0)
(-0.0018262655085 -0.000147535090057 0)
(-0.00188520233054 -0.000141274735417 0)
(-0.00191040724673 -0.000147582229623 8.63970371827e-29)
(-0.00192910807214 -0.000147725868449 -8.50689116651e-29)
(-0.0019440236354 -0.00013049598743 0)
(-0.00195543062622 -0.000107512424232 0)
(-0.00196418884652 -8.44704393534e-05 0)
(-0.00197043235774 -6.17655281526e-05 0)
(-0.00197477880918 -3.81403254505e-05 0)
(-0.00197718597421 -1.27738536669e-05 0)
(-0.00197719101227 1.41417803445e-05 0)
(-0.00197440670189 4.17431267827e-05 0)
(-0.00196847689758 6.92738765564e-05 0)
(-0.00195906043983 9.66401529202e-05 0)
(-0.00194593017452 0.000124335962096 0)
(-0.00192889856243 0.000153032363784 0)
(-0.00190770060691 0.000183286011236 0)
(-0.00188198853537 0.000215457076242 0)
(-0.00185143838471 0.000249773249733 0)
(-0.00181580858615 0.000286509299411 0)
(-0.00177486115083 0.000326193429904 0)
(-0.00172825447697 0.000369768426338 0)
(-0.00167538173306 0.000418778256579 0)
(-0.00161495080991 0.000475727089321 0)
(-0.00154440345937 0.000544417806738 0)
(-0.00145961547721 0.0006293658059 0)
(-0.00135548728636 0.000733514464074 0)
(-0.00122846886678 0.000854302728993 0)
(-0.00108001868816 0.000981140570586 0)
(-0.000911396739436 0.00110070849444 0)
(-0.000731344630134 0.00118158420012 0)
(-0.000556729912772 0.00121178279837 0)
(-0.000400604175629 0.00119382203844 0)
(-0.000269581495463 0.00114117017964 0)
(-0.000173912488289 0.00106449384955 0)
(-7.17683638927e-05 0.000941001107489 0)
(6.36606759273e-05 0.000714986880797 0)
(0.000177576432654 0.000657230536515 0)
(0.00027455755543 0.000573420486898 0)