/*--------------------------------*- C++ -*----------------------------------*\
| =========                 |                                                 |
| \\      /  F ield         | OpenFOAM: The Open Source CFD Toolbox           |
|  \\    /   O peration     | Version:  v1806                                 |
|   \\  /    A nd           | Web:      www.OpenFOAM.com                      |
|    \\/     M anipulation  |                                                 |
\*---------------------------------------------------------------------------*/
FoamFile
{
    version     2.0;
    format      ascii;
    class       surfaceScalarField;
    location    "694";
    object      phia;
}
// * * * * * * * * * * * * * * * * * * * * * * * * * * * * * * * * * * * * * //

dimensions      [0 3 -1 0 0 0 0];
oriented        oriented;


internalField   nonuniform List<scalar> 
12640
(
5.7900741163e-08
-5.66725523157e-08
1.09530258965e-07
-5.06218684828e-08
1.54351428948e-07
-4.40529017067e-08
1.92574895906e-07
-3.75538478908e-08
2.22253603974e-07
-2.90727695376e-08
2.43241728356e-07
-2.05426494114e-08
2.60972934709e-07
-1.73676879893e-08
2.8640383884e-07
-2.51048726831e-08
3.19943235043e-07
-3.32260850414e-08
3.53381404636e-07
-3.3149018955e-08
3.85894866281e-07
-3.22337514976e-08
4.20493543753e-07
-3.43456502984e-08
4.54563478453e-07
-3.38304725388e-08
4.86982044005e-07
-3.22103734945e-08
5.19920560559e-07
-3.27575072239e-08
5.570902893e-07
-3.70392100809e-08
5.96505538082e-07
-3.92965007035e-08
6.34475757795e-07
-3.78686226915e-08
6.70591180098e-07
-3.5986110207e-08
7.08054189361e-07
-3.73240466343e-08
7.52372538632e-07
-4.41670064177e-08
8.03198460806e-07
-5.06911877227e-08
8.55826158306e-07
-5.24984642178e-08
9.07947267925e-07
-5.20189121054e-08
9.58918438824e-07
-5.0876879447e-08
1.0091133532e-06
-5.01255142959e-08
1.05958344047e-06
-5.04053110039e-08
1.10992349588e-06
-5.02997929596e-08
1.15958962435e-06
-4.96285591524e-08
1.20894480987e-06
-4.93406021028e-08
1.25915373352e-06
-5.01938492623e-08
1.30972420305e-06
-5.05768604556e-08
1.36009656368e-06
-5.03825648416e-08
1.41235544756e-06
-5.22834477218e-08
1.46635190113e-06
-5.40115979975e-08
1.52135457962e-06
-5.50350196674e-08
1.5776397606e-06
-5.63084281812e-08
1.63344823398e-06
-5.58387480224e-08
1.68759499046e-06
-5.41686605104e-08
1.74062881688e-06
-5.30720696036e-08
1.79437255917e-06
-5.37774572737e-08
1.84566911701e-06
-5.13439816293e-08
1.89008329126e-06
-4.44533707419e-08
1.92978910367e-06
-3.97523064936e-08
1.96708082675e-06
-3.73267079763e-08
2.00153737843e-06
-3.44991072161e-08
2.03271358013e-06
-3.12067879348e-08
2.05961465731e-06
-2.69374921471e-08
2.08220873858e-06
-2.26180637352e-08
2.10345818102e-06
-2.12777584813e-08
2.12703325094e-06
-2.35860184743e-08
2.14831625177e-06
-2.12941698182e-08
2.15655122951e-06
-8.23170734096e-09
2.15555954141e-06
1.00245565049e-09
2.14454164349e-06
1.10521060321e-08
2.11916006353e-06
2.54308080073e-08
2.09583307986e-06
2.34189669759e-08
2.08197607746e-06
1.39933580144e-08
2.06239515686e-06
1.97773968108e-08
2.03752971034e-06
2.51365839976e-08
2.02596408894e-06
1.19323701462e-08
2.00411611386e-06
2.22883444214e-08
1.91120587076e-06
9.33583632538e-08
1.73415381888e-06
1.77321177877e-07
1.56527437289e-06
1.69044791184e-07
1.4465263207e-06
1.18832069288e-07
1.33835083072e-06
1.08257746261e-07
1.22969061395e-06
1.08751182068e-07
1.11488770098e-06
1.14900254032e-07
9.88789181417e-07
1.26180498062e-07
8.5889452719e-07
1.29971131205e-07
7.34285590807e-07
1.2468709483e-07
6.17493765237e-07
1.16842217847e-07
4.95719303479e-07
1.21803383853e-07
3.91611078859e-07
1.0411348347e-07
3.01307566268e-07
9.0337951824e-08
2.37064171275e-07
6.43081019495e-08
1.65259547326e-07
7.1911214389e-08
1.00103751537e-07
6.49192461014e-08
1.00197143501e-07
3.06825467883e-08
-8.66148636743e-08
7.08611284125e-08
-8.99973939563e-08
1.09853752715e-07
-8.23721495321e-08
1.49867858423e-07
-7.6985289267e-08
1.99101349148e-07
-7.78252751025e-08
2.37500226703e-07
-5.84471797996e-08
2.63350070532e-07
-4.28053102811e-08
2.90788403435e-07
-5.21497662192e-08
3.21445936406e-07
-6.35441931941e-08
3.54871096292e-07
-6.62349853104e-08
3.88449262994e-07
-6.55327090419e-08
4.19686867904e-07
-6.52993475937e-08
4.50646085705e-07
-6.45690631319e-08
4.82763574396e-07
-6.41281230362e-08
5.16641750505e-07
-6.65064648529e-08
5.54910086051e-07
-7.51693882448e-08
5.92931668661e-07
-7.72232367799e-08
6.24478159732e-07
-6.92735421906e-08
6.56554200997e-07
-6.79340278863e-08
6.96544168091e-07
-7.71444555363e-08
7.45156238849e-07
-9.26328691708e-08
8.00118125301e-07
-1.05489571316e-07
8.54757099105e-07
-1.07026480733e-07
9.05266692925e-07
-1.02404730028e-07
9.55041205079e-07
-1.00576587063e-07
1.00656672258e-06
-1.01560749284e-07
1.05731527136e-06
-1.01110409723e-07
1.10701768345e-06
-9.99411947776e-08
1.15662727958e-06
-9.92222854941e-08
1.20638977695e-06
-9.90688336092e-08
1.25594625261e-06
-9.97603175803e-08
1.30541038221e-06
-1.00035653509e-07
1.35467622048e-06
-9.96775713061e-08
1.40652490728e-06
-1.04139480213e-07
1.46229175295e-06
-1.09822640745e-07
1.51790787536e-06
-1.10661765055e-07
1.57367941727e-06
-1.12121045749e-07
1.63160357492e-06
-1.13778141582e-07
1.69042554707e-06
-1.13037779064e-07
1.74544562025e-06
-1.08115571317e-07
1.78682114716e-06
-9.52123432354e-08
1.81899578099e-06
-8.3553893878e-08
1.85611937593e-06
-8.16381688873e-08
1.89772602281e-06
-8.13920785635e-08
1.93892921325e-06
-7.85858539442e-08
1.97871810537e-06
-7.43178061763e-08
2.01552616475e-06
-6.80662107624e-08
2.04929920844e-06
-6.07367585958e-08
2.07917331593e-06
-5.25363289267e-08
2.10015982422e-06
-4.22832421818e-08
2.10787970254e-06
-3.13391015758e-08
2.11232804836e-06
-2.5749379653e-08
2.13282774512e-06
-2.87426183503e-08
2.1497182907e-06
-1.58682697156e-08
2.14708324368e-06
1.37126775512e-08
2.14534798416e-06
2.7236508147e-08
2.14299131277e-06
2.58670659559e-08
2.1311461953e-06
2.59905436008e-08
2.11893176363e-06
3.21954215953e-08
2.10196344071e-06
4.24032680136e-08
2.04782415086e-06
6.63931749228e-08
1.9835803419e-06
8.69270703077e-08
1.88245321503e-06
1.94876024288e-07
1.71491800934e-06
3.45168286107e-07
1.52346731407e-06
3.60603961917e-07
1.34955228604e-06
2.92833603015e-07
1.24578869706e-06
2.12086057501e-07
1.17120970419e-06
1.8341555767e-07
1.07851972197e-06
2.07672784957e-07
9.59418688174e-07
2.45382233729e-07
8.23787275126e-07
2.65692422848e-07
6.89984414839e-07
2.58569680799e-07
5.79974898569e-07
2.26912613797e-07
4.97897950436e-07
2.03931610365e-07
4.18218859096e-07
1.83831794292e-07
3.44274734121e-07
1.64338800219e-07
2.66236271541e-07
1.42386070604e-07
1.95952477628e-07
1.42185756957e-07
1.0286386337e-07
1.58220209713e-07
2.027927711e-07
3.801514218e-08
-1.24020272002e-07
5.81758409925e-08
-1.09484539599e-07
1.03690453607e-07
-1.27215040888e-07
1.56028935513e-07
-1.28749180907e-07
2.04807478476e-07
-1.26095641153e-07
2.3134411387e-07
-8.45769064011e-08
2.48206610199e-07
-5.92346434624e-08
2.77923191392e-07
-8.13873715824e-08
3.12259810777e-07
-9.74416506008e-08
3.46821811133e-07
-1.00426255792e-07
3.80740184838e-07
-9.91185102423e-08
4.12411792403e-07
-9.67166830946e-08
4.43096174811e-07
-9.50592644892e-08
4.75542777843e-07
-9.64268499379e-08
5.06600076629e-07
-9.74337943567e-08
5.22796587292e-07
-9.12489992115e-08
5.29516528178e-07
-8.38041837131e-08
5.52225117848e-07
-9.18400572324e-08
5.99652558662e-07
-1.15193631471e-07
6.68986339356e-07
-1.46309657862e-07
7.40580860096e-07
-1.64059438985e-07
7.96812029979e-07
-1.61580998114e-07
8.46315938064e-07
-1.56397560385e-07
8.98391117649e-07
-1.5437651395e-07
9.50583493522e-07
-1.52671383756e-07
1.00049087205e-06
-1.51397588736e-07
1.04986685012e-06
-1.50418879009e-07
1.09962409204e-06
-1.496569108e-07
1.14933567319e-06
-1.48895493393e-07
1.19935489436e-06
-1.49076189635e-07
1.2483228491e-06
-1.48719966937e-07
1.29749892703e-06
-1.49220134246e-07
1.34843126078e-06
-1.50624626279e-07
1.39717396901e-06
-1.52909510224e-07
1.45024986853e-06
-1.6291091215e-07
1.51142568149e-06
-1.71864954123e-07
1.56908589398e-06
-1.69801688891e-07
1.62500041693e-06
-1.6972356222e-07
1.68537810901e-06
-1.73441507232e-07
1.74358052846e-06
-1.66362758974e-07
1.79695506514e-06
-1.48627410875e-07
1.84606789413e-06
-1.3271808298e-07
1.88984760639e-06
-1.25459191043e-07
1.92997099677e-06
-1.21565513463e-07
1.96762826241e-06
-1.16283511748e-07
2.00236266678e-06
-1.09099916796e-07
2.03433264349e-06
-1.00073584069e-07
2.06323981131e-06
-8.96861830525e-08
2.08862475217e-06
-7.7952820738e-08
2.11099457402e-06
-6.46886580837e-08
2.13122385792e-06
-5.1592796328e-08
2.14691698365e-06
-4.14624652723e-08
2.14945790508e-06
-3.1287862725e-08
2.14474337938e-06
-1.11440474278e-08
2.1476268702e-06
1.08699993043e-08
2.15157304244e-06
2.33568070752e-08
2.14605501826e-06
3.14931318034e-08
2.13224507182e-06
3.99565302628e-08
2.11331417419e-06
5.13399413014e-08
2.08607393238e-06
6.99034348802e-08
2.0493617616e-06
1.03428884293e-07
1.95653947295e-06
1.80113798123e-07
1.7646421116e-06
3.87105750885e-07
1.52604848708e-06
5.83977006823e-07
1.3546119501e-06
5.32195529834e-07
1.28117677029e-06
3.66352308549e-07
1.19557978217e-06
2.97757418095e-07
1.08915176726e-06
2.8992165607e-07
9.75512168574e-07
3.21407146852e-07
8.52445308153e-07
3.68555317168e-07
7.36575959878e-07
3.81676622177e-07
6.47849256512e-07
3.47401553864e-07
5.72408654868e-07
3.02440978318e-07
4.96108174079e-07
2.8028627204e-07
4.07239500156e-07
2.72734564132e-07
3.17695076024e-07
2.5391451913e-07
2.4126529315e-07
2.18910804301e-07
1.82983575011e-07
2.00604777543e-07
7.89164775037e-08
2.61902035102e-07
2.81885612552e-07
2.62037666112e-08
-1.49567567453e-07
3.57571585764e-08
-1.18554574623e-07
8.5644006855e-08
-1.76495255195e-07
1.27778367939e-07
-1.7035741202e-07
1.33645186651e-07
-1.31564331707e-07
1.20945006141e-07
-7.16411858479e-08
1.68164799528e-07
-1.06068712066e-07
2.41757463184e-07
-1.54427018586e-07
2.93239518044e-07
-1.48436282475e-07
3.32443520841e-07
-1.39218975468e-07
3.68763794985e-07
-1.35131220013e-07
4.02181614737e-07
-1.29907515589e-07
4.30781250525e-07
-1.23487362287e-07
4.45070789343e-07
-1.10585483632e-07
4.48180810936e-07
-1.0041277905e-07
4.60944146206e-07
-1.03850719958e-07
4.98461801742e-07
-1.21146969192e-07
5.60047630286e-07
-1.53235240897e-07
6.3220927747e-07
-1.87168595712e-07
6.91588582563e-07
-2.05513350356e-07
7.38119471705e-07
-2.10433400796e-07
7.87465707854e-07
-2.1077787226e-07
8.39270019335e-07
-2.0807542017e-07
8.89728997257e-07
-2.04721262483e-07
9.39380023337e-07
-2.02232155637e-07
9.88691094355e-07
-2.00627388349e-07
1.03859353393e-06
-2.00262089269e-07
1.0885255942e-06
-1.9953543626e-07
1.13878243398e-06
-1.99120968086e-07
1.18804844076e-06
-1.98321582548e-07
1.23839130173e-06
-1.99059942189e-07
1.28624237165e-06
-1.97078867761e-07
1.33311695041e-06
-1.97509953476e-07
1.39055940238e-06
-2.10359691188e-07
1.44863779831e-06
-2.21007234593e-07
1.50633706188e-06
-2.29577556807e-07
1.57300345042e-06
-2.36489938904e-07
1.63756735143e-06
-2.34311616084e-07
1.69225268138e-06
-2.28163653554e-07
1.7429086612e-06
-2.17053775569e-07
1.79400499014e-06
-1.9976581395e-07
1.8439273823e-06
-1.82679652321e-07
1.88949123149e-06
-1.71069517359e-07
1.93067322167e-06
-1.62790728947e-07
1.96853156969e-06
-1.54190213844e-07
2.00337155351e-06
-1.43983334635e-07
2.03530050499e-06
-1.32048355245e-07
2.06415631176e-06
-1.18580747081e-07
2.0897665497e-06
-1.03602416987e-07
2.11228003229e-06
-8.72351328733e-08
2.13119270856e-06
-7.05360072398e-08
2.1440341413e-06
-5.43286245863e-08
2.14897991992e-06
-3.62430856454e-08
2.15129869391e-06
-1.34501891592e-08
2.1534735851e-06
8.73322205091e-09
2.15124152625e-06
2.56637939422e-08
2.14215462478e-06
4.0693778067e-08
2.12464121233e-06
5.76212776473e-08
2.09554726916e-06
8.06373479627e-08
2.04709987008e-06
1.1859345496e-07
1.96128796429e-06
1.89505515937e-07
1.81352448893e-06
3.28163832701e-07
1.65175461076e-06
5.49184120454e-07
1.50740234345e-06
7.28605903334e-07
1.34094741948e-06
6.98798566944e-07
1.19352941458e-06
5.1385044818e-07
1.08348926756e-06
4.07858777333e-07
9.89371326697e-07
3.84114694218e-07
9.00118662905e-07
4.10769950351e-07
8.0648663462e-07
4.62330989132e-07
7.06389552002e-07
4.81916013989e-07
6.08762478088e-07
4.45146648399e-07
5.12069935644e-07
3.99210433244e-07
4.17524210583e-07
3.74880811415e-07
3.30007569394e-07
3.6029722877e-07
2.39554389574e-07
3.44429556642e-07
1.59820736789e-07
2.98652367976e-07
1.07642959915e-07
2.52686210781e-07
5.54436015675e-08
3.14411910905e-07
3.37129424026e-07
4.48995761368e-09
-1.537451036e-07
3.00070795678e-08
-1.43673479992e-07
6.86450016513e-08
-2.14634628185e-07
9.85557895377e-08
-1.99851352472e-07
9.41001750356e-08
-1.26799597117e-07
1.21280850974e-07
-9.84996050592e-08
1.81026913245e-07
-1.65329856507e-07
2.26584813042e-07
-1.99467645075e-07
2.68312459111e-07
-1.89676747308e-07
3.09540091077e-07
-1.80056690918e-07
3.49798966156e-07
-1.7511257337e-07
3.76213382721e-07
-1.56113307167e-07
3.81664334366e-07
-1.28790185412e-07
3.87502476815e-07
-1.1626303541e-07
4.15552590378e-07
-1.28262672533e-07
4.65751740922e-07
-1.53830869299e-07
5.30031863307e-07
-1.85202639783e-07
5.91214073742e-07
-2.14205323369e-07
6.36884913544e-07
-2.32649720401e-07
6.77584457076e-07
-2.46041717769e-07
7.24757591692e-07
-2.57445639825e-07
7.75133658707e-07
-2.61008409157e-07
8.25515363169e-07
-2.58325518947e-07
8.75045298704e-07
-2.54140746254e-07
9.24200088503e-07
-2.51290346904e-07
9.73981669931e-07
-2.50332895633e-07
1.02324925601e-06
-2.49459249371e-07
1.07378882456e-06
-2.50025128978e-07
1.1229476117e-06
-2.48247031984e-07
1.17269303464e-06
-2.48051381683e-07
1.21905744535e-06
-2.45418043042e-07
1.27047590954e-06
-2.48494499301e-07
1.32976700223e-06
-2.56800992513e-07
1.38569639285e-06
-2.66291031952e-07
1.44751709755e-06
-2.82830130931e-07
1.51523699067e-06
-2.97309918801e-07
1.57738432498e-06
-2.98656886703e-07
1.63518846244e-06
-2.92145249585e-07
1.68920294604e-06
-2.82209481341e-07
1.74085678744e-06
-2.68744011604e-07
1.79224560113e-06
-2.5119091402e-07
1.84247907272e-06
-2.32953985869e-07
1.88909995317e-06
-2.17731925977e-07
1.93136263511e-06
-2.05100002752e-07
1.9698478166e-06
-1.92722268558e-07
2.00502504333e-06
-1.79209889605e-07
2.03707300227e-06
-1.64142207021e-07
2.0659162839e-06
-1.47469125444e-07
2.09140653434e-06
-1.29133706321e-07
2.11335448911e-06
-1.09222324258e-07
2.13097844096e-06
-8.82002428475e-08
2.14279279778e-06
-6.61687605704e-08
2.14864735599e-06
-4.21155672903e-08
2.15123362052e-06
-1.60280346909e-08
2.15111067107e-06
8.89576999067e-09
2.14527590722e-06
3.15698648275e-08
2.13024787079e-06
5.58173945815e-08
2.10115938544e-06
8.68602368316e-08
2.05015396935e-06
1.31816065304e-07
1.96612153299e-06
2.02829066414e-07
1.83955463017e-06
3.16306406469e-07
1.68628779557e-06
4.8170246627e-07
1.56340962432e-06
6.72326635575e-07
1.45476938231e-06
8.37453331443e-07
1.33713730341e-06
8.16587331371e-07
1.18835250949e-06
6.62717481064e-07
1.0348912818e-06
5.6138370975e-07
9.07526650202e-07
5.11572022342e-07
8.07330317461e-07
5.1108334869e-07
7.15818681084e-07
5.53982479287e-07
6.16907094735e-07
5.80971403288e-07
5.21198517229e-07
5.40967341299e-07
4.32730243567e-07
4.87755033874e-07
3.44888052503e-07
4.62789234591e-07
2.56806445562e-07
4.48433494627e-07
1.75724382943e-07
4.25542023735e-07
1.26634333767e-07
3.47814682149e-07
7.91535816653e-08
3.00333407776e-07
3.14736147191e-08
3.61764671789e-07
3.68793790273e-07
1.27658552724e-09
-1.54654820149e-07
3.47393916063e-08
-1.76774298614e-07
5.46196002732e-08
-2.34084257981e-07
6.83908755462e-08
-2.13219232353e-07
6.73811357394e-08
-1.25518248656e-07
1.26101652462e-07
-1.56828316918e-07
1.81925684744e-07
-2.20649087364e-07
2.10380316059e-07
-2.27415628965e-07
2.4460208536e-07
-2.23461099446e-07
2.79942848084e-07
-2.15058693325e-07
3.04377983642e-07
-1.99271583877e-07
3.00843746511e-07
-1.52412702363e-07
3.0898573785e-07
-1.36748340132e-07
3.43243752347e-07
-1.50298000502e-07
3.97477533895e-07
-1.82241826345e-07
4.66510035033e-07
-2.22594536315e-07
5.30182716428e-07
-2.48628392323e-07
5.74186629291e-07
-2.58002304836e-07
6.129411087e-07
-2.71218619531e-07
6.6060868543e-07
-2.93534330359e-07
7.0997909968e-07
-3.06653898954e-07
7.58085690889e-07
-3.08966405311e-07
8.06953976516e-07
-3.07062855897e-07
8.56856183396e-07
-3.03926030035e-07
9.06258323093e-07
-3.0059542784e-07
9.52687155684e-07
-2.96677408511e-07
1.00314399702e-06
-2.99850856376e-07
1.05233412367e-06
-2.99165561363e-07
1.10242925402e-06
-2.98305193026e-07
1.14625451087e-06
-2.91853815043e-07
1.19519021238e-06
-2.94340031046e-07
1.24924531706e-06
-3.02538436321e-07
1.3060373592e-06
-3.13580600165e-07
1.3783531623e-06
-3.38596495686e-07
1.45160068098e-06
-3.56075843707e-07
1.51575897792e-06
-3.61478595351e-07
1.5745646536e-06
-3.57484239069e-07
1.63091823963e-06
-3.48527035965e-07
1.68535248759e-06
-3.36676828053e-07
1.73829594602e-06
-3.21721420205e-07
1.79044700304e-06
-3.03377780647e-07
1.84113821298e-06
-2.83683109822e-07
1.88861994713e-06
-2.65256624214e-07
1.93196123529e-06
-2.48488272971e-07
1.97130445398e-06
-2.32116411336e-07
2.00701768329e-06
-2.14974881533e-07
2.03928320436e-06
-1.96460362988e-07
2.06803422217e-06
-1.76271493444e-07
2.09305752807e-06
-1.54207432898e-07
2.11400517268e-06
-1.30223189195e-07
2.1302143397e-06
-1.04450954125e-07
2.14092933407e-06
-7.6933951035e-08
2.14638259026e-06
-4.75849409732e-08
2.14755775347e-06
-1.72059434346e-08
2.14349755185e-06
1.29823680732e-08
2.1305249329e-06
4.45853315404e-08
2.10340571107e-06
8.30348463415e-08
2.05501272522e-06
1.35354353037e-07
1.97688258265e-06
2.1010551477e-07
1.86371198794e-06
3.16178847365e-07
1.72107287143e-06
4.59152568214e-07
1.57330171971e-06
6.29695334594e-07
1.46616414466e-06
7.79711268212e-07
1.35470294007e-06
9.49190425397e-07
1.21567066707e-06
9.55772587795e-07
1.09303887181e-06
7.85427438088e-07
9.5344442679e-07
7.01053458884e-07
8.1989269776e-07
6.45196701554e-07
7.11962965427e-07
6.19129106608e-07
6.14099235502e-07
6.51997816178e-07
5.18687286787e-07
6.76541942389e-07
4.41960662663e-07
6.17804757695e-07
3.59820293817e-07
5.69987006602e-07
2.74227583415e-07
5.48467255478e-07
1.93884479727e-07
5.28857547919e-07
1.39672297315e-07
4.79850625034e-07
9.46167617656e-08
3.92908389951e-07
5.25078206066e-08
3.42331785697e-07
2.33026404964e-08
3.91354261103e-07
3.91924103438e-07
1.20452681341e-08
-1.66477227093e-07
4.83404832016e-08
-2.12715677885e-07
6.32627104058e-08
-2.48610594599e-07
5.25072833837e-08
-2.02104614782e-07
7.55781592684e-08
-1.48247617927e-07
1.37248078707e-07
-2.18028745328e-07
1.67078386859e-07
-2.49982249625e-07
1.91018475908e-07
-2.50911905573e-07
2.15752187378e-07
-2.4780118712e-07
2.50375695635e-07
-2.49358387104e-07
2.51656463059e-07
-2.00326590696e-07
2.54851932317e-07
-1.55400051016e-07
2.86712710696e-07
-1.68368383457e-07
3.31032407276e-07
-1.94336453774e-07
3.95920867813e-07
-2.46823041868e-07
4.60481187432e-07
-2.86872763125e-07
5.02837433444e-07
-2.9074807881e-07
5.39527642005e-07
-2.94482269949e-07
5.8958126834e-07
-3.21073205509e-07
6.41114900862e-07
-3.44884506122e-07
6.88914746913e-07
-3.54286895494e-07
7.36774035275e-07
-3.56676967453e-07
7.85923511996e-07
-3.56073321384e-07
8.33480051972e-07
-3.51364176183e-07
8.79504387039e-07
-3.46521727518e-07
9.2690792486e-07
-3.43994198086e-07
9.74148783112e-07
-3.47020722845e-07
1.02442814173e-06
-3.49387510533e-07
1.0704080007e-06
-3.44245071619e-07
1.11532165569e-06
-3.36736892423e-07
1.17199452892e-06
-3.50984143214e-07
1.23227246823e-06
-3.62793550677e-07
1.3026369755e-06
-3.83922950903e-07
1.37542493204e-06
-4.11368738415e-07
1.44702542749e-06
-4.27674312698e-07
1.5100771219e-06
-4.2454147045e-07
1.56844009651e-06
-4.15867908108e-07
1.62522560651e-06
-4.05340287012e-07
1.6809014373e-06
-3.92383883729e-07
1.73531932852e-06
-3.76172977859e-07
1.78852965074e-06
-3.56623794894e-07
1.83995873674e-06
-3.3515196188e-07
1.88833653445e-06
-3.13679148713e-07
1.93275534522e-06
-2.92957726201e-07
1.97306253611e-06
-2.72478899102e-07
2.00941891403e-06
-2.51390750881e-07
2.04189654979e-06
-2.28999850363e-07
2.07036220276e-06
-2.04801014257e-07
2.09454860686e-06
-1.78460785149e-07
2.11410242159e-06
-1.49835998286e-07
2.12853594907e-06
-1.18965533526e-07
2.13749015543e-06
-8.59243273687e-08
2.14089500878e-06
-5.10449393615e-08
2.13835507558e-06
-1.46864404803e-08
2.12737874432e-06
2.39475312609e-08
2.10310310042e-06
6.88934404196e-08
2.05922751777e-06
1.26924481984e-07
1.99025147496e-06
2.04443261561e-07
1.89454736349e-06
3.05931376222e-07
1.77732713243e-06
4.33577764687e-07
1.65386545914e-06
5.82823905634e-07
1.5463945511e-06
7.37434044162e-07
1.43314175732e-06
8.93282351524e-07
1.31496359578e-06
1.06761906029e-06
1.13069376724e-06
1.14021806224e-06
9.89429374137e-07
9.26795382172e-07
8.75355380524e-07
8.15184863308e-07
7.48176002798e-07
7.72457753107e-07
6.23304902668e-07
7.44117111993e-07
5.14652062773e-07
7.60821850186e-07
4.40065624581e-07
7.51273700838e-07
3.7274895727e-07
6.85257845917e-07
2.90191947368e-07
6.52663301563e-07
2.0961065095e-07
6.2916327606e-07
1.43678089671e-07
5.94902819632e-07
1.08257453875e-07
5.15334695532e-07
6.12584999463e-08
4.39989455234e-07
2.22694534858e-08
3.81551061828e-07
1.17346951352e-08
4.01561738691e-07
4.03877626617e-07
2.17314157583e-08
-1.87813608582e-07
5.03984456032e-08
-2.41008056274e-07
5.65936381614e-08
-2.54416146158e-07
3.60138261431e-08
-1.81226120628e-07
7.94053536097e-08
-1.91267487205e-07
1.25251873436e-07
-2.63392232068e-07
1.475491519e-07
-2.71840078429e-07
1.71267505416e-07
-2.74227870467e-07
1.80378501204e-07
-2.56571142462e-07
1.99129384018e-07
-2.67793175308e-07
1.9473697929e-07
-1.9570310648e-07
2.28725006668e-07
-1.89127800972e-07
2.65919075946e-07
-2.05267582987e-07
3.22116565627e-07
-2.50217157265e-07
3.85614396567e-07
-3.09994808835e-07
4.29004013269e-07
-3.29973126676e-07
4.6183836277e-07
-3.23344490996e-07
5.11147707512e-07
-3.43569650839e-07
5.6579102431e-07
-3.75506048423e-07
6.14700137275e-07
-3.9360260509e-07
6.61550969602e-07
-4.00966237879e-07
7.08932357995e-07
-4.03895827775e-07
7.59254012779e-07
-4.06255316518e-07
8.08927056331e-07
-4.00922718179e-07
8.52089100415e-07
-3.89572923704e-07
9.02779009922e-07
-3.94595875119e-07
9.48347368067e-07
-3.92512977394e-07
9.91882241507e-07
-3.92860524613e-07
1.03697848021e-06
-3.89290069618e-07
1.10383452606e-06
-4.03545668182e-07
1.16271205107e-06
-4.09822867929e-07
1.22108558185e-06
-4.21128273423e-07
1.29494813495e-06
-4.57756395559e-07
1.37265814042e-06
-4.89061057501e-07
1.43828606497e-06
-4.93298491375e-07
1.49988270158e-06
-4.86147566064e-07
1.55976028829e-06
-4.75765278812e-07
1.61832755436e-06
-4.6393477018e-07
1.67573816236e-06
-4.49826356547e-07
1.73184823345e-06
-4.32317905963e-07
1.7864268502e-06
-4.11240500326e-07
1.83892337527e-06
-3.87691176784e-07
1.88838646657e-06
-3.63191137565e-07
1.93397935226e-06
-3.38606220823e-07
1.97533699005e-06
-3.13899233834e-07
2.01237472732e-06
-2.88499238606e-07
2.04497584241e-06
-2.61678050247e-07
2.07289191649e-06
-2.32802859504e-07
2.09582558833e-06
-2.0147700882e-07
2.11344743207e-06
-1.67568124734e-07
2.12545549949e-06
-1.3103196188e-07
2.13143706832e-06
-9.20225187292e-08
2.13084454337e-06
-5.05031124599e-08
2.12191581886e-06
-5.7976504245e-09
2.10084339433e-06
4.49783049091e-08
2.06223647188e-06
1.07456570641e-07
2.00163076799e-06
1.87598759826e-07
1.91990690094e-06
2.86186261207e-07
1.82335251666e-06
4.02616187943e-07
1.71913882792e-06
5.37948907946e-07
1.61535548496e-06
6.86808012564e-07
1.51729995895e-06
8.35738633114e-07
1.42501294997e-06
9.85852750229e-07
1.35416032532e-06
1.13875943408e-06
1.19453708452e-06
1.30007872337e-06
9.32492271738e-07
1.18896572206e-06
7.68520795395e-07
9.79201946226e-07
6.34058493463e-07
9.06937383864e-07
5.09574971634e-07
8.68672308922e-07
4.22617422612e-07
8.4790883142e-07
3.68081568913e-07
8.06003301726e-07
3.01015871353e-07
7.52492371747e-07
2.23192350945e-07
7.30647621845e-07
1.51145479963e-07
7.01361575976e-07
1.00912278918e-07
6.45269957152e-07
6.1205311051e-08
5.55155580237e-07
1.92753226977e-08
4.81994383122e-07
-1.62047332561e-08
4.16903218603e-07
-1.27176041223e-08
3.98525340572e-07
3.91032391952e-07
2.61630386924e-08
-2.13713412898e-07
4.41600474546e-08
-2.58617060591e-07
3.9013391142e-08
-2.48924841587e-07
4.2110317845e-08
-1.84008720904e-07
8.7928762697e-08
-2.36684550645e-07
1.06136342542e-07
-2.81169023366e-07
1.25640429179e-07
-2.90960889713e-07
1.47852286565e-07
-2.96083942877e-07
1.54110110356e-07
-2.62497945614e-07
1.65408578857e-07
-2.78774283553e-07
1.78728638255e-07
-2.08743774884e-07
2.09769515718e-07
-2.19867525337e-07
2.4960047058e-07
-2.44769554765e-07
3.10142643057e-07
-3.10399834646e-07
3.63190330657e-07
-3.62711245724e-07
3.93605126106e-07
-3.60112011994e-07
4.31008306034e-07
-3.60496286331e-07
4.82745913017e-07
-3.95066586771e-07
5.34753747597e-07
-4.27292059273e-07
5.8347064872e-07
-4.42115298786e-07
6.30828470117e-07
-4.48129941086e-07
6.76337706074e-07
-4.49238681437e-07
7.22337581214e-07
-4.52121015437e-07
7.69771957884e-07
-4.48229769903e-07
8.12829270399e-07
-4.32527341797e-07
8.60586794917e-07
-4.42257427562e-07
9.11767257535e-07
-4.43606407258e-07
9.66338234723e-07
-4.47363701711e-07
1.02365507373e-06
-4.46547830321e-07
1.07921708323e-06
-4.59048846795e-07
1.14092594847e-06
-4.71472270718e-07
1.22054810125e-06
-5.00700334413e-07
1.29546096241e-06
-5.32630647984e-07
1.36125590993e-06
-5.54834114259e-07
1.4248064341e-06
-5.56844771188e-07
1.48751912041e-06
-5.4886928724e-07
1.54942040206e-06
-5.376858498e-07
1.61016866642e-06
-5.24710033988e-07
1.66965046681e-06
-5.09340827649e-07
1.72773049255e-06
-4.90435329725e-07
1.78406113675e-06
-4.67613083499e-07
1.83804369489e-06
-4.41721471746e-07
1.88888958145e-06
-4.14091873547e-07
1.93584659576e-06
-3.85627893136e-07
1.97837986401e-06
-3.56510987882e-07
2.01612145666e-06
-3.26331215728e-07
2.04871258427e-06
-2.94377108536e-07
2.07577390779e-06
-2.59974900718e-07
2.09694483159e-06
-2.22787431799e-07
2.11198552795e-06
-1.82693577859e-07
2.12052064505e-06
-1.39743513944e-07
2.12210598752e-06
-9.36728116293e-08
2.11538997645e-06
-4.38620106106e-08
2.09755017308e-06
1.19518752474e-08
2.06410167558e-06
7.83816243656e-08
2.0107719503e-06
1.60790181184e-07
1.93727516613e-06
2.61007201408e-07
1.85351176009e-06
3.7002910924e-07
1.76828468236e-06
4.87917862573e-07
1.67812553439e-06
6.28216146146e-07
1.57747705742e-06
7.87617762994e-07
1.47877982392e-06
9.34656596528e-07
1.40329343625e-06
1.06161689587e-06
1.34704806517e-06
1.19531735928e-06
1.29199506096e-06
1.35541412209e-06
1.02508180688e-06
1.45603042374e-06
6.79897696952e-07
1.32437915388e-06
5.23402302159e-07
1.06339618483e-06
4.12306305411e-07
9.79790449561e-07
3.40195232958e-07
9.20158888684e-07
2.86638587208e-07
8.59740008814e-07
2.29204782269e-07
8.10134372533e-07
1.62448921971e-07
7.97603078442e-07
9.76266254064e-08
7.66375660718e-07
4.66512740893e-08
6.96379292161e-07
-5.2784776387e-09
6.0717003114e-07
-4.33961683921e-08
5.20195328462e-07
-6.30086666741e-08
4.36813531273e-07
-4.33222797697e-08
3.78580198372e-07
3.47948364076e-07
2.75138160925e-08
-2.40749746119e-07
4.19208432455e-08
-2.72594748714e-07
2.86209034534e-08
-2.35262200643e-07
4.50288103222e-08
-2.00087523157e-07
8.07389570169e-08
-2.71980182197e-07
8.68386320978e-08
-2.86898459851e-07
1.01300843525e-07
-3.05033114407e-07
1.12589592637e-07
-3.07043437985e-07
1.30831616041e-07
-2.80441540755e-07
1.26122530697e-07
-2.73740324442e-07
1.53155349556e-07
-2.35474615242e-07
1.88491321006e-07
-2.54874363188e-07
2.29333758517e-07
-2.85269610816e-07
2.82349242508e-07
-3.63050301634e-07
3.21187938878e-07
-4.01214646431e-07
3.45564396767e-07
-3.84205093749e-07
3.92073906229e-07
-4.06737259926e-07
4.46125676848e-07
-4.48861182132e-07
4.97087299375e-07
-4.78014872876e-07
5.47097283985e-07
-4.91904990275e-07
5.96633483271e-07
-4.97476360706e-07
6.44243329422e-07
-4.9668344735e-07
6.86163239877e-07
-4.93878158393e-07
7.30472246003e-07
-4.92409779989e-07
7.80901758708e-07
-4.82846073724e-07
8.2452871537e-07
-4.85772012167e-07
8.71102065105e-07
-4.9009771265e-07
9.16050126375e-07
-4.92237178404e-07
9.82246067092e-07
-5.12667489622e-07
1.05101811303e-06
-5.27750110428e-07
1.12461297622e-06
-5.44995191642e-07
1.19838399933e-06
-5.74406764435e-07
1.27756980862e-06
-6.11768648829e-07
1.3456627686e-06
-6.22902692978e-07
1.40947050324e-06
-6.20645315447e-07
1.4734938534e-06
-6.12898985928e-07
1.53754910349e-06
-6.01758976654e-07
1.60072211941e-06
-5.87910819136e-07
1.66257851843e-06
-5.71233148958e-07
1.72292503524e-06
-5.5082468112e-07
1.78137887071e-06
-5.26116234073e-07
1.83730022757e-06
-4.97699112462e-07
1.88993621165e-06
-4.66794826854e-07
1.93855225768e-06
-4.34326256277e-07
1.98246965006e-06
-4.00526806333e-07
2.02100897244e-06
-3.64996714566e-07
2.05350310745e-06
-3.27006173033e-07
2.07936559901e-06
-2.86009867e-07
2.09824854447e-06
-2.41801108677e-07
2.10980860751e-06
-1.94484136573e-07
2.11381315572e-06
-1.43845719986e-07
2.10936154907e-06
-8.93782288834e-08
2.09461684631e-06
-2.92039825492e-08
2.06612221543e-06
4.04107085599e-08
2.01962982588e-06
1.2476945598e-07
1.95358090281e-06
2.26720913411e-07
1.87158178099e-06
3.43079842844e-07
1.7925400235e-06
4.48952479805e-07
1.72367334902e-06
5.5676306107e-07
1.64230716575e-06
7.09678482845e-07
1.5281832414e-06
9.01866046868e-07
1.41238379634e-06
1.05076259489e-06
1.34142934461e-06
1.13299382169e-06
1.30294278027e-06
1.23428793548e-06
1.29661058598e-06
1.36219813055e-06
1.21574575871e-06
1.53720198356e-06
8.36115434165e-07
1.70419738475e-06
4.25147685724e-07
1.47436877135e-06
3.04256363134e-07
1.10068889494e-06
2.41412284275e-07
9.83154454288e-07
1.85181083711e-07
9.16261290547e-07
1.63089205455e-07
8.3254529516e-07
1.15694599491e-07
8.45260754891e-07
4.96959917402e-08
8.32569130224e-07
-2.19191680725e-08
7.68134450704e-07
-8.80184250725e-08
6.73394959201e-07
-1.23009503778e-07
5.55218320944e-07
-1.15076062066e-07
4.28783876443e-07
-7.00242795825e-08
3.34023141846e-07
2.77875592904e-07
2.25903681675e-08
-2.63074127669e-07
3.34756320693e-08
-2.83157389246e-07