/*--------------------------------*- C++ -*----------------------------------*\
| =========                 |                                                 |
| \\      /  F ield         | OpenFOAM: The Open Source CFD Toolbox           |
|  \\    /   O peration     | Version:  v1806                                 |
|   \\  /    A nd           | Web:      www.OpenFOAM.com                      |
|    \\/     M anipulation  |                                                 |
\*---------------------------------------------------------------------------*/
FoamFile
{
    version     2.0;
    format      ascii;
    class       volScalarField;
    location    "186";
    object      alpha;
}
// * * * * * * * * * * * * * * * * * * * * * * * * * * * * * * * * * * * * * //

dimensions      [0 0 -1 0 0 0 0];


internalField   nonuniform List<scalar> 
6400
(
0.829576896763
1.2406660229
1.89778159471
2.1651866288
2.43731155824
2.75459013166
3.3198222336
3.98771667303
4.0858293647
4.36736580974
5.47360915339
5.92956251022
6.25727325487
6.7258404724
7.47280793269
8.23607379243
8.77652158845
9.30493129724
9.79168240914
9.993326582
9.88128291589
9.77546790881
9.93113893094
10.4237981884
11.0123954786
11.4956291609
11.7816460481
12.0226026852
12.3643189205
12.8166604692
13.3282022424
13.6107175842
13.608259634
13.5112018971
13.323114767
12.9112321289
12.686060523
12.9488343767
12.6751479118
12.0320829909
11.8345239917
12.2743147285
12.7721283452
13.0059789314
13.0645130963
12.9911912426
12.8669495076
12.7621638358
12.6781409192
12.6156228657
12.3944753948
11.5385537186
10.7393512887
9.85986229102
9.49725698087
9.93576199251
9.83150844067
8.54796679008
6.99995701308
6.47098910893
5.64281245672
4.71521838187
3.78505822669
5.51336143412
9.59732974584
14.5476214495
17.5445706776
17.2528794035
15.2389300151
13.534571578
12.5533626489
12.6114124744
13.0233526098
12.8238848601
14.7623179005
14.1662951091
15.9943301112
9.89276964344
12.8725259828
4.8133404413
3.07710778614
2.37916474854
2.9051167044
4.09239254506
3.72704253966
3.28395860963
3.25597591255
3.50078934913
3.90090814956
4.43799924483
5.13638031098
5.83298086731
6.41900067016
6.9780531491
7.52944902523
8.18338562968
8.86705467691
9.5785969018
10.6608841753
10.6342957995
10.2263613549
10.0016392906
9.99953358522
10.4100682633
11.3002897641
11.6336335865
11.8481112374
12.1732591842
12.5574675598
12.9718633762
13.4140046836
13.9253260424
13.9324189157
13.8654537556
13.784809786
13.1060750505
13.0533936117
13.3166062288
12.8648426628
11.8484844385
11.5657078092
13.9615743656
15.3661713718
15.4262761798
15.354417023
14.9812168076
14.4398690739
14.0230962498
13.3835540265
12.8640586708
12.8519697207
13.4985535959
13.3493561965
10.0813116474
10.0305678689
9.7605798492
8.08108655388
6.91858582038
5.9905897653
5.08318429986
4.38914869038
5.0532070608
3.97980787135
5.6888909281
9.64381317493
15.4596561961
19.1849492711
17.9975280487
15.8184849537
13.8437186855
13.0230259567
13.2989910639
14.2579040375
13.6201106416
13.4033019748
12.8318652066
11.599870328
9.74280373489
8.18190285911
4.26712240158
3.02851951045
2.55659586272
3.03765147223
3.09177407351
3.31091012008
3.59233296914
3.50365221294
3.4535669936
3.83265480188
4.4240548737
5.10993295237
5.8256698807
6.46737985497
7.04275697049
7.46205973585
8.04802670547
11.3370268197
13.5036485497
13.7018212154
12.612826532
10.1036869235
9.42479157018
10.2313663788
10.7063980896
11.0643987362
11.5640799691
11.9920128274
12.3246535048
12.6869860373
13.136049731
13.5005697921
14.2106969053
14.2937529602
13.6996792431
14.4833752685
13.8413246777
12.8813892871
13.7685859781
13.2279173875
12.1163870167
11.7919001248
12.3127277276
12.8885044894
13.1609335198
13.2412385271
13.2095487278
13.0984207084
12.9273452946
12.6959258991
12.4283747694
12.1262027549
11.7040816414
11.0966422816
10.7600536141
10.6062993595
9.27830273047
7.97357108057
6.96715221984
6.09974562718
5.34006039611
4.79194925114
4.24423668444
3.94427507386
6.41355740784
11.5965011649
16.2967345503
18.6093639948
18.7237232096
17.108501515
15.3769779703
14.5905581351
14.3962999452
13.6683995678
13.0138650058
12.9207987624
12.5188238395
11.496152309
9.85672106532
7.41973902029
7.5936885527
2.78747433212
5.29649231906
3.11589983857
3.04698503341
3.6631936971
11.6757954793
9.97986029586
4.30874735179
3.85834086874
4.45721531857
5.1334077134
5.85173871624
6.47237930598
7.1579717267
9.22573964815
11.5958843169
13.2436558153
13.3097627036
11.3841761212
9.53706853605
9.49323512671
9.705329118
10.0124906596
10.5461452244
11.1568304736
11.7356516036
12.2252959416
12.5001116948
12.9568903066
13.2172211779
13.975474756
14.1216208614
14.9266608474
14.5587494984
13.4865114426
14.1222899804
13.3052512634
12.3907035168
12.2110064357
12.127400609
12.1707447735
12.501354436
12.9073058795
13.1706711387
13.2840338738
13.2818526218
13.1910926144
13.0319622964
12.813763074
12.5476628352
12.2308431616
11.8405729358
11.3736741413
10.8810797839
10.2230902901
9.23028718197
8.10458848684
7.114292532
6.31035418262
5.68097147754
5.22331193011
4.89718469016
5.03066066291
6.95032983095
10.7778720813
16.561635921
20.1490859463
20.3471093432
18.6655678678
16.2899325817
14.6257405266
13.7527398701
13.8346573896
15.142365838
15.0181442719
13.6489190269
13.4614796388
16.7153444216
13.1190201582
11.1373478128
5.2309875086
7.2731434023
3.53081342077
3.85388255965
6.09349686666
11.5534640534
7.62239145397
4.39110191504
4.33392048756
4.67672362335
5.288115661
6.04510732238
7.55109951308
10.2812899209
11.2373073147
11.3573339349
10.8383582979
9.82591013672
9.2253692203
9.60470773134
9.64488772653
9.6473596229
10.0636082126
10.652567109
11.3134975937
11.9653308913
12.3569475172
12.9521656018
13.0607104649
13.8932711285
13.9123559408
15.4990500752
14.7367442781
13.7544354102
14.0249945711
12.8948987771
12.4646370542
12.3096052573
12.288296486
12.3185506676
12.4148047267
12.6567592776
12.9655764254
13.2084547654
13.3391076203
13.3588615845
13.286096577
13.1414704206
12.9398220578
12.6891991948
12.3857343992
12.0199428381
11.5863144499
11.0604632612
10.3314982025
9.34640785164
8.28451078096
7.36431976486
6.66610161071
6.17907003803
5.88139825506
5.81921401317
6.32668056034
7.46734470238
10.5750404459
15.9463280183
20.1578984079
21.5523657121
20.3509638622
17.5628684184
15.0526762728
14.6622357265
16.8163159839
17.6198034724
16.5272107891
15.5599454003
18.1509742521
21.1293700423
16.4391545835
15.5453242494
9.58450153553
8.68905345456
4.3677035716
5.21778504214
11.8058509873
11.2116978846
5.37603951712
4.81386771165
4.86290119066
5.00156761402
5.62656385318
8.69612805789
12.2578316333
12.5166606756
11.8767793589
10.3111894735
9.10285259506
8.80886044976
9.6961808984
9.63363859287
9.38432498202
9.67397107734
10.2121074063
10.8853953571
11.4239057979
12.1048680357
13.0846452876
12.9850436174
14.1630246932
13.7841312422
15.8830289253
14.9751599772
16.2438618825
14.4549064502
12.7789774378
12.2911836555
12.2836166299
12.3567618192
12.432464182
12.5056731326
12.6236399843
12.8261797633
13.0757556808
13.294233237
13.4275522248
13.4610077051
13.4027904762
13.2744175634
13.0955034911
12.8727111663
12.5991867111
12.2613896589
11.8357282717
11.2717094795
10.5020670244
9.54989008966
8.58258017497
7.76407977129
7.14873589937
6.77001382818
6.62777840452
6.96073349342
8.33739559687
7.66283012751
11.8135467961
17.5315302902
21.2891142114
22.6970949855
21.7368677141
18.3533813252
16.1631041858
17.9149379514
20.0568594755
19.4772481852
18.4231135068
18.4375670477
22.9188813169
24.464348805
19.4426002065
19.2284571176
11.6359039232
8.21573623691
5.31560557139
5.05765876355
11.6567228091
7.56014754076
5.20934690266
5.28197775017
5.34717596916
6.04400965672
6.34037546012
12.2537661635
12.6877529278
12.5542284219
10.6630265242
8.75901582492
8.39650133735
9.86444682708
9.76608993629
9.14627444874
9.38379505107
9.78027992945
10.3160260021
10.9846557379
11.9055082866
12.8862278625
13.0169380354
14.6580550166
13.9929924609
16.3244856989
15.211972478
16.6027675223
15.1343860778
14.0955959408
12.2803318647
12.0686879853
12.2822779459
12.4731986858
12.5854492895
12.6815338599
12.817366712
13.0044188974
13.2210736125
13.4186973313
13.5490333884
13.5893344166
13.5440199356
13.4366196433
13.2887100976
13.1035835809
12.8675068556
12.5559790839
12.1304814541
11.5415920069
10.7660039647
9.87047357853
9.00203911063
8.27342385756
7.71222513228
7.33762208688
7.32160832373
7.77623670964
8.09286289993
8.67651270182
12.7653045257
19.7992318942
22.4614475137
22.8904142563
21.8078908854
19.5365990189
19.3296456185
21.8769174969
22.2688636305
21.3664292084
20.7130306634
22.5828151069
25.239301022
26.6554038517
22.0287096678
20.8625299045
11.1911004048
7.4648548582
6.33613319896
11.6237694726
11.5998336503
5.91548864426
5.73307262471
5.80265835474
6.02921208559
6.54293018336
12.0869212332
12.9357262431
12.7889548492
12.03816333
8.9895733124
8.00015042342
9.80335680933
10.1200637964
9.16403797849
8.95853338954
9.43750442607
10.0335612976
10.553216865
11.316062383
11.9451304015
13.43745718
13.1609842559
14.5413499851
16.2508528684
16.3161270525
14.6130958478
15.6643587588
15.495230944
12.688209112
12.1407221938
12.1660538297
12.3772650689
12.5933773725
12.7379518365
12.8560579379
13.0062691228
13.1938297409
13.3950186148
13.5763096633
13.7003499253
13.7442406599
13.7132596853
13.6330694488
13.5243862471
13.3845631041
13.1908456908
12.9065430442
12.4843556703
11.8885288863
11.134928857
10.3103982031
9.52300368086
8.81362586172
8.16686560378
7.7125702996
7.79049269323
8.3457476792
9.09052138288
10.1170113393
11.2076627916
19.568554768
23.9225198249
24.0819230321
23.5317037222
22.6698635573
23.620531395
24.9924945755
24.2564706206
23.4992834921
23.6086418206
25.801414351
26.3655581477
26.8924543859
23.9459036257
21.7450453566
10.2282667596
7.00121413793
6.97642651052
12.5098639965
10.1811932028
6.15838126825
6.29943039333
6.47316953097
8.19110755978
6.46234263305
12.8599941908
13.339856939
12.7571034914
10.391009813
8.18672400544
8.11288153137
9.94524324514
9.62981634744
8.93146936653
8.98473333318
9.41329657644
10.1763116004
10.861787306
12.2241160117
13.4732180392
13.2130830256
15.7242459368
14.0568907364
16.6330147964
14.8608983823
16.8331152671
14.3120755788
13.2405393889
12.4497950227
12.2469346353
12.3237137695
12.5013797621
12.7129555746
12.8888642217
13.038634533
13.2043657963
13.3955585842
13.5919345381
13.7632921796
13.879245104
13.9259092733
13.9138745585
13.8683240244
13.8057564409
13.7174135622
13.5709866903
13.317922409
12.9072359534
12.3218361178
11.6079159708
10.8499986635
10.0897398362
9.26454337131
8.33625156985
7.71360475591
8.08182778161
9.28339975874
10.5761964732
11.6405670306
12.5221412839
15.7648216949
23.8661041407
25.5423182896
25.7381393154
26.5920582578
27.7953890076
27.4632287947
26.3877664963
26.0832402029
26.9158482086
27.934683337
27.640828034
26.9311482071
25.8167472056
24.3522252343
9.33761997927
7.11210679244
8.19001743023
12.4880504362
7.48567563178
7.1759869935
6.86272053617
7.1132274454
10.9809153786
9.44037976382
13.6856168022
13.5187147081
12.7096873318
9.29191653344
8.01683726667
10.0411874927
10.2261683763
9.23765962688
8.85605270532
9.17420113759
9.53073761894
10.2347061772
10.7663314469
12.4112859411
14.9625612333
12.9961086492
15.5912527052
16.6969370076
16.8662073062
17.1262083765
15.1877373045
15.0532378843
12.6264335888
12.2769486377
12.3790620272
12.4889253269
12.6387272611
12.8340376093
13.0330063969
13.2230083694
13.4160336725
13.6159576087
13.8107421933
13.9763913822
14.0872219289
14.1368824967
14.1467999247
14.1436487529
14.1350448898
14.1036984698
14.0094612342
13.7935072444
13.4036509143
12.8425972101
12.1758153487
11.456513843
10.6050320812
9.39855844417
7.94179941199
7.38642189576
8.66854241917
10.7150576322
12.3757781089
13.5998241553
14.5140828861
14.5501615785
15.6960579531
27.2543608592
30.1172114018
31.4205546528
31.4437977928
30.0312503239
29.0259603345
29.1446353909
30.0696451989
30.1709926523
29.7247183898
29.2650265908
29.4762020782
29.5794710462
8.90013219146
7.69937106596
11.9546463935
12.3790931731
7.10329088919
7.84927039294
7.38733546589
8.18388470115
10.1023303491
13.2605623702
14.3541849746
13.6392597755
12.7699381748
8.93864577619
8.07377987756
10.6644851555
10.1978306493
9.0908447919
8.85719785482
9.32583382661
10.0221446845
10.549959315
10.9563343211
11.9366208417
15.0769220538
16.241490442
14.7100176871
16.8746096885
14.6786242432
17.1790268883
17.1250680204
14.849681495
12.4514149336
12.36759211
12.5466815666
12.6653145833
12.7973526769
12.9735910814
13.1750095817
13.4031710431
13.638342182
13.8559413769
14.052561046
14.2152726053
14.3236010861
14.3803121068
14.4167194775
14.4602350541
14.5104216582
14.5411984083
14.5044091149
14.3318908437
13.9733089247
13.4496664465
12.8253847749
12.0653161476
10.8210599796
8.76176754111
7.0508719984
7.45493824327
10.1528966394
12.9205011915
14.7670552005
15.9990387656
16.6526132635
16.5859761023
16.0246188227
17.7894853297
31.7150782311
37.0695018908
35.8732841507
33.4805762156
32.5210711121
32.7554088458
33.2191381883
33.2188310337
33.2286899642
33.5047257715
33.9334655579
34.5267613325
8.86924585054
8.39350709644
13.4933193274
12.7658634846
10.4523142468
8.95684334138
8.09108794375
9.74407914359
9.16114627482
14.1818435323
14.8235750359
13.8080574667
12.5809414841
9.23917927763
8.85056723999
11.191699672
10.0751816795
9.06338533378
8.95786919317
9.35866711321
10.2308152027
10.9750181048
13.0065514216
12.0757406439
14.425227961
16.6209890964
14.2826429983
17.1980800289
17.6509949052
15.610838141
15.5474170713
13.1488482563
12.7978312601
12.6876500954
12.7598446513
12.8725073712
12.991804998
13.1492804614
13.3247177879
13.5618775397
13.8546706673
14.1217092795
14.3253230414
14.4811824214
14.5897960805
14.6597492682
14.7273469795
14.8192309232
14.9289616656
15.0233551593
15.0449156895
14.9221584388
14.6144713426
14.1414314279
13.5164462483
12.4458704917
10.1518262716
7.3482121493
6.38202331049
8.55004179119
12.781846478
15.9638307938
17.8325162165
19.1387936831
19.7224378629
19.466641546
18.702805257
17.4785191609
27.7512553089
38.0538961447
40.8938214463
38.0943537138
37.1334042328
37.2481055103
37.4436746052
37.3038744587
37.8112326435
38.3004766651
38.0127633044
38.11180031
9.21437422874
8.91922168607
13.0605880463
13.0235207499
12.9454986494
9.81955129519
8.93196196443
12.89786356
9.17892805459
15.0187422867
15.1773517365
13.9945285914
12.4176056419
9.60794143528
12.2029631335
12.3039329866
10.0797868098
9.17626877739
9.18981722899
9.51856359456
10.1961849284
10.9062945702
14.6043823532
15.6450195351
13.5961065844
16.7264843893
17.4829233101
16.5730798418
17.6272068912
17.5615081605
16.1711990058
13.0684039856
12.9892615234
13.0063337217
13.0194748853
13.0922635357
13.1798265139
13.3552366333
13.5478147091
13.746349491
14.0460513084
14.377378626
14.6266370767
14.7846306322
14.8910651241
14.9786150083
15.0825936667
15.2224387123
15.3861956543
15.5352963342
15.608375215
15.5455013862
15.3197246855
14.893754875
14.1191316914
12.1739979133
8.41042793482
5.46372179275
6.19017868364
11.0971102623
16.5501648402
19.9315426093
21.6522243968
23.2800833654
23.4111509567
22.2967503334
20.8860218791
19.4374699079
23.9690664372
35.2560232369
42.2487505231
43.3541192724
41.4764981157
41.7691009716
41.8702396199
42.1494580077
42.8669802774
43.1792655138
42.9284211283
42.9816353113
9.61431500568
9.44708685495
9.18793800895
13.2170057853
13.2913040682
10.2942581356
9.71571155254
13.6925734333
9.54273847854
15.8436317922
15.4729255747
14.1876160044
12.3854016945
9.7390903125
13.4156781578
12.594094786
10.2559401643
9.44334395776
9.48696998019
9.85963069132
10.285722499
10.8279014788
15.2462844175
16.6098263089
13.7985469151
16.8570910926
17.9996458494
15.4422934668
17.2405312254
16.7875231739
13.6882146008
13.4293984211
13.4063649368
13.3481159768
13.2910978518
13.3768549683
13.4452475525
13.5264037143
13.7498672576
13.9997139362
14.280177844
14.6256848015
14.9272569561
15.1180551154
15.2357951913
15.3447230386
15.4857592328
15.6652530992
15.8734915591
16.0639588626
16.1584268293
16.1703535617
16.0725784294
15.6925195138
14.4524509388
10.6063513193
5.15367971241
3.03638587067
8.49967362852
15.792538508
21.8409708569
24.9178108725
24.3032605016
22.3813347919
19.4492750486
17.7015831375
17.0186438187
15.8410748863
12.8991456964
14.5631490604
41.7657135335
45.208161568
46.1179062993
45.5200951203
45.3614455546
47.2573012398
47.9746388175
48.2394262136
49.221827166
49.6789972623
10.1782678726
10.2255868913
13.784743759
13.6783662836
13.5187620324
10.6619100045
10.635287722
14.2805373883
10.3525508865
16.5180090671
15.7272082359
14.3818858067
12.4047178097
9.98729041954
13.5707504163
12.4850048608
10.4428945116
9.75114764547
9.78185895895
10.109963276
10.5157070444
10.9431763243
14.3394850229
17.3680924876
17.4772584289
15.84683832
18.1595050641
18.7500305447
14.973760964
13.9572606426
13.5079006806
13.5892118603
13.6386667445
13.6286586616
13.6403061743
13.6495609761
13.7093254667
13.8187722469
13.9474496604
14.2278940596
14.5591727284
14.910946549
15.2344579972
15.4647331132
15.6228567699
15.7608375029
15.9323874655
16.166527387
16.4160893103
16.5801365738
16.6455269502
16.7488775941
16.8156316414
16.3819657299
13.9500525419
7.47425527593
0.0602161383871
5.47686064395
14.1247423034
22.0944620364
25.3097875349
20.8362645827
13.1609400321
0.0198646895704
0.0155382191191
0.0377232229447
0.254284347812
1.19105368828
4.39975826985
13.8312983322
10.7886958186
31.6181233649
50.3086734641
50.6553197418
47.938018536
50.9780031441
52.823790239
55.3636132917
57.6300605523
57.8407990662
10.6709486477
10.8463213757
15.287910732
14.0739393832
13.2416593794
11.0643212446
11.5664203983
14.6814822576
14.6872447111
17.3023032834
16.0000706837
14.6342382526
12.4504129708
10.3898104912
13.7248322864
12.3360013314
10.6570420742
10.0762462745
10.0539405847
10.3157113887
10.7135351162
11.2661255528
13.52480948
17.5932074173
18.8739459657
14.9847039514
17.733759292
18.58020708
17.7874059202
14.7281735624
13.6750308637
13.7862671764
13.9416405055
14.0294478102
13.893611005
13.9362792023
13.9544752208
14.0809623058
14.2206494894
14.4674849953
14.8404439127
15.2338212683
15.5556984861
15.7963135559
16.0194568431
16.2857111522
16.5586016467
16.8263493735
16.9745370989
17.0537389295
17.1476309468
17.2680653021
17.5477103912
17.0557318707
11.2394430512
0.000230539524593
3.63010988442
11.4868862415
18.5462623701
18.1898047378
0.305892923502
0.000510411657055
3.59791519505e-05
0
0
0
0
0
0
0
0
5.00408646551e-09
1.68777476833e-06
0.000252455130659
0.146466382157
41.4620776532
59.0618448588
59.70489719
67.1779146585
66.0314985948
11.0519154381
11.2551933296
17.5796845428
14.3105510587
12.6040252215
11.4365327208
12.1994523801
14.3961952793
16.2387428054
18.2062152632
16.4022286155
14.9878727957
12.7037070592
11.126840981
14.091478254
12.3599230603
10.9761376547
10.4680681965
10.3665673523
10.5548712607
10.8906221436
11.4168244767
13.1515512472
17.4422931946
19.8166029831
18.798474203
16.9885495566
17.8822778416
17.1355599226
13.9599798147
14.1359393488
14.3140972022
14.5865652257
14.4806386641
14.3618280156
14.2143782941
14.2908975049
14.3378695144
14.5049932746
14.7491511689
15.1006313547
15.5413936877
15.9902097206
16.2620885712
16.540830465
16.9329701637
17.3466334267
17.6453169897
17.7603626722
17.8577662829
17.9739262516
18.057659867
17.8928041353
16.8121234013
10.2493201035
0
5.6860315529
4.2399056688
0.057809837442
0.000158530285312
0
0
0
0
0
0
0
0
0
0
0
0
0
6.44776483922e-08
6.40725660508e-07
1.40460947311e-05
0.000681075710532
3.78216970231
72.0793421568
43.9422562098
11.3301397495
11.5194398727
19.7495697483
14.4385575495
12.307774501
11.800524069
12.9892806806
13.1882945852
17.193176461
18.83602345
16.8012908713
15.356228064
13.1805808409
13.3113330794
14.5951574536
12.6436467292
11.5118370146
11.0893027861
10.7886886161
10.8868288885
11.1261208299
11.585578706
13.0273471075
17.3051240565
20.1688233439
20.4584453804
15.8082264722
16.035210737
14.6956604936
14.0499959089
14.3080559904
14.8525111392
15.0704189738
14.920362212
14.7874586703
14.8881201392
14.6475546246
14.6674964966
14.7886232145
14.992164486
15.460605696
15.9561771317
16.41531021
16.6432997713
17.0580915033
19.0578068025
21.8050546847
22.6669952186
20.8693238751
20.6647770459
20.8699588152
21.1555366798
21.118376373
19.5238797026
18.4069992267
1.14394162631e-05
0.0115596718479
0.000188621988104
0
0
0
0
0
0
0
0
0
0
0
0
0
0
0
0
0
0
9.96159452957e-07
6.74582728014e-06
0.00124398647947
57.7013622115
11.6078623286
11.7693519188
19.4097265463
13.3321693425
12.1995400242
12.0973796998
13.8785873696
12.7834939648
17.9689525607
19.4475483276
17.2001384599
15.7121802504
13.5208254141
15.8528671352
15.3416802252
13.1391067384
12.1478815914
12.2216602024
11.4402926953
11.3946787635
11.470377905
11.766096541
13.0762468989
17.1521904246
19.9994931356
21.573626687
19.5774884692
18.1030665776
16.6357330573
14.4096109292
14.6415172274
15.7222880914
15.312982314
15.3027154157
15.7891555806
15.3430901567
15.12443153
15.1184690856
15.2300790224
15.4098876392
15.6819265489
16.2515876321
16.951840284
18.2059360926
20.0893521756
22.7121367205
24.6540800896
24.6162342507
24.9033059448
26.4342352408
28.6261969967
31.8543044638
33.3318446858
31.3299937308
26.474606105
12.5371938148
0
0
0
0
0
0
0
0
0
0
0
0
0
0
0
0
0
0
0
0
0
0
3.06516657786e-06
97.1737308265
11.9943365039
12.1457813851
18.8320495918
12.5326678864
12.3092700668
12.3172354927
14.6008156608
13.0137340788
18.5752709806
20.0438297891
17.6076762438
16.0945902324
13.8202725943
16.4258985666
16.014007868
13.7080176028
12.7631600767
13.0105141162
12.245384401
12.1365523153
12.0535335915
11.9406159439
13.3081230434
17.11585895
19.6828186838
21.9332429537
20.8356469203
18.2559654857
14.8474624175
14.9529984877
15.338300697
16.3683284663
16.634530207
16.6755265932
16.5877290819
15.8471470182
15.6432152856
15.6807078749
15.7701505427
15.9639769981
16.2071580046
16.8564222699
18.1658725234
20.6938644649
22.3413978537
22.6063366524
23.7044011135
24.7778476771
28.6713249777
33.2549153602
39.8909870322
43.9780843026
45.0483300639
42.6294922069
3.29257085164
0.0797194739294
0.000267591214073
0
0
0
0
0
0
0
0
0
0
0
0
0
0
0
0
0
0
0
0
0
5.15111552448e-07
6.81539633107e-07
12.6503324312
12.8068325399
18.1664649469
12.5029904472
12.7655234449
12.6508617003
14.2136846361
13.6675595508
18.919875971
20.5914186467
18.0551409983
16.5376169623
14.2749361088
16.9717917676
16.6456667596
14.424472618
13.4747029563
13.7997359921
13.0082776191
13.0342197051
12.9821132766
12.3070860996
13.767635097
17.2371444114
19.5255845736
22.0259227631
21.2619374407
18.5035714624
15.0052667869
15.0676997201
16.193291264
16.0201274201
16.0433926035
16.4598921858
17.551145478
16.8161653802
16.5345196852
16.2676273788
16.2984534452
16.6148732001
16.9989153804
17.6952403821
20.6224635144
23.3679652786
23.3676131076
23.533446059
25.2502581769
30.518652855
37.3143587161
43.3571467883
47.9047751435
43.700782292
13.7695003074
0.00451456725322
2.83264884154e-05
5.74154964317e-05
8.81687778225e-06
0
0
0
0
0
0
0
0
0
0
0
0
0
0
0
0
0
0
0
0
0
3.80734065991e-08
1.72880151933e-07
13.7059351554
13.7890528959
18.0873794445
13.2704932646
13.9208804118
13.3702244412
14.1233634093
15.1248794758
18.6154246473
20.9170172856
18.5776961711
17.0664445319
14.8600220926
17.5952498015
17.3113172725
15.3401963586
14.4247358241
14.7861064919
13.7688410284
14.0528837852
14.3039640811
12.9835282652
14.2340482654
17.5030098719
19.542562199
21.784706632
21.42442274
18.7993153018
17.8067103506
16.006853886
16.6973047394
17.3875547354
18.3495520138
16.8947531034
17.1992573456
17.9724660666
17.3993531453
17.4006903352
17.1985815835
17.2803494385
17.7663796451
20.364431181
24.5415537834
25.4344579488
24.8111341646
26.4435448418
32.8872255062
41.6163760941
47.5953710928
46.5777085234
36.101525207
0.0470661865091
0.000322042363549
0
0
0
0
0
0
0
0
0
0
0
0
0
0
0
0
0
0
0
0
0
0
0
0
0
0
0
15.264046942
15.0000286267
18.5228226983
15.2484432154
16.0157095156
14.5203142693
14.8354401319
17.3190915339
18.5060160941
21.3595510926
19.2447767007
17.6976349441
15.5597347345
18.2516470273
17.9709865636
16.3750962491
15.994192933
16.1377447367
14.6105776885
15.2146112508
15.9913903867
14.0804079615
14.4925408948
17.8196125513
19.7287145028
21.5123089151
21.5760910074
18.6949242452
18.9881512175
17.7404598866
17.9676956629
16.3890223353
17.1210003857
18.5433641736
18.0757271192
18.2892818754
18.30313992
18.2190986186
18.3585645031
18.3730858841
20.0178614245
25.0467212662
27.892828804
27.8547680071
28.5137723149
33.5503622467
42.8380941907
48.5949402568
38.0638727549
17.2333786676
0.0786489838667
0.000360123669122
0
0
0
0
0
0
0
0
0
0
0
0
0
0
0
0
0
0
0
0
0
0
0
0
0
0
0
0
16.9617798595
16.1184305763
19.0595438564
18.0509773285
17.6868829564
15.9256257517
15.6462584988
18.377020631
16.9982882456
21.6484705262
20.0445737491
18.424633561
16.3678645927
18.9251687475
18.580664909
17.216010116
18.4319957818
17.7936971767
15.58767803
16.5826908896
17.3665326321
15.5464223443
14.2686515464
17.6860448145
19.8173337446
21.2625321863
21.5656737854
18.6519022917
19.1839265916
19.0567590643
19.0963300502
17.0219764677
17.5985813779
17.8663251108
18.9999366346
19.5173090801
19.4908071331
19.2899119224
19.2796376045
20.2773303351
24.9919493194
29.7203528601
31.4040179261
32.0044347191
34.7729038998
41.3043120779
44.0474614695
28.2094059685
21.2776648598
0.17536818352
0.000614173210158
0
0
0
0
0
0
0
0
0
0
0
0
0
0
0
0
0
0
0
0
0
0
0
0
0
0
0
0
0
17.6722741186
16.896663973
19.3464397456
18.9582854655
18.6140107669
17.2991546111
16.7260078295
19.7123508063
17.8925290568
22.0693421232
20.8485196608
19.2052537698
17.2755876856
19.6359730975
19.2217079156
17.9298621146
19.2971783149
18.76252093
16.5676976275
17.9851451312
17.9458957492
16.1051646742
15.4226071923
15.592961891
19.2734877259
20.6744781752
21.2685128341
18.5622692361
19.1358473378
19.4462053999
19.9344606232
19.2677389484
17.2493289993
17.6617412601
19.0842852882
20.3159842639
20.7941629756
20.965724673
20.9524292619
24.8056350917
30.4891011296
34.014791649
35.1666623877
36.4445431006
39.9557647162
38.3543860049
23.7205560883
24.4551144934
0.576455927652
0.00164177632562
0
0
0
0
0
0
0
0
0
0
0
0
0
0
0
0
0
0
0
0
0
0
0
0
0
0
0
0
0
0
17.5654078832
17.4256898763
19.5331771712
19.024929921
19.2142059007
18.384634835
17.6847167313
21.0161383427
19.6091676427
22.6399990701
21.7074270988
20.0216648653
18.2734216613
20.3973479579
19.941632927
18.8107614859
19.9831063562
19.6120631784
17.6540154366
18.9134023703
16.971149107
16.6981794655
16.3732866256
16.7912862076
17.7471902228
18.5317278706
20.3323764536
18.4300913624
18.3444334315
19.325088829
20.2612868921
20.5853474271
18.9055785684
18.3316919221
18.8593646311
20.0056635221
21.4230207286
22.6900016643
24.3466594993
30.1183418956
35.1306931605
37.6182964314
37.9337047937
38.0966656049
32.986150914
25.2303709308
25.1548383084
2.0023517808
0.00448545530051
0
0
0
0
0
0
0
0
0
0
0
0
0
0
0
0
0
0
0
0
0
0
0
0
0
0
0
0
0
0
0
17.7196286431
17.8139316497
19.7422954426
17.6061259127
19.4221632207
18.9465190737
18.3271433477
21.4850688903
20.328832746
23.2662152413
22.6326000905
20.854626403
19.3761804481
21.1970753603
20.7122524675
19.8380007087
20.7053522222
20.5753823192
18.8577363776
20.2253322701
18.2610194284
18.5031322405
17.5783959406
17.9991836607
19.8260045145
20.4106343885
19.9130975253
18.2639821385
17.5956218022
19.2300462119
20.2254803902
20.7089374372
20.6317103307
19.3584553199
20.7390548364
20.74992324
21.975090787
24.4214473924
28.6520771489
34.9198599864
38.9245640379
40.0829123922
37.6415229735
29.8719502344
27.3941480051
27.5601750483
16.2880452148
0.0382511640169
0
0
0
0
0
0
0
0
0
0
0
0
0
0
0
0
0
0
0
0
0
0
0
0
0
0
0
0
0
0
0
0
18.3938225119
18.469096638
19.9168048981
17.9571389001
19.5803431977
19.2026559087
18.7825794593
21.5261731267
20.8552309611
23.7098997768
23.5767981406
21.6565859364
20.5836591917
21.9972091696
21.4641209899
20.8474871361
21.3844800148
21.6395757054
20.1178297881
21.5172795653
20.04110223
20.7385341833
20.3654174331
18.6735802362
20.2824719644
21.3913660543
21.4842837047
18.1419598524
16.7146623564
19.112095759
20.3313384636
19.8907201449
19.9269160552
19.5740728991
20.6298581295
21.1027062495
22.6980795728
26.2951223278
32.909689159
39.3814018099
42.1593447976
40.7569665038
30.9288936219
28.0982199277
28.9238296418
25.1205032437
0.266549148467
0.00108086272314
0
0
0
0
0
0
0
0
0
0
0
0
0
0
0
0
0
0
0
0
0
0
0
0
0
0
0
0
0
0
0
0
19.2585429123
20.6591453246
20.2108003312
18.9658442304
20.0499120236
19.516433067
19.2261872773
21.5510536715
21.3595375315
23.7693050423
24.5309668618
22.4012722252
21.6595235699
22.6045527195
22.2031511664
21.5726866396
21.3729271718
22.62716512
21.5060973061
22.6325735901
22.1588327341
21.9343473801
21.642287477
21.1705155706
20.1240743108
21.0505656113
22.4119990435
17.1333407006
16.1722985448
18.1696573545
20.3020168363
20.6456440995
21.1507547225
19.5206870715
20.3105984812
21.3180443635
23.0432666721
28.0232886316
36.8958606181
43.4476976549
44.8425083884
36.6326797076
29.9861571386
31.2804494499
29.7827367044
1.80669430746
0.00461111843064
0
0
0
0
0
0
0
0
0
0
0
0
0
0
0
0
0
0
0
0
0
0
0
0
0
0
0
0
0
0
0
0
0
19.8947720217
21.3255708107
20.8544037752
19.8659578047
20.7178884679
20.0493652713
19.7469197374
21.6758340281
21.8719136526
23.5362994837
25.400475171
23.1709192808
22.2599369466
23.1018006975
23.0723270424
22.2341144132
21.3586660543
23.3136483847
23.0256966641
23.5951655319
23.4296384537
23.48068676
21.6586155819
21.6377719355
21.0622295802
22.8639484741
23.7296947945
19.872338603
15.7155953437
16.9825001986
19.64875281
20.9649776331
21.0336204744
20.1332321442
19.7876900207
21.3728163459
22.95602247
29.3798701303
40.5107607291
47.4832991939
44.2996309291
30.8952914082
31.8354732301
33.607978747
25.7107873066
0.0532711255738
0.000179021235069
0
0
0
0
0
0
0
0
0
0
0
0
0
0
0
0
0
0
0
0
0
0
0
0
0
0
0
0
0
0
0
0
0
20.3813661831
21.6640857094
21.4389118052
20.4765988695
21.3953549216
20.7625784586
20.3597112857
21.9906675491
22.4592595127
22.8932121335
25.9830104508