/*--------------------------------*- C++ -*----------------------------------*\
| =========                 |                                                 |
| \\      /  F ield         | OpenFOAM: The Open Source CFD Toolbox           |
|  \\    /   O peration     | Version:  v1806                                 |
|   \\  /    A nd           | Web:      www.OpenFOAM.com                      |
|    \\/     M anipulation  |                                                 |
\*---------------------------------------------------------------------------*/
FoamFile
{
    version     2.0;
    format      ascii;
    class       volScalarField;
    location    "834";
    object      p;
}
// * * * * * * * * * * * * * * * * * * * * * * * * * * * * * * * * * * * * * //

dimensions      [0 2 -2 0 0 0 0];


internalField   nonuniform List<scalar> 
6400
(
0.143597194931
0.143600544282
0.143610151701
0.143629055709
0.14365741536
0.143695268475
0.143742579042
0.143800449662
0.14387012352
0.143953616838
0.144057321238
0.144184677079
0.14433321309
0.144502845969
0.144695536753
0.144913996831
0.145160186183
0.145434280654
0.145734114361
0.146054258139
0.146389413424
0.146741495929
0.147118407231
0.147528248928
0.147975938399
0.14846138148
0.148981174084
0.149532645394
0.150115238856
0.150729431064
0.151375470019
0.152051252529
0.152750772241
0.153467874045
0.154199558464
0.154943264096
0.155699433205
0.156473251658
0.157263092822
0.15806043537
0.158865707316
0.159689706668
0.160537595025
0.161401247832
0.16226928763
0.163133346849
0.163986964135
0.164824923708
0.165642411003
0.166435119242
0.167199281419
0.167929027735
0.168615006385
0.169246350221
0.169820126782
0.170339086648
0.17079862765
0.171189760561
0.171510311829
0.171766926195
0.171966210127
0.172112581758
0.172211502109
0.172279566966
0.172337769857
0.172400736746
0.172465701314
0.172518126637
0.172551289552
0.172568406368
0.172574032819
0.172571352525
0.172562243938
0.172549064974
0.17253293715
0.172515797691
0.17249916062
0.172487125477
0.1724787831
0.172475145436
0.143592374742
0.143595952764
0.143604741841
0.143623196542
0.143653033804
0.14369232219
0.143740098258
0.14379621514
0.143863840274
0.143947064891
0.144050410697
0.144176777578
0.144325602127
0.144496150113
0.14468897164
0.144906068068
0.145151457462
0.145426172571
0.145727221335
0.146047787027
0.146381050226
0.146731135699
0.1471075356
0.147517492625
0.14796568864
0.148451872899
0.148972046957
0.149524152697
0.15010769324
0.150722642197
0.151368876433
0.152045155788
0.152745640699
0.153462926545
0.154194757745
0.15493880276
0.155695068372
0.156469517051
0.157260636496
0.158059122058
0.158864420802
0.159689336665
0.160540247023
0.161406246929
0.162275635379
0.163141173561
0.163996391174
0.16483624507
0.165655570983
0.166449028046
0.167212805384
0.167943689681
0.168633596514
0.169267003609
0.169842370695
0.170363596738
0.170821898728
0.171210492186
0.171530359111
0.171785859139
0.171982499822
0.172127695216
0.172226810755
0.172296066298
0.172355767062
0.172419260039
0.17248401829
0.172533859018
0.172563974796
0.172578637018
0.17258217808
0.172577599011
0.172566408978
0.172550712941
0.172532796191
0.17251440854
0.172497654995
0.172484866728
0.17247615088
0.172473104266
0.14357871464
0.143584573749
0.143592656098
0.14360968692
0.143638537431
0.143681984018
0.143733315491
0.143787850292
0.143852415511
0.143933917756
0.144036408821
0.14416224061
0.144311372254
0.144482741296
0.144675596835
0.144889379777
0.145132355299
0.145411327872
0.145715188664
0.146034292403
0.14636354259
0.146708849872
0.147084464795
0.147496668535
0.147945879583
0.148432125593
0.148953530971
0.149507437982
0.150092587937
0.150708877637
0.151356030903
0.152033470547
0.152735974621
0.153453214601
0.154184175249
0.154929814111
0.155686732025
0.156461073035
0.157253798393
0.158055737869
0.158866957715
0.159696556248
0.160548380851
0.161415072147
0.162286415873
0.163154522686
0.1640129949
0.164856341139
0.165679307445
0.166476924624
0.16724487346
0.167977928151
0.168667346472
0.169304081327
0.169885847512
0.170408869549
0.170865451011
0.171252216385
0.171570295502
0.171823573619
0.17201803333
0.172160217982
0.172258767378
0.172331823111
0.17239755369
0.172462847055
0.172521979364
0.17256512153
0.172590154085
0.172600349587
0.172599699294
0.172590558336
0.172574778337
0.172554967905
0.172533648613
0.17251277713
0.17249450964
0.17248036857
0.172471169328
0.172467637839
0.143558885695
0.143564959149
0.143572071213
0.14358785107
0.143613384083
0.143656795329
0.143720682022
0.143775496133
0.143835471099
0.143913976119
0.144015025475
0.144140559798
0.144290390424
0.144461870233
0.144654572708
0.144872112887
0.14511875654
0.14539488114
0.145690533773
0.145999075437
0.14632466734
0.146673521197
0.147051672875
0.147464736873
0.147915166586
0.148402925958
0.14892622914
0.149482370884
0.150069839933
0.150688043403
0.151337252734
0.152016366427
0.152720598531
0.153440631259
0.154169834674
0.154913508881
0.155673852485
0.156449610719
0.157242173042
0.158048722156
0.158868032842
0.159704328892
0.160559698486
0.161428958499
0.16230358848
0.163175788302
0.164038959489
0.164887344714
0.165715597447
0.166518657072
0.167291577255
0.168028446441
0.168721586923
0.169363728818
0.169950013164
0.170474501055
0.170930728225
0.171316034262
0.171631771078
0.171882024698
0.172073080889
0.172213254523
0.172315362637
0.172396514728
0.172466882464
0.172528284242
0.172580736884
0.172616050707
0.172632700113
0.172635012842
0.172626975717
0.172610576329
0.172588006089
0.17256167455
0.172534179305
0.17250937272
0.172488889842
0.172471458135
0.17245912854
0.172453978855
0.143527654877
0.143529298226
0.143538017727
0.143554335958
0.143582716618
0.143623961524
0.143683103225
0.143742580919
0.143806134305
0.143885184029
0.143985103318
0.144110563799
0.144261692649
0.14443849768
0.144638351473
0.144856385865
0.145095975994
0.145359222766
0.145644388931
0.145950227885
0.146277169885
0.14662767053
0.147007613067
0.147422482009
0.147874620285
0.148364307991
0.148889734713
0.149448690314
0.150039172844
0.150660440401
0.151311873289
0.151994403382
0.152702452592
0.15342110434
0.154149716345
0.154892904404
0.155652625948
0.156431404732
0.157228548275
0.158041463549
0.158869024717
0.159712979424
0.160573899715
0.161447703275
0.162327239318
0.163205063063
0.164074455056
0.164929446648
0.165764563636
0.166574575384
0.167354115049
0.168097015216
0.168796154665
0.169444547176
0.170035718339
0.170562612331
0.171019273467
0.171403583796
0.171717234184
0.17196490678
0.172154155258
0.172295748342
0.172404191543
0.172491959365
0.172561433567
0.172618913023
0.172664196383
0.172689267025
0.172693768536
0.172683686528
0.172664112814
0.172637373437
0.172605098901
0.172568899264
0.172533344327
0.172502510971
0.172475878814
0.172451035902
0.172434824188
0.172428737555
0.143471382936
0.143471947943
0.14348582011
0.143503045348
0.1435346863
0.143578513745
0.143634337479
0.143694753627
0.143763499973
0.143845072891
0.143943728191
0.144069838211
0.144229834595
0.144415426011
0.144614569744
0.14482637065
0.145056093456
0.145310313394
0.145590539519
0.145894215488
0.146219599296
0.146570585263
0.146952550373
0.147369832073
0.147824303839
0.148315855552
0.14884410829
0.149406139673
0.150000713365
0.15062587095
0.151281654727
0.151966436695
0.152674804369
0.1533969819
0.154123540226
0.154864038211
0.155625856987
0.156409556139
0.157212950972
0.158033485378
0.158869897455
0.159722517238
0.160590831463
0.161471220399
0.162357477737
0.163242582568
0.164119804834
0.164983029206
0.165826655563
0.166645291757
0.16743331699
0.168184439609
0.168891637956
0.169547547134
0.170144548716
0.170675066845
0.171133585506
0.171518487535
0.171831993804
0.172079767417
0.172270829907
0.172417381719
0.172533130953
0.172622061268
0.172688928883
0.172740820009
0.172777339116
0.172789155763
0.172776727226
0.172748623302
0.17271297287
0.17267218661
0.172625987551
0.172576593108
0.172529889688
0.172488886196
0.172451247978
0.172417566291
0.172397113543
0.172388322011
0.143385910626
0.143392786801
0.14341492028
0.143439990926
0.143468178411
0.143512977681
0.143570882806
0.143634106337
0.143706879563
0.143791678967
0.143894765516
0.144025128991
0.144193101684
0.144378015614
0.144572607666
0.144776482464
0.144999956884
0.145251581226
0.145529588959
0.145828444266
0.146151288394
0.146503104566
0.146886914395
0.147306223741
0.147763424887
0.148258963238
0.148788860361
0.149354508126
0.149954020488
0.150586167556
0.151246219101
0.151931682577
0.152641134016
0.153360208861
0.154086967531
0.154829078586
0.155594921239
0.156384675985
0.157195468388
0.158024609883
0.158870651044
0.159733042
0.160610485189
0.161499477053
0.16239439028
0.163288575438
0.164175365985
0.165048574644
0.165902510341
0.166731659233
0.167530232686
0.168291786767
0.169009079991
0.169674168506
0.170278711212
0.170815051841
0.171278208962
0.171667136751
0.1719846016
0.172236925906
0.172433879853
0.172587333433
0.172706701076
0.17279463054
0.172862856102
0.172907896221
0.17292746044
0.1729180148
0.172882367193
0.172831241934
0.172774947563
0.172715526829
0.172650792139
0.172584496559
0.172521666962
0.172464055723
0.172410859306
0.172368257249
0.172343487503
0.172331904489
0.143284405206
0.143297350927
0.143322543278
0.143357801025
0.143389087515
0.143436217914
0.143492937765
0.143559637347
0.143637526728
0.143720849755
0.143832981886
0.143976619219
0.144143210154
0.144324776225
0.144512796173
0.144709765988
0.144932325416
0.145184324719
0.145457639578
0.145751722514
0.146072604224
0.146424766596
0.146810224202
0.14723258686
0.147693441398
0.148192345658
0.148726453766
0.149292858856
0.149899606863
0.150541150865
0.151203629414
0.151887283521
0.152595493736
0.153313518199
0.154040621636
0.154788072127
0.155560221706
0.156356982118
0.157175994034
0.158014659156
0.158871266152
0.159744644259
0.160632917794
0.161532510712
0.162438097982
0.163343307312
0.164241576361
0.165126712651
0.165992974701
0.166834757532
0.167646133204
0.168420455056
0.169150134103
0.169826730436
0.170441629771
0.170987529711
0.171460125827
0.171858667176
0.172185518829
0.172446506301
0.172651170725
0.172809709121
0.172930048806
0.173019064209
0.173083938229
0.17312487884
0.173121183991
0.173080923561
0.173014554518
0.172934143034
0.172851331899
0.172767500999
0.172680321574
0.172592026655
0.172505158795
0.172422958718
0.172352167641
0.172300730791
0.172272668493
0.172260393739
0.143171983566
0.143188459245
0.143214206495
0.14324543229
0.143284507343
0.143340623972
0.14339841872
0.143467477189
0.143554164862
0.143643657267
0.143754464379
0.14390741559
0.144077222672
0.14425350017
0.144435828609
0.144632725856
0.144854902015
0.145104063813
0.14537302094
0.145664448538
0.145984006297
0.146335741826
0.146721386669
0.147145917945
0.147614294175
0.148115586981
0.148654383101
0.149228600983
0.149837641152
0.150481322847
0.151149877654
0.151839226828
0.15253916051
0.153254205889
0.153986808262
0.154741655566
0.15552145001
0.156326254097
0.157154360261
0.158003476412
0.158871707994
0.159757396924
0.160658207989
0.161570403789
0.162488768176
0.163407107585
0.16431898275
0.16521824499
0.166099126402
0.166955941018
0.167782633162
0.168572356061
0.169317238954
0.170008651125
0.170638237405
0.171199458711
0.171688532749
0.172103777238
0.172445040912
0.172717072274
0.172930709695
0.173094919196
0.173216710506
0.173301240886
0.173352465366
0.173381347017
0.173366647583
0.17328669274
0.173179331678
0.173060337593
0.172942012563
0.172828326761
0.172716284496
0.172599541943
0.17247656932
0.1723600552
0.172269987307
0.172211604495
0.172181572781
0.172170395042
0.143046735722
0.143065383224
0.143095328929
0.143125741408
0.143168070781
0.1432249446
0.143285671964
0.143355481979
0.143443336402
0.14355053107
0.143667209458
0.14382100438
0.143992206912
0.144165342416
0.14434242838
0.144542376636
0.144767937511
0.145012409612
0.145276140575
0.145565330703
0.145884738588
0.146237254405
0.14662355458
0.147047324438
0.147522284228
0.148032320302
0.14856924376
0.149150375188
0.149765152862
0.15041361785
0.151086065531
0.151774582164
0.152474605168
0.153188604228
0.153926389142
0.154689573782
0.155478232045
0.156292208858
0.157130380389
0.157990909616
0.158871898687
0.159771323199
0.160686431561
0.161613266625
0.162546612157
0.163480383273
0.164408261892
0.165324168076
0.166222310888
0.167096914919
0.167941818398
0.168750070526
0.169513774869
0.170224605208
0.170875061031
0.171459591165
0.171974088575
0.172413435805
0.172772594107
0.173058231803
0.173287613577
0.173463269861
0.173586004662
0.173656524002
0.173680362607
0.173670009146
0.173632290859
0.173543787897
0.173382595065
0.173207929175
0.173043032679
0.172897958307
0.172762770266
0.172610684139
0.172431781651
0.172263923134
0.172151821261
0.172090503228
0.172060297132
0.172051591421
0.142903191977
0.142920962637
0.142953693286
0.14298955683
0.143040833559
0.143092931826
0.14315499763
0.14322792767
0.14330886564
0.143426143002
0.143557999751
0.143713181202
0.14388527441
0.144059736227
0.144236635961
0.144437838787
0.144665239967
0.144907031713
0.145166987077
0.145453126201
0.145771754999
0.146126573504
0.14651834625
0.146942595445
0.147413772178
0.147936481871
0.148482268034
0.149063982727
0.149681206438
0.150326341127
0.15100599122
0.151698505114
0.152398204324
0.153115531415
0.153859982185
0.154631919301
0.155430276707
0.156254540877
0.157103860299
0.157976827243
0.1588717454
0.159786395112
0.160717632314
0.161661218866
0.162611875016
0.163563604671
0.164510218554
0.165445695712
0.166364188465
0.167259813448
0.168126357274
0.168956968399
0.169744163999
0.170480574785
0.171160081365
0.171777794394
0.172327515462
0.172798430084
0.17317955148
0.173485904618
0.173751205921
0.173950593943
0.1740728791
0.174116000749
0.174090293068
0.174013107745
0.173908399194
0.173800943817
0.173622463825
0.173376223132
0.173146788397
0.172974165191
0.172831356429
0.172640442949
0.17236640715
0.172106715597
0.17197070819
0.171919419415
0.171895809838
0.171896690715
0.142737092925
0.142751360172
0.142778065723
0.142823389343
0.142885866982
0.14293926312
0.143003338311
0.14308354492
0.143163677198
0.143278372526
0.143422106637
0.14358171702
0.143754252323
0.143931810561
0.144116537904
0.1443211691
0.144547881851
0.144787258095
0.145045211073
0.145328595679
0.145643783636
0.145997084231
0.146398675861
0.146834963868
0.147301868301
0.147825245996
0.148380191425
0.14896126165
0.149587961895
0.150239198109
0.150913080324
0.151603680597
0.152307284006
0.15303374325
0.153787066674
0.1545684173
0.155377245976
0.156212888805
0.157074560052
0.157961107558
0.158871151718
0.159802543557
0.160751818147
0.161714367021
0.162684811666
0.16365728719
0.164625765966
0.165584249848
0.166526755411
0.167447253105
0.168339566384
0.1691972688
0.17001392115
0.170783811586
0.171502204987
0.172163242532
0.172758035423
0.173273614853
0.173684733776
0.174021306735
0.1743762796
0.174625090929
0.174748021095
0.174746857883
0.174644833229
0.17446837036
0.174248572705
0.174062758562
0.173855588974
0.17354218308
0.173232733248
0.173051647062
0.172958932526
0.172743777506
0.172273050034
0.171811780995
0.171673285029
0.171683428753
0.171682129734
0.171716274064
0.142547998278
0.142559336721
0.142577030477
0.142627586975
0.142691772476
0.142753932807
0.142822899735
0.142911333193
0.143000077545
0.143114647
0.143264017852
0.143427077266
0.14359989316
0.143776856553
0.143972016946
0.144187598904
0.144414592321
0.14465227579
0.144909647959
0.145192017612
0.145503747478
0.145851037356
0.146254212318
0.146711705464
0.147186164622
0.147699788972
0.148266329511
0.148854591891
0.149474942195
0.150130910581
0.15080820148
0.151498970047
0.152206949067
0.152942528761
0.153706288642
0.154498373347
0.155318661679
0.156166720367
0.157042033715
0.157943575749
0.158870099511
0.159819724405
0.160788938939
0.161772764833
0.162765652122
0.163761945229
0.164755874908
0.165741420953
0.166712318061
0.16766230647
0.168585378184
0.169476018719
0.170329628836
0.171142556487
0.171909849311
0.172621190277
0.173274845783
0.173878768455
0.17433381026
0.174714277046
0.175351979671
0.175658482565
0.175736054174
0.175626101412
0.17537378105
0.175026252199
0.17461358559
0.174266632883
0.173995693943
0.173641314291
0.173181685082
0.17303657781
0.173182688163
0.173019864
0.172173505914
0.171250252048
0.171191509024
0.17140599394
0.171412472647
0.171540447692
0.142337039433
0.142350093271
0.142373174238
0.142412862759
0.142471717682
0.142539858926
0.142615075434
0.142708414706
0.142810757315
0.142929217588
0.143083380136
0.14324978251
0.143424504399
0.143601775183
0.143800877471
0.144026908523
0.144259061998
0.144499286548
0.144758121368
0.145041291768
0.145351962065
0.14569411122
0.146093168339
0.146563557838
0.147055001137
0.147567462337
0.148137955915
0.148735932231
0.149353934596
0.150008018847
0.150682745171
0.151375994369
0.152095075223
0.152841839444
0.153616945612
0.154420911962
0.155253978083
0.156115684436
0.157005752957
0.157923706305
0.158868396454
0.159837962903
0.160829011744
0.16183642216
0.162854533015
0.163878006795
0.164901484119
0.165918867446
0.166923369424
0.167908354078
0.168868153668
0.169798897446
0.170698744619
0.17156573298
0.172389694302
0.173152803649
0.173914837052
0.174731536225
0.175082255247
0.174997922725
0.175189218294
0.175414894897
0.175489215093
0.175393195249
0.17517109508
0.174865040572
0.174513780572
0.174169600956
0.173848690964
0.17351701408
0.17328274036
0.173361690054
0.17397308417
0.174190606776
0.172173064988
0.169358405015
0.170116413431
0.171141887315
0.171056377878
0.171454497011
0.142099270905
0.142114121977
0.142147906231
0.142177803872
0.142230253149
0.142300425839
0.142380846872
0.142480591322
0.142599155692
0.142721253165
0.14287923752
0.143049501131
0.143227897646
0.143409034077
0.143611457185
0.143843149196
0.14408103876
0.144326542535
0.14458899599
0.144874306017
0.14518610653
0.145527115984
0.14591818404
0.146387819448
0.146904949941
0.147427276129
0.147987775918
0.148601112652
0.14922979445
0.149871496064
0.150541969864
0.151241634104
0.151971166623
0.152730080222
0.153518000667
0.154335237549
0.155182229386
0.156059048022
0.156965413754
0.15790110627
0.158865581283
0.159857061605
0.160872061324
0.161905387342
0.162951499797
0.164005693411
0.165063301976
0.166118124236
0.167162413846
0.168188756781
0.169192187369
0.170171656883
0.171128851706
0.172061110891
0.172943107111
0.173733295576
0.17441243754
0.17461828763
0.174840258278
0.175014400583
0.175128991803
0.17528174336
0.175337335903
0.17524298063
0.175022812666
0.174712590925
0.174347167357
0.173965278194
0.173595747476
0.173249001483
0.17296505507
0.172806352327
0.172730668007
0.172003130046
0.17065103766
0.170349070968
0.171648970211
0.172591564598
0.170058188516
0.171597714139
0.141829994876
0.141844540738
0.141877926761
0.141910426253
0.1419609557
0.14203335836
0.142117075806
0.14221852093
0.142352766161
0.142487554955
0.14264932809
0.142824507081
0.143008568483
0.143196658497
0.143404363776
0.143639734947
0.143882468282
0.144134174219
0.144401620568
0.144690226601
0.145004046663
0.145346450116
0.145732468627
0.146195727746
0.14673048778
0.147273031994
0.147828173571
0.148436381715
0.14907646533
0.149725233646
0.150393545199
0.151096832445
0.151835714951
0.152607113962
0.153408823144
0.154240453145
0.155102712083
0.155995942627
0.156920216295
0.157875378181
0.158861287272
0.159876663147
0.160917976722
0.161979706279
0.163056459444
0.16414483845
0.165241693562
0.166340558586
0.167431556434
0.168506157432
0.169561017622
0.170599282322
0.171627242039
0.172647113845
0.173588289919
0.173965999404
0.174218171875
0.174471790288
0.174687430869
0.174847756613
0.174937886287
0.175005032234
0.174990648917
0.17485244934
0.174598844378
0.174256934618
0.173856375193
0.173427474947
0.172995215488
0.172576554771
0.172173279041
0.171798128819
0.17142357389
0.170880012949
0.170296281984
0.17022329904
0.17079439505
0.170892531344
0.17190201589
0.173515268093
0.141531047746
0.141544994755
0.141580243105
0.141614080908
0.141665987418
0.141739816548
0.141826492736
0.141926416683
0.142065182231
0.14221811401
0.142388966372
0.142571008344
0.142762887272
0.142962285525
0.143176571286
0.143415919507
0.143663595242
0.143922239833
0.144195625163
0.144488632639
0.144805309332
0.14514957252
0.145533115214
0.145988127123
0.146526035333
0.147098370083
0.147665910175
0.148263040054
0.148899900982
0.149553168137
0.150227104096
0.150938769279
0.151688029512
0.152472082727
0.153288410477
0.154135864324
0.155014659497
0.155925718172
0.156869412737
0.157845867493
0.15885509063
0.159896296782
0.160966377785
0.162059376301
0.163169556745
0.164295296058
0.165436271905
0.166586030573
0.167731469062
0.168862283542
0.169976567422
0.171082690358
0.172196669163
0.173249232768
0.173486652394
0.173742859556
0.174025105502
0.174263218661
0.174443946344
0.174563039956
0.174612943821
0.174601188171
0.174505275596
0.174301235309
0.173990397428
0.173590865785
0.173125786616
0.172618922021
0.172091019312
0.171559105854
0.17100704265
0.170435468254
0.169864858951
0.169272213687
0.16873096916
0.168550705481
0.16900990539
0.170039460799
0.172109672534
0.174431673803
0.141205296973
0.141217672287
0.141248754362
0.141287383038
0.141345634681
0.141421399978
0.141512890535
0.141613376447
0.141753022731
0.141917810909
0.142097326421
0.14228605624
0.142484595343
0.142699071129
0.142924073842
0.143168065236
0.143421703065
0.143689053257
0.143969878632
0.144268571064
0.144589180838
0.144935793217
0.145318551964
0.145766920936
0.146301147377
0.146894021817
0.147485936938
0.148082288934
0.148710524006
0.149362729203
0.150044022753
0.150765129771
0.151525723595
0.152322861428
0.153154821547
0.154019840928
0.154917073379
0.155847417106
0.156812277258
0.157811788897
0.15884627809
0.159915668766
0.161017275026
0.162144566405
0.163290276911
0.16445531746
0.165646458454
0.166857040192
0.168064584841
0.169259400908
0.170439321703
0.171625707785
0.172739816292
0.173018793329
0.173278207954
0.173525348995
0.173768924684
0.173963312334
0.174091288521
0.174146381527
0.174122055681
0.17401603834
0.173818535241
0.173517815557
0.173114011227
0.172618922566
0.172049456396
0.171423128605
0.170754860822
0.170054881822
0.169316046837
0.168513172153
0.167660149545
0.166794802684
0.166006685751
0.165534374922
0.165668838163
0.166583401947
0.1688142599
0.170827076785
0.140856658368
0.140867727519
0.140893027589
0.140937024893
0.141000856203
0.1410784429
0.141174103039
0.141279723696
0.141417875253
0.141589852927
0.141775886383
0.141970176936
0.142172640254
0.142397642157
0.142639489516
0.142891442
0.143152369435
0.143429849393
0.143721191028
0.144027946321
0.144354441559
0.144704170228
0.145087731042
0.145531545883
0.146057012138
0.146652287693
0.147270155453
0.147883199204
0.148511632263
0.149163541585
0.149847149723
0.15057602881
0.15134803965
0.152157711621
0.153006642032
0.153890981589
0.1548077854
0.155759393015
0.156747476091
0.157772505249
0.158834584797
0.159934058387
0.161069246415
0.162234555262
0.163423380688
0.164636808409
0.165880603528
0.167146506101
0.16842072532
0.169698749438
0.170954813281
0.172154234518
0.172472813463
0.172754283113
0.173012130625
0.17323727526
0.173424563396
0.173551463514
0.173601269937
0.173566024362
0.173440458696
0.173220969854
0.172902307225
0.172479026778
0.171951462664
0.171326886545
0.170616205448
0.16983040525
0.168977661167
0.168060323542
0.167075273066
0.165962940028
0.164711728543
0.163372976489
0.161996041631
0.160676365724
0.159506021832
0.15836244804
0.156763477171
0.153627651986
0.140486915649
0.140497883897
0.140521785467
0.140570671459
0.140635352802
0.140712367251
0.140807394759
0.140919910308
0.14105647771
0.141233273124
0.141425033558
0.14162486784
0.141832328826
0.142062338614
0.142319118333
0.142583221753
0.142853938072
0.143141550202
0.143444772902
0.143762896317
0.144098768613
0.144453323159
0.144839131953
0.145281343732
0.145799062618
0.14639000949
0.147022015205
0.147655156392
0.148288139339
0.148942264199
0.149634413386
0.150369829634
0.151151313764
0.151975253313
0.152842140116
0.153746805348
0.154685177417
0.155660014634
0.156673298471
0.157726020678
0.158818472724
0.159951273596
0.16112485365
0.162336641972
0.163577238801
0.164837896253
0.166124451942
0.16744304043
0.168798960939
0.170203748188
0.17151115395
0.1718601551
0.172156421771
0.172438131753
0.17267256196
0.172849519532
0.172962859966
0.172999390504
0.172946641473
0.172797415989
0.17254738501
0.172193363147
0.1717320991
0.171160771657
0.170479303428
0.169691048427
0.168800990044
0.167813092707
0.166727766904
0.165539173499
0.164237939665
0.162738804764
0.160964974838
0.158921926921
0.156572301273
0.153814803801
0.150455688186
0.14618033989
0.140874220295
0.139403097097
0.140092782635
0.140104331835
0.140129497428
0.140183511511
0.140248421179
0.140324008576
0.140415737423
0.140532992515
0.140666193147
0.140846101441
0.14104373767
0.141249404798
0.141463146026
0.14169950453
0.141966539623
0.142243254673
0.142525911634
0.142824554403
0.143139001976
0.143469806656
0.143818700348
0.144180978826
0.144570280512
0.145013393738
0.145525897309
0.146110384463
0.146746948093
0.147395248044
0.148044261425
0.148705327625
0.149405240045
0.150149648764
0.150938810215
0.151772259177
0.152654824914
0.153582972951
0.15454681122
0.155547715629
0.156588189301
0.157670604155
0.158796598469
0.159967604212
0.161187964657
0.162454350555
0.163744204565
0.16504484487
0.166371822016
0.16775359992
0.169233906461
0.170840183917
0.171216256937
0.171508046107
0.17180302059
0.172054736596
0.172236517071
0.172340028005
0.172358774654
0.172283832121
0.172106905745
0.171822598371
0.17142755494
0.170919227235
0.170295143669
0.169552944771
0.168691077737
0.167708822331
0.166604931233
0.165375342984
0.164010379158
0.162491167909
0.160784775903
0.158832655391
0.156458877586
0.153524719589
0.14988831951
0.145168240765
0.138555518318
0.128251711485
0.109083868083
0.0628527019052
0.139666304046
0.139678372867
0.139707022587
0.139766878288
0.139832945847
0.139907795588
0.139998517613
0.140117602948
0.140246762929
0.140427184564
0.140630397952
0.140841946456
0.141062147118
0.141305145607
0.141580548123
0.141869386576
0.142166519711
0.142477624954
0.142802944083
0.143146178992
0.143510643631
0.143884586371
0.144278317109
0.144723919278
0.145234704055
0.14581256849
0.146446877883
0.147100072345
0.147768779345
0.148450826008
0.149158678541
0.149907808536
0.150707738384
0.151556153002
0.152449769709
0.153396469352
0.154387835072
0.155418204501
0.156490047882
0.157605208234
0.158767368356
0.159984093714
0.161263181616
0.162587445635
0.163922412519
0.165263795093
0.166644212637
0.168116053359
0.169578416526
0.170647160192
0.170913954786
0.17115042919
0.171396893812
0.17158637522
0.171687364537
0.171691926998
0.171594238162
0.171388027561
0.171068027199
0.170630623966
0.170073321519
0.169393883652
0.168589707061
0.167657541859
0.166593403907
0.165392081881
0.16404577181
0.162541848768
0.160859848834
0.158967454362
0.156814460213
0.154331491352
0.15130413915
0.147425093559
0.142419086611
0.135706907463
0.12607263689
0.11110679048
0.0859173503702
0.044051028409
0.139196227269
0.139208742451
0.139240830969
0.139307009448
0.139374172678
0.139452059866
0.139543921259
0.139663248455
0.139792033973
0.139974133411
0.140183069778
0.140400452994
0.140626978694
0.140876171916
0.141158274654
0.141456951276
0.141770973975
0.142097038961
0.14243412371
0.142789595849
0.143170236673
0.143561174003
0.143961568851
0.144409118296
0.144921445081
0.145495327985
0.146126005811
0.146779111692
0.147456746212
0.148163839428
0.148894747292
0.149653247895
0.150452377637
0.151311205812
0.152224895507
0.153190411903
0.154206946436
0.155268208887
0.156373918207
0.157526332655
0.158731756135
0.160006344214
0.161351239667
0.162732047089
0.164120930897
0.165532363287
0.167024281628
0.168566658465
0.169826249137
0.17026133386
0.170508807632
0.170723779445
0.170905554932
0.1710065538
0.171003299079
0.17088763637
0.170654739873
0.170300673563
0.169822464002
0.169217954131
0.168485241837
0.167621972037
0.166624712887
0.165488457282
0.164206107624
0.162767612276
0.161158427886
0.159357136735
0.157332041689
0.155036291326
0.15240058202
0.14932137831
0.145648180498
0.140983102423
0.134809426599
0.126560637318
0.115136883066
0.0986534354394
0.0737841039823
0.0394821760035
0.138673614372
0.138688584858
0.138722403343
0.138789047787
0.138861192204
0.138948277737
0.139046084635
0.139169439114
0.13930562985
0.139485320504
0.139699413748
0.139922753697
0.140155728556
0.140410964599
0.14069870331
0.141003401097
0.141330851626
0.14167592611
0.142028174482
0.14239798083
0.142793869315
0.143206083178
0.14362201048
0.144069439111
0.144583252246
0.145156338944
0.145784499022
0.146437820595
0.147117674176
0.147840693627
0.148597754416
0.149378920307
0.150186592867
0.151047130259
0.151971349201
0.152958551314
0.154002517381
0.155096522904
0.15623785353
0.157431435318
0.158692796492
0.160037247492
0.161449054431
0.162893499576
0.164365109849
0.165898864167
0.167463052942
0.168754846874
0.169369957196
0.169712835533
0.169996266865
0.170192516895
0.170295052002
0.17029107989
0.170166445761
0.169914170824
0.169531516379
0.169017042851
0.168369732419
0.167588547168
0.166671851149
0.165616756759
0.164418487409
0.163069740719
0.161559926503
0.15987405525
0.15799102454
0.15588107518
0.153502138286
0.150794589146
0.147673558416
0.144017292342
0.139651079547
0.134292649374
0.127353942888
0.118097231835
0.105681662212
0.0887560150664
0.0648785686419
0.0346634496315
0.138104293457
0.1381233411
0.138157706563
0.138218158163
0.138298587326
0.138395644876
0.138502680474
0.138634785002
0.13878518452
0.138962043714
0.139178292947
0.139406920201
0.139646607352
0.139908327602
0.140202273674
0.14051369085
0.14084898079
0.141211288823
0.141582274316
0.141970372989
0.142382059418
0.142815384202
0.143258197033
0.143717353737
0.144226484411
0.144797741202
0.145423599694
0.146078103306
0.146758510307
0.147488413789
0.148263014589
0.14907331069
0.149903087592
0.150769460649
0.151698464199
0.15269877377
0.153767794508
0.154897247125
0.156079034071