/*--------------------------------*- C++ -*----------------------------------*\
| =========                 |                                                 |
| \\      /  F ield         | OpenFOAM: The Open Source CFD Toolbox           |
|  \\    /   O peration     | Version:  v1806                                 |
|   \\  /    A nd           | Web:      www.OpenFOAM.com                      |
|    \\/     M anipulation  |                                                 |
\*---------------------------------------------------------------------------*/
FoamFile
{
    version     2.0;
    format      ascii;
    class       volVectorField;
    location    "727";
    object      U;
}
// * * * * * * * * * * * * * * * * * * * * * * * * * * * * * * * * * * * * * //

dimensions      [0 1 -1 0 0 0 0];


internalField   nonuniform List<vector> 
6400
(
(-0.000117289221093 -0.000153335735604 0)
(-0.00030999204786 -0.000111338757524 0)
(-0.000448911624552 -8.63815336264e-05 0)
(-0.000595249513902 -7.40067830546e-05 0)
(-0.000702778710778 -4.72017062227e-05 0)
(-0.00078119520212 -2.71924849063e-05 0)
(-0.000826537545941 -1.94670465803e-05 0)
(-0.000864598683904 -2.89351434198e-05 0)
(-0.000952711046665 -3.95814654815e-05 0)
(-0.00103848588175 -3.70275534779e-05 0)
(-0.00108117812194 -3.30353025444e-05 0)
(-0.00115763515522 -3.39492042881e-05 0)
(-0.00122639604616 -3.00683797841e-05 0)
(-0.00128159671369 -2.4196388464e-05 0)
(-0.00132321784744 -2.15495830938e-05 0)
(-0.00136589993037 -2.39161491591e-05 0)
(-0.00141700524419 -2.44061419953e-05 0)
(-0.00146120875935 -2.10427131219e-05 0)
(-0.00149470293418 -1.66586961164e-05 0)
(-0.00152681461331 -1.4918928499e-05 0)
(-0.00156707792576 -1.93642930158e-05 0)
(-0.00161427643184 -2.38331495017e-05 0)
(-0.00166238154739 -2.41266378648e-05 0)
(-0.00170521590072 -2.26314410789e-05 0)
(-0.00174460385364 -2.0315537455e-05 0)
(-0.00178187999877 -1.78410027795e-05 0)
(-0.00181815359563 -1.64480123131e-05 0)
(-0.00185078463081 -1.47449047763e-05 0)
(-0.00187807149685 -1.25818199792e-05 0)
(-0.0019006516793 -1.08809178535e-05 0)
(-0.0019190301273 -1.02603151534e-05 0)
(-0.00193754261607 -9.25997749532e-06 0)
(-0.00195597816766 -7.63383848925e-06 0)
(-0.00197116873675 -7.35003648304e-06 0)
(-0.00198533086172 -7.11912565633e-06 0)
(-0.00200300143547 -6.67179537855e-06 0)
(-0.00201705468125 -6.66018064352e-06 0)
(-0.00202194163742 -5.77007528894e-06 0)
(-0.00203336356023 -4.01318995722e-06 0)
(-0.00204813034223 -2.66357685434e-06 0)
(-0.0020547539691 -3.16125288126e-06 0)
(-0.0020518317868 -2.14014626043e-06 0)
(-0.002046432936 2.13157441629e-06 0)
(-0.0020397791861 5.27526661199e-06 0)
(-0.00202911867723 6.95070296764e-06 0)
(-0.00201468923618 8.84547850409e-06 0)
(-0.0019960725868 1.09434342983e-05 0)
(-0.00197240187369 1.35407287651e-05 0)
(-0.00194363002268 1.61479520396e-05 0)
(-0.00190948187239 1.72018655676e-05 0)
(-0.00187215277917 1.66619008821e-05 0)
(-0.00183598266288 1.89594830993e-05 0)
(-0.00179109034385 2.67859008673e-05 0)
(-0.00173930374662 3.22343424034e-05 0)
(-0.0016718366303 3.73127633778e-05 0)
(-0.00158169432601 4.44901990486e-05 0)
(-0.0014864974813 4.59145538951e-05 0)
(-0.00140060043284 4.62533926717e-05 0)
(-0.00130979154301 5.29612581791e-05 0)
(-0.00118761397061 5.91455122658e-05 0)
(-0.00106078524764 6.17396779718e-05 0)
(-0.000923404369311 7.56240224276e-05 0)
(-0.0007971279572 0.000106461046617 0)
(-0.000560440993303 0.000115746357176 0)
(-0.000310058247699 8.22134674692e-05 0)
(-0.000175666954915 5.66518540292e-05 0)
(-8.75073844006e-05 4.58337510664e-05 0)
(-1.11081711466e-05 3.9942616957e-05 0)
(6.37354268937e-05 3.62821396475e-05 0)
(0.000133130144444 3.1478719989e-05 0)
(0.000192347662598 2.44418715052e-05 0)
(0.000229271048242 1.48003449924e-05 0)
(0.000242034118817 3.9924460818e-06 0)
(0.000251191083766 -7.84382153631e-06 0)
(0.000211290552509 -1.23740613252e-05 0)
(0.000201898138654 -1.53765521984e-05 0)
(0.000141811476414 -1.11843815037e-05 0)
(0.000153994431208 -1.95132475141e-05 0)
(6.80621823118e-05 -1.55964313834e-05 0)
(5.13250424896e-05 -3.04284230989e-05 0)
(-4.50127077326e-05 -0.000218749692317 0)
(-0.000190063196264 -0.000240748320828 0)
(-0.000329267089379 -0.000212656394792 0)
(-0.000420756551402 -0.000170156719673 0)
(-0.000597292723509 -0.000163776508432 0)
(-0.000749053130778 -0.000115394750529 0)
(-0.000837538317553 -7.55712170081e-05 0)
(-0.000899780083165 -9.27122366627e-05 0)
(-0.000965722150602 -0.000114926913274 0)
(-0.00103814236972 -0.000111312416144 0)
(-0.00110608551213 -0.000102532796462 0)
(-0.00116808484378 -9.73021010302e-05 0)
(-0.0012253752978 -8.56697157484e-05 0)
(-0.0012761969366 -7.21027867146e-05 0)
(-0.00132483341696 -6.58599639219e-05 0)
(-0.00137081503186 -7.5059729935e-05 0)
(-0.00141734471162 -7.79263680575e-05 0)
(-0.0014564906074 -5.85974793915e-05 0)
(-0.00146604465602 -4.4228620403e-05 0)
(-0.00150551022571 -4.57170877337e-05 0)
(-0.00155621662932 -6.01999662746e-05 0)
(-0.00160891458943 -7.55818822301e-05 0)
(-0.0016638444325 -7.57534325653e-05 0)
(-0.00170980087078 -6.64470217385e-05 0)
(-0.00174060401447 -5.92489576199e-05 0)
(-0.00178208264145 -5.49769078457e-05 0)
(-0.00182032138852 -4.98665124736e-05 0)
(-0.00185107874428 -4.36545529414e-05 0)
(-0.00187747671838 -3.76848399029e-05 0)
(-0.00190095267621 -3.29212693673e-05 0)
(-0.00192082484569 -3.01607751357e-05 0)
(-0.00193455519563 -2.68252436078e-05 0)
(-0.00195291366372 -2.18463783268e-05 0)
(-0.00196733204473 -2.16911353067e-05 0)
(-0.00197958050192 -2.2894263752e-05 0)
(-0.00200261365712 -2.01033586725e-05 0)
(-0.00201401508539 -1.9318848421e-05 0)
(-0.00201896253383 -1.88622329958e-05 0)
(-0.00203392945261 -1.50925909897e-05 0)
(-0.00205531134328 -9.10676278849e-06 0)
(-0.00206319032975 -1.09466592839e-06 0)
(-0.00203204216056 6.07942253862e-06 0)
(-0.00201215899072 1.05602196294e-05 0)
(-0.00200926223352 1.39196270859e-05 0)
(-0.00200117557617 1.77217261839e-05 0)
(-0.00199162964033 2.26758851286e-05 0)
(-0.00197918058053 2.89744969142e-05 0)
(-0.00195979805049 3.62854401554e-05 0)
(-0.00193862491498 4.42202791838e-05 0)
(-0.00191080055862 5.181431472e-05 0)
(-0.00187017495356 5.80254979413e-05 0)
(-0.00181125960864 6.39168022582e-05 0)
(-0.00175623461127 7.21161099746e-05 0)
(-0.00173886758423 8.80307654139e-05 0)
(-0.00166522066513 0.000108624249968 0)
(-0.00158431793874 0.000124909274482 0)
(-0.00151588977316 0.00013340055456 0)
(-0.0014283990473 0.000142181881246 0)
(-0.00132569603308 0.000160033571527 0)
(-0.00121415866786 0.000182022368304 0)
(-0.00108689956113 0.000205743920836 0)
(-0.000901319080295 0.000234054686781 0)
(-0.00077280630538 0.000314824845557 0)
(-0.000543506630258 0.000347094182956 0)
(-0.000316043269018 0.000268601229473 0)
(-0.00016532470495 0.000173812802913 0)
(-7.22137444465e-05 0.000128750314557 0)
(4.05840987569e-06 0.000118106617768 0)
(7.87142345403e-05 0.000109724696132 0)
(0.000148809812802 9.73631838398e-05 0)
(0.000204158760162 7.29503918911e-05 0)
(0.000236968963138 4.02263899308e-05 0)
(0.000241763976599 1.09843649938e-05 0)
(0.00025592261447 -1.37642068706e-05 0)
(0.000245216252958 -3.20709948043e-05 0)
(0.000225746365906 -4.36010428691e-05 0)
(0.00019562652622 -4.65189284351e-05 0)
(0.000161448094079 -5.96726783428e-05 0)
(0.000102133502512 -7.1293625135e-05 0)
(4.81768683242e-05 -0.000122539978946 0)
(-6.51942788683e-05 -0.000377084960948 0)
(-0.000181500432038 -0.00040216278585 0)
(-0.000281868582648 -0.000366893447621 -8.5740799551e-29)
(-0.000464132596441 -0.000360268400167 7.84377415402e-29)
(-0.000629218327887 -0.000346340090268 6.81813932494e-29)
(-0.000737927622154 -0.000276207972519 -6.18337801203e-29)
(-0.000817385519077 -0.000152452833375 6.16417264223e-29)
(-0.000882505214222 -0.000157134120885 -5.92009002898e-29)
(-0.000950701362665 -0.000187666524562 0)
(-0.00102732689669 -0.000187803493809 0)
(-0.00110136509383 -0.000173712725815 0)
(-0.00116642355308 -0.000156596618642 0)
(-0.00122387105842 -0.000137209098989 0)
(-0.00127353889849 -0.000122449706958 0)
(-0.00132372422269 -0.000114169091015 0)
(-0.00137057839314 -0.00010304498432 0)
(-0.00130548741574 -8.17347289631e-05 0)
(-0.00128858744222 -6.83726144472e-05 0)
(-0.00133386489785 -7.86561749328e-05 0)
(-0.00141557173028 -0.000109307525436 0)
(-0.00155192707849 -0.000135526645423 0)
(-0.0016235199233 -0.000136649516768 0)
(-0.00165633406414 -0.000124095731417 0)
(-0.00170218292898 -0.000110236626475 0)
(-0.00174802525518 -9.99986571282e-05 0)
(-0.00178473892981 -9.20280057875e-05 0)
(-0.00181816616727 -8.22385543018e-05 0)
(-0.00184934610637 -7.19813980927e-05 0)
(-0.00187642404985 -6.27445997167e-05 0)
(-0.00189911979463 -5.52767146859e-05 -1.07304498406e-28)
(-0.00192092620871 -4.88126958068e-05 1.0364551528e-28)
(-0.00193041359711 -4.30204224871e-05 0)
(-0.00194731092785 -3.6784433958e-05 0)
(-0.00197214982496 -3.26559068137e-05 0)
(-0.0019668745061 -3.671136388e-05 0)
(-0.00199071165684 -3.78738298537e-05 0)
(-0.00201926342077 -3.23240365477e-05 0)
(-0.00201374537798 -3.0852741082e-05 0)
(-0.00203038636588 -2.99088289128e-05 0)
(-0.00205345988955 -1.92045847158e-05 0)
(-0.0020623434737 6.57730173126e-07 0)
(-0.00205797656491 1.58082407289e-05 0)
(-0.00205066297517 2.01817670204e-05 0)
(-0.00204307882102 2.30810303421e-05 0)
(-0.00203219269802 2.89671573089e-05 0)
(-0.00201733075629 3.69810225131e-05 0)
(-0.00199859345978 4.71354361834e-05 0)
(-0.00197580867138 5.85825832427e-05 0)
(-0.00194896879104 7.12964863265e-05 0)
(-0.00191749903522 8.59444252079e-05 0)
(-0.00188058683643 0.000101117189303 0)
(-0.00183809445368 0.000113187811393 0)
(-0.00179037705198 0.000123124572968 0)
(-0.00172965065481 0.000144920818744 0)
(-0.00165615976122 0.000174098636696 0)
(-0.00159111867285 0.00019677516895 0)
(-0.0015152668547 0.000216379100921 0)
(-0.00142228796172 0.000240160905971 0)
(-0.00131535724982 0.00027010776015 0)
(-0.00119468486754 0.000307363130693 0)
(-0.00105260542545 0.000356352866303 0)
(-0.000896849230322 0.000427486523093 0)
(-0.000725548616933 0.000537352092829 0)
(-0.000494615675484 0.000544070668338 0)
(-0.000275022247593 0.000397826589478 0)
(-0.000145641719333 0.00028863053457 0)
(-5.05058199573e-05 0.00023180854479 0)
(3.18411736662e-05 0.000198635013804 0)
(0.000102984871433 0.000177072078135 0)
(0.00016583136905 0.000150813082792 0)
(0.000216046199858 0.00011148556868 0)
(0.000252537234407 6.66734196721e-05 0)
(0.000284570731583 2.75224552893e-05 0)
(0.000295907260541 -1.48747554139e-05 0)
(0.000275220143461 -5.3794178937e-05 0)
(0.000241314103123 -7.48943449363e-05 0)
(0.00020201645292 -8.54556009911e-05 0)
(0.000161771688905 -0.000113814588423 0)
(0.000114403392938 -0.000168281352473 0)
(3.02646637845e-05 -0.000174593533817 0)
(-6.45907237393e-05 -0.000552175311619 0)
(-9.24124973002e-05 -0.000387165331881 0)
(-0.000230383754606 -0.000546959265699 0)
(-0.000398764910076 -0.000533060206789 0)
(-0.00055293096628 -0.000451753751881 0)
(-0.000348185738286 -0.000190287629101 0)
(-0.000442437621119 -0.000189651595388 0)
(-0.000771923782368 -0.000309577446085 0)
(-0.000906062953735 -0.000308550501879 0)
(-0.00100306692296 -0.000277599642619 0)
(-0.00108961585881 -0.000251460639277 0)
(-0.00116242957318 -0.000222338474496 0)
(-0.00122411096812 -0.000192690921556 0)
(-0.00126832283033 -0.00015589572159 0)
(-0.00123893802381 -0.000112092271277 0)
(-0.00120471529573 -8.35448774271e-05 0)
(-0.00121478553772 -8.24617080824e-05 0)
(-0.00128263336766 -0.000117484164535 0)
(-0.00141331042174 -0.000170390630725 0)
(-0.00152352908703 -0.00021092502559 0)
(-0.00156878790913 -0.000211297509314 0)
(-0.00161546292406 -0.000190161612189 0)
(-0.00166428282008 -0.000170726121953 0)
(-0.00170738534542 -0.000155245402406 0)
(-0.00174638773949 -0.000140540854431 0)
(-0.0017819012481 -0.000126688774225 0)
(-0.00181454488111 -0.000113711251137 0)
(-0.00184782411855 -0.000100662958879 0)
(-0.00187306561822 -8.8057137043e-05 0)
(-0.00190009692196 -7.7117790508e-05 0)
(-0.00191330272471 -6.76150131658e-05 0)
(-0.00193536663513 -5.80429281e-05 0)
(-0.00193624554394 -4.8348121024e-05 0)
(-0.00195673334833 -4.66629703891e-05 0)
(-0.00198815268857 -5.13321823584e-05 0)
(-0.00198694095284 -5.53628946349e-05 0)
(-0.00201415333019 -5.22059244139e-05 0)
(-0.00203978047257 -4.68558331012e-05 0)
(-0.00204973011612 -4.15744349175e-05 0)
(-0.00205665455568 -2.65694509512e-05 0)
(-0.00206089503918 -3.95090621367e-06 0)
(-0.00205963427079 1.49356742329e-05 0)
(-0.00205462016241 2.55763275379e-05 0)
(-0.00204697489662 3.33456756552e-05 0)
(-0.00203571574001 4.27305444353e-05 0)
(-0.00202056237559 5.44298667304e-05 9.10582574753e-29)
(-0.00200154783816 6.82149095025e-05 -9.15092457688e-29)
(-0.00197853755368 8.36704647666e-05 0)
(-0.00195137687051 0.000100778082985 0)
(-0.00191963833223 0.000119499238694 0)
(-0.0018825995929 0.000138758264173 0)
(-0.00183931622188 0.000157812436635 0)
(-0.00178874617849 0.000179946989129 0)
(-0.00172918545341 0.000209420425807 0)
(-0.00166244019528 0.000240881723246 0)
(-0.00159048767894 0.00027122570074 0)
(-0.00150820868599 0.000304890603725 0)
(-0.00141049225652 0.000344075706663 1.71814251587e-28)
(-0.00129584966808 0.000390836571416 -1.98636836555e-28)
(-0.0011619319083 0.000448806022335 0)
(-0.0010049231697 0.00052293094637 0)
(-0.000828584560996 0.000620096992291 0)
(-0.000643775060239 0.000714190844988 0)
(-0.000468258838683 0.000722440581302 0)
(-0.000286746489578 0.00059948726585 0)
(-0.00011899418612 0.000406874804383 0)
(-1.56384963879e-05 0.000313843866795 0)
(6.80031243309e-05 0.000273328758808 0)
(0.00014042495227 0.000243127528366 0)
(0.000207965806585 0.00021201433016 0)
(0.00026931697669 0.000166230518585 0)
(0.000317557614141 0.000107816854527 0)
(0.000332813587263 3.72720467931e-05 0)
(0.000299608067515 -3.27244817361e-05 0)
(0.000268429935142 -8.29767591842e-05 0)
(0.000234150377594 -0.000118530225187 0)
(0.000183034680724 -0.000138549738236 0)
(0.00011056156991 -0.000138015732115 0)
(8.12681355245e-05 -0.000196409812484 0)
(2.76303291538e-05 -0.000236383010212 0)
(-1.11245804744e-05 -0.000565649038573 0)
(-5.20103246477e-05 -0.000470376946669 0)
(-0.000205226290835 -0.000706576697158 0)
(-0.000343036428473 -0.000651980531105 0)
(-0.000393811466774 -0.000449223887755 0)
(-0.000325497763766 -0.000257456658641 0)
(-0.000537159968401 -0.00039701670048 0)
(-0.000758095273324 -0.000504222210876 0)
(-0.000856770953901 -0.00044052667466 0)
(-0.00096885693426 -0.00038084702668 0)
(-0.0010649099071 -0.000343788613696 0)
(-0.00114680265144 -0.000298350637267 0)
(-0.0011749547956 -0.000219065403345 0)
(-0.00111922813452 -0.00013715118062 0)
(-0.00114476838677 -0.000107208166428 0)
(-0.00120705658114 -0.00011903689791 0)
(-0.00130300889886 -0.000163751892371 0)
(-0.00140998244621 -0.000223372238359 0)
(-0.00148348683422 -0.000260641934828 0)
(-0.00151629205269 -0.000262460672678 0)
(-0.0015639390349 -0.000254524759647 0)
(-0.00161758079329 -0.000240106188938 0)
(-0.00166327149079 -0.00021899787437 0)
(-0.00170567578135 -0.000197389101415 0)
(-0.00174388534066 -0.000178042408941 0)
(-0.00177799731844 -0.00016154907345 0)
(-0.00181410872799 -0.00014556535803 0)
(-0.0018403091438 -0.000129397188825 0)
(-0.00187454638292 -0.000113420362541 0)
(-0.00188846846416 -9.79123269451e-05 0)
(-0.00191843892698 -8.47753653056e-05 -1.03143000446e-28)
(-0.00190799083588 -7.2589399434e-05 9.84901710224e-29)
(-0.0019433972195 -6.64629438791e-05 0)
(-0.00197509390993 -6.43907901031e-05 0)
(-0.00197985616255 -6.91228085838e-05 0)
(-0.00201223313594 -7.57329162898e-05 0)
(-0.00203136524687 -7.46710982323e-05 0)
(-0.0020447758433 -6.34792065076e-05 0)
(-0.00205371076647 -4.84019297208e-05 0)
(-0.00205964132124 -2.9305394678e-05 0)
(-0.00206326792621 -6.32806408122e-06 0)
(-0.00206322251425 1.47000889254e-05 0)
(-0.00205932695136 3.02382219606e-05 0)
(-0.00205182399413 4.29826044779e-05 0)
(-0.00204043243132 5.64424369187e-05 0)
(-0.00202511553713 7.18972393046e-05 0)
(-0.00200589022918 8.94421764329e-05 0)
(-0.00198262038902 0.00010890091088 0)
(-0.00195505947954 0.000130282842965 0)
(-0.00192276981986 0.000153568659082 0)
(-0.00188503479432 0.000178405349119 0)
(-0.00184082134697 0.000205063838507 0)
(-0.00178902932103 0.000235558757115 0)
(-0.00172894175547 0.000271177894899 0)
(-0.00166133599641 0.000309816886847 0)
(-0.00158573662607 0.000351640877321 0)
(-0.00149746198804 0.000399998274343 0)
(-0.00139132200239 0.000457390443171 0)
(-0.00126378647919 0.000526336890287 0)
(-0.0011119941415 0.000609949934132 0)
(-0.000936498525485 0.00070816586354 0)
(-0.000750202924944 0.000808216731584 0)
(-0.000574325803035 0.000870854029129 0)
(-0.000425578579256 0.000884536878387 0)
(-0.000260344027185 0.000781504672467 0)
(-9.92257513491e-05 0.000565098199101 0)
(1.79216485095e-05 0.000430008252623 0)
(0.000112153954507 0.000358732790431 0)
(0.000189708456178 0.000312208702953 0)
(0.000262925408264 0.000274546445759 0)
(0.000337452322721 0.000224022329799 0)
(0.000375462810645 0.000130136858287 0)
(0.000344287685851 1.78279616453e-05 0)
(0.000315487700468 -6.47098055444e-05 0)
(0.000282330691694 -0.000126712736193 0)
(0.000234988099125 -0.000175291892395 0)
(0.000166694807548 -0.000187396387995 0)
(0.000109094436643 -0.000190325968339 0)
(7.30435754566e-05 -0.000258062133966 0)
(2.01538017189e-05 -0.000276614899021 0)
(-1.96336108187e-06 -0.000535769445865 0)
(-5.98466077952e-05 -0.00056935689869 0)
(-0.000204213383035 -0.000809838678546 0)
(-0.000294407367849 -0.000694046703782 0)
(-0.000239468640477 -0.000366769179718 0)
(-0.000329190033745 -0.000370824122864 0)
(-0.000632234566618 -0.0006176458401 0)
(-0.000724577810612 -0.000616829230549 0)
(-0.000820206777198 -0.000550983547457 0)
(-0.000928078789426 -0.000490821790081 0)
(-0.00102975178852 -0.000421633305915 0)
(-0.00100452806391 -0.000304198419657 0)
(-0.000945492637573 -0.000188150428419 0)
(-0.00101281084846 -0.000158408947533 0)
(-0.00109587424637 -0.000175613124344 0)
(-0.00123063574904 -0.000226154273948 0)
(-0.00135277653042 -0.000275729030605 0)
(-0.00143123481459 -0.000298053333046 0)
(-0.00145578571584 -0.000297101933468 0)
(-0.0015098888376 -0.000305082987713 0)
(-0.0015690648473 -0.000306442479049 0)
(-0.00161593457168 -0.000289145738439 0)
(-0.00165981296525 -0.000264440524807 0)
(-0.00170063120273 -0.000239645807698 0)
(-0.00174310522929 -0.00021673259717 0)
(-0.00177738585748 -0.000194235468542 0)
(-0.00179851627959 -0.000176275806374 0)
(-0.00184395221603 -0.000159112284368 0)
(-0.00185292600262 -0.000137102371269 0)
(-0.0018967431782 -0.000116321527644 0)
(-0.0018765799198 -9.70757800977e-05 0)
(-0.00192369294211 -9.20237651046e-05 0)
(-0.00191154486004 -8.80727133971e-05 0)
(-0.00196318272834 -9.03090106853e-05 0)
(-0.0020060772096 -9.63796413565e-05 0)
(-0.002025850879 -9.9258329955e-05 0)
(-0.00203900865255 -9.00736569048e-05 0)
(-0.002049785333 -7.40692087973e-05 0)
(-0.00205803918933 -5.4997742085e-05 0)
(-0.00206398290434 -3.30681906923e-05 0)
(-0.00206755764576 -8.75969603142e-06 0)
(-0.00206799756251 1.45951065103e-05 0)
(-0.00206471196409 3.45112789029e-05 0)
(-0.0020574476928 5.2173776715e-05 0)
(-0.00204611013965 7.00306390855e-05 0)
(-0.0020307331959 8.94808362869e-05 0)
(-0.00201134320597 0.000110945787758 0)
(-0.00198776138486 0.000134508486244 0)
(-0.0019596532705 0.000160303623194 0)
(-0.00192655605106 0.000188489475415 0)
(-0.0018877837658 0.000219226790862 0)
(-0.00184238584911 0.000253137574388 0)
(-0.00178940449516 0.000291426911428 0)
(-0.00172821864106 0.000334673785469 0)
(-0.0016583757002 0.000382869818108 0)
(-0.0015776204146 0.000438191973091 0)
(-0.00148086249245 0.000504406797425 0)
(-0.00136270525665 0.000584346833255 0)
(-0.00121965551836 0.000679432081781 0)
(-0.00105127775453 0.000787066563039 0)
(-0.000866100165384 0.000895772768902 0)
(-0.000682596465722 0.000976929744679 0)
(-0.000502511032221 0.000995193749653 0)
(-0.000375059506585 0.00105637582894 0)
(-0.000202412722325 0.000916907845084 0)
(-5.8758169266e-05 0.000685098095414 0)
(5.67567078218e-05 0.000538686151193 0)
(0.000163473252432 0.000448954352252 0)
(0.000253102530597 0.000387553939682 0)
(0.000344578227452 0.000350844907132 0)
(0.000419065642743 0.000272718153308 0)
(0.000407562986983 0.00012196149331 0)
(0.00037630980827 -6.49409764577e-06 0)
(0.000355088350455 -0.000102439773123 0)
(0.000306088629462 -0.000181951000119 0)
(0.000246445218815 -0.000241238711698 0)
(0.000165297407367 -0.000237544017067 0)
(0.000109912725789 -0.000240868919497 0)
(7.04557197873e-05 -0.000307348548963 0)
(2.06559883756e-05 -0.000315401466725 0)
(-2.12209618572e-05 -0.000584036021708 0)
(-0.000121165772613 -0.000729591651295 0)
(-0.000255702226317 -0.000886789595285 0)
(-0.000303784881356 -0.000833842780778 0)
(-0.000231027434257 -0.000465117555465 0)
(-0.000451373024102 -0.000631051087394 0)
(-0.000634097972145 -0.000747222339407 0)
(-0.000698919596344 -0.000703691911733 0)
(-0.000790775288967 -0.000642361718655 0)
(-0.000861961583409 -0.000579053682145 0)
(-0.000996662204402 -0.000480024725476 2.80979817497e-28)
(-0.000837883383316 -0.000264248719683 -1.85251327696e-28)
(-0.000936630699774 -0.000230840613583 0)
(-0.000997033395137 -0.000239882512667 0)
(-0.0011306827321 -0.000294037716872 0)
(-0.00127433165516 -0.000357486790319 0)
(-0.00136207932566 -0.000366493993672 0)
(-0.0013760976103 -0.000338629461636 0)
(-0.00144185335761 -0.000345196694949 0)
(-0.00151610273147 -0.000363403641255 0)
(-0.00156310972225 -0.000357675859135 0)
(-0.00161136242672 -0.000336210839024 0)
(-0.00165747919055 -0.000309723970702 0)
(-0.00170021827693 -0.000281071405078 0)
(-0.00173319033462 -0.000251476785824 0)
(-0.00175996032391 -0.000223969293595 0)
(-0.00180488446127 -0.000204998244329 0)
(-0.00180482060978 -0.000186008923184 0)
(-0.00186448690774 -0.000161840677134 0)
(-0.00184024470238 -0.000126874040453 0)
(-0.00189848057481 -0.000116375654419 0)
(-0.00188718039307 -0.000114658460461 9.75352705392e-29)
(-0.00193929574 -0.000116773807387 -9.81546865915e-29)
(-0.00197173914232 -0.000126409158831 0)
(-0.00201696141445 -0.000129230090139 0)
(-0.00203439652429 -0.000118733038364 0)
(-0.00204521752749 -0.000102514206614 0)
(-0.00205501487405 -8.32944223369e-05 0)
(-0.00206347338668 -6.15863569974e-05 0)
(-0.00206973464207 -3.73663927253e-05 0)
(-0.00207338714023 -1.12381336666e-05 0)
(-0.00207405809883 1.46836605137e-05 0)
(-0.00207110911904 3.86445122811e-05 0)
(-0.00206407934416 6.10288634586e-05 0)
(-0.00205285440796 8.34234234522e-05 0)
(-0.00203747515752 0.000107105745307 0)
(-0.00201790828126 0.000132724550436 0)
(-0.00199389467441 0.000160617249351 0)
(-0.00196504021607 0.000191091154184 0)
(-0.00193089155139 0.000224505451477 0)
(-0.00189083130609 0.000261338290951 0)
(-0.00184401369933 0.000302350675341 0)
(-0.00178951047472 0.000348524053329 0)
(-0.00172632184671 0.000400845288337 0)
(-0.00165277149013 0.000461102964159 0)
(-0.00156527258935 0.000532986674079 0)
(-0.00145834834573 0.000620585389273 0)
(-0.00132712998228 0.000725562216575 0)
(-0.00117067371613 0.000844778283932 0)
(-0.000994806430735 0.000968207508456 0)
(-0.000811039662256 0.00107553866399 0)
(-0.000633783744128 0.00114316883271 0)
(-0.000471157289297 0.00118414593379 0)
(-0.000332185480046 0.00118991524847 0)
(-0.000173359276274 0.00105799370231 0)
(-8.45592856446e-06 0.000794962886474 0)
(0.00011918903627 0.000663914217437 0)
(0.000240892186586 0.000571067594975 0)
(0.000347048822621 0.000495985610573 0)
(0.000438879892049 0.000424190344039 0)
(0.000477311486306 0.000285766440826 0)
(0.000452705573311 0.000110606028175 0)
(0.000446313483551 -2.91456544119e-05 0)
(0.000412170508175 -0.000151994506767 0)
(0.000346094941095 -0.000255799233762 0)
(0.000257168158402 -0.000305010355727 0)
(0.000179153675786 -0.000308342081446 0)
(0.000106781445156 -0.000296220860339 0)
(6.37801151366e-05 -0.00034981101828 0)
(2.10395479057e-05 -0.000362539482441 0)
(-4.10952492414e-05 -0.000680220484206 0)
(-0.00016415547727 -0.000875531735906 0)
(-0.000281186500318 -0.000933194500825 0)
(-0.000207623260274 -0.000610558768613 0)
(-0.000244514893212 -0.000577711198583 0)
(-0.000502560887087 -0.000840051307952 0)
(-0.000591717833131 -0.00083427930973 0)
(-0.000677262737876 -0.000790036800552 0)
(-0.000743959781013 -0.000714947910349 0)
(-0.000838150743435 -0.000644817985828 0)
(-0.000733932072953 -0.000407852483394 0)
(-0.000827978585767 -0.000316512239208 0)
(-0.000917756960938 -0.00030805740202 0)
(-0.000997410343041 -0.000341403655904 0)
(-0.00118141958189 -0.000430497633464 0)
(-0.00128514553008 -0.000454222819339 0)
(-0.00129083677635 -0.000407592488201 0)
(-0.00135352858126 -0.000393655520789 0)
(-0.00144771891966 -0.000416356380321 0)
(-0.00150980772916 -0.000421786143712 0)
(-0.0015552765433 -0.000406194265759 0)
(-0.0016006083774 -0.000382442729509 0)
(-0.00164982273711 -0.00035659155272 0)
(-0.00169257295431 -0.000324307070801 0)
(-0.00173800495785 -0.000284728682041 0)
(-0.00174866249297 -0.000256345013688 0)
(-0.00180670810151 -0.000233071688147 0)
(-0.00181569679735 -0.000205768284525 0)
(-0.00181355677635 -0.000178337110354 0)
(-0.00184792364185 -0.000157025653966 0)
(-0.00191708317107 -0.000145949928928 0)
(-0.00191309261346 -0.000136463846755 0)
(-0.00193147632614 -0.000151585836028 0)
(-0.00200049033736 -0.000164390830456 0)
(-0.00202303643834 -0.000156745854998 0)
(-0.00203881275403 -0.000136294249145 0)
(-0.00205119259267 -0.00011453964788 0)
(-0.00206133996965 -9.24825992777e-05 0)
(-0.00207003772441 -6.85719176003e-05 0)
(-0.00207668079128 -4.21634860748e-05 0)
(-0.00208057478106 -1.38380006195e-05 0)
(-0.00208139245816 1.48825415657e-05 0)
(-0.00207866411347 4.27144924697e-05 0)
(-0.00207187342134 6.96470649031e-05 0)
(-0.0020608038303 9.6645960102e-05 8.85108443681e-29)
(-0.00204543194782 0.000124786797104 -8.8194179567e-29)
(-0.00202562202799 0.000154858183166 0)
(-0.00200102124077 0.000187405919613 0)
(-0.00197120219051 0.000222889377852 0)
(-0.0019357508034 0.000261827690499 0)
(-0.0018941239492 0.000304925125776 0)
(-0.00184554218995 0.000353160893282 0)
(-0.00178897827963 0.000407849742045 0)
(-0.0017228756055 0.000470945883277 0)
(-0.00164449280724 0.000545767953741 0)
(-0.00154942600056 0.000636890568876 0)
(-0.00143252466847 0.00074769365362 0)
(-0.00129091738952 0.000876750094986 0)
(-0.00112770324768 0.00101532052624 0)
(-0.000950835347533 0.00114897474013 0)
(-0.000767670037088 0.00125665293268 0)
(-0.000589312707487 0.00131783058335 0)
(-0.000428213668047 0.00133475598579 0)
(-0.000292328869288 0.00130890326598 0)
(-0.000170050737628 0.00127195407748 0)
(2.7762068779e-05 0.000956059768003 0)
(0.000192212054672 0.00079038282683 0)
(0.000328499436748 0.000688036211473 0)
(0.000433295421571 0.000582827034033 0)
(0.00050900388571 0.000465763248031 0)
(0.000532413967149 0.000294462164293 0)
(0.000537251828606 0.000115984843201 0)
(0.000546545493518 -5.17433903207e-05 0)
(0.000495259673061 -0.000222631720758 0)
(0.000396977906679 -0.000352204436181 0)
(0.000275865946506 -0.000392583256911 0)
(0.000184509563047 -0.000394664576201 0)
(9.80989575519e-05 -0.000369049582632 0)
(4.55360341889e-05 -0.000390006794469 0)
(1.40119860649e-05 -0.000406379004047 0)
(-5.55468047079e-05 -0.000797886063249 0)
(-0.000181795810373 -0.000991855108391 0)
(-0.000245065363202 -0.000975022799855 0)
(-0.000201904538437 -0.000670383207001 0)
(-0.00032105622645 -0.000749474951702 0)
(-0.000507968536355 -0.000947675191756 0)
(-0.000555509570715 -0.000916415428438 0)
(-0.000657916214329 -0.000872381782591 0)
(-0.000664114098516 -0.000741475348304 0)
(-0.000842152914312 -0.000726542590569 0)
(-0.000714017659221 -0.000454107483487 0)
(-0.00083069355251 -0.000403875652178 0)
(-0.000908485500726 -0.000401239349687 0)
(-0.00104863388321 -0.000476235381822 0)
(-0.00119087808556 -0.000550299167059 0)
(-0.00126908596559 -0.000522903057834 0)
(-0.00127519488428 -0.000459401610603 0)
(-0.00135678391367 -0.000467293654978 0)
(-0.00143814987642 -0.00048645269553 0)
(-0.00149718682494 -0.000478883388883 0)
(-0.00155013150495 -0.00045592726966 0)
(-0.00159297869701 -0.000426729146314 0)
(-0.00163971899974 -0.000398684964095 0)
(-0.00166707358157 -0.000365213184721 0)
(-0.00169762498329 -0.000315838468149 0)
(-0.0017621664193 -0.000286017111742 0)
(-0.0017371635578 -0.000259606644434 0)
(-0.00183705445212 -0.000233337460996 0)
(-0.00180834291053 -0.000205316807839 0)
(-0.00189089421087 -0.000195309630935 0)
(-0.00186637030095 -0.00017284563376 0)
(-0.00194746807049 -0.00017096172213 0)
(-0.00198088900176 -0.000187182668277 1.01875472562e-28)
(-0.00200711533045 -0.000194989177422 -1.01197921216e-28)
(-0.00202745890864 -0.000177932941228 0)
(-0.00204398464295 -0.000152801553625 0)
(-0.00205778817753 -0.000127399609319 0)
(-0.00206876302954 -0.000102353886125 0)
(-0.00207774390241 -7.60584432128e-05 0)
(-0.00208466691318 -4.74174806473e-05 0)
(-0.00208891323024 -1.66606848899e-05 0)
(-0.00209000644739 1.50630294823e-05 0)
(-0.00208750080913 4.67071926707e-05 0)
(-0.00208095121163 7.80699829499e-05 0)
(-0.00207008989564 0.000109733098298 0)
(-0.00205472840628 0.000142581940302 0)
(-0.00203457986549 0.000177462997742 0)
(-0.00200922225574 0.000215062446473 0)
(-0.00197822311255 0.000255941076996 0)
(-0.00194120057382 0.000300725534116 0)
(-0.00189768078956 0.000350339470825 0)
(-0.00184693408038 0.000406167886066 0)
(-0.00178778828406 0.000470271479735 0)
(-0.00171814815788 0.00054578282441 0)
(-0.00163455129979 0.000637093021111 0)
(-0.00153248682224 0.000748614167804 0)
(-0.00140803029237 0.00088181376499 0)
(-0.00126070804035 0.00103234363196 0)
(-0.00109593339942 0.0011880525227 0)
(-0.000919705920993 0.00133336897674 0)
(-0.000732367688892 0.00144686417879 0)
(-0.000544255875096 0.00149432699632 0)
(-0.000374124395204 0.00148740379262 0)
(-0.000226316094014 0.00144334649992 0)
(-0.00011337100756 0.0013743145428 0)
(4.42997550725e-05 0.00121773189863 0)
(0.000250224185759 0.000905455890142 0)
(0.000423622266257 0.000811524328049 0)
(0.00052570167877 0.000674458511076 0)