/*--------------------------------*- C++ -*----------------------------------*\
| =========                 |                                                 |
| \\      /  F ield         | OpenFOAM: The Open Source CFD Toolbox           |
|  \\    /   O peration     | Version:  v1806                                 |
|   \\  /    A nd           | Web:      www.OpenFOAM.com                      |
|    \\/     M anipulation  |                                                 |
\*---------------------------------------------------------------------------*/
FoamFile
{
    version     2.0;
    format      ascii;
    class       surfaceScalarField;
    location    "689";
    object      phi;
}
// * * * * * * * * * * * * * * * * * * * * * * * * * * * * * * * * * * * * * //

dimensions      [0 3 -1 0 0 0 0];
oriented        oriented;


internalField   nonuniform List<scalar> 
12640
(
-2.47015216505e-07
2.48251068629e-07
-4.6577508306e-07
2.19731647681e-07
-6.51826978991e-07
1.86769236034e-07
-8.05429225738e-07
1.54176805215e-07
-9.18236020995e-07
1.13323280406e-07
-9.89800842848e-07
7.20609229919e-08
-1.04075709134e-06
5.1409133793e-08
-1.11491598279e-06
7.45671935343e-08
-1.21345809232e-06
9.89123911998e-08
-1.30526970658e-06
9.21361016752e-08
-1.38859489184e-06
8.35998469886e-08
-1.47272996917e-06
8.43835665938e-08
-1.54675627536e-06
7.42540466191e-08
-1.60673688709e-06
6.01928758936e-08
-1.66063705362e-06
5.40967480747e-08
-1.72114742814e-06
6.0699775035e-08
-1.78299199574e-06
6.20216819282e-08
-1.83440640602e-06
5.15827191362e-08
-1.87422524193e-06
3.99702142864e-08
-1.91101874921e-06
3.69364059488e-08
-1.95970862026e-06
4.88252172926e-08
-2.02052538354e-06
6.09490409335e-08
-2.08225808344e-06
6.1856457404e-08
-2.13949852958e-06
5.73589623628e-08
-2.19080544223e-06
5.14160804105e-08
-2.2365105449e-06
4.58107670145e-08
-2.27861813201e-06
4.22062702848e-08
-2.31621405413e-06
3.76926496037e-08
-2.34840440789e-06
3.22800097512e-08
-2.37635116694e-06
2.80342921821e-08
-2.40266353653e-06
2.63925759085e-08
-2.42640996567e-06
2.38254275973e-08
-2.44598900025e-06
1.96532348581e-08
-2.46509455104e-06
1.91776988911e-08
-2.48406172388e-06
1.90313650594e-08
-2.50171507096e-06
1.77163923223e-08
-2.51938418039e-06
1.77238262462e-08
-2.53532314251e-06
1.59891182397e-08
-2.54714990408e-06
1.18690069789e-08
-2.55532867769e-06
8.21981596337e-09
-2.56339921654e-06
8.10446806245e-09
-2.56819908575e-06
4.83118554967e-09
-2.56336276772e-06
-4.81326986414e-09
-2.55144796192e-06
-1.18953612785e-08
-2.53542847175e-06
-1.60086874887e-08
-2.51460417453e-06
-2.08164479291e-08
-2.48829989082e-06
-2.63051760735e-08
-2.45526840921e-06
-3.30356159713e-08
-2.41531886095e-06
-3.99627017638e-08
-2.37178595877e-06
-4.35492336698e-08
-2.32849451875e-06
-4.33186427865e-08
-2.27973968655e-06
-4.8785125783e-08
-2.21315279442e-06
-6.66258675878e-08
-2.13151032323e-06
-8.16860001171e-08
-2.03551269125e-06
-9.60507499354e-08
-1.92094257493e-06
-1.14628366676e-07
-1.80090320169e-06
-1.20115460901e-07
-1.67883025506e-06
-1.22167330747e-07
-1.53928114515e-06
-1.39669541979e-07
-1.3808455076e-06
-1.58588640938e-07
-1.21137872795e-06
-1.69658553308e-07
-1.00998061852e-06
-2.01626082634e-07
-7.25907663113e-07
-2.84321509486e-07
-4.26172535854e-07
-2.99917250476e-07
-2.13362920492e-07
-2.1292949371e-07
-7.26151467737e-08
-1.40825574193e-07
3.70561763678e-08
-1.09745030512e-07
1.34577604466e-07
-9.76035127793e-08
2.21972715202e-07
-8.7488711808e-08
2.9551462537e-07
-7.36436362129e-08
3.47607294162e-07
-5.21985612312e-08
3.72695641183e-07
-2.51927755151e-08
3.70447352759e-07
2.1536746257e-09
3.39605144684e-07
3.07521560266e-08
2.96475791941e-07
4.30488350837e-08
2.46709536383e-07
4.96792265171e-08
2.05422271374e-07
4.11930820996e-08
1.4914428899e-07
5.61834523734e-08
9.20876994633e-08
5.69566566789e-08
9.19873932153e-08
-1.30289773593e-07
3.79142271805e-07
-3.01733079623e-07
3.91866376404e-07
-4.65056217477e-07
3.50647053498e-07
-6.30285769587e-07
3.19869413033e-07
-8.29652628742e-07
3.13167335004e-07
-9.77507918212e-07
2.20388110464e-07
-1.06187378318e-06
1.36240033903e-07
-1.14130186022e-06
1.54419069589e-07
-1.22827863051e-06
1.86268613965e-07
-1.32100734359e-06
1.85187246504e-07
-1.40823040695e-06
1.71109844529e-07
-1.48076667959e-06
1.57168170959e-07
-1.54504888854e-06
1.3877130803e-07
-1.60481534153e-06
1.20176841788e-07
-1.66155250373e-06
1.11049546025e-07
-1.7237720397e-06
1.23114738696e-07
-1.78134889864e-06
1.19781923889e-07
-1.81443201764e-06
8.48207718449e-08
-1.84293507299e-06
6.86214338742e-08
-1.88701454461e-06
8.11513965696e-08
-1.94692508504e-06
1.08876750966e-07
-2.01865468561e-06
1.32808412132e-07
-2.0862872564e-06
1.29620534513e-07
-2.14010878051e-06
1.11296221922e-07
-2.18866637574e-06
1.00090316583e-07
-2.23736910637e-06
9.46163261846e-08
-2.28012262687e-06
8.50660848192e-08
-2.31631723479e-06
7.39804761009e-08
-2.34833280859e-06
6.43925941145e-08
-2.37686156999e-06
5.66470752684e-08
-2.40157217779e-06
5.1191522309e-08
-2.42305117195e-06
4.53812240727e-08
-2.44051545294e-06
3.71978984615e-08
-2.45825001286e-06
3.69804464816e-08
-2.47997905032e-06
4.08331093385e-08
-2.49853802232e-06
3.63325841903e-08
-2.51499095308e-06
3.42368241226e-08
-2.53405135493e-06
3.50951493435e-08
-2.55296550096e-06
3.08329383306e-08
-2.56413213593e-06
1.94229288906e-08
-2.55441179996e-06
-1.57441006589e-09
-2.53234958255e-06
-1.72044389438e-08
-2.51804159681e-06
-1.90919671387e-08
-2.50949087237e-06
-2.04321497673e-08
-2.49943212359e-06
-2.60507078582e-08
-2.48620367974e-06
-3.40429472973e-08
-2.46761915661e-06
-4.48847827665e-08
-2.44346677629e-06
-5.71977918951e-08
-2.41252680709e-06
-7.09102036928e-08
-2.36887446325e-06
-8.72239597463e-08
-2.307971083e-06
-1.0424246932e-07
-2.24125827713e-06
-1.15532921833e-07
-2.18791452066e-06
-1.20004650021e-07
-2.12523230921e-06
-1.44418436703e-07
-2.0376506429e-06
-1.83684589702e-07
-1.9434500415e-06
-2.08898819772e-07
-1.83836327142e-06
-2.2528093003e-07
-1.71341238879e-06
-2.47222352417e-07
-1.57476778188e-06
-2.78440242257e-07
-1.41526320501e-06
-3.18257897193e-07
-1.21173666965e-06
-3.73361567631e-07
-9.79238422724e-07
-4.34332218246e-07
-7.05464329587e-07
-5.58313140092e-07
-4.29349577727e-07
-5.76217925649e-07
-2.14868662159e-07
-4.27511126594e-07
-6.35040661514e-08
-2.92267396449e-07
5.13620286252e-08
-2.24679466018e-07
1.51611209073e-07
-1.97932805293e-07
2.40270505699e-07
-1.76239250185e-07
3.12616128466e-07
-1.46093885944e-07
3.58557145006e-07
-9.82477969101e-08
3.74762345655e-07
-4.15002899995e-08
3.73509347878e-07
3.30972938344e-09
3.63642403949e-07
4.05188637976e-08
3.3559097322e-07
7.09998371408e-08
2.96692639494e-07
8.847655348e-08
2.43038262373e-07
9.47440382089e-08
1.84919595404e-07
1.14190068308e-07
9.94187239822e-08
1.42309114819e-07
1.91339846571e-07
-1.66924361074e-07
5.46697989955e-07
-2.54623319132e-07
4.80132282261e-07
-4.4911390918e-07
5.45684304997e-07
-6.68491675948e-07
5.39767528503e-07
-8.67310819779e-07
5.12463246469e-07
-9.7167844757e-07
3.25142003406e-07
-1.02440759627e-06
1.89349910496e-07
-1.11235256854e-06
2.4276935048e-07
-1.21407310443e-06
2.88356282315e-07
-1.31259284339e-06
2.84027266321e-07
-1.40312633036e-06
2.61921321093e-07
-1.47939009914e-06
2.33688555905e-07
-1.54426818469e-06
2.03892783999e-07
-1.60558726035e-06
1.8172977191e-07
-1.65341072995e-06
1.59089812942e-07
-1.64739189579e-06
1.17288261876e-07
-1.61093160717e-06
8.34770838844e-08
-1.62132548323e-06
9.53543214554e-08
-1.69587136917e-06
1.43300889254e-07
-1.82274978451e-06
2.08168744893e-07
-1.94748043622e-06
2.33747842963e-07
-2.02480075878e-06
2.10267295199e-07
-2.08068024188e-06
1.85627062156e-07
-2.13903741916e-06
1.6977568993e-07
-2.19323074891e-06
1.5439627487e-07
-2.23818660161e-06
1.39681467152e-07
-2.27794037562e-06
1.24920898321e-07
-2.31418704099e-06
1.10326603853e-07
-2.34619427361e-06
9.64920310592e-08
-2.37481748873e-06
8.53615928944e-08
-2.39804487947e-06
7.45034795884e-08
-2.41831150419e-06
6.57299009825e-08
-2.43854153223e-06
5.7505215716e-08
-2.45005622461e-06
4.85702672909e-08
-2.46545903618e-06
5.6300944559e-08
-2.49323573104e-06
6.41726610447e-08
-2.51268151847e-06
5.37379775733e-08
-2.52756838872e-06
5.00342670953e-08
-2.54846817915e-06
5.17775452675e-08
-2.56496573112e-06
3.59650935564e-08
-2.57332906032e-06
6.82580592364e-09
-2.57440604624e-06
-1.60935433409e-08
-2.56743567364e-06
-2.6037986138e-08
-2.55521532782e-06
-3.26309926245e-08
-2.53906599296e-06
-4.21874327176e-08
-2.51819788294e-06
-5.49011926362e-08
-2.49265759059e-06
-7.04241929062e-08
-2.461844589e-06
-8.80130107831e-08
-2.4251009446e-06
-1.07665095205e-07
-2.38281450977e-06
-1.29524794237e-07
-2.33541840783e-06
-1.51662480439e-07
-2.27923727452e-06
-1.71742538441e-07
-2.20485104887e-06
-1.94429335729e-07
-2.11983175341e-06
-2.29481836425e-07
-2.03626178953e-06
-2.67310963564e-07
-1.94446227282e-06
-3.00765603644e-07
-1.83341112199e-06
-3.36416007314e-07
-1.70279044942e-06
-3.77944576539e-07
-1.55329818911e-06
-4.28058055678e-07
-1.38089877681e-06
-4.90800339849e-07
-1.18407641366e-06
-5.70350177155e-07
-9.35986801364e-07
-6.82603071943e-07
-6.63469442494e-07
-8.31006919017e-07
-4.02934207398e-07
-8.36886474087e-07
-1.88287950232e-07
-6.42256175594e-07
-3.83382444052e-08
-4.42290187886e-07
8.35067054106e-08
-3.465932682e-07
1.81959605376e-07
-2.96461257554e-07
2.62147061543e-07
-2.56511715514e-07
3.25685651561e-07
-2.09734410231e-07
3.73921855839e-07
-1.46589032956e-07
4.10624074919e-07
-7.83073611636e-08
4.26319491776e-07
-1.24911513367e-08
4.08659289967e-07
5.80788100431e-08
3.6219023945e-07
1.17372628078e-07
3.02921791591e-07
1.47646380163e-07
2.43606506033e-07
1.53954820811e-07
1.88951860857e-07
1.68742970524e-07
8.43867265067e-08
2.46785148768e-07
2.75670523599e-07
-1.20427571197e-07
6.67571228279e-07
-1.64201878072e-07
5.24289044237e-07
-3.83663661838e-07
7.65655921974e-07
-5.63508070716e-07
7.20110097696e-07
-5.82192305621e-07
5.31513359928e-07
-5.23922256611e-07
2.67062476052e-07
-7.13113725342e-07
3.78797710431e-07
-9.93841362836e-07
5.23859243277e-07
-1.17130612844e-06
4.66173462436e-07
-1.29120856052e-06
4.04241016343e-07
-1.39352147585e-06
3.64517271586e-07
-1.47945200032e-06
3.19884741549e-07
-1.53966630532e-06
2.64356175478e-07
-1.54284993154e-06
1.85139469718e-07
-1.50096839375e-06
1.17403530166e-07
-1.4874444748e-06
1.03928075795e-07
-1.54407195577e-06
1.4025199861e-07
-1.66453364174e-06
2.15958908215e-07
-1.80641228889e-06
2.85328075632e-07
-1.90429810438e-06
3.06203773678e-07
-1.96335924093e-06
2.92954282693e-07
-2.02490754972e-06
2.71952344664e-07
-2.08699112719e-06
2.47841039387e-07
-2.14138015194e-06
2.24285746249e-07
-2.18990692348e-06
2.03038537099e-07
-2.23361029595e-06
1.83492323301e-07
-2.27429393576e-06
1.65708659091e-07
-2.31088729507e-06
1.47017287307e-07
-2.34359472896e-06
1.29294710339e-07
-2.37040799779e-06
1.12265132131e-07
-2.39527830175e-06
9.94612889078e-08
-2.41288111995e-06
8.34154341122e-08
-2.42443056276e-06
6.91322747154e-08
-2.45002024384e-06
7.4231673952e-08
-2.47261601782e-06
7.89655368678e-08
-2.49233545537e-06
8.39535079805e-08
-2.52600062628e-06
8.74612440973e-08
-2.55364389643e-06
7.77301955171e-08
-2.56471010859e-06
6.28941225582e-08
-2.56951500893e-06
4.08137046585e-08
-2.57431839844e-06
1.16688120289e-08
-2.57627801936e-06
-1.41017152736e-08
-2.57131521259e-06
-3.09723255155e-08
-2.55992712074e-06
-4.39975836247e-08
-2.54356730733e-06
-5.8529542128e-08
-2.52245831574e-06
-7.59996895756e-08
-2.49655463037e-06
-9.63216200258e-08
-2.46545205034e-06
-1.19116881928e-07
-2.42875723923e-06
-1.44365776538e-07
-2.38632169191e-06
-1.71974037845e-07
-2.33700538e-06
-2.00997276013e-07
-2.27748867236e-06
-2.3128586852e-07
-2.20567197424e-06
-2.66278935293e-07
-2.12628215401e-06
-3.08915550634e-07
-2.03918056707e-06
-3.54466858435e-07
-1.93847806194e-06
-4.01535437114e-07
-1.82016540321e-06
-4.54809840183e-07
-1.68098798627e-06
-5.17219151292e-07
-1.51721004191e-06
-5.919479217e-07
-1.32405391968e-06
-6.84082039874e-07
-1.0958967388e-06
-7.98635245891e-07
-8.43277549446e-07
-9.35358001573e-07
-6.29420392054e-07
-1.04500331065e-06
-4.12228963006e-07
-1.0542066624e-06
-1.74411998106e-07
-8.80169523984e-07
-3.06386282338e-09
-6.13706165605e-07
1.22861354881e-07
-4.72580877856e-07
2.26774011509e-07
-4.00440494787e-07
3.13849175378e-07
-3.43676632972e-07
3.90195928954e-07
-2.86180381564e-07
4.53929978065e-07
-2.10432657613e-07
4.82965902569e-07
-1.07449628326e-07
4.58293593126e-07
1.20883804654e-08
4.03786649183e-07
1.12500924003e-07
3.42889252417e-07
1.78184379681e-07
2.68654341211e-07
2.21793945047e-07
1.88811981024e-07
2.33727810892e-07
1.28296341436e-07
2.29203466998e-07
6.62738276917e-08
3.08725542574e-07
3.41918625595e-07
-2.72282366928e-08
6.95117841093e-07
-1.45940725664e-07
6.43310129076e-07
-3.24304288278e-07
9.44454852823e-07
-4.59134431639e-07
8.55346925042e-07
-4.43503178187e-07
5.16139824567e-07
-5.49627987025e-07
3.73380034807e-07
-7.83952829819e-07
6.13402936021e-07
-9.62961253369e-07
7.0320374121e-07
-1.11319908617e-06
6.16735962558e-07
-1.24717074034e-06
5.38518997672e-07
-1.36723471138e-06
4.84871932387e-07
-1.43429940266e-06
3.872056574e-07
-1.41909763102e-06
2.49375705803e-07
-1.39678811043e-06
1.6301830025e-07
-1.43952214785e-06
1.60306736835e-07
-1.5400200568e-06
2.04589206381e-07
-1.67258574355e-06
2.72979225976e-07
-1.78695579761e-06
3.30489994727e-07
-1.85273277911e-06
3.51262112763e-07
-1.90072587964e-06
3.54348953251e-07
-1.96128727747e-06
3.53661707819e-07
-2.02550889321e-06
3.3631318497e-07
-2.08492523439e-06
3.07387647152e-07
-2.13783991082e-06
2.7732353913e-07
-2.1852627726e-06
2.50576520346e-07
-2.22976374431e-06
2.28103328201e-07
-2.26899548431e-06
2.05042572536e-07
-2.30623171368e-06
1.84353011664e-07
-2.33700077951e-06
1.60159723365e-07
-2.36363412341e-06
1.38991575336e-07
-2.38069350395e-06
1.16608008383e-07
-2.40266215368e-06
1.05465517493e-07
-2.43629315322e-06
1.02839738563e-07
-2.45680233642e-06
9.48132733209e-08
-2.48349074162e-06
1.05721152356e-07
-2.51771965667e-06
1.1824681998e-07
-2.54224867794e-06
1.12050338027e-07
-2.55909707652e-06
9.46352680182e-08
-2.56888307045e-06
7.27311239575e-08
-2.57443980023e-06
4.64168889303e-08
-2.57891751919e-06
1.61867494003e-08
-2.58068673018e-06
-1.22969647268e-08
-2.57651392982e-06
-3.51155540097e-08
-2.56586745113e-06
-5.46186860071e-08
-2.54968627614e-06
-7.46910524272e-08
-2.52849141366e-06
-9.71793482059e-08
-2.50233305358e-06
-1.22470965504e-07
-2.47092123232e-06
-1.50524807709e-07
-2.43385229492e-06
-1.8143757079e-07
-2.39054477263e-06
-2.15289690831e-07
-2.33956551698e-06
-2.51992044466e-07
-2.27867792235e-06
-2.92195003167e-07
-2.2071381706e-06
-3.3784987303e-07
-2.12638966081e-06
-3.89704757557e-07
-2.03464574351e-06
-4.4626266646e-07
-1.92703084535e-06
-5.09214019834e-07
-1.79879490701e-06
-5.83120190735e-07
-1.64472344477e-06
-6.71374752172e-07
-1.4597349166e-06
-7.77029481615e-07
-1.24193230301e-06
-9.01979567533e-07
-1.00004581468e-06
-1.04062312053e-06
-7.68585532967e-07
-1.16692372503e-06
-5.84936787458e-07
-1.22875772028e-06
-3.68737956092e-07
-1.27050733613e-06
-1.53327268622e-07
-1.09566633901e-06
2.77441412548e-08
-7.94845881726e-07
1.72927940131e-07
-6.17823831664e-07
2.88718754407e-07
-5.16306460174e-07
3.84581844047e-07
-4.39615433203e-07
4.72965122353e-07
-3.74660941295e-07
5.35219742433e-07
-2.72786583993e-07
5.28334679792e-07
-1.00654360429e-07
4.76818703861e-07
6.35261968432e-08
4.13304643046e-07
1.7593858616e-07
3.3504355486e-07
2.56368776153e-07
2.45738224713e-07
3.11029860444e-07
1.77726644325e-07
3.01680306163e-07
1.14827263984e-07
2.9204755996e-07
4.946231216e-08
3.74049118865e-07
3.91345803342e-07
-1.46229254598e-08
7.0992574043e-07
-1.75940860847e-07
8.04897652992e-07
-2.78313599058e-07
1.04719396078e-06
-3.45701551969e-07
9.23044749539e-07
-3.45487308372e-07
5.16106885013e-07
-5.93833404034e-07
6.21952514114e-07
-8.24416974708e-07
8.4429118845e-07
-9.38607371816e-07
8.1769976443e-07
-1.06622415015e-06
7.44660872161e-07
-1.1856528738e-06
6.58250940119e-07
-1.25031996964e-06
5.49813999905e-07
-1.21437416511e-06
3.51472181831e-07
-1.21203443387e-06
2.47209767513e-07
-1.29134684565e-06
2.42492444311e-07
-1.4195518172e-06
2.88675353842e-07
-1.58038278949e-06
3.65590860968e-07
-1.71514429298e-06
4.07913843735e-07
-1.78547301635e-06
4.00986389937e-07
-1.83239485887e-06
3.98344236532e-07
-1.89754560955e-06
4.19654973783e-07
-1.96393030248e-06
4.2019510022e-07
-2.02304946536e-06
3.95572391873e-07
-2.0793073443e-06
3.63777186574e-07
-2.13367677819e-06
3.31815761011e-07
-2.18236390413e-06
2.99380116009e-07
-2.21928907884e-06
2.65137353731e-07
-2.25946140908e-06
2.45319767821e-07
-2.2947735879e-06
2.19765392299e-07
-2.32628526916e-06
1.9176767399e-07
-2.34280269082e-06
1.55600674305e-07
-2.36156513318e-06
1.35457366576e-07
-2.38722185941e-06
1.31202980549e-07
-2.41260051951e-06
1.28293379019e-07
-2.46162615334e-06
1.43910893056e-07
-2.50550018581e-06
1.49665090387e-07
-2.53288016953e-06
1.45693755277e-07
-2.55119447489e-06
1.3042807805e-07
-2.56473214475e-06
1.08231712135e-07
-2.57420897409e-06
8.22620333754e-08
-2.58063959756e-06
5.28958225046e-08
-2.5851842096e-06
2.07742679663e-08
-2.5867075927e-06
-1.07361941518e-08
-2.58289503566e-06
-3.88951309174e-08
-2.57287175723e-06
-6.46136719551e-08
-2.55705727628e-06
-9.04814918308e-08
-2.53592301828e-06
-1.18294551038e-07
-2.50957317965e-06
-1.48806546557e-07
-2.47774998745e-06
-1.82339372571e-07
-2.43996535897e-06
-2.19219131214e-07
-2.39544167552e-06
-2.59817175572e-07
-2.34285752134e-06
-3.04585795954e-07
-2.28066821742e-06
-3.54403036781e-07
-2.20807610488e-06
-4.10468939901e-07
-2.12437157655e-06
-4.73447336038e-07
-2.02636610362e-06
-5.44316345805e-07
-1.90883975689e-06
-6.26797177963e-07
-1.76623853208e-06
-7.25783470079e-07
-1.59333802346e-06
-8.44343659685e-07
-1.38805220964e-06
-9.82386216482e-07
-1.15710086223e-06
-1.13300526662e-06
-9.20888382325e-07
-1.27690983485e-06
-7.064610276e-07
-1.38142806554e-06
-5.15105602933e-07
-1.42020020297e-06
-3.11976618238e-07
-1.47373088086e-06
-1.04140112396e-07
-1.30358043508e-06
6.60354882028e-08
-9.65075901159e-07
2.25828363767e-07
-7.77680547471e-07
3.66055806461e-07
-6.56591919627e-07
4.87250090956e-07
-5.60890752267e-07
5.85711003239e-07
-4.73203121772e-07
6.15042316105e-07
-3.02203734419e-07
5.77962652997e-07
-6.36480768722e-08
5.18958199458e-07
1.22461325386e-07
4.38144702714e-07
2.56681801477e-07
3.38415006136e-07
3.5602938317e-07
2.46388232516e-07
4.02993161114e-07
1.68454696756e-07
3.79565722043e-07
1.02279115762e-07
3.58181978243e-07
4.75152430131e-08
4.28746848951e-07
4.38839663604e-07
-6.89500975218e-08
7.79086334005e-07
-2.5260012525e-07
9.88815843379e-07
-3.42901730234e-07
1.13782569559e-06
-3.10886039499e-07
8.9129545604e-07
-4.13828806549e-07
6.19242182736e-07
-6.78760691678e-07
8.87149425906e-07
-8.09436468259e-07
9.75255406163e-07
-9.09816984686e-07
9.18374044979e-07
-1.00382411751e-06
8.3895781349e-07
-1.12579442007e-06
7.80504815396e-07
-1.12618343887e-06
5.50438855553e-07
-1.11038232043e-06
3.3584570469e-07
-1.1903382316e-06
3.27326588625e-07
-1.30219999304e-06
3.54511015605e-07
-1.46226184458e-06
4.48909880364e-07
-1.61249727165e-06
5.16011104049e-07
-1.69152339697e-06
4.87117399906e-07
-1.74298540821e-06
4.52614717865e-07
-1.8206204311e-06
4.76142015495e-07
-1.89641672333e-06
4.95609824707e-07
-1.95937584684e-06
4.83304381686e-07
-2.01878948923e-06
4.55127653416e-07
-2.07625877911e-06
4.21377753843e-07
-2.12575344085e-06
3.81434466929e-07
-2.16686347751e-06
3.40607280005e-07
-2.20678537985e-06
3.0516885031e-07
-2.2382414781e-06
2.76880835926e-07
-2.27429014283e-06
2.55913455352e-07
-2.29982079409e-06
2.17393907198e-07
-2.31833553458e-06
1.74206074864e-07
-2.34827979665e-06
1.65487578823e-07
-2.38347743248e-06
1.66481028433e-07
-2.43040852615e-06
1.75300526014e-07
-2.47520683568e-06
1.88783660299e-07
-2.51689496646e-06
1.91426496392e-07
-2.5422655279e-06
1.71134662104e-07
-2.5585323962e-06
1.46760941085e-07
-2.57118267795e-06
1.20943430159e-07
-2.58109022424e-06
9.22257749881e-08
-2.58829170446e-06
6.01483486139e-08
-2.59301880421e-06
2.55470800453e-08
-2.59440608572e-06
-9.30781916113e-09
-2.59078591617e-06
-4.24787169394e-08
-2.58123612244e-06
-7.41308051e-08
-2.56580807589e-06
-1.05881087108e-07
-2.54478653501e-06
-1.39291648182e-07
-2.51821446432e-06
-1.75358813486e-07
-2.48580868671e-06
-2.14730348155e-07
-2.44703851042e-06
-2.57980783905e-07
-2.40110570839e-06
-3.05747270806e-07
-2.34686083552e-06
-3.5883764673e-07
-2.28295048247e-06
-4.18327249823e-07
-2.20794855638e-06
-4.85497375401e-07
-2.11949075091e-06
-5.61940372388e-07
-2.01317152352e-06
-6.50679815703e-07
-1.88328885262e-06
-7.56727252608e-07
-1.7246188895e-06
-8.84504627374e-07
-1.53474924242e-06
-1.0342669366e-06
-1.31849685739e-06
-1.19869589146e-06
-1.08994814363e-06
-1.36161296019e-06
-8.71149719272e-07
-1.49577028426e-06
-6.73947498265e-07
-1.57870248162e-06
-4.69895417672e-07
-1.6243322885e-06
-3.03314532725e-07
-1.64038636633e-06
-6.78468158043e-08
-1.53910372712e-06
1.32404777594e-07
-1.16538398626e-06
3.13011016897e-07
-9.58335976255e-07
4.83768982961e-07
-8.27419468821e-07
6.23267239184e-07
-7.00450404848e-07
7.00278437997e-07
-5.50288585492e-07
7.00353933515e-07
-3.02346242458e-07
6.64243094193e-07
-2.76015888478e-08
5.91816083878e-07
1.94823070676e-07
4.79245167507e-07
3.69186659292e-07
3.51539941829e-07
4.83670791071e-07
2.52083870657e-07
5.02394249887e-07
1.57604870597e-07
4.73991967426e-07
8.31092232739e-08
4.32622178899e-07
4.18303769765e-08
4.69984748253e-07
4.8063538228e-07
-1.20897603947e-07
9.00165128054e-07
-2.77396520959e-07
1.1455811821e-06
-3.25037079104e-07
1.18571497321e-06
-2.47951802353e-07
8.14387997762e-07
-4.57643417571e-07
8.29140323648e-07
-6.71877730701e-07
1.10165616472e-06
-7.76432752073e-07
1.08008760928e-06
-8.84178343702e-07
1.02639537979e-06
-9.26039742172e-07
8.81094040598e-07
-9.75075172479e-07
8.29789582609e-07
-9.64431261049e-07
5.39971254233e-07
-1.07517304591e-06
4.46746884938e-07
-1.18020190695e-06
4.32508816448e-07
-1.33043408292e-06
5.04909921514e-07
-1.49256210802e-06
6.11225739687e-07
-1.58288486026e-06
6.06521408499e-07
-1.63714688553e-06
5.41553109336e-07
-1.72497042151e-06
5.40606849838e-07
-1.81680186744e-06
5.68140444236e-07
-1.88755693732e-06
5.66525823309e-07
-1.94796523694e-06
5.43864393613e-07
-2.00603508208e-06
5.13337567621e-07
-2.06641950202e-06
4.8189503179e-07
-2.12366480602e-06
4.38805479507e-07
-2.16079682374e-06
3.77854443371e-07
-2.20324979728e-06
3.47733007334e-07
-2.23708459828e-06
3.10820786853e-07
-2.25150387209e-06
2.70432853231e-07
-2.276210726e-06
2.42194103164e-07
-2.33259119802e-06
2.30676589048e-07
-2.37296147452e-06
2.05944486553e-07
-2.39514831888e-06
1.88748614628e-07
-2.44245876814e-06
2.22689964204e-07
-2.49488867614e-06
2.41291960637e-07
-2.52606312805e-06
2.22677265271e-07
-2.54834325048e-06
1.93487689832e-07
-2.56538956115e-06
1.63875997395e-07
-2.57879851726e-06
1.34416455788e-07
-2.58941279892e-06
1.0289930947e-07
-2.59732325792e-06
6.81130015097e-08
-2.60234751197e-06
3.06207167476e-08
-2.60374658965e-06
-7.8638503561e-09
-2.60031302937e-06
-4.58712371557e-08
-2.59117063371e-06
-8.32358567383e-08
-2.57610240837e-06
-1.20915290475e-07
-2.55516596828e-06
-1.60197851012e-07
-2.52827818354e-06
-2.02220402946e-07
-2.49510488797e-06
-2.47882730928e-07
-2.45511651204e-06
-2.97953805664e-07
-2.40757461061e-06
-3.53283214603e-07
-2.35141593776e-06
-4.14996703477e-07
-2.28514607771e-06
-4.84611319489e-07
-2.20650730606e-06
-5.64158280694e-07
-2.11182122795e-06
-6.56658033204e-07
-1.99585828124e-06
-7.66680697148e-07
-1.85329181408e-06
-8.99327155997e-07
-1.68113365651e-06
-1.05670400314e-06
-1.480756834e-06
-1.23468434993e-06
-1.26112442425e-06
-1.41838723398e-06
-1.03767946237e-06
-1.58511420312e-06
-8.26782184431e-07
-1.70672293145e-06
-6.2783089563e-07
-1.77771110845e-06
-4.44773041125e-07
-1.80745599339e-06
-2.94199535602e-07
-1.7910295119e-06
-8.57552874265e-08
-1.74762667099e-06
2.03564403307e-07
-1.45476060675e-06
4.16893704283e-07
-1.17172090829e-06
5.99742658722e-07
-1.01031150809e-06
7.38462427347e-07
-8.39228265666e-07
8.06521219301e-07
-6.1840373398e-07
8.23762882385e-07
-3.196498859e-07
8.00657111591e-07
-4.55852159981e-09
6.98107990616e-07
2.97307238193e-07
5.35378017583e-07
5.31854016073e-07
3.71580836205e-07
6.47407856672e-07
2.39704619777e-07
6.34213109332e-07
1.33198492745e-07
5.80444150089e-07
5.08262901207e-08
5.14948223097e-07
1.89327545413e-08
5.01811109246e-07
4.99539804743e-07
-1.52658294514e-07
1.05305985046e-06
-2.70594823718e-07
1.2637811115e-06
-2.73062321282e-07
1.18842421719e-06
-3.03544855818e-07
8.45046107506e-07
-5.30095767364e-07
1.05591532643e-06
-6.34434862676e-07
1.20625673582e-06
-7.32960018139e-07
1.17887876872e-06
-8.37911823458e-07
1.13160176578e-06
-8.8776641235e-07
9.31180515924e-07
-9.38886679963e-07
8.81142308675e-07
-9.73198940747e-07
5.74442229575e-07
-1.07345524559e-06
5.47152964238e-07
-1.19651533888e-06
5.55723455798e-07
-1.3607937383e-06
6.69365535604e-07
-1.49768650493e-06
7.48313348694e-07
-1.5645425671e-06
6.73565223152e-07
-1.6271589373e-06
6.04343666356e-07
-1.71689435275e-06
6.30513990886e-07
-1.80276003942e-06
6.54175349432e-07
-1.87585001694e-06
6.3977687047e-07
-1.93912262709e-06
6.07286619859e-07
-1.99226765834e-06
5.66624712102e-07
-2.03956262003e-06
5.29325923138e-07
-2.08937638379e-06
4.88741774391e-07
-2.13405883009e-06
4.22653339369e-07
-2.16617259878e-06
3.79958166894e-07
-2.21023075781e-06
3.54981735177e-07
-2.25698704131e-06
3.17289666989e-07
-2.29670776383e-06
2.82009585403e-07
-2.33021758118e-06
2.64276181756e-07
-2.37080812283e-06
2.46619265622e-07
-2.43537168412e-06
2.533955258e-07
-2.47665450299e-06
2.64055190287e-07
-2.50607857996e-06
2.70797408674e-07
-2.53245452874e-06
2.49132576621e-07
-2.55487649262e-06
2.15985562803e-07
-2.57312657088e-06
1.82197613061e-07
-2.5875892979e-06
1.48946161149e-07
-2.59897273552e-06
1.14345023345e-07
-2.60757144513e-06
7.67694711838e-08
-2.61308097123e-06
3.61836653519e-08
-2.61473318989e-06
-6.16204437979e-09
-2.61157160524e-06
-4.89868174301e-08
-2.60283220714e-06
-9.19321265793e-08
-2.58811084517e-06
-1.35596734147e-07
-2.56720581622e-06
-1.8106584805e-07
-2.53988231913e-06
-2.2951102685e-07
-2.50576195039e-06
-2.81975106127e-07
-2.46434077104e-06
-3.3935498851e-07
-2.41494879102e-06
-4.02661746292e-07
-2.35654874341e-06
-4.73397154771e-07
-2.28735448851e-06
-5.53814091602e-07
-2.20433073751e-06
-6.47200847022e-07
-2.1028850947e-06
-7.58133825517e-07
-1.97765498851e-06
-8.91928652118e-07
-1.8247888853e-06
-1.05222553748e-06
-1.64396638079e-06
-1.23755612509e-06
-1.43641338742e-06
-1.4422986528e-06
-1.21238544833e-06
-1.64246660598e-06
-9.90105413889e-07
-1.80744216247e-06
-7.85954990507e-07
-1.91091937729e-06
-5.88557763732e-07
-1.97516496558e-06
-3.99304309414e-07
-1.99678209674e-06
-2.24331940821e-07
-1.96609024341e-06
-7.89993345789e-08
-1.89304697628e-06
2.03628276497e-07
-1.73746730109e-06
5.34942421995e-07
-1.50308573113e-06
7.2831972303e-07
-1.20373674692e-06
8.63433380151e-07
-9.74384691453e-07
9.44736939793e-07
-6.99760885528e-07
1.0107496764e-06
-3.85723614655e-07
1.00879914503e-06
-2.67289432653e-09
8.50643077161e-07
4.55400430548e-07
6.0214973751e-07
7.80285264963e-07
3.69392609075e-07
8.80106793956e-07
1.86181615759e-07
8.17367286766e-07
6.91952744523e-08
6.97374548259e-07
-6.8646109394e-10
5.84767824404e-07
-1.63761776442e-08
5.17450460205e-07
4.83132123677e-07
-1.71305737407e-07
1.22455597631e-06
-2.83053179327e-07
1.37576471447e-06
-2.52938715931e-07
1.15851051019e-06
-3.57514988201e-07
9.49814654527e-07
-5.49096052708e-07
1.24774346643e-06
-5.99404966538e-07
1.25681647835e-06
-6.83352684866e-07
1.26307373674e-06
-7.39317571097e-07
1.18779955079e-06
-8.2431891228e-07
1.01638062426e-06
-8.44189469446e-07
9.01191955515e-07
-9.43229829327e-07
6.73631286505e-07
-1.06498449149e-06
6.69052634762e-07
-1.1998503482e-06
6.90747808421e-07
-1.350849244e-06
8.20552251757e-07
-1.4441940865e-06
8.4185013125e-07
-1.4989261291e-06
7.28473226304e-07
-1.59617510318e-06
7.0176617244e-07
-1.69606744412e-06
7.30580843271e-07
-1.77941450535e-06
7.37691792596e-07
-1.85659678658e-06
7.17119007988e-07
-1.92946305977e-06
6.80305771988e-07
-1.99270238559e-06
6.30009243688e-07
-2.03315824582e-06
5.69914681247e-07
-2.06596795559e-06
5.21676118824e-07
-2.12488811385e-06
4.81688500385e-07
-2.16474992882e-06
4.19928832146e-07
-2.18045027682e-06
3.70788624413e-07
-2.20888472549e-06
3.45823401817e-07
-2.25885936787e-06
3.32078249487e-07
-2.32325234805e-06
3.28758096518e-07
-2.38374432816e-06
3.07196407883e-07
-2.43358661777e-06
3.0332158303e-07
-2.48519868015e-06
3.1575243158e-07
-2.51667037001e-06
3.02353963347e-07
-2.54076415595e-06
2.73308553494e-07
-2.56287099982e-06
2.38170772601e-07
-2.58210787466e-06
2.01508777457e-07
-2.59768328209e-06
1.64591647419e-07
-2.6098612857e-06
1.26588983339e-07
-2.61908962088e-06
8.60596913305e-08
-2.62517605433e-06
4.23281614344e-08
-2.62732104754e-06
-3.96255755701e-09
-2.62461089891e-06
-5.16452212718e-08
-2.61633388233e-06
-1.00160264372e-07
-2.60198371491e-06
-1.49899930841e-07
-2.58112116631e-06
-2.01884947481e-07
-2.55329402438e-06
-2.57298308956e-07
-2.51806337153e-06
-3.17172381203e-07
-2.47499748952e-06
-3.82393886262e-07
-2.42354002633e-06
-4.54105248635e-07
-2.36267759787e-06
-5.34253266728e-07
-2.29040727442e-06
-6.2609125338e-07
-2.20315285576e-06
-7.34471758527e-07
-2.09585469644e-06
-8.65439376103e-07
-1.96366931243e-06
-1.02412615755e-06
-1.80453462213e-06
-1.21138215601e-06
-1.61921440098e-06
-1.42289638323e-06
-1.40013337797e-06
-1.66143961152e-06
-1.16520117829e-06
-1.87747392964e-06
-9.46692495169e-07
-2.02602520896e-06
-7.65119429556e-07
-2.0925163112e-06
-5.59225947347e-07
-2.18108628524e-06
-3.28530493413e-07
-2.22753323477e-06
-1.0664766228e-07
-2.1880541615e-06
7.30544016752e-08
-2.07284413828e-06
2.73957549239e-07
-1.93845899305e-06
5.60757546871e-07
-1.78996719655e-06
8.29933701222e-07
-1.47296059598e-06
9.72615363968e-07
-1.11710574401e-06
1.10521935212e-06
-8.32413437951e-07
1.27399315401e-06