/*--------------------------------*- C++ -*----------------------------------*\
| =========                 |                                                 |
| \\      /  F ield         | OpenFOAM: The Open Source CFD Toolbox           |
|  \\    /   O peration     | Version:  v1806                                 |
|   \\  /    A nd           | Web:      www.OpenFOAM.com                      |
|    \\/     M anipulation  |                                                 |
\*---------------------------------------------------------------------------*/
FoamFile
{
    version     2.0;
    format      ascii;
    class       volScalarField;
    location    "176";
    object      alphak;
}
// * * * * * * * * * * * * * * * * * * * * * * * * * * * * * * * * * * * * * //

dimensions      [0 0 -1 0 0 0 0];


internalField   nonuniform List<scalar> 
6400
(
0.828531940978
1.23738733645
1.89127877575
2.15302209696
2.42015539452
2.73344044812
3.2973700459
3.9646146806
4.05601267355
4.32919877986
5.43412607695
5.8810846489
6.20036832522
6.66172882616
7.40416396706
8.16212620638
8.69424673545
9.21579517456
9.69872179018
9.89789680249
9.78165999774
9.66851306773
9.81449665809
10.2977288408
10.8765534831
11.3503069283
11.626052508
11.8569707937
12.1903705733
12.635917109
13.1424301008
13.4184833596
13.4093128169
13.3074224228
13.115496326
12.6966124623
12.4639685751
12.7286942583
12.4493338916
11.7958867751
11.5865077262
12.0149829605
12.5031391391
12.7319246049
12.7899781633
12.7182041397
12.5981294155
12.5007966155
12.4266967211
12.3750336851
12.1626711688
11.3013944803
10.5137695084
9.65185290756
9.31527746985
9.79532346446
9.72533111078
8.46288095576
6.93011498948
6.42638679425
5.61541307699
4.70266634383
3.78676144902
5.52310299163
9.60703359062
14.5560869271
17.5516132291
17.2581752031
15.2418571429
13.5345302111
12.5502636431
12.6059375277
13.0167248017
12.8163976442
14.7566559161
14.1609199177
15.9915401976
9.88937214209
12.8718150309
4.81281961658
3.07581530237
2.37663051239
2.90091258409
4.08707184613
3.71625012129
3.26552683174
3.23176099378
3.47217966029
3.86723188397
4.39838401846
5.09060333257
5.78110998716
6.36131831185
6.91482960273
7.45998398703
8.10721548852
8.78389999657
9.49084396485
10.5786398069
10.5481091224
10.1334417157
9.8986822822
9.88239236257
10.2807969928
11.1671761438
11.4876564221
11.6904012785
12.0070709804
12.3839269065
12.7915368253
13.2272645579
13.7372400378
13.7382994536
13.6680616253
13.5866520272
12.894251572
12.8396860217
13.1033815365
12.6413127626
11.6062055235
11.3093346454
13.7543667768
15.1703072827
15.2246522702
15.1503236644
14.7705036737
14.2206545071
13.800775686
13.1548551654
12.6347261449
12.6362771142
13.3129089516
13.1899605792
9.87344599202
9.85444680216
9.60657930936
7.92830127103
6.79006627385
5.88908174749
5.006631142
4.33708167201
5.03495845368
3.97283571178
5.69339504664
9.65147638504
15.4665283204
19.19044223
18.0017645428
15.8204572549
13.8429037466
13.0193905617
13.2932759754
14.2514195281
13.6124523258
13.3957708337
12.8250144301
11.5943523853
9.73859956649
8.17963784008
4.26458255178
3.02468237499
2.55109523551
3.03138125914
3.08041242971
3.29218064995
3.57050428727
3.48078887456
3.42623229118
3.79973168919
4.3846681724
5.06382054353
5.77346488922
6.40953459127
6.97963829353
7.39344040344
7.97377736366
11.2841226797
13.45582454
13.6509741077
12.5530445647
10.0143651325
9.3145202458
10.1180700932
10.581162436
10.925536059
11.4157126914
11.8354594675
12.1598716369
12.5149433962
12.9588618501
13.3155149839
14.0278739797
14.1083004465
13.5005753156
14.3030785925
13.6496372244
12.6660827815
13.5711075365
13.0139530026
11.8752024024
11.5328016258
12.0466880862
12.6172776595
12.8862677428
12.9658805345
12.9354357256
12.827109231
12.6601858433
12.4340822126
12.172689362
11.8770104787
11.4631057817
10.8697439294
10.5590341483
10.4335398872
9.10858826874
7.81864109167
6.83640100323
5.99462162577
5.25893891688
4.7321028961
4.20175341672
3.91473424496
6.40601963785
11.5983527238
16.3008559151
18.6132857633
18.7260559992
17.1087731112
15.3749316576
14.5862437049
14.3899638038
13.6599182615
13.0041069585
12.9114730865
12.5107125676
11.4895952155
9.8511449371
7.41370378706
7.58897685221
2.77860713526
5.29272879167
3.10431844334
3.03054072825
3.64569371152
11.6723359794
9.97508057289
4.28944976885
3.82669224965
4.41876005347
5.08721497518
5.79896931083
6.41421006449
7.09741155544
9.17779816541
11.5556544009
13.2039321958
13.263611001
11.318872072
9.44313429606
9.39127460265
9.59574372818
9.89194084266
10.4156680849
11.0177470407
11.5886908178
12.0713989584
12.3366334442
12.78919714
13.0397424652
13.8003011021
13.9355174182
14.7526710662
14.3812895858
13.2872663556
13.9383227909
13.1001489822
12.1563621694
11.9656117032
11.8761905667
11.9130108937
12.2367118377
12.6367933502
12.8964048271
13.0085404135
13.0070660997
12.9185240576
12.7629395676
12.5495099471
12.2893271869
11.9797847978
11.599466374
11.1467369753
10.6713463217
10.0303954892
9.05412974597
7.94685739877
6.97854308833
6.19815089406
5.59065560691
5.1510904162
4.83773385318
4.97979747989
6.92384661006
10.7715888431
16.5618310356
20.1499287051
20.3467645977
18.6634258947
16.2856340676
14.6188874899
13.743245097
13.8239083262
15.1328073874
15.0092203441
13.6405092672
13.4544490443
16.7108513059
13.1122362522
11.12863504
5.22276276035
7.26771240638
3.51095054497
3.83439373097
6.08423587703
11.5497965624
7.61125465698
4.36125976687
4.30061370219
4.63788076232
5.24210591939
5.99360487797
7.5047220553
10.2469475205
11.2018227742
11.3166554157
10.7861441856
9.75342148429
9.13368693902
9.51126753788
9.54356219005
9.53392887775
9.94136645682
10.5219903231
11.1753816759
11.8207684453
12.2027961765
12.7958586136
12.8918227597
13.7292577562
13.7320842714
15.3382489437
14.5582214423
13.5608874782
13.8432407104
12.6835273243
12.2373907749
12.0701887426
12.041165505
12.066088603
12.1561968902
12.3914765027
12.6945493061
12.9335784015
13.0625773049
13.0824653703
13.011320055
12.869669866
12.6723485507
12.4275042091
12.1315825497
11.7758690881
11.3553878655
10.8449468675
10.1322457176
9.16385735712
8.11993158071
7.2195512531
6.541833902
6.07324992402
5.78982649154
5.73692724095
6.25333192856
7.41623327666
10.5546351698
15.9403133531
20.1547364448
21.5484577551
20.3453890394
17.5549963882
15.0418054286
14.650032324
16.8059319891
17.6099171439
16.5172627575
15.5500714917
18.1427856562
21.1224004858
16.4280469713
15.5329444398
9.5775145224
8.68086770753
4.34228435041
5.20041020295
11.801538894
11.2062400665
5.34994537669
4.77925715153
4.82713032963
4.96213052007
5.58361205699
8.66670623084
12.2362453462
12.4915177284
11.846025375
10.266379239
9.03652740691
8.72480514293
9.61504130519
9.54217900534
9.27777578061
9.55896677771
10.089768085
10.7564683856
11.2854699895
11.9604504227
12.9428048075
12.8251548876
14.0146938568
13.6129832833
15.740386883
14.8035185598
16.0941815073
14.2799363803
12.5741933973
12.0685249857
12.0502451299
12.1152656854
12.1845871138
12.2519031219
12.36370401
12.5598733039
12.8038117708
13.0183145967
13.1495158838
13.1825433968
13.1253282562
12.9993612129
12.8243800399
12.6071835036
12.3411186427
12.0129932931
11.5993334807
11.0491822067
10.2946307688
9.35833522705
8.40748110541
7.60538783547
7.00508321416
6.64038918789
6.50971404153
6.85532248182
8.25871252555
7.57610161552
11.7759303606
17.5167656248
21.2801114599
22.6882277469
21.7262690991
18.3394686629
16.1473115745
17.9023541572
20.0460214056
19.4657622734
18.4112548045
18.4247438211
22.9081327187
24.453954063
19.4264134435
19.2112534223
11.6276755626
8.20082568563
5.28463045282
5.03160764892
11.6508960435
7.54386119332
5.17266089361
5.24456110589
5.30926520122
6.00813616134
6.30102696526
12.2369251678
12.6656385527
12.5292203235
10.6269909523
8.70055958845
8.32015089774
9.7966816963
9.68798083893
9.04817091104
9.27653295712
9.66476425791
10.1931561222
10.8550835052
11.7729649698
12.7552038334
12.8710931105
14.5271361214
13.8343724994
16.1964163179
15.0551479094
16.4622742346
14.9673141708
13.9188769382
12.0634640939
11.8405688743
12.0468563579
12.2310800185
12.3365739401
12.4261864661
12.5558071139
12.7366399577
12.947737275
13.1412219754
13.2690321389
13.3083247892
13.2633904535
13.1578558392
13.0134786441
12.8336222766
12.6045889843
12.3019664993
11.8871915617
11.310570592
10.548357766
9.666574358
8.81123033976
8.09398432836
7.54227123418
7.1768266737
7.17358549143
7.64425434546
7.96884182958
8.56222573324
12.7068140558
19.7736174897
22.4426376864
22.8722778984
21.7880343085
19.514930699
19.3114174049
21.8637016589
22.2557769506
21.3525245373
20.6977207846
22.5666454372
25.223077189
26.6401517522
22.0064467549
20.8374129549
11.1798363838
7.44083835965
6.30287743343
11.6141432289
11.5911256054
5.88302768296
5.69365621026
5.76161673674
5.99323662757
6.50685891044
12.0711152251
12.9182407493
12.7669516889
12.0114986448
8.94139627525
7.93082278436
9.74420271611
10.0553051374
9.07821368159
8.85795730614
9.33036553417
9.92033267688
10.4308293539
11.1883454998
11.8099867743
13.3119714702
13.0165943775
14.4051948365
16.1232152846
16.1824486421
14.4466752659
15.5112906944
15.3394219219
12.4790388381
11.9199793225
11.9367666551
12.1409620502
12.3504188796
12.4878872298
12.5990013856
12.7427709598
12.924224089
13.1198726468
13.2967867674
13.417871899
13.4601787111
13.4289839659
13.3501453486
13.2445553665
13.1095146181
12.9221470499
12.6456723305
12.2326228064
11.6469960167
10.9041684325
10.0898544037
9.31051336647
8.60597158876
7.96194799772
7.51474362768
7.61139996105
8.18565505462
8.94358583835
9.98040434245
11.0909446254
19.5244130742
23.8889552596
24.0502962288
23.5011295779
22.6424175354
23.6005188752
24.9766380367
24.2401462922
23.4818932
23.5886838647
25.7798858952
26.3414768989
26.86867462
23.9154520821
21.7081911814
10.2122622931
6.96770782499
6.9435363453
12.4985886732
10.1645371894
6.11614406724
6.25725715311
6.42859463129
8.16192928611
6.42164762358
12.8441741827
13.3196965081
12.7336875789
10.3553998568
8.12584157676
8.04259478548
9.88780276918
9.55874665893
8.84117696791
8.88398299555
9.30512823962
10.0652102218
10.7437205628
12.1062864382
13.36061371
13.08041677
15.6147778893
13.9061308683
16.5110099949
14.6966849626
16.6999970604
14.136124003
13.0471992006
12.2354291
12.0242268992
12.0938518393
12.2640943153
12.4686860928
12.6373738129
12.7799176093
12.9388658318
13.123793978
13.3145521026
13.4812638014
13.5937505045
13.638250238
13.6254794978
13.5808063028
13.5208213114
13.4366113663
13.2955905898
13.0489185098
12.6452743779
12.0672265229
11.3603775232
10.6078912571
9.84960029491
9.02194569667
8.08875019536
7.47108451343
7.86737972965
9.09724091636
10.4044037366
11.477249792
12.3738703003
15.6707968824
23.8165375727
25.4896770891
25.6929437009
26.5583308545
27.7715876687
27.4429170967
26.367615417
26.0616339134
26.8907937819
27.9055236229
27.6071014339
26.8936925584
25.7730087081
24.3011597956
9.31407350414
7.07027723101
8.15963975621
12.4753654508
7.45218010555
7.13505522988
6.81739344426
7.06838811829
10.9565102187
9.41026849055
13.6696404948
13.4967752197
12.6840699968
9.24647427556
7.94949021923
9.98896069461
10.1698920868
9.16219878853
8.76399197958
9.07422581684
9.42184526
10.1229412742
10.6471434069
12.2938483688
14.8616428884
12.857653149
15.4788394621
16.5826487285
16.7427922412
16.9975413326
15.0261211447
14.896611012
12.4218107045
12.0613947152
12.1562759871
12.258188859
12.4001281277
12.5880150233
12.7796796312
12.9624646395
13.1485074217
13.3418622268
13.5307487076
13.6914042145
13.7982543651
13.845110019
13.8537466469
13.8510554653
13.8445266182
13.8165343724
13.7265119418
13.515093681
13.1294755014
12.571946596
11.907476895
11.188095951
10.3324948941
9.1164087525
7.64028252131
7.08682846284
8.4192200941
10.4977144054
12.1693131139
13.401879554
14.333335137
14.3899429272
15.5659933272
27.1923138576
30.0587730809
31.3788575525
31.4136598581
30.0061168304
29.0025375698
29.119130607
30.0390368145
30.1328956531
29.6786618366
29.2106462775
29.4147316704
29.5131445707
8.86716060171
7.65155275884
11.9330494086
12.3608305496
7.05722968008
7.80721308338
7.33775418809
8.14439981195
10.0695353292
13.2377005513
14.3348296971
13.6143334702
12.7406951603
8.88347030838
8.00379265396
10.6151280488
10.1377316123
9.01136018878
8.76401414537
9.22585824687
9.91738798428
10.4358147032
10.8369121482
11.8163543901
14.9732542113
16.1409988293
14.5812257514
16.7616283757
14.5218537359
17.0512559657
16.9916504616
14.68913244
12.2417228737
12.152728662
12.3240484641
12.4339159704
12.5575614649
12.7258800755
12.9195665407
13.1405420879
13.3687246873
13.579360711
13.7696410744
13.9269181806
14.0306894156
14.0839462043
14.1185245317
14.1620652062
14.2138144882
14.2471265788
14.2131929047
14.0429034042
13.6849515681
13.1599575494
12.5324208408
11.7674997489
10.514998278
8.42862313797
6.676777994
7.10681329461
9.87205951255
12.6625510319
14.5143897068
15.7476363065
16.4132744037
16.3698623048
15.8372170024
17.6378650564
31.6460179372
37.019475856
35.8359175079
33.4527836575
32.4977965291
32.7288591499
33.1835669219
33.1705864017
33.1669639766
33.429232216
33.8470240639
34.4357344567
8.82712473446
8.34209467617
13.4696680047
12.7405472379
10.417793357
8.91277607946
8.03610384642
9.70813019817
9.11861390058
14.1583003381
14.800453832
13.7796090595
12.5457833514
9.17491418786
8.78179621167
11.1444041531
10.0112679463
8.98036435267
8.86402572712
9.25809982122
10.128065435
10.8588941805
12.9058334531
11.9548488794
14.3174426773
16.5193286107
14.1429313245
17.0857933817
17.5323000283
15.4599899207
15.3960270229
12.9491148457
12.5912876993
12.4727759559
12.5368270761
12.6409089768
12.7513104499
12.9002462371
13.0668982243
13.2963485391
13.5825490175
13.8427970355
14.0394300813
14.1891107848
14.2925072813
14.3583428566
14.4235403489
14.5149865935
14.6257875036
14.7219604192
14.7449152397
14.621700631
14.3103732988
13.830093765
13.1962915022
12.1188351096
9.80386975069
6.95081805855
5.95199452434
8.1723272254
12.4523321287
15.6457636031
17.5188160308
18.8070379472
19.3923287051
19.1562478145
18.4323654582
17.2522662118
27.6529430409
37.9918405588
40.8516489342
38.0693969225
37.1186446832
37.2282806028
37.4082102804
37.2442277866
37.728975113
38.196215141
37.8894940445
37.9793367087
9.16627159383
8.86573811187
13.0338392687
12.9934225905
12.9134432349
9.76871192756
8.8717863053
12.8693230122
9.12770188404
14.9950743971
15.1514233351
13.9628088014
12.3771014113
9.5371035457
12.1554360672
12.2580769241
10.0111108134
9.09000228251
9.09539764105
9.41854872452
10.0935896102
10.7887130609
14.5116659365
15.5584092316
13.4789266626
16.6255040771
17.3808359429
16.4560030328
17.509222658
17.4371988735
16.0296198461
12.8653844473
12.7840051365
12.7919591717
12.7958376188
12.8597423762
12.9378401241
13.1052017001
13.2890922843
13.4781504517
13.7704693249
14.0954499791
14.3378020204
14.4888082598
14.5890659369
14.67172023
14.7726974264
14.9116477494
15.0760720993
15.226326897
15.2994350082
15.2333511335
14.9993865152
14.5592065557
13.7716433022
11.8224826201
8.02759027242
5.0341549228
5.70205207378
10.6540925753
16.1187215049
19.5244921099
21.2749238161
22.8348856299
22.9759899038
21.8706990549
20.4855978759
19.1397755446
23.8252978259
35.1666169918
42.1996228101
43.3417294804
41.4833807212
41.7674971899
41.8404171797
42.0735240384
42.7546778431
43.0334107397
42.7581843387
42.7963484304
9.55991712059
9.38983999009
9.134259522
13.184737771
13.2554654889
10.2360423946
9.65183994185
13.6600635215
9.48439716913
15.8190742046
15.4440853273
14.1524764985
12.339915622
9.66397602316
13.3697993777
12.5412924518
10.1801912644
9.35351927478
9.39122429283
9.76079899285
10.1830922897
10.7115853611
15.1572065065
16.5184753974
13.6755826595
16.7582913073
17.8961373918
15.3060914937
17.1228111805
16.6547930087
13.4939324794
13.2274401393
13.1999553949
13.1330826014
13.0660639594
13.1441660691
13.2030519482
13.2737119227
13.4891687475
13.730210541
14.0017734333
14.3401736955
14.6349300933
14.8183980453
14.9289622888
15.0319276958
15.1691546227
15.3472125565
15.5561067798
15.7478258012
15.8410403107
15.8477773769
15.7377865251
15.3364159373
14.085127295
10.2452093673
4.80699724769
2.59159714165
7.88679840971
15.1928442205
21.1823536501
24.428362531
24.0242226332
22.1841582858
19.2314798125
17.388489816
16.5385428255
15.1163576254
12.0121938942
14.1682576403
41.7367089436
45.2728116789
46.2742759361
45.6378631427
45.3784955781
47.1471094753
47.8091857948
48.0282272995
48.9956903953
49.4345144298
10.1170422428
10.1628383922
13.7514488018
13.6425206768
13.4781810725
10.5962651143
10.5691959159
14.2420777986
10.2893168891
16.4919899727
15.6950598712
14.3428041755
12.3532963197
9.90886154019
13.5224824096
12.4248390541
10.3605916751
9.65766458625
9.68405234482
10.0094758244
10.4122864414
10.8302321806
14.2422301991
17.2742699383
17.3864955217
15.7373441842
18.0532730434
18.6432202346
14.8223098606
13.7816506324
13.3102085783
13.3858123321
13.4284315684
13.4108789512
13.4153189338
13.4154686537
13.4658338775
13.5660386224
13.6839513423
13.955967181
14.2786439734
14.6222916988
14.9383586449
15.1609388981
15.3111488528
15.4415876351
15.6078656301
15.8409316546
16.0925831167
16.2580657823
16.321505119
16.4199400642
16.4722443578
16.0065842709
13.5827678649
7.22010531039
0
4.59570988643
13.1708400068
21.3482724874
25.0171377643
20.9404217865
13.3958651226
0.0569713732937
0.0445631772205
0.108189146808
0.729280387221
3.41590861751
9.69727264957
14.4512524634
10.615361154
31.3995849959
50.1154984088
50.6527511416
48.2195908085
50.8490156063
52.704495697
55.0681041478
57.3674494395
57.5714947609
10.6023048625
10.777063145
15.2521893562
14.0320522129
13.1919650296
10.9920316577
11.4995039405
14.635608719
14.6425997026
17.2728353934
15.9636220819
14.5903078508
12.3912553566
10.3083726647
13.6736145073
12.2688207278
10.5694169334
9.97954971455
9.95337308218
10.2127418258
10.6079958621
11.1560747555
13.4187905254
17.4983440409
18.7823243729
14.8567615241
17.6297419465
18.466305386
17.666677852
14.5656940387
13.4815866454
13.5830553287
13.7306926572
13.8126107928
13.665475295
13.7007730444
13.7085384379
13.8263498152
13.9556422572
14.1928573882
14.5574608438
14.9423727677
15.2554131911
15.4874623689
15.7024120253
15.9614213415
16.2286845582
16.4960787452
16.6463004101
16.7285467052
16.8257164516
16.9455659089
17.2182630932
16.7076336209
11.0401849607
0.000661180899303
2.92282450447
10.4670031966
18.2133805421
18.9217596991
0.877292336786
0.00146384633621
0.000103187200047
0
0
0
0
0
0
0
0
1.43515798226e-08
4.84049076233e-06
0.00072403424366
0.420061481618
46.2700047016
58.6963344266
59.8893542965
67.2297338225
65.9757238137
10.9767708731
11.179721029
17.5476151424
14.2624382597
12.541848503
11.3590223928
12.1313754168
14.3426509757
16.1932118447
18.1723563823
16.3605566093
14.9380919892
12.6350975894
11.043670399
14.0374736814
12.286103894
10.8839330455
10.36875016
10.2633636643
10.4494621778
10.7827340014
11.3050930706
13.0406283322
17.3473771549
19.7228047141
18.7031668778
16.8790048425
17.7680449527
17.0041408187
13.7690056422
13.9431381614
14.1129020646
14.3818474841
14.2642606494
14.1349469131
13.975728116
14.0449092837
14.0805643328
14.2381453333
14.4722584867
14.8140746155
15.2464670049
15.6890250273
15.9522787085
16.2221201593
16.6059699697
17.0149408511
17.3157618052
17.4380799941
17.5476581418
17.6789805449
17.7851624544
17.6417881946
16.6132277368
10.289582606
0
5.25651113275
7.53991559921
0.165796994576
0.000454660417967
0
0
0
0
0
0
0
0
0
0
0
0
0
1.84920089621e-07
1.83758324812e-06
4.02838062689e-05
0.00195330606141
10.8471567707
71.5278465476
48.0341472896
11.2494024229
11.4383771352
19.7201290426
14.3843021425
12.234689569
11.7187797631
12.9221027038
13.1205585719
17.148307865
18.7988135171
16.7546739061
15.3004864888
13.1029573937
13.2378998033
14.5365006617
12.5636327785
11.4156724185
10.9883797873
10.6829348336
10.7792373047
11.0162264745
11.4718499435
12.9134530069
17.2105110781
20.0730214966
20.3620278567
15.6692027255
15.8992406416
14.5254472598
13.8596112615
14.1113782733
14.6544502596
14.8668544213
14.7022050255
14.558124974
14.6556557249
14.3994295527
14.4083329397
14.5187014658
14.7112895438
15.1733742654
15.6603941273
16.1116010057
16.33115302
16.7449213803
18.779890533
21.5673394043
22.4435627008
20.6251896317
20.4358363684
20.6728574486
21.0291873824
21.0688106894
19.6869855874
18.7121574093
3.28079254335e-05
0.0331528150825
0.000540962578729
0
0
0
0
0
0
0
0
0
0
0
0
0
0
0
0
0
0
2.85695740944e-06
1.93468436942e-05
0.00356771838005
58.8097405278
11.5230681893
11.6844745337
19.3770020713
13.2642193303
12.1180632702
12.0114967459
13.811553146
12.7051590246
17.9240168151
19.4077791169
17.1491521975
15.6511844571
13.4357949102
15.7883587437
15.2769002898
13.0530394656
12.0477952797
12.1239655736
11.3320826966
11.285136316
11.3589648832
11.6496391664
12.9606576038
17.0580393945
19.9031699311
21.4770003216
19.4694294492
17.9887022248
16.4987355463
14.2235584571
14.4472350138
15.5337627207
15.1026177158
15.081049213
15.5717199556
15.1080910965
14.8755955228
14.858260889
14.959145376
15.1284542512
15.3889315254
15.9525338648
16.6501491468
17.9233468335
19.8394624353
22.4951588614
24.4538956453
24.4162358057
24.7196118015
26.2889945314
28.5395488731
31.894295599
33.4334299693
31.5767896158
27.2516524934
21.6520668727
0
0
0
0
0
0
0
0
0
0
0
0
0
0
0
0
0
0
0
0
0
0
8.79081189243e-06
98.5766606134
11.9063589432
12.0581023356
18.7949286929
12.4515914168
12.223056316
12.2274567661
14.5326374447
12.9292246535
18.5287047814
20.0014267406
17.5524234554
16.0286664326
13.7294694195
16.3572739236
15.9429498793
13.6157010732
12.6590540382
12.9106517887
12.1347496201
12.0253564129
11.9418532887
11.8198111778
13.1919158229
17.0219184546
19.5858899699
21.8377100024
20.7290225914
18.1324632769
14.6708171095
14.7681678869
15.1516888721
16.1873916339
16.4427164702
16.4705934555
16.3706080925
15.6072709948
15.392323612
15.4208457743
15.499109019
15.6829839749
15.9151856601
16.5598546869
17.8786687605
20.4462919197
22.1129882487
22.3702779974
23.47443888
24.5546834931
28.4971470734
33.1307932944
39.8430447932
44.1481931737
45.0618617526
43.5372706335
9.44300098021
0.22863321835
0.000767444106943
0
0
0
0
0
0
0
0
0
0
0
0
0
0
0
0
0
0
0
0
0
1.47732550455e-06
1.95463657836e-06
12.5597206704
12.7166120028
18.1217166461
12.4124524541
12.6768570023
12.5573890669
14.1348974219
13.5815870579
18.869988023
20.5459539562
17.9955292462
16.4667682971
14.1790206071
16.8999811395
16.569610467
14.3273047923
13.3675298116
13.6985168845
12.8947137169
12.9216366779
12.8721871155
12.1831745378
13.6521928462
17.1426003221
19.4283674606
21.9304680588
21.1523143234
18.3658598207
14.8186126417
14.8812718343
16.0155151253
15.8218271534
15.8314133561
16.2412212911
17.336793894
16.5759763392
16.2860215854
16.0046644884
16.0254808964
16.335145345
16.710633558
17.3998339067
20.3709217696
23.1484110603
23.1393393814
23.2982382202
25.0187612253
30.3242815284
37.1536490544
43.2249828446
47.8223818199
43.934446422
24.5554003993
0.0129476524328
8.12395753728e-05
0.000164666035604
2.52865585257e-05
0
0
0
0
0
0
0
0
0
0
0
0
0
0
0
0
0
0
0
0
0
1.0919346372e-07
4.95815433508e-07
13.6130263245
13.6954075683
18.0333956451
13.1743881839
13.8322712255
13.2729809466
14.0329373163
15.0433489643
18.5572466891
20.8671954874
18.5137818508
16.9908080763
14.7595159999
17.5196763294
17.2303512153
15.238980279
14.3158980218
14.6848558512
13.652024064
13.9396407407
14.1977312229
12.8591985768
14.117426639
17.4066667239
19.4447618998
21.6870238859
21.3132248562
18.6514268179
17.6481862454
15.8251176953
16.5246487924
17.2095175484
18.1694979379
16.6730311068
16.9677684925
17.7411151603
17.1475360391
17.143818385
16.9281497057
16.9997200469
17.4766093834
20.1109669214
24.3383612612
25.2311008402
24.5948499865
26.2322370192
32.7086271512
41.4583606834
47.4411861349
46.3698019173
36.5213951392
0.134984504621
0.000923608478508
0
0
0
0
0
0
0
0
0
0
0
0
0
0
0
0
0
0
0
0
0
0
0
0
0
0
0
15.1701555867
14.9018465632
18.4584747063
15.1545580562
15.93071198
14.4194592864
14.7380571323
17.2454053329
18.4395952088
21.3053491429
19.177040296
17.617539783
15.4554410795
18.1721333594
17.8851298317
16.2700250107
15.8876180841
16.0376552345
14.4900991989
15.1022089675
15.8901498921
13.9586599607
14.3719601268
17.720427947
19.6296849232
21.4114529129
21.4648155065
18.5408410865
18.8302120093
17.5640328454
17.8024841333
16.1881356146
16.9094686702
18.336653023
17.8438038845
18.0476268144
18.0513875248
17.9587716967
18.0930295422
18.0951759891
19.7604916652
24.8547158091
27.7171710062
27.6718495015
28.3296827924
33.3848306279
42.690771391
48.4452211872
37.8341381573
19.1897166433
0.225563082834
0.00103282459626
0
0
0
0
0
0
0
0
0
0
0
0
0
0
0
0
0
0
0
0
0
0
0
0
0
0
0
0
16.868085085
16.0152023533
18.9852809877
17.9650406661
17.5996829049
15.8223845328
15.5414232881
18.3007668458
16.9114362069
21.5895662041
19.9737278338
18.3404542641
16.2606521517
18.8417009203
18.490252521
17.1073780049
18.3355832769
17.6949200118
15.4636282679
16.4734547664
17.2658209677
15.4285320267
14.1366101355
17.5844000211
19.7160245959
21.1580462172
21.4528360474
18.4951603297
19.0216878871
18.8826356047
18.9237951751
16.8179339403
17.4001594829
17.6413657349
18.7705345338
19.2799438913
19.2410820189
19.0304393548
19.0112155771
20.0186151696
24.8014336653
29.5657851981
31.2525871414
31.8511574914
34.6239675458
41.1615554835
43.8964952003
27.8331152626
22.3303942225
0.502951038412
0.00176143156423
0
0
0
0
0
0
0
0
0
0
0
0
0
0
0
0
0
0
0
0
0
0
0
0
0
0
0
0
0
17.5742638675
16.7894002298
19.2638516308
18.8671444605
18.5215914948
17.1946310342
16.6167137006
19.6338884422
17.8006813731
22.0055934993
20.774379386
19.1170755185
17.1661628823
19.5485250352
19.1270724029
17.8187044081
19.1976275618
18.6590987228
16.4407255717
17.880247065
17.8404203988
15.9784327665
15.2946111489
15.4657337968
19.1719725785
20.5674430453
21.1533454873
18.4044713317
18.9711208518
19.2681966179
19.7539693689
19.0798843186
17.0282822035
17.4316603206
18.8547571671
20.0807807572
20.5465159385
20.7133987309
20.6936917317
24.6067023851
30.3415503834
33.882617531
35.034973739
36.3109728218
39.8193858688
38.1888458635
23.266415689
24.7999455062
1.65325945443
0.00470856851703
0
0
0
0
0
0
0
0
0
0
0
0
0
0
0
0
0
0
0
0
0
0
0
0
0
0
0
0
0
0
17.460096665
17.3166598071
19.4452291602
18.9283971209
19.1182900609
18.2792859514
17.5716833856
20.9350164996
19.5169424906
22.5699749977
21.6296078475
19.929383391
18.1623069579
20.3058184102
19.8427608873
18.6978212099
19.8798655588
19.5046539216
17.5254756981
18.805148771
16.8413476397
16.5662284771
16.2417775672
16.6672013661
17.6279157478
18.4077916043
20.2145644539
18.2747551798
18.168577361
19.1427047132
20.0778264948
20.3962193762
18.6907407296
18.1007551508
18.619211062
19.760042549
21.1735609706
22.4445026641
24.1236278768
29.9611040494
35.0021975121
37.4975749862
37.8092515854
37.9608748603
32.7948673823
24.8822185202
25.3363885412
5.74268882305
0.0128641601678
0
0
0
0
0
0
0
0
0
0
0
0
0
0
0
0
0
0
0
0
0
0
0
0
0
0
0
0
0
0
0
17.6095649073
17.7034507005
19.6504841836
17.4907076637
19.3225425925
18.8388059912
18.2108865308
21.3984371245
20.2310578525
23.190333263
22.5514979587
20.7583477815
19.2640724713
21.1013482805
20.6091337493
19.7234259773
20.5966093637
20.4640287426
18.7273677815
20.1133181051
18.1289747534
18.3765578286
17.4457318238
17.8730207889
19.7143477195
20.2995980917
19.7938938558
18.1122664934
17.4105445042
19.0471741287
20.0422096258
20.5176409458
20.4315220555
19.127589797
20.5215265357
20.5101228792
21.7274101196
24.1880458934
28.4642605997
34.7819020582
38.8031493213
39.9632882804
37.5040274999
29.6500899137
27.1256023812
27.4015851657
22.8947810098
0.109703267016
0
0
0
0
0
0
0
0
0
0
0
0
0
0
0
0
0
0
0
0
0
0
0
0
0
0
0
0
0
0
0
0
18.280569744
18.3561156425
19.8188147695
17.8378489419
19.4762619548
19.090994459
18.663438246
21.4330294324
20.7537317911
23.6284665642
23.4932112497
21.556749131
20.4716167647
21.8972820879
21.3570239131
20.7316021151
21.2697462094
21.5246435018
19.9860428303
21.4008541878
19.9091486954
20.6167728708
20.2429823378
18.5382524533
20.1634830113
21.2767136355
21.373823265
17.9917421396
16.5173999351
18.9296340506
20.1471764547
19.6845836307
19.7110739533
19.3425013317
20.4001638501
20.8576808908
22.4531899452
26.0756554705
32.7450977964
39.2529351608
42.0396760464
40.6278426242
30.7050755077
27.814357291
28.6724416495
26.2792938181
0.764455491972
0.00309988401586
0
0
0
0
0
0
0
0
0
0
0
0
0
0
0
0
0
0
0
0
0
0
0
0
0
0
0
0
0
0
0
0
19.1417599503
20.5555472396
20.1049204607
18.8455873442
19.9416731384
19.4003603475
19.1040773069
21.4514017302
21.2551447662
23.6808554695
24.4458187126
22.2987002302
21.5472908518
22.4990477097
22.0926792644
21.4541496011
21.2475214481
22.509423934
21.3747534253
22.5119439585
22.0320192916
21.8083341146
21.5148527351
21.0439605457
19.989712988
20.9217441709
22.2992778333
16.9642104797
15.9739339744
17.979133355
20.11556132
20.4468455622
20.9534807622
19.2886695387
20.0781809354
21.077128947
22.8004342616
27.8156961618
36.7464485894
43.3246932623
44.7259005158
36.4567086218
29.7152697587
31.0054449257
30.1607643199
5.18154866972
0.0132245585053
0
0
0
0
0
0
0
0
0
0
0
0
0
0
0
0
0
0
0
0
0
0
0
0
0
0
0
0
0
0
0
0
0
19.7739094344
21.2178248754
20.7439483916
19.7439468083
20.6063441089
19.9299150787
19.6218051623
21.5698606471
21.7652474417
23.4395369328
25.3141366407
23.0670551487
22.1451635097
22.9909064542
22.9598813715
22.1126146151
21.2239452093
23.1933484486
22.8976921663
23.470338011
23.3001529109
23.3514031951
21.5127907119
21.4953576367
20.9192113034
22.7407133978
23.6140711422
19.732161687
15.5151096
16.7856358262
19.4638603952
20.7701648524
20.8226584809
19.902528314
19.5505974281
21.1438164619
22.7172803402
29.1825457933
40.371253267
47.365317468
44.1643583139
30.6281542573
31.5652433902
33.5054598409
28.5719042499
0.152780096064
0.000513427887935
0
0
0
0
0
0
0
0
0
0
0
0
0
0
0
0
0
0
0
0
0
0
0
0
0
0
0
0
0
0
0
0
0
20.2573760284
21.5524034544
21.324835208
20.3516032764
21.2811227751
20.6411609233
20.2318230006
21.8789476955
22.3510595833
22.786064259
25.8946641089
23.9440658216