/*--------------------------------*- C++ -*----------------------------------*\
| =========                 |                                                 |
| \\      /  F ield         | OpenFOAM: The Open Source CFD Toolbox           |
|  \\    /   O peration     | Version:  v1806                                 |
|   \\  /    A nd           | Web:      www.OpenFOAM.com                      |
|    \\/     M anipulation  |                                                 |
\*---------------------------------------------------------------------------*/
FoamFile
{
    version     2.0;
    format      ascii;
    class       volVectorField;
    location    "410";
    object      Ua;
}
// * * * * * * * * * * * * * * * * * * * * * * * * * * * * * * * * * * * * * //

dimensions      [0 1 -1 0 0 0 0];


internalField   nonuniform List<vector> 
6400
(
(5.32605616557e-05 7.38320985413e-05 0)
(0.0001470629926 5.75893166906e-05 0)
(0.000215990011958 4.78413371396e-05 0)
(0.000293927069689 4.37669511364e-05 0)
(0.000350941778005 2.90127710518e-05 0)
(0.000391953628932 1.68576583546e-05 0)
(0.000411960638339 1.22172381073e-05 0)
(0.00042724366678 1.89767246718e-05 0)
(0.000480646341992 2.79898886108e-05 0)
(0.000537018899775 2.75221999284e-05 0)
(0.00055824868507 2.48519836243e-05 0)
(0.000610966290422 2.76464319044e-05 0)
(0.000659240103271 2.64263244568e-05 0)
(0.000699819397629 2.28973907407e-05 0)
(0.000730433995908 2.12092564806e-05 0)
(0.000763559981008 2.3821547654e-05 0)
(0.000806158231748 2.49936821548e-05 0)
(0.000843621434703 2.29595743171e-05 0)
(0.000871752033022 1.9386328486e-05 0)
(0.000897694835342 1.7633292702e-05 0)
(0.000931618576882 2.25271126211e-05 0)
(0.000975447431732 2.83817106866e-05 0)
(0.00102418074542 3.04310234093e-05 0)
(0.0010701268186 3.06860721444e-05 0)
(0.00111478448347 2.94658633777e-05 0)
(0.00115826891135 2.76703005071e-05 0)
(0.00120274550465 2.74754842058e-05 0)
(0.00124561361216 2.68402591972e-05 0)
(0.00128428349029 2.53055300208e-05 0)
(0.00131935345762 2.40779606255e-05 0)
(0.0013507894052 2.43531077023e-05 0)
(0.00138464979183 2.41965512595e-05 0)
(0.00141992399462 2.30642979661e-05 0)
(0.00145250140253 2.39620609269e-05 0)
(0.00148484108206 2.4464790565e-05 0)
(0.00152487376951 2.51849554414e-05 0)
(0.00156442144742 2.69684296788e-05 0)
(0.00158897171011 2.64571990925e-05 0)
(0.00162687480525 2.53382616059e-05 0)
(0.00167458682651 2.65871013574e-05 0)
(0.00171802809514 3.2928662657e-05 0)
(0.0017530808456 3.41534267057e-05 0)
(0.0017853119908 2.55109165859e-05 0)
(0.00181345162624 1.97289024727e-05 0)
(0.0018350275298 1.75838180539e-05 0)
(0.00185294669435 1.52339800116e-05 0)
(0.00186656627843 1.29955432621e-05 0)
(0.00187424852928 9.88912318966e-06 0)
(0.00187654752303 7.24315179496e-06 0)
(0.00187443846819 9.23389679489e-06 0)
(0.00187415505224 1.63161582099e-05 0)
(0.00189267344337 1.60966327785e-05 0)
(0.00188762185964 -3.04667377245e-06 0)
(0.00187307336789 -1.17815365047e-05 0)
(0.00183616613544 -1.88587452229e-05 0)
(0.00174558603392 -3.52334150658e-05 0)
(0.00165220946714 -3.0931444782e-05 0)
(0.00160400777671 -1.82793226066e-05 0)
(0.00158416172807 -2.45315877781e-05 0)
(0.00148015934558 -2.96340941047e-05 0)
(0.00142454540178 -1.21929778199e-05 0)
(0.00135171635474 -2.70046073881e-05 0)
(0.00144173647168 -8.90533990896e-05 0)
(0.00112565659281 -9.08049593235e-05 0)
(0.000909336674404 -6.02165733485e-05 0)
(0.000808957724432 -4.04474965738e-05 0)
(0.000745603383346 -3.80250967794e-05 0)
(0.000694549794472 -3.73736874317e-05 0)
(0.000640387070894 -3.81277783351e-05 0)
(0.000568692508395 -3.97686914459e-05 0)
(0.000493838756322 -3.98181833261e-05 0)
(0.000412630678509 -3.75056276437e-05 0)
(0.000337661926384 -3.54915913451e-05 0)
(0.000284721237679 -3.56271949491e-05 0)
(0.00020480694069 -2.72937950629e-05 0)
(0.000170540902878 -2.29319847926e-05 0)
(0.00010851350476 -1.37732140008e-05 0)
(0.000107706122183 -1.73213406287e-05 0)
(4.53810915338e-05 -1.13967381892e-05 0)
(3.34591117036e-05 -2.06155171579e-05 0)
(2.0033460958e-05 0.000101677671763 0)
(8.64174072989e-05 0.000114948373541 0)
(0.000151161864455 0.000105546152344 0)
(0.000192691506223 8.45706855446e-05 0)
(0.000282311989096 8.38775208915e-05 0)
(0.000367972437557 6.03760116821e-05 0)
(0.00041943585943 3.85176826198e-05 0)
(0.000455449006876 5.14719750562e-05 0)
(0.000494272991242 6.82402403125e-05 0)
(0.000538146936256 6.75005916738e-05 0)
(0.000580672803938 6.42106965573e-05 0)
(0.000620432112582 6.44091387047e-05 0)
(0.000658324336384 5.92428645965e-05 0)
(0.000693801744665 5.18463656875e-05 0)
(0.000730423374309 4.91636089819e-05 0)
(0.00076751523833 5.9418067577e-05 0)
(0.000806015135474 6.37835229018e-05 0)
(0.000838133381917 4.74316402656e-05 0)
(0.000839621677732 3.53644663226e-05 0)
(0.000871073541324 3.68130321242e-05 0)
(0.000914550768657 5.17519246861e-05 0)
(0.000965534683096 7.08968451873e-05 0)
(0.00102410989082 7.61569126343e-05 0)
(0.00107521972035 7.00417321983e-05 0)
(0.00110759784845 6.51974364908e-05 0)
(0.00115743021332 6.39685351733e-05 0)
(0.00120476708338 6.1479327809e-05 0)
(0.00124476053953 5.72562499217e-05 0)
(0.00128181316889 5.29852205625e-05 0)
(0.00131752594228 4.97952592148e-05 0)
(0.00135152601279 4.92476004398e-05 0)
(0.00137703973014 4.78503908338e-05 0)
(0.00141154938313 4.35366147551e-05 0)
(0.00144217006173 4.67588979172e-05 0)
(0.00147022034513 5.14352882501e-05 0)
(0.00152097442679 4.94232683631e-05 0)
(0.00155364297898 5.24416010811e-05 0)
(0.00157934670095 5.60649467223e-05 0)
(0.00162494080275 5.46748972987e-05 0)
(0.00168614906791 5.21956561534e-05 0)
(0.00173280542266 4.56604394749e-05 0)
(0.00168892620758 3.65739098575e-05 0)
(0.00168385858207 3.2187794414e-05 0)
(0.00171721132939 3.07525151272e-05 0)
(0.00174245282034 2.89189290381e-05 0)
(0.00177277026013 2.55997786967e-05 0)
(0.00180432238626 2.00443833069e-05 0)
(0.00182508690001 1.26628576254e-05 0)
(0.00185004729753 4.77486531676e-06 0)
(0.00186513914257 -1.56381718083e-06 0)
(0.00185503497975 -4.064966387e-06 0)
(0.00180451260017 -6.99439025445e-06 0)
(0.0017605986828 -1.29454213597e-05 0)
(0.0018714931457 -3.2727559343e-05 0)
(0.00181564068174 -7.03655561799e-05 0)
(0.00176452421548 -9.44775528437e-05 0)
(0.00178063408139 -8.85747840871e-05 0)
(0.00175094092442 -7.52903517829e-05 0)
(0.00170419037665 -8.76300675808e-05 0)
(0.00166188667348 -0.000106161040144 0)
(0.00164257862761 -0.000122878904751 0)
(0.00132016598091 -0.000132284053626 0)
(0.00142665688748 -0.00024757070201 0)
(0.00112626238175 -0.000265806666259 0)
(0.00092257666614 -0.000202114935223 0)
(0.000769537824841 -0.000138102483447 0)
(0.000685705976767 -0.000102434996121 0)
(0.000663558810708 -9.54449083333e-05 0)
(0.000613636627444 -0.00010345897743 0)
(0.000554949824972 -0.000116210407006 0)
(0.000475886209567 -0.00012085174649 0)
(0.00039281843795 -0.000113886884665 0)
(0.000310987848808 -9.64693483225e-05 0)
(0.000267108531843 -8.91233050521e-05 0)
(0.00021760609254 -7.85189180514e-05 0)
(0.000175722937867 -6.75817366673e-05 0)
(0.000136734105006 -5.45608515766e-05 0)
(0.000103589778772 -5.1247667101e-05 0)
(6.26492203591e-05 -5.08485681408e-05 0)
(2.82327018047e-05 -7.91670438155e-05 0)
(2.9690040572e-05 0.000176399565931 0)
(8.35776820218e-05 0.000192521433684 0)
(0.000128393068882 0.000181602535 7.92011399064e-29)
(0.000222478230799 0.000186715810003 -7.51377710181e-29)
(0.000312098437018 0.000186793130162 -6.77285763259e-29)
(0.000365496650239 0.000151818400964 6.22111200679e-29)
(0.000403002981394 8.47448698342e-05 -6.30211968066e-29)
(0.000440298116244 9.26943995904e-05 6.2105314023e-29)
(0.000481509160711 0.000113039907854 0)
(0.000528186723218 0.000116513818333 0)
(0.000574534561302 0.000111210084997 0)
(0.000615756162614 0.00010445721994 0)
(0.000653390827189 9.612471047e-05 0)
(0.000687772295319 9.10494776349e-05 0)
(0.00072349398588 8.92186737804e-05 0)
(0.00076032800879 8.23304806004e-05 0)
(0.000695295749047 6.27671811909e-05 0)
(0.000680242496321 5.16305876683e-05 0)
(0.000711881269633 6.05198761904e-05 0)
(0.000773885437145 9.02498106523e-05 0)
(0.000902546516139 0.000125347881987 0)
(0.00097938206234 0.00013645973149 0)
(0.00101092518569 0.000129142968603 0)
(0.0010616818219 0.000120296081473 0)
(0.00111473964489 0.000115127245873 0)
(0.00115785729198 0.000111605773971 0)
(0.00119830719717 0.000105235015896 0)
(0.00123838625309 9.82571963791e-05 0)
(0.0012759058005 9.21478092383e-05 0)
(0.00130953469895 8.77105510209e-05 1.26568375777e-28)
(0.00134653680431 8.39290250856e-05 -1.22816532938e-28)
(0.00136551418669 8.05389984982e-05 0)
(0.00139539372946 7.72064386571e-05 0)
(0.0014443396549 7.61192480615e-05 0)
(0.00143909811646 8.62188108236e-05 0)
(0.00148937028434 9.45082980894e-05 0)
(0.00155736767325 9.27110020996e-05 0)
(0.00155790658741 9.70295161104e-05 0)
(0.00161114621516 0.000107390664497 0)
(0.00168109004012 0.000102055109237 0)
(0.0017302131539 7.46756550843e-05 0)
(0.00175966949353 5.38383722699e-05 0)
(0.00178657668362 5.5565036423e-05 0)
(0.00181292947614 5.95324497904e-05 0)
(0.00183482161774 5.81108548718e-05 0)
(0.00185278585061 5.3571007845e-05 0)
(0.00186741149378 4.49363546729e-05 0)
(0.00187875922944 3.41949020471e-05 0)
(0.00188705215312 2.12868857327e-05 0)
(0.00189198149885 4.07024600634e-06 0)
(0.00189357189466 -1.40937794561e-05 0)
(0.00189115838999 -2.25181288659e-05 0)
(0.00188205905429 -1.65358264898e-05 0)
(0.00184644471276 -4.17271178701e-05 0)
(0.00179098583956 -8.59339378518e-05 0)
(0.00179188203641 -0.000103471885414 0)
(0.00177704218697 -0.000106852360165 0)
(0.00173470079512 -0.000115562186118 0)
(0.0016808151152 -0.000133416689257 0)
(0.00162113547009 -0.000165650908356 0)
(0.00153831645124 -0.000232569059593 0)
(0.00144037152869 -0.000306372775379 0)
(0.00137703055007 -0.00046488062975 0)
(0.00104282733996 -0.000458196096283 0)
(0.00079687779679 -0.000311494825599 0)
(0.000722821515294 -0.000221399274677 0)
(0.000680722664493 -0.00017491369852 0)
(0.00062161908839 -0.000157963557296 0)
(0.000563334692567 -0.000169563183342 0)
(0.000497385461053 -0.000187133660081 0)
(0.000420975422692 -0.000189488128825 0)
(0.000351050670049 -0.000173965780685 0)
(0.000302859351849 -0.000155846554437 0)
(0.000258593017317 -0.000143459300556 0)
(0.000208739478138 -0.000130116891432 0)
(0.000161041617932 -0.000112715518884 0)
(0.000119167016816 -9.49907508968e-05 0)
(8.72570421568e-05 -9.24350228982e-05 0)
(5.84669233614e-05 -0.000110107408114 0)
(1.44733124899e-05 -0.000105699384322 0)
(2.8686207019e-05 0.000264094883161 0)
(3.83655280359e-05 0.000176249557866 0)
(0.000104499250219 0.000275060684481 0)
(0.000193898713843 0.000278489582101 0)
(0.000267903132817 0.000237062435872 0)
(0.000151066368405 9.13843225048e-05 0)
(0.000189004685605 9.40819626274e-05 0)
(0.000359510079279 0.000175519187001 0)
(0.000449266347557 0.000187452483941 0)
(0.00050735247151 0.000172573625542 0)
(0.000562046564789 0.000160778239135 0)
(0.000608081931593 0.00014707989498 0)
(0.000647141032689 0.000133818622048 0)
(0.000674774028715 0.000112984138079 0)
(0.000640593019711 8.11288767795e-05 0)
(0.000611148607823 5.91828649585e-05 0)
(0.000618806542986 5.80518139704e-05 0)
(0.000668911112002 8.72302424402e-05 0)
(0.000774686001521 0.000137957440222 0)
(0.000882573118971 0.00018906388139 0)
(0.000924213342743 0.000200029723605 0)
(0.000968026107085 0.0001888128431 0)
(0.00101849278742 0.000178252579938 0)
(0.00106488369882 0.000170170804126 0)
(0.00110795867008 0.000161267277269 0)
(0.00114874314625 0.000152347347441 0)
(0.00118748552587 0.000144244029542 0)
(0.00123045809823 0.000136299142596 0)
(0.0012637414775 0.000128069832742 0)
(0.00130513055384 0.000121710278747 0)
(0.0013259927309 0.000115008713921 0)
(0.00136742581519 0.000108809671506 0)
(0.00137008839626 9.99516108187e-05 0)
(0.00140522299651 0.000105139269689 0)
(0.00147093905497 0.000121453646047 0)
(0.00147457556885 0.000135078091419 0)
(0.00153955230553 0.000142167350858 0)
(0.00161025291458 0.00014834208132 0)
(0.00165175382826 0.000155193430563 0)
(0.00168780436641 0.00014371037225 0)
(0.00172381563982 0.000115963083918 0)
(0.00175635093417 9.24748004711e-05 0)
(0.00178594295847 8.38065608187e-05 0)
(0.00181251013036 8.07799330494e-05 0)
(0.00183467038139 7.57749704217e-05 0)
(0.00185291683181 6.76766836879e-05 -1.17595876392e-28)
(0.00186779955661 5.64161212726e-05 1.18479726286e-28)
(0.00187939652879 4.26119969935e-05 0)
(0.00188768657493 2.62840654035e-05 0)
(0.00189237074902 7.35852262204e-06 0)
(0.00189275367441 -1.17467937494e-05 0)
(0.00188670934374 -2.81826624813e-05 0)
(0.00187112568343 -4.68507906526e-05 0)
(0.00184419204613 -7.8241783133e-05 0)
(0.00181452725717 -0.000107813928246 0)
(0.00178818094168 -0.000126524330017 0)
(0.00175399262788 -0.00014679538502 0)
(0.00170284528808 -0.000171883710759 -2.34748480082e-28)
(0.00163403408676 -0.000206084058781 2.7181657064e-28)
(0.00154518160072 -0.000258854507236 0)
(0.00143068466371 -0.000338160797615 0)
(0.00129776112701 -0.000449629060423 0)
(0.00117844731749 -0.000613284780686 0)
(0.00101687787967 -0.000645585671712 0)
(0.000849563088178 -0.000477690243448 0)
(0.000688201045231 -0.00029676383288 0)
(0.000616086836572 -0.000230996754577 0)
(0.000563696526839 -0.000219732047286 0)
(0.000509877005128 -0.000233520012799 0)
(0.000458938239204 -0.000258188704487 0)
(0.000396317291181 -0.000262894453559 0)
(0.000333156113926 -0.00024260847233 0)
(0.000274158688029 -0.000215682576113 0)
(0.000210859141833 -0.000187790367797 0)
(0.000164023062426 -0.000171784708151 0)
(0.000121981791736 -0.000159348908866 0)
(8.09511251104e-05 -0.000135351838085 0)
(4.46763853939e-05 -0.000101211123434 0)
(3.18051836418e-05 -0.000119659948615 0)
(1.03235668097e-05 -0.000133658498917 0)
(1.23186341096e-06 0.000261295425287 0)
(1.87049242103e-05 0.000214834771173 0)
(9.43734291079e-05 0.000361336411488 0)
(0.00016403780895 0.000334830470846 0)
(0.000172571958883 0.000218167147761 0)
(0.000136248096229 0.000122613649138 0)
(0.000235865193125 0.000202875612837 0)
(0.000366726120705 0.000289587389984 0)
(0.000418628084001 0.000263712142125 0)
(0.000481811349845 0.000234781925861 0)
(0.000540162492486 0.000219072157724 0)
(0.000589321118546 0.000195315188459 0)
(0.00059609657149 0.000144307906861 0)
(0.000547592408606 9.00650168464e-05 0)
(0.00056353522864 7.34306742484e-05 0)
(0.000606695062531 8.53762006182e-05 0)
(0.00068046230356 0.000122766051178 0)
(0.000774197272825 0.00018000655827 0)
(0.000845104475524 0.000224433491969 0)
(0.000870270287699 0.000234271413184 0)
(0.000912907747072 0.000238648482898 0)
(0.000965854467686 0.000238214883478 0)
(0.00101170104201 0.00022794466137 0)
(0.0010559755199 0.000214975884061 0)
(0.00109751869401 0.000202920637989 0)
(0.0011359396742 0.000193190124339 0)
(0.00117995914146 0.000184010278192 0)
(0.00121063645452 0.000173424215928 0)
(0.00125864900756 0.000164577796204 0)
(0.00127596598451 0.000153143029123 0)
(0.00132785341781 0.000145868948416 1.20936353387e-28)
(0.00131372206211 0.000133250884013 -1.13257516648e-28)
(0.00137359814026 0.000135223196941 0)
(0.00142972731536 0.000143808456134 0)
(0.00144086643524 0.000159544998504 0)
(0.00151689255394 0.000186768458552 0)
(0.00156902932959 0.000202832912421 0)
(0.00161351783749 0.000200116734684 0)
(0.00165167736364 0.000190619166635 0)
(0.00168659767746 0.0001746600148 0)
(0.00172160855092 0.000150845413754 0)
(0.00175512727788 0.000128280923932 0)
(0.00178572217258 0.000114222989816 0)
(0.00181263463591 0.000105183657522 0)
(0.00183526914565 9.58584148945e-05 0)
(0.00185405142181 8.42093496197e-05 0)
(0.00186936395078 6.97670047333e-05 0)
(0.00188120935733 5.26206167778e-05 0)
(0.00188931514955 3.2655304096e-05 0)
(0.00189310980102 9.90077468073e-06 0)
(0.0018915832063 -1.45860910005e-05 0)
(0.0018828433669 -4.01535634359e-05 0)
(0.00186491494422 -6.91313170652e-05 0)
(0.00183785601824 -0.000103377620802 0)
(0.00180592233136 -0.000136228675462 0)
(0.00177030118542 -0.000166192459511 0)
(0.00172310638788 -0.000201020614405 0)
(0.00165563099738 -0.000245648231807 0)
(0.0015631628816 -0.000303934579498 0)
(0.00144450396992 -0.000380835420312 0)
(0.0013056506771 -0.000478310993763 0)
(0.00116758739589 -0.000595742060201 0)
(0.00104666632042 -0.000723219824512 0)
(0.000973686676015 -0.000767133168574 0)
(0.000848775301916 -0.000616462695316 0)
(0.000697415393375 -0.000422435011884 0)
(0.000600842319095 -0.00032695684799 0)
(0.000520877529273 -0.000291457600392 0)
(0.000455453944704 -0.000292844543762 0)
(0.00040251914589 -0.000314343603845 0)
(0.00034862353268 -0.000327936936405 0)
(0.000285558346521 -0.000307829976254 0)
(0.000217047791272 -0.000262592702647 0)
(0.000168260175638 -0.000237164645206 0)
(0.000123201704479 -0.000222638563364 0)
(8.13897121471e-05 -0.00020327046407 0)
(4.86410920711e-05 -0.000157635073205 0)
(2.88139075819e-05 -0.00012476338495 0)
(1.60502407522e-05 -0.000144439847636 0)
(3.2046024426e-06 -0.000144125344812 0)
(-1.69312843138e-06 0.000242947820833 0)
(2.34349370086e-05 0.000261165166969 0)
(9.51551294664e-05 0.000410780506092 0)
(0.000132670211624 0.000341958848652 0)
(9.83457035131e-05 0.000169273254919 0)
(0.000136054472808 0.000175178619296 0)
(0.000295811458398 0.000330209294032 0)
(0.000350397850441 0.000348795181079 0)
(0.000395542614991 0.000321410084275 0)
(0.000451127567865 0.000296938282086 0)
(0.000507911088094 0.000261657498851 0)
(0.000473790349552 0.000183369720172 0)
(0.000433681077372 0.000112997614091 0)
(0.000472342934227 0.000101156114377 0)
(0.0005237007687 0.000119459070923 0)
(0.000618654437526 0.000165030417078 0)
(0.000721001982416 0.000217233609169 0)
(0.000791799506988 0.000248232566211 0)
(0.000805343263357 0.000252083163464 0)
(0.000853594249879 0.000271959023338 0)
(0.000911735337539 0.000289600507595 0)
(0.000956502157698 0.000286214702648 0)
(0.000999694857635 0.000273480670811 0)
(0.0010410839731 0.00025899716282 0)
(0.00108742237293 0.000246317235922 0)
(0.00112589093674 0.000231355433902 0)
(0.00114705880201 0.000220031592554 0)
(0.00120769601275 0.00021303651938 0)
(0.00121286315795 0.000195096622926 0)
(0.00128023038256 0.000184009167585 0)
(0.00124686388359 0.000164018248827 0)
(0.00132894209868 0.000170378049425 0)
(0.00130946837748 0.000170698636369 0)
(0.0013941638312 0.000190971477942 0)
(0.00147788223498 0.000221839792513 0)
(0.00153145033845 0.000245860849493 0)
(0.00157384766423 0.000248387157529 0)
(0.00161297853475 0.000239756161303 0)
(0.00164969644268 0.000226202126082 0)
(0.00168524206131 0.000208277852729 0)
(0.00172029453249 0.000185682133478 0)
(0.00175408230579 0.000162985869521 0)
(0.001785240503 0.000144873691877 0)
(0.00181265969876 0.000130494709652 0)
(0.00183600869056 0.000116620936797 0)
(0.00185549800571 0.000101182553866 0)
(0.00187139931727 8.32792401813e-05 0)
(0.00188351126729 6.24841369379e-05 0)
(0.00189124368283 3.83793849987e-05 0)
(0.00189380127906 1.0744408115e-05 0)
(0.00189009396012 -2.0180800208e-05 0)
(0.00187859434566 -5.43212085695e-05 0)
(0.00185806074726 -9.21573855051e-05 0)
(0.00182869005748 -0.000132882765706 0)
(0.00179171788253 -0.000174005108815 0)
(0.00174502910104 -0.000218094922854 0)
(0.00168109389613 -0.000272337733528 0)
(0.001592737389 -0.000341216822507 0)
(0.0014785946349 -0.000425353007054 0)
(0.00134212214421 -0.000520810490037 0)
(0.00119932139452 -0.000622887141591 0)
(0.00107110168926 -0.000719755912866 0)
(0.000909763233572 -0.00076219461628 0)
(0.000936986935579 -0.000886115679761 0)
(0.000758851664452 -0.000709407464403 0)
(0.000632431099903 -0.000512352661211 0)
(0.000556036979021 -0.000419733453038 0)
(0.000473497722552 -0.000369842405141 0)
(0.000398797482398 -0.000353633505303 0)
(0.000347729439932 -0.000378768148511 0)
(0.000294137632374 -0.000397662049353 0)
(0.00022625111475 -0.000354205669692 0)
(0.000172405922761 -0.000310417743703 0)
(0.000126336586239 -0.000290205888265 0)
(7.91239167489e-05 -0.000268557543199 0)
(4.60832129062e-05 -0.000235398739594 0)
(2.42534194176e-05 -0.000172040588034 0)
(1.07670556368e-05 -0.000140335986593 0)
(2.72133408844e-06 -0.000154208784134 0)
(1.91449434664e-08 -0.00014746647354 0)
(7.72137291477e-06 0.000263179849491 0)
(5.47058671353e-05 0.000340754279243 0)
(0.000123888803521 0.000445575358156 0)
(0.000135940016584 0.000415491980557 0)
(9.07055185755e-05 0.000211920602052 0)
(0.000195834109725 0.000309360857187 0)
(0.000303361141083 0.000402971676259 0)
(0.000332054113895 0.000391021048901 0)
(0.000375074335007 0.000365847079091 0)
(0.000404301373757 0.000336813918082 0)
(0.000474349524986 0.000287775761039 -2.88236774134e-28)
(0.000366840723864 0.000149954695775 1.69880939838e-28)
(0.000423551061997 0.000139372328411 0)
(0.000457193442833 0.000152074299129 0)
(0.000540895686479 0.000201465536788 0)
(0.000652940039438 0.000269515454815 0)
(0.000728055237543 0.000293972920524 0)
(0.000727126240498 0.000273459262836 0)
(0.00078048622146 0.000292941738333 0)
(0.000852050497598 0.000329295220892 0)
(0.000896269167015 0.000338606350158 0)
(0.000942038771093 0.000331599904787 0)
(0.0009867530815 0.000318651920057 0)
(0.00102975782713 0.000301903725616 0)
(0.00106346579407 0.00028185809561 0)
(0.00108813415857 0.000262723118091 0)
(0.00114456602324 0.000255891739565 0)
(0.0011380711982 0.000242230228088 0)
(0.00122178838907 0.000231556362072 0)
(0.00117963006115 0.000193787687999 0)
(0.00126882072957 0.00019907938083 0)
(0.00125632359376 0.000204275974892 -1.09563284653e-28)
(0.00134175991183 0.00022453498263 1.14502937239e-28)
(0.00139528486714 0.000259629696485 0)
(0.00148885329325 0.00029258405203 0)
(0.00153451074946 0.000296869838452 0)
(0.00157234893776 0.00028918913616 0)
(0.00160989037917 0.000277130551449 0)
(0.00164739507794 0.000261924546215 0)
(0.00168396687243 0.000243091179228 0)
(0.00171933020642 0.000220595114951 0)
(0.00175336070234 0.000197113538344 0)
(0.00178493136364 0.000175735296874 0)
(0.00181294755559 0.000156749513074 0)
(0.00183708576133 0.000138418815017 0)
(0.00185744722485 0.000118997041279 0)
(0.00187405179409 9.72674626468e-05 0)
(0.00188639432086 7.22987824328e-05 0)
(0.00189361209684 4.33068917971e-05 0)
(0.00189477420674 9.79544719035e-06 0)
(0.00188880299262 -2.83599901927e-05 0)
(0.00187441054957 -7.10621720101e-05 0)
(0.0018505900859 -0.000117934132022 0)
(0.00181687102514 -0.000168185096456 0)
(0.00177217383926 -0.000222313746324 0)
(0.0017124360145 -0.000285004013984 0)
(0.00163097299181 -0.000362234289051 0)
(0.00152406168775 -0.000455056183093 0)
(0.00139609516888 -0.0005576704776 0)
(0.00126086718369 -0.000660038620626 0)
(0.00113253275738 -0.000751654355647 0)
(0.00102060450049 -0.000826500079005 0)
(0.000934306962403 -0.000898588850108 0)
(0.000887983408957 -0.000965285878738 0)
(0.000735894034037 -0.000821910860324 0)
(0.000556358957492 -0.000582845165247 0)
(0.000502667492333 -0.000502697367938 0)
(0.000430831374228 -0.000458502311738 0)
(0.000355311317546 -0.000437184823476 0)
(0.00029468682513 -0.000450835251926 0)
(0.000238107100816 -0.000446165300698 0)
(0.000180947732996 -0.000396557573492 0)
(0.00013251766991 -0.00036759810363 0)
(7.94092961027e-05 -0.000342242444812 0)
(3.56550054488e-05 -0.000308775749949 0)
(1.15654978482e-05 -0.000247884660336 0)
(-1.40986209821e-06 -0.000190108391223 0)
(-1.2044772723e-05 -0.000150200397362 0)
(-1.35076594428e-05 -0.000152876957835 0)
(-4.57665435643e-06 -0.000146566659677 0)
(1.67598494409e-05 0.000305703154213 0)
(7.8034896118e-05 0.000417038410744 0)
(0.000137976125776 0.000460910990013 0)
(8.38159987172e-05 0.000275383633186 0)
(9.38995134481e-05 0.000262874514612 0)
(0.000227782435046 0.000429839530369 0)
(0.000276244940704 0.000444178816545 0)
(0.000316551697945 0.000432213198971 0)
(0.000338524511269 0.000395158635599 0)
(0.000383562299759 0.000367229332681 0)
(0.000310570180461 0.000219387378681 0)
(0.0003558000081 0.000177276686129 0)
(0.000405679254903 0.00018285606771 0)
(0.000449818370333 0.00021461137351 0)
(0.0005730034175 0.000301968507422 0)
(0.000659971483928 0.000345573495773 0)
(0.000652822338958 0.000312189378898 0)
(0.000696256041812 0.000314915967197 0)
(0.000778269769844 0.00035913168813 0)
(0.000835605426566 0.000383864706038 0)
(0.000876623993481 0.000383885613226 0)
(0.000918518421574 0.000375175040881 0)
(0.000967387926501 0.000364998430671 0)
(0.00100921175436 0.000345799332014 0)
(0.00105581624605 0.000317546477663 0)
(0.00106160966578 0.000298335096097 0)
(0.00113027237608 0.000290320675963 0)
(0.00113934475157 0.000269781672411 0)
(0.00113923497874 0.000245545126222 0)
(0.00118114462041 0.000237009366695 0)
(0.00128048343619 0.000247789832199 0)
(0.00127866635108 0.000244897753624 0)
(0.00131317033915 0.000281927422492 0)
(0.00143843226635 0.000337677715707 0)
(0.00148669239909 0.00035268511808 0)
(0.00152869698937 0.000342506883138 0)
(0.00156806303649 0.000328915649976 0)
(0.00160630969578 0.000314897538174 0)
(0.00164473567873 0.000298747648632 0)
(0.00168244248638 0.000279070738784 0)
(0.00171851615738 0.00025590286083 0)
(0.0017528575209 0.000231105125876 0)
(0.00178488637802 0.000206851379485 0)
(0.00181365782012 0.000183837760531 0)
(0.00183874640601 0.000161261272978 -1.13670502529e-28)
(0.00186012676094 0.000137731694607 1.13362367504e-28)
(0.00187752425749 0.000111773815075 0)
(0.00189010990471 8.20060066668e-05 0)
(0.00189679446489 4.73335300099e-05 0)
(0.00189656243642 7.06955885015e-06 0)
(0.0018883146094 -3.90655232407e-05 0)
(0.00187081912062 -9.09817205422e-05 0)
(0.00184295311476 -0.000148334667343 0)
(0.00180333560135 -0.000211337657815 0)
(0.0017492215339 -0.000282463237891 0)
(0.00167590629415 -0.000366639303694 0)
(0.00157911451492 -0.00046682482006 0)
(0.0014603007009 -0.000578814834604 0)
(0.00132959479765 -0.000691480571864 0)
(0.00120067798132 -0.000790759973566 0)
(0.0010822155845 -0.00086458731027 0)
(0.000984911159579 -0.000918041728289 0)
(0.000913019541691 -0.000966953282491 0)
(0.000855541417107 -0.00101900212601 0)
(0.000843041331799 -0.00104661611143 0)
(0.000558748698936 -0.000712075857791 0)
(0.000437858999811 -0.000581610979784 0)
(0.000366876032979 -0.000532712317936 0)
(0.000293657634634 -0.000503731948624 0)
(0.000238886913235 -0.000501981985713 0)
(0.000192742212056 -0.000484074258286 0)
(0.000142912971836 -0.000449803221565 0)
(8.6411751282e-05 -0.000427975346233 0)
(2.92703881121e-05 -0.000393670466145 0)
(-1.0312852959e-05 -0.000339154634624 0)
(-2.88437570772e-05 -0.000261446159913 0)
(-3.94470815977e-05 -0.000203626291964 0)
(-4.26960450725e-05 -0.000156915709881 0)
(-3.52354708843e-05 -0.000141293189348 0)
(-1.29869166085e-05 -0.000133223920816 0)
(2.35735824822e-05 0.000359656600664 0)
(8.86984750936e-05 0.000478460016904 0)
(0.000112767680944 0.000471517860321 0)
(7.86194959534e-05 0.000301064039172 0)
(0.000132383742074 0.000347517446611 0)
(0.000233421371133 0.000486260305331 0)
(0.000249855079244 0.000481956901361 0)
(0.000301381248649 0.000469742981438 0)
(0.000285818697083 0.000390790039666 0)
(0.000374097663553 0.000411458043629 0)
(0.000293216507818 0.000241370263382 0)
(0.000354385905249 0.000224238584987 0)
(0.000393432965815 0.000234722909205 0)
(0.000474599481742 0.000304550857008 0)
(0.000581020509128 0.000391314378019 0)
(0.000635780698146 0.000392209015326 0)
(0.000625762178871 0.000347789963135 0)
(0.000689855720028 0.000377182671855 0)
(0.000760697614743 0.00042067558529 0)
(0.000811053601463 0.000434051117343 0)
(0.000857604285018 0.000429517552377 0)
(0.000894674461601 0.000416625692618 0)
(0.000940041377108 0.000405234965415 0)
(0.000967962847183 0.000382839344095 0)
(0.000989256668825 0.000342466219676 0)
(0.00106316231777 0.000334581212208 0)
(0.00102980439798 0.000312095390893 0)
(0.00115453649849 0.000309453242468 0)
(0.00111444811342 0.000283490389695 0)
(0.00123292465925 0.000298353416159 0)
(0.00119366944491 0.000277823367366 0)
(0.00131485843946 0.000306550313921 0)
(0.00137655475275 0.000358688728824 -1.23114691176e-28)
(0.00143560887839 0.000398746464849 1.25679320678e-28)
(0.00147990213572 0.000399387551014 0)
(0.00152158668104 0.000385637954077 0)
(0.00156278853763 0.000369889036747 0)
(0.00160248759047 0.000354105372067 0)
(0.00164176212006 0.000336794621111 0)
(0.00168037516106 0.000316152316765 0)
(0.00171744136078 0.000291880984607 0)
(0.00175252321102 0.000265395542787 0)
(0.00178519784219 0.000238442271584 0)
(0.0018148718235 0.000211837765757 0)
(0.00184117145077 0.000185246843227 0)
(0.00186377857586 0.000157493094748 0)
(0.00188208517796 0.000126893363175 0)
(0.00189503471745 9.16986717266e-05 0)
(0.00190138103862 5.05618732971e-05 0)
(0.00189995399034 2.68512424953e-06 0)
(0.00188955824948 -5.23410860282e-05 0)
(0.00186889563397 -0.000114645102481 0)
(0.00183653663541 -0.000184489479584 0)
(0.00179021307617 -0.00026326857652 0)
(0.00172616612759 -0.000354203163273 0)
(0.00164033635747 -0.000460419662862 0)
(0.00153210312067 -0.000580092043818 0)
(0.00140826830184 -0.000704750352344 0)
(0.00128088762103 -0.000823423663633 0)
(0.00115604271667 -0.000920064442287 0)
(0.00103787358189 -0.000975010172508 0)
(0.000938589949114 -0.000998867870297 0)
(0.00086836314359 -0.00102423315102 0)
(0.000820437864919 -0.00106000190329 0)
(0.000816199658226 -0.00109852520212 0)
(0.000698328365676 -0.000978136522606 0)
(0.000410857300593 -0.000674601526398 0)
(0.000297622153323 -0.000611518709685 0)
(0.00024042069404 -0.000572827334091 0)
(0.000196892096088 -0.000545095589588 0)
(0.000156872526696 -0.000524204803996 0)
(0.000104271210225 -0.000513232026277 0)
(3.68163384323e-05 -0.000493948448709 0)
(-2.50318460591e-05 -0.000444631137509 0)
(-6.48743341527e-05 -0.000365028274364 0)
(-8.43781524021e-05 -0.000278068781226 0)
(-9.18815909309e-05 -0.000208764171861 0)
(-8.44747984978e-05 -0.000152953207412 0)
(-6.03460378362e-05 -0.000117181123461 0)
(-2.21887102948e-05 -9.85883635003e-05 0)
(2.8883461922e-05 0.00042682986967 0)
(9.84831946898e-05 0.000522999740551 0)
(0.000101440267865 0.000463767739131 0)
(7.8605408047e-05 0.000322731976734 0)
(0.000170457590447 0.000469746258629 0)