/*--------------------------------*- C++ -*----------------------------------*\
| =========                 |                                                 |
| \\      /  F ield         | OpenFOAM: The Open Source CFD Toolbox           |
|  \\    /   O peration     | Version:  v1806                                 |
|   \\  /    A nd           | Web:      www.OpenFOAM.com                      |
|    \\/     M anipulation  |                                                 |
\*---------------------------------------------------------------------------*/
FoamFile
{
    version     2.0;
    format      ascii;
    class       volScalarField;
    location    "686";
    object      alphak;
}
// * * * * * * * * * * * * * * * * * * * * * * * * * * * * * * * * * * * * * //

dimensions      [0 0 -1 0 0 0 0];


internalField   nonuniform List<scalar> 
6400
(
0.89389603508
1.43534087922
2.27905132702
2.8494895946
3.39403954538
3.93812771591
4.62193595993
5.38643170545
5.84722692491
6.54747465136
7.81510801826
8.71719470432
9.47830303839
10.3273451891
11.365132945
12.455367599
13.4389553852
14.3646068199
15.1457398802
15.6182616593
15.8771735536
16.274183275
17.0117577959
18.0671812607
19.2180616108
20.260022946
21.1313712032
21.942214142
22.7930231621
23.6990134494
24.6049960353
25.3209539525
25.7699084534
26.0704092316
26.2656064003
26.3556972865
26.6148987902
27.0924803494
27.2611521591
27.2133185766
27.5326210499
28.3450348883
29.1570135051
29.6122787332
29.7557358803
29.6817013554
29.4566219298
29.1243910524
28.6981696163
28.1979923861
27.5410450184
26.5112130875
25.1320358485
23.4792517314
21.993489012
20.7139026313
18.9761136093
16.5151740867
13.9365666113
11.8093152774
9.64931105903
7.38783497409
5.22891326874
5.30473354306
8.71271258194
13.4375626259
16.3183322256
15.9521406933
13.9198623776
12.3162104459
11.4956325835
11.7822805072
12.4176552676
12.3618366006
14.5140395485
13.9896332811
15.9230291459
9.82200394247
12.8597759061
4.80443024812
3.16007015699
2.53912073037
3.16897861079
4.43761764792
4.40000993946
4.35741167081
4.62084255934
5.10739555413
5.79176551231
6.6583298373
7.69672079584
8.73352728236
9.65499426088
10.538814962
11.441960545
12.4712030502
13.5540799165
14.5869607996
15.6414966438
15.9467548698
16.0225188184
16.3953763993
17.1091416812
18.1521921549
19.4245439559
20.4109241603
21.2529729265
22.1010255996
22.9665913707
23.8427489634
24.7201923191
25.5232706942
25.9666452943
26.2611509308
26.4882257894
26.4940212803
26.7991537371
27.301225228
27.424281696
27.2439674381
27.5343678594
28.8674102145
29.9694735548
30.3325835357
30.4176398304
30.2671504648
29.945500985
29.5462441038
28.9629714349
28.3013088014
27.7108633056
27.1862893237
26.0025730141
23.7028026212
22.3304688939
20.8373865048
18.5545264609
16.1576733627
13.8101028951
11.4856992006
9.33112620026
7.7156494629
5.63384047873
5.8104388879
8.93415611579
14.5169765534
18.1539890945
16.7886048095
14.577619532
12.6484252781
12.0016662933
12.5052592917
13.7077588859
13.1779772444
13.0918066567
12.6209989826
11.4708660945
9.66417151489
8.14440042245
4.2268653108
3.27425325678
2.89538758141
3.41748213632
3.73993122708
4.32665609677
4.79808904185
4.8113296205
5.00508883396
5.69173869566
6.633216177
7.68112920034
8.73758971762
9.70399047026
10.5902608405
11.3485721873
12.2841478194
14.8589887414
16.860508761
17.3494730775
16.8883352871
15.8286312377
16.0793547461
17.2269908609
18.3203514447
19.3546304875
20.4045637499
21.349362838
22.1997239318
23.0449996624
23.916801089
24.7613330578
25.6519631972
26.0908855386
26.1623826045
26.6927742071
26.7156944209
26.7179765158
27.4010954689
27.572822467
27.4563860501
27.7613067161
28.5550026318
29.3445779319
29.8017880641
29.9702396629
29.937863182
29.7466060081
29.4167154461
28.9512635165
28.3717194734
27.6777556238
26.7565073452
25.4815350164
24.1018765716
22.6988079249
20.7348829162
18.4674787729
16.1431515156
13.8257800577
11.583259951
9.53402237907
7.58325055755
6.26165697136
7.25386730064
11.374453638
15.5646053575
17.5978604846
17.6317799448
16.0206534666
14.3640087611
13.7254820732
13.6917553687
13.0748721267
12.531538046
12.5726338622
12.2932302908
11.3620660948
9.76439581056
7.33153993685
7.53053237841
3.32800761294
5.54923167246
3.77542994473
3.92528049776
4.64151430494
11.9204132983
10.3312881958
5.5362524464
5.65651255202
6.62691083378
7.70320555627
8.78045659123
9.72216715031
10.6191406813
12.3016224765
14.3796592149
16.0785376833
16.6006408321
15.7632133203
15.1917254605
15.630128415
16.3206326116
17.2141461803
18.3034563543
19.4370438203
20.5182293336
21.4896759151
22.3201581162
23.1833013925
23.9873805205
24.9522990268
25.6466271093
26.3545160264
26.4161040204
26.2767299907
26.7929359281
26.8872137282
27.0058022828
27.3434696016
27.6532455422
28.0747430522
28.7244077817
29.3894971773
29.8421476837
30.0492607442
30.0530056633
29.8893824002
29.5800298936
29.1342001025
28.5586849474
27.8365705633
26.9065521252
25.7275593429
24.3578304198
22.7527405702
20.7797884642
18.5315824873
16.2080988996
13.9269128882
11.7837982141
9.89519235949
8.4360465503
7.95306622463
8.7717710085
11.0592466902
16.0310782775
19.3417842422
19.4265092105
17.7235709716
15.349586106
13.758478364
13.0095923683
13.2374563965
14.7199061749
14.7059995879
13.4243579933
13.3241417057
16.6480873676
13.0359134092
11.0417495653
5.75916099325
7.63350157114
4.59265506729
4.91246242033
6.69165462157
11.8167438221
8.36824466015
6.04225390229
6.18316930743
6.84634744071
7.84429663244
8.93411596314
10.3650405269
12.6010241986
13.6625839359
14.1416286027
14.3158470676
14.3237756404
14.5860029501
15.2376476044
15.7577270431
16.3749236073
17.3074732097
18.4035468178
19.5506848781
20.6602162549
21.6046450777
22.5509224816
23.2931649407
24.2677892867
24.9950211781
26.2198918409
26.2923637065
26.0849303033
26.3702501127
26.3667159074
26.6519531607
27.0661280738
27.4869512718
27.8862034996
28.3429691542
28.9165361507
29.4982487546
29.9350360574
30.1673519762
30.2032005177
30.0675080294
29.7816618994
29.3572693959
28.7945210835
28.0733615123
27.1552375378
26.0137073801
24.6382164834
22.962448389
20.9403198723
18.6930139724
16.4112515652
14.2403866963
12.314782001
10.799687267
9.92213784883
9.93900109252
10.1807755622
11.5248525174
15.6913455014
19.4871836129
20.7724844668
19.5592713686
16.7662189515
14.2687581392
13.9619592898
16.281916044
17.1915531078
16.1871442325
15.3039117909
18.0049192542
21.0436435084
16.3326340056
15.4452776926
10.0434907776
9.22163705634
5.72505057464
6.24468763309
12.1045846907
11.5950259912
6.86922745242
6.66064564165
6.82278656937
7.20086195498
8.08184076155
10.6540262637
13.8022529129
14.301670648
14.0523244294
13.3280816814
13.1833086048
13.6963480064
14.6985302835
15.2041311583
15.6620799052
16.4471768629
17.4489393657
18.5730258654
19.6545082176
20.7725145773
21.9470883804
22.6551435591
23.772504863
24.3224213532
25.7659823922
26.0247891034
26.8603408062
26.2846463577
25.8539958852
26.1258285448
26.6587811033
27.1957594587
27.6797605168
28.1295210303
28.6064225655
29.1410302414
29.6694864092
30.0884123926
30.3349049656
30.3970656364
30.2884903025
30.0290329205
29.6314658162
29.0933242621
28.3940312744
27.5006742547
26.3780205355
24.9827901406
23.2618627869
21.2323867657
19.0418107269
16.8826930885
14.9191116354
13.3110295373
12.2144340703
11.8229623324
12.2148852441
11.4600193899
13.4999564281
17.7433749381
20.9024975315
22.1098853536
21.1202007061
17.7034285682
15.4635091032
17.2701817985
19.5008561218
18.9968434385
18.0317089521
18.1394075723
22.7660721917
24.3731834562
19.3432679254
19.1469260265
12.1763727562
9.13665694916
6.95763965431
6.52141448912
12.070137821
8.59069563455
7.14470523623
7.27314507636
7.42040320696
8.12893556948
8.66765150243
13.4739366964
14.2242331491
14.3269303097
13.1460475624
12.3771762239
12.8113666161
14.1602777093
14.6532236866
14.9277800848
15.6746049831
16.5575139118
17.562332849
18.683629489
19.9341234739
21.1300529749
21.9740300556
23.3949025784
23.862910398
25.4097537276
25.5348126839
26.6216261245
26.3697657185
26.0691814459
25.706519936
26.0901349653
26.7475890077
27.3649462001
27.8937947096
28.3801918397
28.8765092647
29.3952903265
29.8935124958
30.2987627137
30.5540883983
30.6378514623
30.5563746797
30.3281416472
29.9660346536
29.4655207845
28.8034295295
27.9427789766
26.8367034464
25.4344575032
23.7126734948
21.7387986761
19.6820965447
17.7320252849
16.0338588945
14.6988728183
13.864881449
13.5664014933
13.321089297
13.3308497239
15.3040659905
20.5196881244
22.4534690512
22.5637372962
21.3832912513
19.0350860876
18.6845134832
21.2030878222
21.6239898983
20.8069120634
20.2505603494
22.2828394943
25.0826887683
26.5779792807
21.9734477189
20.8341410474
11.9235566205
8.85685161988
8.12154140441
12.2714692955
12.206640516
7.72459304686
7.81721611889
7.97883678197
8.07674642678
8.66513534446
13.206260362
14.1689412157
14.3180453744
13.9218471129
12.0671175039
12.0023258453
13.5675785681
14.2819639632
14.3112846425
14.8060498198
15.7105006378
16.7221794682
17.7592417734
18.9319023928
20.0316340875
21.4574746526
22.0582377603
23.4150335543
24.9901533761
25.5523199794
25.2604437857
26.1415676586
26.4237263714
25.5996246897
25.7069265347
26.2393818493
26.9029553184
27.5488490057
28.1199881315
28.6430298081
29.1610969291
29.6801456857
30.165461011
30.5631735887
30.8255045456
30.928816822
30.8764500685
30.686077819
30.3697042256
29.9200702256
29.3095672102
28.4941459734
27.4202158503
26.0465126078
24.3875290368
22.5505303
20.7058765619
18.9925075888
17.473261731
16.2317031859
15.441203926
15.1136585075
15.0755474784
15.4135632808
15.4636228387
20.9665910925
24.4549044358
24.1867980628
23.4157721497
22.3127508977
22.9700308047
24.2215065509
23.491668899
22.8240443238
23.0865631011
25.5074686251
26.2381464983
26.8629994221
23.9828153067
21.8416394332
11.2447543612
8.83822261798
8.7986477672
13.2672366861
11.2563335827
8.39413007246
8.5478478072
8.84173265008
9.97339290427
8.80041325306
13.9777910017
14.7068181668
14.370424771
12.7664897818
11.7525490893
12.1396691151
13.6357912268
14.0187042303
14.2065416386
14.825163772
15.711094398
16.7934701542
17.9265180171
19.4791506086
20.7918100079
21.4300093498
23.3331970724
23.3371099434
25.1615980598
25.0720329386
26.2851823188
25.5547483721
25.4137937059
25.5290523312
25.8826699703
26.4427842138
27.0928783534
27.7496191594
28.358905497
28.9226920142
29.4675290266
29.9967553215
30.4820033367
30.8796300203
31.1499410911
31.2734340394
31.2546228885
31.1104126075
30.8509440815
30.4663215802
29.9245259236
29.1758234686
28.1675085393
26.8793363461
25.3639207125
23.7473241474
22.1522089219
20.5931999129
19.0514450301
17.7516902696
17.0675525525
17.0592080759
17.3478211437
17.5410149773
17.399891261
18.5032649348
24.8814030363
26.2871294523
25.9861605153
26.3259955691
27.1053687406
26.5475220456
25.4350013372
25.2489209144
26.3401724121
27.651866923
27.581913594
27.0220205703
26.0294033082
24.6699009404
10.7710374414
9.32210918192
9.95048448552
13.3564197792
9.42008620095
9.41827544472
9.28477810158
9.56006908682
12.5361000167
11.3177179302
14.8130932231
14.9933098191
14.4646900808
12.1458940489
11.8077867417
13.3651492402
13.857663857
13.7894539936
14.1731955483
14.9683549121
15.8368426901
16.8645056138
17.8585753022
19.6227344749
21.7510587218
21.383679032
23.2819826022
24.6307212383
25.3906117303
26.1087206737
25.6394222047
25.7679909509
25.156355965
25.4557075594
26.0520741175
26.6683878895
27.3107322133
27.9700794047
28.6105943541
29.2186617478
29.7993146558
30.3482578496
30.8423815894
31.2468794664
31.529391058
31.6761960735
31.6965665411
31.6080902107
31.4181028852
31.1143651447
30.6630105445
30.01329745
29.1215341417
27.9948705226
26.7141101804
25.3812852943
23.9865341485
22.3674260993
20.6392386447
19.4290840207
19.2014820244
19.7250011283
20.2245002721
20.3069915654
19.9387726321
18.5743303211
18.1076231988
28.2134783077
30.7234661033
31.2926185934
30.7054369255
28.8923055949
27.7625113335
28.0651084891
29.3878984795
29.8953412787
29.7837994757
29.5795769663
29.9734789553
30.1872870741
10.814277441
10.198112714
13.3072952324
13.5697608942
9.59704706777
10.1948962204
10.020478285
10.4752769841
12.1112742462
14.7478778223
15.6681678245
15.2894644644
14.73714379
12.2108024687
11.9761161317
13.8627567491
13.9729906853
13.7766030236
14.196797752
15.0940778233
16.1776508587
17.217581358
18.0296149826
19.2588128479
21.9130908148
23.1664713236
22.9551152485
24.7391331714
24.3868274765
26.1254776434
26.5766782389
25.7373933088
25.1411924468
25.5681203155
26.2500429743
26.9043044791
27.5527860964
28.215915294
28.8781045603
29.5294320659
30.1560541924
30.7359179375
31.247425937
31.6652767294
31.9655633666
32.1420214263
32.209335841
32.1860946074
32.0780763782
31.872897413
31.5388481412
31.0311136976
30.323704769
29.4516089864
28.4937933811
27.442403253
26.0617372381
24.197235702
22.4986558182
21.7980511678
22.3642783428
23.4999324105
24.1609237625
24.1282187406
23.387403412
21.7086972153
19.2408006857
19.4542947289
32.3086308363
37.0616178902
35.1404726399
31.9643473264
30.6877892549
31.2126692219
32.2828029524
32.932303796
33.4922977559
34.1571380888
34.8349728813
35.5440797384
11.2238049666
11.0967057178
14.9660997665
14.330638758
12.5029445968
11.4375295548
10.9864059938
11.9238731174
11.6506775288
15.7196760636
16.3501945386
15.6644805306
14.8730993776
12.8714420576
12.7367326659
14.3161204076
14.0152070994
13.8710698134
14.3110160726
15.1317276466
16.3107432114
17.668333574
19.3763499833
19.3777527088
21.42343653
23.5249647865
22.8711293584
24.9754860992
25.9155879137
25.4002137118
25.7590844602
25.2026951514
25.4230182543
25.8872201337
26.5044410271
27.1629001525
27.8233162778
28.4952842852
29.1690874127
29.8518746694
30.5320622339
31.1609644924
31.6999978005
32.1361006623
32.4608616503
32.6760067275
32.7997281394
32.8509703198
32.8360912264
32.7467112967
32.559216785
32.2460227207
31.8088913609
31.294027434
30.7025930458
29.7806358499
28.2275228508
26.4347562368
25.2543575709
25.4010990674
27.0114940339
29.0007415645
29.9571162698
29.976782472
29.1656367415
27.2289463079
24.0747191122
19.6445541971
27.7532208073
38.1218671107
40.2038867936
36.0760865564
34.5813664735
35.0739439429
36.1099215067
37.0044729688
38.4037151092
39.4130629767
39.456903263
39.7275298456
11.8628747941
11.7696519026
14.7469613183
14.8582683512
14.887943404
12.611442606
12.082617542
14.7345383099
12.0738810189
16.5849642382
16.871968949
16.0484208504
15.0051321881
13.5166633272
15.2386891462
15.3611901036
14.2314540505
14.1028328844
14.5597172995
15.2662969382
16.263923146
17.6594387528
20.6008674644
21.5686061291
20.9411877003
23.5730847325
24.5915533254
24.5657867458
25.8741048855
26.3848887242
26.0729158914
25.2459623334
25.6254507272
26.212720452
26.814044305
27.4552918973
28.1133751619
28.8061065091
29.5077015952
30.2067729536
30.9231022762
31.610603339
32.1981895904
32.6634005962
33.0190800588
33.2829857425
33.4741698432
33.6081699078
33.693542081
33.7319161038
33.7188077551
33.6610926785
33.5933836817
33.5224742047
33.2223694109
32.1307105494
30.8383746164
30.5540394289
30.091236789
31.0370103197
33.2539507868
33.9462888618
33.0643171069
31.8952258972
29.4930512004
26.3522860219
23.0594105611
16.5027921188
15.9601399002
31.127747055
38.5417182598
37.0404885965
32.9202982563
35.2534322832
38.2816837398
41.3541023176
43.9221268639
44.9215587223
44.9854900722
45.2257125749
12.5584703565
12.4945782372
12.1445770923
15.2103866734
15.4524594762
13.4208692717
13.0664897862
15.7501205916
12.770452739
17.4842950543
17.3462214099
16.4466874991
15.2414535518
13.8571239317
16.3883057126
15.9713600818
14.7000332113
14.5139096941
14.9138023328
15.5706322717
16.3406799285
17.5407519545
21.0865984981
22.6354406074
21.2843541575
23.5816502999
25.0945912309
24.1226371403
25.4961083372
25.9797217091
25.2424012746
25.586682468
26.061842195
26.5899495926
27.1565629482
27.7986385605
28.456212512
29.1318029135
29.8641009367
30.6110489901
31.3571827348
32.0871347186
32.730345838
33.2429733224
33.6437387886
33.9689768045
34.2384170644
34.4588307746
34.6443600933
34.8138431915
34.9930696965
35.2551056145
35.6602146265
36.0738164987
35.7611945106
34.2771167743
34.6241137282
30.4223756462
26.2700426756
22.3561798148
10.7373917585
0.00449520480973
1.55692396477e-05
1.58849508145e-06
1.26056490907e-07
3.55075702053e-08
4.17950817885e-07
4.27042530422e-06
4.82389632877e-05
0.000125995718866
0.209225711558
27.2710223731
47.3920179209
46.7204665253
41.8794467818
42.675922775
47.2316401238
50.1362063976
51.7775339797
52.2078883997
13.4335671055
13.5286397686
15.8604256758
15.8823953451
15.9348334033
14.1130028744
14.1246923567
16.6321667561
13.8099497999
18.2712192799
17.8036997876
16.8704623632
15.5604008591
14.2691065866
16.6907791083
16.2115914355
15.1643417763
14.9863373218
15.3096858433
15.8927294088
16.5908031623
17.5456959595
20.5306272037
23.4409486378
23.6338263506
22.9949430085
25.2963541812
26.1755926804
24.4862670732
24.6151658789
25.1851723749
25.8206850459
26.4172426109
26.9767606701
27.5555106254
28.170656322
28.8321027082
29.5265538189
30.2490282994
31.0348262641
31.8373286528
32.6104741098
33.2999294205
33.8663035035
34.3317606821
34.7363080273
35.0953109745
35.4070756258
35.6797663205
35.9538273804
36.3314834359
36.9723250058
37.9307449289
38.7581859883
38.0610235845
34.0854157856
22.8430159492
5.27971312817e-09
5.80713693405e-12
1.08863057835e-13
1.84530343262e-15
5.33892067304e-18
1.51720471324e-20
2.62625264191e-25
2.05426260841e-25
4.9872772272e-25
3.36181916092e-24
1.57465732571e-23
5.81679202134e-23
3.69648042753e-22
2.8942616581e-22
2.51092934649e-20
1.42913834858e-17
1.43658899301e-15
1.09012836903e-13
2.51030221488e-11
4.22562856135e-07
50.988379906
57.2942015317
57.586134688
14.2592857477
14.4517690012
17.4905080145
16.5898653078
16.1014376842
14.8071504469
15.14722603
17.3884162986
17.3628093865
19.2521345753
18.328201076
17.3900588354
15.9678403375
14.8237212469
17.0124003461
16.386249011
15.6056527259
15.4656851033
15.7144959173
16.2132272032
16.8738213111
17.7741714694
20.0409535358
23.6948359607
24.9815598342
22.772920595
24.8067131894
26.2564463559
26.1561978889
25.0239961443
25.2620933876
26.0366750991
26.7726624128
27.4061418284
27.9509556759
28.5732813125
29.2320242975
29.9475125071
30.6928184633
31.4952275108
32.3506549283
33.1849175984
33.9161814136
34.5229097281
35.0642437407
35.5974707318
36.0868688512
36.4697108858
36.7473895392
37.0859723234
37.6855762508
38.7096590533
40.2349133264
41.5057943782
31.7326191407
0.602298847768
2.91963211161e-15
1.18231010825e-17
3.41904944287e-19
4.97750924954e-21
4.04412108048e-24
6.74800357716e-27
4.75669869034e-28
0
0
0
0
0
0
0
0
6.61575669421e-32
2.23135777106e-29
3.33763561472e-27
1.93638929884e-24
2.70466062786e-21
1.46464285587e-16
2.22423698787e-12
1.73410035177e-05
61.8883682403
14.9353320132
15.149621899
19.6204156217
17.1448326613
16.0275980664
15.4208870264
15.8863541188
17.4897704979
18.9527158166
20.3763256102
19.0097189554
18.0458125063
16.6259741862
15.6662512481
17.5398751285
16.7110697418
16.1221440635
15.9919986757
16.1585953409
16.5710583799
17.1589693431
17.9919853621
19.8416428457
23.5661871592
25.9642304379
25.2635148063
24.306773814
25.6243107258
25.9411393909
25.0716884899
25.6977635939
26.4947605808
27.2764951777
27.8868782226
28.4518472912
29.0146482989
29.685648466
30.3998243806
31.1756600771
32.0069199339
32.8949481299
33.7935360523
34.6068486705
35.2558518855
35.8662305894
36.5433337914
37.1813073606
37.6034844157
37.8406802539
38.2144936106
38.9996689643
40.255862355
42.0360918438
32.466010908
1.93341275954e-11
4.22695801368e-18
1.38625818319e-21
5.60545556208e-23
7.6428699161e-25
2.09588264215e-27
0
0
0
0
0
0
0
0
0
0
0
0
0
8.52440174481e-31
8.4708469905e-30
1.85699319717e-28
9.00430322751e-27
5.00029619775e-23
4.16206458102e-14
8.02305129192e-19
15.4620462665
15.6667841667
21.6601830795
17.5734434407
16.1933651457
15.9877783012
16.6939572179
16.9195030017
19.9003839042
21.1830699928
19.6685445052
18.715678307
17.4787656611
17.5203056473
18.2767251533
17.2761416942
16.8322355648
16.7112492669
16.7109041449
17.015506327
17.4971742053
18.2502218877
19.8270413693
23.4168980878
26.3710585279
26.8921956606
24.1821460079
24.6200988924
24.7910071212
25.1814300052
26.0018159393
26.9738449784
27.7638974829
28.4129395273
28.9996026125
29.626131601
30.2057006501
30.9174519058
31.702502656
32.546652448
33.5051663561
34.4816925452
35.3580713707
35.9983214544
36.6250169896
37.8466879129
39.4076738604
39.981791025
39.3576728499
39.5411397692
40.414501085
41.6960244276
31.340729511
2.23683058023e-12
3.37119669771e-17
1.51237184333e-28
1.52827048329e-25
2.49371626384e-27
0
0
0
0
0
0
0
0
0
0
0
0
0
0
0
0
0
0
1.3169933443e-29
8.91846140033e-29
1.64463822434e-26
96.8265659538
15.9164659595
16.0871877715
21.5173414646
17.0651477132
16.4286343842
16.4780225782
17.6082630264
16.9626966786
20.7059755032
21.9313710472
20.2924539548
19.335629193
18.1445691161
19.7028662433
19.2939881352
18.0430980097
17.6487449006
17.7773669176
17.4845064354
17.6286535481
17.9346772386
18.5536685601
19.952541152
23.2564758989
26.2379402984
27.9812858026
26.7682384771
25.8999366018
25.669689829
25.419385925
26.2876640219
27.5783727901
28.2177602011
28.9475371212
29.7684466611
30.2374938176
30.817693819
31.5363743859
32.3415216469
33.1966868694
34.1259417284
35.164523267
36.178931521
37.1713031309
38.2945807045
39.8486315525
41.1394733623
41.2457566457
41.1869062783
41.7526730774
42.9684736275
34.9765398858
1.01722326862e-11
9.28521711728e-17
1.22037695001e-20
1.65750581007e-22
0
0
0
0
0
0
0
0
0
0
0
0
0
0
0
0
0
0
0
0
0
0
4.05236728944e-29
2.94953020933e-18
16.4324927944
16.5794065558
21.1786174538
16.7808227068
16.7420943453
16.8785536344
18.3964740657
17.4516679522
21.4139165916
22.6660355257
20.9107558997
19.9537287468
18.701889723
20.4747677656
20.2363401869
18.8773898434
18.4529728047
18.6825993501
18.4077339168
18.4608334178
18.569758438
18.9121727729
20.2383446575
23.2296537469
25.9559633884
28.2943267089
27.9559082416
26.4654534442
25.2032286791
25.9094396617
26.7806662249
28.0361607486
29.0327225313
29.8914298325
30.6021566971
30.9589552469
31.5143169982
32.2458078699
33.0695205423
33.961795626
34.9073677108
36.0291324943
37.3508937698
38.9017575913
40.0105055634
40.6022717277
41.4423221824
42.0559487703
43.3189256638
45.0376699467
40.8052175847
9.26888213315e-11
1.230730596e-16
2.12233181349e-20
4.35301184403e-23
1.05394790226e-24
3.53774535675e-27
0
0
0
0
0
0
0
0
0
0
0
0
0
0
0
0
0
0
0
0
0
6.81013952268e-30
9.0104366125e-30
17.1879278232
17.3345771114
20.8866361836
17.0914305672
17.3121728426
17.37549417
18.4406353696
18.1868205253
21.9344645108
23.3662512087
21.5614202377
20.6186638939
19.3730042215
21.1749707377
21.0831064423
19.7942112174
19.3115584701
19.5630516186
19.3100040159
19.4371782358
19.4723582408
19.4290293767
20.7174872741
23.4000488717
25.8216140651
28.3736913477
28.5106296439
27.2372887462
25.7228495136
26.1397061667
27.3731354718
28.2200841377
29.1004103583
30.1569735415
31.5201945343
31.9933091433
32.464474611
33.065032208
33.8530028557
34.820901084
35.8787150283
37.1358844536
39.0830554282
40.8270376349
41.2584217218
41.7219946104
43.0645572575
45.9812002686
49.2370837386
44.5422627677
2.64814849228e-11
4.39903959782e-18
1.82042545553e-22
5.96857762807e-26
3.74496237523e-28
7.59073524184e-28
1.16565368348e-28
0
0
0
0
0
0
0
0
0
0
0
0
0
0
0
0
0
0
0
0
0
5.03357398629e-31
2.28559804138e-30
18.3226026229
18.4312941593
21.2108090664
18.0436218579
18.4741947276
18.241389694
18.7837265342
19.4976875694
22.0210025874
23.9011410679
22.2732239096
21.3523982983
20.1485052564
21.9706018864
21.9564355244
20.8683324366
20.3484601888
20.5850627735
20.2207762533
20.5090181534
20.6802754032
20.1673812693
21.2746552579
23.7707656561
25.8847142436
28.2389287312
28.762334008
27.9149602076
27.6748064426
27.0001482355
27.7708342898
28.9917921257
30.4313812893
30.7582746039
31.8072781145
33.0209544999
33.5314958156
34.1935087336
34.8840464685
35.7683593527
36.9654307979
38.9511010965
41.5334102232
42.547293229
42.5975272703
43.9319852979
48.3495785864
55.5832850243
50.5527343694
9.52543533193e-13
6.66478245021e-20
6.22248317679e-25
4.25762811485e-27
0
0
0
0
0
0
0
0
0
0
0
0
0
0
0
0
0
0
0
0
0
0
0
0
0
0
0
19.9022275677
19.7872352905
22.057312403
19.9245358359
20.4184433329
19.5137206075
19.742927335
21.3851566874
22.274125653
24.53977625
23.0978908869
22.16486625
21.0035934324
22.8036616945
22.8256613202
22.049302935
21.8505093519
21.9143340248
21.2252338343
21.6736062587
22.1812800576
21.2116816818
21.7233818139
24.2331561026
26.1530727756
28.1280421648
28.9385130157
28.0996237133
28.8636072949
28.5794127259
28.8228472045
28.7656021899
30.216703707
31.9607337293
32.7697497763
33.7753875153
34.5980735911
35.2938877032
36.1204305636
37.0274003142
38.6445363511
41.6921200961
43.9392624392
44.4576655788
45.2294012098
48.8595169799
56.6980111186
53.8253771453
25.8631499034
5.9477673235e-22
1.03979526552e-24
4.76108994351e-27
0
0
0
0
0
0
0
0
0
0
0
0
0
0
0
0
0
0
0
0
0
0
0
0
0
0
0
0
21.5708559136
21.0631988162
22.9679732598
22.4040203273
22.1326738258
20.9816685877
20.7971626969
22.5308524177
21.593903062
25.0448282177
24.0175420562
23.0480367892
21.9282310072
23.647680399
23.6342490599
23.0404981956
23.9033814661
23.5102004493
22.3501642014
22.9515908167
23.5280998219
22.5436009828
21.9292087986
24.2524284834
26.3487200166
28.0557295156
29.013612425
28.1990757858
29.2740699733
29.8703545952
30.2038222567
29.5570711846
30.4523675917
31.9297382745
33.6956636437
34.9984540969
35.8918381195
36.559611046
37.3676585676
38.6763128553
41.5072076701
44.7918931159
46.5534503812
47.5326398964
49.9570684431
55.2383802682
51.5635894753
29.1570453358
1.60148787397e-21
2.31849158097e-24
8.11980479257e-27
0
0
0
0
0
0
0
0
0
0
0
0
0
0
0
0
0
0
0
0
0
0
0
0
0
0
0
0
0
22.4112017724
21.9585038823
23.5553622474
23.4688925358
23.2126346558
22.3658176434
21.9983781579
23.9116440555
22.6544179037
25.6828626421
24.9480163211
23.9728241009
22.9174266556
24.5186914664
24.4494733465
23.871506865
24.8920707891
24.6380794558
23.4394394117
24.203135348
24.2959992252
23.3882164586
22.9488478027
23.1841553598
25.86077974
27.5722189899
28.811356841
28.1776486516
29.3597962995
30.4363170761
31.3448768077
31.353813494
30.8601127936
32.0148644113
33.951546572
35.884904591
37.2991039216
38.2229503181
39.0286595396
41.4010320677
45.0676242604
48.002120451
49.5627506361
51.4405159279
55.3810665067
51.1941963446
24.1013329648
8.46042753939e-21
7.62115560665e-24
2.17054457222e-26
0
0
0
0
0
0
0
0
0
0
0
0
0
0
0
0
0
0
0
0
0
0
0
0
0
0
0
0
0
0
22.5276199895
22.5177132661
23.9148117292
23.710920751
23.9002608958
23.4394526593
23.0441704772
25.2698680772
24.3349615612
26.4945907953
25.9343570086
24.9254825549
23.9665541834
25.4319987891
25.3302549893
24.826045079
25.719602187
25.6218431271
24.5715698966
25.2450208904
24.2088981131
24.167580469
23.999827588
24.2630972397
25.0836002007
26.1353032567
27.9812250727
27.9609684311
28.9621442476
30.4846212262
31.8216450168
32.7192669577
32.3929110633
32.8249939484
34.1877724777
36.1017614403
38.2212510898
39.9555766403
41.4931947572
44.9214837446
48.6236841529
51.052456599
52.2839315504
54.0673634437
49.4317096123
31.1768514386
29.4093576523
2.64725085973e-23
5.93008956489e-26
0
0
0
0
0
0
0
0
0
0
0
0
0
0
0
0
0
0
0
0
0
0
0
0
0
0
0
0
0
0
0
22.7907311512
22.9118988931
24.2206780619
22.8992694124
24.2040378521
24.0385858457
23.7497738618
25.9070722308
25.2065899977
27.3153567289
26.9505560915
25.8750995189
25.0812450535
26.3747924113
26.2508749901
25.9115357614
26.6425091446
26.7153189227
25.8286291286
26.6637223828
25.5674868041
25.7861846767
25.2722344267
25.5778764792
26.8586606926
27.4939180985
27.6225797504
27.6733872665
28.5187655612
30.4204224699
31.8196861613
32.9839698793
33.701072333
33.9338144296
35.4871174834
36.8466012007
38.9741811159
41.5612755407
44.5461955568
48.6476970322
51.9563527384
53.588156716
52.9835931563
49.3631261654
44.6496196307
28.4360541594
2.22137758735e-22
5.05707477579e-25
0
0
0
0
0
0
0
0
0
0
0
0
0
0
0
0
0
0
0
0
0
0
0
0
0
0
0
0
0
0
0
0
23.4917358672
23.5769357611
24.5466085847
23.3133737736
24.4700507441
24.3763631176
24.2450057142
26.1399388943
25.8124063136
27.9268117847
27.9355077479
26.7617240436
26.2464224849
27.2998643463
27.1288685968
26.9608465442
27.5334440703
27.8899978106
27.1319692255
28.1023807328
27.343259803
27.8224168448
27.6446955307
26.617026299
27.6653626391
28.6090731998
28.786778005
27.4986879847
28.0118419334
30.3079583965
31.9475110999
32.6796512763
33.5524584462
34.2758812506
35.8797340404
37.5122610819
39.8374168568
43.1859041544
47.7804855622
52.4460140579
55.0477132375
55.1959901229
52.4932633632
46.9590361926
29.5831934592
25.7236480377
3.52396851145e-24
1.42897706613e-26
0
0
0
0
0
0
0
0
0
0
0
0
0
0
0
0
0
0
0
0
0
0
0
0
0
0
0
0
0
0
0
0
24.3738497092
25.3588319747
25.0184258021
24.2596921554
25.0028247075
24.7648691662
24.7143917446
26.3347290263
26.3564027343
28.1967016874
28.8773736821
27.5450926571
27.273777898
28.0590773115
27.9465324308
27.759418279
27.8975904794
28.9535017069
28.4867489828
29.3602245382
29.2596093973
29.1815689541
29.078388046
28.7332428949
28.0947530403
28.8223225452
29.7225892871
27.0737418938
27.5068141367
29.6432139478
31.9746417619
33.1798090905
34.1847120953
34.2828408873
35.7425247012
37.7475471933
40.3583574303
44.6893642279
50.9942973837
56.068394606
57.574572548
53.5852183325
51.2205626116
49.4272841641
33.4747851128
2.38857782362e-23
6.09622512232e-26
0
0
0
0
0
0
0
0
0
0
0
0
0
0
0
0
0
0
0
0
0
0
0
0
0
0
0
0
0
0
0
0
0
25.0325996554
26.0569142608
25.7034767243
25.1058214517
25.6767144078
25.3116912319
25.2398012001
26.5966372096
26.8741579135
28.2030310501
29.7042522653
28.2789349833
27.8994980387
28.6766906037
28.8067624113
28.4709431401
28.1862578011
29.7148173063
29.8540618194
30.4554054833
30.5971291187
30.8007497042
29.7563359862
29.7761086602
29.3446365294
30.4020628917
31.0384502671
28.6908379707
27.063521426
28.6438409749
31.2522073014
33.2941049654
34.4299130196
34.7970669681
35.3812434058
37.4683880688
40.2797076466
45.82581774
54.0384884695
59.7054326473