/*--------------------------------*- C++ -*----------------------------------*\
| =========                 |                                                 |
| \\      /  F ield         | OpenFOAM: The Open Source CFD Toolbox           |
|  \\    /   O peration     | Version:  v1806                                 |
|   \\  /    A nd           | Web:      www.OpenFOAM.com                      |
|    \\/     M anipulation  |                                                 |
\*---------------------------------------------------------------------------*/
FoamFile
{
    version     2.0;
    format      ascii;
    class       volVectorField;
    location    "686";
    object      U;
}
// * * * * * * * * * * * * * * * * * * * * * * * * * * * * * * * * * * * * * //

dimensions      [0 1 -1 0 0 0 0];


internalField   nonuniform List<vector> 
6400
(
(-0.000114533608461 -0.000149923576182 0)
(-0.000303462201563 -0.000109359048133 0)
(-0.000439837940421 -8.51757555294e-05 0)
(-0.000584243067929 -7.31540568479e-05 0)
(-0.000690104144533 -4.64516749717e-05 0)
(-0.000767107518297 -2.6440067781e-05 0)
(-0.000810967703507 -1.87676150597e-05 0)
(-0.000847549636544 -2.83719068292e-05 0)
(-0.00093509061771 -3.91921853624e-05 0)
(-0.00102058346799 -3.66774675411e-05 0)
(-0.0010620278417 -3.27322262329e-05 0)
(-0.00113847539364 -3.38447311723e-05 0)
(-0.00120715091313 -3.0018493598e-05 0)
(-0.00126225404755 -2.41078735065e-05 0)
(-0.00130355813048 -2.14410757377e-05 0)
(-0.00134607764067 -2.39005735507e-05 0)
(-0.00139739669334 -2.44317408158e-05 0)
(-0.00144164351422 -2.10243108659e-05 0)
(-0.00147482873486 -1.65221518205e-05 0)
(-0.00150643897813 -1.46829633085e-05 0)
(-0.00154645805124 -1.92954287714e-05 0)
(-0.00159393735885 -2.4017134805e-05 0)
(-0.0016427143153 -2.44562623776e-05 0)
(-0.00168625472834 -2.30488808122e-05 0)
(-0.00172640722614 -2.07372369821e-05 0)
(-0.00176444373648 -1.82187602665e-05 0)
(-0.00180157194253 -1.68453563029e-05 0)
(-0.00183505490476 -1.51368938474e-05 0)
(-0.00186307648847 -1.29285492667e-05 0)
(-0.00188629659939 -1.11943310605e-05 0)
(-0.00190520373094 -1.06072453872e-05 0)
(-0.00192437996006 -9.61269972929e-06 0)
(-0.00194353675763 -7.93593558114e-06 0)
(-0.00195932679873 -7.68416088232e-06 0)
(-0.00197407823418 -7.46589632382e-06 0)
(-0.00199269618103 -7.0383702572e-06 0)
(-0.00200771799302 -7.10919195079e-06 0)
(-0.00201296630018 -6.22360891039e-06 0)
(-0.00202535535848 -4.42706785867e-06 0)
(-0.00204151079376 -3.12841546676e-06 0)
(-0.00204937898004 -3.90095870487e-06 0)
(-0.00204743132687 -2.94476095954e-06 0)
(-0.00204292732423 1.68659093363e-06 0)
(-0.00203694466925 5.08374818232e-06 0)
(-0.00202662424208 6.86330799068e-06 0)
(-0.00201234863535 8.87681741312e-06 0)
(-0.00199366513881 1.10914099326e-05 0)
(-0.00196962864515 1.38423856788e-05 0)
(-0.00194020207347 1.65881192429e-05 0)
(-0.00190513480139 1.76044990222e-05 0)
(-0.00186688687161 1.68541006755e-05 0)
(-0.00183035612715 1.92700427414e-05 0)
(-0.00178407141127 2.78870158236e-05 0)
(-0.00173034363115 3.37264454061e-05 0)
(-0.0016599983275 3.90915617232e-05 0)
(-0.00156508573574 4.68324314949e-05 0)
(-0.00146480820153 4.81380613477e-05 0)
(-0.00137502477502 4.82550475338e-05 0)
(-0.00128062732082 5.55533281375e-05 0)
(-0.00115140810994 6.22418105904e-05 0)
(-0.00101791072653 6.50276540708e-05 0)
(-0.000870835048463 8.08833445465e-05 0)
(-0.00073401209297 0.000116365355643 0)
(-0.000467963103944 0.00012222250926 0)
(-0.000217255589321 8.31779407175e-05 0)
(-8.72855153532e-05 5.70237067375e-05 0)
(9.73068044293e-07 4.55697946086e-05 0)
(7.83761521209e-05 3.91606428931e-05 0)
(0.000153510098397 3.47745655367e-05 0)
(0.000219397027009 2.88125239507e-05 0)
(0.000272593550633 2.05723749118e-05 0)
(0.000299708058462 1.00076459846e-05 0)
(0.000301298625618 -1.55063367952e-06 0)
(0.000301567350636 -1.41404218168e-05 0)
(0.000246987790277 -1.74623204553e-05 0)
(0.000230731962614 -1.97017647203e-05 0)
(0.000159429768657 -1.37645471574e-05 0)
(0.000170645614041 -2.2473000714e-05 0)
(7.48418726311e-05 -1.73959090038e-05 0)
(5.62453182998e-05 -3.34586589237e-05 0)
(-4.38208762795e-05 -0.000213321887287 0)
(-0.000185255177608 -0.000235291906497 0)
(-0.000321199912203 -0.000208455146114 0)
(-0.000410270212 -0.000166798708041 0)
(-0.000584040619224 -0.000160901318261 0)
(-0.000734561627948 -0.000113363422355 0)
(-0.00082222159088 -7.38548020376e-05 0)
(-0.000883614195866 -9.12146857275e-05 0)
(-0.000948719056356 -0.000113726814376 0)
(-0.00102041694987 -0.000110260957442 0)
(-0.00108776866923 -0.00010171573144 0)
(-0.00114925292903 -9.68444623498e-05 0)
(-0.00120611854523 -8.53609991014e-05 0)
(-0.00125662940701 -7.180788475e-05 0)
(-0.00130514396978 -6.5599706819e-05 0)
(-0.00135113957633 -7.51704807456e-05 0)
(-0.0013977622601 -7.81814895293e-05 0)
(-0.00143672591245 -5.8279834979e-05 0)
(-0.00144480399378 -4.35172492416e-05 0)
(-0.00148388639153 -4.50016684406e-05 0)
(-0.0015346647247 -6.00654709673e-05 0)
(-0.00158800375014 -7.63738915903e-05 0)
(-0.00164411816482 -7.69935174353e-05 0)
(-0.0016910409878 -6.76412180738e-05 0)
(-0.00172203762924 -6.04106350875e-05 0)
(-0.00176459003584 -5.62103253127e-05 0)
(-0.00180381024029 -5.10912196992e-05 0)
(-0.00183528687687 -4.47869729254e-05 0)
(-0.00186234594531 -3.87123118436e-05 0)
(-0.00188648570604 -3.38739808422e-05 0)
(-0.00190700455738 -3.11446647658e-05 0)
(-0.00192101312349 -2.77976667453e-05 0)
(-0.00194006055971 -2.2654234078e-05 0)
(-0.00195497961024 -2.2652738959e-05 0)
(-0.0019676271949 -2.40660651851e-05 0)
(-0.00199211041995 -2.11981185058e-05 0)
(-0.00200417274414 -2.06126014608e-05 0)
(-0.0020095521163 -2.03953551723e-05 0)
(-0.00202585544874 -1.6623051882e-05 0)
(-0.0020492408145 -1.05734805762e-05 0)
(-0.00205848420953 -2.33078746978e-06 0)
(-0.00202498636333 5.11717952711e-06 0)
(-0.00200443011936 9.74015920154e-06 0)
(-0.00200251475695 1.31944472641e-05 0)
(-0.0019949829384 1.7126921678e-05 0)
(-0.00198617695571 2.22946069886e-05 0)
(-0.00197444983978 2.89197313875e-05 0)
(-0.00195526819882 3.66427934978e-05 0)
(-0.00193436439725 4.50414701097e-05 0)
(-0.00190629866046 5.30569366255e-05 0)
(-0.00186436312315 5.95338268926e-05 0)
(-0.00180245554196 6.56504459599e-05 0)
(-0.00174465481679 7.42470566876e-05 0)
(-0.00172992186608 9.13562316569e-05 0)
(-0.00165269018194 0.000113429220944 0)
(-0.00156834138219 0.000130711114975 0)
(-0.00149837593541 0.000139523763834 0)
(-0.00140731159391 0.000148603404663 0)
(-0.00129995062447 0.000167888251895 0)
(-0.0011831869964 0.000192184832055 0)
(-0.00104990765107 0.000219186537936 0)
(-0.000847795382519 0.000249958509035 0)
(-0.000709585152057 0.000342668619827 0)
(-0.000456655384878 0.000367207601144 0)
(-0.000226111608835 0.000272449735116 0)
(-8.26325476459e-05 0.000173197001858 0)
(8.79556190686e-06 0.000128506383012 0)
(9.06116481784e-05 0.000117625667444 0)
(0.000166522345749 0.000106431194704 0)
(0.000235442408679 8.94584054968e-05 0)
(0.000283917708937 6.04024956481e-05 0)
(0.000306160935009 2.47182986149e-05 0)
(0.000297848841095 -4.6379199759e-06 0)
(0.00030413083397 -3.00341346613e-05 0)
(0.000283445011353 -4.72856766521e-05 0)
(0.000255188297831 -5.68430729874e-05 0)
(0.000217161579633 -5.69152538128e-05 0)
(0.00017674425106 -6.85014925334e-05 0)
(0.000110954970946 -7.91923015302e-05 0)
(5.20010909692e-05 -0.000133892175237 0)
(-6.37361220708e-05 -0.000367870758806 0)
(-0.000177251816315 -0.000393243039791 0)
(-0.000275003493393 -0.000359437657379 -8.68894408125e-29)
(-0.000454498115099 -0.000354234299281 7.97288304323e-29)
(-0.000617603880434 -0.000341522962096 6.95019518124e-29)
(-0.00072422852123 -0.000272541540734 -6.3105108622e-29)
(-0.000801815889811 -0.000149662603801 6.30069243124e-29)
(-0.000866029079311 -0.00015486759481 -6.06416070333e-29)
(-0.000933480673523 -0.000185534079375 0)
(-0.00100940254188 -0.000186044238434 0)
(-0.00108287073876 -0.000172326659285 0)
(-0.00114738977155 -0.000155587892687 0)
(-0.00120439203646 -0.000136487136486 0)
(-0.00125371087833 -0.000121993667864 0)
(-0.00130361011188 -0.000113813317338 0)
(-0.00135032630284 -0.0001024072369 0)
(-0.00128154490306 -8.04565197048e-05 0)
(-0.00126313347654 -6.67770200695e-05 0)
(-0.00130778949164 -7.72613261721e-05 0)
(-0.00138973243509 -0.000108922448264 0)
(-0.0015296252177 -0.000136713783676 0)
(-0.00160308743184 -0.000138646232152 0)
(-0.00163592865896 -0.000126160778649 0)
(-0.00168278307142 -0.000112247595404 0)
(-0.00172976493481 -0.000102040225806 0)
(-0.00176722341008 -9.41153996775e-05 0)
(-0.00180132852743 -8.42074054401e-05 0)
(-0.00183322982097 -7.37931870179e-05 0)
(-0.00186098023792 -6.44227983951e-05 0)
(-0.00188423382453 -5.68727719303e-05 -1.11274736522e-28)
(-0.00190683231223 -5.03259462976e-05 1.07536681414e-28)
(-0.00191630065244 -4.44731761067e-05 0)
(-0.00193366703592 -3.81286321278e-05 0)
(-0.00195984301166 -3.39272146743e-05 0)
(-0.00195339389224 -3.84963328839e-05 0)
(-0.00197872724127 -4.00570527234e-05 0)
(-0.00200956748367 -3.44802797805e-05 0)
(-0.00200333912166 -3.3392174859e-05 0)
(-0.00202171124341 -3.2997892423e-05 0)
(-0.00204720275604 -2.20882990947e-05 0)
(-0.00205761927792 -1.12170606461e-06 0)
(-0.00205402238357 1.48173402781e-05 0)
(-0.00204738555963 1.90779444598e-05 0)
(-0.00204041726455 2.18470791045e-05 0)
(-0.00202991724356 2.78799845642e-05 0)
(-0.00201524634127 3.61991545145e-05 0)
(-0.00199651964492 4.68595758981e-05 0)
(-0.00197354656329 5.89331076045e-05 0)
(-0.0019463096256 7.23952401733e-05 0)
(-0.00191421079325 8.79902653308e-05 0)
(-0.00187642519005 0.000104173379344 0)
(-0.00183273662187 0.000116917467814 0)
(-0.00178335810408 0.000127065295862 0)
(-0.00171985548557 0.000150131393686 0)
(-0.00164280880497 0.000181149247202 0)
(-0.0015759547475 0.000204997641061 0)
(-0.00149737274509 0.000225554067029 0)
(-0.00140038655009 0.000250749321993 0)
(-0.00128862005986 0.000282941045406 0)
(-0.00116229061718 0.000323878835802 0)
(-0.00101272878641 0.000378933708862 0)
(-0.000847030907375 0.000458981142775 0)
(-0.000664966953795 0.0005795409297 0)
(-0.000421430932375 0.000569777806688 0)
(-0.000201311272766 0.000402999292302 0)
(-6.89877527292e-05 0.000290066119696 0)
(3.13610930389e-05 0.000233636096453 0)
(0.000115495873514 0.000199036874056 0)
(0.000187160074512 0.000172236607153 0)
(0.000247719651397 0.000138293332629 0)
(0.000291267167938 9.18792604522e-05 0)
(0.000318852684329 4.28618094809e-05 0)
(0.000342957424482 1.42624149184e-06 0)
(0.000344732247717 -4.24788377357e-05 0)
(0.000312474086999 -8.03629270547e-05 0)
(0.00026763312075 -9.7903241513e-05 0)
(0.000219281769305 -0.000103921771829 0)
(0.00017300131657 -0.000129672101261 0)
(0.000121256639305 -0.000184575676863 0)
(3.18353085041e-05 -0.000189046248115 0)
(-6.32640386998e-05 -0.000539926562702 0)
(-8.95426196527e-05 -0.00037700544931 0)
(-0.000224868105159 -0.000536657395339 0)
(-0.000390970074225 -0.000524456545347 0)
(-0.000541785471643 -0.000444476102188 0)
(-0.000338031577978 -0.00018551230537 0)
(-0.000429076005548 -0.00018505273572 0)
(-0.000754132662521 -0.000305279467022 0)
(-0.000888562434151 -0.000305628983103 0)
(-0.000984739149407 -0.000275196364686 0)
(-0.00107081186396 -0.000249545055734 0)
(-0.00114311393572 -0.00022084859897 0)
(-0.0012042670929 -0.000191566937608 0)
(-0.00124775037992 -0.000154626587196 0)
(-0.00121565483746 -0.000110057932985 0)
(-0.00117948247284 -8.09358130308e-05 0)
(-0.00118875404425 -7.97577823116e-05 0)
(-0.00125654479096 -0.000115507786309 0)
(-0.00138904016508 -0.000170045265384 0)
(-0.00150210506726 -0.000212788139559 0)
(-0.0015475282595 -0.0002140300614 0)
(-0.00159459253468 -0.000192951570552 0)
(-0.00164424300919 -0.000173570063074 0)
(-0.00168809090766 -0.000158168521335 0)
(-0.00172776401289 -0.000143415362954 0)
(-0.00176391418413 -0.000129442485971 0)
(-0.00179715355217 -0.000116338595295 0)
(-0.00183128568271 -0.000103145293354 0)
(-0.00185698743239 -9.03755738064e-05 0)
(-0.00188494636489 -7.93079530222e-05 0)
(-0.0018981786659 -6.96479992753e-05 0)
(-0.00192130025075 -5.98739883107e-05 0)
(-0.00192134275994 -4.9879339372e-05 0)
(-0.00194251626162 -4.84420674192e-05 0)
(-0.00197607978614 -5.38190532794e-05 0)
(-0.00197416567995 -5.86218238816e-05 0)
(-0.00200362441351 -5.59030122557e-05 0)
(-0.00203171404696 -5.09399182655e-05 0)
(-0.0020428293158 -4.61042557533e-05 0)
(-0.00205072976946 -3.07173319639e-05 0)
(-0.00205600447135 -7.02337756899e-06 0)
(-0.00205567441169 1.27445980811e-05 0)
(-0.00205147387718 2.37035542171e-05 0)
(-0.00204448806639 3.16461480814e-05 0)
(-0.00203367019268 4.13510164253e-05 0)
(-0.002018761867 5.35469982875e-05 9.5231149717e-29)
(-0.00199980609516 6.80090885858e-05 -9.57464033164e-29)
(-0.00197665125933 8.42984924377e-05 0)
(-0.00194912089574 0.000102397608809 0)
(-0.00191675532639 0.000122264223562 0)
(-0.00187877845421 0.000142721523222 0)
(-0.00183412355978 0.000162915273891 0)
(-0.00178161930406 0.000186317995395 0)
(-0.00171951618782 0.000217523024638 0)
(-0.00164991938016 0.000250611590969 0)
(-0.00157497182742 0.00028237702996 0)
(-0.0014891522504 0.000317840169964 0)
(-0.00138707073383 0.000359364890503 1.81966844209e-28)
(-0.0012672128915 0.000409465290055 -2.11033114222e-28)
(-0.00112709430304 0.000472604798205 0)
(-0.000962539706643 0.000554096912711 0)
(-0.0007779740923 0.000659516261301 0)
(-0.000589149485353 0.000756891362137 0)
(-0.000409253408343 0.000755284865193 0)
(-0.00021579327709 0.000614102619223 0)
(-4.63545747136e-05 0.000412891631344 0)
(5.99052409483e-05 0.000318703916838 0)
(0.000147841328523 0.000275157791878 0)
(0.000222901974109 0.000237834498523 0)
(0.000291855005614 0.000195830454568 0)
(0.00034966202906 0.000139227622485 0)
(0.000389512152924 7.32358068742e-05 0)
(0.000392036216328 -1.95845410226e-06 0)
(0.000342437251618 -7.18927700353e-05 0)
(0.000298178665838 -0.000120343502166 0)
(0.000252434530067 -0.000152439722402 0)
(0.000191978757353 -0.00016499330484 0)
(0.000114227921247 -0.000154877912724 0)
(8.33589611285e-05 -0.000213240506972 0)
(2.81904065394e-05 -0.000253427061819 0)
(-1.04703563998e-05 -0.000551743784278 0)
(-4.99375646225e-05 -0.000458192983349 0)
(-0.000200600339387 -0.000694292589359 0)
(-0.000336058193076 -0.000640705803289 0)
(-0.000383409670858 -0.000439152732232 0)
(-0.000315520486793 -0.000250726990714 0)
(-0.00052250423055 -0.000389109811905 0)
(-0.000742510414727 -0.000498515372826 0)
(-0.000839464097096 -0.000436321415168 0)
(-0.000950362857936 -0.00037757418288 0)
(-0.00104571366612 -0.000341333911238 0)
(-0.00112688712858 -0.000296255322442 0)
(-0.00115318371489 -0.000216416715389 0)
(-0.00109489397335 -0.00013387644255 0)
(-0.00111967503886 -0.00010377051998 0)
(-0.00118158753048 -0.000115818097399 0)
(-0.00127825447532 -0.00016146900794 0)
(-0.00138718663376 -0.000223037395472 0)
(-0.00146208144959 -0.000262140030113 0)
(-0.00149429011006 -0.000264647070363 0)
(-0.00154217160294 -0.000257375532776 0)
(-0.00159660449364 -0.000243540739165 0)
(-0.00164287797706 -0.000222596884372 0)
(-0.0016859062247 -0.000200960110796 0)
(-0.00172470560167 -0.00018152749331 0)
(-0.00175934335122 -0.000164961079829 0)
(-0.00179629993131 -0.000148850821453 0)
(-0.00182275802473 -0.000132497127397 0)
(-0.00185815525584 -0.000116368371833 0)
(-0.00187184030847 -0.000100601505803 0)
(-0.0019033432449 -8.72550101465e-05 -1.06921327337e-28)
(-0.00189130951967 -7.46965508534e-05 1.02002783392e-28)
(-0.00192860946391 -6.86741360916e-05 0)
(-0.00196189273399 -6.69758811342e-05 0)
(-0.00196623900605 -7.25750956115e-05 0)
(-0.00200133927147 -8.04980281183e-05 0)
(-0.00202207487597 -8.03369902638e-05 0)
(-0.00203682285415 -6.92341041299e-05 0)
(-0.00204685691767 -5.3926971732e-05 0)
(-0.00205377484742 -3.42939793936e-05 0)
(-0.00205843570778 -1.04341180511e-05 0)
(-0.00205939594821 1.14390800199e-05 0)
(-0.00205638996381 2.75282367997e-05 0)
(-0.00204960572118 4.07039383238e-05 0)
(-0.00203872835608 5.46844459601e-05 0)
(-0.00202373238371 7.0822510447e-05 0)
(-0.00200463564574 8.92348701857e-05 0)
(-0.00198128083464 0.000109746802525 0)
(-0.00195338563828 0.000132376314931 0)
(-0.00192046061654 0.000157103187709 0)
(-0.00188171216441 0.000183531597805 0)
(-0.00183599043121 0.000211898283479 0)
(-0.00178209205755 0.000244276284109 0)
(-0.0017192859948 0.000281962273742 0)
(-0.00164847766701 0.000322633424509 0)
(-0.00156923079557 0.000366568171588 0)
(-0.00147667787511 0.000417449690056 0)
(-0.00136551900717 0.000478012140056 0)
(-0.00123231315784 0.0005511670207 0)
(-0.00107451256396 0.000640389342807 0)
(-0.000893461084893 0.000745015127698 0)
(-0.000703888366662 0.000850435967439 0)
(-0.000528602243921 0.000914158897049 0)
(-0.000375594331465 0.000925889464092 0)
(-0.000195742570129 0.000808789202544 0)
(-2.82089343511e-05 0.000577513078249 0)
(9.30290075459e-05 0.000438748886269 0)
(0.000191525164895 0.000363757220589 0)
(0.000272834650578 0.00030903482492 0)
(0.000349465960838 0.000258072307689 0)
(0.000423665153952 0.000190827381059 0)
(0.000450897973841 8.20101978249e-05 0)
(0.000399401875414 -3.6033073026e-05 0)
(0.000353213362431 -0.000119617911663 0)
(0.000303931664411 -0.000179145512887 0)
(0.000243215460924 -0.000220395252126 0)
(0.000167732904269 -0.000217955806262 0)
(0.000108017235518 -0.000210120111415 0)
(7.09167710528e-05 -0.000276723030523 0)
(1.91839972134e-05 -0.00029295982306 0)
(-1.59696317204e-06 -0.000521780646984 0)
(-5.77916940994e-05 -0.000554923647426 0)
(-0.000199860805491 -0.000795442600992 0)
(-0.000287452345115 -0.000679857653829 0)
(-0.000232170760773 -0.000356923556582 0)
(-0.000319106919934 -0.000361304357093 0)
(-0.000618397694601 -0.000608031130646 0)
(-0.000709847573382 -0.000609371866802 0)
(-0.0008033014755 -0.000544950278603 0)
(-0.000909397581146 -0.000486157988215 0)
(-0.00100975497012 -0.000417753449303 0)
(-0.000981572273575 -0.00029973208279 0)
(-0.000921369711317 -0.00018365341457 0)
(-0.000987746588261 -0.000154169743092 0)
(-0.0010699551609 -0.00017176124951 0)
(-0.00120528515911 -0.000223483234356 0)
(-0.00132941864411 -0.000275070576996 0)
(-0.00140909155335 -0.000298826007637 0)
(-0.0014324847819 -0.000298191391542 0)
(-0.0014870345019 -0.000307305976822 0)
(-0.00154716499405 -0.000309935089606 0)
(-0.00159445956915 -0.000293159619915 0)
(-0.0016388022391 -0.000268601105307 0)
(-0.00168009408857 -0.000243821129321 0)
(-0.00172336342815 -0.000220891931575 0)
(-0.00175815887204 -0.000198164416184 0)
(-0.00177905554234 -0.00018007232176 0)
(-0.00182618534348 -0.000162879872735 0)
(-0.00183423604695 -0.000140452624975 0)
(-0.00188023763451 -0.000119390406102 0)
(-0.00185745962606 -9.9553009554e-05 0)
(-0.00190763391688 -9.48344854467e-05 0)
(-0.00189349804946 -9.11099984802e-05 0)
(-0.0019481765276 -9.42462389815e-05 0)
(-0.00199401523833 -0.000101754062217 0)
(-0.00201545060638 -0.000105941004111 0)
(-0.00202987275439 -9.71304359825e-05 0)
(-0.00204181557089 -8.10023716667e-05 0)
(-0.00205116335406 -6.15677352164e-05 0)
(-0.00205818089429 -3.90561716889e-05 0)
(-0.00206284479516 -1.39429106398e-05 0)
(-0.00206434994198 1.0256117587e-05 0)
(-0.00206202821456 3.0894348003e-05 0)
(-0.00205556254183 4.92155153677e-05 0)
(-0.0020448339249 6.78000020666e-05 0)
(-0.00202987482296 8.81281313912e-05 0)
(-0.00201070660121 0.000110663337869 0)
(-0.00198712006006 0.000135515174338 0)
(-0.00195872831599 0.00016284508057 0)
(-0.00192499852205 0.000192829518031 0)
(-0.00188514980024 0.000225624852827 0)
(-0.0018381091013 0.000261840201142 0)
(-0.00178280647634 0.000302663228348 0)
(-0.0017185648555 0.000348595125077 0)
(-0.0016449356418 0.000399534383651 0)
(-0.00155964632019 0.000457772893535 0)
(-0.00145760299064 0.000527244798078 0)
(-0.0013336567676 0.000610830984439 0)
(-0.00118502431787 0.000709875654673 0)
(-0.00101245708337 0.0008213552126 0)
(-0.000826097925001 0.000933336675489 0)
(-0.000644738147799 0.00101727379699 0)
(-0.000465829000936 0.0010347806651 0)
(-0.000334616276015 0.00110789480541 0)
(-0.000150042565515 0.000953952134419 0)
(2.35469777286e-06 0.000706177512206 0)
(0.000127386795041 0.000554173551222 0)
(0.000243099549073 0.000459764000658 0)
(0.000339994027126 0.00038948032273 0)
(0.00044040629232 0.000335994046846 0)
(0.000516156519583 0.000231055731542 0)
(0.000485704509806 5.83555888469e-05 0)
(0.000431016107345 -8.05427401678e-05 0)
(0.000386819577947 -0.000178914702228 0)
(0.000316211859759 -0.000251387124957 0)
(0.000243209648463 -0.000295596186087 0)
(0.000158235925776 -0.000270270219586 0)
(0.00010237938288 -0.000261487257404 0)
(6.37116151878e-05 -0.000324298656551 0)
(1.83991785562e-05 -0.000328678721038 0)
(-2.0508770788e-05 -0.000568595292562 0)
(-0.000118298328932 -0.000712367532426 0)
(-0.000251107951895 -0.000870631138475 0)
(-0.000296980871172 -0.000817851433809 0)
(-0.00022357838963 -0.00045229501676 0)
(-0.000439684598151 -0.000617373546059 0)
(-0.000621489881904 -0.000736238463227 0)
(-0.000684361302225 -0.000694303565205 0)
(-0.000774165735672 -0.000634322170978 0)
(-0.00084306839285 -0.00057209836339 0)
(-0.000975943775967 -0.000474139054397 2.8732246097e-28)
(-0.000814820437677 -0.000258104551631 -1.87706483179e-28)
(-0.000912737514599 -0.000225458271192 0)
(-0.000971821825264 -0.000234859714286 0)
(-0.00110485821256 -0.000290221674315 0)
(-0.00125029602683 -0.000356269499921 0)
(-0.00133918184868 -0.000366850595691 0)
(-0.00135125744482 -0.000338642316917 0)
(-0.0014174124067 -0.000346341071934 0)
(-0.00149306712067 -0.000366479785051 0)
(-0.00154041202896 -0.000361741676085 0)
(-0.00158915259872 -0.000340698136826 0)
(-0.00163577117335 -0.000314412066437 0)
(-0.0016790330167 -0.000285771180869 0)
(-0.00171221513881 -0.000255958282487 0)
(-0.00173881369988 -0.000228125353356 0)
(-0.00178516195491 -0.000209239196067 0)
(-0.00178360590736 -0.00019007339656 0)
(-0.00184617741179 -0.000165704347205 0)
(-0.00181874938191 -0.000129533515629 0)
(-0.00188029356674 -0.00011944946624 0)
(-0.0018673924249 -0.00011825421147 1.00845253806e-28)
(-0.00192264647361 -0.000121259299975 -1.01782690752e-28)
(-0.00195652950859 -0.000132625377273 0)
(-0.00200520765542 -0.000137027947671 0)
(-0.0020239997261 -0.000127020576948 0)
(-0.0020359541996 -0.000110810235649 0)
(-0.00204691412586 -9.13734724605e-05 0)
(-0.00205656380765 -6.92690108595e-05 0)
(-0.00206400860942 -4.44621972407e-05 0)
(-0.00206882849906 -1.75584933464e-05 0)
(-0.00207063897694 9.23002932337e-06 0)
(-0.0020687384294 3.40469570761e-05 0)
(-0.00206260535605 5.72844802293e-05 0)
(-0.00205210056036 8.06064942175e-05 0)
(-0.0020372578624 0.000105365174923 0)
(-0.00201802953903 0.000132267987965 0)
(-0.00199411499637 0.000161704798114 0)
(-0.00196505471464 0.00019403463044 0)
(-0.00193031031982 0.000229661548955 0)
(-0.00188914958852 0.000269091766137 0)
(-0.00184057648029 0.000313088512009 0)
(-0.00178350047238 0.000362596361256 0)
(-0.00171677527921 0.000418516846966 0)
(-0.00163861731836 0.000482559749325 0)
(-0.00154542984532 0.000558361048857 0)
(-0.00143201883838 0.000649766728607 0)
(-0.00129434436649 0.000757943071463 0)
(-0.00113300276368 0.000878983218729 0)
(-0.000955869111035 0.00100250765848 0)
(-0.000775976853932 0.00110911645694 0)
(-0.000605516110373 0.00117946925038 0)
(-0.000446230566175 0.00122884932249 0)
(-0.000306758354969 0.00124523435033 0)
(-0.000136000446064 0.00110587447126 0)
(4.17097182564e-05 0.000827238749979 0)
(0.000186070318806 0.000693029653393 0)
(0.000325030623625 0.000595107693541 0)
(0.000446178398671 0.000508724935672 0)
(0.000551139823917 0.000412762830772 0)
(0.000588226193299 0.000235156136982 0)
(0.000540624776748 2.64368336415e-05 0)
(0.000504200117827 -0.000134610355512 0)
(0.000433981978186 -0.000257520028738 0)
(0.000340084950148 -0.000344424464568 0)
(0.000239614506451 -0.000364155019229 0)
(0.000160166583579 -0.000342681987735 0)
(9.03331213048e-05 -0.000315074013868 0)
(5.12065954135e-05 -0.000361674596673 0)
(1.68641963913e-05 -0.000369883628131 0)
(-3.99803172269e-05 -0.000662311973484 0)
(-0.000160982785053 -0.000856430379424 0)
(-0.000276502292216 -0.000915185369611 0)
(-0.000201543610972 -0.000594189649594 0)
(-0.000236543342638 -0.000562161259125 0)
(-0.000491504526894 -0.00082496444544 0)
(-0.000579392650981 -0.000821327661002 0)
(-0.000663004600562 -0.000778691880824 0)
(-0.000727079021071 -0.000704492996802 0)
(-0.000819185782649 -0.000635788653525 0)
(-0.000712949260806 -0.000399139350084 0)
(-0.000805231570461 -0.000309014105503 0)
(-0.000893711415747 -0.000301442627305 0)
(-0.000971878454096 -0.000335594396562 0)
(-0.00115648808677 -0.000427423578906 0)
(-0.00126161289958 -0.000453662212667 0)
(-0.00126515353225 -0.000406655085718 0)
(-0.00132754578551 -0.000393454547397 0)
(-0.00142317572045 -0.000418470170936 0)
(-0.001485958046 -0.000425523459426 0)
(-0.00153159200516 -0.000410657871377 0)
(-0.0015772275562 -0.000387342077321 0)
(-0.00162715132567 -0.000361855869599 0)
(-0.00167035813802 -0.000329551527408 0)
(-0.00171653356928 -0.000289475943452 0)
(-0.00172615486635 -0.000260884083013 0)
(-0.00178613323782 -0.000237655265586 0)
(-0.00179436465712 -0.000209928824066 0)
(-0.00179126746867 -0.000181930743989 0)
(-0.00182645420548 -0.000160623966094 0)
(-0.0018992007928 -0.000150209875019 0)
(-0.00189407957794 -0.000140929436653 0)
(-0.00191316070903 -0.000157971968382 0)
(-0.00198707643052 -0.000173212301997 0)
(-0.00201095267548 -0.000166537024426 0)
(-0.0020280326404 -0.000146035557807 0)
(-0.00204167091043 -0.000124091822548 0)
(-0.00205307145699 -0.000101785089717 0)
(-0.00206307030471 -7.74813162288e-05 0)
(-0.00207102234894 -5.04861482656e-05 0)
(-0.00207619307325 -2.13838074467e-05 0)
(-0.00207824401977 8.24292727741e-06 0)
(-0.00207666738824 3.70445466694e-05 0)
(-0.00207089329624 6.49989068028e-05 0)
(-0.00206067588869 9.31132796661e-05 9.24954755069e-29)
(-0.00204598087104 0.000122527649343 -9.21872785598e-29)
(-0.00202665052344 0.000154103328558 0)
(-0.00200228320569 0.000188463638501 0)
(-0.00197237965403 0.000226147801877 0)
(-0.00193643114142 0.000267754514883 0)
(-0.00189375518627 0.000314058781448 0)
(-0.00184337393084 0.000366086097378 0)
(-0.0017840096121 0.000425150101808 0)
(-0.00171382284955 0.000493136754483 0)
(-0.00162983653256 0.000573183320214 0)
(-0.00152766573249 0.000669396977016 0)
(-0.00140284894713 0.000784151611674 0)
(-0.00125395284558 0.000914922473317 0)
(-0.00108616778112 0.00105176289114 0)
(-0.00090997052231 0.00118014306786 0)
(-0.000735779757766 0.00128100196858 0)
(-0.000570574304861 0.00134612781316 0)
(-0.000418004377619 0.00137584669826 0)
(-0.000284362933667 0.0013655645385 0)
(-0.000152813542402 0.00134419646188 0)
(6.62952439259e-05 0.00100536961732 0)
(0.000253019340518 0.000839511400432 0)
(0.000415426057167 0.000733119663067 0)
(0.000543873764712 0.000613008165459 0)
(0.000639852027974 0.000462444016766 0)
(0.00066620613965 0.000236764934788 0)
(0.000648105701948 1.32179796461e-06 0)
(0.000609194439617 -0.000206256863915 0)
(0.000500084735258 -0.000369211014021 0)
(0.000366278800557 -0.000460808783721 0)
(0.000236380791155 -0.000455433925088 0)
(0.000146729337189 -0.000426712953249 0)
(6.88957429574e-05 -0.000382060844141 0)
(2.59065098532e-05 -0.00039251072492 0)
(7.23243009929e-06 -0.000403015292893 0)
(-5.42697585365e-05 -0.000777388040891 0)
(-0.000178753106002 -0.000971389874439 0)
(-0.000240256313228 -0.000954932300545 0)
(-0.000195753448709 -0.00065228589575 0)
(-0.000312252055362 -0.000730915933439 0)
(-0.000497556454351 -0.000931180311003 0)
(-0.000543119162013 -0.000901469454889 0)
(-0.000643858988657 -0.000859016510108 0)
(-0.00064717280327 -0.000728233865147 0)
(-0.000823022431076 -0.000715854727751 0)
(-0.00069320290696 -0.000443777668999 0)
(-0.000808394426745 -0.000394950335006 0)
(-0.000884328006389 -0.000393249268486 0)
(-0.00102323933089 -0.000470199119369 0)
(-0.00116684176261 -0.000547907900357 0)
(-0.0012448301035 -0.000521850495344 0)
(-0.00124847972272 -0.000457782295739 0)
(-0.00133063337373 -0.000467631753717 0)
(-0.00141295742216 -0.000489234126832 0)
(-0.00147224841552 -0.000482980142284 0)
(-0.00152547742068 -0.000460716326516 0)
(-0.00156831025911 -0.000431926384848 0)
(-0.00161558925724 -0.000404283372824 0)
(-0.00164292044531 -0.000370693587207 0)
(-0.00167291865874 -0.000320415608448 0)
(-0.00173951719853 -0.000290918424794 0)
(-0.00171179942381 -0.000264184800054 0)
(-0.00181636729427 -0.000238077057492 0)
(-0.00178458183864 -0.000209550174999 0)
(-0.00187174535513 -0.000200488244741 0)
(-0.00184409513968 -0.000177741463922 0)
(-0.00192994415422 -0.000177212069339 0)
(-0.0019651718018 -0.000195966240994 1.05871975509e-28)
(-0.0019932454228 -0.000205841436653 -1.05389301022e-28)
(-0.00201489188058 -0.000189194667378 0)
(-0.00203274239684 -0.00016394142901 0)
(-0.00204793556764 -0.000138320680441 0)
(-0.00206029206438 -0.0001130079711 0)
(-0.00207068886689 -8.63231745528e-05 0)
(-0.00207904850137 -5.70979630812e-05 0)
(-0.00208470916825 -2.55491457489e-05 0)
(-0.00208716585312 7.13182628676e-06 0)
(-0.00208594076046 3.98486149976e-05 0)
(-0.00208054969856 7.23822471187e-05 0)
(-0.00207069761272 0.000105336841881 0)
(-0.00205617656438 0.000139652649741 0)
(-0.00203667310869 0.000176257288686 0)
(-0.00201172048344 0.000215936502095 0)
(-0.00198082090105 0.000259361906757 0)
(-0.00194349580535 0.000307284460154 0)
(-0.00189911187949 0.000360767123538 0)
(-0.00184668378976 0.000421331859195 0)
(-0.00178466866373 0.000491137376713 0)
(-0.00171049324687 0.000573285658767 0)
(-0.00162024445334 0.000671772541953 0)
(-0.00150936057031 0.000789871251948 0)
(-0.00137502552871 0.000926889677229 0)
(-0.00121845525659 0.00107731841469 0)
(-0.00104716270605 0.0012271538642 0)
(-0.000870893870028 0.00135947447329 0)
(-0.000700536472604 0.00145223011021 0)
(-0.000538402877483 0.00150596029339 0)
(-0.000383166555974 0.00152141070711 0)
(-0.000237275919717 0.00150269310678 0)
(-0.000118480061008 0.00145562824098 0)
(6.25124118568e-05 0.00130274466568 0)
(0.00030112652902 0.000974397719728 0)
(0.000513117648915 0.000888102372226 0)
(0.000651891605005 0.000734087188959 0)