/*--------------------------------*- C++ -*----------------------------------*\
| =========                 |                                                 |
| \\      /  F ield         | OpenFOAM: The Open Source CFD Toolbox           |
|  \\    /   O peration     | Version:  v1806                                 |
|   \\  /    A nd           | Web:      www.OpenFOAM.com                      |
|    \\/     M anipulation  |                                                 |
\*---------------------------------------------------------------------------*/
FoamFile
{
    version     2.0;
    format      ascii;
    class       volVectorField;
    location    "67";
    object      U;
}
// * * * * * * * * * * * * * * * * * * * * * * * * * * * * * * * * * * * * * //

dimensions      [0 1 -1 0 0 0 0];


internalField   nonuniform List<vector> 
6400
(
(-9.45567676646e-05 -0.000133147297596 0)
(-0.000269674690708 -0.000112437941934 0)
(-0.000401312773615 -0.000100787082104 0)
(-0.000572940896526 -9.77523667248e-05 0)
(-0.00069190389706 -5.50817281816e-05 0)
(-0.00076913103544 -1.19443773367e-05 0)
(-0.000768256202407 2.91474368202e-06 0)
(-0.000754236269986 -2.11023784378e-05 0)
(-0.000873474680809 -4.99443327194e-05 0)
(-0.00102732174876 -4.69272416066e-05 0)
(-0.00101031646455 -4.12604280419e-05 0)
(-0.00116469732619 -6.05538728383e-05 0)
(-0.00128937042267 -5.74018314541e-05 0)
(-0.00139297138929 -3.93014130974e-05 0)
(-0.00143629089402 -2.78759260105e-05 0)
(-0.00149139012884 -3.95069361938e-05 0)
(-0.00159966101575 -4.57839559482e-05 0)
(-0.00167848054714 -3.78905036559e-05 0)
(-0.00170580635208 -1.55611295624e-05 0)
(-0.00170104016473 7.76889627075e-06 0)
(-0.00170450019836 -2.44428286106e-06 0)
(-0.00174371661111 -2.38065099926e-05 0)
(-0.00181931244087 -3.55993383545e-05 0)
(-0.0018945271208 -5.03289554952e-05 0)
(-0.00198586925805 -5.02794736901e-05 0)
(-0.00206132683405 -3.74186718466e-05 0)
(-0.0021492573824 -4.25533532754e-05 0)
(-0.00224248776185 -4.179750479e-05 0)
(-0.00230816240128 -2.97697999871e-05 0)
(-0.00235278393033 -1.77260365883e-05 0)
(-0.00236329860675 -2.46800293916e-05 0)
(-0.00241052305618 -2.5115465663e-05 0)
(-0.00244533508122 -2.62437074658e-06 0)
(-0.00243538224938 4.88412478161e-06 0)
(-0.00238307318414 2.57807977577e-05 0)
(-0.00234372481367 3.91113073998e-05 0)
(-0.00234295712345 4.93165921774e-05 0)
(-0.00209298614018 6.22470504424e-05 0)
(-0.00202838288338 7.13480626187e-05 0)
(-0.00193975781994 4.76263979574e-05 0)
(-0.00195041676968 -6.00490353047e-05 0)
(-0.00207965709163 -0.00013415803601 0)
(-0.00218112610075 -1.85011727791e-05 0)
(-0.00217637319393 4.31324723644e-05 0)
(-0.00209483940185 8.2845178919e-05 0)
(-0.00200686783809 0.000120993640817 0)
(-0.00185307417053 0.000149321232251 0)
(-0.00165093864347 0.000153108204657 0)
(-0.00144528459813 0.000120558655989 0)
(-0.00133202834328 5.63835289804e-05 0)
(-0.00115177001859 -4.26153700635e-05 0)
(-0.0015672558135 -9.5202800953e-05 0)
(-0.00145942079857 1.86219897759e-05 0)
(-0.0015486243437 7.87626951837e-05 0)
(-0.00129467089451 0.000138564663833 0)
(-0.000828885818762 0.000193693914847 0)
(-0.000552650065607 5.62207869645e-05 0)
(-0.000406464594954 9.05130052909e-06 0)
(-0.000433703817179 -2.2732607016e-06 0)
(-0.000412527875271 -8.81176299649e-06 0)
(-0.000473978665464 -3.17821649398e-05 0)
(-0.000546621256974 -4.78482220446e-05 0)
(-0.000612950984505 6.03969067314e-05 0)
(-0.000394065058949 5.36490042973e-05 0)
(-0.000273947991198 5.02765616926e-05 0)
(-0.000179995846642 4.6905935647e-05 0)
(-9.71113282925e-05 4.82414527914e-05 0)
(-9.05184771003e-06 5.09770357977e-05 0)
(9.30077565432e-05 5.44708996317e-05 0)
(0.000203327121704 5.489597593e-05 0)
(0.000312265375639 4.99202925179e-05 0)
(0.000397299476552 3.7767391726e-05 0)
(0.000444855673428 2.01447595475e-05 0)
(0.000484904007813 -2.33831085877e-06 0)
(0.000431729714409 -1.51320764966e-05 0)
(0.000429110289452 -2.46103676229e-05 0)
(0.000313864146061 -1.97323780335e-05 0)
(0.000348830793149 -4.03169943916e-05 0)
(0.000158113990869 -3.4940759806e-05 0)
(0.000119648816944 -7.02035503544e-05 0)
(-3.22871803025e-05 -0.000175128335605 0)
(-0.000140439101303 -0.000206285727827 0)
(-0.000249324408179 -0.000201197988294 0)
(-0.000313833703864 -0.000159333535729 0)
(-0.000483450288621 -0.000159897200453 0)
(-0.000688114717769 -0.000113917249921 0)
(-0.000824866299472 -5.50622350147e-05 0)
(-0.00090197841596 -9.25914899933e-05 0)
(-0.00097805610591 -0.000149270984873 0)
(-0.00107025951112 -0.000145313407179 0)
(-0.001160322611 -0.000142430356478 0)
(-0.0012407580927 -0.000160809771376 0)
(-0.00131136171164 -0.000145530002342 0)
(-0.00137790180813 -0.000113747367594 0)
(-0.00145754615585 -9.75747387439e-05 0)
(-0.00153625444548 -0.000138758602149 0)
(-0.00160900688972 -0.000148030607698 0)
(-0.00164204433826 -4.7302867563e-05 0)
(-0.00149536325646 1.17652814223e-05 0)
(-0.0015202701083 2.30322223554e-05 0)
(-0.00155591255886 -2.03798842054e-05 0)
(-0.00164084924997 -0.000111349445365 0)
(-0.00180879680586 -0.000160949810574 0)
(-0.00195577414646 -0.000141938500794 0)
(-0.0019186177682 -0.000129157099597 0)
(-0.00207971769453 -0.000142724492269 0)
(-0.0022024145492 -0.000138476047033 0)
(-0.00226191334073 -0.000112009755996 0)
(-0.00230624995752 -7.99149945484e-05 0)
(-0.00233407678085 -4.81334685906e-05 0)
(-0.00237294384836 -4.32564559044e-05 0)
(-0.00228730384462 -3.20465662362e-05 0)
(-0.00230173629567 3.33545306007e-05 0)
(-0.00224263574789 4.0398669791e-05 0)
(-0.00210588311931 4.44089292686e-05 0)
(-0.00223317078045 0.000142069318276 0)
(-0.0020470135799 0.000154095256854 0)
(-0.00189404682293 0.000130493374461 0)
(-0.00189530589499 0.000141711940804 0)
(-0.00196429397649 0.00016454379867 0)
(-0.00200213676429 0.00011958473121 0)
(-0.000978273999829 2.37984889892e-05 0)
(-0.000869556203554 1.5545262813e-05 0)
(-0.000816253188754 2.97392426569e-05 0)
(-0.000791263224152 4.74869707125e-05 0)
(-0.000798223690388 6.89487217753e-05 0)
(-0.000828467352659 9.51731986512e-05 0)
(-0.000839492517655 0.000109961453504 0)
(-0.000881216640075 0.000107121523693 0)
(-0.000893161271756 7.2225877855e-05 0)
(-0.000765179422839 -1.57074070233e-05 0)
(-0.000602214775585 -4.51747368439e-05 0)
(-0.000521156759276 -5.60398492532e-05 0)
(-0.00143979767637 -8.30348623147e-05 0)
(-0.00132595295537 0.000181869562056 0)
(-0.00110689751219 0.000218487894315 0)
(-0.00249728291192 0.000157311299011 0)
(-0.00254808910334 -1.16729421717e-05 0)
(-0.0025598828468 2.38768662733e-05 0)
(-0.00249225443994 0.000141911040985 0)
(-0.00225052087488 0.000284127114091 0)
(-0.000693128169797 0.000124541400062 0)
(-0.000847943461071 0.000220276140979 0)
(-0.000454314904597 0.000183134168925 0)
(-0.000319259979098 0.000177387079677 0)
(-0.000195008927807 0.000149356703247 0)
(-9.98934505108e-05 0.000139805787543 0)
(-7.87195174216e-06 0.00015430133375 0)
(9.90232628016e-05 0.000167766052403 0)
(0.000215535792663 0.000171889791914 0)
(0.000325106718194 0.000152180091227 0)
(0.000408765238329 0.000108260529088 0)
(0.000447346492178 5.78395973279e-05 0)
(0.000498055410584 1.04066951652e-05 0)
(0.000502879316094 -3.12277843889e-05 0)
(0.000485172070732 -6.40911139514e-05 0)
(0.000438619250934 -8.1161231132e-05 0)
(0.000374059078768 -0.000123128131166 0)
(0.000241826241571 -0.000160263002634 0)
(0.000114991591166 -0.000284379625048 0)
(-5.2398783714e-05 -0.000299471406228 0)
(-0.000138862315047 -0.000344780289434 0)
(-0.000214687124595 -0.00033952153332 -1.03929140841e-28)
(-0.000415115977477 -0.000376313624097 1.06663924092e-28)
(-0.000629391175724 -0.000406340097854 1.06565156588e-28)
(-0.000726393463302 -0.000327042850126 -1.00066371411e-28)
(-0.000776125651089 -0.000155754388805 1.03329196905e-28)
(-0.000857054811008 -0.00018371992252 -1.09364271049e-28)
(-0.000943637120994 -0.000235620149626 0)
(-0.00104650116047 -0.000248765294589 0)
(-0.00115065848095 -0.000239610834374 0)
(-0.00123321199104 -0.000229845563907 0)
(-0.00130466503562 -0.000209187270112 0)
(-0.0013665454375 -0.00019512175572 0)
(-0.00142130440116 -0.000169779017812 0)
(-0.00147165358725 -0.000101922347345 0)
(-0.00107936805449 -2.07122728773e-05 0)
(-0.00100524548734 2.17916638446e-05 0)
(-0.00101982429801 1.60829953959e-05 0)
(-0.0010981886986 -6.1720795843e-05 0)
(-0.00144593414842 -0.000186746729275 0)
(-0.00174899936124 -0.000281576214446 0)
(-0.00170943447768 -0.000268024800833 0)
(-0.00186082281924 -0.000249421533503 0)
(-0.00203886492898 -0.000252737408447 0)
(-0.00212808179686 -0.000254351730048 0)
(-0.00217977927826 -0.000210117586665 0)
(-0.00223213861262 -0.00015836241953 0)
(-0.0022700583941 -0.000106615536581 0)
(-0.00225097841844 -6.60060144081e-05 -3.26369490301e-28)
(-0.00231958078825 -1.7610197789e-05 3.24116396141e-28)
(-0.00217879253214 1.56014015619e-05 0)
(-0.0021138928515 6.81249375933e-05 0)
(-0.00227213757475 0.000185390362198 0)
(-0.00179362084417 0.000121777345575 0)
(-0.00181339829212 0.000153193481203 0)
(-0.00205678467735 0.000307411103825 0)
(-0.00156813193326 0.000182133419693 0)
(-0.0016670392827 4.04502604406e-05 0)
(-0.0020019256425 -3.57829106902e-05 0)
(-0.00269555665512 0.00010284514121 0)
(-0.00288394379418 0.000230707582914 0)
(-0.00297073076383 9.64830899732e-05 0)
(-0.0029954065859 7.91355846309e-05 0)
(-0.00300084828083 0.000103159242401 0)
(-0.00299893633807 0.000136547706315 0)
(-0.0029943649897 0.000173612112555 0)
(-0.00298751640819 0.00018537912397 0)
(-0.00297483363709 0.000171256981585 0)
(-0.00295233222964 0.00015623991745 0)
(-0.00291892219878 0.000116979070257 0)
(-0.00285662144551 6.35609622749e-05 0)
(-0.0026463161848 -5.94025200075e-05 0)
(-0.00153169253709 3.39331422701e-05 0)
(-0.00123078165791 5.16748530157e-05 0)
(-0.00172232935302 -0.000259008377911 0)
(-0.00249690301576 -0.000440336700634 0)
(-0.00249393283542 -0.000213154151128 0)
(-0.0025608935777 0.000109024642886 0)
(-0.00246654250694 0.000522290861099 0)
(-0.00225914021577 0.000942862381017 0)
(-0.0019278767553 0.00112797347756 0)
(-0.00136696960984 0.000899645106059 0)
(-0.000561038676118 0.000453867705865 0)
(-0.000350385799658 0.000308041528282 0)
(-0.000224439805342 0.00026367205167 0)
(-0.000118301303191 0.000260241445593 0)
(-7.45582076484e-06 0.000269099153788 0)
(0.000106491778497 0.000281850667467 0)
(0.000224682558097 0.000279466551843 0)
(0.000337239156023 0.000244230301126 0)
(0.000433931400037 0.000183431209742 0)
(0.000523948976941 0.000121047828098 0)
(0.000578529090409 4.27861191327e-05 0)
(0.000571304314876 -4.25736744026e-05 0)
(0.000531951751307 -0.000102674199679 0)
(0.00047121750134 -0.000147169692077 0)
(0.000392287313689 -0.000236377571194 0)
(0.000282951162948 -0.000384548437133 0)
(7.67831306054e-05 -0.00041549260266 0)
(-5.46387710586e-05 -0.000468912156069 0)
(-5.20274530517e-05 -0.000289113157049 0)
(-0.000182641562082 -0.00053875637119 0)
(-0.000401836520853 -0.000590949264774 0)
(-0.000515316652453 -0.000481157405264 0)
(-0.000229529152123 -0.000145407042557 0)
(-0.000274634322155 -0.000147105010178 0)
(-0.00058447448697 -0.000334923995339 0)
(-0.00086039565447 -0.000417716875135 0)
(-0.000987843005233 -0.00038012055549 0)
(-0.00112415816293 -0.000353786476951 0)
(-0.00122153838299 -0.000321200039157 0)
(-0.00128620639054 -0.000275841933961 0)
(-0.00129362004445 -0.000175635754109 0)
(-0.00104635916301 -4.35076145509e-05 0)
(-0.000924870490645 3.38818889028e-05 0)
(-0.000907892548555 5.37778516766e-05 0)
(-0.000978349832331 -1.02915083479e-05 0)
(-0.00119128764552 -0.000131472552978 0)
(-0.00157685266429 -0.000335710306498 0)
(-0.00164652075431 -0.000412847878707 0)
(-0.00171922191676 -0.000396412368932 0)
(-0.00185781530589 -0.000392115970371 0)
(-0.00196897609956 -0.000394375075682 0)
(-0.00204130937444 -0.000362900695285 0)
(-0.00209722659086 -0.00031008367216 0)
(-0.00212080566953 -0.000254116961118 0)
(-0.00221236416383 -0.000193486054972 0)
(-0.00216683601202 -0.000124515062013 0)
(-0.00228248807908 -6.14334194833e-05 0)
(-0.00210855775278 5.01848800502e-06 0)
(-0.00227158230605 8.81409086611e-05 0)
(-0.00196383413629 0.000165928248677 0)
(-0.00189650315623 0.000215206577057 0)
(-0.00215262908843 0.000280988706637 0)
(-0.00173549426031 0.000173430422656 0)
(-0.00189978464119 0.00016680986086 0)
(-0.00243556543387 8.73214005333e-05 0)
(-0.00273996086257 -0.000238778246272 0)
(-0.00282224420736 -0.000405896642266 0)
(-0.00283443780935 -0.000261640879656 0)
(-0.00287847609006 -7.88018674871e-05 0)
(-0.00294284390393 -8.36971241692e-06 0)
(-0.00297487775043 2.51883634289e-05 0)
(-0.00298700203247 5.75479452422e-05 0)
(-0.00298455171159 9.1990695848e-05 8.01606480883e-28)
(-0.0029768717372 0.000121436005522 -8.43314359866e-28)
(-0.00296638908046 0.00013679395905 0)
(-0.00295281237159 0.000136469406303 0)
(-0.00293483751809 0.000134580652985 0)
(-0.00290796980558 0.00016141972129 0)
(-0.00287052200238 0.000270488129558 0)
(-0.00286259251251 0.000434934544174 0)
(-0.002907626701 0.000450781799777 0)
(-0.00292969157212 3.76641139967e-05 0)
(-0.0027880621616 -0.000385820101957 0)
(-0.00257416982006 -0.00035480294372 0)
(-0.00224785066408 -0.000104457121645 1.66974190816e-27)
(-0.00197240448532 0.000192853604558 -1.50947392403e-27)
(-0.00186150797901 0.000569030831179 0)
(-0.00181106053467 0.000982972580678 0)
(-0.00170952968298 0.00129059540968 0)
(-0.0014676642255 0.00138968049973 0)
(-0.000758344314102 0.000905552544852 0)
(-0.000460537528076 0.000549153258264 0)
(-0.000266415349926 0.000400099271341 0)
(-0.000134282981282 0.000374419690675 0)
(-7.02643740272e-06 0.000390252323019 0)
(0.000123262760749 0.000406710539154 0)
(0.000261152315788 0.000410823982673 0)
(0.000404565364869 0.000376188614821 0)
(0.000535478207826 0.000300781825179 0)
(0.000611427902792 0.000184194589726 0)
(0.000594753948546 4.44699702054e-05 0)
(0.000572394392165 -6.84785349684e-05 0)
(0.000539703738765 -0.00016293687409 0)
(0.000456159949943 -0.000247248106833 0)
(0.000290371215876 -0.000296742170307 0)
(0.000218142030268 -0.000462121921912 0)
(7.52657744918e-05 -0.000575326528606 0)
(1.63632493268e-06 -0.000441936823001 0)
(-1.75354757032e-05 -0.000353184504963 0)
(-0.000184640434847 -0.000763558403395 0)
(-0.000334839509276 -0.000687951235792 0)
(-0.000281637373064 -0.000370908862673 0)
(-0.000203218870645 -0.000188869555097 0)
(-0.000360496659332 -0.000346663313834 0)
(-0.000703324329622 -0.000638271713733 0)
(-0.000816612164716 -0.00059778297746 0)
(-0.00094496736199 -0.000522829402571 0)
(-0.00106906692398 -0.000485635332591 0)
(-0.00114984743708 -0.000398135465833 0)
(-0.00104222659021 -0.000194169596743 0)
(-0.000856242956871 -3.78463257228e-05 0)
(-0.000876668004735 2.46938318209e-05 0)
(-0.000943609250888 1.83060396772e-05 0)
(-0.00108382478798 -5.62746608905e-05 0)
(-0.00133111142097 -0.000224556710937 0)
(-0.00159479511591 -0.000411966665528 0)
(-0.00154338682696 -0.000430496624429 0)
(-0.00161630643052 -0.000467168906313 0)
(-0.00177582211828 -0.000523851644942 0)
(-0.00187144938521 -0.000514224196942 0)
(-0.0019514049572 -0.000469934038444 0)
(-0.0020100677541 -0.000414957715148 0)
(-0.00203923421671 -0.000362380668523 0)
(-0.00213953056352 -0.000295130106289 0)
(-0.00205395313799 -0.000211396273997 0)
(-0.00222742865944 -0.000139785262376 0)
(-0.00200785323641 -4.75556994681e-05 0)
(-0.00227348768462 4.02211444415e-05 -3.01679845253e-28)
(-0.00187904485165 0.000120356913975 2.33047382094e-28)
(-0.00209181209535 0.000214001215455 0)
(-0.00225071659264 0.000307051148354 0)
(-0.00185075458384 0.000241526000078 0)
(-0.0022585223937 0.000119855887144 0)
(-0.00245200534017 -0.00016217082332 0)
(-0.00273062747608 -0.000368309061837 0)
(-0.00285858628336 -0.000438159320455 0)
(-0.00284107371718 -0.000387282481038 0)
(-0.00285916857469 -0.000269354218825 0)
(-0.0029004285179 -0.000145052807268 0)
(-0.00294104278377 -6.51765184845e-05 0)
(-0.00297092279233 -7.28344422659e-06 0)
(-0.00297837395034 4.2818323551e-05 0)
(-0.00297889951213 8.65773064988e-05 0)
(-0.00296861388643 0.000119403691558 0)
(-0.00295304941788 0.000133762048939 0)
(-0.00293663283292 0.000135135619348 0)
(-0.00291178807758 0.000145044354782 0)
(-0.00288035159431 0.000191172618274 0)
(-0.00285223251532 0.000280679414425 0)
(-0.00284616677264 0.000363871086604 0)
(-0.00286027168845 0.000342640931036 0)
(-0.00284246757716 0.000197222141503 0)
(-0.00276600149901 4.40134090097e-05 0)
(-0.00266709940933 6.37295667257e-05 0)
(-0.00249108437665 0.000256346372268 0)
(-0.00212375953574 0.000427286907876 0)
(-0.00195226212161 0.000673986441518 0)
(-0.0018852384219 0.00107050508341 0)
(-0.00182013879399 0.00150104549464 0)
(-0.00168924132809 0.00184666138275 0)
(-0.00105071484282 0.00145671627891 0)
(-0.000560751177796 0.000825811611528 0)
(-0.000354890298839 0.000607320441289 0)
(-0.000179767630454 0.000552173761629 0)
(-1.0420831902e-05 0.000546597901183 0)
(0.000150613562189 0.000553473267566 0)
(0.000316871117124 0.000560341330575 0)
(0.000498716788366 0.000530823089711 0)
(0.000628631498817 0.000398911161989 0)
(0.000633764357243 0.000194668886734 0)
(0.00063205551037 3.11223232549e-05 0)
(0.000622624068616 -0.000106750765493 0)
(0.000576272070058 -0.000246735169643 0)
(0.000449177866601 -0.000348154086837 0)
(0.00031281143002 -0.000419977335242 0)
(0.000222009607924 -0.000622515589494 0)
(6.48803397536e-05 -0.000696024742818 0)
(4.91681077294e-06 -0.000402771937529 0)
(-3.18555507953e-05 -0.000436235469913 0)
(-0.000194165851938 -0.000866501133739 0)
(-0.000242546874773 -0.000628452418895 0)
(-0.000155748415012 -0.0002654303252 0)
(-0.000205386585679 -0.000272754547786 0)
(-0.00054015488309 -0.000651494203688 0)
(-0.000720045016585 -0.000782240799363 0)
(-0.000784944607299 -0.000706843872516 0)
(-0.000879111699778 -0.000639285718453 0)
(-0.000954270804794 -0.00051736711589 0)
(-0.000745943235849 -0.00026002653401 0)
(-0.00065225887717 -8.95311443988e-05 0)
(-0.000718556177616 -4.20164014708e-05 0)
(-0.000800088638301 -5.58332803025e-05 0)
(-0.000983565575247 -0.000144317662562 0)
(-0.00126302715772 -0.000308950968509 0)
(-0.00151700322601 -0.000445629024681 0)
(-0.00138412974592 -0.000399333474273 0)
(-0.00148510572104 -0.00047867625441 0)
(-0.00168587875249 -0.000615299140531 0)
(-0.00177401917091 -0.000634856991462 0)
(-0.00184870794059 -0.000597090939264 0)
(-0.0018972669206 -0.000539631063161 0)
(-0.00200448416645 -0.000489602942677 0)
(-0.00204145982745 -0.000388511429266 0)
(-0.00188971011785 -0.000294263868568 0)
(-0.00215863631845 -0.000242076179754 0)
(-0.00183993398507 -0.000115855775914 0)
(-0.00219928610893 -1.98166736286e-05 0)
(-0.00168682534072 8.68981230856e-05 0)
(-0.00208669036245 0.000159285787394 0)
(-0.00169749619692 0.000148171387212 0)
(-0.00191355533403 0.000220334592467 0)
(-0.002228440913 0.000112093928224 0)
(-0.00251857962302 -0.000217111289934 0)
(-0.00272128239108 -0.000449974452099 0)
(-0.00284156018719 -0.000535015742667 0)
(-0.00284457575136 -0.000481851778093 0)
(-0.00285868145194 -0.000402003042949 0)
(-0.00288331530081 -0.000310198221921 0)
(-0.00291589677744 -0.00020534673972 0)
(-0.00295300393382 -0.000116193101206 0)
(-0.00297107202552 -4.05456151167e-05 0)
(-0.00298393844426 2.38910800166e-05 0)
(-0.0029784846106 7.68306593955e-05 0)
(-0.00296979343527 0.000114352672421 0)
(-0.00295412371768 0.000130798365141 0)
(-0.00293178731711 0.000139760317772 0)
(-0.00289682892248 0.000166030913221 0)
(-0.00285510907056 0.000224152524599 0)
(-0.00281541958351 0.000304430357794 0)
(-0.00278431753733 0.000366946137424 0)
(-0.00276344875729 0.000361549372141 0)
(-0.00274426651828 0.000283558138648 0)
(-0.00273447630392 0.00020829557079 0)
(-0.0027314538217 0.000262572017576 0)
(-0.00275148988145 0.000470779432864 0)
(-0.00284797335839 0.000719277670915 0)
(-0.0025337390948 0.000858539691083 0)
(-0.00246269517772 0.00119416211446 0)
(-0.00230071054557 0.00160822212627 0)
(-0.00142813645733 0.00141178061581 0)
(-0.00163373068944 0.00225585899628 0)
(-0.000626375494861 0.0011155686594 0)
(-0.000435986725124 0.000807119630164 0)
(-0.000237290682487 0.000757448815951 0)
(-1.55451314141e-05 0.000738643914489 0)
(0.000195335290027 0.000731684893641 0)
(0.000412859317254 0.000756088096084 0)
(0.000615894576124 0.000691677626147 0)
(0.000676047594961 0.000444230127319 0)
(0.000687781824552 0.000209668939014 0)
(0.000721398062925 2.93066937942e-05 0)
(0.000705349266063 -0.000152955627911 0)
(0.000647114355266 -0.000347021919561 0)
(0.000487984625716 -0.000451318601227 0)
(0.000358090446633 -0.000543865413332 0)
(0.000251779625646 -0.000769659788093 0)
(7.81187104248e-05 -0.000830779619636 0)
(-1.30467625942e-05 -0.000436539663778 0)
(-0.000101364774997 -0.000599147515436 0)
(-0.000279605919312 -0.000944425810877 0)
(-0.000272456570733 -0.00081084361903 0)
(-0.000142977677522 -0.000320403538565 0)
(-0.000331538420794 -0.000525169744595 0)
(-0.000645210252544 -0.000877938912272 0)
(-0.000692587169366 -0.000860956328285 0)
(-0.00075715685623 -0.00077121601011 0)
(-0.00074096543497 -0.000646882961082 0)
(-0.000861357340158 -0.000502538321615 4.69886111472e-28)
(-0.000553679604222 -0.00016012875175 -2.16510061251e-28)
(-0.000671021058361 -0.000121915702333 0)
(-0.000709092531064 -0.000123960943217 0)
(-0.000848451825114 -0.000210455606151 0)
(-0.00113406547175 -0.000413040744195 0)
(-0.00140599727615 -0.000541086702892 0)
(-0.00121344103805 -0.000399012044557 0)
(-0.00131118761286 -0.000455038175798 0)
(-0.00156744764975 -0.000663399391695 0)
(-0.00166421907832 -0.000742456067703 0)
(-0.00175630013113 -0.000721356745523 0)
(-0.00182679041173 -0.000668076016025 0)
(-0.0018838524122 -0.00059449578735 0)
(-0.00188018106763 -0.00048595681962 0)
(-0.001782863734 -0.000353470244611 0)
(-0.00198047783902 -0.000312269742272 0)
(-0.00167153611588 -0.000216075297088 0)
(-0.00206313903593 -0.00011949781578 0)
(-0.00158788676597 5.70421652591e-05 0)
(-0.00193650506079 0.000118777525544 0)
(-0.00166134766671 9.67533649308e-05 2.00865201319e-28)
(-0.00195151300354 0.000164790555909 -2.45349054055e-28)
(-0.00184621830108 -3.24549575146e-06 0)
(-0.00251550419885 -0.000302646080806 0)
(-0.00271918354772 -0.000526130909935 0)
(-0.00280261699637 -0.000606840573786 0)
(-0.00282360727091 -0.000576118911072 0)
(-0.00284746821259 -0.000504712150881 0)
(-0.00288156154885 -0.000435813407694 0)
(-0.00290485759998 -0.00035371406095 0)
(-0.00294165088503 -0.000257970484801 0)
(-0.00297336197807 -0.000160407999394 0)
(-0.0029887448377 -7.14780064785e-05 0)
(-0.00299646793048 4.85364584933e-06 0)
(-0.00299081760106 6.60196341586e-05 0)
(-0.00298225430221 0.000106939125925 0)
(-0.00296399499905 0.000131366842837 0)
(-0.00293090558028 0.00015773428344 0)
(-0.00288017197042 0.000206763790479 0)
(-0.00282166600179 0.000279179791452 0)
(-0.00276041912054 0.00035726531639 0)
(-0.00270591545166 0.000408138837983 0)
(-0.00266512915145 0.000397915187465 0)
(-0.00264979131209 0.000327291167079 0)
(-0.00269257223623 0.000253558406168 0)
(-0.00280393742278 0.000255238423731 0)
(-0.00303110657789 0.000380289604069 0)
(-0.00340103436738 0.00063503298542 0)
(-0.00379314223902 0.000980710685581 0)
(-0.00397321780217 0.00146651901917 0)
(-0.00369524440123 0.00201996760009 0)
(-0.00345556417304 0.00270207127769 0)
(-0.00274578798169 0.00302444630605 0)
(-0.000963108330944 0.00154679536196 0)
(-0.000509680076425 0.00100182133389 0)
(-0.00029720304389 0.00102180470247 0)
(-6.33067582058e-06 0.00102099302413 0)
(0.000274405289716 0.00100514475117 0)
(0.000531267521975 0.000980741351639 0)
(0.000695776547148 0.00079554372483 0)
(0.000739771696148 0.000491640767976 0)
(0.000810628317274 0.00025428790069 0)
(0.000850940744105 3.1414496808e-05 0)
(0.000834918899148 -0.000213159306924 0)
(0.000731529404128 -0.000439076745212 0)
(0.000596615908199 -0.000591758329222 0)
(0.000421674328074 -0.000687198676429 0)
(0.000291424225184 -0.000921134842831 0)
(0.000100633511838 -0.00101778295238 0)
(-2.88490258597e-05 -0.000511908340777 0)
(-0.000167617109961 -0.000787280369962 0)
(-0.000333155174231 -0.000951624564903 0)
(-0.000147599083808 -0.000440857964752 0)
(-0.00014658010579 -0.000404444814751 0)
(-0.000455845325139 -0.000844790893026 0)
(-0.000597101628045 -0.000958450328263 0)
(-0.00067502496724 -0.0009340245516 0)
(-0.000653408982564 -0.000761945813128 0)
(-0.000705981677128 -0.000659884357907 0)
(-0.000483233865789 -0.000303452950799 0)
(-0.000568459582932 -0.000190692879719 0)
(-0.000654473724297 -0.00018744469501 0)
(-0.000704717760169 -0.000230016123185 0)
(-0.000960206362476 -0.000437454729285 0)
(-0.001270969678 -0.00063372726197 0)
(-0.00109432595907 -0.000472691802101 0)
(-0.00114751685714 -0.000448847863371 0)
(-0.00138761480928 -0.000652665328847 0)
(-0.00156886153119 -0.000819316545986 0)
(-0.00162587672429 -0.000834114265977 0)
(-0.00168236150015 -0.000792100391735 0)
(-0.00179950664799 -0.000753445053639 0)
(-0.00183450692805 -0.000648086977862 0)
(-0.00193591164249 -0.000483757438867 0)
(-0.00171130502539 -0.000363868682111 0)
(-0.00197058712083 -0.000295279809858 0)
(-0.00178212147592 -0.000184306036129 0)
(-0.00168008430598 -7.53443082643e-05 0)
(-0.0017016568152 9.02910015518e-06 0)
(-0.00210786457143 6.96247099491e-05 0)
(-0.00186926272637 0.000116205586004 0)
(-0.00173597167671 -2.13157677274e-05 0)
(-0.0024835678364 -0.000383882078539 0)
(-0.00264984317214 -0.000664852133391 0)
(-0.00276223185725 -0.000700286999821 0)
(-0.0027919831265 -0.000659447393211 0)
(-0.00281144934191 -0.000606273958347 0)
(-0.00285636326313 -0.000550794289077 0)
(-0.00290788044385 -0.000486161452776 0)
(-0.00294172193756 -0.000403403888898 0)
(-0.00297261885078 -0.000306595149373 0)
(-0.00300103263424 -0.00020086461271 0)
(-0.00301680392827 -9.93927135807e-05 0)
(-0.00301886047552 -1.29251538428e-05 7.30059980528e-28)
(-0.00301268227162 5.22947261001e-05 -7.72303389418e-28)
(-0.00300087589481 9.93918643271e-05 0)
(-0.00297730349963 0.0001408012742 0)
(-0.0029284839684 0.000194369193959 0)
(-0.00285960137999 0.000269458520688 0)
(-0.00278051856418 0.000357098517233 0)
(-0.00269420004411 0.000434190213817 0)
(-0.00261554022218 0.000473124454306 0)
(-0.00255986320645 0.000445875141791 0)
(-0.00255393643483 0.000347884452559 0)
(-0.00265196568237 0.000211694340263 0)
(-0.00292665015451 8.34046265073e-05 0)
(-0.00342579133321 2.95683770134e-05 0)
(-0.00415751138902 0.000190557470595 0)
(-0.00487163567915 0.000622759820183 0)
(-0.00497964113148 0.00121964559666 0)
(-0.00539207688753 0.00216619462336 0)
(-0.00521373146846 0.00325415516826 0)
(-0.00461987848423 0.00416737128535 0)
(-0.00274193164768 0.00341904321111 0)
(-0.000759867485225 0.00145597440065 0)
(-0.000388047776451 0.0013932455091 0)
(1.88313936268e-05 0.00135601462458 0)
(0.00036033481762 0.0012822922574 0)
(0.000624170759399 0.00116598575247 0)
(0.000773326436936 0.000894737622427 0)
(0.000871300841989 0.000586064943888 0)
(0.000985788517285 0.00032126506154 0)
(0.00102953388404 3.20542168825e-05 0)
(0.00100134345275 -0.00028316787703 0)
(0.000872312999731 -0.000547554498098 0)
(0.000743561260419 -0.00075794103414 0)
(0.000525291709016 -0.000889838720254 0)
(0.000331303909341 -0.00110263333973 0)
(0.000117416160905 -0.00125328010703 0)
(-4.35629698248e-05 -0.000615025607718 0)
(-0.000215276927492 -0.000969801744093 0)
(-0.00027256650085 -0.000939095800473 0)
(-0.00014374045911 -0.000481535906303 0)
(-0.000241963214756 -0.000573184496085 0)
(-0.000526806475128 -0.00102909130511 0)
(-0.000533085138184 -0.00102887861072 0)
(-0.000656135788872 -0.000992605565553 0)
(-0.000513128512733 -0.000678655585263 0)
(-0.00073736102075 -0.000741853491385 0)
(-0.000473713059769 -0.000317834038103 0)
(-0.000602837763623 -0.000271842331773 0)
(-0.000653047610136 -0.000270785989743 0)
(-0.000781578493203 -0.000403563259135 0)
(-0.00108820518018 -0.00069593730415 0)
(-0.00125023098372 -0.000714900447229 0)
(-0.00104916096128 -0.000489762827606 0)
(-0.00120237893079 -0.000599688255075 0)
(-0.00141358670974 -0.00083051042318 0)
(-0.00151814783679 -0.000924584908163 0)
(-0.00159939587403 -0.000909934133094 0)
(-0.001598999334 -0.000837244279252 0)
(-0.00167925556639 -0.000782147369305 0)
(-0.00165737186237 -0.000651835764943 0)
(-0.00156667427161 -0.000425846704261 0)
(-0.00184923589828 -0.000392364425955 0)
(-0.00148870308496 -0.000292747892422 0)
(-0.00208237702155 -0.000205682244489 0)
(-0.00161719562757 -0.000108418863956 0)
(-0.00221353525355 -0.000102183746668 0)
(-0.00168984765093 -1.63377840695e-05 0)
(-0.00224761492054 3.60685837131e-05 0)
(-0.00228600903112 -0.000301995333584 3.38039968632e-28)
(-0.00266077997019 -0.000724151861288 -4.56617782912e-28)
(-0.00270764160613 -0.000820598610552 0)
(-0.00274273728681 -0.000767627659114 0)
(-0.00278908284252 -0.000705161556779 0)
(-0.00282018117309 -0.000656232973303 0)
(-0.00287152046018 -0.000613852074092 0)
(-0.0029271153421 -0.000551208187981 0)
(-0.00297442200501 -0.000461041039467 0)
(-0.00301066872496 -0.000354585533227 0)
(-0.00303763543827 -0.000240352891286 0)
(-0.00305188212649 -0.000128578501029 0)
(-0.00305449212346 -3.18250008333e-05 0)
(-0.00304183657959 4.00672924659e-05 0)
(-0.00301761324836 9.3894414494e-05 0)
(-0.00298074171707 0.000155727780652 0)
(-0.00291880816981 0.000243682689557 0)
(-0.00283245414631 0.000349508566037 0)
(-0.00273116636954 0.000455021958571 0)
(-0.0026188211562 0.000536005105136 0)
(-0.00250865708537 0.000562548436957 0)
(-0.00242977572502 0.000505348908248 0)
(-0.00241385287551 0.000351412958823 0)
(-0.00255434227359 0.00011357740657 0)
(-0.00296121615781 -0.000211404062132 0)
(-0.00380385085052 -0.000581168756649 0)
(-0.00508655090426 -0.000678359270698 0)
(-0.00630931737903 -7.01482773096e-05 0)
(-0.00668037318481 0.000980285868649 0)
(-0.00635747915052 0.00200720753179 0)
(-0.00622847940363 0.00328130428517 0)
(-0.00623085211304 0.00490046203856 0)
(-0.00608843437209 0.00607661347099 0)
(-0.00208932662584 0.00284054498352 0)
(-0.000559685341565 0.0017526254802 0)
(9.8630669249e-05 0.00179206758524 0)
(0.000469410141085 0.0016179279959 0)
(0.000723847256645 0.00136843976731 0)