/*--------------------------------*- C++ -*----------------------------------*\
| =========                 |                                                 |
| \\      /  F ield         | OpenFOAM: The Open Source CFD Toolbox           |
|  \\    /   O peration     | Version:  v1806                                 |
|   \\  /    A nd           | Web:      www.OpenFOAM.com                      |
|    \\/     M anipulation  |                                                 |
\*---------------------------------------------------------------------------*/
FoamFile
{
    version     2.0;
    format      ascii;
    class       surfaceScalarField;
    location    "817";
    object      phia;
}
// * * * * * * * * * * * * * * * * * * * * * * * * * * * * * * * * * * * * * //

dimensions      [0 3 -1 0 0 0 0];
oriented        oriented;


internalField   nonuniform List<scalar> 
12640
(
5.01940749673e-08
-4.90432857742e-08
9.47176398577e-08
-4.35187478585e-08
1.33187971583e-07
-3.77045547471e-08
1.66104656337e-07
-3.22622722084e-08
1.92093270751e-07
-2.54225908228e-08
2.11180902131e-07
-1.86089661035e-08
2.27955489751e-07
-1.63512766693e-08
2.51412186843e-07
-2.30748392994e-08
2.81811722191e-07
-3.00384065879e-08
3.12432792561e-07
-3.02935425655e-08
3.42518671121e-07
-2.97892077827e-08
3.74512392608e-07
-3.17241379146e-08
4.06443785772e-07
-3.16804829398e-08
4.37494749963e-07
-3.0823317738e-08
4.69484110305e-07
-3.17822486568e-08
5.05387627574e-07
-3.57245959975e-08
5.43526291314e-07
-3.79704817392e-08
5.80895145873e-07
-3.72120937444e-08
6.17246170309e-07
-3.61871983863e-08
6.55346340788e-07
-3.79342872249e-08
6.99556759631e-07
-4.40407211332e-08
7.49311008891e-07
-4.95935358424e-08
8.00598399907e-07
-5.11323254192e-08
8.51500048049e-07
-5.07614729764e-08
9.01576186609e-07
-4.99424238124e-08
9.51214367439e-07
-4.95164293615e-08
1.00124634887e-06
-4.9912915593e-08
1.05134647059e-06
-4.9991211154e-08
1.10105997567e-06
-4.96058462088e-08
1.15065584352e-06
-4.94973771978e-08
1.20099054701e-06
-5.02359134609e-08
1.25165169926e-06
-5.05702295247e-08
1.3022270811e-06
-5.04840203285e-08
1.35432432467e-06
-5.20098371812e-08
1.40779345157e-06
-5.33763717196e-08
1.4619073597e-06
-5.40256847661e-08
1.51664649809e-06
-5.46465425303e-08
1.57057648582e-06
-5.38400757673e-08
1.62266300753e-06
-5.19923656029e-08
1.67309135726e-06
-5.03388316828e-08
1.72293886257e-06
-4.97560575984e-08
1.76997247592e-06
-4.69486612364e-08
1.81118875563e-06
-4.11289847479e-08
1.84823688611e-06
-3.69633496826e-08
1.88279869382e-06
-3.44714876722e-08
1.91452981598e-06
-3.16418956693e-08
1.94301476979e-06
-2.83888668556e-08
1.96747567648e-06
-2.43645382883e-08
1.9878248958e-06
-2.02448004645e-08
2.00614510927e-06
-1.82141952256e-08
2.02502477623e-06
-1.87627664778e-08
2.04127394346e-06
-1.61286987805e-08
2.0475967503e-06
-6.19033168794e-09
2.04630534512e-06
1.43229634713e-09
2.03676593615e-06
9.69482563655e-09
2.01648459174e-06
2.04474757253e-08
1.99692114513e-06
1.9756477335e-08
1.98304434202e-06
1.41005865583e-08
1.9649836472e-06
1.83282441887e-08
1.9432184276e-06
2.20848498559e-08
1.92910487104e-06
1.45025399611e-08
1.90847372539e-06
2.11042383495e-08
1.84412144185e-06
6.49105857342e-08
1.71251578834e-06
1.3211468975e-07
1.57041740614e-06
1.42461248532e-07
1.4621184414e-06
1.08548547643e-07
1.36100235579e-06
1.01335483953e-07
1.25766979383e-06
1.03565971211e-07
1.14612577071e-06
1.118084713e-07
1.02057867623e-06
1.25836958984e-07
8.8827246957e-07
1.32605169418e-07
7.5920882236e-07
1.2934772897e-07
6.37209013027e-07
1.22261169347e-07
5.09568056079e-07
1.27889048942e-07
4.00764558009e-07
1.09025205383e-07
3.06919626459e-07
9.40609223395e-08
2.40535936006e-07
6.66034983865e-08
1.67080022728e-07
7.36795351328e-08
1.01186918415e-07
6.61705440662e-08
1.01426127901e-07
2.67987857292e-08
-7.50652145189e-08
6.18878688539e-08
-7.78290383364e-08
9.59144383535e-08
-7.10660716164e-08
1.30665636127e-07
-6.6464126667e-08
1.72945977518e-07
-6.72006573905e-08
2.05987992905e-07
-5.11633769146e-08
2.29045803768e-07
-3.89673959414e-08
2.54078331118e-07
-4.76790904273e-08
2.821824036e-07
-5.77619557284e-08
3.12749956327e-07
-6.05073959735e-08
3.43675423889e-07
-6.04096126522e-08
3.72999434862e-07
-6.0762233034e-08
4.024489572e-07
-6.08855798092e-08
4.33241654379e-07
-6.13892264723e-08
4.65983482994e-07
-6.43336426321e-08
5.02799219385e-07
-7.23511502367e-08
5.39869209806e-07
-7.48788256488e-08
5.7219503679e-07
-6.93644590578e-08
6.05478759392e-07
-6.93082463807e-08
6.45750826394e-07
-7.80261189216e-08
6.93443331925e-07
-9.15628802623e-08
7.46331435666e-07
-1.02305364385e-07
7.99041429916e-07
-1.03692357917e-07
8.48638046287e-07
-1.00206073505e-07
8.97800476554e-07
-9.89768440643e-08
9.48483639116e-07
-1.00066360932e-07
9.98780471069e-07
-1.00096997066e-07
1.04844054731e-06
-9.95311787854e-08
1.09819081182e-06
-9.9254849604e-08
1.14818234119e-06
-9.93796841433e-08
1.19812691118e-06
-1.00089254884e-07
1.24804578586e-06
-1.00390168577e-07
1.29790298522e-06
-1.00255164693e-07
1.34982531574e-06
-1.03834809469e-07
1.40474407534e-06
-1.08210687126e-07
1.45944301749e-06
-1.08625049124e-07
1.51387255809e-06
-1.08987922667e-07
1.56937962157e-06
-1.09248231959e-07
1.62498791236e-06
-1.07513451822e-07
1.67701728736e-06
-1.02269747949e-07
1.71826479119e-06
-9.09193920832e-08
1.75187303561e-06
-8.04647454629e-08
1.78808432697e-06
-7.72598919576e-08
1.8267189212e-06
-7.5505816931e-08
1.86418389425e-06
-7.18526624716e-08
1.89965080023e-06
-6.70123329472e-08
1.93202036962e-06
-6.06687034222e-08
1.96125324757e-06
-5.34942684011e-08
1.9867552449e-06
-4.56481122354e-08
2.00498526756e-06
-3.63310893345e-08
2.01290862316e-06
-2.6575998946e-08
2.01763670921e-06
-2.07315623913e-08
2.0320762579e-06
-2.05022041472e-08
2.0425483811e-06
-8.89274847318e-09
2.03819666986e-06
1.41995262472e-08
2.03287206267e-06
2.59491349434e-08
2.02604268446e-06
2.67822109023e-08
2.01211229138e-06
2.82661565264e-08
1.99713920468e-06
3.35757787318e-08
1.97877517623e-06
4.07835745602e-08
1.93957826328e-06
5.40838829475e-08
1.89350618959e-06
6.76386883548e-08
1.82020474539e-06
1.38736843595e-07
1.69051134244e-06
2.62295057092e-07
1.525421086e-06
3.07883481903e-07
1.36677707768e-06
2.67431295599e-07
1.27034778192e-06
1.97975381102e-07
1.20062406518e-06
1.73520132996e-07
1.11094719965e-06
2.01743495017e-07
9.91861518039e-07
2.45210743309e-07
8.52904177543e-07
2.7185324895e-07
7.13637640519e-07
2.68885537285e-07
5.9822713773e-07
2.37928599203e-07
5.11782091389e-07
2.14594599626e-07
4.27967907081e-07
1.93094105242e-07
3.50528541249e-07
1.71749795538e-07
2.69742357231e-07
1.47644070796e-07
1.9786271504e-07
1.45831299757e-07
1.03545146999e-07
1.60834570408e-07
2.05180620888e-07
3.26580987353e-08
-1.07216901624e-07
5.04776492554e-08
-9.50018309906e-08
8.95483259483e-08
-1.09502685397e-07
1.34230890499e-07
-1.10583483693e-07
1.76236050522e-07
-1.08715160993e-07
1.99603430707e-07
-7.41220394247e-08
2.15306861843e-07
-5.42414940234e-08
2.42326701902e-07
-7.42412596553e-08
2.73389149118e-07
-8.84036009766e-08
3.04807132889e-07
-9.15593075883e-08
3.35941475095e-07
-9.12226157871e-08
3.65537673956e-07
-9.00890019617e-08
3.94691788704e-07
-8.98078048727e-08
4.2576891616e-07
-9.22612795342e-08
4.56376846713e-07
-9.47496632336e-08
4.75618924718e-07
-9.14178071493e-08
4.87397576392e-07
-8.64876756908e-08
5.12497741375e-07
-9.43006480173e-08
5.58610581549e-07
-1.15245728958e-07
6.22756529573e-07
-1.41993713156e-07
6.8862743451e-07
-1.57253649758e-07
7.42323443522e-07
-1.55835947856e-07
7.9087191865e-07
-1.52082669205e-07
8.41622789291e-07
-1.50814727271e-07
8.92703708467e-07
-1.49920529879e-07
9.42231596742e-07
-1.49470001619e-07
9.91560759951e-07
-1.49304060823e-07
1.04139517149e-06
-1.49254391729e-07
1.09137570865e-06
-1.49125426852e-07
1.14172581658e-06
-1.4963029271e-07
1.19138363836e-06
-1.49648471006e-07
1.24130589461e-06
-1.50220204557e-07
1.2926465973e-06
-1.51503539246e-07
1.34253605103e-06
-1.53634920905e-07
1.39572761673e-06
-1.61305753727e-07
1.45477183446e-06
-1.67576992678e-07
1.51083497569e-06
-1.64954823728e-07
1.56494978528e-06
-1.63270997637e-07
1.62156002082e-06
-1.64028611467e-07
1.67577740939e-06
-1.56398100866e-07
1.72549324741e-06
-1.40544422907e-07
1.7711349559e-06
-1.26021068122e-07
1.81207971168e-06
-1.18116066859e-07
1.84956309421e-06
-1.12904044138e-07
1.88443107357e-06
-1.06630691392e-07
1.91632835488e-06
-9.8821160541e-08
1.9453242835e-06
-8.95699274868e-08
1.97118286675e-06
-7.92577845146e-08
1.99354377411e-06
-6.79063577237e-08
2.01271881258e-06
-5.54017133477e-08
2.02930727619e-06
-4.30509288923e-08
2.04157702178e-06
-3.28829529692e-08
2.04362026007e-06
-2.24154564057e-08
2.03939966815e-06
-4.5339259397e-09
2.03887984005e-06
1.48742976603e-08
2.03777111087e-06
2.72302628105e-08
2.02901489621e-06
3.5738456919e-08
2.01361201773e-06
4.39005239411e-08
1.99414761178e-06
5.33143418102e-08
1.96933394894e-06
6.59155475192e-08
1.93766926597e-06
8.61231403906e-08
1.868343534e-06
1.37397570951e-07
1.72145005385e-06
2.86088553571e-07
1.52346274869e-06
4.60674223973e-07
1.37227249752e-06
4.59369722995e-07
1.30361410466e-06
3.36318733705e-07
1.22342414207e-06
2.78374957522e-07
1.1206721273e-06
2.76486832887e-07
1.00818448949e-06
3.14469372011e-07
8.83707141331e-07
3.69950268064e-07
7.64465130907e-07
3.913645541e-07
6.71691138825e-07
3.61927827799e-07
5.91567644123e-07
3.18322653568e-07
5.10351407522e-07
2.96070974248e-07
4.16219025489e-07
2.8747449672e-07
3.22098248065e-07
2.66119794254e-07
2.42796227369e-07
2.27192960357e-07
1.83630662913e-07
2.05241786101e-07
7.90648472244e-08
2.65686052852e-07
2.84367298148e-07
2.24410598401e-08
-1.29010869366e-07
3.09890782885e-08
-1.03107273067e-07
7.3076518e-08
-1.51029820832e-07
1.09138674598e-07
-1.46129745051e-07
1.1557978789e-07
-1.14760487764e-07
1.0622311335e-07
-6.4535253761e-08
1.47574978722e-07
-9.52551460834e-08
2.10997689837e-07
-1.37189785592e-07
2.55902570887e-07
-1.32874104434e-07
2.90995720155e-07
-1.26277961986e-07
3.23993702347e-07
-1.23914171372e-07
3.54915681983e-07
-1.20759187759e-07
3.82403487351e-07
-1.17079269563e-07
3.98882507239e-07
-1.08550550483e-07
4.06799216572e-07
-1.02486627132e-07
4.22830560819e-07
-1.07265812644e-07
4.59791067139e-07
-1.23265577794e-07
5.17054887201e-07
-1.51376109913e-07
5.82857691792e-07
-1.80859974242e-07
6.38390948831e-07
-1.97342843798e-07
6.84008646563e-07
-2.02698008479e-07
7.32241212443e-07
-2.03901659356e-07
7.82695090414e-07
-2.02382900803e-07
8.32334402158e-07
-2.00308949946e-07
8.81565036313e-07
-1.99018802258e-07
9.30769514153e-07
-1.98547651471e-07
9.8067317716e-07
-1.9909078708e-07
1.03083288713e-06
-1.99299759008e-07
1.08141606587e-06
-1.99603110571e-07
1.13141425167e-06
-1.99526910737e-07
1.18237272331e-06
-2.00512232308e-07
1.23155474964e-06
-1.99310290562e-07
1.2802412213e-06
-2.00098055342e-07
1.33701760447e-06
-2.1031533437e-07
1.39428845309e-06
-2.18482638081e-07
1.45095052453e-06
-2.24142309577e-07
1.51367725457e-06
-2.27587100236e-07
1.5741848421e-06
-2.2368405616e-07
1.62671385409e-06
-2.16467686729e-07
1.67555513e-06
-2.05148638747e-07
1.72391697933e-06
-1.88818722006e-07
1.77052129817e-06
-1.72537382427e-07
1.81301260684e-06
-1.60522885211e-07
1.8513720455e-06
-1.51177605964e-07
1.88641070644e-06
-1.41584831318e-07
1.91836670788e-06
-1.30689255196e-07
1.94730600451e-06
-1.18420572395e-07
1.97309892284e-06
-1.04956879199e-07
1.99561447351e-06
-9.03257166074e-08
2.0149484945e-06
-7.46330451135e-08
2.03069537599e-06
-5.86913884022e-08
2.0409851952e-06
-4.30584676919e-08
2.04448655139e-06
-2.57952467157e-08
2.04487009939e-06
-4.78286948724e-09
2.04395644602e-06
1.59366624867e-08
2.03878439475e-06
3.25720674743e-08
2.02757815292e-06
4.71388849356e-08
2.00957649031e-06
6.21282363938e-08
1.9832717775e-06
7.98806715349e-08
1.94380219156e-06
1.05686081522e-07
1.87719949488e-06
1.53062395894e-07
1.76137803951e-06
2.53589153383e-07
1.62068801311e-06
4.27153754934e-07
1.49390737474e-06
5.87803840249e-07
1.35168235636e-06
6.0188480609e-07
1.21766916088e-06
4.70553091747e-07
1.11391731441e-06
3.82319394071e-07
1.02375899705e-06
3.6684409332e-07
9.36367763506e-07
4.02083346543e-07
8.42259418557e-07
4.64309417315e-07
7.3856955133e-07
4.95325053032e-07
6.34301808207e-07
4.66466821057e-07
5.29894582723e-07
4.22972019025e-07
4.28277557501e-07
3.97906774367e-07
3.34896527738e-07
3.8107355887e-07
2.39754009618e-07
3.61480457045e-07
1.58021531714e-07
3.09109455064e-07
1.05998233168e-07
2.57418999378e-07
5.44647830457e-08
3.17389287829e-07
3.38923769287e-07
3.91333046923e-09
-1.32701587739e-07
2.55288430053e-08
-1.24379669225e-07
5.77704499335e-08
-1.82832493273e-07
8.37355222257e-08
-1.71718351452e-07
8.10072326588e-08
-1.11737506384e-07
1.05268706391e-07
-8.85192867678e-08
1.56651970051e-07
-1.46236373158e-07
1.95719384335e-07
-1.75823312928e-07
2.32538321089e-07
-1.69278182121e-07
2.69349478308e-07
-1.62741162832e-07
3.05665369855e-07
-1.59949941869e-07
3.31003460729e-07
-1.45866087361e-07
3.39510629102e-07
-1.25396752271e-07
3.4865910001e-07
-1.17511961068e-07
3.76731448607e-07
-1.30356937951e-07
4.23916431164e-07
-1.54241408158e-07
4.82865200079e-07
-1.82002850316e-07
5.39200054625e-07
-2.07506504156e-07
5.83272148238e-07
-2.2474068167e-07
6.23911280075e-07
-2.37802400478e-07
6.70065665602e-07
-2.48680103579e-07
7.19125778752e-07
-2.52799152661e-07
7.68533966273e-07
-2.51638076429e-07
8.17547268181e-07
-2.49181530286e-07
8.66518659672e-07
-2.47857585038e-07
9.16245398058e-07
-2.48151888685e-07
9.65891276779e-07
-2.48617512744e-07
1.01676464788e-06
-2.5006257842e-07
1.06677428808e-06
-2.49508678048e-07
1.11736223504e-06
-2.50017229506e-07
1.1655515879e-06
-2.48607394324e-07
1.2178873697e-06
-2.51552496107e-07
1.27643049109e-06
-2.58545931218e-07
1.33265613031e-06
-2.66443746055e-07
1.39302011292e-06
-2.78747607538e-07
1.45728756332e-06
-2.88313229751e-07
1.51688955196e-06
-2.87094560563e-07
1.57265404028e-06
-2.79357715034e-07
1.62493071227e-06
-2.68654321763e-07
1.67473316466e-06
-2.54863388493e-07
1.72357357097e-06
-2.37571926033e-07
1.77070690486e-06
-2.19586177076e-07
1.81422152594e-06
-2.03953683086e-07
1.85353144665e-06
-1.90405735751e-07
1.88909850981e-06
-1.77069446449e-07
1.92130965025e-06
-1.62817885553e-07
1.95031490537e-06
-1.47340446299e-07
1.97607395878e-06
-1.30628508619e-07
1.99849619007e-06
-1.12656010027e-07
2.01744915497e-06
-9.34909832568e-08
2.03231945123e-06
-7.3461302859e-08
2.04192117448e-06
-5.25545486474e-08
2.04608492147e-06
-2.98443930635e-08
2.04671247996e-06
-5.28476962469e-09
2.0442011077e-06
1.85898222532e-08
2.03636001732e-06
4.05743451374e-08
2.02074088897e-06
6.29433021156e-08
1.99419973265e-06
8.88821913652e-08
1.95147876737e-06
1.22844187642e-07
1.88383414259e-06
1.73600471068e-07
1.78102573062e-06
2.56167501208e-07
1.65031539244e-06
3.84609530638e-07
1.53506327134e-06
5.42715543727e-07
1.43909515055e-06
6.84078209855e-07
1.33994806441e-06
7.01302567083e-07
1.20894545029e-06
6.01771718596e-07
1.06703667043e-06
5.24418482062e-07
9.4598287092e-07
4.88087050506e-07
8.4850879963e-07
4.99761167976e-07
7.56390294254e-07
5.56660907418e-07
6.51701446244e-07
6.00267054598e-07
5.46298760226e-07
5.72099358469e-07
4.48288245813e-07
5.21180459191e-07
3.51792744671e-07
4.94591877129e-07
2.56723496175e-07
4.76334172595e-07
1.71608058224e-07
4.46775239727e-07
1.22038230197e-07
3.58816838789e-07
7.50091958244e-08
3.04566225136e-07
2.91370168614e-08
3.63405797181e-07
3.68122410749e-07
9.6752824617e-10
-1.33321589337e-07
2.88514078957e-08
-1.51958390702e-07
4.53032249051e-08
-1.9892946532e-07
5.73774234681e-08
-1.83453234035e-07
5.70251555063e-08
-1.11155368873e-07
1.07447512231e-07
-1.38616517599e-07
1.54630981133e-07
-1.93008256722e-07
1.79475415337e-07
-2.00257736723e-07
2.09811704949e-07
-1.99257974904e-07
2.41736640901e-07
-1.94350455167e-07
2.65375820884e-07
-1.83325546181e-07
2.65595845633e-07
-1.45898890729e-07
2.75641756228e-07
-1.35258247878e-07
3.08206407681e-07
-1.49872610183e-07
3.58375924071e-07
-1.80301734035e-07
4.20897105587e-07
-2.16527148641e-07
4.78889345086e-07
-2.39771711319e-07
5.21368485737e-07
-2.49785029612e-07
5.60152349754e-07
-2.63337973922e-07
6.06323529614e-07
-2.83794435802e-07
6.54182443511e-07
-2.96368594465e-07
7.01465921769e-07
-2.99922040401e-07
7.49747587021e-07
-2.99770206068e-07
7.9915362521e-07
-2.98446892867e-07
8.48447765578e-07
-2.97021877855e-07
8.95813932966e-07
-2.95395227471e-07
9.46656051457e-07
-2.99345371124e-07
9.96830354562e-07
-3.00128868094e-07
1.04786293899e-06
-3.00438201113e-07
1.09423969145e-06
-2.96296589375e-07
1.14489656798e-06
-2.99169712876e-07
1.19978340836e-06
-3.06344059185e-07
1.25707422008e-06
-3.15739098773e-07
1.32616510707e-06
-3.35434218351e-07
1.3955353661e-06
-3.48017945716e-07
1.45745122911e-06
-3.50132788687e-07
1.51480766204e-06
-3.44358929165e-07
1.56980040588e-06
-3.34260994881e-07
1.62272645205e-06
-3.21493217859e-07
1.67381992057e-06
-3.05870649507e-07
1.72354798211e-06
-2.87215440878e-07
1.77132218157e-06
-2.67277390891e-07
1.81572916873e-06
-2.48280260675e-07
1.85601927154e-06
-2.30616924847e-07
1.8923171699e-06
-2.13289583904e-07
1.92494541994e-06
-1.95367732677e-07
1.95408618947e-06
-1.76401960034e-07
1.97973785181e-06
-1.56198500277e-07
2.00179295269e-06
-1.34627221489e-07
2.02002826752e-06
-1.11639115695e-07
2.03392570181e-06
-8.72680393767e-08
2.04285290501e-06
-6.13856522188e-08
2.04687057019e-06
-3.37576011513e-08
2.04659704723e-06
-4.89445088232e-09
2.04119672392e-06
2.41232611553e-08
2.0278654032e-06
5.40571219717e-08
2.00272872091e-06
8.82520202414e-08
1.96048822828e-06
1.31318075689e-07
1.89418711498e-06
1.8936356194e-07
1.79790206749e-06
2.70124421903e-07
1.67373565213e-06
3.80586024579e-07
1.5416331471e-06
5.16969811688e-07
1.44038896738e-06
6.44226000273e-07
1.33989748633e-06
7.84840136025e-07
1.22181251341e-06
8.19625470851e-07
1.11400610293e-06
7.0977114222e-07
9.88442681587e-07
6.50159604794e-07
8.64813359376e-07
6.11894337726e-07
7.61856136132e-07
6.02909322971e-07
6.62629089044e-07
6.56101483932e-07
5.57347956708e-07
7.05761941435e-07
4.67564757393e-07
6.62067861267e-07
3.72160435988e-07
6.16753681086e-07
2.75408545378e-07
5.9151307827e-07
1.87498061995e-07
5.64411616842e-07
1.30904172663e-07
5.03514138293e-07
8.59543221308e-08
4.03881408151e-07
4.53025896867e-08
3.4532623356e-07
1.91740994442e-08
3.89642640307e-07
3.8735852668e-07
9.77261924463e-09
-1.42945360524e-07
3.93027639815e-08
-1.81212578866e-07
5.11966530237e-08
-2.10532131412e-07
4.23278380997e-08
-1.74302313014e-07
6.24265046894e-08
-1.30979768178e-07
1.14370739464e-07
-1.90185321829e-07
1.39449715045e-07
-2.17691323676e-07
1.60322087642e-07
-2.2078550317e-07
1.82682986092e-07
-2.21283420541e-07
2.1383957235e-07
-2.25239376874e-07
2.17124114934e-07
-1.86392648827e-07
2.2268029983e-07
-1.5126891569e-07
2.52801606415e-07
-1.6517226871e-07
2.94020754919e-07
-1.90859621889e-07
3.52793638562e-07
-2.38824451569e-07
4.11043496162e-07
-2.7453728471e-07
4.51725176508e-07
-2.80238960609e-07
4.88533711388e-07
-2.86396529618e-07
5.36395301573e-07
-3.11009577169e-07
5.85710436812e-07
-3.32929006439e-07
6.32383003024e-07
-3.42872366901e-07
6.79518990468e-07
-3.46900693138e-07
7.28127472713e-07
-3.48229163025e-07
7.75829372013e-07
-3.46011584446e-07
8.22719245506e-07
-3.43784671491e-07
8.71043477009e-07
-3.43599153271e-07
9.19758379042e-07
-3.4794632816e-07
9.71088979193e-07
-3.51352063645e-07
1.01930501147e-06
-3.48553612373e-07
1.06695788453e-06
-3.43852585192e-07
1.12419092999e-06
-3.56304175022e-07
1.18446432549e-06
-3.6651983639e-07
1.25278072513e-06
-3.83955001746e-07
1.3226726362e-06
-4.05224739242e-07
1.39116389739e-06
-4.16410628015e-07
1.45273560733e-06
-4.11610313947e-07
1.51021999948e-06
-4.01752773416e-07
1.56597436587e-06
-3.89927863133e-07
1.62026803793e-06
-3.75701254195e-07
1.67288869984e-06
-3.58407588373e-07
1.72379269379e-06
-3.38037489574e-07
1.77245075265e-06
-3.158561335e-07
1.817799223e-06
-2.93551809414e-07
1.85908943538e-06
-2.71832646328e-07
1.89620977971e-06
-2.50336659511e-07
1.92933036124e-06
-2.28415963321e-07
1.95857586662e-06
-2.05574735487e-07
1.98393419277e-06
-1.81483512892e-07
2.00530463802e-06
-1.55923029142e-07
2.02250209284e-06
-1.28759634173e-07
2.03519734805e-06
-9.98839020915e-08
2.04303714988e-06
-6.91395525353e-08
2.04583237288e-06
-3.64580101972e-08
2.04299658927e-06
-1.9495840708e-09
2.03231610016e-06
3.49278418571e-08
2.00976207206e-06
7.67502816039e-08
1.97027436102e-06
1.27896825959e-07
1.90879754245e-06
1.92971507869e-07
1.82246769064e-06
2.75888270977e-07
1.71399257601e-06
3.78810016497e-07
1.59746862543e-06
4.97330983465e-07
1.49411774812e-06
6.20551409983e-07
1.3900207315e-06
7.48559312429e-07
1.28251112695e-06
8.92581374047e-07
1.1322862972e-06
9.70054904183e-07
1.013078158e-06
8.29152876661e-07
9.16745711276e-07
7.46659570632e-07
8.0480750393e-07
7.24003430028e-07
6.87639015602e-07
7.20255094338e-07
5.75113244548e-07
7.68809846902e-07
4.85910465086e-07
7.95137016671e-07
3.98787876301e-07
7.49345572682e-07
2.96486184248e-07
7.19209097842e-07
2.02241545055e-07
6.85910144999e-07
1.29276976556e-07
6.37519401016e-07
9.2937718997e-08
5.39977386805e-07
4.67313582466e-08
4.50193339764e-07
1.05079432873e-08
3.81644594695e-07
5.34353297907e-09
3.94921440897e-07
3.92751339558e-07
1.75554527376e-08
-1.60140458562e-07
4.01388711762e-08
-2.03506955652e-07
4.5070739842e-08
-2.15162405036e-07
2.80315457809e-08
-1.57040054396e-07
6.40659821538e-08
-1.66726187947e-07
1.01627954249e-07
-2.27369652255e-07
1.2050428013e-07
-2.36232215091e-07
1.40756010998e-07
-2.40713447814e-07
1.49674602151e-07
-2.29944682457e-07
1.67868230664e-07
-2.43170220891e-07
1.65742210172e-07
-1.84081288847e-07
1.96483756719e-07
-1.81801909885e-07
2.3087438705e-07
-1.99334862024e-07
2.81930597033e-07
-2.41668420005e-07
3.38816645455e-07
-2.95450498371e-07
3.79679040102e-07
-3.15162116711e-07
4.12697245134e-07
-3.13050346135e-07
4.5959599905e-07
-3.33097121663e-07
5.11195452989e-07
-3.62416497314e-07
5.585475406e-07
-3.80100752943e-07
6.0458435888e-07
-3.88741396276e-07
6.51416828551e-07
-3.9357373091e-07
7.0108584519e-07
-3.97753036489e-07
7.50536740477e-07
-3.95329756036e-07
7.95296968377e-07
-3.88417526278e-07
8.46653615552e-07
-3.94838020643e-07
8.94210156425e-07
-3.95390982511e-07
9.40737051307e-07
-3.97772814047e-07
9.88601836045e-07
-3.96317763238e-07
1.05405571746e-06
-4.09205390448e-07
1.11356949748e-06
-4.15717837811e-07
1.17318628417e-06
-4.26034119014e-07
1.24461201214e-06
-4.55278876623e-07
1.31875209118e-06
-4.79264114059e-07
1.38335190483e-06
-4.80913541344e-07
1.44438789137e-06
-4.72553744546e-07
1.50363591142e-06
-4.60912059329e-07
1.56132724793e-06
-4.47533515793e-07
1.61748136195e-06
-4.31772189376e-07
1.67189046569e-06
-4.12735653245e-07
1.7242809257e-06
-3.9034935403e-07
1.77412565499e-06
-3.65625003814e-07
1.82059155452e-06
-3.39944969097e-07
1.86297016677e-06
-3.14141138515e-07
1.90097343764e-06
-2.88272270192e-07
1.93458404693e-06
-2.61960476786e-07
1.9638059687e-06
-2.3473190285e-07
1.98858865611e-06
-2.06202507257e-07
2.00887318818e-06
-1.76142969611e-07
2.02459130186e-06
-1.4441450006e-07
2.03559708349e-06
-1.10820082847e-07
2.0415804737e-06
-7.50491435432e-08
2.04182105897e-06
-3.66115910197e-08
2.03444517581e-06
5.52915450514e-09
2.01571876211e-06
5.37682086225e-08
1.98064428561e-06
1.11952863367e-07
1.92512198171e-06
1.83562556177e-07
1.84855847229e-06
2.69687526021e-07
1.75405771745e-06
3.70561708016e-07
1.64728508562e-06
4.85766057897e-07
1.54155357645e-06
6.03257414104e-07
1.44651127269e-06
7.15796029115e-07
1.35949584688e-06
8.35780963258e-07
1.29040065635e-06
9.61882501601e-07
1.16221989389e-06
1.09843731127e-06
9.53387191551e-07
1.03815897942e-06
8.17768242799e-07
8.82428771168e-07
7.05236990947e-07
8.36686130196e-07
5.92350856783e-07
8.33294373933e-07
5.00550112588e-07
8.60760961949e-07
4.25252408367e-07
8.70576889739e-07
3.24976684006e-07
8.49760764659e-07
2.17680214629e-07
8.26647408246e-07
1.3068888636e-07
7.73041283173e-07
7.55719450317e-08
6.92765276629e-07
3.5660074806e-08
5.80003074649e-07
-3.93569836666e-09
4.89895562876e-07
-3.39913437584e-08
4.11802017758e-07
-2.26494564393e-08
3.83671153767e-07
3.70161081351e-07
2.06046225464e-08
-1.80586874425e-07
3.39735910441e-08
-2.16600283408e-07
2.93852801938e-08
-2.10343646645e-07
3.1729933829e-08
-1.59151682818e-07
6.89918480361e-08
-2.03687058559e-07
8.34172634776e-08
-2.41473936597e-07
9.96265354627e-08
-2.52148787125e-07
1.18510843641e-07
-2.59335331476e-07
1.2392364627e-07
-2.35104521893e-07
1.34540646355e-07
-2.53555084792e-07
1.47702047783e-07
-1.97035580284e-07
1.75877723804e-07
-2.09758956591e-07
2.12005619413e-07
-2.35214787848e-07
2.66271918474e-07
-2.9566604942e-07
3.13912414384e-07
-3.42839974047e-07
3.43786413576e-07
-3.44812752589e-07
3.80567868028e-07
-3.49623734542e-07
4.29579064542e-07
-3.81905010285e-07
4.79164402932e-07
-4.11808223297e-07
5.26488188117e-07
-4.27241858569e-07
5.73086770576e-07
-4.35166361432e-07
6.18551613489e-07
-4.3888294271e-07
6.64999183289e-07
-4.44060878682e-07
7.13064221698e-07
-4.43263668026e-07
7.57639481614e-07
-4.32873147594e-07
8.07000270164e-07
-4.44081826998e-07
8.59312340549e-07
-4.47591958184e-07
9.14778398604e-07
-4.5313396767e-07
9.72962014884e-07
-4.54400552051e-07
1.03015109167e-06
-4.66292187625e-07
1.09253536797e-06
-4.77997152871e-07
1.16929009798e-06
-5.02683065068e-07
1.24236547106e-06
-5.28249671504e-07
1.30798433571e-06
-5.44782942178e-07
1.37158482155e-06
-5.44419391e-07
1.43420062112e-06
-5.35079142979e-07
1.49573443369e-06
-5.22358943054e-07
1.55580427526e-06
-5.07519521332e-07
1.61420710968e-06
-4.9009403458e-07
1.67072898093e-06
-4.69179410797e-07
1.7249900569e-06
-4.44535347242e-07
1.77640955667e-06
-4.16972853944e-07
1.82426351817e-06
-3.87730581451e-07
1.86788972866e-06
-3.57702584054e-07
1.90685210904e-06
-3.2717313523e-07
1.9409072592e-06
-2.95957474138e-07
1.96989535512e-06
-2.63665374814e-07
1.99371701673e-06
-2.29970382459e-07
2.01237643552e-06
-1.94754225048e-07
2.02597406947e-06
-1.57956669798e-07
2.0345255252e-06
-1.19317783562e-07
2.03765267283e-06
-7.81075261105e-08
2.03395907961e-06
-3.28329885158e-08
2.02022420462e-06
1.93604568267e-08
1.9912697856e-06
8.2831286629e-08
1.94212663935e-06
1.61212162111e-07
1.8726901462e-06
2.53115041588e-07
1.78958023146e-06
3.5293696623e-07
1.69697396149e-06
4.63310855038e-07
1.58988877645e-06
5.93012992801e-07
1.48042031448e-06
7.12898136492e-07
1.38966413086e-06
8.06730457775e-07
1.32172246051e-06
9.03908170683e-07
1.27056992257e-06
1.01322534144e-06
1.2227299294e-06
1.14646844569e-06
1.01594626826e-06
1.24511545428e-06
7.40355076456e-07
1.15817638981e-06
6.15411738135e-07
9.61766371663e-07
5.23497993297e-07
9.25339495741e-07
4.47763227192e-07
9.36622465517e-07
3.62418117268e-07
9.5604861714e-07
2.45330363979e-07
9.66982515038e-07
1.33273330526e-07
9.38842255416e-07
5.72932117584e-08
8.49152868327e-07
5.78763176171e-09
7.44393195795e-07
-4.45563778135e-08
6.30462517748e-07
-7.80663916042e-08
5.23510656209e-07
-8.88723528161e-08
4.22704084144e-07
-5.68881836555e-08
3.51795612829e-07
3.13315417723e-07
2.10191811868e-08
-2.01195016996e-07
3.11212722807e-08
-2.26386178663e-07
1.9478300714e-08
-1.984393531e-07
3.22330639591e-08
-1.71676456321e-07
6.04435718618e-08
-2.31607717077e-07
6.50753163014e-08
-2.45842243524e-07
7.66103907859e-08
-2.63401313025e-07
8.66357904685e-08
-2.69131250132e-07
1.0215951864e-07
-2.50409812654e-07
9.78485084431e-08
-2.49019717576e-07
1.21780892317e-07
-2.20759813574e-07
1.53249291302e-07
-2.40990525779e-07
1.89600846345e-07
-2.71323705094e-07
2.36670352917e-07
-3.42471928148e-07
2.72747383031e-07
-3.78668229408e-07
2.97397810907e-07
-3.69249334943e-07
3.41157537031e-07
-3.93173817162e-07
3.91938762637e-07
-4.32479454927e-07
4.40774135785e-07
-4.60446802796e-07
4.89274687462e-07
-4.75558121534e-07
5.37775533663e-07
-4.83501797868e-07
5.84899708117e-07
-4.8585375724e-07
6.2798090794e-07
-4.86996242703e-07
6.74013211836e-07
-4.89167955316e-07
7.24816731677e-07
-4.83558101549e-07
7.70786129348e-07
-4.8993377854e-07
8.20453874022e-07
-4.97153050567e-07
8.68583931696e-07
-5.01161842335e-07
9.3463783138e-07
-5.20350013555e-07
1.00282832137e-06
-5.34378979496e-07
1.07545244165e-06
-5.50514075867e-07
1.14846572092e-06
-5.75587976207e-07
1.22549015159e-06
-6.0516857622e-07
1.29366742987e-06
-6.1286195073e-07
1.35817080345e-06
-6.08829923249e-07
1.42256983963e-06
-5.99389337467e-07
1.48660262322e-06
-5.86306433569e-07
1.5493783441e-06
-5.70213548663e-07
1.61040432785e-06
-5.51041813384e-07
1.66939597273e-06
-5.2809635068e-07
1.72592466811e-06
-5.00992926192e-07
1.77935566916e-06
-4.70336354424e-07
1.82896946885e-06
-4.37281058106e-07
1.87409043264e-06
-4.02764537574e-07
1.91413876603e-06
-3.67167284733e-07
1.94861433647e-06
-3.30383974317e-07
1.97712129941e-06
-2.92126587417e-07
1.99947423002e-06
-2.52285756902e-07
2.01578582012e-06
-2.11022101144e-07
2.02636327028e-06
-1.68498020074e-07
2.03145960505e-06
-1.24360686534e-07
2.03066103828e-06
-7.72440684315e-08
2.02198084535e-06
-2.4068059158e-08
2.00095493036e-06
4.04762761857e-08
1.96105521577e-06
1.22820519405e-07
1.89811069734e-06
2.24245061895e-07
1.81847471354e-06
3.32853371496e-07
1.7370536529e-06
4.34438973027e-07
1.65155524185e-06
5.48930328082e-07
1.52827930417e-06
7.16415427656e-07
1.39495410352e-06
8.46369482166e-07
1.30514524478e-06
8.96699194243e-07
1.25150217911e-06
9.57716752405e-07
1.2235852793e-06
1.04131494972e-06
1.2176209612e-06
1.15260942097e-06
1.16166593255e-06
1.30125907247e-06
8.67916006109e-07
1.45210412375e-06
5.41944537818e-07
1.28788300669e-06
4.56056772303e-07
1.01134530429e-06
3.98920114186e-07
9.9386685373e-07
2.95170934944e-07
1.0599103856e-06
1.57125506605e-07
1.10515002903e-06
3.67893666939e-08
1.05930285272e-06
-1.9970722478e-08
9.0604524794e-07
-8.18521645251e-08
8.06394989843e-07
-1.42817939899e-07
6.91538683722e-07
-1.70431549302e-07
5.51235508124e-07
-1.49224582914e-07
4.01596816972e-07
-8.77451106752e-08
2.90391678447e-07
2.25617225962e-07
1.64596689591e-08
-2.17531344951e-07
2.36862239723e-08
-2.33417351327e-07
1.59218506556e-08
-1.90491704532e-07