/*--------------------------------*- C++ -*----------------------------------*\
| =========                 |                                                 |
| \\      /  F ield         | OpenFOAM: The Open Source CFD Toolbox           |
|  \\    /   O peration     | Version:  v1806                                 |
|   \\  /    A nd           | Web:      www.OpenFOAM.com                      |
|    \\/     M anipulation  |                                                 |
\*---------------------------------------------------------------------------*/
FoamFile
{
    version     2.0;
    format      ascii;
    class       volScalarField;
    location    "465";
    object      alphak;
}
// * * * * * * * * * * * * * * * * * * * * * * * * * * * * * * * * * * * * * //

dimensions      [0 0 -1 0 0 0 0];


internalField   nonuniform List<scalar> 
6400
(
0.865168310735
1.34972098624
2.11238804359
2.55626009424
2.98538835055
3.4310538325
4.05406580344
4.76355439602
5.07035041577
5.59778433566
6.77680181354
7.49451762627
8.0720454361
8.75580810496
9.65527817953
10.5917906939
11.3796540822
12.1215195253
12.7497804351
13.0687505029
13.1292502854
13.2780381743
13.741455394
14.5305849776
15.4170060249
16.1926430532
16.7870029465
17.3256415881
17.923213199
18.5937029325
19.2823944908
19.7683662641
19.9771732491
20.0512875268
20.0189700854
19.837950228
19.8384319244
20.1400318095
20.0615766324
19.7168934772
19.7923730101
20.4394477706
21.1109593541
21.4462078324
21.5141130456
21.4001614099
21.1754596431
20.8941550427
20.5681693673
20.216603743
19.7253118051
18.8108713006
17.6598258575
16.2995015699
15.2502341751
14.6436359828
13.5847800661
11.632830226
9.52114831517
8.13870977351
6.6333395022
5.07270286977
3.39628572884
4.68613440396
8.76354167293
13.7364468773
16.7578252763
16.4962836273
14.5379647057
12.9424395444
12.0871012489
12.2836808286
12.8120663308
12.6871073981
14.7031778939
14.1363408051
15.9874426162
9.89140728215
12.8730820561
4.81392033864
3.12229664668
2.46679150874
3.0498234875
4.27912715836
4.09721760527
3.88929863226
4.03312938505
4.41508932973
4.97531892738
5.69865865333
6.58908474318
7.4763389299
8.24755695098
8.98375414459
9.72842611896
10.5882069649
11.4892198573
12.3628331923
13.3685821221
13.4973592684
13.331745789
13.4257707151
13.8272445609
14.5865731983
15.6487785478
16.3425509443
16.8952389551
17.485382731
18.1058954082
18.7421371417
19.3898936463
20.0036652046
20.2103893732
20.2867805971
20.3055800295
19.9878828256
20.0646647535
20.3872083822
20.224221953
19.6742369551
19.7054172987
21.2441829002
22.3923084499
22.601267436
22.5869227131
22.3347114767
21.9283589689
21.5185859778
20.928194774
20.3299198593
19.9501210749
19.8517322765
19.0427013237
16.525430411
15.6625847865
14.6986825376
12.729967197
10.8440958702
9.10007959774
7.39199997799
5.87906199221
5.49133534277
3.79281139273
5.02882044915
8.86193284731
14.7444139203
18.5197831184
17.3014758864
15.1678961264
13.2722812993
12.5802005429
12.9912767263
14.0714790724
13.4952463094
13.3348353542
12.8008240894
11.5920946544
9.74508261905
8.18503881893
4.27126188408
3.16271440201
2.74449316611
3.2492356455
3.46089285465
3.89939478541
4.28559159167
4.24513083368
4.33385829069
4.88756431408
5.67882070274
6.57131349097
7.47821467041
8.29933914507
9.04378088545
9.6443842772
10.4160830817
13.198280702
15.236259638
15.5661591311
14.7996720365
13.1471833762
13.0226624285
13.9795743181
14.7967731239
15.533390729
16.3217690143
17.0118790945
17.6055732295
18.204332272
18.8456218208
19.4466973249
20.1825340215
20.4037557573
20.1653902151
20.6498822799
20.3460129259
19.9455153168
20.5663355431
20.422015337
19.9074687847
19.9467144125
20.6000884581
21.2727028945
21.6182540866
21.7107614391
21.6408052278
21.4481793282
21.1540826159
20.7608268581
20.2936759266
19.7570532342
19.0421739539
18.0259218717
17.0388186869
16.133112124
14.4903357196
12.6419763988
10.8766624481
9.19034367138
7.62087502017
6.31677356302
5.10731168383
4.30020287177
6.20834662358
11.1309243622
15.7031837372
17.9613836336
18.1088616076
16.5521052548
14.9046217518
14.2278085874
14.1383026633
13.4872801046
12.89570771
12.8560493781
12.4944015764
11.495971754
9.86513196504
7.43331910984
7.60633054556
3.08901829069
5.43185036955
3.49255655846
3.55957564447
4.22449489507
11.803448115
10.1602957729
4.97808434318
4.87676358917
5.68807997517
6.59652409009
7.51852758437
8.3154289191
9.10291944418
10.8825173466
13.0479208674
14.7005791363
14.9994093135
13.6854521492
12.6133763812
12.8232008189
13.2837203013
13.9123204671
14.7439707268
15.62646991
16.4606932185
17.1876485127
17.7508011702
18.3871871713
18.9283201131
19.7249342798
20.1593723427
20.7877382409
20.5931293626
20.054965994
20.4760991559
20.1797773491
19.8920088208
19.9758630697
20.0665338129
20.2856302119
20.7699679859
21.297211054
21.6374596777
21.7695250228
21.7362953983
21.5720142794
21.2988256146
20.9266799139
20.4652310047
19.9036016561
19.1917866005
18.2989872163
17.2891492666
16.0852404404
14.5323136963
12.7697669704
11.0322650772
9.42350801009
8.01643726554
6.89277408151
6.09417103616
5.97029471078
7.28421708459
10.4769304149
16.0837552675
19.6349605572
19.8445502749
18.2056028168
15.8775333478
14.2941374688
13.5183088964
13.6829293024
15.0542180544
14.9695758557
13.6306091113
13.4653893155
16.725377087
13.1410514839
11.169794261
5.51969311079
7.46730103235
4.15156452359
4.46891355674
6.41869646542
11.6901697011
8.02112546155
5.33742833871
5.38997914535
5.91267364744
6.74601079523
7.68672574655
9.10705945007
11.5102165271
12.5119153062
12.8163826958
12.6776250667
12.2624343019
12.1783567526
12.6700915611
12.9626738941
13.3094432321
13.9992839144
14.8529599654
15.7615507543
16.6381483535
17.3191045738
18.0552642142
18.5081146696
19.3314412818
19.7527813665
20.9893232544
20.6927066778
20.1222805902
20.2632138958
19.8097576081
19.7668867525
19.9074526702
20.0947009861
20.2854189024
20.546121354
20.9452055178
21.3800181677
21.7022146047
21.8582715909
21.8560202321
21.7192173096
21.4698478976
21.1213298533
20.6773580088
20.1242264064
19.4334410248
18.586252804
17.5699816044
16.3013675384
14.7319142645
13.0146589451
11.3638197697
9.91202297261
8.74400539498
7.92594059125
7.53536423124
7.8022278502
8.35889721502
10.5943351343
15.5731910377
19.7129820853
21.1424647901
19.9952766542
17.2558467215
14.8067407889
14.4859555894
16.6989612818
17.5422323864
16.4841085327
15.5465686454
18.1631835122
21.1533945332
16.4878790704
15.6062804417
9.83304120773
8.97857980958
5.16224029015
5.7969809882
11.9635386949
11.4128816934
6.22543095569
5.88661114315
5.98921323153
6.25679036137
7.01658062152
9.74529314012
13.059261808
13.4435579806
13.0054439315
11.9052655012
11.3260093054
11.514584065
12.4081613608
12.6587146739
12.820171359
13.3729324838
14.1504920999
15.0504312848
15.8776295154
16.7710566202
17.7868047548
18.1540201908
19.1812115696
19.3573013008
20.9024356928
20.7012984111
21.5588694795
20.4602053104
19.515530167
19.4481084785
19.7128211203
20.0065070357
20.2663641967
20.5068864142
20.7879019447
21.1447899868
21.5216009652
21.8228889334
21.9900893305
22.0116720636
21.9004728539
21.6777049623
21.3591784001
20.9463982516
20.4245241134
19.7682690574
18.9473723087
17.916833495
16.6189744214
15.07918916
13.4665534024
11.9764141983
10.7316519736
9.8141760047
9.26607239961
9.23375471071
10.0341335594
9.2349346042
12.2780095557
17.4032849831
20.9861090718
22.4012326073
21.5034382799
18.1720029835
16.0138049468
17.782961673
19.9523230268
19.4097410053
18.3894404768
18.4413121577
22.953639895
24.5165591509
19.5370448234
19.3366544938
11.9287668724
8.72742070962
6.28022524985
5.89961475626
11.8732551595
8.12598969703
6.34227130223
6.44124157132
6.5415999814
7.21974711206
7.64611839231
12.8856575661
13.4951887709
13.4761720593
11.9678049315
10.732787922
10.8529862411
12.1789736447
12.4062838178
12.3218177266
12.8351535955
13.490356872
14.2688763361
15.1667292312
16.231268396
17.2670299866
17.8005999072
19.1914724451
19.2166990652
20.9188418472
20.5473738583
21.6285838817
20.8652752813
20.1792617886
19.2608206837
19.3488219158
19.7678355544
20.1524510246
20.4544359366
20.7271590373
21.0259975484
21.3650812517
21.7087658883
21.9930945209
22.1654504526
22.2051140587
22.1189025905
21.9279437106
21.6490053758
21.2813654141
20.8063994849
20.1926579898
19.3971846402
18.3708059947
17.0936063107
15.6426614706
14.1926335822
12.9075522721
11.8638531199
11.0828746873
10.6580076824
10.6517612558
10.5992935291
10.7483445859
13.6463420639
19.9444679097
22.3606559334
22.751572332
21.7214953824
19.489871531
19.2448206858
21.7647062115
22.180259627
21.31824341
20.7051629874
22.6275025414
25.3263868916
26.7569987428
22.1922726869
21.0567310843
11.5900823229
8.25785547204
7.3812106564
11.971290679
11.9207472578
6.95797445074
6.95310935947
7.07334775643
7.19504755308
7.73703694927
12.6726647685
13.5821960801
13.5935458167
13.0211526361
10.6569960542
10.2368149622
11.8347113572
12.3551576669
11.9867415908
12.1873784076
12.8855138294
13.6923583227
14.491062041
15.4544208635
16.3265095653
17.6835405422
17.9161320515
19.1879796303
20.7357265586
21.0321778481
20.1745787406
20.9994059932
21.003061005
19.4343760172
19.2123113956
19.4805918672
19.8992477764
20.3092644325
20.6492700706
20.9529397955
21.2696786636
21.6070377189
21.9351624338
22.2080111894
22.3828069384
22.4377507459
22.3782813238
22.226082508
21.9974509306
21.6882645564
21.2741685983
20.7150739609
19.9609778796
18.9747776265
17.7768067136
16.4765164102
15.2275855404
14.1199956309
13.1447091395
12.3370396843
11.8892913789
11.8384532233
12.0171091579
12.5310099118
12.8767027512
19.9928240203
24.1028150413
24.1866198026
23.6370015236
22.7323675057
23.5745622755
24.9089744708
24.2041566161
23.4890983034
23.658143957
25.9179653505
26.5446718175
27.0906176773
24.2154956543
22.0837598237
10.7881231139
8.06973539321
8.0319231689
12.916936734
10.7684903188
7.47064719312
7.61308194625
7.85756486116
9.18194951905
7.79132217454
13.44649406
14.068511553
13.6100480653
11.6618266721
10.1787560082
10.3729198792
11.934657723
12.0225864108
11.8515955413
12.2175696333
12.8873407964
13.7938765106
14.710793388
16.132375468
17.3424277649
17.6150870299
19.6354766743
19.0119344954
20.9865642184
20.261806842
21.6051761609
20.1732305202
19.5957583946
19.3106367894
19.369315212
19.6680339507
20.0640207533
20.4773898525
20.8510088007
21.1903792622
21.5282904359
21.8715621572
22.1960019238
22.4640255098
22.6408753781
22.7107690497
22.6822485525
22.5770275394
22.4093595642
22.171737466
21.8340043351
21.3486230281
20.665431737
19.7681200399
18.7115764672
17.6108054792
16.5534185605
15.5041240901
14.3944752046
13.4446882402
13.0878867795
13.4060354246
13.9706260039
14.4045117307
14.5179853804
16.6340339499
24.2483617716
25.9807397717
26.0531622504
26.7383435465
27.8016916956
27.4379440963
26.3941602922
26.1416983129
27.0559245147
28.1650061166
27.9520540006
27.3013229271
26.2668215488
24.891370369
10.1416929365
8.41554486373
9.1949026931
12.9523863138
8.59009705037
8.47826431961
8.27799918768
8.53209090806
11.8322262762
10.477328105
14.2783345187
14.3085338127
13.6411389235
10.8557582794
10.1650084614
11.8444300905
12.1844372144
11.7430425478
11.813961579
12.3864352097
13.0215553363
13.8717700074
14.646429194
16.3078805562
18.5112871705
17.5320555694
19.574429443
20.7719383566
21.2410506582
21.7054097928
20.6390558562
20.5318793415
19.2298097644
19.1973870951
19.5260886892
19.8734053781
20.2522827029
20.6593033003
21.0582962971
21.4374613623
21.8055964047
22.1623726685
22.4897150318
22.7582436436
22.9400706222
23.0263646989
23.0329841723
22.9833595324
22.8877931581
22.7350002184
22.4913575759
22.1056129875
21.533483494
20.7826476456
19.9287972984
19.0503102336
18.0926694144
16.8581910772
15.4570351709
14.5617482942
14.7018768954
15.6038598248
16.435115599
16.8697363238
16.8958791972
16.0015620461
16.4640625827
27.7337720711
30.6079288485
31.6642506432
31.5311303562
30.0902836967
29.118160227
29.308532746
30.3376540302
30.5572019501
30.2223276127
29.8756595342
30.1837714454
30.3527073488
9.99487618251
9.18068337314
12.7054512228
13.0294332815
8.56135585471
9.20438222749
8.93077159568
9.48558962477
11.2208794634
14.068551762
15.0561490111
14.5290314504
13.8228530786
10.7696983355
10.296465069
12.3922967702
12.2559007986
11.6929107292
11.8395653596
12.5329662953
13.4201299705
14.230879839
14.8411106121
15.9184021987
18.6821801054
19.8323800642
19.0878599398
20.9182365984
19.8592518071
21.744843869
21.9142238892
20.441266176
19.1657778716
19.3014379546
19.7154970091
20.0896246006
20.4637171612
20.8636548223
21.2745166388
21.6912021018
22.1002362101
22.4803235238
22.8165773462
23.0897425422
23.2798938329
23.386809001
23.4339520102
23.4464997563
23.4319525053
23.3767491559
23.2465947539
22.9916358523
22.5801049197
22.0423140266
21.4459426333
20.7503391844
19.6368110259
17.9581546781
16.5574461215
16.2440014189
17.2650089294
18.7871701107
19.7970579254
20.1848793529
19.898535489
18.7588541971
17.043127665
18.3499161851
32.1387536517
37.374779182
36.0659571853
33.6360407212
32.7234894957
33.0584653648
33.6601680641
33.8130095314
33.9832907537
34.4314941135
35.00002973
35.6506595928
10.2363010103
9.99498505791
14.3140631813
13.6399445775
11.6150448385
10.3876804212
9.79629355457
10.9649530484
10.572503046
15.0172733725
15.6493193499
14.8156793318
13.8241585416
11.3064617424
11.0587789395
12.8721561611
12.2413117369
11.7524621936
11.9573181055
12.5796540593
13.5857298645
14.690913902
16.436977239
16.0682163453
18.1503517999
20.2247676502
18.914852607
21.2114259577
21.8954160289
20.7487133395
20.8264353264
19.5678034928
19.469311794
19.6323944062
19.9612114578
20.3314624383
20.7058912262
21.1017851359
21.5084966408
21.9448910632
22.4032813906
22.8274182504
23.1801480039
23.4587013537
23.6607416839
23.7942470101
23.8874326347
23.9663109646
24.0375566262
24.0886672316
24.0885442231
23.9987418864
23.8098348693
23.558382968
23.2364667079
22.5255139499
20.890136977
18.9913512809
18.2383934228
19.007129891
21.1582005102
23.173558034
24.291972998
24.7685288409
24.3553937127
22.8672002253
20.5892783525
17.770947787
27.7371277818
38.273216774
41.1586677187
38.399899171
37.5281821982
37.7434607603
38.0879221753
38.1602692369
38.9021373216
39.642350139
39.5765189155
39.774575495
10.7629224762
10.6030032199
13.9985474058
14.0562825953
14.0401247209
11.4468165985
10.7951248624
13.905709477
10.8438422202
15.8670300536
16.0993036852
15.1143491989
13.8336181429
11.8531066275
13.8577992452
13.9444407603
12.3807979404
11.947821343
12.206921341
12.7310288996
13.5516462226
14.6685148542
17.8131893844
18.7540802712
17.5671832142
20.3123444865
21.1651701535
20.7357880057
21.8676219777
22.0634064825
21.2389532355
19.5744761814
19.6691664525
19.9638230392
20.2609715922
20.6025585478
20.9610517981
21.3705624813
21.7956482353
22.2269036337
22.7065621304
23.1842061433
23.5776723226
23.8699180534
24.0851052198
24.2503144089
24.3948964171
24.540853698
24.6950761858
24.8505781703
24.9889577285
25.1009361394
25.2061324442
25.3014445399
25.1700846949
24.0792895862
21.8918780342
20.5104999852
21.4509075847
24.0288669811
27.2887757033
29.5539507002
30.3807322821
30.783376404
29.614977028
27.3726430973
24.4364054648
20.0249605996
22.4250784833
34.6708898211
41.7957542767
43.0785041384
41.6063349608
42.2186891632
42.681519372
43.3131222116
44.404023817
45.0784062093
45.057788658
45.2390599431
11.3494986811
11.2519467847
10.9195550425
14.3363008119
14.5144828716
12.1345662813
11.7004424665
14.8321715348
11.4176575634
16.7313115326
16.4968727378
15.4252091563
13.9610602233
12.1140186844
15.0304672737
14.4363057309
12.7472558299
12.3112268068
12.5454506339
13.0529918523
13.6435112355
14.5719123461
18.3655663247
19.8154183431
17.894537835
20.3873360772
21.7017011565
20.0835680963
21.4977860787
21.5332186345
19.9152766629
19.930752706
20.1200736939
20.3423414009
20.589830555
20.9293997556
21.2760156104
21.6410764952
22.0891323023
22.5613960959
23.0494206637
23.5530062227
23.9920411283
24.3172406487
24.5562114791
24.7588226339
24.9568870344
25.1625638057
25.386687478
25.6314324509
25.896527709
26.2431924281
26.7162826265
27.1860629146
26.9716850394
25.1604487237
23.5032334233
23.3721304688
24.0240684647
25.6295081271
26.8872381498
25.2810704123
20.4227506561
15.7611332507
10.9546212429
10.2486263542
14.4136332798
18.2577930679
20.3315525527
19.8554031214
43.3792064462
47.3111951212
46.8474661326
43.0743954886
41.6105886715
45.9772732197
49.3017046171
50.6767973308
51.8004127013
52.3100435217
12.1131375653
12.1943887539
14.9502011296
14.9211067364
14.8958984171
12.7121487816
12.7030462575
15.6035193615
12.3742477659
17.4661405014
16.8675132125
15.7534601548
14.1639608896
12.4654545042
15.2726234692
14.5463062833
13.1146053649
12.7261750774
12.9073950393
13.3551958343
13.8968546157
14.6204751944
17.6917694033
20.6275855925
20.7299326394
19.6705653775
21.9174055696
22.604432109
20.0796133631
19.710714423
19.8318749806
20.1558094504
20.4554687502
20.7101130099
20.980140978
21.2747863411
21.6159144749
21.9943071869
22.4021498976
22.9016332873
23.4349491841
23.9610617805
24.4277786959
24.7891925208
25.0700493978
25.3196517899
25.5701682207
25.8322566291
26.0998224698
26.3745669526
26.7311165132
27.3304015497
28.2128709158
28.9391475655
28.0941936915
26.0114530788
21.4907008378
12.7684456028
0.0752259153349
0.00141021699071
2.39041443944e-05
6.91606206451e-08
1.96539386965e-10
3.4020595886e-15
2.66110110388e-15
6.46054154924e-15
4.35491579488e-14
2.03981824452e-13
7.53509877739e-13
4.78843751812e-12
3.74923968424e-12
3.25266926846e-10
1.85131230129e-07
1.86096389988e-05
0.00141215723556
0.325185687933
43.0885597065
55.0360155828
58.9106286824
59.5906597939
12.8216212359
13.0094209707
16.5329041935
15.5088099008
14.8961937505
13.3042730914
13.6843026976
16.2282913572
16.2058937071
18.3669764741
17.2871657683
16.165460729
14.4380578542
12.964832447
15.528178848
14.6033225878
13.477960218
13.1514937924
13.2669362902
13.6388942761
14.1579282949
14.8868323441
17.1052348016
20.8866236672
22.125973786
19.2639579187
21.4612909392
22.6178678832
22.1402608638
20.2292392931
19.9415491368
20.3800520352
20.8092901443
21.1395546361
21.3426332942
21.6458842597
21.9689753371
22.3600045328
22.7786450597
23.2712064929
23.842952613
24.4126292823
24.8949597149
25.2705264747
25.6026314321
25.9556940383
26.2990210056
26.5812495265
26.7693225197
26.9981590392
27.4378178573
28.2226100664
29.4593288236
30.0576459561
26.7290507568
14.5126165363
3.78210468483e-05
1.5315698788e-07
4.42905216179e-09
6.44788806666e-11
5.23877279733e-14
8.74139445204e-17
6.16184906637e-18
0
0
0
0
0
0
0
0
8.57008123981e-22
2.89051098113e-19
4.32358831939e-17
2.50840748383e-14
3.50362964937e-11
1.89730500112e-06
0.0288128668627
45.1445533502
62.6530209678
13.3952347688
13.6057733071
18.723784506
15.9439157708
14.6213845435
13.8330574868
14.3775234139
16.1827259545
17.7864897645
19.4091599004
17.8588909352
16.7045603522
14.9555270014
13.7680542003
15.9918300448
14.8202115119
13.9274816439
13.6309386516
13.6662404946
13.9578844552
14.4103958756
15.0896166584
16.859935131
20.7566068381
23.1184382893
22.2312560149
20.8909729207
21.9683693253
21.7853832795
20.0597685166
20.4037922764
20.8830128017
21.3678087461
21.6242717065
21.8409481849
22.0457637986
22.3846818587
22.7485342854
23.1876368633
23.690296173
24.2672156047
24.8817302179
25.4403676262
25.8336279592
26.2026561594
26.6598470166
27.1055360548
27.3648562643
27.427934239
27.571414729
28.0082464002
28.7641210762
29.7579975773
27.8112653086
0.250455166132
5.47562059019e-08
1.79576514048e-11
7.26133256914e-13
9.90060836785e-15
2.71501588443e-17
0
0
0
0
0
0
0
0
0
0
0
0
0
1.10425486986e-20
1.09731736269e-19
2.40555741348e-18
1.16642152568e-16
6.47740638276e-13
0.000539155734308
1.03930970471e-08
13.8394292508
14.0377278636
20.816834642
16.2647812091
14.6322003501
14.3303838085
15.1724074145
15.3861508242
18.7362037333
20.1498400852
18.4183643931
17.2603565942
15.6813741905
15.7276243197
16.6410569616
15.283885949
14.5782325338
14.3153152831
14.1740729264
14.3650469173
14.7161123804
15.3229292673
16.8188848528
20.6231417991
23.5260627964
23.8989728365
20.4403354075
20.6951460983
20.2556118922
20.1773427713
20.6901006214
21.3965806698
21.8704056774
22.1413992798
22.3669694878
22.6756771407
22.859963204
23.2062398965
23.6320914194
24.1223553125
24.7668840654
25.4378085411
26.0262051291
26.3696079164
26.7427188117
28.0032612077
29.7903840205
30.2593441013
28.9436420601
28.6697408507
28.9227027376
29.4355567111
27.689955834
0.0289760048296
4.36706349857e-07
1.95913334804e-18
1.97972851838e-15
3.2303713631e-17
0
0
0
0
0
0
0
0
0
0
0
0
0
0
0
0
0
0
1.7060391539e-19
1.15530153643e-18
2.13047181814e-16
94.3852493252
14.2400375139
14.405299126
20.5961081584
15.5540777486
14.758652343
14.7577297311
16.0786792184
15.2800437655
19.5298648759
20.8485854472
18.9591430137
17.7824768295
16.2350254581
18.0383322311
17.5653725002
15.9547622852
15.3324023923
15.3975747204
14.9072302685
14.9430833158
15.1223984259
15.5888244204
16.9254220834
20.4738554747
23.3894303239
25.0162156361
23.4320382255
22.2420461797
21.4666498579
20.4690048677
21.0085655809
22.0980519723
22.2852402493
22.6468639086
23.205817963
23.252544795
23.4365963647
23.7764014308
24.2069385094
24.686641268
25.2440371265
25.9592336975
26.6960880982
27.5635577804
28.7147746536
30.4220660453
31.7061986127
31.4073174376
31.0650152479
31.4680261531
32.0834412134
33.1173997415
0.131771563769
1.20281123842e-06
1.58088183834e-10
2.14714054708e-12
0
0
0
0
0
0
0
0
0
0
0
0
0
0
0
0
0
0
0
0
0
0
5.24945497383e-19
3.82083481627e-08
14.7232405782
14.8687684415
20.1690129145
15.1111952047
15.010610683
15.1015454183
16.848583645
15.6883816507
20.2004533742
21.5345825664
19.5035830752
18.3184479238
16.705560669
18.742218016
18.4194857519
16.7018206999
16.0727673096
16.2636616834
15.7929077649
15.7470049482
15.7390511456
15.8892783082
17.195285264
20.4503469513
23.1071466327
25.3614329113
24.6592663764
22.6660666564
20.6089716407
21.0015732062
21.5838477243
22.6282843643
23.2626869561
23.726782053
24.0459313706
23.9250198428
24.0906079384
24.4469587896
24.8793958601
25.3807545603
25.929228709
26.7186165639
27.8530685393
29.5190903303
30.5938029867
30.772071548
31.3087181017
31.6332664831
33.5557900937
35.6001008928
39.6564817864
1.20069519716
1.59429399834e-06
2.74927826099e-10
5.63891129398e-13
1.36528889474e-14
4.58281138719e-17
0
0
0
0
0
0
0
0
0
0
0
0
0
0
0
0
0
0
0
0
0
8.82188563781e-20
1.16721604715e-19
15.4602721835
15.6074948713
19.7468765764
15.3300440436
15.5512511616
15.5513294756
16.7580365584
16.4009475243
20.6583114412
22.1834931837
20.0877427491
18.9114764326
17.3099249539
19.3927648561
19.1990363214
17.5585791698
16.8856907133
17.1139681588
16.6514824404
16.7008039267
16.6500634551
16.3568423561
17.6644938549
20.6072169458
22.9752258089
25.4629409713
25.1825243327
23.2775172903
21.0275388459
21.2116232798
22.2809414403
22.6883780936
23.1599390152
23.8720986851
25.000158447
24.9626980317
25.0346046556
25.2121866963
25.5960032956
26.1807357473
26.8455260179
27.7624085941
29.8324007735
31.7462814854
31.7753058786
31.7622907449
32.815090234
36.2734140811
40.5472793969
43.5271853398
0.343042357253
5.69853585509e-08
2.35818739503e-12
7.73172254104e-16
4.85124125315e-18
9.83307287426e-18
1.50999307059e-18
0
0
0
0
0
0
0
0
0
0
0
0
0
0
0
0
0
0
0
0
0
6.52051458103e-21
2.96077407341e-20
16.5872542079
16.6868025617
19.9436259865
16.2446979492
16.7229642573
16.3826310263
16.9766789723
17.7633222943
20.6091101034
22.6484751241
20.7423595572
19.5835945232
18.0303997438
20.1345862847
20.0095036289
18.5909722087
17.9008017141
18.1262687769
17.5161712273
17.7594293382
17.8993737001
17.0735949298
18.1878095419
20.9417723579
23.0280470947
25.3016893169
25.4120197309
23.8423704324
23.2352069259
22.1039303353
22.7248430046
23.6564343342
24.8008892944
24.4426621739
25.1144805522
26.0371339355
26.0663925
26.3534551342
26.6030756781
27.0602589819
27.8708119037
29.8684062067
32.8520924849
33.6735531794
33.2271299468
34.3872054277
39.3099344796
46.4575941942
48.8444642668
0.0123392921494
8.63358942659e-10
8.06063294092e-15
5.51535077842e-17
0
0
0
0
0
0
0
0
0
0
0
0
0
0
0
0
0
0
0
0
0
0
0
0
0
0
0
18.1811965004
18.020748621
20.6723691628
18.1764189168
18.7331153625
17.6355594563
17.8752640406
19.7606936966
20.746051393
23.2272428041
21.525199043
20.3466466382
18.8446663504
20.9138163382
20.8150196426
19.7365239136
19.4338969887
19.4680544966
18.4716891079
18.9266431531
19.4718520714
18.1364967864
18.5739363632
21.3543972588
23.2703864973
25.1414007405
25.5905177271
23.9390589632
24.4320964703
23.7463195206
23.863113939
23.2285198127
24.3216305598
25.8051948918
26.0776672855
26.6846137551
27.1024624999
27.394967305
27.8361154417
28.3050484905
29.7596603503
33.3256902636
35.7189970498
35.8948162548
36.5250093346
40.7488928189
49.0904764501
50.7551428013
0.000175030181747
7.70476477808e-12
1.34695550489e-14
6.16753751565e-17
0
0
0
0
0
0
0
0
0
0
0
0
0
0
0
0
0
0
0
0
0
0
0
0
0
0
0
0
19.8828766287
19.2748149114
21.4842684918
20.7792171427
20.4616620858
19.1105372761
18.8800288994
20.8969113197
19.8088788178
23.665596321
22.4195082567
21.1933190247
19.7447044169
21.7093659065
21.5636822065
20.6879443607
21.6252298065
21.0989751443
19.5586723621
20.2403124845
20.8440983988
19.5260732207
18.6550875202
21.3237904314
23.4399887782
25.0177989135
25.6497639818
24.006550743
24.7857885147
25.0566355698
25.1902010825
23.9958618318
24.6343923995
25.6166928142
27.0291817715
27.930221136
28.3848626542
28.6239198192
29.0212306287
30.0747575226
33.3659339337
37.1316331538
38.8012292338
39.5654160672
42.264751502
48.5337816125
47.327077543
8.11491910712e-06
2.07457465849e-11
3.00338451384e-14
1.05184319709e-16
0
0
0
0
0
0
0
0
0
0
0
0
0
0
0
0
0
0
0
0
0
0
0
0
0
0
0
0
0
20.7122789232
20.1644623116
22.0017292013
21.8244080039
21.5267000594
20.523818764
20.0774806935
22.2932281146
20.8414058506
24.2394112927
23.3238703613
22.0898503905
20.7251673747
22.5406776655
22.3330233277
21.4907120538
22.5885914195
22.197279095
20.6328581303
21.5557065093
21.5693323546
20.3139803165
19.7388312869
19.9371312739
22.9459224552
24.5260232413
25.4420175105
23.9880755071
24.8511653618
25.58974491
26.2619931711
25.9364247891
24.8560713463
25.64221008
27.2572893071
28.8142910409
29.7862194354
30.3139370041
30.726817465
33.4165606853
37.7581663829
40.909507736
42.2349428762
43.7957041977
47.6062930861
42.9827286419
2.88054208394e-05
1.09596762226e-10
9.87247955286e-14
2.81173328742e-16
0
0
0
0
0
0
0
0
0
0
0
0
0
0
0
0
0
0
0
0
0
0
0
0
0
0
0
0
0
0
20.7979136693
20.7486556188
22.337727157
22.0429928384
22.2223154394
21.6364527625
21.1341112777
23.6671476374
22.566814366
24.9928858083
24.2904456904
23.0227054843
21.780538145
23.4226595099
23.1787318812
22.4376061312
23.3884307105
23.1623637707
21.7780754319
22.5863172158
21.2278899805
21.0621669173
20.7933240836
21.0788246528
21.9392908106
22.8826719738
24.6150185455
23.8384433372
24.372266625
25.6232887899
26.724161047
27.3226020385
26.4468852415
26.4368264611
27.3954812348
28.9073000121
30.6473856758
32.0812002228
33.5237300206
37.6807728353
41.9068737947
44.3429341256
45.1311689623
46.2299737039
40.5761042166
3.19146098431
7.43333664354e-10
3.42926077526e-13
7.68186492937e-16
0
0
0
0
0
0
0
0
0
0
0
0
0
0
0
0
0
0
0
0
0
0
0
0
0
0
0
0
0
0
0
21.0742759096
21.1822660849
22.652591778
21.0998552083
22.5337165302
22.2637648268
21.8615373341
24.2863515245
23.4313981346
25.78280321
25.3078137553
23.9662067146
22.9199422926
24.3428986554
24.0729680252
23.5241069744
24.2674440319
24.238699298
23.0447157605
24.0001596864
22.5901875294
22.7578359593
22.0591128336
22.3682142218
23.8283873266
24.4350065447
24.2718766897
23.6282785953
23.8852865642
25.5951598766
26.7566246222
27.5861615731
27.9116904398
27.5573166505
28.8822982196
29.6810302328
31.369802445
33.7681264234
37.0719753215
41.9685514467
45.588940616
46.9550189887
45.481654573
39.7291379098
33.1304821455
2.81292924972e-08
2.87758260587e-12
6.55095761037e-15
0
0
0
0
0
0
0
0
0
0
0
0
0
0
0
0
0
0
0
0
0
0
0
0
0
0
0
0
0
0
0
0
21.8234696979
21.8982863354
22.9845200098
21.5479155683
22.8111180797
22.6231896724
22.391807826
24.5018375476
24.0560161651
26.3788261295
26.3180520287
24.8641461632
24.1329926484
25.2591901401
24.9387005236
24.583410095
25.114443054
25.4047729259
24.3584662979
25.4155475103
24.3851535594
24.8805445127
24.5887132272
23.3060076346
24.5236088758
25.5306188384
25.6132563099
23.5171237977
23.324958845
25.5301640189
26.9389687648
27.2001472205
27.6721952524
27.92054099
29.1869979895
30.3071530402
32.2362912258
35.5311232013
40.7844801038
46.2032145583
48.9251022572
48.3199750574
43.3614734976
35.7742499735
0.901098333005
3.27183229559e-11
4.56496479928e-14
1.85110337526e-16
0
0
0
0
0
0
0
0
0
0
0
0
0
0
0
0
0
0
0
0
0
0
0
0
0
0
0
0
0
0
0
0
22.7660985061
23.8499322455
23.469257116
22.5738903287
23.3822681159
23.0461814789
22.9088083337
24.6953210334
24.6349335547
26.6273540978
27.3090643607
25.6804269049
25.2170573889
26.0127638925
25.7703746297
25.3896759531
25.3898904901
26.4743361711
25.7510276886
26.6530658981
26.3881640491
26.2093575705
26.0069017983
25.5807876346
24.7972054321
25.6009681691
26.6034056859
22.9989274474
22.8737508943
24.8478115527
27.0165260935
27.8479832869
28.5511544818
28.0027516499
29.085431669
30.6081984636
32.7659346665
37.1782110995
44.4063473534
50.1517795351
51.5475913979
45.8307379876
40.8597036841
37.2510097588
2.46789133789e-09
3.09417455057e-13
7.89707768428e-16
0
0
0
0
0
0
0
0
0
0
0
0
0
0
0
0
0
0
0
0
0
0
0
0
0
0
0
0
0
0
0
0
0
23.4927179914
24.6098248979
24.2155235283
23.5075876814
24.1238669163
23.6568655792
23.4987375996
24.9770885914
25.2037472372
26.6133309482
28.2020099503
26.4794300101
25.8841119243
26.6456396197
26.6866860227
26.1310704348
25.62221591
27.2417570761
27.1974813071
27.7361138279
27.7382879535
27.8433977332
26.5137991692
26.4752311212
25.9806240743
27.2879153676
27.9871828561
25.0279063158
22.524633387
23.883636505
26.4023157435
28.1192984321
28.8088700257
28.664985775
28.8152062556
30.5472674813
32.7945938542
38.4766793957
47.8061353869
54.1050213476
52.0607461836
44.3490357864
36.7352863827
12.5913654916