/*--------------------------------*- C++ -*----------------------------------*\
| =========                 |                                                 |
| \\      /  F ield         | OpenFOAM: The Open Source CFD Toolbox           |
|  \\    /   O peration     | Version:  v1806                                 |
|   \\  /    A nd           | Web:      www.OpenFOAM.com                      |
|    \\/     M anipulation  |                                                 |
\*---------------------------------------------------------------------------*/
FoamFile
{
    version     2.0;
    format      ascii;
    class       volScalarField;
    location    "465";
    object      pa;
}
// * * * * * * * * * * * * * * * * * * * * * * * * * * * * * * * * * * * * * //

dimensions      [0 2 -2 0 0 0 0];


internalField   nonuniform List<scalar> 
6400
(
-0.122175568124
-0.122177229435
-0.122181880864
-0.122190876266
-0.122204038988
-0.122221290654
-0.122242694227
-0.122269042141
-0.122300792665
-0.122338570725
-0.122386193676
-0.122445810462
-0.12251566094
-0.122595981522
-0.122688364994
-0.122794769316
-0.122916414741
-0.123053403972
-0.123204846103
-0.123367489642
-0.123537312061
-0.12371509459
-0.123906002296
-0.124115869361
-0.124348844489
-0.124605338761
-0.124883089735
-0.125180560478
-0.125498081329
-0.125836869213
-0.126198063537
-0.126580833195
-0.12698050974
-0.127392280938
-0.127814477804
-0.128244389911
-0.12868203847
-0.129134482045
-0.129600953764
-0.130071677039
-0.130548125252
-0.131045481746
-0.131572299063
-0.132120736107
-0.132680468502
-0.133244923102
-0.133809107311
-0.134369677006
-0.134923667215
-0.135468713012
-0.1360033887
-0.136522459765
-0.13701662476
-0.137472356245
-0.137888776169
-0.138275780026
-0.138628803006
-0.138932224714
-0.139179274067
-0.139380487218
-0.139542807491
-0.139669805703
-0.139756223576
-0.13982969697
-0.139931581596
-0.140092574974
-0.140301838907
-0.140513724653
-0.140693525102
-0.140837904893
-0.14095537472
-0.141055804301
-0.141145546589
-0.141222673391
-0.141289368332
-0.141345612757
-0.141391078149
-0.141420286458
-0.141438676491
-0.141446389549
-0.122173204301
-0.122174968519
-0.122179140142
-0.122187930885
-0.122202031829
-0.122220199141
-0.122241864331
-0.122267107559
-0.122297591258
-0.122335256109
-0.122382572687
-0.122441317029
-0.122511182437
-0.122591968419
-0.122684299615
-0.12278953317
-0.122910476248
-0.123047730519
-0.123199974027
-0.123363038512
-0.123531246005
-0.123707153309
-0.123897291375
-0.124106716046
-0.124339672816
-0.124596518534
-0.124874154415
-0.125171738305
-0.125489717434
-0.125828790444
-0.126189562434
-0.126572258293
-0.126972531601
-0.127383958008
-0.12780604039
-0.128235951756
-0.128672994653
-0.129125631154
-0.129593003663
-0.130063871777
-0.130537853666
-0.131034376704
-0.131565080229
-0.132116399595
-0.132677270368
-0.133243035338
-0.13380848399
-0.134370694089
-0.134926048652
-0.135470142948
-0.136001455903
-0.13652079945
-0.137022950315
-0.13748176669
-0.137900048956
-0.138291970362
-0.138642061326
-0.13893977201
-0.139186979769
-0.139387741914
-0.13954484814
-0.139672491393
-0.139763913929
-0.139841510922
-0.139946180075
-0.140107433946
-0.140319329759
-0.140530708299
-0.140708832397
-0.14085238769
-0.140969282253
-0.14106965075
-0.14115999728
-0.141238092576
-0.141303651406
-0.141357678887
-0.141399419172
-0.141427339462
-0.141444978734
-0.141450836063
-0.122166554777
-0.122169453387
-0.122173115906
-0.122181128852
-0.122194707416
-0.122214973759
-0.12223846162
-0.122262766537
-0.122291459226
-0.122328004282
-0.12237456923
-0.122432571069
-0.122502136462
-0.122582915657
-0.122674794081
-0.122777048525
-0.122895592847
-0.12303598281
-0.123190048827
-0.123351858503
-0.12351670829
-0.12368783408
-0.123876237525
-0.124086883851
-0.124319757264
-0.124575515403
-0.124853331527
-0.125151620761
-0.125470056766
-0.125809353278
-0.126169903908
-0.126552521869
-0.126954056318
-0.12736411614
-0.127783861539
-0.128215261448
-0.128651588244
-0.129102030634
-0.129569861241
-0.130043257124
-0.13052351553
-0.131024203444
-0.131552709528
-0.132102112326
-0.132663196835
-0.133229970133
-0.133797665013
-0.134362524192
-0.134920889702
-0.135469265158
-0.136005236263
-0.13652560964
-0.1370221815
-0.137484712396
-0.137914572967
-0.138308551089
-0.138654899759
-0.138950445927
-0.139196875323
-0.139397529551
-0.139558027324
-0.139685027841
-0.139779755363
-0.139867329304
-0.139983790585
-0.140151528122
-0.140355496928
-0.140559689734
-0.140737931778
-0.140882890741
-0.141001160909
-0.141101958577
-0.141189264595
-0.141263229835
-0.141326276424
-0.14137752138
-0.141415341788
-0.14144079482
-0.141456519818
-0.141462104603
-0.122157288964
-0.122160186362
-0.122163113632
-0.122170413897
-0.122182220461
-0.122202102033
-0.122231920369
-0.122256090325
-0.122282404779
-0.122317061366
-0.122362438045
-0.122419718736
-0.12248898237
-0.122568861724
-0.122659753709
-0.122764431826
-0.12288528167
-0.123023003187
-0.123170836397
-0.123323602781
-0.123484205704
-0.123657123901
-0.123846403595
-0.124056309606
-0.124288896488
-0.124544649283
-0.124822793632
-0.12512165842
-0.125440707082
-0.125780165105
-0.126141209292
-0.126523873209
-0.126925254259
-0.127337618152
-0.127753499262
-0.128180079876
-0.12861950806
-0.129069003632
-0.129532500901
-0.130008488501
-0.130496461119
-0.131002979634
-0.131532775257
-0.132082229914
-0.132644377875
-0.13321323998
-0.133783913856
-0.134352315659
-0.134914694486
-0.135467526014
-0.136007510476
-0.136530344297
-0.137029369222
-0.137497830957
-0.137932378007
-0.138326685382
-0.138672443035
-0.138967180035
-0.139213023192
-0.13941420662
-0.139576808293
-0.139707738558
-0.139815262027
-0.139921173524
-0.14004547246
-0.140206399287
-0.140406849114
-0.140609568563
-0.140787977054
-0.140933587675
-0.141050035193
-0.141145260386
-0.141226448911
-0.141299397888
-0.141362320558
-0.141409481642
-0.141441560351
-0.141465315407
-0.141481516512
-0.141488127004
-0.12214284359
-0.122143252424
-0.122146832814
-0.122154169731
-0.122167057271
-0.12218523145
-0.122211926698
-0.122238648845
-0.122266491451
-0.12230115502
-0.122345426924
-0.122402014601
-0.122471018093
-0.122553377414
-0.122648231521
-0.122752486428
-0.12286819103
-0.122996194845
-0.123135137579
-0.1232845382
-0.123444810975
-0.1236173776
-0.123806372778
-0.124015997102
-0.124248195129
-0.124503820641
-0.124781940705
-0.125081379667
-0.125401102094
-0.125741346273
-0.126102366261
-0.126486535639
-0.126890626412
-0.127298452319
-0.127711758836
-0.128135218038
-0.128569935882
-0.129019720758
-0.129485164274
-0.129965041964
-0.13045936797
-0.130971559298
-0.131504315502
-0.132055505635
-0.132619866202
-0.133191832414
-0.133766430118
-0.134339360497
-0.134906761413
-0.135464963426
-0.136010150034
-0.136537637346
-0.13704153441
-0.137515807258
-0.1379546921
-0.138350629784
-0.138696909489
-0.138992044792
-0.139238881244
-0.139442695466
-0.13961052817
-0.139750741083
-0.13987502599
-0.139997515429
-0.14012574397
-0.140284317215
-0.14047983593
-0.140679459465
-0.140857159296
-0.141001254344
-0.141112203092
-0.141200949308
-0.141281936792
-0.141357325997
-0.141416910326
-0.141458228768
-0.141487439345
-0.141512971011
-0.141527993791
-0.141532809987
-0.12211622881
-0.122115985632
-0.122122124717
-0.122129486878
-0.12214330417
-0.122162280165
-0.122186898101
-0.122213773437
-0.122243734301
-0.122279174495
-0.122321874069
-0.122377922649
-0.1224512264
-0.122537554992
-0.122630814681
-0.122730328767
-0.122838680856
-0.122959341864
-0.123093465341
-0.123239802454
-0.123397049539
-0.123567942518
-0.123756420411
-0.123965832403
-0.12419774347
-0.124452484242
-0.124730745902
-0.125030479662
-0.125351269491
-0.125692340817
-0.126054899527
-0.126438881996
-0.126840148329
-0.127250465333
-0.127658006148
-0.128074279908
-0.128507417133
-0.128958780195
-0.129427301147
-0.129911720876
-0.130412024387
-0.130930031274
-0.13146710593
-0.132021671544
-0.132589579087
-0.133165772759
-0.133745330992
-0.134323844893
-0.134897370212
-0.135462117979
-0.136014008364
-0.136548200331
-0.137058935957
-0.137539790057
-0.137983590499
-0.138382593917
-0.138731404993
-0.139029548844
-0.139280550531
-0.139490448197
-0.139666975107
-0.139819616246
-0.139962602207
-0.140095209138
-0.14022748369
-0.140389365271
-0.140584085147
-0.140778231159
-0.14095023828
-0.14108723825
-0.141190884651
-0.14127931349
-0.141365544328
-0.141439248387
-0.141492691363
-0.141528903091
-0.141558109647
-0.141581546805
-0.141593117689
-0.141597639757
-0.122075734071
-0.122078600183
-0.122088912357
-0.122099787
-0.122110914741
-0.122129752792
-0.122155372902
-0.12218270641
-0.122213995259
-0.122250242831
-0.122294686171
-0.122351119924
-0.122427394555
-0.1225120694
-0.122601274732
-0.122694634822
-0.122797548795
-0.122914937906
-0.123046007184
-0.123186968249
-0.123340253414
-0.123509575721
-0.123696993433
-0.123905274326
-0.124136506179
-0.124392063278
-0.124668362262
-0.124968468328
-0.125290508361
-0.12563494298
-0.125998053478
-0.126379631346
-0.126779193982
-0.127182057096
-0.127586477247
-0.128000078169
-0.128433158225
-0.128886682434
-0.129358781927
-0.129848003004
-0.130354222556
-0.130878363464
-0.131420893337
-0.131980345454
-0.132553219263
-0.133134900813
-0.133720604067
-0.134305920952
-0.134886892494
-0.135459671703
-0.136020027813
-0.136562935316
-0.137082354147
-0.137571207644
-0.138021633388
-0.13842629194
-0.138780989738
-0.139086076014
-0.139345340633
-0.139564731682
-0.139752552412
-0.139919725909
-0.140075188102
-0.140216726995
-0.140364348877
-0.140529800234
-0.140721647283
-0.140905479104
-0.141065073826
-0.14119265597
-0.141295289318
-0.141390989384
-0.141479555707
-0.141547231914
-0.141593840732
-0.141625982257
-0.141653272203
-0.14166993961
-0.14167515763
-0.141678012386
-0.122028354095
-0.122034159139
-0.122045918598
-0.122061611417
-0.122073368505
-0.122092766479
-0.12211709621
-0.122145159932
-0.122178206408
-0.122212125489
-0.122260091157
-0.122322002999
-0.12239567471
-0.122476778905
-0.122560470312
-0.122647805033
-0.122748264034
-0.122864030603
-0.122989792378
-0.123125247068
-0.123274668148
-0.123441707913
-0.123627620627
-0.123835415301
-0.124066385803
-0.124320817786
-0.124597988508
-0.124893704281
-0.125219315923
-0.125568703323
-0.125930599605
-0.126305085286
-0.126700113506
-0.127097720749
-0.127497555824
-0.127912446388
-0.128347370798
-0.128803321153
-0.129279097998
-0.129773318581
-0.130285628759
-0.130816371971
-0.131365410778
-0.131931173927
-0.132510478581
-0.133099042057
-0.133692265485
-0.134285837681
-0.134875853082
-0.135458447593
-0.136029272511
-0.136583051661
-0.137113310633
-0.137612433933
-0.138072447871
-0.138486780386
-0.138852169073
-0.139168973698
-0.139439844915
-0.139669692392
-0.139867549616
-0.140045170228
-0.140211320464
-0.140371721961
-0.140532510927
-0.140705129245
-0.140888313522
-0.141059316176
-0.141206298395
-0.141328875459
-0.141437108949
-0.141539886246
-0.141625158813
-0.141685368558
-0.14172445063
-0.141751046225
-0.141768003203
-0.141773624899
-0.141769037356
-0.141766277261
-0.121976726236
-0.121984291293
-0.121995984171
-0.122008461171
-0.12202372279
-0.122047661662
-0.122071225161
-0.122099312384
-0.122135621545
-0.122171427768
-0.12221575396
-0.122281103373
-0.122354638841
-0.122430686314
-0.122509386269
-0.122594789336
-0.122692097683
-0.122803507156
-0.122923994181
-0.123055144915
-0.123200800738
-0.123364304506
-0.123546935871
-0.123752717677
-0.123986837481
-0.124238390891
-0.12451572633
-0.124815105908
-0.125137325749
-0.125484110749
-0.125847207194
-0.126224352202
-0.126604258553
-0.126993885332
-0.127394542287
-0.127811874652
-0.12824931668
-0.128708041733
-0.129187624928
-0.1296870459
-0.130205786167
-0.130743732269
-0.131300304733
-0.131873759581
-0.132461015397
-0.13305800696
-0.133660356689
-0.134263929654
-0.13486491265
-0.135459442465
-0.136043052937
-0.136610207862
-0.137154044358
-0.137666730152
-0.138140690594
-0.138570243665
-0.138952254137
-0.139285354248
-0.139569011374
-0.139807099957
-0.140011861809
-0.140198869014
-0.140378671933
-0.140555531297
-0.140729462387
-0.140913599879
-0.141094602466
-0.141246503545
-0.141381622928
-0.141503868742
-0.141620701763
-0.141726689497
-0.141806810455
-0.14185919547
-0.141888782448
-0.141902290312
-0.141899876072
-0.141887698627
-0.141870166662
-0.141859053604
-0.121920231472
-0.121928944336
-0.121942281941
-0.121953696509
-0.12196990158
-0.121993478748
-0.122017110752
-0.122044281106
-0.122078745899
-0.122122710924
-0.122167624509
-0.122230973173
-0.122303056504
-0.122374960729
-0.122448233518
-0.122532915465
-0.122629477654
-0.122734821906
-0.122848987697
-0.122975782434
-0.123118364131
-0.123278763775
-0.123457941326
-0.123658366099
-0.123893436183
-0.124148557439
-0.12441684905
-0.124718895717
-0.125040387294
-0.12538787969
-0.125749187655
-0.126120364738
-0.126495574651
-0.126877787607
-0.127277950822
-0.127697825795
-0.128138210713
-0.12860009786
-0.129083684115
-0.129588494636
-0.130114063452
-0.130659925471
-0.131225095729
-0.13180761927
-0.132404420602
-0.133011578419
-0.133624941489
-0.134240600244
-0.134854867867
-0.135463863357
-0.136063011844
-0.136646558458
-0.13720745902
-0.137738104173
-0.138231787259
-0.138683618719
-0.139088881811
-0.139441562155
-0.139736210972
-0.139979092318
-0.140190434522
-0.140389691138
-0.140584579128
-0.140774310502
-0.140959750643
-0.141144900245
-0.141318702658
-0.141471984628
-0.141597320359
-0.141721769606
-0.141847033644
-0.141955291475
-0.142032326552
-0.142077252214
-0.142093036362
-0.142082533713
-0.142050876754
-0.142012877736
-0.141977514634
-0.141956337843
-0.121856583506
-0.121864804085
-0.121878799139
-0.12189245946
-0.121912875401
-0.121932278478
-0.121955024604
-0.121982163848
-0.122010453439
-0.122057233669
-0.122107690861
-0.122169390876
-0.12223947361
-0.122309612006
-0.122380022455
-0.122461597572
-0.122555936601
-0.122656294418
-0.12276471347
-0.122886075567
-0.123024834364
-0.123183088118
-0.123362414845
-0.123557848766
-0.123783121734
-0.124044743446
-0.124314582657
-0.124610776838
-0.12492953418
-0.125265224992
-0.125629232542
-0.125998108153
-0.126367930534
-0.12674740893
-0.12714781931
-0.127569857476
-0.128013251723
-0.128478659621
-0.128966541321
-0.129476933742
-0.130009705203
-0.130564233885
-0.131139120905
-0.13173213766
-0.132340172253
-0.132959443971
-0.13358604427
-0.13421630526
-0.134846641673
-0.135473159658
-0.13609116032
-0.136694772727
-0.137277031841
-0.137831081206
-0.138351564429
-0.138834094458
-0.139268841716
-0.139642378127
-0.139946510689
-0.140194084353
-0.140416346164
-0.140632767311
-0.140842988604
-0.141039935909
-0.141223936854
-0.141398074539
-0.141563843604
-0.141723948439
-0.141848283178
-0.14198247402
-0.142119218949
-0.142235701041
-0.14231505321
-0.142352949805
-0.14234778422
-0.14230117386
-0.142225172093
-0.142150817527
-0.142086984081
-0.142051201071
-0.12178411087
-0.121790337251
-0.121800327474
-0.121818137494
-0.121843583305
-0.121861741737
-0.121883878954
-0.121912675278
-0.121938332536
-0.121980650475
-0.122034633332
-0.122095759218
-0.122163099428
-0.122232090835
-0.122304140461
-0.122383152886
-0.122472809153
-0.12256781394
-0.122671090763
-0.122786643524
-0.122918934927
-0.123071696007
-0.123253988322
-0.12345391126
-0.123668236651
-0.123923630416
-0.124196396477
-0.12448304719
-0.12480581666
-0.125140883739
-0.125491632645
-0.125851614802
-0.126218430759
-0.126600728319
-0.127002879297
-0.12742698593
-0.127873412704
-0.128342686008
-0.128835317834
-0.129351581255
-0.129891842449
-0.130455730842
-0.131041504919
-0.131646506855
-0.132267565637
-0.132901121436
-0.133543568513
-0.134191442312
-0.134841239856
-0.135488995508
-0.136129911665
-0.136758042112
-0.137366785092
-0.137950508073
-0.138505430363
-0.139027383372
-0.139495553391
-0.139894837916
-0.140216332305
-0.140472041573
-0.140713152725
-0.140953288027
-0.141179694659
-0.14137663076
-0.141545711666
-0.141697858405
-0.141846921781
-0.141992722816
-0.142137967387
-0.142279972925
-0.142447694291
-0.142587948761
-0.142681162908
-0.142713225415
-0.142677469781
-0.142575954616
-0.142423527477
-0.142296758279
-0.142183117662
-0.142122659473
-0.121702804106
-0.121707162657
-0.121711635347
-0.121731408162
-0.121755928685
-0.121777095556
-0.121800195229
-0.121830577619
-0.121858468522
-0.121897651941
-0.12195116123
-0.122010629021
-0.122074574387
-0.122139582466
-0.122213530465
-0.122293935205
-0.122379264673
-0.122468996216
-0.122567452151
-0.122677785738
-0.122802909348
-0.122946420884
-0.123123410967
-0.123333863603
-0.12354729013
-0.123786662284
-0.12406283608
-0.124347003531
-0.124655402192
-0.124989235553
-0.125335834447
-0.125690084064
-0.126053099416
-0.12643665786
-0.126841192283
-0.127267849344
-0.12771745399
-0.128190741933
-0.128688646758
-0.129211476062
-0.129759670911
-0.130333411322
-0.130931092334
-0.131549620439
-0.132185618016
-0.132835849146
-0.133497128923
-0.134166218388
-0.134839562121
-0.135513136487
-0.136182009601
-0.136840237068
-0.137481513299
-0.138101237104
-0.138695927586
-0.13926429298
-0.139767554209
-0.140214945623
-0.140579167681
-0.140842445704
-0.141109706316
-0.141381065048
-0.14162828604
-0.141816539449
-0.141945143257
-0.142041167942
-0.142150546761
-0.142272957073
-0.142411684752
-0.142559111071
-0.142794104568
-0.14299724948
-0.143126066725
-0.143163717729
-0.143091795486
-0.142913168455
-0.142626857571
-0.142443912124
-0.142239439446
-0.142139830511
-0.121613531231
-0.121618357723
-0.121625339852
-0.121638146463
-0.121658158404
-0.121680769399
-0.121705152478
-0.121735101659
-0.121767820736
-0.121805311583
-0.121857348179
-0.121914630073
-0.121975471227
-0.122036484606
-0.122106790324
-0.122188377419
-0.122272133389
-0.122358460056
-0.12245261852
-0.122558111264
-0.122677067647
-0.122811522429
-0.122978309781
-0.123190625234
-0.123411261974
-0.123639875054
-0.123911107281
-0.124196939015
-0.124492543459
-0.124816667159
-0.125153772154
-0.12550265439
-0.125868550947
-0.126254389114
-0.126661299958
-0.127090733054
-0.127544029367
-0.128021722223
-0.128524955288
-0.129054896985
-0.129611952804
-0.130196281601
-0.130806683501
-0.131440061812
-0.132092911421
-0.132762373126
-0.133445876997
-0.134140332253
-0.134842079903
-0.135547063884
-0.136250395959
-0.136946211009
-0.137627502312
-0.13828841433
-0.138918132931
-0.139539823402
-0.140079541058
-0.140657502324
-0.141215964757
-0.141429457862
-0.14173875932
-0.142068850361
-0.142341232108
-0.142496312954
-0.142518758405
-0.142565187973
-0.142733742415
-0.142899880863
-0.143053642504
-0.143169726623
-0.143655059589
-0.143992214219
-0.144154010635
-0.144157645708
-0.143981563589
-0.14364317094
-0.142817870601
-0.142590563614
-0.142202859893
-0.14205182319
-0.121514375141
-0.121519730496
-0.121531463324
-0.121537607395
-0.121552845114
-0.121574896934
-0.121599839852
-0.121630304462
-0.121668763328
-0.121703564444
-0.121753172296
-0.121808157735
-0.121866406709
-0.121925055184
-0.12199147701
-0.122070733372
-0.122152285289
-0.122235859848
-0.122326108505
-0.122426628904
-0.12253993076
-0.12266742255
-0.122821310883
-0.123024687122
-0.123256077405
-0.123482131581
-0.123736340256
-0.12402789855
-0.124324550878
-0.124627952768
-0.12495317266
-0.125298039643
-0.125664234842
-0.126051952017
-0.126461460323
-0.126894025334
-0.127351057052
-0.127833775282
-0.128343051035
-0.128880299899
-0.129446839578
-0.130042804679
-0.130666925077
-0.131316244813
-0.131987546321
-0.132678768074
-0.133388079903
-0.134112578787
-0.134848237472
-0.135591174884
-0.136337492843
-0.137082367035
-0.137815000086
-0.13852161501
-0.139146781641
-0.139844782751
-0.140395350382
-0.141187485238
-0.141043387306
-0.140792694232
-0.140613126062
-0.140392610319
-0.140154038664
-0.139911938081
-0.139716092363
-0.139488860084
-0.139171090916
-0.138935114044
-0.138901001464
-0.139046556946
-0.139208605
-0.139655258189
-0.140288266616
-0.140923204082
-0.141298797775
-0.141486884569
-0.142247782552
-0.14308932769
-0.141995604876
-0.141792251411
-0.121403536907
-0.121408230069
-0.121418165924
-0.121424463587
-0.121437230607
-0.121458772169
-0.121483009045
-0.121511504207
-0.121554308854
-0.121590630885
-0.121637858789
-0.121690879473
-0.121747297768
-0.121804853934
-0.121868164024
-0.121943264782
-0.122021319442
-0.122101835412
-0.122188070522
-0.122283410988
-0.122390547677
-0.122511667001
-0.122654913331
-0.122844683786
-0.123077572289
-0.123310333419
-0.123547592823
-0.123823787362
-0.124122701463
-0.124423182419
-0.124737274052
-0.125075641459
-0.125440055693
-0.125828700497
-0.126240504012
-0.126675983495
-0.127136978973
-0.127624791547
-0.128140776154
-0.128686108732
-0.129262586779
-0.129871035945
-0.130510097271
-0.13117640837
-0.13186710653
-0.1325819054
-0.133320808371
-0.134080526024
-0.134855347521
-0.13564260022
-0.136443051289
-0.137256130801
-0.138061323052
-0.138814410057
-0.13932067998
-0.140303574375
-0.140105285722
-0.139985002808
-0.140018132782
-0.139640690261
-0.139045243205
-0.138236219005
-0.137278753426
-0.136233525678
-0.135205278674
-0.134231050787
-0.133323419285
-0.132590920811
-0.132172013657
-0.132129944119
-0.132388907911
-0.133030899209
-0.134053620737
-0.135326842237
-0.136641026604
-0.137863725492
-0.138832461726
-0.139592667413
-0.1408247339
-0.141119261075
-0.121282576258
-0.121286511098
-0.121295958584
-0.121301320084
-0.121313233475
-0.121333471869
-0.121356397681
-0.121380902856
-0.121421424186
-0.121462580801
-0.12150975204
-0.121561479963
-0.121616867283
-0.121675208937
-0.121735108672
-0.121805645379
-0.12187959208
-0.121956754482
-0.122038617607
-0.122128501635
-0.12222897752
-0.1223427176
-0.122476281642
-0.122650850082
-0.122874084464
-0.123117659427
-0.123350031728
-0.123606040672
-0.123890215129
-0.124185869466
-0.124494672736
-0.124830464579
-0.125193280061
-0.125582155246
-0.125996148124
-0.126434966131
-0.126899850832
-0.127393045984
-0.127916004603
-0.128470182362
-0.129057360266
-0.129678808998
-0.130333778744
-0.131018373521
-0.131729157646
-0.13246865426
-0.133240116693
-0.134038976766
-0.134856071162
-0.135692577305
-0.136559933216
-0.137476632435
-0.1384043415
-0.139465613024
-0.139183889977
-0.139021365941
-0.139014811141
-0.138806815834
-0.138573541409
-0.13799870117
-0.137138040653
-0.13599492181
-0.134650436779
-0.133174357158
-0.131657367756
-0.130161171554
-0.128741221856
-0.127481725839
-0.126492603683
-0.125883432797
-0.125718485572
-0.126016822622
-0.126792505447
-0.128016192038
-0.129625497333
-0.131548416388
-0.133590560877
-0.135568650196
-0.137878019262
-0.140674273196
-0.121153224381
-0.121155994164
-0.12116205342
-0.121167969228
-0.121181468052
-0.121200264807
-0.121222433561
-0.121244072231
-0.121280859573
-0.121322830051
-0.121369120754
-0.121418931768
-0.121472186241
-0.121532154273
-0.121589970067
-0.121655915551
-0.121725662532
-0.121799824359
-0.121877202146
-0.121961414724
-0.122054837919
-0.12216028965
-0.122283904731
-0.122443544541
-0.122652057821
-0.122896209885
-0.123136219662
-0.123378821805
-0.123643889929
-0.123926076869
-0.124228124761
-0.124560026474
-0.124920263344
-0.125308679649
-0.125724809188
-0.12616733425
-0.126637101006
-0.127136011402
-0.127666632318
-0.128230181815
-0.128828641058
-0.129464211363
-0.130136392141
-0.1308405839
-0.131570061518
-0.13232995391
-0.133134687393
-0.133980145671
-0.134840926658
-0.135722100415
-0.136656175766
-0.137695108566
-0.138858215113
-0.138552460295
-0.138228152479
-0.13795835524
-0.137754482311
-0.137336135364
-0.136678698003
-0.135698731701
-0.134467688284
-0.132994793562
-0.131349586431
-0.12959130693
-0.127787631204
-0.125991678054
-0.124260082168
-0.122658133061
-0.121263942204
-0.120182382486
-0.119535912809
-0.119362263905
-0.119683691207
-0.120521847245
-0.121941036964
-0.124041655594
-0.126630278702
-0.129055922494
-0.132730361843
-0.143852815847
-0.121017538953
-0.121019234568
-0.121021381116
-0.121028296877
-0.121042766615
-0.121059764578
-0.121080593519
-0.121101625919
-0.121133114202
-0.121173120283
-0.121216946338
-0.121263689119
-0.121312851628
-0.12137023819
-0.121429118072
-0.121491726088
-0.121557226008
-0.121628068008
-0.121701907681
-0.121780885507
-0.121867326362
-0.121963567722
-0.122076794636
-0.122221481193
-0.122411062653
-0.122642030682
-0.12288750022
-0.123126718457
-0.123377893096
-0.123647509653
-0.123938236151
-0.124262876983
-0.124619907554
-0.125005520754
-0.125423312266
-0.125869824822
-0.126344277148
-0.12684986887
-0.127389212505
-0.127963846595
-0.12857483466
-0.129224666523
-0.129913891607
-0.130639081702
-0.131393905976
-0.132181862259
-0.133015207939
-0.133884128936
-0.13477381153
-0.135696609592
-0.136675077031
-0.138017341143
-0.137535392362
-0.137151118095
-0.137041180984
-0.136738243204
-0.136203741832
-0.135363841319
-0.134228483513
-0.132792920706
-0.131130581494
-0.129261019895
-0.127232148713
-0.12508235718
-0.122857204779
-0.120599387011
-0.11836155349
-0.116205031919
-0.114201714555
-0.112449910277
-0.111077246414
-0.110162712386
-0.10968857491
-0.109661372942
-0.110195066861
-0.111567585059
-0.113743856445
-0.115470646671
-0.116289978972
-0.121312732434
-0.12087660339
-0.120877730483
-0.120878135501
-0.120886116203
-0.120898975617
-0.120912893032
-0.120929897347
-0.120950965349
-0.120976793203
-0.121013337645
-0.12105384799
-0.121096948062
-0.121141916843
-0.12119343874
-0.121252067146
-0.121312462085
-0.121374023202
-0.121440222021
-0.121510275442
-0.121584784634
-0.121665077029
-0.121751727223
-0.121853834532
-0.121983774603
-0.122153658004
-0.12236525796
-0.122601978472
-0.122839741048
-0.123079355962
-0.123336992165
-0.123620506498
-0.123933836873
-0.124283987063
-0.124667463368
-0.125087207281
-0.125538086275
-0.126017774117
-0.126530550605
-0.127079364355
-0.127666235925
-0.128292028088
-0.128958477771
-0.129668942174
-0.13042297993
-0.131211822275
-0.13202483953
-0.132870408911
-0.133751183983
-0.134660166379
-0.135566866469
-0.136507091956
-0.136196664347
-0.135807004809
-0.135714353469
-0.135605017957
-0.135031035649
-0.134092630105
-0.132775002217
-0.13114509971
-0.129231805527
-0.127090122982
-0.12473711254
-0.122201661454
-0.119507321602
-0.116686870443
-0.113778080674
-0.110830189199
-0.107899613565
-0.105047676794
-0.102349775514
-0.0999056645698
-0.0977894770011
-0.0959036199261
-0.0941180870223
-0.0924655919747
-0.0913493320792
-0.0907729932392
-0.0871150226528
-0.0724463336724
-0.0546783267331
-0.120729381306
-0.120730192614
-0.120730153995
-0.120739306945
-0.12074994571
-0.120760220144
-0.120772298079
-0.120791999218
-0.120810940875
-0.120843116186
-0.120879982723
-0.12091910986
-0.120960050614
-0.121006521434
-0.121061380298
-0.12111884087
-0.121176601834
-0.121237561997
-0.121301925805
-0.121371369681
-0.121446035128
-0.121523273471
-0.121613017804
-0.121728176381
-0.121878622827
-0.122068423831
-0.122290110675
-0.122521896984
-0.122759674609
-0.123002461489
-0.123274383327
-0.123578020035
-0.123917388601
-0.124290344042
-0.124706841033
-0.125164728208
-0.125652339052
-0.126174198192
-0.126733107976
-0.127332777312
-0.127975772256
-0.128663781288
-0.129403255423
-0.130193261175
-0.13101061674
-0.131840523527
-0.132699367623
-0.133615226574
-0.134588061107
-0.135676219666
-0.134797310207
-0.134037035754
-0.134036436738
-0.134145112928
-0.133744894286
-0.132760219099
-0.13134210758
-0.129512983775
-0.127359835993
-0.124922459688
-0.122241152152
-0.119329374502
-0.116207103111
-0.112894163299
-0.109420014197
-0.105820259825
-0.102137452206
-0.0984145237066
-0.0946882732281
-0.0909895494629
-0.0873514135957
-0.0837791477842
-0.0800871480623
-0.0759136438198
-0.071116976878
-0.0660260259133
-0.0601214863376
-0.0467212938542
-0.0100387570906
0.0441963751871
-0.120573059521
-0.120573509039
-0.120574035485
-0.120584416158
-0.120592930707
-0.120599739592
-0.120608132525
-0.120624178776
-0.12063578001
-0.120662634887
-0.120695281737
-0.120729894066
-0.120766315917
-0.120807364322
-0.120856777928
-0.120910192947
-0.120964546567
-0.121019588944
-0.121076687407
-0.121139526223
-0.121207934872
-0.121276213044
-0.121351974309
-0.121451869081
-0.121583426415
-0.121749935854
-0.121951141493
-0.122166921688
-0.122401065716
-0.122639671458
-0.122896593384
-0.123183006328
-0.123512505414
-0.123882017286
-0.124287573321
-0.124743291286
-0.12523947693
-0.125772194619
-0.126345053993
-0.12695985267
-0.127621342946
-0.128338065292
-0.129117717114
-0.129945575353
-0.130784816442
-0.131627330785
-0.132512062137
-0.133494504562
-0.134691028954
-0.133725579994
-0.132759615009
-0.132478751718
-0.132558723897
-0.132333141772
-0.131432227899
-0.129932950052
-0.127962943957
-0.125580273364
-0.122871584451
-0.119879041088
-0.11663877891
-0.113169304497
-0.109494060252
-0.105637977313
-0.101631437815
-0.0975047381292
-0.0932840944524
-0.088983568333
-0.084596712958
-0.0800875767688
-0.0753811906674
-0.0703460135221
-0.0647487450705
-0.0580967946207
-0.0501039881637
-0.0408839399836
-0.0287725364306
-0.00442239644655
0.049038345064
0.117748305234
-0.120403601027
-0.120403684022
-0.120404741541
-0.120416043223
-0.120421982597
-0.1204268975
-0.120432347743
-0.120443065005
-0.120449051997
-0.120471352834
-0.120499396014
-0.120528881213
-0.120560087031
-0.12059484028
-0.120637276494
-0.120684656572
-0.120735668487
-0.120784199437
-0.120833337422
-0.1208880666
-0.12094792476
-0.121008396106
-0.121069662669
-0.121152341877
-0.121265455486
-0.121408794851
-0.121586252958
-0.121780179654
-0.121996798298
-0.122233637209
-0.122485522716
-0.122756110627
-0.123061348097
-0.123419406373
-0.1238245513
-0.124275687307
-0.124775394895
-0.125317766107
-0.125904872753
-0.126539165504
-0.127226532171
-0.127981605629
-0.128807673158
-0.12967182597
-0.130542558668
-0.131417354429
-0.132326729329
-0.133447854224
-0.132654815361
-0.1317176995
-0.131342721393
-0.131230984125
-0.130993787789
-0.130176306176
-0.128657675044
-0.126557193102
-0.123989364533
-0.121033398012
-0.117771108985
-0.114248785256
-0.110506352768
-0.106571477557
-0.102472563837
-0.0982342484853
-0.0938764514572
-0.0894073842627
-0.0848179328238
-0.0800756467305
-0.0751204348066
-0.0698542852593
-0.0641142007801