/*--------------------------------*- C++ -*----------------------------------*\
| =========                 |                                                 |
| \\      /  F ield         | OpenFOAM: The Open Source CFD Toolbox           |
|  \\    /   O peration     | Version:  v1806                                 |
|   \\  /    A nd           | Web:      www.OpenFOAM.com                      |
|    \\/     M anipulation  |                                                 |
\*---------------------------------------------------------------------------*/
FoamFile
{
    version     2.0;
    format      ascii;
    class       surfaceScalarField;
    location    "177";
    object      phia;
}
// * * * * * * * * * * * * * * * * * * * * * * * * * * * * * * * * * * * * * //

dimensions      [0 3 -1 0 0 0 0];
oriented        oriented;


internalField   nonuniform List<scalar> 
12640
(
9.98747213187e-08
-9.99757834028e-08
1.94916457457e-07
-9.49460141099e-08
2.82234813279e-07
-8.72042508011e-08
3.57676088052e-07
-7.52817606253e-08
4.10783092584e-07
-5.30065843862e-08
4.38042158114e-07
-2.72505770666e-08
4.5203645875e-07
-1.39879083543e-08
4.84797932305e-07
-3.27533787381e-08
5.3948465302e-07
-5.46425825063e-08
5.90604139849e-07
-5.10601191886e-08
6.3763354435e-07
-4.69410116316e-08
6.92548468681e-07
-5.48190114954e-08
7.42781950904e-07
-5.0124032448e-08
7.82129828969e-07
-3.92452734591e-08
8.16154497584e-07
-3.39361945009e-08
8.58434935235e-07
-4.22499220923e-08
9.03300673684e-07
-4.48354042194e-08
9.38633121403e-07
-3.53174172319e-08
9.61043554025e-07
-2.23389563355e-08
9.76291056301e-07
-1.51292665951e-08
1.00393697088e-06
-2.74917926471e-08
1.04941198397e-06
-4.53240367722e-08
1.10232394304e-06
-5.27499112719e-08
1.1570199292e-06
-5.45539647119e-08
1.2084731631e-06
-5.13166228777e-08
1.2551928793e-06
-4.6605457698e-08
1.30152450436e-06
-4.62157166958e-08
1.3452028409e-06
-4.35854740119e-08
1.38341934397e-06
-3.81163105981e-08
1.41721811935e-06
-3.37198712099e-08
1.45248902371e-06
-3.51784005319e-08
1.48713179849e-06
-3.45687298751e-08
1.51589171317e-06
-2.87024532595e-08
1.54684499253e-06
-3.0897818457e-08
1.57756910482e-06
-3.06274638733e-08
1.60715976585e-06
-2.95201529977e-08
1.64229091465e-06
-3.50298551767e-08
1.67637068008e-06
-3.39353704067e-08
1.70662440419e-06
-3.00711075285e-08
1.74395430539e-06
-3.71447281139e-08
1.81295707027e-06
-6.88083823685e-08
1.8882371214e-06
-7.51173007214e-08
1.92965797416e-06
-4.12723630295e-08
1.95092004251e-06
-2.11062913226e-08
1.96348365801e-06
-1.23996248601e-08
1.96605324252e-06
-2.4081447443e-09
1.95913479622e-06
7.0918395886e-09
1.94033782154e-06
1.8969228134e-08
1.91263598556e-06
2.78808520098e-08
1.89409000077e-06
1.87043678913e-08
1.90335497025e-06
-9.06795946056e-09
1.91082395268e-06
-7.30488088019e-09
1.84879543659e-06
6.21712539623e-08
1.74706117818e-06
1.01897892072e-07
1.62261502638e-06
1.24603905294e-07
1.45274521183e-06
1.70018008386e-07
1.29812126917e-06
1.54848866838e-07
1.18482365938e-06
1.13586486426e-07
1.06103004278e-06
1.24129930016e-07
9.25877501758e-07
1.35551566476e-07
8.11419150071e-07
1.14954388323e-07
6.87407810389e-07
1.24471297679e-07
4.97285298823e-07
1.90575330801e-07
3.48564368332e-07
1.48999611991e-07
2.51916202933e-07
9.68198647661e-08
1.857201528e-07
6.63139036932e-08
1.30316786421e-07
5.5519521243e-08
7.74977470353e-08
5.2954863681e-08
2.55841078097e-08
5.20785800542e-08
-2.46717891648e-08
5.04491685223e-08
-6.91179686435e-08
4.46628477871e-08
-1.03114177553e-07
3.4224087598e-08
-1.24130019028e-07
2.12462910317e-08
-1.31230270567e-07
7.33693408077e-09
-1.27853897024e-07
-3.15100765241e-09
-1.16435939046e-07
-1.11893279453e-08
-1.03778505597e-07
-1.24134054048e-08
-7.92307858602e-08
-2.42934739348e-08
-5.01459062701e-08
-2.8762881407e-08
-4.98873925863e-08
4.98463780345e-08
-1.49575803794e-07
1.14905170652e-07
-1.59886380825e-07
1.79247544426e-07
-1.51375683172e-07
2.4904715256e-07
-1.44954619099e-07
3.47046308175e-07
-1.50945157998e-07
4.28850923296e-07
-1.09005195564e-07
4.77080950986e-07
-6.22214356763e-08
5.19243596319e-07
-7.48602214245e-08
5.63518274118e-07
-9.8856477303e-08
6.14643306504e-07
-1.02078156563e-07
6.6543349293e-07
-9.76348845351e-08
7.05667113286e-07
-9.49288447143e-08
7.4271682024e-07
-8.7092663787e-08
7.80764566046e-07
-7.72228708475e-08
8.1898293438e-07
-7.21469410501e-08
8.64049270973e-07
-8.7281201617e-08
9.0101965952e-07
-8.18104377418e-08
9.07832993996e-07
-4.20501775397e-08
9.10620357564e-07
-2.50320601126e-08
9.31578754259e-07
-3.59316439923e-08
9.732639917e-07
-6.90138426678e-08
1.03942931689e-06
-1.11286136098e-07
1.10735624659e-06
-1.20529151498e-07
1.15685367691e-06
-1.03880666922e-07
1.20339051877e-06
-9.77341532219e-08
1.25769111759e-06
-1.00761074471e-07
1.30529295788e-06
-9.37245840368e-08
1.34494113718e-06
-8.31092092834e-08
1.38137991429e-06
-7.44791451823e-08
1.41538482121e-06
-6.76146661287e-08
1.44472916854e-06
-6.44602124314e-08
1.47107538708e-06
-6.08497169093e-08
1.4915375204e-06
-4.91155710183e-08
1.51614694925e-06
-5.54250005731e-08
1.55432392742e-06
-6.87709886944e-08
1.58325877114e-06
-5.83272373843e-08
1.61333204853e-06
-6.497945828e-08
1.6607694187e-06
-8.12055760059e-08
1.71700325467e-06
-8.61461607638e-08
1.76069157168e-06
-8.06269334142e-08
1.72727799847e-06
-3.52544371805e-08
1.6581204434e-06
-5.81250124009e-09
1.64663340373e-06
-2.9666140343e-08
1.67089480245e-06
-4.52000337917e-08
1.70553409393e-06
-4.6890136094e-08
1.74734592376e-06
-4.40311104549e-08
1.78627194193e-06
-3.16721504449e-08
1.82083925052e-06
-1.54042822593e-08
1.84406934579e-06
4.81559297692e-09
1.82685973941e-06
3.60978763376e-08
1.74920115718e-06
6.87267673486e-08
1.66539428138e-06
7.66579187038e-08
1.69252580051e-06
3.52007573586e-08
1.7151837715e-06
7.94377020998e-08
1.65430274575e-06
1.85675120113e-07
1.60666780845e-06
2.17899960025e-07
1.5456439749e-06
2.16154773245e-07
1.43430664817e-06
2.2526309527e-07
1.30944552006e-06
2.49388077432e-07
1.15981252044e-06
2.85660594722e-07
9.29581077277e-07
3.45627210334e-07
7.07996081285e-07
3.46518550494e-07
5.10072803021e-07
3.8893396632e-07
3.57900264695e-07
3.01429290551e-07
2.52992713623e-07
2.01868609053e-07
1.76231178321e-07
1.43189371284e-07
1.18716660183e-07
1.13145237661e-07
6.77327914463e-08
1.04071233593e-07
1.69496159095e-08
1.03021641012e-07
-3.28576665479e-08
1.00448954298e-07
-7.61963979433e-08
8.82131586434e-08
-1.08207273685e-07
6.64543708533e-08
-1.30490936623e-07
4.37593412975e-08
-1.45549806032e-07
2.26440366132e-08
-1.49919644433e-07
1.47744555012e-09
-1.45337969605e-07
-1.55015589697e-08
-1.28497339156e-07
-2.8965440092e-08
-1.02549727946e-07
-4.99274723414e-08
-5.70584381257e-08
-7.38715223199e-08
-1.06673380657e-07
6.75444773639e-08
-2.17310612862e-07
9.53603920258e-08
-1.87559995783e-07
1.82765203941e-07
-2.3863775029e-07
2.91285702855e-07
-2.53395910816e-07
3.87325916935e-07
-2.46955619456e-07
4.30286106259e-07
-1.51924469733e-07
4.50120535383e-07
-8.19511907603e-08
4.9615060586e-07
-1.20771808493e-07
5.51471721261e-07
-1.54043537213e-07
6.06918127418e-07
-1.57385140519e-07
6.58879921256e-07
-1.49470691159e-07
7.01813389498e-07
-1.37796579484e-07
7.39005855011e-07
-1.24269899584e-07
7.77148149075e-07
-1.15377517765e-07
8.0100648768e-07
-9.60147409667e-08
7.65316170976e-07
-5.15831861696e-08
7.02197552905e-07
-1.86201853368e-08
6.89806248875e-07
-2.95663684018e-08
7.32772466371e-07
-6.78632708891e-08
8.40021184973e-07
-1.43011885714e-07
9.65699666448e-07
-1.94505798095e-07
1.04176630021e-06
-1.87190059675e-07
1.09150128717e-06
-1.70099439821e-07
1.15319192239e-06
-1.65432667148e-07
1.21255854667e-06
-1.5695956386e-07
1.25789871023e-06
-1.45987739771e-07
1.29755465169e-06
-1.33260580436e-07
1.33562968668e-06
-1.21089918294e-07
1.3697037099e-06
-1.08451227145e-07
1.40256254509e-06
-1.00400370924e-07
1.42679055926e-06
-8.86283898049e-08
1.44718814417e-06
-8.11809215597e-08
1.47347819448e-06
-7.53746487376e-08
1.47539423825e-06
-5.73001089651e-08
1.48825574275e-06
-8.15152276407e-08
1.54391495441e-06
-1.13867248864e-07
1.57800435336e-06
-9.89158359274e-08
1.61171742657e-06
-1.14747756271e-07
1.69069290327e-06
-1.64933863823e-07
1.77296466056e-06
-1.62744188119e-07
1.84527807346e-06
-1.07412600827e-07
1.90317610586e-06
-6.35626454491e-08
1.93408343941e-06
-6.03989435069e-08
1.95350211541e-06
-6.44490504985e-08
1.96792507329e-06
-6.11226724029e-08
1.97538779648e-06
-5.13118729395e-08
1.97823925076e-06
-3.43272017652e-08
1.9754423935e-06
-1.24250908085e-08
1.96599764342e-06
1.44440212125e-08
1.95478915834e-06
4.74626880087e-08
1.94337203188e-06
8.03063051903e-08
1.91595115782e-06
1.04247513694e-07
1.8248262442e-06
1.26507721779e-07
1.71960798459e-06
1.84844432481e-07
1.67020743001e-06
2.3530301911e-07
1.62287929586e-06
2.65486539441e-07
1.53346189593e-06
3.05871281592e-07
1.41099095869e-06
3.48069634413e-07
1.26967480412e-06
3.91084993742e-07
1.11396515819e-06
4.41776722145e-07
9.6354590399e-07
4.96515266012e-07
7.64334155434e-07
5.46191481103e-07
5.41420098392e-07
6.12223519956e-07
3.50177480366e-07
4.92925744464e-07
2.33945723661e-07
3.18256372674e-07
1.65452195151e-07
2.1179711049e-07
1.06343049134e-07
1.72364983003e-07
5.21407114639e-08
1.5839862452e-07
1.72700534691e-09
1.53586545296e-07
-4.61510524313e-08
1.48508003477e-07
-9.00307412813e-08
1.32299816775e-07
-1.28803289558e-07
1.05456572739e-07
-1.58688377858e-07
7.38955486094e-08
-1.72332886282e-07
3.6550738008e-08
-1.71192343389e-07
6.01992361894e-10
-1.60022417658e-07
-2.63866814293e-08
-1.41075980842e-07
-4.76241210943e-08
-1.14352443761e-07
-7.63618390798e-08
-5.353259881e-08
-1.34312470937e-07
-1.600820326e-07
4.62362638791e-08
-2.6325880645e-07
5.54300353873e-08
-1.96684888863e-07
1.64119164461e-07
-3.47231085719e-07
2.47082520189e-07
-3.36323972234e-07
2.34050824039e-07
-2.33885807419e-07
1.85254868516e-07
-1.03079044759e-07
2.63057313419e-07
-1.59646182088e-07
4.11088813534e-07
-2.6860509864e-07
5.17162370308e-07
-2.59935455451e-07
5.87733317803e-07
-2.27809819439e-07
6.4833855552e-07
-2.10001906169e-07
6.97397243045e-07
-1.86859523931e-07
7.24125398762e-07
-1.51042676762e-07
6.98148015866e-07
-8.94526850098e-08
6.37095524625e-07
-3.49587444617e-08
6.0993744096e-07
-2.43392906882e-08
6.40315428692e-07
-4.88770312275e-08
7.2579026058e-07
-1.14885738749e-07
8.54002758329e-07
-1.95899436239e-07
9.49496662843e-07
-2.38335654494e-07
9.9620172283e-07
-2.41052095082e-07
1.04806293791e-06
-2.38887053623e-07
1.10772653542e-06
-2.29614563823e-07
1.15855671977e-06
-2.16120680505e-07
1.20353515365e-06
-2.01822084853e-07
1.24403156668e-06
-1.86364690744e-07
1.28429930683e-06
-1.73434269687e-07
1.32052323175e-06
-1.57206047893e-07
1.35571613109e-06
-1.43564303813e-07
1.38186051307e-06
-1.26479940056e-07
1.40967886241e-06
-1.16391290458e-07
1.42278319282e-06
-9.42665907542e-08
1.4187342158e-06
-7.12662173219e-08
1.46037533956e-06
-9.88433093559e-08
1.4943654889e-06
-1.15393000798e-07
1.52642084381e-06
-1.45761926616e-07
1.62376918959e-06
-1.96079106092e-07
1.72114477534e-06
-2.11938332222e-07
1.7683404747e-06
-2.11975037061e-07
1.79906774786e-06
-1.93311533211e-07
1.8434068633e-06
-1.5158902055e-07
1.89331213523e-06
-1.13291246095e-07
1.92954304569e-06
-9.64609527017e-08
1.95372711319e-06
-8.84553967083e-08
1.97049805887e-06
-7.77211083161e-08
1.98091616125e-06
-6.15481899399e-08
1.98613152663e-06
-3.93658294167e-08
1.98569988033e-06
-1.18106129459e-08
1.97909764998e-06
2.12171750193e-08
1.96692080974e-06
5.98081772119e-08
1.94611834222e-06
1.01265797455e-07
1.90711477543e-06
1.43408921586e-07
1.84292177786e-06
1.90868787922e-07
1.77740106267e-06
2.50563038781e-07
1.70764365278e-06
3.05282311449e-07
1.61739635333e-06
3.55989342118e-07
1.50607563861e-06
4.17481834332e-07
1.37072328556e-06
4.83741793783e-07
1.21343674056e-06
5.48720728474e-07
1.0438462456e-06
6.11752276985e-07
8.7089075504e-07
6.69862152888e-07
6.93653779987e-07
7.23837892699e-07
5.4729318382e-07
7.58993929615e-07
3.73701779109e-07
6.66777405248e-07
2.37585686192e-07
4.54539965532e-07
1.50608123734e-07
2.98893327824e-07
8.61222412374e-08
2.369630597e-07
3.029787682e-08
2.14346751557e-07
-2.09772956441e-08
2.05012180581e-07
-7.21544930437e-08
1.99872109455e-07
-1.23587272515e-07
1.83955342227e-07
-1.63907607172e-07
1.46022649485e-07
-1.80422651342e-07
9.06541090636e-08
-1.81466702932e-07
3.78309081793e-08
-1.76776933574e-07
-3.83241739974e-09
-1.5966359708e-07
-4.32342629674e-08
-1.25208639096e-07
-8.18345590357e-08
-8.98403354762e-08
-1.11518498111e-07
-4.80828049551e-08
-1.75888036122e-07
-2.07992080703e-07
3.52076613633e-09
-2.66914280294e-07
5.11479650297e-08
-2.44237955245e-07
1.40359237662e-07
-4.36450657412e-07
1.86306383389e-07
-3.82341600547e-07
1.55957601312e-07
-2.03499420373e-07
1.94377033348e-07
-1.41396992974e-07
3.14132389288e-07
-2.7921421515e-07
4.12510598802e-07
-3.66810845355e-07
4.86123187009e-07
-3.33377028987e-07
5.56746437782e-07
-2.98350931571e-07
6.22687839662e-07
-2.75961713054e-07
6.41019098568e-07
-2.05235591652e-07
5.99458849756e-07
-1.09536113599e-07
5.65797054304e-07
-5.57737895184e-08
5.86352573027e-07
-5.54096394479e-08
6.50215737425e-07
-8.80570032769e-08
7.5323360287e-07
-1.51719983705e-07
8.59517737825e-07
-2.20980462303e-07
9.14581778986e-07
-2.50795413921e-07
9.41862244014e-07
-2.65461186751e-07
9.91207622722e-07
-2.90244038616e-07
1.04866969652e-06
-2.96199366408e-07
1.10120126418e-06
-2.82007688285e-07
1.14693079568e-06
-2.6173494844e-07
1.18874825049e-06
-2.43525481592e-07
1.23094898448e-06
-2.28478334259e-07
1.26478563288e-06
-2.0715862277e-07
1.3013294487e-06
-1.93669522018e-07
1.32792863696e-06
-1.70104650134e-07
1.35605351277e-06
-1.54560538425e-07
1.36618605409e-06
-1.26490835842e-07
1.38813259292e-06
-1.16153472314e-07
1.44178719137e-06
-1.24836863998e-07
1.46056887983e-06
-1.17490551986e-07
1.51176215617e-06
-1.66411089954e-07
1.60464515494e-06
-2.38457702909e-07
1.67526042418e-06
-2.66517962483e-07
1.72940420908e-06
-2.65927274722e-07
1.76969906992e-06
-2.52117054661e-07
1.80482019128e-06
-2.28277569699e-07
1.84680135229e-06
-1.93402191572e-07
1.89201655228e-06
-1.58334592926e-07
1.92944949104e-06
-1.33715808394e-07
1.95698078087e-06
-1.15812469079e-07
1.97684620075e-06
-9.74100769511e-08
1.99046532147e-06
-7.49943586888e-08
1.99849728979e-06
-4.72213541153e-08
2.00054033176e-06
-1.36808277197e-08
1.99564983928e-06
2.62796397159e-08
1.98251287505e-06
7.31056251392e-08
1.9578375531e-06
1.26094762819e-07
1.91672925844e-06
1.84669895815e-07
1.85829100578e-06
2.49470845454e-07
1.78986077869e-06
3.19177500868e-07
1.70764121213e-06
3.87714287691e-07
1.60340420016e-06
4.60472490069e-07
1.47522185519e-06
5.45931419565e-07
1.3212059953e-06
6.38055868485e-07
1.14561227265e-06
7.24635599246e-07
9.62410347891e-07
7.95305346038e-07
7.86457334077e-07
8.46212179308e-07
6.37583837748e-07
8.73128432098e-07
5.42839885713e-07
8.5406115224e-07
3.69796352653e-07
8.40129811143e-07
2.43628762898e-07
5.80913829036e-07
1.49158368705e-07
3.93508223674e-07
7.05179158188e-08
3.15725797786e-07
5.19767553506e-09
2.79795595212e-07
-5.15508829994e-08
2.61910478579e-07
-1.08694301737e-07
2.57204565701e-07
-1.61697776035e-07
2.37188540187e-07
-1.88253331302e-07
1.72812783639e-07
-1.95635480789e-07
9.82578760487e-08
-1.99626809125e-07
4.2058764139e-08
-1.93417997383e-07
-9.79017677092e-09
-1.68455696433e-07
-6.79325421683e-08
-1.36097901888e-07
-1.13996349258e-07
-9.74747319249e-08
-1.49981527585e-07
-4.69818429944e-08
-2.2609592667e-07
-2.54917260211e-07
5.04287446972e-10
-2.67214644569e-07
7.04740666028e-08
-3.14193192191e-07
1.12970445344e-07
-4.78981213333e-07
1.29878684244e-07
-3.99240170838e-07
1.17443632807e-07
-1.91019339667e-07
2.26056746462e-07
-2.49877820391e-07
3.52459752683e-07
-4.05447806016e-07
4.05555461698e-07
-4.19722147554e-07
4.60805236384e-07
-3.88570157962e-07
5.08705179085e-07
-3.46243569942e-07
5.18057820236e-07
-2.85352540539e-07
4.67739854794e-07
-1.54966577466e-07
4.55723479924e-07
-9.74955817796e-08
4.96340920234e-07
-9.62935029619e-08
5.71570711847e-07
-1.30485316998e-07
6.88780703119e-07
-2.05068121386e-07
8.04925012272e-07
-2.67668886414e-07
8.53320952255e-07
-2.69222528491e-07
8.74821986916e-07
-2.72150820235e-07
9.3152272416e-07
-3.22012684641e-07
9.91760191084e-07
-3.50335757485e-07
1.03992661417e-06
-3.442329354e-07
1.08579432982e-06
-3.27755928584e-07
1.13311216895e-06
-3.08937248354e-07
1.17628395529e-06
-2.86610052763e-07
1.19914407853e-06
-2.51240430386e-07
1.23594118925e-06
-2.43883569015e-07
1.26195424877e-06
-2.19619417546e-07
1.29047098868e-06
-1.9855998064e-07
1.29271803233e-06
-1.5676513187e-07
1.30543517372e-06
-1.39163801443e-07
1.33429022197e-06
-1.44924710973e-07
1.36023759191e-06
-1.50652988573e-07
1.45362018154e-06
-2.1069838667e-07
1.55979065841e-06
-2.72380159773e-07
1.63381582928e-06
-3.12303152939e-07
1.68651908908e-06
-3.19066559066e-07
1.72990336048e-06
-3.09171112902e-07
1.76915669301e-06
-2.9123306683e-07
1.8079137106e-06
-2.6688458121e-07
1.84987553204e-06
-2.35198420626e-07
1.89304674728e-06
-2.01328733321e-07
1.93122570564e-06
-1.71716813574e-07
1.96169078365e-06
-1.46100489657e-07
1.98502615999e-06
-1.20571790328e-07
2.00217842965e-06
-9.19734850911e-08
2.0134850168e-06
-5.83574446419e-08
2.01823327825e-06
-1.82595808872e-08
2.01495469672e-06
2.9723230964e-08
2.00165888955e-06
8.65609134497e-08
1.97556175436e-06
1.52345310673e-07
1.93390158319e-06
2.26480533449e-07
1.87597089549e-06
3.07562755971e-07
1.80220788667e-06
3.9311363756e-07
1.70778806467e-06
4.82337027915e-07
1.58724028577e-06
5.81244004379e-07
1.44013595301e-06
6.93301172097e-07
1.26939557848e-06
8.0907232447e-07
1.08187110517e-06
9.12472129198e-07
8.93153481366e-07
9.84372592306e-07
7.24692249227e-07
1.01505674737e-06
5.90432357315e-07
1.00774813423e-06
4.93702042385e-07
9.51171740778e-07
3.60262688866e-07
9.7389407496e-07
2.26164701028e-07
7.15216934492e-07
1.36537123388e-07
4.83262417931e-07
5.15864331911e-08
4.00800583465e-07
-2.51326463112e-08
3.56645554085e-07
-9.32001064294e-08
3.30131089198e-07
-1.55353075849e-07
3.19550391872e-07
-1.9457973186e-07
2.76630395872e-07
-2.08431281673e-07
1.86866596196e-07
-2.21713047041e-07
1.11749014053e-07
-2.29873520691e-07
5.04399835389e-08
-2.2167349441e-07
-1.77278846812e-08
-1.94576597022e-07
-9.48068921939e-08
-1.57005139319e-07
-1.51360964782e-07
-1.12930817683e-07
-1.93843700404e-07
-5.89434911261e-08
-2.79974063919e-07
-3.13676311998e-07
2.44762858124e-08
-2.91743576741e-07
1.13505801294e-07
-4.03196045841e-07
1.48139033581e-07
-5.13721750863e-07
1.13298413299e-07
-3.64411184389e-07
1.45746522233e-07
-2.23374195954e-07
2.81108710123e-07
-3.85075617006e-07
3.51325866951e-07
-4.75476645137e-07
3.91801338779e-07
-4.60152781759e-07
4.19352813283e-07
-4.16054220146e-07
4.64543800793e-07
-3.91517318773e-07
4.35833087576e-07
-2.56694731991e-07
4.1029255096e-07
-1.2942104567e-07
4.45922322303e-07
-1.33043175207e-07
5.02582987125e-07
-1.52790038182e-07
6.07831870988e-07
-2.35531152324e-07
7.29185786281e-07
-3.26242884885e-07
7.75679828833e-07
-3.14019534603e-07
7.9130636061e-07
-2.84709517639e-07
8.56482988708e-07
-3.37176182512e-07
9.27315440797e-07
-3.92699389116e-07
9.7990072462e-07
-4.02791388006e-07
1.02692410099e-06
-3.91136611132e-07
1.07291562675e-06
-3.73624730238e-07
1.1082127381e-06
-3.44147043208e-07
1.13241791193e-06
-3.1073345167e-07
1.16055786993e-06
-2.79301439501e-07
1.17924160513e-06
-2.62491598095e-07
1.2093722713e-06
-2.49676923324e-07
1.22155907317e-06
-2.10699639555e-07
1.22384497395e-06
-1.59000762747e-07
1.2604000453e-06
-1.75630012166e-07
1.30692877903e-06
-1.9134589306e-07
1.38010337592e-06
-2.23663921553e-07
1.47457182795e-06
-3.04969918952e-07
1.57720953175e-06
-3.74836270535e-07
1.6402825265e-06
-3.75220802563e-07
1.68548540166e-06
-3.64132241878e-07
1.72699325797e-06
-3.50549349397e-07
1.76835532844e-06
-3.32460353826e-07
1.80995719059e-06
-3.08338779078e-07
1.85278808013e-06
-2.77867143034e-07
1.895645795e-06
-2.44014594309e-07
1.93484972455e-06
-2.10744263383e-07
1.96804303823e-06
-1.79117511101e-07
1.99498981114e-06
-1.47343260092e-07
2.01605727004e-06
-1.12868311224e-07
2.03108065644e-06
-7.32099043138e-08
2.03894968451e-06
-2.59613324955e-08
2.0378749233e-06
3.09610825885e-08
2.02568288118e-06
9.89118366877e-08
1.99988288004e-06
1.7829396349e-07
1.95806308304e-06
2.684503178e-07
1.89813546159e-06
3.67635080516e-07
1.81714718256e-06
4.74273820228e-07
1.70997264789e-06
5.89698827851e-07
1.57336703841e-06
7.18089917988e-07
1.40930046242e-06
8.57607061896e-07
1.22394466587e-06
9.94719016365e-07
1.02847821969e-06
1.10825947972e-06
8.43091404612e-07
1.17013721152e-06
7.0217749373e-07
1.15636711566e-06
6.10430001937e-07
1.0999101845e-06
4.95809434735e-07
1.06615429973e-06
4.05028529097e-07
1.06499390945e-06
2.20705143836e-07
8.99723753217e-07
1.13281433134e-07
5.90830098904e-07
2.17513660168e-08
4.92450142109e-07
-6.69151678597e-08
4.45440604929e-07
-1.4383258822e-07
4.07195501313e-07
-1.96784680284e-07
3.72670229823e-07
-2.19650669467e-07
2.99666827723e-07
-2.38900963651e-07
2.0629495075e-07
-2.61811428922e-07
1.34845837105e-07
-2.72461938593e-07
6.13352152899e-08
-2.62341242822e-07
-2.76240164053e-08
-2.3715102207e-07
-1.19738068471e-07
-1.93299971415e-07
-1.9501708438e-07
-1.36970649196e-07
-2.5002322547e-07
-7.67497277715e-08
-3.39847357707e-07
-3.90398738939e-07
4.81202753585e-08
-3.39660373281e-07
1.31634614454e-07
-4.86709251488e-07
1.38511682862e-07
-5.20538087117e-07
7.88730469908e-08
-3.04735869981e-07
1.70579718943e-07
-3.14979604215e-07
2.8858335183e-07
-5.02910951204e-07
3.3159049189e-07
-5.18412061393e-07
3.75487092522e-07
-5.03975689789e-07
3.65414146594e-07
-4.06084700866e-07
3.72989045397e-07
-3.99094886665e-07
3.39178910193e-07
-2.22904934452e-07
3.90616841454e-07
-1.80789669515e-07
4.38531475844e-07
-1.8082115755e-07
5.22713975548e-07
-2.36804991853e-07
6.39030058512e-07
-3.51652134849e-07
6.96868827958e-07
-3.83922825804e-07
7.08617496605e-07
-3.25651607235e-07
7.72085340904e-07
-3.48043284407e-07
8.52788216477e-07
-4.17728456326e-07
9.09868900891e-07
-4.49643273628e-07
9.56205037968e-07
-4.49004159566e-07
1.00108025479e-06
-4.35883321896e-07
1.05129959285e-06
-4.23757056369e-07
1.09705795244e-06
-3.89829322682e-07
1.11088194178e-06
-3.24473633207e-07
1.14493829822e-06
-3.1329571508e-07
1.16135399977e-06
-2.78835966661e-07
1.15852250845e-06
-2.46781739501e-07
1.16721167939e-06
-2.19317656224e-07
1.24514202369e-06
-2.3684812403e-07
1.28986866303e-06
-2.20261129522e-07
1.30966700752e-06
-2.10986646697e-07
1.40373206484e-06
-3.17548081306e-07
1.5202209083e-06
-4.21270717212e-07
1.5831740343e-06
-4.3762726564e-07
1.63349306961e-06
-4.25401441976e-07
1.67903528338e-06
-4.09548495053e-07
1.72287013187e-06
-3.94261464337e-07
1.7668715298e-06
-3.76332427792e-07
1.81109960088e-06
-3.52424541212e-07
1.85540473546e-06
-3.2201452955e-07
1.89897512068e-06
-2.87416302012e-07
1.93976499393e-06
-2.51360002888e-07
1.97589773714e-06
-2.15075225038e-07
2.00670032177e-06
-1.77972199818e-07
2.03203847933e-06
-1.38035203963e-07
2.05126772804e-06
-9.22714969022e-08
2.06293088816e-06
-3.74599275016e-08
2.06507572027e-06
2.89788935234e-08
2.05546725981e-06
1.0867650019e-07
2.0315247853e-06
2.02396362568e-07
1.99021115884e-06
3.09904219333e-07
1.92773525798e-06
4.30269295558e-07
1.83908732557e-06
5.63070860152e-07
1.71946161905e-06
7.09541108283e-07
1.56809672664e-06
8.69658384837e-07
1.38982889948e-06
1.03615232477e-06
1.19183738643e-06
1.19299319676e-06
9.83591481069e-07
1.31688006914e-06
7.95994238285e-07
1.35814580301e-06
6.73203526109e-07
1.27960655051e-06
5.9236268808e-07
1.18114925908e-06
5.22592965553e-07
1.13631785947e-06
4.71779703671e-07
1.11610479393e-06
3.01747830339e-07
1.07005392679e-06
1.01189006703e-07
7.91532346374e-07
-1.76289777941e-08
6.11401775406e-07
-1.13875128204e-07
5.41834171145e-07
-1.87506458816e-07
4.80987328064e-07
-2.2761786623e-07
4.12950378345e-07
-2.50541719948e-07
3.22763371637e-07
-2.82711262223e-07
2.38629667956e-07
-3.13138171659e-07
1.65495798411e-07
-3.27642442207e-07
7.60480681812e-08
-3.21155865884e-07
-3.38115686317e-08
-2.97491682619e-07
-1.43185277048e-07
-2.49730370873e-07
-2.42530856889e-07
-1.7410397589e-07
-3.25363701785e-07
-9.50990248576e-08
-4.18792078202e-07
-4.85219095823e-07
6.60705989051e-08
-4.05768115553e-07
1.30125938924e-07
-5.5074794669e-07
1.05892826889e-07
-4.96359130017e-07
1.05549994094e-07
-3.04339340535e-07
2.19221938844e-07
-4.28550177472e-07
2.66691795063e-07
-5.50283668258e-07
3.05838095751e-07
-5.57540581602e-07
3.43325551261e-07
-5.41497423931e-07
3.43110969665e-07
-4.05864889782e-07
3.47404774741e-07
-4.03441556287e-07
3.48999122333e-07
-2.24446012169e-07
3.91694336525e-07
-2.23395866593e-07
4.48187993249e-07
-2.37147704098e-07
5.50126303422e-07
-3.38532371456e-07
6.52101831853e-07
-4.53491826047e-07
6.72092390848e-07
-4.03811478941e-07
6.9786336991e-07
-3.5130226281e-07
7.66670845299e-07
-4.16701063924e-07
8.35535462562e-07
-4.86446601507e-07
8.88013331775e-07
-5.01983089619e-07
9.31934471686e-07
-4.92779175497e-07
9.66380339835e-07
-4.70240022513e-07
9.96717435644e-07
-4.54030661202e-07
1.02682055752e-06
-4.19870677109e-07
1.04957276708e-06
-3.47183861952e-07
1.07389596829e-06
-3.37548348675e-07
1.11296221333e-06
-3.17830696436e-07
1.15848340462e-06
-2.92230775796e-07
1.20256267379e-06
-2.6333435311e-07
1.23248834264e-06
-2.66682580573e-07
1.28026242337e-06
-2.6788453194e-07
1.38621532177e-06
-3.16748845784e-07
1.47028826629e-06
-4.01415473842e-07
1.52766659845e-06
-4.78470169307e-07
1.57694024967e-06
-4.86759781671e-07
1.62447143071e-06
-4.72810203463e-07
1.67156102445e-06
-4.56521789176e-07
1.71780927035e-06
-4.40391008893e-07
1.76404459146e-06
-4.224410281e-07
1.81065810821e-06
-3.98898293096e-07
1.85713541412e-06
-3.68339784784e-07
1.90248450642e-06
-3.32602836787e-07
1.94547747313e-06
-2.94184673534e-07
1.98492272186e-06
-2.54349495994e-07
2.01995681995e-06
-2.12835557261e-07
2.04992540569e-06
-1.67835293805e-07
2.07388246038e-06
-1.16060385506e-07
2.09026130749e-06
-5.36719333567e-08
2.09704007206e-06
2.23668355391e-08
2.09188307047e-06
1.14007527587e-07
2.07182831404e-06
2.22594672799e-07
2.03280253799e-06
3.49087726369e-07
1.96906085507e-06
4.94123540949e-07
1.87395561155e-06
6.58371701823e-07
1.7428063524e-06
8.40847486237e-07
1.5771149862e-06
1.03560661382e-06
1.38303906081e-06
1.23045907296e-06
1.16619590857e-06
1.41020135321e-06
9.35670398531e-07
1.54780353768e-06
7.49114486772e-07
1.54519911929e-06
6.56095714128e-07
1.3730629235e-06
5.96737647548e-07
1.24092538976e-06
5.3719596655e-07
1.19620352796e-06
4.74595828206e-07
1.17908459347e-06
3.92665364382e-07
1.15221874702e-06
1.60638668508e-07
1.02381160362e-06
-6.57761434522e-08
8.3802479164e-07
-1.67216034787e-07
6.4344908425e-07
-2.29896147242e-07
5.43855336749e-07
-2.62360149286e-07
4.45599266006e-07
-2.93350740865e-07
3.53911824838e-07
-3.3588791088e-07
2.81373968463e-07
-3.73207922617e-07
2.03004481751e-07
-3.94001029346e-07
9.7163989472e-08
-3.96200233768e-07
-3.13915689558e-08
-3.74886256505e-07
-1.64173118331e-07
-3.22524907919e-07
-2.94630302555e-07
-2.28370017076e-07
-4.19360583457e-07
-1.17467499166e-07
-5.29173729485e-07
-6.02670821191e-07
8.07457419244e-08
-4.86269730782e-07
1.36182474449e-07
-6.06076948048e-07
9.51565687752e-08
-4.55276238662e-07
1.32030116601e-07
-3.41182425521e-07
2.32513308135e-07
-5.28980077659e-07
2.39182918292e-07
-5.56979189555e-07
2.74236523628e-07
-5.92542120225e-07
2.77704360859e-07
-5.45021768719e-07
3.07216560247e-07
-4.35372642575e-07
2.89359049015e-07
-3.85547830174e-07
3.32061467008e-07
-2.67092460538e-07
3.86371627049e-07
-2.77550907639e-07
4.50574559633e-07
-3.01204753426e-07
5.46585847289e-07
-4.34395848695e-07
6.00286866319e-07
-5.07049211594e-07
6.02853245798e-07
-4.06288099082e-07
6.6496055064e-07
-4.13288942133e-07
7.42628220855e-07
-4.9422193698e-07
8.05882551302e-07
-5.4955366207e-07
8.6141648168e-07
-5.5737080244e-07
9.09760038007e-07
-5.4103869203e-07
9.53200778783e-07
-5.13596610933e-07
9.73196299809e-07
-4.73957947017e-07
9.88662717366e-07
-4.35297581016e-07
1.03536711596e-06
-3.93828197195e-07
1.05026257054e-06
-3.52371406248e-07
1.05047043808e-06
-3.17992477027e-07
1.06153337059e-06
-3.03238648919e-07
1.12352843828e-06
-3.25236835483e-07
1.20272799353e-06
-3.45762091885e-07
1.28046929117e-06
-3.45456530078e-07
1.35634445816e-06
-3.92412034602e-07
1.46160763942e-06
-5.06460762769e-07
1.52110182585e-06
-5.37805672086e-07
1.567374175e-06
-5.32905030964e-07
1.61501645593e-06
-5.20336416611e-07
1.66375138917e-06
-5.0514279779e-07
1.71205556082e-06
-4.88579598265e-07
1.76011901991e-06
-4.70381496434e-07
1.80871797188e-06
-4.47364833116e-07
1.85751852693e-06
-4.16995715058e-07
1.9053951466e-06
-3.80325249373e-07
1.95130452765e-06
-3.3993272511e-07
1.99446203828e-06
-2.97342932246e-07
2.03413214975e-06
-2.52340969714e-07
2.06934263092e-06
-2.02880231703e-07
2.09876058095e-06
-1.45315547543e-07
2.12087057762e-06
-7.56144532087e-08
2.1339457434e-06
9.46886941386e-09
2.1356604862e-06
1.12451761464e-07
2.12260227728e-06
2.35839220965e-07
2.08931125045e-06
3.82480885187e-07
2.02778941779e-06
5.55851125574e-07
1.92867977439e-06
7.57608028341e-07
1.78645163966e-06
9.8331205655e-07
1.60360532183e-06
1.21863506781e-06
1.38513119689e-06
1.44925819702e-06
1.12995707541e-06
1.66574209704e-06
8.71377596163e-07
1.80692486025e-06
7.26489691901e-07
1.69061868451e-06
6.8123507827e-07
1.41877204704e-06
6.27088054735e-07
1.29542214233e-06
5.49114581298e-07
1.27452647971e-06
4.61646383874e-07
1.26683318826e-06
3.83397041204e-07
1.23084154899e-06
2.29275734775e-07
1.17821936368e-06
-2.02045019114e-08
1.08775227078e-06
-2.12924207861e-07
8.36394628516e-07
-2.70018525834e-07
6.01138321222e-07
-3.02900424796e-07
4.78620730179e-07
-3.41738807503e-07
3.9292887946e-07
-3.90893490456e-07
3.30652645496e-07
-4.38072018005e-07
2.50423976667e-07
-4.72205180218e-07
1.31455567541e-07
-4.86977890147e-07
-1.627035526e-08
-4.68666163236e-07
-1.82253404197e-07
-4.08666264147e-07
-3.5437175907e-07
-2.98239767467e-07
-5.29393869152e-07
-1.5361589553e-07
-6.73821063023e-07
-7.56056289764e-07