/*--------------------------------*- C++ -*----------------------------------*\
| =========                 |                                                 |
| \\      /  F ield         | OpenFOAM: The Open Source CFD Toolbox           |
|  \\    /   O peration     | Version:  v1806                                 |
|   \\  /    A nd           | Web:      www.OpenFOAM.com                      |
|    \\/     M anipulation  |                                                 |
\*---------------------------------------------------------------------------*/
FoamFile
{
    version     2.0;
    format      ascii;
    class       volScalarField;
    location    "343";
    object      alpha;
}
// * * * * * * * * * * * * * * * * * * * * * * * * * * * * * * * * * * * * * //

dimensions      [0 0 -1 0 0 0 0];


internalField   nonuniform List<scalar> 
6400
(
0.848660060505
1.29969405409
2.01433492676
2.37985185126
2.73885614745
3.12650070905
3.71994718338
4.40602452731
4.62017669018
5.04109915409
6.18071416826
6.7856008657
7.2542189739
7.84348519311
8.67204346963
9.52897254482
10.2081526993
10.8538123865
11.4129882238
11.6697185106
11.6430577229
11.671457611
11.9948620887
12.6494637693
13.4022943633
14.0458854414
14.5024277955
14.90819727
15.3890056206
15.9574379094
16.5595548832
16.9502200627
17.0599920332
17.0492759913
16.9361354797
16.645104469
16.5409168414
16.8032814253
16.629948431
16.1524538678
16.1168547847
16.689803164
17.3000380747
17.5948761144
17.654963939
17.5534687157
17.3647312527
17.1494529745
16.9170451278
16.6827157977
16.3081251808
15.4502760915
14.451810776
13.2919946076
12.5279363749
12.3510644953
11.7042988164
10.0554759771
8.21158890878
7.23301045998
6.06345742618
4.82971809425
3.549285556
5.12480798547
9.22618067271
14.2031569597
17.2247143626
16.9606251518
14.9870781296
13.3445651803
12.4310503843
12.5546040364
13.0142543063
12.8465631203
14.7937940158
14.2047068576
16.0171056939
9.92272394226
12.879079255
4.81818782522
3.101084939
2.42585309925
2.98234559086
4.1912284663
3.92497630656
3.61338431457
3.68251227168
4.00321826737
4.49154522844
5.13155537404
5.93626776966
6.73817798633
7.42571182809
8.08158593282
8.73973287021
9.50764387296
10.311078398
11.1076321015
12.1265664701
12.1776784318
11.8959451764
11.8452640574
12.0727968335
12.6802677296
13.6538549569
14.192211448
14.5966280223
15.0655482696
15.5761260866
16.1080845501
16.659214793
17.2123782987
17.3236821642
17.3240169194
17.2802997096
16.8081443592
16.810219227
17.0883145248
16.7979083882
16.0563042769
15.9630663472
17.7677544061
19.0066595148
19.1525750779
19.1123572013
18.8178383819
18.3701331817
17.9684812013
17.3770288571
16.8257751454
16.5974565589
16.7965648232
16.2527532454
13.5163763416
12.9871985811
12.3345290336
10.530073249
8.96212958031
7.58200349493
6.24099588736
5.10876848459
5.24395087991
3.87826163975
5.39286884115
9.30459116829
15.1598513069
18.9182770816
17.7349203238
15.5921890343
13.6685032419
12.9141236971
13.2516515213
14.2560887678
13.6485838523
13.448724596
12.8832189205
11.6467622411
9.78114376396
8.20317037459
4.2910717142
3.09974482279
2.657320861
3.15159786304
3.29366889056
3.63702802384
3.97472716905
3.90902595432
3.93590787941
4.41166957157
5.11417288918
5.91513671415
6.73641084251
7.47653413981
8.14419476292
8.66139907083
9.34756511248
12.3199121625
14.4067796511
14.6686779788
13.7482680133
11.7289698262
11.3755596535
12.2529731904
12.9216315797
13.4961061224
14.1547761771
14.7241422432
15.1977603105
15.6860676289
16.2325036918
16.72585425
17.4288210665
17.5741382644
17.1850202153
17.7458558221
17.2906003163
16.6676226665
17.3514827239
17.0468387695
16.304253618
16.2072263885
16.8100641727
17.4454255808
17.7595269738
17.843628991
17.7863075755
17.6249888063
17.3808422675
17.0554624676
16.6750712326
16.2448404155
15.6629779208
14.8207786769
14.0982968134
13.508730484
12.0382569881
10.4441383688
9.02149967774
7.71176239711
6.52717588822
5.59791979396
4.73220807087
4.18658533332
6.35587319997
11.4088449773
16.0605390014
18.3636742733
18.5059420879
16.9294606759
15.2463283991
14.5152454325
14.3721847479
13.6877681479
13.0644148248
12.9841615467
12.5839522327
11.5549376008
9.90932432158
7.47790261704
7.63980695124
2.94951913839
5.36747127806
3.32197301278
3.33210004854
3.97178202858
11.7419114694
10.0723967358
4.6649711265
4.41639799973
5.13307665726
5.93991313127
6.77135627639
7.48788669301
8.22388875791
10.1078876067
12.3546127649
13.9993868825
14.1868456865
12.5981399837
11.2051123698
11.2993984207
11.6453950156
12.1328435689
12.8318424964
13.590445274
14.3066842496
14.9214601315
15.3551259457
15.8996350704
16.3164259997
17.0723167606
17.3835297215
18.0491120086
17.7610351299
17.0065329192
17.4710095739
16.9636654663
16.4395509722
16.4131278734
16.4221566617
16.5631343647
16.9845666967
17.4633192803
17.7714251642
17.8940080511
17.8719756604
17.7373388483
17.5119828364
17.2059881094
16.8302967255
16.3778014092
15.8083535427
15.1005361835
14.3169089313
13.358092039
12.0619830762
10.5957029903
9.20872767814
7.98519520526
6.9641149692
6.18457304866
5.6367267285
5.63504171639
7.20526372615
10.7049837456
16.3981131659
19.975804982
20.1917956076
18.5421506709
16.2027794817
14.5878261792
13.7687779261
13.8868637023
15.2025103878
15.0842714228
13.7194464165
13.5262152403
16.7590291914
13.1868601912
11.225544265
5.38406330438
7.37526287322
3.87594378339
4.19448821934
6.26575790763
11.6239756707
7.83180011775
4.9131177838
4.91600330055
5.35702806825
6.09192854479
6.94828643428
8.39053667628
10.9265702277
11.9048739849
12.1216272977
11.8091291316
11.1359599828
10.8374836474
11.266148284
11.4433434693
11.6413025847
12.2075786117
12.9404848152
13.7342628623
14.5039453576
15.0551755382
15.7122136781
16.0172641229
16.815094042
17.072562923
18.4125277383
17.9209145088
17.1724114546
17.3230987295
16.60721985
16.4042641799
16.4213316423
16.5156429974
16.6309058102
16.8182635592
17.1512806521
17.5342499778
17.8234340021
17.9683119478
17.9749286236
17.8653624164
17.6614538187
17.3775157696
17.0193810799
16.5776954953
16.0315987804
15.3679048458
14.5711991946
13.548640528
12.2518423263
10.8479211055
9.5540444696
8.47914731452
7.66194439311
7.11851258173
6.90124908878
7.27537332843
8.08513268699
10.7174542695
15.8702045848
20.0449466909
21.4622062379
20.2961148178
17.5471678936
15.0855459583
14.7278347526
16.8800269957
17.6890655384
16.606348681
15.6464457833
18.2293141486
21.2000189756
16.5543487008
15.675527522
9.71551044467
8.84206487933
4.80950917293
5.53161329805
11.8879053433
11.3160407402
5.84040255887
5.41104362738
5.48575889517
5.69268728053
6.38729594894
9.24856088904
12.672171751
12.9970149663
12.462588675
11.1496258215
10.3000166499
10.2872226944
11.1571344769
11.2688675965
11.257446527
11.6913206587
12.358374979
13.1514699151
13.8494907206
14.6410978968
15.6163148486
15.7909317635
16.8427266243
16.7979476032
18.5208249532
18.0398205321
19.0222685388
17.6324818645
16.3936200579
16.1560795598
16.3040556459
16.499562548
16.6747583737
16.8385200209
17.047065823
17.3380454444
17.6618151225
17.9287837773
18.0822526183
18.1097393509
18.0226305881
17.8424998877
17.5868851186
17.2597494082
16.8500561937
16.3378703595
15.6964819072
14.8801025242
13.8289683231
12.5707849921
11.2774191708
10.1306808397
9.21795496833
8.585994438
8.25046741609
8.39093406901
9.4194970546
8.75127652303
12.2364760306
17.6088621807
21.2752506156
22.6918716802
21.771970973
18.4413858415
16.2830642016
18.006218971
20.1348492327
19.5693321054
18.5260044586
18.5580674582
23.0283676623
24.5753112171
19.6180839911
19.416941624
11.790238127
8.48969622264
5.85283920118
5.51966713037
11.7686858915
7.86145422802
5.84157994052
5.92764066293
6.00792645184
6.68460767898
7.04854930004
12.5791114572
13.1081237797
13.0320735836
11.3447095511
9.81961690829
9.7398257833
11.1017790559
11.1828817265
10.8766100564
11.2672457571
11.8054205973
12.4716446321
13.2618583932
14.2506258969
15.2399725999
15.6031918393
17.0602015689
16.8099222419
18.7238455714
18.0513184291
19.2256004507
18.1697254405
17.3130220033
16.05253032
16.0097672151
16.3355462996
16.631211493
16.8470282945
17.0402254095
17.2667958502
17.5405830489
17.8310260245
18.0796871647
18.2357267349
18.2778152245
18.2120659696
18.060678496
17.8425186516
17.5589854141
17.1942228558
16.7205155161
16.09782607
15.2783815027
14.2432040913
13.0685903932
11.9196611927
10.9348040055
10.158831223
9.599885389
9.37644239578
9.58239736754
9.73017766968
10.1158806684
13.4788984556
20.0545848597
22.5989825184
23.0226977729
21.9824372223
19.7519999241
19.5073248467
21.9925561644
22.3845152478
21.4960557637
20.8614633992
22.7495683509
25.4165594652
26.8266265185
22.2808592909
21.1487794345
11.4018252
7.89630705503
6.91613086753
11.8058033829
11.7664796136
6.48888840008
6.4134251944
6.51089970176
6.66750811158
7.19130869196
12.3901587037
13.2706819532
13.2076617797
12.5479858551
9.87772235439
9.22310334
10.8875092772
11.3105337155
10.6946358065
10.7234894551
11.319650808
12.0271255432
12.7012810513
13.5673316812
14.3274086058
15.7097915318
15.7296187653
17.0177908246
18.6126720691
18.7950564409
17.5932932188
18.4768050815
18.3824017324
16.335787742
15.96811602
16.1269478523
16.4499736407
16.7706390758
17.0226840754
17.2439656018
17.4873792025
17.7601989295
18.03510952
18.2707172899
18.4263653799
18.4800030827
18.4371479647
18.3211068235
18.1501512915
17.9214162511
17.6121636198
17.1847802239
16.5916925649
15.7980090537
14.8244855198
13.7736380871
12.779609037
11.9052344918
11.1283955638
10.5107535494
10.3004703942
10.5332483724
11.0094331835
11.8120511668
12.5639387546
20.0605645559
24.2728487609
24.412759797
23.8730003967
22.9906471667
23.8483428798
25.1653563126
24.4367922354
23.6902206959
23.8277175113
26.0448025223
26.645792006
27.1720645587
24.3048339083
22.1801861939
10.5256372033
7.59076087301
7.557288487
12.7231109315
10.4920670127
6.88954713498
7.03028933446
7.24420628955
8.72376762428
7.18798615607
13.1636441736
13.7211217262
13.201837389
11.0597936356
9.27137856892
9.35068293212
11.0040795273
10.9169078138
10.524962201
10.7529025574
11.3120366963
12.1431713165
12.952846568
14.3332602193
15.5342261478
15.5869006059
17.7743752799
16.7348010508
18.9135609398
17.774181446
19.3249133527
17.4542918596
16.660196969
16.1688746147
16.1052241733
16.3001318512
16.5958902704
16.9166690667
17.2013677302
17.4569549857
17.7197197795
17.9977890504
18.2687378473
18.4979100866
18.6523079188
18.7169119622
18.7011360649
18.628179555
18.5134960602
18.3498451058
18.1073027474
17.739215938
17.1965834898
16.4642661207
15.5948713927
14.6910994726
13.8190302012
12.9256528838
11.9467253526
11.1636282583
11.105169198
11.8237115356
12.786412422
13.6086186227
14.1851643145
16.7733079332
24.4147359007
26.1561241893
26.2889205768
27.0234307003
28.1109385498
27.7431960518
26.6679963382
26.3667822953
27.2271591216
28.2921265572
28.0535469333
27.3878197597
26.3488329633
24.9724744187
9.76923180597
7.83786425805
8.73641334676
12.7299707073
8.08699909756
7.89506947354
7.64945974065
7.89793001653
11.4335260258
9.99465654796
13.9924382873
13.9328228842
13.196010619
10.127670866
9.19805928255
11.002595237
11.2669557625
10.5930503681
10.4744403215
10.9309391756
11.4409306243
12.2138929664
12.876798983
14.5151841126
16.83618597
15.4552592344
17.6870447697
18.834139747
19.1644698966
19.5262710611
18.1005421396
17.9416166414
16.2028204653
16.0262975553
16.2485671421
16.4867572101
16.7609715806
17.0714455676
17.3803293158
17.6757029988
17.9677326898
18.2578163149
18.5302997117
18.7580125977
18.9140566483
18.9905804022
19.0054763258
18.9835237426
18.9345193335
18.8456825763
18.6819975164
18.3906770477
17.9258533391
17.2940592301
16.5661243397
15.8078982524
14.9514473267
13.7819308745
12.4097857352
11.6543442098
12.2038636787
13.6391352835
14.9710624225
15.9179991048
16.4940071416
16.1845720124
17.0083367427
27.9687405558
30.8451266735
31.9926078806
31.9112333802
30.47665261
29.4545485576
29.5579730923
30.5012796876
30.6697859528
30.3093496004
29.9439286104
30.2382536322
30.3988786375
9.49478328834
8.52617181642
12.3545952438
12.7220009176
7.91013062668
8.59385880545
8.24635744609
8.89234170203
10.7028456958
13.6876452641
14.72110973
14.1075512267
13.3222654596
9.9315834684
9.29853738462
11.5811217173
11.2989145375
10.5063930708
10.4918473923
11.0814179733
11.8746747935
12.5603735656
13.0714246218
14.0906203373
16.9894930425
18.1262758595
17.0517347004
18.9934974799
17.4748006835
19.5700540866
19.6267101912
17.8034920439
16.0968466785
16.119751165
16.4253104829
16.6835264559
16.947651522
17.2461389725
17.5631207233
17.8959276641
18.2293113553
18.5410184064
18.8201897068
19.050097671
19.2108598887
19.3033293445
19.3536563411
19.3879020673
19.4110584255
19.4057161077
19.3334629751
19.1391046604
18.7853351286
18.2985770313
17.7418364555
17.0701592653
15.9506346814
14.1800552876
12.6801475735
12.5221669923
14.1100277123
16.2852365009
17.8836790465
18.8810909078
19.221892783
18.7544600143
17.7869958724
19.2964110052
32.54599378
37.7830121103
36.5571040152
34.1639818775
33.1661640832
33.3391855552
33.7966539305
33.8785571997
34.0264571896
34.4516887343
35.0047996551
35.6492309827
9.61878767338
9.28560655411
13.9309743798
13.2328727982
11.0802766892
9.74087155588
9.04184269852
10.4008235116
9.92748763291
14.6227513325
15.2581422601
14.3402562945
13.2383461349
10.3740106002
10.0630110545
12.0784703936
11.2393756972
10.5325355633
10.6033975535
11.1236943077
12.0563529974
13.0110220133
14.8438110142
14.2392268713
16.4085268153
18.5190378459
16.7851033082
19.3032607962
19.8755776495
18.3525388379
18.3387694067
16.6359613202
16.4109992904
16.4457218918
16.6549153087
16.9069223692
17.1658642673
17.4543138595
17.7590173532
18.1073674092
18.4926799009
18.8504090367
19.1431840413
19.3745373646
19.5433052984
19.6576127964
19.7481946884
19.8410286939
19.9382170448
20.0202025857
20.0474386104
19.9713619651
19.7727818743
19.4811363693
19.0886631152
18.270672364
16.4357819229
14.265223484
13.2862843099
14.2576797122
17.1528528428
19.8947747644
21.6751618102
22.8744141442
23.1796390882
22.4638887006
21.0922208429
19.3491351762
28.7551758609
38.9530837641
41.8176205479
39.1388448499
38.1179733207
38.0430549287
38.1275125781
38.1030651801
38.852964112
39.5748939168
39.5009424816
39.7023975155
10.0663128342
9.85347088537
13.5588358221
13.5769806047
13.5333307923
10.7164474661
9.97181042604
13.4314689366
10.0907380129
15.4646892244
15.6636094746
14.5870264887
13.1702195152
10.8477883872
13.0834451672
13.1673939162
11.3225205322
10.6955269771
10.8459604895
11.2780765738
12.0217797761
12.9691088053
16.3129739374
17.2774259415
15.7284876389
18.6152727392
19.4104889553
18.7641871202
19.8470131474
19.9103896854
18.8261542015
16.6070657266
16.600807982
16.7686484458
16.9354350333
17.1533982864
17.3896176553
17.691565168
18.0130487926
18.3445088344
18.7458962256
19.1608134824
19.4963240327
19.7378706219
19.9147932442
20.0557559735
20.1913869129
20.3420299289
20.5071903114
20.6685004436
20.7934852591
20.8580236728
20.8686520744
20.8106585418
20.472334679
19.0483755405
16.3373633638
14.4820847663
14.7656942827
17.5201167406
21.5503797707
24.7677642358
26.6518291371
28.2091678241
27.9171661977
26.3442452796
24.3159630852
21.7992272242
25.0910892566
36.2695606333
43.5208485452
44.9560459181
43.1290424659
42.8545101188
42.5649673149
42.9817781491
44.1655014205
44.8413535556
44.8630317522
45.0818490692
10.5725989243
10.448200341
10.1400489533
13.8144726382
13.9485961465
11.3137811208
10.8222072182
14.2980929172
10.5745282051
16.3088525719
16.013573812
14.8433923769
13.2263581752
11.0523248366
14.271386195
13.5739284678
11.6116007936
11.0197713142
11.1669887667
11.6059657422
12.1132026542
12.8776743955
16.9010452654
18.3081828855
16.0135335965
18.714095968
19.9448171115
17.9273967817
19.4668787341
19.2786413401
17.0817264162
16.962100502
17.0398211554
17.130601878
17.2389668049
17.4576376146
17.6776265171
17.9171693178
18.2625648022
18.6373391318
19.0374436062
19.4742752101
19.858083735
20.1332495685
20.330417915
20.5033791349
20.685521912
20.8850511606
21.1032316488
21.3233816079
21.5198524219
21.7429013102
22.0228841698
22.2194425375
21.6205695823
18.8775435247
16.0166359256
16.3823285834
19.2141811868
23.5760608763
27.0934495148
27.5574049779
25.1435709399
22.0038686667
17.7862562475
15.588232029
15.9759297868
16.6045135932
15.8544231712
16.7771093522
42.2457300545
45.9823866309
46.7915248142
44.9221687639
43.5707411635
46.5736010146
49.4522521148
50.3680381916
51.471690325
52.1140359749
11.251064389
11.3200742588
14.4047871635
14.3421879348
14.2607944632
11.8032567798
11.7854681807
14.9891751172
11.4677094843
17.0135081949
16.3298511214
15.1101165773
13.34879695
11.3584378739
14.4726450779
13.5900399405
11.9046443473
11.3894166578
11.499630691
11.886136869
12.3574671092
12.9493988585
16.1305947798
19.1028953006
19.1882128053
17.8787555958
20.1433884878
20.7684852877
17.7181019979
17.0765138067
16.9594866828
17.15868285
17.3357247293
17.4627708323
17.6070758884
17.7688970483
17.9806113223
18.235958505
18.5217116201
18.9232037995
19.3696114415
19.8233559122
20.2333939669
20.5471503351
20.7872898468
21.0025048565
21.2290599289
21.4794186872
21.7280022173
21.9363396321
22.1495014638
22.5309477794
23.1129783625
23.4658797985
21.8628837722
17.9145272851
17.146252161
18.1534203476
20.5711257918
20.5806544312
9.13875536623
0.026440686712
7.51386599604e-05
1.30063598214e-09
1.01736132412e-09
2.46991934861e-09
1.66492092054e-08
7.79839663811e-08
2.88073161083e-07
1.83065991999e-06
1.43336585147e-06
0.000124352280681
0.0707772256926
7.1146214421
44.4830581916
48.5690594344
51.3940848861
56.587433253
59.3468582445
59.6173341437
11.8678004208
12.0514594481
15.9516638898
14.8445181009
14.1404571047
12.3153486938
12.7396945866
15.5170556327
15.5045800905
17.8609160653
16.6819156862
15.449955332
13.5252144918
11.8147630789
14.6816519279
13.5593783297
12.2059849948
11.7712315755
11.8211594605
12.1362796394
12.5923124686
13.2353073584
15.4541458429
19.3482042532
20.5917148017
17.2983325915
19.6945988527
20.7106668921
20.0692836239
17.6786162294
17.0828708756
17.3681098425
17.6656973461
17.8734610134
17.9231634173
18.0995583718
18.2840205787
18.5513570315
18.8457157992
19.2295971039
19.7141532622
20.2106029891
20.6312939897
20.959522186
21.2584871225
21.5885235508
21.9125040284
22.1837109078
22.3312243306
22.4467036537
22.6630246943
23.0940951195
23.9560357251
24.1398673122
19.9925114105
15.5810390213
8.80059592352
0.0585532040709
0.00169326387688
2.46508181584e-05
2.00282688324e-08
3.34190858868e-11
2.35572670128e-12
0
0
0
0
0
0
0
0
3.2764141074e-16
1.10506664886e-13
1.65294416329e-11
9.5898526947e-09
1.33946707027e-05
0.725355652736
57.0495972751
54.7997013011
63.8386701153
12.3588133134
12.566726333
18.1840190629
15.1914407212
13.7117079926
12.7764603535
13.4015123684
15.3658689302
17.0720978776
18.8419766422
17.1774950415
15.9068432148
13.9329858992
12.5866229177
15.1005604248
13.6945486552
12.6008830241
12.2116469315
12.1822150152
12.4202622897
12.8122346366
13.4162693289
15.1586611424
19.2062613622
21.5676905081
20.6035647708
19.0496949114
20.0343680409
19.5935720218
17.2993702471
17.5430308099
17.8784829886
18.2471363948
18.3387076164
18.4001788422
18.4457103663
18.6560415057
18.8776903166
19.1920094238
19.5796327225
20.0587120643
20.5997069842
21.1129715165
21.4654964445
21.8127872269
22.2624083809
22.7081282909
22.9767597634
23.0192296424
23.0399669172
23.1556423596
23.3661285512
23.6491917756
22.8452376481
15.4333087171
0.0209337578565
6.86536110359e-06
2.77606848784e-07
3.78508581431e-09
1.037973398e-11
0
0
0
0
0
0
0
0
0
0
0
0
0
4.22165920314e-15
4.19513652998e-14
9.19664822904e-13
4.45932755474e-11
2.47636691625e-07
54.4263650874
0.00397336837678
12.7318926184
12.9264350766
20.309792569
15.4274425599
13.59453562
13.2150305557
14.1874412852
14.3951398214
18.0204177405
19.5325015924
17.6650813148
16.379956591
14.5561795581
14.6293703067
15.6857801431
14.0819571979
13.2029843394
12.8663419077
12.6518688154
12.7937468324
13.0865112007
13.6217183235
15.0840172636
19.0696459702
21.9540958496
22.274823714
18.3190260702
18.5328304582
17.7241051141
17.4001233565
17.7845195966
18.3943003921
18.7358846312
18.8215547056
18.8819386838
19.0741220984
19.0746625444
19.2717321303
19.5591941547
19.9217438168
20.4806956474
21.0761989508
21.6132995279
21.9173543713
22.3122218743
23.8406392016
26.0040369222
26.6353141958
25.1148580341
24.7457911778
24.6644842346
24.3865343943
23.5552738162
20.2888203555
0.166956508979
7.48993149561e-13
7.56866856328e-10
1.23499813013e-11
0
0
0
0
0
0
0
0
0
0
0
0
0
0
0
0
0
0
6.52233111356e-14
4.416814901e-13
8.14497287138e-11
81.4193696359
13.0794622999
13.2427816606
20.0329269181
14.5499796678
13.6235859849
13.5850168586
15.0820271201
14.1645284549
18.802813058
20.1913436151
18.1423472229
16.8286737752
15.0198275868
17.0317154371
16.5350195449
14.6786203744
13.906397291
13.961331491
13.3488895209
13.3398415375
13.4635319686
13.850884137
15.1652748136
18.9160639999
21.8009961026
23.3933575793
21.6142362738
20.277889566
19.1974387643
17.7117036592
18.1022999032
19.1496341938
19.0854845602
19.2746451881
19.7608573788
19.5947871639
19.5988475253
19.7800045551
20.0637109146
20.4058893672
20.8377021278
21.4816848429
22.1959986639
23.1921443639
24.615883929
26.7044711711
28.3016547112
28.1686431497
28.1458231481
29.0444455063
30.2585723625
31.4001882035
29.2608464471
0.459844848587
6.04384417409e-05
8.20869882346e-07
0
0
0
0
0
0
0
0
0
0
0
0
0
0
0
0
0
0
0
0
0
0
2.00691076912e-13
0.0146073727235
13.521051912
13.6684279512
19.5367781154
13.9618045108
13.8145005712
13.874197492
15.8287319541
14.4978769341
19.4423509121
20.8363906069
18.6260231446
17.2974599973
15.4172642763
17.6779323152
17.3126794039
15.3512083685
14.5923867316
14.7921377077
14.1989058421
14.1152425118
14.0613325091
14.0986514916
15.4156380961
18.883847067
21.5017713089
23.7424324251
22.85356261
20.5878998222
17.9927706708
18.2470635859
18.7141180084
19.712310395
20.1749147254
20.4458439926
20.5768350464
20.194990761
20.1870350713
20.3894710098
20.6632272228
21.0195927966
21.4286635032
22.1437719708
23.326381052
25.3017196437
26.6156639664
26.8784066092
27.7292464721
28.5300311967
31.5678909674
35.1543678694
40.2041030976
41.1284574711
0.609511998934
0.00010510721926
2.15580319451e-07
5.21961422564e-09
1.75204732142e-11
0
0
0
0
0
0
0
0
0
0
0
0
0
0
0
0
0
0
0
0
0
3.3726810457e-14
4.46236507713e-14
14.2232156741
14.3738476081
19.0068630868
14.0814244473
14.316978739
14.2731833004
15.6154898023
15.1822835626
19.8485127702
21.4397165151
19.1503135791
17.8257506045
15.9582603935
18.2817836963
18.0294461904
16.1491387812
15.3603727337
15.6125530238
15.0153881659
15.0427505755
14.9734384224
14.5217538112
15.8745719184
19.0223467262
21.3564863162
23.8391725169
23.3354149359
21.0576477261
18.3094420266
18.4118867807
19.462761665
19.6230083883
19.8891985305
20.4512748382
21.5251736556
21.1971650284
21.0922118478
21.0700054598
21.284862253
21.7325156023
22.2607135805
23.074058764
25.4268621706
27.6617193892
27.6976113713
27.8083448454
29.2716000609
33.7870488296
39.8229181032
44.8450963058
44.4973967129
0.0217859816549
9.01554866609e-07
2.95590252871e-10
1.85467031589e-12
3.75926642733e-12
5.7728304553e-13
0
0
0
0
0
0
0
0
0
0
0
0
0
0
0
0
0
0
0
0
0
2.49284754286e-15
1.13192881975e-14
15.3195824762
15.4130982683
19.0857698849
14.9373804525
15.4784521795
15.0570399732
15.7100142245
16.5777088259
19.6882664727
21.8429765597
19.747806857
18.4366876631
16.6213957803
18.9718665135
18.7786083312
17.1329481694
16.3451836216
16.6091001606
15.8346404228
16.0809536573
16.2466549607
15.2162921299
16.3693855448
19.3247146182
21.3907559584
23.6420266623
23.5334007842
21.5161632922
20.7256339175
19.3101623758
19.9174420405
20.7254372283
21.7620033697
20.9604442353
21.4554230827
22.2791672016
22.0475535112
22.1813335129
22.2235178026
22.4997991366
23.1564804063
25.3241792037
28.7483251785
29.5938601531
29.0696268171
30.462476454
36.1971347714
44.2832299196
50.0925992414
40.5011118545
0.000330069382113
3.08164773976e-09
2.10856497062e-11
0
0
0
0
0
0
0
0
0
0
0
0
0
0
0
0
0
0
0
0
0
0
0
0
0
0
0
16.8975199634
16.6975609867
19.6929757426
16.8855377255
17.5206265087
16.2675892137
16.5335259667
18.6517449459
19.7198779317
22.3623669237
20.4810570795
19.1439133215
17.386726163
19.6976873072
19.5220620534
18.2326600431
17.8883484475
17.9504688865
16.74114798
17.240354883
17.8618517694
16.2858906067
16.6994776261
19.6942759783
21.605492872
23.4312148158
23.6965845971
21.5262343533
21.9115141825
20.9816460748
21.0974110392
20.0806340411
21.0050939116
22.4179609346
22.3743157222
22.7894298082
23.0115882895
23.1168395266
23.3970090911
23.6550448786
25.120816633
29.2089632552
31.7792885891
31.8351377001
32.4399358468
37.0356766733
45.7760818148
51.4258981769
24.2443127548
2.94559634929e-06
5.14952413492e-09
2.35790144326e-11
0
0
0
0
0
0
0
0
0
0
0
0
0
0
0
0
0
0
0
0
0
0
0
0
0
0
0
0
18.5962865257
17.8973823891
20.392225625
19.5667773164
19.2270964649
17.7139875507
17.4617808282
19.7546833788
18.5474312618
22.7349522381
21.3349692946
19.940329855
18.2470230721
20.440544258
20.2109679432
19.1365169342
20.1741503313
19.5898747491
17.7813912372
18.569798234
19.2335671883
17.7015564804
16.6587554422
19.6141792843
21.7387067378
23.2512485779
23.722843663
21.5430337584
22.1953761478
22.2856911055
22.3477768556
20.7884353685
21.3508749235
22.0391826655
23.3006067032
24.0078251639
24.2340774981
24.2566573216
24.4535465366
25.4282310327
29.2056654865
33.3599132559
35.0164390167
35.6640499603
38.3328413772
44.6083255448
46.9616051738
3.10240179749
7.93127333071e-06
1.14821914936e-08
4.02128497184e-11
0
0
0
0
0
0
0
0
0
0
0
0
0
0
0
0
0
0
0
0
0
0
0
0
0
0
0
0
0
19.3776892481
18.7421232336
20.815631064
20.5573839129
20.2377572402
19.1110538518
18.6130477671
21.1268514372
19.5238548974
23.2418103038
22.1964118437
20.7886159578
19.1957262668
21.2204921899
20.9254991904
19.8991264367
21.095384519
20.6358218845
18.8153266623
19.914560338
19.8971649054
18.4009054136
17.7641790442
17.9406282095
21.2151826646
22.7160735311
23.4750850689
21.489502242
22.2082383376
22.7562666039
23.3258312714
22.8277662952
21.3565053753
21.9596481325
23.449861451
24.8354854324
25.573188263
25.9082968394
26.1062657909
29.1714508319
34.048308436
37.3598487289
38.587473124
39.9930884921
43.5043534479
41.9540844911
10.4864270594
4.18997635886e-05
3.77433193186e-08
1.07494927427e-10
0
0
0
0
0
0
0
0
0
0
0
0
0
0
0
0
0
0
0
0
0
0
0
0
0
0
0
0
0
0
19.3872297661
19.3033335563
21.0909916298
20.7138126935
20.8954304204
20.2127066314
19.6317395398
22.4737324255
21.2471091499
23.9187823665
23.1180843003
21.6737387755
20.2259514738
22.0518754431
21.7183193624
20.8160434175
21.8466810703
21.5534586635
19.9346398642
20.9024844428
19.3066235059
19.0851073962
18.7770813708
19.1004881318
19.9920942228
20.8641535026
22.5979611919
21.3395573503
21.6049401504
22.7240027638
23.7264264092
24.183531327
22.957484929
22.6892863885
23.4343345726
24.7511324195
26.313940939
27.6241286183
29.0798662315
33.8475674855
38.4141850107
40.8665918172
41.4250235651
41.9706457764
37.894048152
25.2283552465
0.000284182709154
1.31103522448e-07
2.93684154461e-10
0
0
0
0
0
0
0
0
0
0
0
0
0
0
0
0
0
0
0
0
0
0
0
0
0
0
0
0
0
0
0
19.6166763667
19.7184630629
21.3638396134
19.5864707736
21.1652369595
20.8143195737
20.3263649005
23.0327796997
22.0553169027
24.6421377223
24.0982210102
22.572840385
21.3493481305
22.9225060788
22.5612862509
21.8760352749
22.6612914029
22.5836816156
21.1742833962
22.2764919237
20.6385804919
20.8184138425
20.0132815563
20.352370863
21.9545556463
22.5435353696
22.2174436416
21.1379712076
21.0140549444
22.6619964289
23.7207356683
24.3795988268
24.5030291838
23.7585970942
25.0360107041
25.4811972691
26.9324696686
29.2826148663
32.8938117463
38.3515034655
42.1433287997
43.4205176759
41.5627150981
36.1291554597
30.0526687538
0.0107540650071
1.10012402231e-06
2.50448616892e-09
0
0
0
0
0
0
0
0
0
0
0
0
0
0
0
0
0
0
0
0
0
0
0
0
0
0
0
0
0
0
0
0
20.3395530502
20.4128954988
21.6356318682
19.9983695351
21.3959309806
21.1339865841
20.8283832581
23.179242514
22.6419779987
25.1771240566
25.0831270158
23.4331423376
22.5597407181
23.7922227295
23.3804819242
22.9129014808
23.4399904053
23.708497463
22.4642320096
23.6422631479
22.4249495254
22.9840027044
22.643755269
21.1819146124
22.5453713765
23.5907353269
23.6511229113
21.0142342911
20.3306878795
22.5668419358
23.8670828492
23.8226756156
24.0783141045
24.0449952438
25.1672539582
25.9796571524
27.7055864668
31.0425189722
36.8073519791
42.6714271576
45.3842491811
44.3007208423
36.5909331389
33.5039521249
15.1945590862
1.25084899318e-05
1.74522442082e-08
7.0769238275e-11
0
0
0
0
0
0
0
0
0
0
0
0
0
0
0
0
0
0
0
0
0
0
0
0
0
0
0
0
0
0
0
0
21.2563425793
22.4595980093
22.0499572624
21.0211966195
21.9300104436
21.5165973844
21.3188256386
23.3075944024
23.1929184267
25.3505862925
26.061823614
24.2223793181
23.6412426216
24.4890492215
24.1756737696
23.6854492365
23.6007771458
24.7447685076
23.8528114009
24.8297450041
24.4701806888
24.256551608
24.0056384632
23.5445350142
22.6441095786
23.492262854
24.6188005271
20.3095881449
19.8344974853
21.7767863127
23.8979989665
24.5006606827
25.0681723144
24.0584290461
24.9602045487
26.2151402319
28.1224677802
32.6776372884
40.5681651713
46.6682918454
48.0358149943
41.2484241706
36.9851622683
31.4659344036
0.000943495606255
1.18292894368e-07
3.01911919012e-10
0
0
0
0
0
0
0
0
0
0
0
0
0
0
0
0
0
0
0
0
0
0
0
0
0
0
0
0
0
0
0
0
0
21.9528462822
23.1878333989
22.7614137769
21.9465050142
22.6473365089
22.1008177756
21.8853669828
23.5307342336
23.7416302186
25.2508624861
26.9488742794
25.0124517308
24.2834138788
25.0710404744
25.0760785303
24.3961454044
23.7358833268
25.4780593081
25.3264166358
25.864010971
25.788357793
25.8573264422
24.3188838027
24.270088017
23.7287873651
25.2257396575
25.9822629663
22.608814637
19.4379759661
20.7183678688
23.256669096
24.7852117974
25.1880138724
24.6951832599
24.5777758034
26.1661352515
28.0693363292
33.9561150341
44.0401794006
50.6127758868
47.8762803916
37.1241842684
36.0508921949
17.0177558846
4.05578213999e-06
3.48791469832e-09
1.17213742038e-11
0
0
0
0
0
0
0
0
0
0
0
0
0
0
0