/*--------------------------------*- C++ -*----------------------------------*\
| =========                 |                                                 |
| \\      /  F ield         | OpenFOAM: The Open Source CFD Toolbox           |
|  \\    /   O peration     | Version:  v1806                                 |
|   \\  /    A nd           | Web:      www.OpenFOAM.com                      |
|    \\/     M anipulation  |                                                 |
\*---------------------------------------------------------------------------*/
FoamFile
{
    version     2.0;
    format      ascii;
    class       volScalarField;
    location    "699";
    object      alphak;
}
// * * * * * * * * * * * * * * * * * * * * * * * * * * * * * * * * * * * * * //

dimensions      [0 0 -1 0 0 0 0];


internalField   nonuniform List<scalar> 
6400
(
0.894973054125
1.43852943451
2.28524096876
2.86026469334
3.40907432846
3.95689476733
4.64328261548
5.4102927152
5.87702353933
6.58392189657
7.85561629139
8.76495723541
9.53350166245
10.3895066478
11.4335581664
12.5307699745
13.5229396575
14.4569809272
15.2456838032
15.7261590673
15.9949706344
16.4038289722
17.1542254271
18.2222574288
19.3857529123
20.4405775669
21.3253403364
22.1495736785
23.0132467028
23.931593781
24.8494136485
25.577774409
26.0397085075
26.3529071642
26.5610719174
26.6658608535
26.9392246457
27.4280843633
27.6105754548
27.5783569685
27.9108093767
28.732809432
29.5532386697
30.0163903542
30.1661206395
30.0968524077
29.8748337148
29.5435400279
29.1161113305
28.6124911942
27.950913175
26.9174435824
25.5307931306
23.8680343397
22.3658962851
21.0600583464
19.2950564264
16.8133051719
14.2143589842
12.0547637484
9.86387371713
7.56964714151
5.39172126087
5.40611700774
8.75334073203
13.4539717098
16.3213859374
15.9449434078
13.9039771342
12.2945852122
11.4712443368
11.7591363507
12.3980661223
12.3447256561
14.5037268307
13.9813456636
15.9193144788
9.81790546758
12.8589841604
4.80386234458
3.16150003221
2.54185505139
3.17349513013
4.44371265067
4.41149703131
4.37487542553
4.64273831804
5.13340255878
5.82271174886
6.69498103121
7.73933468568
8.78228351359
9.71007170602
10.6002753596
11.5103488441
12.5471034501
13.6381126691
14.6785492109
15.7372008436
16.0512638561
16.1385108639
16.5242283062
17.2519735455
18.3081119273
19.5912793052
20.5913470063
21.4472149969
22.3081736293
23.1863296684
24.0750320553
24.9647363055
25.7788796365
26.2351389524
26.5421288334
26.7815965009
26.8038224253
27.1222198031
27.6356273983
27.7737864094
27.611573843
27.9156292412
29.2465841887
30.3508476551
30.7231196324
30.8153092259
30.6715457001
30.3556140493
29.9591813565
29.3781966383
28.7160478811
28.1194291957
27.5803157315
26.3841323187
24.0914697597
22.6999850425
21.1854505129
18.8887998285
16.4709652132
14.0978230866
11.7466843326
9.56218707059
7.89251088533
5.79418894268
5.91612005517
8.98384011379
14.5351465321
18.1574229091
16.7817140275
14.5624703812
12.6271830171
11.9782561235
12.4831408298
13.6898181053
13.1612794022
13.0784336421
12.6107570526
11.4637752667
9.65934246656
8.14195748441
4.22418022721
3.27845041751
2.90099829276
3.42374822573
3.75016334423
4.342162947
4.81687311648
4.83240641931
5.03027631295
5.72217244843
6.66956494579
7.72365994673
8.78623033617
9.75873288795
10.6511565
11.4164419628
12.3593886628
14.9290644354
16.9308395671
17.4277412752
16.9804378544
15.944564105
16.2111162164
17.3685327696
18.4746180308
19.5225658179
20.5851579203
21.5425826655
22.4058044919
23.2637364888
24.1478145367
25.0050768438
25.9055973363
26.3568878365
26.4440003264
26.9815078171
27.0210963333
27.0424019414
27.733213383
27.9207949925
27.8230359188
28.141644778
28.9441600016
29.7415412636
30.2064317987
30.3811711667
30.3534390923
30.1652245294
29.836711681
29.3709825973
28.7892801746
28.0909708877
27.1631669369
25.8796780213
24.4861114497
23.064190369
21.0869840678
18.8027511534
16.4556653652
14.1118456686
11.8400495847
9.75607733597
7.7700225574
6.41974333375
7.3604320973
11.4237351992
15.5860504167
17.6027976481
17.6256574871
16.0076157697
14.346619624
13.7060799613
13.6718786037
13.0544485063
12.5121988446
12.5569033705
12.2816805215
11.3541586103
9.75832565996
7.32532013955
7.52589537084
3.33679582125
5.55372364334
3.78570278134
3.93838564686
4.65671737162
11.925060019
10.338198435
5.55780396764
5.6860193485
6.66257837676
7.74540024952
8.82888825879
9.7766534892
10.678681518
12.3594861134
14.4357980929
16.1378046237
16.6700757859
15.8523623694
15.3007826375
15.7499170716
16.4513113585
17.3570178079
18.4584620887
19.6041599692
20.6974955856
21.6812233528
22.5248992653
23.4000943866
24.2174623041
25.1927349563
25.9003792558
26.616016405
26.6918180365
26.571351367
27.0965820532
27.2094662767
27.3469164643
27.698320455
28.020647363
28.4537940521
29.1133611894
29.7871584963
30.2475236735
30.4608419396
30.4691596726
30.3085040895
30.0004715842
29.5542655211
28.9765257536
28.2500708963
27.3132193381
26.1245430927
24.7418048211
23.1215632277
21.1324888591
18.8652626668
16.5181305513
14.2087995374
12.0330845882
10.1074347747
8.61217616578
8.10210435439
8.89473607204
11.1346677421
16.0577043549
19.3484779244
19.4225397016
17.7130075744
15.3340366424
13.73889929
12.98740691
13.2155979703
14.7023566036
14.6914715966
13.412571292
13.3158160691
16.6434241503
13.0294458704
11.0338049502
5.76809589457
7.63980230593
4.60830764455
4.92833695297
6.70201347302
11.8217763377
8.38177920086
6.06847078142
6.2129328579
6.88157660324
7.88592276069
8.98175434768
10.4142399241
12.6454123832
13.7101590825
14.1970878721
14.3845487763
14.4095608985
14.6860569071
15.3459790731
15.8766966431
16.506077026
17.45005382
18.5577089984
19.7164875687
20.8376787654
21.794960065
22.7526033234
23.5088649512
24.4932306953
25.2351487673
26.4643789233
26.5544692114
26.364969916
26.6611616412
26.6781579596
26.9799162034
27.4085430766
27.8423944115
28.2537350357
28.7219054851
29.3058102964
29.8966649452
30.3412712101
30.579811818
30.6202350734
30.4874813296
30.2028969675
29.7780037622
29.2128381509
28.4870866965
27.5618161631
26.4102552583
25.0218383558
23.3309669056
21.2917404496
19.0238071862
16.7163764947
14.5144382962
12.5530111452
11.0004956349
10.0921444727
10.0892659623
10.318187438
11.6223776932
15.7338974602
19.5013541433
20.7725404579
19.5520337931
16.7539541783
14.2511296335
13.9405577222
16.2622943136
17.1734851042
16.1709316163
15.2900523238
17.9955029226
21.0369155371
16.3229396932
15.4351477754
10.0513829986
9.23073338446
5.74490232028
6.26103000333
12.1100721016
11.6021747996
6.89297038449
6.68902448399
6.85376145852
7.23626864306
8.12213917668
10.6899300115
13.8325518465
14.3369413893
14.0958655941
13.3870425371
13.2594106435
13.7856719542
14.7942804091
15.3112924809
15.782113591
16.5780827847
17.590570381
18.7255778562
19.8191552923
20.9484729116
22.1325078253
22.856105761
23.9810771184
24.5477856367
25.9927070392
26.2716990714
27.1119086835
26.5599478047
26.1525689417
26.4412642907
26.9885159135
27.5388971301
28.0355965673
28.4974245138
28.9857277921
29.5308565538
30.0686901537
30.4955658655
30.7483764929
30.8151670127
30.7095353724
30.4512700696
30.0530180401
29.5121520107
28.8078645139
27.9069379949
26.7739242363
25.3656018807
23.6290699341
21.5810272046
19.3675127306
17.1800168707
15.1831075135
13.5392724127
12.4104945616
11.9961417915
12.3652593669
11.6173202922
13.6100829016
17.7988720001
20.9277702336
22.1172030752
21.1180909685
17.6957213243
15.4491954488
17.2512896562
19.480500378
18.9759629676
18.0122286255
18.1218587336
22.7546479135
24.3642090445
19.3309314999
19.13477686
12.1856052122
9.15158490327
6.98129461196
6.54361792324
12.0778168328
8.6081098955
7.17351137569
7.30339911535
7.45279280661
8.16314790166
8.70615173865
13.4975808086
14.2534079403
14.3616853878
13.1943634627
12.4436255332
12.8902764263
14.2423887883
14.7469468595
15.036368119
15.7939540848
16.6874849896
17.7030633541
18.8351809095
20.0953977866
21.3005568847
22.1588581803
23.5850969257
24.0720569121
25.618140401
25.7647011611
26.8567666734
26.6278269053
26.3466779674
26.0083185227
26.4073783573
27.078066731
27.7084625046
28.250103429
28.7487204765
29.256515362
29.7859312571
30.2936736199
30.7070028851
30.968762909
31.0572421673
30.9787189376
30.7515630377
30.3885006414
29.8848451013
29.2172419916
28.3484894918
27.2315647047
25.8156593484
24.0771939799
22.0828477706
20.0008213683
18.020549454
16.2896595951
14.9243608388
14.0671159091
13.7533143265
13.5005842188
13.5088124168
15.4414166842
20.588762376
22.4923870272
22.5827650954
21.3903332547
19.0347782053
18.6742495342
21.1844276591
21.599953852
20.7813991471
20.2253803699
22.2621527519
25.0673279643
26.5664768082
21.9592030508
20.8195884345
11.9358463655
8.87810173695
8.14729124905
12.2827794398
12.2176111663
7.75205889258
7.84807945496
8.0114599165
8.10930888737
8.69982996171
13.2273632199
14.1920509688
14.3468068428
13.9583615061
12.1234386673
12.0722475014
13.6383744784
14.3615527342
14.4069376626
14.9143686282
15.8285946855
16.8500891992
17.8982185528
19.0811534617
20.191843349
21.6238251197
22.2409246597
23.6047318828
25.184602821
25.7604825552
25.4928702135
26.3811383271
26.6786857232
25.8856709344
26.0099382997
26.5566025385
27.2336825999
27.8927680495
28.476873866
29.0123554771
29.5420634255
30.0718537174
30.5668088026
30.9727431508
31.2416482899
31.3497745067
31.3003501471
31.1108770577
30.7931837563
30.3398798109
29.7232252608
28.8990109503
27.8134950376
26.4251887085
24.7480960414
22.8887688786
21.0173481908
19.2743532866
17.7267567972
16.4627131809
15.6569312372
15.3200232455
15.2772691997
15.6129332681
15.6624863562
21.0676305967
24.5122132014
24.2223952874
23.4368457877
22.3221215426
22.9637318195
24.2015806092
23.4623918235
22.7907296242
23.0537092751
25.4816999598
26.217988585
26.8478571104
23.9672672976
21.8254585609
11.2612748287
8.86482167197
8.82536940346
13.2803311208
11.2743582655
8.42651963796
8.58108891218
8.8768926652
10.0029650173
8.83746485428
13.998553542
14.731455124
14.4003265355
12.8102109228
11.8139134939
12.2089427418
13.7047805521
14.0998878333
14.3024392232
14.932308698
15.8282480479
16.9194525426
18.0627803909
19.6229001916
20.942365594
21.5963016549
23.4994563586
23.5284794811
25.3522866166
25.2886979092
26.5026310142
25.8016116544
25.6816902354
25.8162733583
26.1854851931
26.759780906
27.423759286
28.0940106963
28.7164739615
29.2929210394
29.8496329753
30.3897842783
30.8848203928
31.2908339341
31.5678953569
31.6963114519
31.6803979956
31.5368416757
31.275601982
30.8866764666
30.3379572478
29.5796077379
28.5587700111
27.2548684225
25.7200022743
24.0799831077
22.4583954711
20.8727331045
19.3088945293
17.9946099545
17.3020086032
17.2871211284
17.5701397905
17.760074246
17.6206553684
18.681374668
24.9641619213
26.3481297269
26.0277446082
26.3470574353
27.1051766734
26.5272573776
25.3973900953
25.20287017
26.2967647297
27.6176770365
27.5561561862
27.0025463119
26.0130169007
24.6548405276
10.7932202906
9.35283518057
9.9768666569
13.371425463
9.44934674292
9.45126900401
9.32033394347
9.59679648551
12.5625792757
11.3490213817
14.8337711193
15.0194914746
14.4968536271
12.1958406429
11.8708685329
13.4256803388
13.9249850375
13.8716484381
14.2684436373
15.0737614618
15.952733649
16.9891620862
17.9934394784
19.7640076222
21.8929431708
21.5497241571
23.447101229
24.804692175
25.5788994411
26.3105131089
25.8668087511
26.0096058254
25.4270874688
25.7435616272
26.3543976594
26.9851572171
27.6417791624
28.3150162272
28.9689827472
29.5899335561
30.1827107725
30.7428361505
31.2469802734
31.6600866783
31.9495624311
32.1014327662
32.1246554569
32.0365368923
31.844253851
31.5354942589
31.0763537069
30.416055911
29.5108030382
28.3674470262
27.0664867625
25.7104067123
24.2913466654
22.6500404406
20.9058450574
19.6882482937
19.4596849671
19.9804926247
20.4702611089
20.5428958708
20.1665802444
18.80102216
18.304771597
28.2949456836
30.7841273072
31.3309234494
30.7199743367
28.8762419309
27.7107736498
27.9970813556
29.3258434639
29.8474437344
29.7505195927
29.5575555782
29.9583992944
30.1760394386
10.8423835636
10.232081507
13.3285690411
13.5892093177
9.63253539327
10.2295601181
10.0585459833
10.510980162
12.1440308457
14.7733667725
15.6913921858
15.3182983034
14.7725215719
12.2655686231
12.0398158968
13.9209063291
14.0410930149
13.8593081935
14.2911108012
15.1978120269
16.2906917883
17.3408705473
18.1622240165
19.3993434542
22.0529787966
23.3132180635
23.123826851
24.9104338121
24.586606287
26.3252090256
26.7914154527
25.9802702931
25.4127117135
25.8552217267
26.5515325669
27.2206720332
27.8838896389
28.5613649957
29.2374261289
29.9019216815
30.5409184436
31.132281384
31.6541392136
32.0809113396
32.3884531283
32.5701736889
32.6403279099
32.6171621316
32.5063094537
32.2953740764
31.9526841269
31.4335129965
30.7118981423
29.8226678526
28.8448481825
27.7718852799
26.3716123832
24.4892699459
22.7752645829
22.0733367134
22.6524753624
23.7949803264
24.4362003602
24.3834803216
23.6246482722
21.9376016219
19.4772515258
19.6603548908
32.3949557568
37.1209281812
35.1886921718
31.9658394414
30.6084667246
31.1002880179
32.182463193
32.8604823096
33.4493601646
34.1346640941
34.8224937358
35.5372148418
11.2568701556
11.1330998666
14.98879864
14.3546863888
12.5337429357
11.4739461963
11.0273498737
11.9585185078
11.6894351749
15.7457602781
16.3762997443
15.696349086
14.9131376001
12.9300377176
12.7999609655
14.3728235001
14.0846263067
13.9542199715
14.404309384
15.234102564
16.4217279645
17.7901847517
19.4993969903
19.5152845635
21.5629259069
23.6688299545
23.0410428818
25.1429384637
26.0962954444
25.6078150474
25.9823682209
25.455506536
25.6926349506
26.1724771391
26.8048898459
27.4786039823
28.1542414557
28.8410904881
29.5293937391
30.2258500132
30.9186617834
31.5593206054
32.10914095
32.5546405834
32.8870736094
33.1077830642
33.2344364886
33.2855713545
33.267418288
33.1716640989
32.9748847364
32.6497501325
32.1981898912
31.666531795
31.0563305371
30.1170343595
28.5546587033
26.7427965817
25.5338936793
25.6874950281
27.3546090231
29.4103762195
30.3068367564
30.2893132587
29.4436554623
27.4874053784
24.3316282298
19.9172786641
27.8949448997
38.2322812205
40.3450979561
36.1142918664
34.454627964
34.8930067935
35.9495835421
36.8952649197
38.3483687597
39.3909438922
39.4466503814
39.7251916637
11.8989965845
11.8077912542
14.7726874325
14.8856150046
14.9171368344
12.6509592152
12.1261633446
14.7645956534
12.1170912973
16.6113698745
16.9003196251
16.0831356001
15.0493358851
13.5782126501
15.2919476439
15.4165816704
14.3030988884
14.1865741197
14.6521048065
15.3670352717
16.37333573
17.7806250173
20.7174133995
21.6878757635
21.0821272288
23.7137747972
24.7413966765
24.7337429259
26.0529362602
26.5799801393
26.2918704314
25.4988417989
25.8938024448
26.4962427385
27.1133170175
27.7702930536
28.4441509479
29.1521296046
29.8686679333
30.5822335967
31.3118083326
32.0113626329
32.6101091423
33.0853228935
33.4493120101
33.7192906044
33.9137022666
34.0476375347
34.1295547565
34.1612952009
34.1387726726
34.0692309838
33.9875768236
33.9009085804
33.5840574304
32.4854734476
31.2114212152
30.8969161218
30.3376174187
31.2793605108
33.5297811354
34.0883831928
33.0730424961
31.7975547567
29.3014038118
26.0900100052
22.7832590894
16.1344265524
15.6127963163
31.0073205185
38.4980428797
37.1027273791
32.4225209684
34.533924065
37.8139753085
41.1135215206
43.8337428158
44.8981936375
44.9763539113
45.2239550166
12.5972516173
12.5344007181
12.1843061917
15.2398710033
15.4841482192
13.4634667144
13.1119039036
15.7825898456
12.8168168211
17.5116336801
17.3768956108
16.4841481277
15.2890846408
13.9208087332
16.4403348338
16.030311174
14.774656071
14.5986286074
15.0058779595
15.6697751007
16.4483219005
17.6597351901
21.1994910991
22.7533698379
21.4236765726
23.7177649228
25.2413649897
24.2956155946
25.6726957444
26.177735581
25.4761412179
25.8375303414
26.3278224909
26.8716640836
27.4545960963
28.1126005221
28.7864325332
29.4782685648
30.2259160867
30.9877417167
31.747973243
32.4906852942
33.1455601618
33.6688403137
34.0787654506
34.4109139037
34.6842544553
34.9050671788
35.0874127317
35.2506298456
35.4212945176
35.6726081213
36.064918241
36.4633654247
36.1352299579
34.6675600884
35.0820765057
30.669865995
26.3259968842
21.8689191582
5.62652628652
0.00114262074972
3.95749182335e-06
4.03774136599e-07
3.20418686676e-08
9.02554793519e-09
1.06237490191e-07
1.08548481532e-06
1.22616972375e-05
3.20264212301e-05
0.0531823686617
13.9601115288
45.6034395468
46.9169919276
42.0853504475
42.5544672183
47.0097352153
50.0752033537
51.76447497
52.189327123
13.4748074162
13.5702967487
15.8904133505
15.9142415247
15.9691562634
14.1582383994
14.1710736179
16.6673413332
13.8579895761
18.3000510454
17.8369488094
16.9107438256
15.6113546762
14.3340021725
16.744182755
16.2742301818
15.2415118322
15.0722388425
15.4020366084
15.9915014453
16.697060379
17.6617539244
20.6460617175
23.5570172418
23.7548699883
23.133151868
25.4405448855
26.3306770316
24.6748439624
24.8266420446
25.4179124698
26.069825486
26.6818833072
27.2571713249
27.8519874695
28.4837070384
29.161819108
29.8728379489
30.6117662299
31.4129970165
32.2301475857
33.0169307267
33.7188949727
34.296781729
34.7724600781
35.1852293347
35.549417538
35.8625124054
36.1329124614
36.4023160193
36.7738547672
37.4065987573
38.3541758808
39.1660629165
38.4464724222
34.521257502
23.0803553156
1.34203223839e-09
1.47609629331e-12
2.76715286678e-14
4.69051373828e-16
1.3570820019e-18
3.85653081516e-21
6.67558184702e-26
5.22165992673e-26
1.26769895602e-25
8.54529324618e-25
4.00256764754e-24
1.47855048696e-23
9.39595728383e-23
7.35682480697e-23
6.38244550319e-21
3.63267793222e-18
3.65161647068e-16
2.77096004974e-14
6.38085141879e-12
1.07409808433e-07
50.6535519461
57.201304975
57.3071545668
14.3028972125
14.4955771376
17.5212440626
16.6246279376
16.1399909645
14.8544424847
15.1941534369
17.4267959827
17.4016053668
19.2830449526
18.3644908513
17.4333445745
16.0223278278
14.8894159476
17.0672151933
16.4518901136
15.6844590815
15.5524205106
15.8073445969
16.3121143287
16.9795175259
17.8875796365
20.1578007263
23.8089084931
25.0991521773
22.9146698478
24.9472513519
26.411914775
26.3303759405
25.230342091
25.4918518631
26.2833816913
27.0351936765
27.6844986838
28.2464551531
28.8853960912
29.5613655106
30.293812666
31.0561043257
31.8748666309
32.7456247065
33.5943392127
34.3392641101
34.9587801953
35.5117011664
36.0545949351
36.5508927684
36.9369881341
37.2149295779
37.5518820134
38.1495349758
39.1718632204
40.69431591
41.944639856
32.0472721019
3.81986240874
7.42131309579e-16
3.00527366265e-18
8.69076494421e-20
1.26521606716e-21
1.02796131801e-24
1.71525197022e-27
1.20908898566e-28
0
0
0
0
0
0
0
0
1.68163658695e-32
5.67181206904e-30
8.48382191647e-28
4.92204178907e-25
6.87488442717e-22
3.72292562603e-17
5.65371199357e-13
4.40785042706e-06
61.878109101
14.9805961078
15.1950691446
19.6486366258
17.1821684115
16.0708561815
15.4694965904
15.9337904323
17.531761412
18.990723151
20.4088797168
19.0487893841
18.0921015607
16.6838455613
15.7321101702
17.5960122308
16.7793101659
16.2020846677
16.0791384381
16.2517488689
16.6699898763
17.2643885113
18.104445314
19.9582419839
23.6785693835
26.0796360848
25.3874640341
24.446857951
25.7779772484
26.1181663792
25.2830649294
25.924499248
26.7375516885
27.5349462621
28.1628499766
28.7452611455
29.325913124
30.0141453078
30.7461613806
31.539435112
32.3877991941
33.2922406159
34.2061793768
35.0337276307
35.6968757236
36.3207876557
37.0100157699
37.6576236951
38.0861501418
38.3267018321
38.7022900451
39.4922613723
40.7606567938
42.5535611671
32.7606963072
4.91447582553e-12
1.07443601328e-18
3.5236823051e-22
1.42483159455e-23
1.94271498701e-25
5.32745246827e-28
0
0
0
0
0
0
0
0
0
0
0
0
0
2.16678855021e-31
2.15317565022e-30
4.72022755132e-29
2.28877306819e-27
1.27100820366e-23
1.05794097338e-14
2.03935199179e-19
15.5080488054
15.7130953819
21.6860148891
17.6124878503
16.2393930873
16.0368752897
16.7405963393
16.9667712863
19.9372070869
21.2165856934
19.7097515089
18.76467041
17.5393258113
17.5820095071
18.3348531209
17.3468267765
16.9130472811
16.7983679209
16.8042517164
17.114327477
17.6022156562
18.3619899413
19.9427107302
23.5267199879
26.4842782267
27.0132368719
24.3308340131
24.7799819598
24.9773521653
25.3899344579
26.226472887
27.2130042314
28.0193714522
28.6867811888
29.2913042456
29.9345312814
30.5333069671
31.2634675219
32.0667309253
32.9288931197
33.9041200202
34.8969168508
35.7889533312
36.4453884693
37.0873340057
38.3151626143
39.875094109
40.4574695717
39.8549098287
40.045107738
40.9323105127
42.230062983
31.7081039175
5.68572321565e-13
8.56912968647e-18
3.84424630829e-29
3.88465851791e-26
6.33869215661e-28
0
0
0
0
0
0
0
0
0
0
0
0
0
0
0
0
0
0
3.34762037802e-30
2.26695322748e-29
4.18044970241e-27
97.0048263485
15.9620235054
16.1330973379
21.5443432903
17.1077632714
16.4756906388
16.5270459387
17.6535617974
17.0124790835
20.7420161302
21.9651886821
20.335000012
19.3865679494
18.2072333843
19.7595050837
19.3538284612
18.1158650891
17.7304156205
17.8628971079
17.5778484311
17.7272408032
18.0392288198
18.6650605755
20.0670015375
23.3638462262
26.3491392276
28.0996518455
26.9025367985
26.0492759569
25.8431651533
25.6234134897
26.5084088144
27.8116995077
28.4717900311
29.21976598
30.0555377176
30.5444580402
31.1439548758
31.881453345
32.7053255475
33.5792533347
34.5270895848
35.5827002872
36.6126372597
37.6162137708
38.7468930106
40.3058723758
41.6088763538
41.7416007875
41.6939358473
42.2505957004
43.4600014025
35.3087769459
2.58564506629e-12
2.3601776099e-17
3.1020344669e-21
4.21315737886e-23
0
0
0
0
0
0
0
0
0
0
0
0
0
0
0
0
0
0
0
0
0
0
1.03005739369e-29
7.49731004872e-19
16.4765753555
16.6237771585
21.2065525886
16.8251115367
16.7886485089
16.9271105115
18.4404514766
17.5016738206
21.449759694
22.6999295472
20.9539884895
20.0056567644
18.7655437324
20.5318821487
20.2972213839
18.9513075027
18.53515648
18.7679162869
18.5007908038
18.5588047524
18.6733369706
19.0237336766
20.3515285112
23.3347738478
26.0645969331
28.409070518
28.0870157226
26.6180950893
25.3867401607
26.1091849797
26.9955573863
28.2641233256
29.2788212353
30.1567917238
30.8865488753
31.2649333537
31.8392925361
32.5894306884
33.4323686757
34.3438865212
35.3087634595
36.4475648565
37.7813447441
39.3350598762
40.4537208856
41.0731738616
41.9451088862
42.5979683043
43.8473549602
45.5101817244
41.0522031946
2.35602547611e-11
3.12835204585e-17
5.39468271307e-21
1.10647720567e-23
2.6789941576e-25
8.99247403165e-28
0
0
0
0
0
0
0
0
0
0
0
0
0
0
0
0
0
0
0
0
0
1.73104609389e-30
2.29033209236e-30
17.2296883776
17.3765870714
20.915884967
17.135101072
17.3570352857
17.423002692
18.485806269
18.235370319
21.9706014809
23.4000120087
21.6047061619
20.67081444
19.436578573
21.2316721779
21.1440577116
19.8679284578
19.3931850441
19.6475272074
19.4026801894
19.5341034702
19.5739824612
19.5403927058
20.8293500923
23.5036205819
25.9275945125
28.4849440979
28.6405690633
27.3936910365
25.9074031693
26.336685617
27.5811864579
28.4484238998
29.3485984337
30.4229888829
31.8006943396
32.2965765563
32.7870512371
33.4075571992
34.2150535336
35.2018338894
36.2785390434
37.5519144649
39.4998817891
41.2432022802
41.6961822505
42.1916332411
43.5722504304
46.5317791385
49.8023651521
44.7588577402
6.73123816087e-12
1.11817684312e-18
4.62727725842e-23
1.51713235165e-26
9.51919188998e-29
1.92946305231e-28
2.96293526572e-29
0
0
0
0
0
0
0
0
0
0
0
0
0
0
0
0
0
0
0
0
0
1.27946697101e-31
5.80968355868e-31
18.3613140297
18.4704394113
21.2404673154
18.084874718
18.5160457784
18.287016828
18.8292055301
19.5429452469
22.0589829405
23.9349836942
22.3159091465
21.4040848836
20.2113432811
22.0268819818
22.0171311619
20.9409708119
20.4284128255
20.6678638687
20.3129269762
20.6043616281
20.7787334327
20.2775266111
21.3859324344
23.8737425817
25.9886662146
28.3483468638
28.8905823642
28.0730459125
27.8499964939
27.1933821892
27.9738050263
29.2103103842
30.6667481241
31.0222402415
32.0902590191
33.3201578509
33.8525032517
34.5330168004
35.2439986957
36.1482979155
37.3632720186
39.3528179109
41.9245393082
42.947014334
43.0173767533
44.3644078846
48.7820564391
56.1411210339
50.8131344539
7.57698246294
1.69409827634e-20
1.58167173544e-25
1.08223194149e-27
0
0
0
0
0
0
0
0
0
0
0
0
0
0
0
0
0
0
0
0
0
0
0
0
0
0
0
19.9370385641
19.8231311741
22.0863826491
19.961224217
20.4557142026
19.5564847798
19.7867733919
21.425557723
22.312643705
24.5729589456
23.1391626917
22.2153636526
21.0649831263
22.8593384449
22.8860340837
22.1204798419
21.9271493837
21.9947122092
21.3168159785
21.7667107246
22.2753891494
21.3191049254
21.8343924699
24.3358728626
26.2556433303
28.2362923625
29.0638184663
28.2576235232
29.0364579862
28.7685857686
29.0199340367
28.9859699471
30.4561391395
32.2164938249
33.0497427042
34.0751605123
34.9174687871
35.6326070647
36.4778581882
37.4046884414
39.0317268004
42.0651601262
44.307779343
44.8364418847
45.6027487801
49.1832947764
56.9232229689
54.0555641757
27.5816478377
1.51184265145e-22
2.64302005388e-25
1.2102051833e-27
0
0
0
0
0
0
0
0
0
0
0
0
0
0
0
0
0
0
0
0
0
0
0
0
0
0
0
0
21.6010902264
21.0953540802
22.9954660992
22.4347046691
22.1657352982
21.020119455
20.8381134333
22.5681211336
21.6348931241
25.0772386519
24.0565895105
23.0965480217
21.9873193894
23.7022520719
23.6940103035
23.1102038402
23.9735890212
23.5869507475
22.4402799733
23.0410998015
23.6186125747
22.6463641204
22.0404670183
24.3534610991
26.4490374259
28.1622671343
29.1359769653
28.3542597845
29.4453543541
30.0564485236
30.4003103461
29.774587869
30.6847155242
32.1859058671
33.9715722874
35.294863813
36.2092483393
36.8971826964
37.7244921477
39.046623603
41.8663003228
45.1358620358
46.9015910039
47.8863224755
50.2866497171
55.4871000772
51.7081721642
29.4681872711
4.07076730134e-22
5.89329452294e-25
2.06394543349e-27
0
0
0
0
0
0
0
0
0
0
0
0
0
0
0
0
0
0
0
0
0
0
0
0
0
0
0
0
0
22.4370661266
21.986023715
23.5800707708
23.4956430128
23.2412538524
22.3988086107
22.0344908034
23.9442243027
22.6920518135
25.7141424301
24.9846225622
24.0186756817
22.9732929549
24.5713735053
24.5076038287
23.938975966
24.9597581151
24.7120628796
23.526160517
24.2872587805
24.3837814438
23.487916114
23.0538574689
23.2889595171
25.9559416058
27.673264972
28.9287432582
28.3275059736
29.5268647222
30.6193841535
31.5404399764
31.5644383659
31.0938414461
32.267785292
34.2236921922
36.1780643156
37.6144339566
38.5578323462
39.3816179426
41.748047765
45.3933857914
48.3215034877
49.8941235042
51.7874046391
55.7383372637
51.701879211
24.6039172252
2.15052716554e-21
1.93719550089e-24
5.51723307699e-27
0
0
0
0
0
0
0
0
0
0
0
0
0
0
0
0
0
0
0
0
0
0
0
0
0
0
0
0
0
0
22.54843794
22.5394149916
23.9351649501
23.7330236791
23.9235018837
23.4664354997
23.0747114753
25.297560319
24.3671232414
26.5233962564
25.9677067193
24.9678387314
24.0182518964
25.482007205
25.3858288321
24.8901447966
25.7842520382
25.6921486063
24.6531973248
25.3250787289
24.2987055561
24.263102233
24.0994487437
24.3614099025
25.1793028291
26.234683434
28.0904783155
28.1012932708
29.1247894173
30.6619535557
32.0121942131
32.9254081108
32.621585321
33.0739593934
34.4578185163
36.3942600969
38.5355086711
40.2872554005
41.832897272
45.2387831727
48.9224176614
51.3525029466
52.6044694141
54.4134661951
49.8457163184
31.6659394433
30.9676955294
6.72895649937e-24
1.50734920239e-26
0
0
0
0
0
0
0
0
0
0
0
0
0
0
0
0
0
0
0
0
0
0
0
0
0
0
0
0
0
0
0
22.8047999501
22.9266956837
24.2351407213
22.9165990237
24.2214782569
24.0592364707
23.7740112293
25.9299214414
25.2332599118
27.3399367685
26.9792756621
25.9128634254
25.1277433669
26.4213414432
26.3031489541
25.9717506069
26.7044279547
26.7819309022
25.9054919933
26.7397271212
25.652923575
25.8756820381
25.3681201604
25.6737780673
26.9481813231
27.5830745652
27.7232737471
27.8030265966
28.6743692898
30.5888148188
32.0011743014
33.1828957748
33.9196263161
34.1775688553
35.7469655337
37.1336480628
39.2857576703
41.8876425477
44.8662640384
48.9400104196
52.2368015219
53.8823213898
53.324087508
49.8141453381
45.487208092
28.858900885
5.6464437811e-23
1.28544055639e-25
0
0
0
0
0
0
0
0
0
0
0
0
0
0
0
0
0
0
0
0
0
0
0
0
0
0
0
0
0
0
0
0
23.4975350473
23.5835604617
24.5538601356
23.3228133524
24.4808646614
24.3900062112
24.2619602258
26.1569514975
25.8325468547
27.9461016674
27.9583167891
26.7937314707
26.2866356381
27.3418558048
27.1768063508
27.0165859706
27.5922365717
27.9524788659
27.2041786822
28.1751307836
27.4247590674
27.9058592703
27.7328116206
26.7116250276
27.7541611499
28.6939925971
28.8756413147
27.6167449032
28.1592753356
30.4657942047
32.1182144631
32.8708944719
33.7638486613
34.5102310737
36.1351175962
37.7949568455
40.1446001445
43.5045213625
48.0804134026
52.7171406267
55.3121563692
55.4894720703
52.8618500401
47.4072441639
29.8676953594
27.8745977218
8.95745513937e-25
3.63226797386e-27
0
0
0
0
0
0
0
0
0
0
0
0
0
0
0
0
0
0
0
0
0
0
0
0
0
0
0
0
0
0
0
0
24.3702385286
25.3562016204
25.0169128718
24.2598149554
25.0053026869
24.7701765567
24.7229351426
26.3446759498
26.3693257993
28.2098886934
28.8931241682
27.5700955084
27.3068213384
28.0952406578
27.9883644406
27.8097903506
27.9533460976
29.0109326075
28.5532475875
29.4290353538
29.334677163
29.2612511297
29.1615248826
28.8184022936
28.1810933761
28.9033109402
29.8016620915
27.1813645632
27.6396398374
29.7891954759
32.1332686817
33.3560003636
34.3774379637
34.5022808107
35.9849822126
38.0189797381
40.659017999
44.9996179409
51.2768118975
56.324594567
57.8350320905
53.9120174142
51.6191870518
50.1714081375
33.8925384033
6.07144434816e-24
1.54957863202e-26
0
0
0
0
0
0
0
0
0
0
0
0
0
0
0
0
0
0
0
0
0
0
0
0
0
0
0
0
0
0
0
0
0
25.0183126784
26.0441596606
25.6916017379
25.0952833455
25.6690905362
25.3069853577
25.2385249089
26.5980202191
26.8789544487
28.2089422382
29.7118197036
28.2953270745
27.924756315
28.7054044907
28.8401697614
28.5139982981
28.237206117
29.7667835213
29.9134148849
30.5194170382
30.6664448984
30.8746707849
29.8374708204
29.8594681752
29.4267917109
30.4737282549
31.1068392126
28.7761780475
27.176432709
28.7715408379
31.3914679638
33.451661198
34.6086337439
34.9978501221
35.603569591
37.7172970008
40.5656725834
46.1255777424
54.3059898445
59.9498983077