/*--------------------------------*- C++ -*----------------------------------*\
| =========                 |                                                 |
| \\      /  F ield         | OpenFOAM: The Open Source CFD Toolbox           |
|  \\    /   O peration     | Version:  v1806                                 |
|   \\  /    A nd           | Web:      www.OpenFOAM.com                      |
|    \\/     M anipulation  |                                                 |
\*---------------------------------------------------------------------------*/
FoamFile
{
    version     2.0;
    format      ascii;
    class       volVectorField;
    location    "934";
    object      U;
}
// * * * * * * * * * * * * * * * * * * * * * * * * * * * * * * * * * * * * * //

dimensions      [0 1 -1 0 0 0 0];


internalField   nonuniform List<vector> 
6400
(
(-0.000119872951618 -0.000154926700037 0)
(-0.000313924011512 -0.00011058740279 0)
(-0.000452963694732 -8.46386416915e-05 0)
(-0.000596854056361 -7.19552697132e-05 0)
(-0.000703543764006 -4.66163941783e-05 0)
(-0.000782140948161 -2.79422612584e-05 0)
(-0.000829986835161 -2.05648325768e-05 0)
(-0.00087101326411 -2.8983987292e-05 0)
(-0.000955807585336 -3.83838501006e-05 0)
(-0.00103750816349 -3.59042985577e-05 0)
(-0.00108209009808 -3.20445292749e-05 0)
(-0.00115422714174 -3.22796500512e-05 0)
(-0.00121946340178 -2.85238307489e-05 0)
(-0.00127215713791 -2.32182293989e-05 0)
(-0.00131294188823 -2.08530054634e-05 0)
(-0.0013542576287 -2.27794736288e-05 0)
(-0.00140223321837 -2.31203320232e-05 0)
(-0.00144438113562 -2.01599547e-05 0)
(-0.00147778168538 -1.64988932356e-05 0)
(-0.0015105585831 -1.52086623343e-05 0)
(-0.00155002169357 -1.87762085779e-05 0)
(-0.00159414321559 -2.20750635797e-05 0)
(-0.00163778868542 -2.18557778943e-05 0)
(-0.0016763910421 -2.01795422151e-05 0)
(-0.00171159582204 -1.80139739832e-05 0)
(-0.00174482837002 -1.58482931867e-05 0)
(-0.00177682342359 -1.44926675098e-05 0)
(-0.00180543948433 -1.29247719857e-05 0)
(-0.00182943966032 -1.10523841653e-05 0)
(-0.00184933909668 -9.56286807433e-06 0)
(-0.00186564773574 -8.86590833697e-06 0)
(-0.0018816289938 -7.89848337496e-06 0)
(-0.00189730383186 -6.5196986315e-06 0)
(-0.0019102851065 -6.12027442848e-06 0)
(-0.00192223025195 -5.80778115639e-06 0)
(-0.00193618486516 -5.26515445214e-06 0)
(-0.0019466299925 -4.93266870909e-06 0)
(-0.00195021033055 -4.00078674998e-06 0)
(-0.0019578325591 -2.40314415016e-06 0)
(-0.00196708941103 -9.26252906467e-07 0)
(-0.00196914947674 -5.25060259699e-07 0)
(-0.00196304630049 7.0817172279e-07 0)
(-0.00195459452503 3.77467785984e-06 0)
(-0.00194526359901 6.11112512709e-06 0)
(-0.00193285511766 7.5362179532e-06 0)
(-0.00191715610263 9.13580384096e-06 0)
(-0.00189784762216 1.09277387503e-05 0)
(-0.00187434914726 1.30734750696e-05 0)
(-0.00184659067401 1.52589364123e-05 0)
(-0.00181427898066 1.65018505689e-05 0)
(-0.00177870623989 1.6759340434e-05 0)
(-0.00174244739779 1.8690923623e-05 0)
(-0.00170067091193 2.3809003279e-05 0)
(-0.00165382029762 2.77396180671e-05 0)
(-0.00159534031459 3.15165611247e-05 0)
(-0.00152175704557 3.63382002385e-05 0)
(-0.00144475899729 3.77612812441e-05 0)
(-0.00137287845597 3.85016453613e-05 0)
(-0.00129629385326 4.27120063381e-05 0)
(-0.00120129986818 4.65919386627e-05 0)
(-0.00110220045083 4.8367202826e-05 0)
(-0.00100136258739 5.5537708415e-05 0)
(-0.000907247126306 7.07151779892e-05 0)
(-0.000768046948468 8.13675910919e-05 0)
(-0.00057510215394 6.76356697366e-05 0)
(-0.000438371482704 4.90842394143e-05 0)
(-0.000357275193742 4.1047042569e-05 0)
(-0.000293091973432 3.64803555982e-05 0)
(-0.00023130303744 3.39429109718e-05 0)
(-0.00016650056337 3.14382486844e-05 0)
(-0.000106857918327 2.74804681937e-05 0)
(-5.5908741264e-05 2.15934059965e-05 0)
(-1.97746108563e-05 1.55891161477e-05 0)
(4.98047328458e-06 1.02357225959e-05 0)
(1.85696061759e-05 4.86543283101e-06 0)
(2.76201731074e-05 1.7950164476e-06 0)
(2.43318813805e-05 1.5224292382e-07 0)
(3.06253347794e-05 -2.45233901834e-06 0)
(1.46439099625e-05 -2.96483431481e-06 0)
(1.13809113651e-05 -6.62036359466e-06 0)
(-4.65413563272e-05 -0.000223280173376 0)
(-0.000195546887294 -0.000243691016931 0)
(-0.000337567207042 -0.000212963570922 0)
(-0.000431830440731 -0.000170440959813 0)
(-0.000606708006299 -0.000162789771366 0)
(-0.000753328982065 -0.000114724321265 0)
(-0.000839488285352 -7.64671831711e-05 0)
(-0.000901051403498 -9.18270207656e-05 0)
(-0.000965980555217 -0.000111707369199 0)
(-0.00103660479132 -0.000107932579912 0)
(-0.00110263926427 -9.90489665647e-05 0)
(-0.00116291578952 -9.30884918785e-05 0)
(-0.00121855547182 -8.18646030696e-05 0)
(-0.00126785534833 -6.92963338951e-05 0)
(-0.00131456386375 -6.34684951657e-05 0)
(-0.00135838207268 -7.0886273786e-05 0)
(-0.00140246232762 -7.31619286376e-05 0)
(-0.00144063029676 -5.71468315266e-05 0)
(-0.00145555583254 -4.51656281178e-05 0)
(-0.00149479864995 -4.65783640422e-05 0)
(-0.00154290210432 -5.8050591337e-05 0)
(-0.00159096846294 -6.92350516739e-05 0)
(-0.00163934965976 -6.79197395145e-05 0)
(-0.00168006331969 -5.93989545878e-05 0)
(-0.00170907564587 -5.27886549017e-05 0)
(-0.00174525644773 -4.85882477525e-05 0)
(-0.00177868659681 -4.3865510356e-05 0)
(-0.0018059756346 -3.83744392218e-05 0)
(-0.00182937836677 -3.31369058032e-05 0)
(-0.00185002325339 -2.89085971419e-05 0)
(-0.00186735964829 -2.61941801784e-05 0)
(-0.00188007409364 -2.30698877442e-05 0)
(-0.00189577215382 -1.88757827504e-05 0)
(-0.00190833281218 -1.81474643996e-05 0)
(-0.00191906325984 -1.8454670103e-05 0)
(-0.00193650500097 -1.58912738746e-05 0)
(-0.00194537267128 -1.43446928168e-05 0)
(-0.00194883837085 -1.2946221268e-05 0)
(-0.00195867350419 -9.19013098711e-06 0)
(-0.00197225716643 -3.58887177427e-06 0)
(-0.00197515473311 3.42231943481e-06 0)
(-0.00195222771525 9.60296577954e-06 0)
(-0.00193489802183 1.37326470122e-05 0)
(-0.0019281032134 1.70196481855e-05 0)
(-0.00191743542821 2.0654927011e-05 0)
(-0.00190461018259 2.51472451993e-05 0)
(-0.00188881940056 3.05825462504e-05 0)
(-0.00186772163689 3.67171035509e-05 0)
(-0.00184439568336 4.32810986027e-05 0)
(-0.00181595329416 4.96295606099e-05 0)
(-0.00177837176863 5.50753107546e-05 0)
(-0.00172851832685 6.02391210614e-05 0)
(-0.0016810847652 6.69529834575e-05 0)
(-0.00165318294832 7.84923259389e-05 0)
(-0.00159092826893 9.29671759596e-05 0)
(-0.001522140334 0.000104596701408 0)
(-0.00145959892423 0.000111102933012 0)
(-0.00138559362723 0.000117673377806 0)
(-0.00130150407318 0.000129120050089 0)
(-0.00121136969783 0.000142091762885 0)
(-0.00111069235869 0.00015469719608 0)
(-0.000985839608959 0.000171357599721 0)
(-0.000889022682653 0.000211499891784 0)
(-0.000745095162274 0.000244363993077 0)
(-0.000568395060286 0.000218960108505 0)
(-0.000412488007738 0.000155337405011 0)
(-0.000320680284992 0.000114802347877 0)
(-0.000269010078033 0.000103107655366 0)
(-0.000209234585255 9.92069131615e-05 0)
(-0.000150605027115 9.60368583978e-05 0)
(-9.17685092498e-05 8.42315298467e-05 0)
(-4.31313944024e-05 6.43398890365e-05 0)
(-8.61762981901e-06 4.26437372304e-05 0)
(1.4190335879e-05 2.83502336874e-05 0)
(2.86516515877e-05 1.59929575452e-05 0)
(3.64281857493e-05 6.55812269666e-06 0)
(3.83686894648e-05 -1.06230266621e-08 0)
(3.58855606051e-05 -7.91819603538e-06 0)
(2.42263184228e-05 -1.40966343029e-05 0)
(1.19788565749e-05 -2.79749839148e-05 0)
(-6.62476390663e-05 -0.000384267288924 0)
(-0.000185316311575 -0.000406404368682 0)
(-0.000288808461518 -0.000368274944056 -8.22069108074e-29)
(-0.000469149836678 -0.000357065707849 7.44029053153e-29)
(-0.000630705616107 -0.000340031543893 6.40235327684e-29)
(-0.000740051038328 -0.000270673085966 -5.7801007764e-29)
(-0.000821476576954 -0.000152071147793 5.72740792197e-29)
(-0.000885988824644 -0.000154720003344 -5.4565294981e-29)
(-0.000952625206843 -0.000182958099268 0)
(-0.00102709235364 -0.000182022193347 0)
(-0.0010987552155 -0.000167799576966 0)
(-0.00116197618239 -0.000150756319745 0)
(-0.00121784681429 -0.000131913701216 0)
(-0.00126622261775 -0.000117478424002 0)
(-0.00131492671854 -0.000109652799297 0)
(-0.00136008723392 -0.00010043837137 0)
(-0.00131281711106 -8.28247398754e-05 0)
(-0.00130360071394 -7.15640702458e-05 0)
(-0.0013490118876 -8.04516098461e-05 0)
(-0.00142519695122 -0.000105492695806 0)
(-0.00154130484184 -0.000124732706176 0)
(-0.00160309314211 -0.000123169464514 0)
(-0.00163457292661 -0.000111202366661 0)
(-0.00167508079828 -9.84676828211e-05 0)
(-0.00171513003791 -8.88432416325e-05 0)
(-0.00174791566197 -8.12707859898e-05 0)
(-0.001777830003 -7.25263890247e-05 0)
(-0.00180550193635 -6.34687416009e-05 0)
(-0.00182949647529 -5.5267646663e-05 0)
(-0.00184973102998 -4.85263319059e-05 -9.29290852901e-29)
(-0.0018684162618 -4.26944920352e-05 8.95334685649e-29)
(-0.00187812023021 -3.73837419511e-05 0)
(-0.00189310238536 -3.1810141515e-05 0)
(-0.00191281138509 -2.80125491861e-05 0)
(-0.00191201158366 -2.98966744036e-05 0)
(-0.00193001298529 -2.94435905627e-05 0)
(-0.00194999800669 -2.40274559734e-05 0)
(-0.00194706346387 -2.10972882353e-05 0)
(-0.00195741726235 -1.81908343326e-05 0)
(-0.00197151819431 -8.482381072e-06 0)
(-0.00197494658905 7.17005962747e-06 0)
(-0.00196815001527 1.94685443773e-05 0)
(-0.00195861782062 2.44878585809e-05 0)
(-0.00194865636406 2.83065692469e-05 0)
(-0.0019359761326 3.41516975612e-05 0)
(-0.00191983329986 4.15588518093e-05 0)
(-0.00190024061483 5.0423128759e-05 0)
(-0.00187707030996 6.01691826995e-05 0)
(-0.00185032184777 7.07449570564e-05 0)
(-0.0018195371575 8.25043655478e-05 0)
(-0.00178404530379 9.44888668159e-05 0)
(-0.00174395532449 0.000104486892516 0)
(-0.00169992895228 0.000113607234956 0)
(-0.00164686427019 0.000130220106673 0)
(-0.00158436940644 0.000151408980084 0)
(-0.00152491679138 0.000168298794346 0)
(-0.0014583150799 0.000182689445588 0)
(-0.00138038169974 0.000199098269804 0)
(-0.00129303541505 0.000218441801652 0)
(-0.00119665432278 0.000240491681054 0)
(-0.00108785163086 0.000266988566915 0)
(-0.000973594205554 0.000305311048078 0)
(-0.000848750716079 0.000369320630336 0)
(-0.000681824243917 0.000403341304946 0)
(-0.000492352205221 0.000334903603359 0)
(-0.000376381172328 0.000254042285266 0)
(-0.000301527588991 0.000201539635312 0)
(-0.000231339929971 0.000171786760214 0)
(-0.000169940163825 0.000160179024132 0)
(-0.00011242452865 0.0001497000545 0)
(-5.92568586338e-05 0.000127952592819 0)
(-1.68685081126e-05 9.81731768552e-05 0)
(1.41746373793e-05 7.20381552807e-05 0)
(3.49637552325e-05 4.83201297078e-05 0)
(4.48277033944e-05 2.64105132086e-05 0)
(4.88649340945e-05 1.05320008959e-05 0)
(4.84066671727e-05 -1.57629005907e-06 0)
(4.29760775113e-05 -1.688977539e-05 0)
(3.21993834987e-05 -3.70592566755e-05 0)
(8.9681205811e-06 -4.28223560485e-05 0)
(-6.51473550659e-05 -0.000558016083872 0)
(-9.70388548568e-05 -0.000397231171527 0)
(-0.000235734367169 -0.000546229478988 0)
(-0.000401394048254 -0.000527421186156 0)
(-0.000557639621211 -0.000447046819016 0)
(-0.000363080498993 -0.000194763058721 0)
(-0.000463196029141 -0.000193561104911 0)
(-0.000786675617362 -0.00030412115859 0)
(-0.000911639249516 -0.000298733938832 0)
(-0.00100560710614 -0.000268348718529 0)
(-0.00108868655169 -0.000242576064633 0)
(-0.00115909307406 -0.000214222380977 0)
(-0.00121921783558 -0.00018562832662 0)
(-0.00126380552551 -0.00015217722784 0)
(-0.00124644925201 -0.000114259797368 0)
(-0.00122247536529 -8.99084530308e-05 0)
(-0.00123580049249 -8.93593550014e-05 0)
(-0.00130016037213 -0.0001194857887 0)
(-0.00141646501508 -0.00016319296318 0)
(-0.00151094807715 -0.000193704143858 0)
(-0.00155377233567 -0.000191203607012 0)
(-0.00159710796072 -0.000171368572266 0)
(-0.00164098012638 -0.000153102622059 0)
(-0.00167976331067 -0.000138411622035 0)
(-0.00171492865057 -0.000124848433974 0)
(-0.00174693703491 -0.000112314905946 0)
(-0.00177637609878 -0.000100617018621 0)
(-0.00180559638824 -8.89184432957e-05 0)
(-0.00182851896376 -7.76563468227e-05 0)
(-0.00185167354037 -6.78237241421e-05 0)
(-0.00186468004321 -5.93485420702e-05 0)
(-0.00188280595862 -5.09543566693e-05 0)
(-0.00188694361145 -4.26571982696e-05 0)
(-0.00190448066879 -4.00631948845e-05 0)
(-0.00192780477496 -4.18673968231e-05 0)
(-0.00192918457306 -4.27782559682e-05 0)
(-0.00194807610602 -3.80895660439e-05 0)
(-0.00196484373165 -3.15146014086e-05 0)
(-0.0019707425676 -2.47696759634e-05 0)
(-0.00197417245153 -1.13971852972e-05 0)
(-0.00197476464037 7.07275579561e-06 0)
(-0.00197038765053 2.27826066743e-05 0)
(-0.00196262240651 3.26410021129e-05 0)
(-0.00195256186654 4.03966239649e-05 0)
(-0.00193946426564 4.93219298862e-05 0)
(-0.00192297058625 5.99675744099e-05 7.58724486536e-29)
(-0.00190303806713 7.21048815477e-05 -7.61109283765e-29)
(-0.00187955428382 8.53967795712e-05 0)
(-0.0018524049598 9.97877850359e-05 0)
(-0.00182126652997 0.00011519991244 0)
(-0.00178562453556 0.000130873862003 0)
(-0.00174496752976 0.000146382550713 0)
(-0.0016987380787 0.000164062781298 0)
(-0.00164565027716 0.000186646320958 0)
(-0.00158667097204 0.000210656407832 0)
(-0.00152328916853 0.000233607487355 0)
(-0.00145240703403 0.000257827113016 0)
(-0.0013707736388 0.000284632768669 1.35889910048e-28)
(-0.00127772341939 0.000314711226139 -1.54999617217e-28)
(-0.00117223953016 0.00034934971191 0)
(-0.00105267189303 0.000391899953942 0)
(-0.000920363728197 0.000450818591347 0)
(-0.000772482971442 0.000519733402879 0)
(-0.000624360685861 0.000549110623907 0)
(-0.000487534611629 0.000490095389535 0)
(-0.00033930319553 0.000351709575318 0)
(-0.000247289881119 0.000270706523005 0)
(-0.000180043501706 0.000236744838984 0)
(-0.00012104884379 0.000218798748078 0)
(-6.9324069187e-05 0.000205760522719 0)
(-1.95681228969e-05 0.000179475061639 0)
(2.21681090319e-05 0.000140295962153 0)
(4.71317746961e-05 9.65115238092e-05 0)
(5.40275603987e-05 5.5739650685e-05 0)
(5.77390671912e-05 2.95682049616e-05 0)
(6.02048037612e-05 1.02472657708e-05 0)
(5.50506101731e-05 -9.07740509159e-06 0)
(3.61748827887e-05 -2.46431581514e-05 0)
(2.77016520773e-05 -4.70891286217e-05 0)
(9.70717256674e-06 -6.22528246164e-05 0)
(-1.29254518539e-05 -0.000576639200727 0)
(-5.64174577383e-05 -0.000482031353001 0)
(-0.000208801987216 -0.000702216833901 0)
(-0.000346070697822 -0.000647820907118 0)
(-0.000406040464547 -0.000454739172102 0)
(-0.000341145531175 -0.000264493664524 0)
(-0.000555684829746 -0.000398657769929 0)
(-0.000765635126753 -0.000491100474615 0)
(-0.000864520786804 -0.000426711587054 0)
(-0.00097393571338 -0.000368084679772 0)
(-0.00106669640515 -0.000331018674059 0)
(-0.00114630878697 -0.00028774725592 0)
(-0.00117956450717 -0.000216071091747 0)
(-0.00113743231258 -0.0001423230429 0)
(-0.00116501250771 -0.000115484463681 0)
(-0.00122535375393 -0.00012605087737 0)
(-0.00131316106231 -0.000164522274311 0)
(-0.00140725380469 -0.000213491831937 0)
(-0.00147243910024 -0.000242228954659 0)
(-0.00150615823518 -0.000241646151985 0)
(-0.00155099064813 -0.000232116008165 0)
(-0.00159957605282 -0.000216829039284 0)
(-0.00164135064834 -0.000196602935875 0)
(-0.00167988090327 -0.000176518606919 0)
(-0.0017145793302 -0.000158730698305 0)
(-0.00174563785383 -0.000143571782371 0)
(-0.0017775404323 -0.000129081414277 0)
(-0.00180200042952 -0.000114559648062 0)
(-0.00183115608422 -0.000100146957734 0)
(-0.00184566415549 -8.64173138567e-05 0)
(-0.0018697102289 -7.47775906913e-05 -8.93844761684e-29)
(-0.00186575951883 -6.43393043738e-05 8.55485369398e-29)
(-0.00189356697009 -5.81166110806e-05 0)
(-0.00191882210539 -5.47267898061e-05 0)
(-0.00192502034639 -5.59458109024e-05 0)
(-0.00194751193826 -5.76290086597e-05 0)
(-0.00196090725039 -5.34250320641e-05 0)
(-0.00196969894814 -4.21853661772e-05 0)
(-0.0019749015186 -2.82077168607e-05 0)
(-0.00197748220672 -1.13284160079e-05 0)
(-0.00197761447423 8.23564468563e-06 0)
(-0.00197422933684 2.62585580714e-05 0)
(-0.00196737144216 4.02342442175e-05 0)
(-0.00195738426417 5.21420596724e-05 0)
(-0.00194406823404 6.46022286281e-05 0)
(-0.00192730845924 7.85765446771e-05 0)
(-0.00190706204795 9.40814605218e-05 0)
(-0.00188320962486 0.000110926382219 0)
(-0.00185557213257 0.000129056174912 0)
(-0.00182384349063 0.000148397679269 0)
(-0.00178754387898 0.000168675556457 0)
(-0.00174603449981 0.00019012931046 0)
(-0.00169861425908 0.000214247759173 0)
(-0.0016447460762 0.000241916545135 0)
(-0.00158491214894 0.000271602530179 0)
(-0.0015188557803 0.000302958601752 0)
(-0.00144349052002 0.000337702025874 0)
(-0.00135543155088 0.000377017447847 0)
(-0.00125255462414 0.000421863976886 0)
(-0.00113298555913 0.000474089431296 0)
(-0.000996150964762 0.000536042952567 0)
(-0.00084642881469 0.000604833751291 0)
(-0.000692825158855 0.000658243676267 0)
(-0.000564900147655 0.000679080123338 0)
(-0.000445464834758 0.000626692279871 0)
(-0.000312390806181 0.00048083455855 0)
(-0.000209091360826 0.000370236841119 0)
(-0.000128115911202 0.000309359271887 0)
(-6.36893525888e-05 0.000275222193254 0)
(-1.01007821339e-05 0.000253506821235 0)
(3.88216636419e-05 0.000224430596669 0)
(6.99833732094e-05 0.000167254636302 0)
(7.31046742363e-05 9.95949364539e-05 0)
(7.4225949793e-05 5.83645856292e-05 0)
(7.67833836025e-05 3.10178698446e-05 0)
(7.54918734725e-05 4.68089586433e-06 0)
(6.09519159167e-05 -2.09141184373e-05 0)
(4.33233861773e-05 -3.93050289053e-05 0)
(3.18816062274e-05 -6.74509492995e-05 0)
(9.59435713419e-06 -7.91731804637e-05 0)
(-3.29398138202e-06 -0.000549355692998 0)
(-6.34766057796e-05 -0.000582210305799 0)
(-0.000206523603995 -0.000806008442253 0)
(-0.000300190285584 -0.00069731071147 0)
(-0.00025055284627 -0.000377571529016 0)
(-0.000344605624326 -0.000380287319632 0)
(-0.000640868426478 -0.000610603641656 0)
(-0.000730899724479 -0.000602661670722 0)
(-0.000828449679372 -0.000536550955413 0)
(-0.000936025203666 -0.000475993476095 0)
(-0.00103623353209 -0.00040904993768 0)
(-0.00102351078311 -0.00030184881266 0)
(-0.000973719569097 -0.000194339838564 0)
(-0.00104074905796 -0.000166335176396 0)
(-0.00112214374365 -0.000181463055095 0)
(-0.00124654508039 -0.000224711220817 0)
(-0.00135470403269 -0.000264250269563 0)
(-0.00142505084342 -0.000280488687495 0)
(-0.0014528552875 -0.000278537892751 0)
(-0.00150305154112 -0.000282331865359 0)
(-0.00155636183665 -0.00027952130335 0)
(-0.00159983790776 -0.000261672227456 0)
(-0.00164033711506 -0.000238107180698 0)
(-0.00167788752108 -0.000214875181429 0)
(-0.00171592061686 -0.000193549870898 0)
(-0.00174718733223 -0.000173284678192 0)
(-0.00176851024574 -0.000156894208899 0)
(-0.00180642132508 -0.000141015195203 0)
(-0.00181848227999 -0.000121702851963 0)
(-0.00185337480444 -0.000103280588871 0)
(-0.00184361974317 -8.69821192229e-05 0)
(-0.00187880038846 -8.10667812944e-05 0)
(-0.00187443983614 -7.62599286975e-05 0)
(-0.00191359723728 -7.52187627297e-05 0)
(-0.00194512366023 -7.60664167989e-05 0)
(-0.0019591529116 -7.42402449618e-05 0)
(-0.00196810461854 -6.3965760178e-05 0)
(-0.00197502364468 -4.87932309088e-05 0)
(-0.00197969956815 -3.13867983541e-05 0)
(-0.00198215893805 -1.18625288708e-05 0)
(-0.00198221380003 9.3536555591e-06 0)
(-0.00197923852941 2.97554322583e-05 0)
(-0.00197287432174 4.75390021279e-05 0)
(-0.00196303240116 6.3632106944e-05 0)
(-0.00194964960495 7.99087147655e-05 0)
(-0.00193270247702 9.74234719793e-05 0)
(-0.00191216235827 0.000116437452967 0)
(-0.00188787873865 0.000136931438346 0)
(-0.00185961431881 0.000158916697842 0)
(-0.00182705813176 0.000182431343068 0)
(-0.00178976219671 0.000207553067122 0)
(-0.00174712055686 0.000234756590035 0)
(-0.00169851358401 0.00026496944522 0)
(-0.0016435227347 0.000298621978733 0)
(-0.00158183209535 0.000335571897797 0)
(-0.00151184220539 0.000376905225985 0)
(-0.00142991801935 0.000424666905009 0)
(-0.00133213579877 0.000480264418026 0)
(-0.00121567024514 0.000544439526508 0)
(-0.00107923742544 0.000616701542451 0)
(-0.000926481633881 0.00069229408104 0)
(-0.00076747056544 0.000754150971787 0)
(-0.000608494837296 0.000778679293708 0)
(-0.000499206701543 0.000814453476156 0)
(-0.000365338464682 0.000734766238227 0)
(-0.000246739309722 0.000576371177136 0)
(-0.000154499428383 0.000460562962203 0)
(-6.86681557457e-05 0.000384872764568 0)
(4.13048234732e-06 0.000334129525575 0)
(6.49081837712e-05 0.000308283386991 0)
(0.000108163182451 0.000260154161721 0)
(0.000109281800313 0.000166449425395 0)
(0.000100371702111 9.72445763428e-05 0)
(0.000100626757358 5.90685450456e-05 0)
(9.87112790264e-05 2.79689781136e-05 0)
(9.3117192277e-05 -6.22632676709e-06 0)
(7.17812162046e-05 -3.45431953496e-05 0)
(5.43510017982e-05 -5.56951031004e-05 0)
(3.95136315725e-05 -8.88765118306e-05 0)
(1.23658277113e-05 -9.99794574672e-05 0)
(-2.23944888569e-05 -0.000599486187697 0)
(-0.000123284047673 -0.000741194399483 0)
(-0.000255114590337 -0.000884053218315 0)
(-0.000308084731623 -0.000834078489762 0)
(-0.000242944457516 -0.000479949924838 0)
(-0.000463619465821 -0.000637477442693 0)
(-0.00063786221069 -0.000736759168848 0)
(-0.000705777701798 -0.000690837457479 0)
(-0.000799357677549 -0.000629224685779 0)
(-0.000874294335286 -0.000566634615606 0)
(-0.0010072281678 -0.00047124807139 2.60462632774e-28)
(-0.000868325359126 -0.000271260651233 -1.77395653189e-28)
(-0.000964159508898 -0.000238102828418 0)
(-0.00102608237145 -0.000245784797621 0)
(-0.00115361668513 -0.000292457030687 0)
(-0.00128247187784 -0.000343102878761 0)
(-0.00136184979162 -0.000346565956237 0)
(-0.00138247722157 -0.0003217117301 0)
(-0.00144367757006 -0.000324282450251 0)
(-0.00150962470685 -0.000335097639649 0)
(-0.00155361604301 -0.00032649489544 0)
(-0.00159821139491 -0.000305048448906 0)
(-0.00164068992008 -0.000279614224808 0)
(-0.00167989456672 -0.000252754238148 0)
(-0.00171096488546 -0.000225762360421 0)
(-0.00173736917634 -0.000201110023566 0)
(-0.00177567126218 -0.000183163138024 0)
(-0.0017812293052 -0.00016584198364 0)
(-0.00182851993707 -0.000144066252383 0)
(-0.00181690626366 -0.000115110760533 0)
(-0.00186150854261 -0.000103962629515 0)
(-0.0018569185288 -0.000100306950629 8.52119844607e-29)
(-0.00189629559445 -9.92028227e-05 -8.47979238618e-29)
(-0.001922574564 -0.00010241166702 0)
(-0.00195489726865 -9.98602700088e-05 0)
(-0.00196762808112 -8.80667325087e-05 0)
(-0.00197486062027 -7.22957134467e-05 0)
(-0.00198096402187 -5.43283785024e-05 0)
(-0.00198565382701 -3.44739215876e-05 0)
(-0.00198822142844 -1.2708810714e-05 0)
(-0.00198827803558 1.04506303852e-05 0)
(-0.00198547753772 3.33697813238e-05 0)
(-0.0019793730902 5.47497028294e-05 0)
(-0.00196967052394 7.49366671361e-05 0)
(-0.00195628186278 9.5181148893e-05 0)
(-0.00193919831747 0.000116454540138 0)
(-0.00191835240162 0.000139187941409 0)
(-0.00189353425091 0.000163532210334 0)
(-0.00186446332733 0.000189598886059 0)
(-0.00183084028191 0.00021754934362 0)
(-0.00179227588879 0.000247674099666 0)
(-0.0017482458421 0.000280534403948 0)
(-0.00169817244162 0.000316896339641 0)
(-0.00164140353159 0.00035749804026 0)
(-0.00157672912547 0.000403517239628 0)
(-0.00150139689391 0.000457301406106 0)
(-0.00141100351862 0.000521442966814 0)
(-0.00130119548119 0.000596984467411 0)
(-0.00117001921103 0.000682123203411 0)
(-0.00102011367059 0.000771001391362 0)
(-0.000859195503032 0.000850443197349 0)
(-0.000699251245244 0.000903276404534 0)
(-0.000554242834959 0.000932250053587 0)
(-0.000430073185726 0.000931386190468 0)
(-0.000305348067959 0.000846290257215 0)
(-0.000172729235334 0.000660454475999 0)
(-8.25896130302e-05 0.000554740487635 0)
(5.64831525535e-06 0.000479905970508 0)
(8.75858536663e-05 0.000417972078982 0)
(0.000151047783123 0.000359816151732 0)
(0.000169568446321 0.000261924009917 0)
(0.000147906707894 0.00015330351523 0)
(0.000136343757538 9.14551279149e-05 0)
(0.000128275778849 5.39418306626e-05 0)
(0.000122557769974 2.07497735819e-05 0)
(0.000110009960289 -1.80861542655e-05 0)
(9.35385667259e-05 -5.22643380889e-05 0)
(6.93195247436e-05 -7.60362041615e-05 0)
(4.94382944149e-05 -0.000113407860478 0)
(1.69622827817e-05 -0.000130182454834 0)
(-4.224740625e-05 -0.000697715424661 0)
(-0.000164256496408 -0.000883712070233 0)
(-0.000278966059342 -0.000933840231242 0)
(-0.000215531292889 -0.00062769447642 0)
(-0.000256943355983 -0.000594522907728 0)
(-0.00050855648236 -0.000837520559258 0)
(-0.000596721129962 -0.000825085598202 0)
(-0.000683891786643 -0.000778595816825 0)
(-0.00075578541064 -0.000705699586491 0)
(-0.000851664450091 -0.000635890852933 0)
(-0.00076251476163 -0.000414202811618 0)
(-0.000857238090924 -0.000325528807498 0)
(-0.00094642503072 -0.000315143012963 0)
(-0.00102686985328 -0.00034385297173 0)
(-0.00119720845054 -0.000418092188702 0)
(-0.00129073636369 -0.000432222066286 0)
(-0.00130444843407 -0.000389996695742 0)
(-0.00136517781436 -0.00037483467747 0)
(-0.00144959462279 -0.000388712271899 0)
(-0.00150663032136 -0.000388553184074 0)
(-0.00154979919219 -0.000371552627643 0)
(-0.00159230643145 -0.000347857535818 0)
(-0.0016370523344 -0.000322460439945 0)
(-0.00167649317131 -0.000292270548104 0)
(-0.00171747652056 -0.000256883529384 0)
(-0.00173168016139 -0.000230930313279 0)
(-0.00178049805514 -0.000209183400857 0)
(-0.00179220352919 -0.000184924505156 0)
(-0.00179435028208 -0.000160963469543 0)
(-0.00182450223228 -0.000141006053162 0)
(-0.00187828413608 -0.000128607805431 0)
(-0.00187898871337 -0.000118687095234 0)
(-0.00189464849487 -0.000126250903758 0)
(-0.00194450893954 -0.000130511334415 0)
(-0.00196210680946 -0.00012001809621 0)
(-0.00197350253899 -0.000100588024794 0)
(-0.00198183763079 -8.02576747897e-05 0)
(-0.00198808419525 -5.97059320266e-05 0)
(-0.00199279540129 -3.77247741198e-05 0)
(-0.00199550379041 -1.38266191046e-05 0)
(-0.00199565172997 1.15060313461e-05 0)
(-0.00199293063402 3.70824351345e-05 0)
(-0.00198697322078 6.19387273073e-05 0)
(-0.00197740767939 8.61219126402e-05 0)
(-0.00196405755943 0.000110423925361 7.39590601582e-29)
(-0.00194685992436 0.000135670686065 -7.3620175748e-29)
(-0.00192566678865 0.000162394689953 0)
(-0.00190019095564 0.000190883514656 0)
(-0.00187011822259 0.000221332323222 0)
(-0.00183517479059 0.000253987517357 0)
(-0.00179503662536 0.000289272759726 0)
(-0.0017492542999 0.000327879933256 0)
(-0.00169721906173 0.000370807351986 0)
(-0.00163790536549 0.000419544432368 0)
(-0.00156926180703 0.000476585029617 0)
(-0.00148760198952 0.000545416625512 0)
(-0.00138799141379 0.000628856064218 0)
(-0.00126655459171 0.000726146045383 0)
(-0.00112397501994 0.000830844241694 0)
(-0.000965714273239 0.000932155525421 0)
(-0.000799620604758 0.00101351144132 0)
(-0.000636776782042 0.00106013306624 0)
(-0.000489131424824 0.0010688026805 0)
(-0.000363128479992 0.00104003197859 0)
(-0.000265588582251 0.000996384992543 0)
(-0.000117349110223 0.000780223547782 0)
(-1.56881614296e-07 0.000642078792391 0)
(9.2893524093e-05 0.00056706138124 0)
(0.000177261811328 0.000487427523124 0)
(0.000234277502267 0.000385587272299 0)
(0.000232293230711 0.000245070742917 0)
(0.000199882728859 0.000132080047409 0)
(0.000174224524766 7.29959428967e-05 0)
(0.000152265718775 4.12889360274e-05 0)
(0.000143565847782 1.30791490932e-05 0)
(0.000134404653267 -2.67692555812e-05 0)
(0.00012433288929 -7.25795604948e-05 0)
(9.33013314766e-05 -0.000105994259571 0)
(6.11124912159e-05 -0.000145411259509 0)
(2.15003451657e-05 -0.000170964731216 0)
(-5.61973349867e-05 -0.000816200230887 0)
(-0.000180157777467 -0.000996952019094 0)
(-0.000245441365437 -0.000979990689521 0)
(-0.000210128925147 -0.0006895423398 0)
(-0.000330614245215 -0.000765029673076 0)
(-0.000510858918485 -0.00094312693467 0)
(-0.000562491880912 -0.000908889491928 0)
(-0.000664458353332 -0.000862805270236 0)
(-0.000680680902524 -0.000740397857678 0)
(-0.000855095340695 -0.000718908964967 0)
(-0.000742498853063 -0.000463781376004 0)
(-0.000857289794116 -0.000412709841216 0)
(-0.000937351052565 -0.000407572024281 0)
(-0.00107323509859 -0.000471292050999 0)
(-0.00120258551349 -0.000528678130451 0)
(-0.00127783203993 -0.000499148008665 0)
(-0.00129304855208 -0.000441831674131 0)
(-0.00136869251117 -0.00044305504712 0)
(-0.00144293437989 -0.000453182949019 0)
(-0.001498638279 -0.000441866387871 0)
(-0.00154848948032 -0.000418079086309 0)
(-0.00158976276416 -0.000389285442284 0)
(-0.001632779588 -0.000361646388638 0)
(-0.00165948825223 -0.000330534501178 0)
(-0.00169073769301 -0.000287219252256 0)
(-0.00174530172433 -0.000258466734644 0)
(-0.00173179409962 -0.000234529697398 0)
(-0.0018106633243 -0.000209812560367 0)
(-0.00179469996372 -0.000184942328333 0)
(-0.00185774716097 -0.000172620794266 0)
(-0.00184567388072 -0.00015209662769 0)
(-0.0019068467701 -0.000146022140452 0)
(-0.00193307980878 -0.00015291815015 8.73539036403e-29)
(-0.00195266720054 -0.000153406381563 -8.60590387938e-29)
(-0.00196828949667 -0.000135861972596 0)
(-0.00198031523912 -0.000112338528914 0)
(-0.00198962864429 -8.87267800705e-05 0)
(-0.00199635075215 -6.54457126766e-05 0)
(-0.00200111740553 -4.12066521473e-05 0)
(-0.00200388367848 -1.51658854196e-05 0)
(-0.00200417125009 1.24774148898e-05 0)
(-0.00200158199155 4.0830840422e-05 0)
(-0.00199574889702 6.91108079762e-05 0)
(-0.00198631878104 9.72150816096e-05 0)
(-0.00197305637308 0.000125647443538 0)
(-0.00195576713326 0.00015509670438 0)
(-0.00193417521987 0.000186137418605 0)
(-0.0019079164528 0.000219143725051 0)
(-0.00187664709681 0.0002543518733 0)
(-0.00184010294849 0.000292041248788 0)
(-0.00179801610151 0.000332742000193 0)
(-0.00175000268739 0.000377392362109 0)
(-0.00169540038943 0.000427519581264 0)
(-0.00163284336744 0.000485584308236 0)
(-0.00155970131984 0.000555283960836 0)
(-0.00147185299774 0.000640891672606 0)
(-0.00136441740355 0.000744894036636 0)
(-0.00123454905939 0.000864098706384 0)
(-0.00108498675935 0.000987582521066 0)
(-0.00091993267918 0.00110228454006 0)
(-0.000744941610534 0.00118703547241 0)
(-0.000571212556711 0.00122309249491 0)
(-0.000413030325093 0.00120967902579 0)
(-0.00027878070863 0.00115907931513 0)
(-0.000180369589843 0.00108224699171 0)
(-7.52590324469e-05 0.000954732718086 0)
(6.33842860723e-05 0.000721596192616 0)
(0.00017782038991 0.000660780306709 0)
(0.000272800684109 0.000575132327544 0)