/*--------------------------------*- C++ -*----------------------------------*\
| =========                 |                                                 |
| \\      /  F ield         | OpenFOAM: The Open Source CFD Toolbox           |
|  \\    /   O peration     | Version:  v1806                                 |
|   \\  /    A nd           | Web:      www.OpenFOAM.com                      |
|    \\/     M anipulation  |                                                 |
\*---------------------------------------------------------------------------*/
FoamFile
{
    version     2.0;
    format      ascii;
    class       volScalarField;
    location    "474";
    object      p;
}
// * * * * * * * * * * * * * * * * * * * * * * * * * * * * * * * * * * * * * //

dimensions      [0 2 -2 0 0 0 0];


internalField   nonuniform List<scalar> 
6400
(
0.154617292742
0.154619718632
0.154626603722
0.154639939763
0.154659448895
0.154684985288
0.154716576439
0.154755234353
0.154801438688
0.154855977936
0.154924131298
0.155008661666
0.155106801368
0.155218558562
0.155345695748
0.155490373007
0.155653688237
0.155835320363
0.156033557222
0.156243650791
0.156460013295
0.156683269186
0.156919538838
0.157175576933
0.157455824009
0.157760141909
0.158085226431
0.158428656888
0.158790143614
0.159170347563
0.159569774127
0.159986749965
0.160415594915
0.160850599937
0.161289408284
0.161728872218
0.162168670474
0.16261530089
0.163067653161
0.163516148604
0.163961867401
0.164418132214
0.164891946441
0.165375587338
0.165859318392
0.166336926412
0.166803718521
0.167256458688
0.16769230641
0.168108890332
0.168504548737
0.168875099404
0.16921403156
0.169512829964
0.169771223633
0.169996133378
0.17018571094
0.170333126665
0.170438525141
0.17051034825
0.170555173739
0.170577898051
0.170584831086
0.170579268708
0.170558219719
0.170509875461
0.170432626853
0.170342602341
0.170257028637
0.170181409275
0.170114580337
0.170053313392
0.169995430128
0.169943560323
0.16989712365
0.169856942176
0.169823726569
0.169802055932
0.169788226934
0.169782413724
0.154613701149
0.154616261694
0.154622449127
0.154635486378
0.154656369166
0.154683241304
0.154715277352
0.154752426763
0.154796882213
0.154851332188
0.154919169846
0.155002634584
0.155101008267
0.155213662702
0.155341027386
0.155484456143
0.155647112462
0.155829421594
0.156029082531
0.156240028904
0.156454614002
0.156675729545
0.156911236837
0.157167024022
0.157447609245
0.157752698746
0.158078033729
0.158422016806
0.158784469623
0.159165457634
0.159564919309
0.159982303222
0.16041225561
0.160847399089
0.161286464246
0.161726250236
0.162165809389
0.162612916862
0.16306637648
0.163515279944
0.163959224324
0.164415446474
0.164893326449
0.165379996376
0.165865208148
0.166344411313
0.166812760885
0.167267375197
0.167704904423
0.168121526761
0.168515679799
0.168887353155
0.169232156662
0.169532987737
0.169792597167
0.170020373962
0.170207983207
0.170351741447
0.170455877485
0.17052614788
0.170568229763
0.170589861642
0.170595413014
0.170588955304
0.170567280921
0.170518457098
0.170438343159
0.170345202372
0.170257122978
0.170179306712
0.17011077115
0.170047953498
0.16998835529
0.169934670558
0.169888189395
0.169848952886
0.169818037315
0.16979698711
0.169783551415
0.16977906377
0.15460369512
0.154607973771
0.154613481833
0.154625434592
0.154645646187
0.154675784553
0.154710741804
0.154746791416
0.154788899347
0.154842025908
0.154909141243
0.154992021797
0.155090554111
0.155203873076
0.155331325003
0.155471573727
0.155632138121
0.155819622877
0.156022510868
0.156232358884
0.156442934895
0.156658560541
0.156892670458
0.157150706163
0.157432039806
0.157736789409
0.15806332047
0.158409134508
0.158773159772
0.159155482465
0.159555788818
0.159974230194
0.160406553907
0.160841350082
0.161279114999
0.161721076922
0.162160627743
0.16260644362
0.163060974245
0.163512800161
0.163963170319
0.164424097327
0.164901151847
0.165387277103
0.165873808358
0.166355030497
0.166826429804
0.16728443731
0.167725623186
0.168146823218
0.168545769056
0.168919616726
0.169262044412
0.169566059
0.169833441977
0.170062442776
0.170247220912
0.170388473306
0.17049009913
0.170557355556
0.170596776286
0.170615386213
0.170617861236
0.170610648077
0.170587062184
0.17053349966
0.170450619617
0.170353554406
0.170258825401
0.170174835988
0.170101198809
0.170034495096
0.169973842458
0.169920597983
0.169874273336
0.169835953921
0.169807100901
0.169787283565
0.169774940979
0.169770511325
0.154589714793
0.154594037691
0.154598521069
0.154609492496
0.15462726664
0.154657264241
0.15470213931
0.154738202905
0.154777050602
0.154827858224
0.154893811891
0.154976340442
0.155075295275
0.155188413672
0.155315910799
0.155460961932
0.155626140924
0.155811263609
0.156006623854
0.156205420398
0.156411467763
0.156630342309
0.156866651051
0.157125021222
0.15740733319
0.157713500601
0.158041910614
0.158389910426
0.158756221179
0.159140339429
0.159542854199
0.159962943121
0.160396877562
0.160835586067
0.161270699949
0.161709145847
0.162152628071
0.162598432462
0.163049910087
0.163505304766
0.163963963999
0.164431431108
0.164911096065
0.165398871375
0.165887988174
0.1663727306
0.166848441524
0.167311248166
0.167757630734
0.168184341682
0.168588370061
0.168966009536
0.169312072772
0.169621889117
0.169893443811
0.170122921758
0.170306775597
0.170445938555
0.170544455121
0.170607975051
0.170643275767
0.170657168231
0.17065608812
0.170646877071
0.170620508576
0.170563249682
0.170472116398
0.170364541948
0.170258831284
0.170165397155
0.17008573122
0.170016811826
0.169955700636
0.169899931871
0.16985143914
0.169814592503
0.169788901779
0.169769409825
0.169756005719
0.169750518142
0.154567915877
0.154568585571
0.154574117986
0.154585365289
0.154605133062
0.154633369564
0.15467412558
0.154714091294
0.154755615483
0.154807039056
0.154872140274
0.15495454845
0.155054433934
0.155172811888
0.155307742527
0.155453950271
0.155613309626
0.15578636657
0.155971110775
0.156166949597
0.156374143909
0.156594070892
0.156831560323
0.157091279655
0.157374979874
0.1576829418
0.158013333672
0.158364104935
0.158733279249
0.15912053197
0.159525208759
0.159949302495
0.160388039077
0.160824011385
0.161258234155
0.161694999057
0.162135126342
0.162582473519
0.163037339595
0.163498085851
0.163964341236
0.164438755211
0.164923011777
0.165414404669
0.165907635924
0.166397326087
0.166878739881
0.167347810195
0.167800907045
0.168234628499
0.168645514022
0.169029516692
0.169381894529
0.169698162873
0.169974341062
0.170205805646
0.170389708937
0.170527387601
0.17062322062
0.170683232564
0.170714362005
0.170723557621
0.170717256333
0.170701747091
0.170666765269
0.170601897799
0.170501075915
0.170379824256
0.170258649877
0.170152371511
0.170065466718
0.169992789914
0.169925960885
0.169864336743
0.169815568447
0.169781221999
0.16975618915
0.169733948012
0.169720362113
0.169715754402
0.154527715114
0.154527472191
0.154536996536
0.154548609188
0.154570439884
0.154600663933
0.154638466623
0.1546791833
0.15472455414
0.154777906688
0.154841749379
0.154924832089
0.15503311437
0.155159500822
0.155294081623
0.155434957092
0.155585232648
0.155749745879
0.155930128153
0.156124073703
0.156329215882
0.156548910782
0.15678779537
0.157049430938
0.157335091869
0.157644519587
0.157977781457
0.158331444328
0.158704677708
0.159095581784
0.159505180545
0.159931774684
0.160370227247
0.160810790892
0.16124093203
0.161671991806
0.162112377599
0.162563227631
0.163023075036
0.163490217658
0.163964184779
0.164446148799
0.164936671726
0.165433603397
0.165932626296
0.166428789036
0.166917393407
0.16739427776
0.167855740567
0.168298262524
0.168718131592
0.16911109844
0.169472348871
0.16979680571
0.170079183457
0.170314490679
0.170500395422
0.17063855936
0.170733512389
0.170791298269
0.170818571905
0.170822210185
0.170808022903
0.170779328452
0.170732260612
0.170651739224
0.170533936306
0.170395233372
0.170255595044
0.170134266908
0.170037358066
0.169954208926
0.169876031655
0.169810808039
0.169763870791
0.169731519825
0.169704755255
0.169682082016
0.169669593981
0.169664362955
0.15446629448
0.154470831199
0.154486941371
0.154504293366
0.154522916365
0.154553361653
0.154593054903
0.15463534231
0.154683628138
0.154739311333
0.154806882596
0.154893166659
0.155008704369
0.155134857478
0.155265428408
0.155398852242
0.155543080158
0.155705552595
0.155884448463
0.15607351716
0.156275748179
0.156495806939
0.156735884885
0.156998815762
0.157286617667
0.157600153542
0.15793448491
0.158291928164
0.158669835324
0.159068274743
0.159482342356
0.159909381362
0.160348941815
0.160784086476
0.161212626245
0.161643102362
0.162085846619
0.162541297426
0.163007099861
0.163481342791
0.163963428077
0.164453700357
0.16495196819
0.165456239756
0.165962787846
0.166467047552
0.166964443978
0.167450835009
0.167922529891
0.168375969875
0.168807298277
0.169212034829
0.169584955972
0.169920177546
0.170211548902
0.170453980725
0.170645497189
0.170787774305
0.170884839461
0.170941692672
0.170964015753
0.170958355122
0.170930604426
0.170882427147
0.170820918153
0.170719141415
0.170573665768
0.170410353914
0.170249020138
0.170108317805
0.169992374075
0.169889885832
0.169800850562
0.169735772828
0.169692211981
0.169661684408
0.169634471848
0.169614334313
0.16960429543
0.169598953193
0.154393990329
0.154403060927
0.154421711694
0.154447076774
0.154467604572
0.154499074641
0.154537614352
0.154582077725
0.15463414381
0.154687992345
0.154762787326
0.154860434577
0.154974484391
0.155097869808
0.155222064978
0.155348693336
0.155492152557
0.155655524834
0.155829816336
0.156014094619
0.156214104847
0.156434134981
0.156675332158
0.156940774276
0.157231725518
0.157548078276
0.157886874932
0.158243966539
0.158629969515
0.159038633514
0.159454147002
0.159878025358
0.160315849189
0.160747737521
0.161173870614
0.161608407434
0.162055936433
0.162516761749
0.162989098242
0.163471089302
0.163961913382
0.164461382414
0.164968795965
0.16548212147
0.165997945067
0.166512010423
0.167019933167
0.16751770449
0.168001741849
0.168468529568
0.168914134238
0.169333820811
0.169721839927
0.170071561411
0.17037631138
0.170631043786
0.170833846064
0.170985548468
0.171088185205
0.171144126337
0.171157751866
0.171135803458
0.171084799536
0.171010922852
0.170924181027
0.170804337722
0.170625954412
0.170426991869
0.170233963162
0.17006249429
0.169916072272
0.169790208811
0.169694743349
0.16963330409
0.169596405785
0.169570760232
0.169549564363
0.169533971033
0.169527508498
0.169524180662
0.15431466386
0.154326553544
0.15434557933
0.154367002188
0.154393471306
0.154432345206
0.154470829879
0.154516563277
0.154575160839
0.154633634293
0.154706173615
0.154811694912
0.154928181823
0.15504651296
0.155165231169
0.155291438289
0.155434274258
0.155594955577
0.155764938082
0.155946516848
0.156144880912
0.156363881583
0.156604646034
0.156871517211
0.157170264601
0.157488013165
0.157831667206
0.158197270015
0.158584837601
0.158994394127
0.159415972503
0.15984632675
0.16027163971
0.160697937127
0.161128248864
0.161568665504
0.162022161347
0.162489192059
0.162968677304
0.163459077862
0.163959412923
0.164469081361
0.164987008372
0.165511047057
0.166037912006
0.16656357608
0.167083903879
0.167595127544
0.168093867634
0.168576739339
0.169039822299
0.169478192244
0.169885660746
0.170255082822
0.170579557976
0.170854059248
0.171076099091
0.17124390888
0.17135528821
0.171408853675
0.171409149707
0.171364936928
0.171283971789
0.171172713486
0.171039311988
0.170886971596
0.1706857838
0.17044154548
0.170201884109
0.169983452613
0.169794416633
0.169644879788
0.169547317567
0.16949536377
0.169472956444
0.169462369705
0.169454060706
0.169444901036
0.169441202104
0.169440121807
0.154227143785
0.15424097057
0.154263159879
0.154283872471
0.154312267081
0.15435161791
0.154391613492
0.154437391838
0.154495436513
0.154568211574
0.154645088334
0.154750573404
0.154867675968
0.154982162414
0.155095515612
0.155224115178
0.155369963123
0.155525681506
0.15569045525
0.155869751564
0.156067691207
0.15628666275
0.15652735643
0.156792654159
0.157097692573
0.157424095235
0.157763772187
0.15813741363
0.158530260779
0.158944758959
0.159369122639
0.15979667437
0.160220378874
0.160642768309
0.161076575859
0.161523570001
0.161983984686
0.162458102852
0.162945431162
0.163444911552
0.163955593643
0.164476562159
0.165006395129
0.165542782277
0.166082477242
0.166621631839
0.16715639508
0.167683335558
0.168199375072
0.168701364873
0.169185545437
0.169647010182
0.170079420417
0.170475483864
0.170828318083
0.171132617023
0.171384173916
0.171575419237
0.171698347338
0.171749139093
0.171734545432
0.171664732055
0.17154548783
0.171381836429
0.171182163369
0.170960395892
0.170723959834
0.17044931055
0.170139548118
0.169851080607
0.169608885081
0.169436071744
0.169341528301
0.169310372372
0.169319146423
0.169341235344
0.169352099327
0.16934677679
0.169342311158
0.169340464537
0.154127680965
0.154140920573
0.154164925671
0.154190038572
0.154225567755
0.154259906421
0.154300161598
0.154347826974
0.154398982415
0.154478899702
0.154567751337
0.154673614853
0.154790714452
0.154905041851
0.155017285541
0.155146074171
0.15529304916
0.155445536365
0.155606370567
0.155782539115
0.155979607872
0.156200047485
0.156445258752
0.156710252887
0.157009914203
0.157349915363
0.157698005577
0.158071154513
0.158465644946
0.158873896752
0.159306239911
0.159736051454
0.160156780436
0.160580458993
0.161019163618
0.161472950953
0.161940899989
0.162422974888
0.16291894428
0.163428202716
0.163950068008
0.164483476339
0.165026649734
0.165577042364
0.166131390514
0.166686021987
0.167237413207
0.167782526105
0.168318661835
0.168843046571
0.169352328092
0.169842000975
0.170306111502
0.170737749737
0.171130167583
0.171476715823
0.171769508013
0.171990862102
0.17213297348
0.17218919822
0.172164976611
0.172067553979
0.171899100914
0.171665751736
0.171381079818
0.171059864459
0.17072671852
0.170393367276
0.170034788854
0.169640869586
0.169330519251
0.169131460443
0.169049032282
0.169061110445
0.169133533995
0.169217471535
0.169253806037
0.169237116291
0.169225339805
0.169218654844
0.154013441712
0.154023794731
0.154042312935
0.154074672119
0.154119420592
0.154153536397
0.154194481391
0.154247105142
0.154296733923
0.154373185439
0.154471143017
0.154579592511
0.154695915443
0.154811500428
0.154929450355
0.155059960748
0.155205116922
0.155354346464
0.155512602886
0.155685742899
0.155879250221
0.156097395618
0.156351297916
0.156627692313
0.156921830021
0.157261705661
0.157618434597
0.157988507165
0.158393929571
0.158807961224
0.159231500674
0.159655837201
0.160077746462
0.160509443818
0.160955139654
0.161416192304
0.16189226517
0.162383163452
0.162888714896
0.163408551951
0.163942401026
0.164489373554
0.165047374567
0.165613473515
0.166184343562
0.166756536691
0.167326902712
0.167892810668
0.168451974565
0.169002153709
0.16954075615
0.170064315744
0.170568205314
0.171046650065
0.171492599882
0.17189421479
0.172239176436
0.172498931202
0.17268666838
0.172774424372
0.17275482055
0.172625864181
0.172391764101
0.172065485379
0.171671401048
0.17122165812
0.170738015668
0.170279959323
0.169805973395
0.169306132884
0.168907501696
0.168673749945
0.168618142006
0.168715725663
0.168914025973
0.169121962146
0.169190292054
0.169112153171
0.169086262481
0.16907254002
0.153884109249
0.153891842801
0.153902308776
0.153938709131
0.153983888626
0.154024484503
0.154068684913
0.154126812277
0.154182578812
0.154257603593
0.154359188476
0.154469128071
0.15458415611
0.154697541251
0.154823049221
0.154961689206
0.155105215871
0.155251614046
0.155408299635
0.155579777501
0.155769507943
0.155981330885
0.156234788485
0.156531424837
0.156831883721
0.157159823448
0.157528610964
0.157904773221
0.158301280423
0.158719803783
0.159144822421
0.159566685802
0.159990172343
0.160429012089
0.160882964429
0.161352342503
0.161837259464
0.162337722588
0.16285390243
0.163385474846
0.163932260738
0.164493801781
0.165068040384
0.165651608296
0.166240952062
0.166832887393
0.167424715446
0.168014170657
0.168599314795
0.169178551643
0.169750530307
0.17031385927
0.170866888253
0.171405996154
0.171921936907
0.172385642101
0.172793485601
0.173105204802
0.173418243745
0.173604109052
0.173614456117
0.173440909934
0.173113221904
0.172660376076
0.172131212494
0.17150976752
0.17079835387
0.170112480379
0.1694525515
0.168787631985
0.168294186047
0.167997913088
0.167992006496
0.168236310151
0.168671283025
0.169144781097
0.169252288468
0.168938087453
0.168911920378
0.168893710612
0.153740639518
0.153749563516
0.153764582261
0.153791023386
0.15383103449
0.153875832693
0.153924267975
0.153985015753
0.154051142919
0.154127645619
0.154231753719
0.154342871646
0.154457712141
0.154569726792
0.154696263848
0.15484242961
0.154988485845
0.155135369174
0.155291889894
0.155462910047
0.155650771582
0.155857314859
0.156105632376
0.156412666374
0.156728184995
0.15705340471
0.15742572537
0.157810202971
0.158202036082
0.158617893745
0.159036581038
0.159457709875
0.159890934308
0.16033877043
0.16080161188
0.161280185788
0.16177506033
0.162286030339
0.162813511791
0.163357911251
0.163919034169
0.16449639651
0.165088189301
0.165690891248
0.166300698195
0.166914668175
0.167530592654
0.168146425217
0.168760316933
0.169371311571
0.16997984099
0.170588214853
0.171200684554
0.171817690175
0.172424226471
0.172936733219
0.173445183658
0.173844825966
0.17452643413
0.174912675044
0.174913043081
0.174545870359
0.173935678971
0.173219674024
0.172523378368
0.171831053415
0.170989916307
0.169971520935
0.168953323772
0.168075671329
0.167278381128
0.166776311332
0.16686225688
0.167394843915
0.168287119316
0.169493682172
0.169620735818
0.168589442496
0.168688313353
0.168668664565
0.153579361114
0.153589453423
0.153613233031
0.153630608239
0.153664541771
0.153710418281
0.153762227291
0.153827009596
0.153905635652
0.153982973235
0.154088379996
0.154200883407
0.154316783476
0.154430400916
0.154557801027
0.15470689237
0.154855618825
0.155004856925
0.155162586075
0.155333751814
0.155521151102
0.155725888077
0.155965733123
0.156269377958
0.156608185829
0.156941098302
0.157301591478
0.157701963772
0.158102826854
0.158501702575
0.158913516701
0.159338643707
0.159779859886
0.160237055238
0.160709840189
0.161198670339
0.161704193477
0.162226871219
0.162766926922
0.163324995484
0.163901666803
0.164496435408
0.165107355167
0.165730821451
0.16636298608
0.16700129718
0.167644073124
0.168289229102
0.168934324266
0.16957843267
0.170224484045
0.170880810919
0.171562337114
0.172277644478
0.173010897508
0.173531974056
0.174184403546
0.174017916514
0.174226544106
0.174516985054
0.17450269572
0.174169909294
0.173629906486
0.172969259336
0.17224197924
0.171453301249
0.170569028272
0.16962692653
0.16870664987
0.167883294438
0.167248077474
0.16699520026
0.16722813731
0.167948285491
0.169203825699
0.171081034387
0.171776556434
0.166801950528
0.168280343071
0.168398212669
0.153396909189
0.153406348002
0.153428669285
0.153447840627
0.153479411733
0.153526584229
0.153580078027
0.15364474282
0.15373515725
0.153821079457
0.153927470451
0.154042082589
0.154160513701
0.154278188911
0.15440802237
0.154557975634
0.154708434902
0.154860574752
0.155020285248
0.155192144276
0.155379279949
0.15558386907
0.155818156233
0.156113908179
0.156466719636
0.156816322452
0.157168878122
0.157562218842
0.157973100542
0.15837638968
0.158783273305
0.159209515407
0.159657243575
0.160123775682
0.160606955946
0.161106572587
0.161623673784
0.16215884619
0.162712724917
0.163285851907
0.163879236212
0.164492936006
0.165124856113
0.165770899267
0.166427096052
0.167091892038
0.167764726484
0.168442686753
0.16912050853
0.169796461188
0.170477384395
0.171178727218
0.171934087868
0.172776073589
0.173802615641
0.173678005415
0.173855137725
0.174099622768
0.174162936314
0.174268841457
0.174198570282
0.173873819462
0.173345961299
0.172677940781
0.171916141187
0.171085570859
0.170194276113
0.16927020396
0.16837596995
0.167570644992
0.166938509742
0.166617566319
0.166700354356
0.167205604355
0.168047163405
0.168932667156
0.168377028899
0.168918973342
0.169868751836
0.168123259812
0.153195188244
0.153203815103
0.153226853755
0.15324630077
0.153278116045
0.153325600592
0.153380328043
0.153442099456
0.153534094044
0.153633697756
0.15374554849
0.153863740884
0.15398630372
0.154111563172
0.154244410131
0.154395106496
0.154547166997
0.154702684646
0.154864861559
0.155037976656
0.155225154413
0.155429209632
0.155659728404
0.155946123589
0.156298534895
0.156673929569
0.157034731429
0.157415040722
0.157819971816
0.158224329623
0.15863347697
0.159066069321
0.159521519945
0.159997373347
0.160491430956
0.161002896197
0.161532282337
0.162080906195
0.162649577645
0.163239176628
0.163850700768
0.164484673886
0.165139549625
0.16581061151
0.166492925677
0.167186139922
0.167891915174
0.168605932143
0.169317368548
0.170021740923
0.170729119419
0.171455601817
0.172247518889
0.173098736399
0.173432832352
0.173697292704
0.173752232201
0.173847034625
0.173854158142
0.173814716498
0.173640639662
0.17326753903
0.172710653751
0.172012066856
0.171208907478
0.17032769846
0.169389202629
0.168424640761
0.167485027226
0.166634019973
0.165923725958
0.165444811515
0.165289419124
0.165462877253
0.165868533767
0.166365655029
0.166697957309
0.167678000674
0.168486134923
0.170939403318
0.152976425782
0.152983571765
0.153002558104
0.153024774749
0.153061041165
0.153108902741
0.153166255903
0.153226969966
0.153317827559
0.153425526548
0.153542302117
0.153663679111
0.153789094237
0.15392470531
0.154063776886
0.154215374382
0.154369619499
0.154529878413
0.154695419045
0.154870481276
0.155058216234
0.155261557725
0.15548910303
0.15576755655
0.156114439313
0.156505651839
0.156885753486
0.157261532473
0.157654731022
0.158054509845
0.158467574078
0.158906487541
0.159369911378
0.159855009645
0.160360500111
0.160885207759
0.161428492546
0.161991409753
0.162576153366
0.163183395746
0.163814498946
0.164470787012
0.165150993315
0.165849625771
0.166559116649
0.167281727928
0.168027300897
0.168787468845
0.169532172303
0.170257877362
0.170980702836
0.171701843601
0.17251104824
0.172857967274
0.173180538054
0.173385176573
0.17344071768
0.173455481868
0.173396131751
0.173243294533
0.17296021018
0.172511493796
0.171898633445
0.171146769246
0.170284566183
0.169337793519
0.168331527832
0.167296922271
0.166275489121
0.165317904948
0.164448777278
0.163718247271
0.163204119555
0.162921953999
0.16283205126
0.162914737535
0.163183807629
0.164073008323
0.16655435807
0.168989040191
0.152743459941
0.152749374266
0.152763243829
0.152788771418
0.152828821713
0.152876782013
0.152936078784
0.152999748211
0.153087227363
0.15319894016
0.153318821268
0.153442325955
0.153568221276
0.153709392538
0.153859989964
0.154015055892
0.154172215764
0.154338000958
0.154509307537
0.154687912613
0.15487745488
0.155080069856
0.155305291052
0.155576998929
0.155913461138
0.156302559978
0.156703070414
0.157089457317
0.157479043089
0.157875652698
0.158287391624
0.158730630638
0.159201812654
0.159694513743
0.160212448844
0.160751608972
0.161308980066
0.161887751169
0.162490158171
0.163117241635
0.163769748383
0.164449390641
0.165156239437
0.165886854781
0.166635803821
0.167403741571
0.168193209516
0.168984985796
0.169756365432
0.170510606757
0.171241056571
0.171934728271
0.17228991438
0.172592940861
0.172834452246
0.172974538243
0.172996715654
0.172928067735
0.17276451982
0.172490725257
0.172087331755
0.171535679254
0.170834250028
0.169997909874
0.169047843412
0.168006044092
0.166895280731
0.165741572028
0.164575589012
0.16343100746
0.162328563504
0.16126602795
0.160275280972
0.15937486971
0.158522869452
0.157669869415
0.156783901508
0.155959646973
0.155199030752
0.153136578929
0.152497330325
0.152502927154
0.152515209671
0.152544262729
0.152584130484
0.152630272644
0.152687443153
0.152755716514
0.152839670169
0.152953171785
0.153075410563
0.153200943851
0.153328236704
0.153470130466
0.153630449389
0.153792265431
0.153954098772
0.154124724944
0.154302517022
0.154487073174
0.154681007966
0.154883745891
0.155107067817
0.155373802503
0.155700193932
0.156081709253
0.156490221137
0.156889868457
0.157277220506
0.157671858951
0.1580893249
0.158534705312
0.159011288964
0.159514015822
0.160044977978
0.160598657556
0.161171408604
0.161767336234
0.162388764242
0.163037218269
0.163713563469
0.164419721724
0.165159338129
0.165934990022
0.166738127685
0.167551498311
0.168372881802
0.169195307847
0.170015524195
0.170829074412
0.171699764353
0.171867023034
0.172032693871
0.172264419125
0.172418708604
0.172465454971
0.172401438191
0.172229610864
0.171947767479
0.171547054241
0.171016051296
0.170344788457
0.169532127551
0.168587074956
0.167524299654
0.166360324058
0.165112417392
0.163798821511
0.162438283694
0.161046933091
0.159635584129
0.158148692985
0.156551957441
0.154832074225
0.152884891778
0.150530295676
0.147528414018
0.143681280201
0.139112719182
0.138764540028
0.152235414766
0.152241172871
0.152253999523
0.152287117591
0.152326220099
0.152369961596
0.152422899341
0.152493952872
0.152572940682
0.152686722754
0.152811357987
0.152939064974
0.153068765409
0.153212743019
0.1533783145
0.153547029699
0.153715090242
0.153890969753
0.154073969546
0.154265026213
0.154465925188
0.154670756949
0.154892340614
0.155155411973
0.15547321325
0.155845176123
0.156253592449
0.156661251307
0.157058191489
0.157452784348
0.157873912397
0.158324087264
0.158802819114
0.159308639976
0.159849244265
0.160420973215
0.161012668394
0.161627939955
0.162269415382
0.162940364565
0.163643329831
0.164381113833
0.165164477733
0.165997116276
0.166850363433
0.167701838489
0.168562227096
0.169449026764
0.170358970363
0.171353494342
0.171556069093
0.17169313486
0.171772670045
0.171870204115
0.171905038519
0.171836237007
0.171655975417
0.171360851001
0.170946898256
0.170408389975
0.169738594467
0.168931997747
0.167987751394
0.16691080019
0.165709907748
0.164395149365
0.162976360051
0.161462081659
0.159857873887
0.158162696611
0.156366782617
0.154390462329
0.152101041775
0.149399431811
0.146078021218
0.141701455376
0.135440178858
0.125549021341
0.106980319893
0.0617934921914
0.151951686054
0.151957542223
0.151972719013
0.152010481927
0.152049505921
0.152091495648
0.152142314703
0.152213249779
0.152286833414
0.152398788773
0.152525516961
0.152655333199
0.152787481518
0.152933599154
0.153102491538
0.153277458517
0.153453704671
0.15363558734
0.153822932188
0.154019713231
0.154228997957
0.15443879346
0.154658579737
0.154918501268
0.155229860563
0.155591383456
0.155993301781
0.156398708269
0.15680806602
0.157216152371
0.157638331733
0.158087484108
0.158572396848
0.159088418503
0.1596316644
0.160214372781
0.160826649347
0.161463680909
0.162129118962
0.162824788576
0.163555652283
0.164334077043
0.165177230971
0.166069182683
0.166965591926
0.167862392494
0.168805926222
0.169828621223
0.170971770426
0.171197272077
0.171308440409
0.171365135679
0.171383777144
0.171363841683
0.171268291172
0.171067744829
0.170752216713
0.170317287532
0.169758926141
0.169072894934
0.168254778202
0.16730085885
0.166209667418
0.164982590871
0.163622824196
0.162133562843
0.160516234702
0.158768604954
0.156881990264
0.154836608255
0.152593686394
0.150087011017
0.147102662239
0.143379314076
0.138623170385
0.132207530167
0.122906455172
0.108355991254
0.0837825497872
0.0428962663313
0.151637737344
0.151643676838
0.151661162832
0.151703613477
0.151742368629
0.15178575036
0.151836172197
0.15190509712
0.151976319178
0.152087584095
0.152216442554
0.152348210299
0.152482593568
0.15263031153
0.152800803966
0.152979776851
0.153165987165
0.153355343752
0.153547308649
0.153749105673
0.153966213229
0.154185003407
0.154404283543
0.154659840374
0.154966760035
0.155319269481
0.155712689023
0.156111732384
0.156521336943
0.156946494582
0.157383767921
0.1578351578
0.158311538394
0.158831991225
0.159389792319
0.159982594502
0.160611500007
0.16127048079
0.161960822997
0.162685055279
0.163451852459
0.164286278111
0.165196699764
0.166141976474
0.167092732138
0.168076791686
0.169182612759
0.170496681091
0.170769152603
0.170874308667
0.170933819248
0.170940272617
0.170873253996
0.170728137178
0.170491347194
0.170145798198
0.169682438608
0.169096911419
0.168385677226
0.167545189584
0.166571784977
0.165461901388
0.164212619215
0.162821790036
0.161287233692
0.159605223989
0.15776858674
0.155764288744
0.15356997505
0.151148674884
0.148440452087
0.145352543679
0.141697272604
0.13709718841
0.131117397282
0.123146514039
0.112060014556
0.0960099284426
0.0717712314422
0.0383866520744
0.151286700241
0.151294473495
0.151312901065
0.151354748247
0.151396416735
0.151446184335
0.151499925974
0.151569679322
0.151645219128
0.151752101833
0.151882393383
0.152016050052
0.152152626942
0.152301635644
0.152472550793
0.152651967833
0.152844336258
0.1530442811
0.153243558732
0.153451551279
0.153674590401
0.153905283792
0.154131825578
0.1543794625
0.154681696035
0.155027184572
0.155412052704
0.15580503974
0.156208858359
0.156641171746
0.157094749468
0.157560544936
0.158037294901
0.158551142791
0.159111583879
0.159718065346
0.160365055291
0.161046965087
0.161762101196
0.162517879323
0.163335964607
0.164240469876
0.165215593743
0.166221370247
0.167261346225
0.168378249872
0.169740254044
0.170154738556
0.17033301911
0.170430638337
0.170455935568
0.17038415836
0.170210307081
0.169935670513
0.169554937105
0.169059142066
0.168442324373
0.167701238677
0.166833091839
0.165834702365
0.164702319933
0.163431579622
0.162017537992
0.160454461186
0.158735023176
0.15684887753
0.154780663534
0.152507299597
0.14999414209
0.147189355316
0.144015591229
0.140357592245
0.136048162275
0.130750871901
0.123912620998
0.114886564412
0.102808808654
0.0863302146204
0.0630678707809
0.0336985797976
0.150903133321
0.150914105287
0.150932541619
0.150968293622
0.151015733261
0.151072263538
0.151131957913
0.15120660008
0.151291771973
0.151393470912
0.151522559026
0.151657409895
0.151796233414
0.151946703915
0.152118262
0.152298446387
0.152491562963
0.152700497741
0.152909814751
0.153126429067
0.153355340793
0.153597520449
0.153840565498
0.154090514779
0.154379796142
0.154716737497
0.155092846045
0.155480015236
0.15587612581
0.156306533836
0.156767289376
0.157252158744
0.15774088801
0.158251011267
0.158806863641