/*--------------------------------*- C++ -*----------------------------------*\
| =========                 |                                                 |
| \\      /  F ield         | OpenFOAM: The Open Source CFD Toolbox           |
|  \\    /   O peration     | Version:  v1806                                 |
|   \\  /    A nd           | Web:      www.OpenFOAM.com                      |
|    \\/     M anipulation  |                                                 |
\*---------------------------------------------------------------------------*/
FoamFile
{
    version     2.0;
    format      ascii;
    class       volVectorField;
    location    "192";
    object      U;
}
// * * * * * * * * * * * * * * * * * * * * * * * * * * * * * * * * * * * * * //

dimensions      [0 1 -1 0 0 0 0];


internalField   nonuniform List<vector> 
6400
(
(-8.12557998162e-05 -0.000110313347936 0)
(-0.000225647304579 -8.78968491206e-05 0)
(-0.000332530120277 -7.4234145583e-05 0)
(-0.000459887598774 -6.78560626222e-05 0)
(-0.000549266750219 -3.94950957604e-05 0)
(-0.000610024627987 -1.50908232697e-05 0)
(-0.000627969135417 -6.40517366058e-06 0)
(-0.000636510261511 -1.96810395679e-05 0)
(-0.000720814781233 -3.52326348464e-05 0)
(-0.000812085730011 -3.27161641911e-05 0)
(-0.000824750612276 -2.87554383555e-05 0)
(-0.000910694929165 -3.48974695492e-05 0)
(-0.000983130981044 -3.14134857887e-05 0)
(-0.00103971997891 -2.28520794539e-05 0)
(-0.00107202377397 -1.82775532166e-05 0)
(-0.00110832441796 -2.26941610672e-05 0)
(-0.00116384914352 -2.40144343142e-05 0)
(-0.00120606585099 -1.90619831937e-05 0)
(-0.00122641545496 -1.03210582551e-05 0)
(-0.00123720348906 -3.71521509068e-06 0)
(-0.00125793085441 -1.05031924736e-05 0)
(-0.00129619699471 -2.0369502951e-05 0)
(-0.00134581256438 -2.43071912765e-05 0)
(-0.00139134129833 -2.59957331315e-05 0)
(-0.00143643468586 -2.39609641223e-05 0)
(-0.00147789644062 -1.96521173538e-05 0)
(-0.00152083442183 -1.88827752526e-05 0)
(-0.00156014470156 -1.68313841911e-05 0)
(-0.00158954386489 -1.27941140602e-05 0)
(-0.00161064595573 -9.50388289883e-06 0)
(-0.00162303646689 -9.82390753797e-06 0)
(-0.00164045075562 -8.79660631146e-06 0)
(-0.00165757823172 -4.60038938735e-06 0)
(-0.00166558259554 -4.35271881606e-06 0)
(-0.00166879218937 -2.74618113235e-06 0)
(-0.0016832431835 -1.5947136473e-06 0)
(-0.00169728866654 -3.66570506457e-06 0)
(-0.00167675604432 -2.2836386937e-06 0)
(-0.00168443396431 5.48356237106e-07 0)
(-0.00170744969504 -2.83157466022e-06 0)
(-0.00173216631532 -2.07715434851e-05 0)
(-0.00175371521729 -2.67016828491e-05 0)
(-0.00177038695921 -6.5453525577e-06 0)
(-0.00177227696613 5.60630249667e-06 0)
(-0.00175988374804 1.02677100833e-05 0)
(-0.00174136630058 1.51797031585e-05 0)
(-0.0017149393949 1.90817040507e-05 0)
(-0.00167855273854 2.37458541706e-05 0)
(-0.00163445774514 2.63120947971e-05 0)
(-0.00158694375537 1.97305250267e-05 0)
(-0.00154585535176 5.59356863304e-06 0)
(-0.00154814795256 7.79467586008e-06 0)
(-0.0014965113391 4.47292652845e-05 0)
(-0.0014231324221 5.82003894232e-05 0)
(-0.0013157590592 6.5273663586e-05 0)
(-0.00114137201209 8.20354173187e-05 0)
(-0.000976259767579 7.12581132337e-05 0)
(-0.000851169309328 5.92178586894e-05 0)
(-0.000736429037007 6.95360843277e-05 0)
(-0.000546303385573 7.53554383183e-05 0)
(-0.000371264036026 7.96589909126e-05 0)
(-0.000178855467105 0.00010515081381 0)
(8.08830798353e-05 0.000136319688279 0)
(0.000337475281377 9.82151154883e-05 0)
(0.000467872564936 6.10501112064e-05 0)
(0.000550949135806 4.42085925043e-05 0)
(0.000619152536258 3.28179845811e-05 0)
(0.000685884892352 2.64111152345e-05 0)
(0.00074936321256 2.15728623861e-05 0)
(0.000790148702918 1.39194482038e-05 0)
(0.000814325488444 3.97488428378e-06 0)
(0.000800822070531 -8.29360208473e-06 0)
(0.000755289998372 -2.36949160051e-05 0)
(0.000724508384003 -4.37593625953e-05 0)
(0.000585202583596 -4.50852879768e-05 0)
(0.000539082970377 -4.74356884166e-05 0)
(0.000372979337145 -3.24311313429e-05 0)
(0.000397147472192 -5.213275105e-05 0)
(0.000175237642725 -4.04055073114e-05 0)
(0.000131073780308 -7.82674164204e-05 0)
(-2.91971711368e-05 -0.000149507509265 0)
(-0.000125838764093 -0.000171607369942 0)
(-0.000221368568879 -0.000160944051579 0)
(-0.000279997372177 -0.00012805042057 0)
(-0.000419325017547 -0.000127408836729 0)
(-0.000564453292354 -8.95776687302e-05 0)
(-0.00065132034153 -4.94910472718e-05 0)
(-0.00070416365035 -7.11943436662e-05 0)
(-0.000758676319756 -0.000101630438452 0)
(-0.000821999756438 -9.87672676704e-05 0)
(-0.000882506019239 -9.30588228409e-05 0)
(-0.000936961907295 -9.54399228293e-05 0)
(-0.000986659159217 -8.42403087475e-05 0)
(-0.00103126079538 -6.71397027278e-05 0)
(-0.00107762561241 -5.85686017443e-05 0)
(-0.00112251374007 -7.59728758922e-05 0)
(-0.00116766466848 -8.02103872722e-05 0)
(-0.00119663475774 -4.03980116005e-05 0)
(-0.00115581977346 -1.36458877617e-05 0)
(-0.00117808863045 -1.12760173649e-05 0)
(-0.00121615276402 -3.58163412559e-05 0)
(-0.00127071838738 -7.31607279594e-05 0)
(-0.00134625692042 -8.5952114826e-05 0)
(-0.00140661666874 -7.49123992003e-05 0)
(-0.00142132758355 -6.66386275847e-05 0)
(-0.00148026321003 -6.45942932963e-05 0)
(-0.00153014056816 -5.84726478014e-05 0)
(-0.00156248230654 -4.81366972168e-05 0)
(-0.00158799713983 -3.75169843755e-05 0)
(-0.00160950112308 -2.87843769184e-05 0)
(-0.00162767044891 -2.59608493153e-05 0)
(-0.00162396880466 -2.14563019817e-05 0)
(-0.00163914595871 -8.40052225547e-06 0)
(-0.00164109551466 -1.04426427027e-05 0)
(-0.0016325705774 -1.45960995271e-05 0)
(-0.00167342383991 -3.22684603629e-06 0)
(-0.00166694185993 -7.85751511451e-06 0)
(-0.00165161254055 -1.57713376943e-05 0)
(-0.00167659219717 -1.21486882507e-05 0)
(-0.00172905048737 -9.19939452032e-06 0)
(-0.00175978378823 -2.34793886239e-06 0)
(-0.00157743504762 4.76393830498e-06 0)
(-0.00152350814958 7.86724717119e-06 0)
(-0.00153303341942 1.00658206004e-05 0)
(-0.00152986541151 1.29324627705e-05 0)
(-0.00154119624438 1.81825058859e-05 0)
(-0.00155788193618 2.70889315958e-05 0)
(-0.00155552040804 3.8097933296e-05 0)
(-0.00156350153061 4.97605501697e-05 0)
(-0.00155195781419 5.79777530395e-05 0)
(-0.00149373141211 5.76979232689e-05 0)
(-0.00137687132585 5.83776913938e-05 0)
(-0.00126868294118 6.78672495211e-05 0)
(-0.00142185929591 0.000113412292735 0)
(-0.00128948572212 0.000166330519222 0)
(-0.00118510598544 0.00019768199396 0)
(-0.00115336526848 0.000208245313315 0)
(-0.0010262991 0.000211069126747 0)
(-0.000867402004932 0.000242254382521 0)
(-0.000691775630309 0.000287594172245 0)
(-0.000483694628415 0.000333168488279 0)
(-0.000189777010325 0.000314331567075 0)
(6.85052886172e-05 0.000400853993736 0)
(0.00032425380054 0.000305674954632 0)
(0.000460940252404 0.00019267831399 0)
(0.00052379076181 0.000120285376253 0)
(0.000580681152342 9.50954773227e-05 0)
(0.0006760370172 8.96104384547e-05 0)
(0.000744913815173 7.27943126437e-05 0)
(0.000799707892158 4.49246082941e-05 0)
(0.000815589912581 6.55957932277e-06 0)
(0.000794394689439 -3.55091313006e-05 0)
(0.000730118207903 -6.55811517331e-05 0)
(0.000716038270093 -9.99510104502e-05 0)
(0.000656887319036 -0.00012247880778 0)
(0.000588544502858 -0.000135205832666 0)
(0.000502085387528 -0.000131597897174 0)
(0.000410135576071 -0.000157849091944 0)
(0.000258937376225 -0.00018372064878 0)
(0.000121413352919 -0.000311022256382 0)
(-4.57651378042e-05 -0.000257887892401 0)
(-0.000124257120814 -0.000288273310977 0)
(-0.000190570922511 -0.000274244981112 -1.00058690661e-28)
(-0.000342576000209 -0.000290075325278 9.80377446694e-29)
(-0.000492406187048 -0.000297242685537 9.17250553109e-29)
(-0.00057369730498 -0.000238328596834 -8.50995019382e-29)
(-0.000625113134292 -0.000115974521984 8.71596351022e-29)
(-0.000680975794148 -0.000128358460096 -8.81082112315e-29)
(-0.000740067666774 -0.000161683101333 0)
(-0.000808949739874 -0.000167278428297 0)
(-0.000877280964912 -0.000157546125068 0)
(-0.000934598502555 -0.000145294135184 0)
(-0.000984597477636 -0.000128023848941 0)
(-0.00102736551666 -0.000115374918647 0)
(-0.00106936798671 -0.000103294803979 0)
(-0.00110952257702 -7.68552527966e-05 0)
(-0.000938068652921 -3.80420041892e-05 0)
(-0.000890419194754 -1.64246315784e-05 0)
(-0.000913781721856 -2.56813307062e-05 0)
(-0.000982765824998 -7.16246948474e-05 0)
(-0.0011866543005 -0.000130272192581 0)
(-0.00130620911021 -0.000153943051363 0)
(-0.00131942753358 -0.00014240050194 0)
(-0.00138217409093 -0.000126689224185 0)
(-0.00144832857994 -0.000117215566465 0)
(-0.00148992349343 -0.000109781002943 0)
(-0.00152397271668 -9.38209664341e-05 0)
(-0.00155635144804 -7.61313183512e-05 0)
(-0.00158223179039 -6.00887670628e-05 0)
(-0.00159724733879 -4.76721440935e-05 -2.0022251314e-28)
(-0.00162234854707 -3.57137708441e-05 1.94940931318e-28)
(-0.00160360906005 -2.61789468964e-05 0)
(-0.00160577804749 -1.31392280487e-05 0)
(-0.00165032455237 2.04607229203e-06 0)
(-0.00156122382127 -1.43740656326e-05 0)
(-0.00159645476778 -2.16056528117e-05 0)
(-0.00167431968579 -9.15580179377e-06 0)
(-0.00159265901854 -2.44342182205e-05 0)
(-0.00164082479962 -4.93383304144e-05 0)
(-0.00172368547767 -4.08265258339e-05 0)
(-0.00177011618636 1.21146502442e-05 0)
(-0.00177745992565 4.55665414341e-05 0)
(-0.00177864940551 3.03968972289e-05 0)
(-0.00177455641332 1.86976749529e-05 0)
(-0.00176220494624 1.85043485104e-05 0)
(-0.00174410439386 2.33479059716e-05 0)
(-0.00172148048411 3.54905916207e-05 0)
(-0.00169482662673 5.06908872328e-05 0)
(-0.00166460428804 6.92644566125e-05 0)
(-0.00163144442437 9.53523952127e-05 0)
(-0.0015965926421 0.000122552899071 0)
(-0.00155625594603 0.000135501171219 0)
(-0.00149770176971 0.000125599379914 0)
(-0.00139484382283 0.000165946049718 0)
(-0.00127336849035 0.000228960953617 0)
(-0.00123660444109 0.000269664131216 0)
(-0.0011513135157 0.00030463609698 0)
(-0.00101719703514 0.000351177126745 0)
(-0.000855604460241 0.000408758089017 0)
(-0.000671322017628 0.000478181087892 0)
(-0.000463009717255 0.000552788633544 0)
(-0.000231723950107 0.000633438829891 0)
(3.54479347501e-05 0.000695735749773 0)
(0.000256679749246 0.000484104377897 0)
(0.000382957769756 0.000291140780352 0)
(0.000498195899758 0.000211975260713 0)
(0.000600581822105 0.000181191159867 0)
(0.000672290894753 0.000156415931111 0)
(0.000731051347584 0.000119261605036 0)
(0.000771617294019 6.76694624054e-05 0)
(0.000783600125728 8.86866619857e-06 0)
(0.000780267601863 -4.41542538633e-05 0)
(0.000791300291275 -8.7921049187e-05 0)
(0.00077497703846 -0.000144748696469 0)
(0.000701369961649 -0.000199407941569 0)
(0.000606074770301 -0.000224691734336 0)
(0.000503319168972 -0.000234782980321 0)
(0.000401481831395 -0.00029548467119 0)
(0.0002827066076 -0.00042486992319 0)
(7.51395743747e-05 -0.000440472642231 0)
(-4.71746129335e-05 -0.000395632941779 0)
(-5.33505380735e-05 -0.000254817059116 0)
(-0.000159114264004 -0.000424418182132 0)
(-0.000310396944388 -0.000440649089389 0)
(-0.000417027296595 -0.000367715023593 0)
(-0.000214201985785 -0.000126064005708 0)
(-0.000263901903608 -0.000125870954409 0)
(-0.000526988122947 -0.000251807173787 0)
(-0.000688413241218 -0.000279783710899 0)
(-0.000777116240961 -0.000252544636326 0)
(-0.000862906161521 -0.00023099227996 0)
(-0.000930054586436 -0.000205357321987 0)
(-0.000982040561428 -0.000176179147662 0)
(-0.00100765691985 -0.000124820146175 0)
(-0.000901921385883 -5.5252010842e-05 0)
(-0.000826925708647 -1.1537157891e-05 0)
(-0.000818594122176 -4.98998213726e-06 0)
(-0.000875220595649 -4.90255080641e-05 0)
(-0.00102641394596 -0.000125793715586 0)
(-0.00120800671848 -0.000216268958132 0)
(-0.00124819375565 -0.000237114155482 0)
(-0.00129339078272 -0.000216242154814 0)
(-0.0013540050433 -0.000197827695764 0)
(-0.00140426473982 -0.000184185709419 0)
(-0.00144572794334 -0.000165884954951 0)
(-0.0014816422883 -0.000145141987564 0)
(-0.0015110947008 -0.000124729559739 0)
(-0.00155091149158 -0.000103392892884 0)
(-0.00156433029949 -8.19200322453e-05 0)
(-0.00160043971038 -6.30383188356e-05 0)
(-0.00158273787255 -4.49005153823e-05 0)
(-0.00162063965961 -2.43338073651e-05 0)
(-0.00155994353906 -9.10371730307e-07 0)
(-0.0015651720571 2.59541266212e-06 0)
(-0.00164087346432 -1.11590170329e-05 0)
(-0.00156500723575 -3.70013167985e-05 0)
(-0.00163566539145 -4.70807080672e-05 0)
(-0.00172724090586 -6.06542746031e-05 0)
(-0.00174820762622 -8.38011259756e-05 0)
(-0.00175467551628 -6.67900096353e-05 0)
(-0.00176491993865 -1.74306522696e-05 0)
(-0.00177370405541 1.98453104285e-05 0)
(-0.0017773614105 2.82910560764e-05 0)
(-0.00177405872218 2.95224056142e-05 0)
(-0.00176301809353 3.51348620093e-05 0)
(-0.00174617220981 4.56991767596e-05 2.02863041013e-28)
(-0.00172480543659 6.11084091296e-05 -2.04230842833e-28)
(-0.0016994199299 7.99893181937e-05 0)
(-0.00167025105456 0.000102354097895 0)
(-0.00163733004437 0.000128485377663 0)
(-0.00159983552032 0.000155197850603 0)
(-0.00155348679635 0.000179916569276 0)
(-0.0014921494594 0.000210351309609 0)
(-0.00141570693969 0.000260938643979 0)
(-0.00133464772927 0.000309614370227 0)
(-0.00124944932742 0.000356428065112 0)
(-0.00114420496771 0.00042404536555 0)
(-0.0010075568789 0.000503709334904 3.76903147604e-28)
(-0.000839970983644 0.00059079174428 -4.22978648561e-28)
(-0.000646829862453 0.000683503075033 0)
(-0.000435313280517 0.000771686200187 0)
(-0.000218256788176 0.000844278698673 0)
(-2.37372132945e-05 0.00085951140805 0)
(0.000183149891005 0.000684287610388 0)
(0.00037983055556 0.00046497928755 0)
(0.000487866650525 0.000319716108563 0)
(0.000578237970855 0.000257809351456 0)
(0.000663414298096 0.000219157678388 0)
(0.000732628690957 0.000168382400743 0)
(0.000797280969131 0.00010250392755 0)
(0.000840959526232 3.14174995667e-05 0)
(0.000864181699624 -3.66645690929e-05 0)
(0.000840770396992 -0.000119935962997 0)
(0.000735612117021 -0.000207331020171 0)
(0.00064859174345 -0.000278826663085 0)
(0.000561910088788 -0.000334996355745 0)
(0.000440953696809 -0.000364031024277 0)
(0.000269509548535 -0.000351397253857 0)
(0.000199033248501 -0.00049330812015 0)
(6.79379275143e-05 -0.000591956890908 0)
(-2.20764250426e-06 -0.000384985300375 0)
(-2.38842538776e-05 -0.000311698657904 0)
(-0.000150256276442 -0.000573935969351 0)
(-0.000263450173168 -0.000525149626231 0)
(-0.000257098995247 -0.000315293429788 0)
(-0.000194904526104 -0.00016620869595 0)
(-0.000339101132579 -0.00028741883576 0)
(-0.00056723987045 -0.00044627536929 0)
(-0.000646220664107 -0.000401720683357 0)
(-0.000744012559839 -0.000348621458663 0)
(-0.000833205240038 -0.000319958879884 0)
(-0.000903397436234 -0.000270410456284 0)
(-0.000881095680297 -0.000160632279697 0)
(-0.000770216930055 -5.9337343505e-05 0)
(-0.000783553872108 -2.00475775778e-05 0)
(-0.000834022179295 -2.91265974348e-05 0)
(-0.000933928880877 -8.37116280508e-05 0)
(-0.00107891042259 -0.000179276666467 0)
(-0.00119064752001 -0.000258535102334 0)
(-0.00119408566118 -0.000269140901608 0)
(-0.00123851285657 -0.000273190027156 0)
(-0.00130602487492 -0.000273156661088 0)
(-0.00135494423405 -0.000254044895171 0)
(-0.00139999049161 -0.000228425935539 0)
(-0.00143813454218 -0.000202930717417 0)
(-0.00146825952459 -0.000180295778129 0)
(-0.00151193422923 -0.000155328552694 0)
(-0.00151861875545 -0.000128256285831 0)
(-0.0015715083233 -0.000102555563953 0)
(-0.00154392270122 -7.44057303648e-05 0)
(-0.00160822450734 -4.89840591091e-05 -1.89767103639e-28)
(-0.00151400072753 -2.17289595291e-05 1.71090156015e-28)
(-0.00158377243275 -7.37818106649e-06 0)
(-0.00163455741455 -2.47163153398e-06 0)
(-0.00157250665141 -2.50748026329e-05 0)
(-0.00167268988879 -7.05027556325e-05 0)
(-0.00171238637062 -0.000106916544602 0)
(-0.00174104227314 -0.000106771245727 0)
(-0.00175460226646 -9.20876051077e-05 0)
(-0.00176036823512 -6.56265180514e-05 0)
(-0.00176875050005 -2.63351455565e-05 0)
(-0.00177691440159 8.07845335429e-06 0)
(-0.00178026149588 2.6524535648e-05 0)
(-0.00177695062891 3.75684637753e-05 0)
(-0.00176670439204 4.96465195532e-05 0)
(-0.00175096345773 6.51956841032e-05 0)
(-0.00173068098336 8.45756554411e-05 0)
(-0.00170623953759 0.000107354650625 0)
(-0.0016776174727 0.000133738314719 0)
(-0.00164436917665 0.000164078100243 0)
(-0.00160527134448 0.00019767726873 0)
(-0.00155739413518 0.000234687168539 0)
(-0.00149768514676 0.000278544040858 0)
(-0.00142628294798 0.000332270130662 0)
(-0.00134634838467 0.000390713306611 0)
(-0.00125546956375 0.000461223806198 0)
(-0.00114319164397 0.000553756411217 0)
(-0.00100055511647 0.000662734630716 0)
(-0.000826191481559 0.000777321616776 0)
(-0.000628050923673 0.000887176461793 0)
(-0.000420252580621 0.000979938338706 0)
(-0.00022249937097 0.00104187841693 0)
(-7.04982600636e-05 0.0010242424931 0)
(0.000135262266222 0.000909373288359 0)
(0.000367976825924 0.000665525126649 0)
(0.0004963665152 0.000451682927567 0)
(0.000595273239512 0.000353312481745 0)
(0.000678984847503 0.000294330465081 0)
(0.000751706342847 0.000231140989432 0)
(0.000828336000546 0.000157310270551 0)
(0.00090272156713 6.8594491001e-05 0)
(0.000908978375482 -5.52983417646e-05 0)
(0.000801037736279 -0.000187775548141 0)
(0.000717028674706 -0.000294843365617 0)
(0.000635567944385 -0.000384951261823 0)
(0.000533927428245 -0.000462452166653 0)
(0.000389964626214 -0.000470477068224 0)
(0.000262044796072 -0.000472968568322 0)
(0.000178590590485 -0.000641400216677 0)
(5.02037404313e-05 -0.000691145998456 0)
(2.44536466484e-06 -0.000355133558341 0)
(-3.31947626207e-05 -0.00038241279355 0)
(-0.000155086653955 -0.000654029949973 0)
(-0.00020838181404 -0.000515487979529 0)
(-0.000146718422246 -0.00023628804151 0)
(-0.000198030770091 -0.000241829485963 0)
(-0.000458327292174 -0.000499985157295 0)
(-0.000556102021526 -0.000542873903109 0)
(-0.000619826217433 -0.000488451540715 0)
(-0.000701945330404 -0.000439966258923 0)
(-0.000780839529994 -0.000369386294005 0)
(-0.000683859646044 -0.000220145442559 0)
(-0.000609963255322 -9.75889176932e-05 0)
(-0.000662311706263 -6.43781579539e-05 0)
(-0.000727230245999 -7.86742767448e-05 0)
(-0.000863190083475 -0.000140442301214 0)
(-0.00102743230316 -0.000228061752202 0)
(-0.00114037292836 -0.000281534827714 0)
(-0.00111688240689 -0.000274396632372 0)
(-0.00117519324163 -0.000303238503351 0)
(-0.00125644150979 -0.000335345216032 0)
(-0.00130389137662 -0.000326999400337 0)
(-0.00134754899111 -0.000301061500106 0)
(-0.00138554160086 -0.000271725866886 0)
(-0.00143608402915 -0.000244002418547 0)
(-0.00146693532698 -0.000207953561283 0)
(-0.00145244407032 -0.000178797985423 0)
(-0.00153637782379 -0.000154551772082 0)
(-0.00147917174665 -0.000113747139364 0)
(-0.00158049192006 -7.85317629696e-05 0)
(-0.00144182002969 -3.79768702029e-05 0)
(-0.00156710519445 -3.02799750895e-05 0)
(-0.00145635457124 -2.72506899338e-05 0)
(-0.00155988336414 -3.56314832033e-05 0)
(-0.00166407359164 -7.67313212451e-05 0)
(-0.00170977970613 -0.000126982479262 0)
(-0.0017325491157 -0.000135899680914 0)
(-0.00174839614237 -0.000122896774304 0)
(-0.0017584547922 -0.00010017424242 0)
(-0.00176642887142 -7.06002736447e-05 0)
(-0.00177457019175 -3.47022793742e-05 0)
(-0.00178172503559 -6.07046857286e-07 0)
(-0.00178474221174 2.47944169902e-05 0)
(-0.00178149057019 4.42469388341e-05 0)
(-0.00177202292761 6.29736584799e-05 0)
(-0.00175713962831 8.36901104574e-05 0)
(-0.00173772983831 0.000107348312861 0)
(-0.00171392672573 0.000134268802504 0)
(-0.00168538141386 0.000165069908076 0)
(-0.00165157662794 0.000200513981627 0)
(-0.00161156197151 0.000241122854084 0)
(-0.00156354317504 0.000287796073391 0)
(-0.00150579540443 0.00034210785065 0)
(-0.00143774089408 0.000405100284662 0)
(-0.00135869396829 0.000478313711913 0)
(-0.00126419599525 0.000570523938257 0)
(-0.00114597181161 0.000688303449887 0)
(-0.000998602320861 0.00082479209513 0)
(-0.000824022410998 0.000965186652417 0)
(-0.000627730944385 0.00108682313963 0)
(-0.000431550043738 0.00117327679085 0)
(-0.000258159465493 0.00119069293568 0)
(-9.73439886822e-05 0.00107562813342 0)
(9.94768785795e-05 0.00118071780707 0)
(0.000312979903263 0.000840677372744 0)
(0.00045572949554 0.000578125137643 0)
(0.000586707717224 0.00045558080516 0)
(0.000700950179265 0.00038069845602 0)
(0.000793935984676 0.000308863385492 0)
(0.000907171681081 0.000228866144258 0)
(0.000980938750578 8.54940571807e-05 0)
(0.000898557530559 -0.000109362305933 0)
(0.000799888270006 -0.000264767781842 0)
(0.000735924135475 -0.000388266647984 0)
(0.000637388612876 -0.000496940589124 0)
(0.000533704708258 -0.000589094811433 0)
(0.00038056384046 -0.000568686987647 0)
(0.000266003356519 -0.000584416197926 0)
(0.000178068626605 -0.000758658428353 0)
(5.3979993923e-05 -0.000789010902214 0)
(-1.23777903913e-05 -0.000385549660584 0)
(-8.63000640017e-05 -0.000510852443671 0)
(-0.000210893570734 -0.000713210848605 0)
(-0.000226177890668 -0.000643624645298 0)
(-0.000137438473675 -0.000292689254984 0)
(-0.000301200324047 -0.000447306332248 0)
(-0.000497073882124 -0.000631834706464 0)
(-0.000536196646375 -0.000606021380252 0)
(-0.000599541611638 -0.000550660970265 0)
(-0.000625914094732 -0.000484898671409 0)
(-0.000735480657004 -0.000387599896677 3.98927319097e-28)
(-0.000526849311911 -0.000153446290584 -2.12444678493e-28)
(-0.000615755924377 -0.000124244361919 0)
(-0.000651556035161 -0.000129540264468 0)
(-0.000766360250406 -0.000191816548065 0)
(-0.00094651890634 -0.000301433133013 0)
(-0.00107151566595 -0.000344719313036 0)
(-0.00101880581732 -0.000291626329435 0)
(-0.00108678031502 -0.000315104552198 0)
(-0.00119733064375 -0.000379771770674 0)
(-0.00124443977745 -0.00039388665462 0)
(-0.00129568835332 -0.000375360415715 0)
(-0.00134200090423 -0.000346502639904 0)
(-0.00138365783381 -0.000311331732874 0)
(-0.00140430359234 -0.000268371815352 0)
(-0.00140074820333 -0.000222054880955 0)
(-0.00147411251495 -0.000198881891721 0)
(-0.0013959892825 -0.000166681158649 0)
(-0.00153179592783 -0.000128890163451 0)
(-0.00138096415988 -5.64942329356e-05 0)
(-0.0015154222255 -4.4837527306e-05 0)
(-0.00142519195413 -5.13476059236e-05 1.60487042951e-28)
(-0.00153910102887 -5.72987883219e-05 -1.75365401784e-28)
(-0.00156251186491 -0.000106882332362 0)
(-0.00170162396637 -0.000157683415034 0)
(-0.00172668913673 -0.000165500576751 0)
(-0.0017403138729 -0.000154193077513 0)
(-0.00175223343101 -0.000134277659226 0)
(-0.00176397609025 -0.000108458781084 0)
(-0.00177393356065 -7.75599207511e-05 0)
(-0.00178201723276 -4.23149225245e-05 0)
(-0.00178856036176 -7.12348721465e-06 0)
(-0.00179121023643 2.36256207952e-05 0)
(-0.0017880573463 5.01607519483e-05 0)
(-0.0017790629346 7.52928702211e-05 0)
(-0.00176486089467 0.00010133129829 0)
(-0.00174601998869 0.000129609159013 0)
(-0.00172238213667 0.000161065257478 0)
(-0.00169349575633 0.000196704314793 0)
(-0.00165908076218 0.000237598998287 0)
(-0.00161868428981 0.000284794080694 0)
(-0.00157127747128 0.00033941580262 0)
(-0.00151564070747 0.000402786730305 0)
(-0.00145035634816 0.000477013450951 0)
(-0.00137265824561 0.000567178954085 0)
(-0.00127718881115 0.000682013373501 0)
(-0.00115735647086 0.000824805896614 0)
(-0.00100989159158 0.000985892943871 0)
(-0.000836750389567 0.00114584372578 0)
(-0.000647344956069 0.00127782804671 0)
(-0.000463472369798 0.00134438969021 0)
(-0.00030790389652 0.00134087501951 0)
(-0.000150908240438 0.00135917176312 0)
(4.31961409432e-06 0.00134143769353 0)
(0.000226960773758 0.00101616186702 0)
(0.000411980898952 0.000717792280476 0)
(0.000600057834494 0.000609339920906 0)
(0.000768920147267 0.000523347721673 0)
(0.000903950569927 0.000428016589872 0)
(0.00101612720888 0.000290415441277 0)
(0.00102233501857 5.83214724674e-05 0)
(0.000916845514613 -0.000173813340097 0)
(0.0008558669038 -0.000347612330683 0)
(0.000770896857155 -0.000489311675691 0)
(0.000666746875179 -0.000618127978439 0)
(0.000539168785283 -0.000684056880822 0)
(0.000415169334348 -0.000699731999645 0)
(0.000272992353581 -0.000701391526886 0)
(0.000178135046515 -0.000861805216805 0)
(6.13848790777e-05 -0.000915220977835 0)
(-2.6756790508e-05 -0.000451130877805 0)
(-0.000130634589763 -0.000644549475481 0)
(-0.000242097560688 -0.000733428605926 0)
(-0.000134000687982 -0.000395384303547 0)
(-0.000144145718963 -0.000368920384846 0)
(-0.000375730274564 -0.000660453574006 0)
(-0.000460558585823 -0.000695839863746 0)
(-0.000523637545814 -0.00066834271886 0)
(-0.000544868432061 -0.000579840101132 0)
(-0.000605702235561 -0.000515155559294 0)
(-0.000459391565053 -0.000267688065164 0)
(-0.000531364684497 -0.00018338685193 0)
(-0.00060133497883 -0.000180051432078 0)
(-0.000651173757936 -0.000214438020412 0)
(-0.000842684583988 -0.00034161766804 0)
(-0.000993691544988 -0.000418710974003 0)
(-0.000934105514578 -0.000346249921084 0)
(-0.000983928761919 -0.000334572688268 0)
(-0.0011122947557 -0.000407623210446 0)
(-0.00118956594258 -0.000449730347099 0)
(-0.00122861884934 -0.000443461643633 0)
(-0.00127011474011 -0.000420784594804 0)
(-0.00132783489139 -0.000395860801741 0)
(-0.0013665286589 -0.000353484713169 0)
(-0.00141966787521 -0.000289126488151 0)
(-0.00137121252771 -0.000244769815586 0)
(-0.00147179777531 -0.00021236441124 0)
(-0.00142937555464 -0.00016633194011 0)
(-0.00138451295211 -0.000119309361497 0)
(-0.00141317013285 -8.72768542139e-05 0)
(-0.00156357048993 -7.65595863202e-05 0)
(-0.00149116631608 -6.18744015643e-05 0)
(-0.00148484111755 -0.000116922435409 0)
(-0.00168426640577 -0.000193643062671 0)
(-0.00170800229553 -0.000215247313283 0)
(-0.00173016673602 -0.000193518371221 0)
(-0.00174540541156 -0.000169512419906 0)
(-0.00175775641114 -0.000145752853359 0)
(-0.0017707613576 -0.000118460488467 0)
(-0.00178248963885 -8.61551768871e-05 0)
(-0.00179122990904 -4.98190250651e-05 0)
(-0.00179728085022 -1.24824029773e-05 0)
(-0.00179967584453 2.29321952682e-05 0)
(-0.00179676088878 5.56916341942e-05 0)
(-0.00178815912362 8.69759212218e-05 1.96449277208e-28)
(-0.00177437387037 0.000118487247828 -1.95816791481e-28)
(-0.00175565688647 0.000151787044763 0)
(-0.0017316368522 0.00018820913193 0)
(-0.00170195270392 0.000228918629023 0)
(-0.00166677378748 0.000275085505429 0)
(-0.00162619790664 0.000328016567927 0)
(-0.00157980426079 0.000389279360825 0)
(-0.00152670414458 0.000461055325553 0)
(-0.00146488583618 0.000547228611044 0)
(-0.00139044865105 0.000654676422348 0)
(-0.00129785812834 0.000791015421985 0)
(-0.00118173480147 0.000957061809948 0)
(-0.00103915371041 0.00114221340277 0)
(-0.000869812827841 0.00132558104079 0)
(-0.000680001960075 0.00146426731508 0)
(-0.000498042279456 0.00150671824353 0)
(-0.00035230840933 0.00149482844723 0)
(-0.000223845731889 0.00147960607237 0)
(-0.000106022979511 0.0014561031543 0)
(0.000111394777964 0.00139912707644 0)
(0.000370716379549 0.000923268878114 0)
(0.000613983732395 0.000803891664122 0)
(0.00084016344591 0.000696736266152 0)
(0.000999967642823 0.000542991542432 0)
(0.00109643120848 0.000317994108484 0)
(0.00107416145557 1.85443886564e-05 0)
(0.000998977510413 -0.000239548697192 0)
(0.00093472189461 -0.000439386943339 0)
(0.000825538023635 -0.000604747629808 0)
(0.000708563614439 -0.000737997624061 0)
(0.000569399723646 -0.0007937285196 0)
(0.000452718261368 -0.000843008875779 0)
(0.000291648474436 -0.000855004923313 0)
(0.000167277089 -0.000968906717056 0)
(5.7880986915e-05 -0.00105300065481 0)
(-3.94011419992e-05 -0.000537986506082 0)
(-0.000156938348442 -0.000761302219315 0)
(-0.000202254752316 -0.000743353376407 0)
(-0.000129261199345 -0.000433159047757 0)
(-0.000215045364875 -0.000504583596719 0)
(-0.000404141667081 -0.000768396119314 0)
(-0.000422324313745 -0.000754084060316 0)
(-0.000511548300872 -0.000724657673372 0)
(-0.00045682659713 -0.000555934612772 0)
(-0.000622280493804 -0.00057653196216 0)
(-0.000449307988054 -0.000287992402281 0)
(-0.000549780815531 -0.000250287140965 0)
(-0.000597527865685 -0.000250262820136 0)
(-0.000711588709688 -0.000342769986575 0)
(-0.000893397812509 -0.000486958109277 0)
(-0.000978372941174 -0.000477090865167 0)
(-0.000911364246399 -0.000375827634821 0)
(-0.00100506300319 -0.000418285304097 0)
(-0.00110985046814 -0.000491972295904 0)
(-0.00116831273647 -0.000508371891267 0)
(-0.00121972653299 -0.000491244745523 0)
(-0.00124672528993 -0.000459539474965 0)
(-0.00129505364438 -0.000431152068924 0)
(-0.00130477879223 -0.000383242157251 0)
(-0.00129825533685 -0.000295526836389 0)
(-0.00141243510726 -0.000265661326966 0)
(-0.00128400079135 -0.000223068649842 0)
(-0.00150857700833 -0.0001855769738 0)
(-0.00135773186973 -0.000139579637597 0)
(-0.00156141874536 -0.00013950187255 0)
(-0.00140451620352 -0.000101539883772 0)
(-0.00159836966498 -0.000108708191672 0)
(-0.00164243216545 -0.000187285491857 1.9936079285e-28)
(-0.0016951357523 -0.000253281311665 -2.11167773011e-28)
(-0.0017144827706 -0.000244118657384 0)
(-0.00173349409327 -0.000215181630087 0)
(-0.00175149783028 -0.000186232386766 0)
(-0.00176557385861 -0.000159018034129 0)
(-0.00177906555781 -0.000129924681439 0)
(-0.00179161283092 -9.60817972131e-05 0)
(-0.00180149420406 -5.77555695009e-05 0)
(-0.00180798757965 -1.74361244311e-05 0)
(-0.00181039169318 2.24714519528e-05 0)
(-0.00180773943571 6.09445946862e-05 0)
(-0.0017996482006 9.82911103299e-05 0)
(-0.00178604868487 0.000135612483455 0)
(-0.00176684967709 0.000174421235656 0)
(-0.00174177042968 0.000216209198552 0)
(-0.0017107734063 0.000262087696204 0)
(-0.00167444877532 0.000313071295321 0)
(-0.00163355318376 0.000370657102392 0)
(-0.00158843964781 0.000437140403199 0)
(-0.00153869236406 0.000516140477122 0)
(-0.00148214675823 0.000613409946831 0)
(-0.0014142508165 0.000736573065243 0)
(-0.00132922664322 0.00089203319339 0)
(-0.00122150466495 0.00107969993613 0)
(-0.00108630188006 0.00129041163789 0)
(-0.000920707650088 0.00150353428002 0)
(-0.000731826845156 0.00165565087286 0)
(-0.000562551764291 0.00166578289273 0)
(-0.00043904982042 0.00161350422641 0)
(-0.000324770339558 0.00159630470671 0)
(-0.000187409123263 0.001603908953 0)
(-2.02241510793e-05 0.00157174417271 0)
(0.000298819438462 0.00132680832344 0)
(0.000617054339893 0.000984472085473 0)
(0.000940058834247 0.000922516550508 0)