/*--------------------------------*- C++ -*----------------------------------*\
| =========                 |                                                 |
| \\      /  F ield         | OpenFOAM: The Open Source CFD Toolbox           |
|  \\    /   O peration     | Version:  v1806                                 |
|   \\  /    A nd           | Web:      www.OpenFOAM.com                      |
|    \\/     M anipulation  |                                                 |
\*---------------------------------------------------------------------------*/
FoamFile
{
    version     2.0;
    format      ascii;
    class       volScalarField;
    location    "672";
    object      pa;
}
// * * * * * * * * * * * * * * * * * * * * * * * * * * * * * * * * * * * * * //

dimensions      [0 2 -2 0 0 0 0];


internalField   nonuniform List<scalar> 
6400
(
-0.123326368561
-0.123327212495
-0.123329590737
-0.123334254697
-0.123341228987
-0.123350555211
-0.12336230563
-0.123376919558
-0.123394857572
-0.123416746397
-0.123444604106
-0.123479698477
-0.123521547107
-0.123570495565
-0.123627621767
-0.123694318849
-0.123771764089
-0.123860504233
-0.123960377568
-0.124069965436
-0.124187676407
-0.124314617447
-0.124454341213
-0.124610747182
-0.124786709421
-0.124983002553
-0.125198899766
-0.125434007219
-0.125688979305
-0.12596502036
-0.126263289169
-0.126583696726
-0.126923826565
-0.127281045333
-0.127654481014
-0.128043034355
-0.128447398987
-0.128871799452
-0.129315772751
-0.129773700479
-0.130246482726
-0.130743153129
-0.13126871691
-0.13181788306
-0.132382862144
-0.132957992812
-0.133538790269
-0.134121640227
-0.134703093227
-0.135280027558
-0.135849766221
-0.136407316316
-0.13694408498
-0.137449007126
-0.137919204071
-0.138358046531
-0.138760132476
-0.139113396743
-0.139412073124
-0.139661379455
-0.139865640767
-0.14002593851
-0.140139914291
-0.140230853392
-0.14033569243
-0.140491114903
-0.140691493696
-0.140892485434
-0.141060574786
-0.141193389337
-0.141299896114
-0.141390068552
-0.141470264386
-0.14153881597
-0.141597764742
-0.141647344123
-0.141687204896
-0.141712708633
-0.141728697742
-0.141735405664
-0.123325235345
-0.123326136622
-0.123328287472
-0.123332822429
-0.123340173348
-0.123349855678
-0.123361649299
-0.123375665932
-0.123392920383
-0.123414622933
-0.123442203371
-0.12347676755
-0.123518437334
-0.123567372384
-0.123624192565
-0.123690044552
-0.123766871722
-0.123855455961
-0.123955363224
-0.124064750926
-0.124181318056
-0.124307068969
-0.124446190443
-0.124602161884
-0.124777817359
-0.124973934277
-0.12518943903
-0.125424262958
-0.125679104748
-0.125954920846
-0.12625262266
-0.126572672611
-0.126912767822
-0.127269482783
-0.127642533231
-0.128030876952
-0.128434819941
-0.128859271948
-0.129303804111
-0.12976213392
-0.13023420125
-0.130730853069
-0.131258472999
-0.131809290848
-0.132375103119
-0.132951249954
-0.133533176981
-0.134117464787
-0.134700306494
-0.135277472681
-0.135846148812
-0.136404421357
-0.136945604729
-0.137452855525
-0.13792480168
-0.138366620234
-0.138767450013
-0.139117966702
-0.139416995159
-0.13966623945
-0.139867853554
-0.140028574575
-0.140146116655
-0.140241345595
-0.140350056008
-0.140506341033
-0.140709463293
-0.140909894186
-0.141076208858
-0.141208039997
-0.141313791064
-0.141403706572
-0.141484211204
-0.1415533276
-0.141610954844
-0.141658254512
-0.141694651251
-0.141718898112
-0.141734194003
-0.141739246034
-0.123321986783
-0.123323431376
-0.123325338067
-0.123329442525
-0.12333644619
-0.123347061954
-0.123359572568
-0.123372902811
-0.123389064882
-0.12340997876
-0.123436922717
-0.123470819975
-0.123511967031
-0.123560448286
-0.123616524413
-0.123680359568
-0.123755280042
-0.123844435385
-0.123944484536
-0.124052637891
-0.124167054218
-0.124289993247
-0.124427761871
-0.124583695926
-0.12475865328
-0.124953530919
-0.125168357585
-0.12540275608
-0.125657058434
-0.125932186859
-0.126228991321
-0.126548265841
-0.126888271944
-0.127243589918
-0.127614778292
-0.128003308171
-0.128406684011
-0.128829927034
-0.129274738227
-0.129734796881
-0.130210608723
-0.130709938908
-0.131237075242
-0.131787425445
-0.132354009275
-0.132931540028
-0.133515613312
-0.134102368051
-0.134687955488
-0.135268558136
-0.135840872821
-0.136400755352
-0.136940432585
-0.137451017891
-0.137930413754
-0.138374558687
-0.138774058703
-0.139123801792
-0.139422814926
-0.139672299543
-0.139875555326
-0.140036038746
-0.140157758862
-0.140263271526
-0.140385716272
-0.140550111743
-0.140746060275
-0.140939504418
-0.141105841267
-0.141238850372
-0.141345638537
-0.141435458325
-0.141512394406
-0.141576941584
-0.141631756836
-0.141676187659
-0.141708825669
-0.141730693741
-0.141744176968
-0.141748943651
-0.123317370545
-0.123318810459
-0.123320377072
-0.123324064348
-0.12333006115
-0.123340317089
-0.123355603675
-0.123368719709
-0.123383384527
-0.12340301913
-0.123428963651
-0.123462036874
-0.123502481617
-0.123549888102
-0.123604556121
-0.123668261288
-0.123742986926
-0.123829825338
-0.123925907679
-0.12402895653
-0.124140687307
-0.124263761026
-0.124401096321
-0.124555739336
-0.124729499595
-0.124923229778
-0.125137032035
-0.125370552523
-0.125623979647
-0.12589802113
-0.126193845012
-0.12651200703
-0.126850868137
-0.127206124399
-0.127574402418
-0.127959856339
-0.128364353212
-0.128787129317
-0.12923012811
-0.12969211356
-0.130172715679
-0.13067589892
-0.131204429712
-0.131755512322
-0.13232358335
-0.13290342449
-0.133490496471
-0.134080729328
-0.134670192941
-0.135255017241
-0.135831312409
-0.136394227681
-0.136936996984
-0.137452744495
-0.137936763324
-0.138382751783
-0.138782901734
-0.139132925262
-0.139432200307
-0.139682348773
-0.139886984004
-0.140051450983
-0.140186055659
-0.140310508008
-0.140444473039
-0.140605237485
-0.140798571875
-0.140990951033
-0.141157280076
-0.141290379992
-0.141394601846
-0.141478037902
-0.1415480838
-0.141610772948
-0.141664774013
-0.141704999374
-0.141732104409
-0.141752087215
-0.141765724038
-0.141771274043
-0.123310133235
-0.123310404985
-0.123312250822
-0.12331586384
-0.123322239907
-0.123331277493
-0.123344789427
-0.123358893823
-0.123374007947
-0.123393151681
-0.123417987796
-0.123450098273
-0.123489618285
-0.123536969389
-0.123592069324
-0.123654180045
-0.123725152891
-0.123806180563
-0.123896972869
-0.123997276635
-0.12410762217
-0.124229401533
-0.124365432408
-0.124518626595
-0.124690743446
-0.124882847339
-0.125095053103
-0.125327247348
-0.125579464558
-0.125852253856
-0.126146459496
-0.126463693879
-0.126802363988
-0.127154080581
-0.12751971668
-0.127902727004
-0.128304661146
-0.12872762132
-0.129171865566
-0.12963645227
-0.130121299145
-0.130628505559
-0.131159588123
-0.131712608875
-0.132283119613
-0.132866200397
-0.13345724017
-0.134052002207
-0.134646455149
-0.135236585977
-0.135818116931
-0.136385919367
-0.13693376326
-0.137455209954
-0.137944008286
-0.138392788789
-0.138794579936
-0.139145855917
-0.139446544462
-0.139699136584
-0.139908684362
-0.140083253811
-0.140235936813
-0.140379400338
-0.140521603785
-0.140683700917
-0.140874057642
-0.141064084019
-0.141229302603
-0.141359762708
-0.141457132441
-0.141532694923
-0.141600972802
-0.141664594612
-0.141714491256
-0.141748667147
-0.141772542713
-0.141793485161
-0.141805665939
-0.141809464176
-0.123297105406
-0.123297005634
-0.123299927783
-0.123303443746
-0.123310031012
-0.123318963077
-0.123331314644
-0.123345091298
-0.123360796329
-0.123379757213
-0.123403167666
-0.123434064457
-0.123474075668
-0.123521757392
-0.123574682967
-0.123633332067
-0.123699683888
-0.123775899041
-0.123862656781
-0.123959734379
-0.124067122754
-0.124186627576
-0.124320840562
-0.124472234119
-0.124642373852
-0.124832081631
-0.125042228741
-0.125272580608
-0.12552327766
-0.125794545474
-0.126087258057
-0.126402289175
-0.126737665649
-0.127088894892
-0.127450408651
-0.127829014548
-0.128229685748
-0.128653369282
-0.129099430924
-0.129566998844
-0.130055986525
-0.130567478566
-0.131102123529
-0.131658319434
-0.132232370319
-0.132819714583
-0.13341575439
-0.134016145045
-0.134616751614
-0.135213420222
-0.135801629591
-0.136376105486
-0.136930708819
-0.137458720824
-0.13795287688
-0.138405489717
-0.138810374486
-0.139164843109
-0.139469648541
-0.139728482525
-0.139947906631
-0.140137574098
-0.140311165146
-0.140469314494
-0.140620586637
-0.140790117033
-0.140982735699
-0.141168699301
-0.141327677133
-0.141449120522
-0.141536739207
-0.141609229679
-0.141679923866
-0.141739942046
-0.141782834005
-0.141811352384
-0.14183431946
-0.141852600131
-0.141861261548
-0.141864537181
-0.123277493591
-0.123278784506
-0.123283412667
-0.123288377688
-0.123293326585
-0.12330195294
-0.123314349941
-0.123327902374
-0.123343652968
-0.123362296037
-0.123385689133
-0.123415288632
-0.123454788209
-0.123500094634
-0.123549739334
-0.123604371028
-0.123666853987
-0.123739603103
-0.123822740688
-0.123915349292
-0.124018966276
-0.124135785063
-0.12426749928
-0.12441626173
-0.124583817469
-0.124771404142
-0.124978034257
-0.12520593815
-0.125454897979
-0.125725248999
-0.126015545603
-0.126326885982
-0.126659044589
-0.127004784859
-0.12736353732
-0.127739907336
-0.128139876707
-0.12856439676
-0.129012465653
-0.129483158342
-0.129976319775
-0.130492432434
-0.131031539998
-0.131592105769
-0.132170886942
-0.13276363285
-0.133365817812
-0.133973050118
-0.134581119839
-0.135185755946
-0.1357822568
-0.136365159336
-0.136928090825
-0.137463823447
-0.137964517795
-0.138422673096
-0.138833051506
-0.139193970835
-0.139507138561
-0.139777111522
-0.1400114053
-0.14022016667
-0.140411540548
-0.140585359111
-0.140755511371
-0.140935190211
-0.141128831119
-0.141306090966
-0.141451611
-0.141560399328
-0.141642433212
-0.141717181628
-0.141786104609
-0.141837924026
-0.141872903713
-0.141896493417
-0.141916726545
-0.141928216947
-0.141930705675
-0.141932217121
-0.123254698049
-0.123257272751
-0.123262310179
-0.123269059134
-0.12327380605
-0.123282578478
-0.123293859397
-0.123307166076
-0.12332299604
-0.123339655
-0.123363488172
-0.123393578811
-0.123430327425
-0.123472244398
-0.123518101692
-0.123568538295
-0.123627901657
-0.123697486842
-0.123775979091
-0.123863789583
-0.123963244313
-0.124076573907
-0.124205105411
-0.124351119183
-0.124515831588
-0.124699853408
-0.124903934764
-0.125126409692
-0.125373996017
-0.125643691473
-0.125930970629
-0.126235594128
-0.126562677916
-0.126903984297
-0.12725909257
-0.127634937812
-0.128035016594
-0.128460332978
-0.128910347559
-0.129384238984
-0.129881715706
-0.13040285606
-0.130947278744
-0.131513376307
-0.132098136751
-0.132697541638
-0.13330716723
-0.133922629683
-0.134539674848
-0.135153930789
-0.1357605172
-0.136353702191
-0.136926705841
-0.137471804447
-0.137980984997
-0.138447368761
-0.138866843808
-0.139238543183
-0.139564464406
-0.139849269493
-0.140100682934
-0.140327995242
-0.140538283069
-0.140737198211
-0.140927637868
-0.141121722375
-0.141311768293
-0.141477628368
-0.141608211182
-0.141706069635
-0.141785389295
-0.141858850642
-0.141919132676
-0.141960946912
-0.141987339782
-0.142004884132
-0.142015126494
-0.142016102491
-0.142009378009
-0.142005578212
-0.123229991974
-0.123233224258
-0.123237943764
-0.123242851281
-0.123248750266
-0.123259046326
-0.123269435252
-0.123282046455
-0.123298458991
-0.123314830253
-0.123335352636
-0.123365186604
-0.12340011538
-0.123438057901
-0.123480189477
-0.123527930426
-0.123583309278
-0.123648332445
-0.123721955401
-0.123805185824
-0.12390016625
-0.124008999547
-0.124132959466
-0.124274938769
-0.124437945288
-0.124617002943
-0.124817496393
-0.125038258293
-0.125280278712
-0.12554557407
-0.125830119496
-0.126132904907
-0.126449582406
-0.126784501827
-0.127138224281
-0.127513953834
-0.127914289811
-0.128340410731
-0.128792309773
-0.129269446637
-0.129771450787
-0.130298090355
-0.130848664468
-0.131421442849
-0.132013494624
-0.132620950037
-0.133239501097
-0.133864813502
-0.13449260963
-0.135118415843
-0.135737159278
-0.136342779695
-0.136928049248
-0.137484887458
-0.138005489309
-0.138483871825
-0.138916938295
-0.139303584056
-0.139644983019
-0.139946094243
-0.140215868897
-0.140463857316
-0.14069736497
-0.140921754573
-0.141136100073
-0.141348583755
-0.14154603565
-0.141695298099
-0.141809550559
-0.141896440191
-0.14196931519
-0.142032222278
-0.142080366448
-0.142111802133
-0.1421285921
-0.142134340673
-0.142127342878
-0.142111827102
-0.142092934253
-0.142081274424
-0.123203226656
-0.123206743199
-0.123211846607
-0.123215684813
-0.123221686057
-0.123231154576
-0.1232408233
-0.123252133513
-0.123266667846
-0.123285389751
-0.123304111652
-0.123331211662
-0.123363649166
-0.123398170749
-0.123435988999
-0.123481039038
-0.123533224835
-0.123592817043
-0.123660714895
-0.123738958803
-0.123829458542
-0.123933696114
-0.124052558056
-0.124188031544
-0.124347661635
-0.124524843101
-0.124716357433
-0.124934151403
-0.125171497812
-0.125433361549
-0.125713454701
-0.126010031156
-0.126321342341
-0.126649721679
-0.12700085658
-0.127376191191
-0.127776781787
-0.128203721617
-0.128657461223
-0.129137862525
-0.129644623138
-0.130177287433
-0.130734871106
-0.131315491103
-0.131916221524
-0.13253328285
-0.133162476602
-0.133799544078
-0.134440197396
-0.135079861476
-0.1357132607
-0.136334013749
-0.13693449012
-0.137506454164
-0.138042523227
-0.138537587292
-0.138988929376
-0.139392761085
-0.139749360425
-0.140067948203
-0.140361381976
-0.140636318314
-0.140895183901
-0.141143679873
-0.141382397623
-0.141609989349
-0.141812272643
-0.141973295822
-0.142069641928
-0.142139398879
-0.142193739296
-0.142235157947
-0.142271596838
-0.142294493355
-0.142300387762
-0.142287039085
-0.142255595643
-0.14221577584
-0.142179900116
-0.142158120677
-0.123173366067
-0.123176492066
-0.123181510498
-0.123185665709
-0.12319294429
-0.123199920492
-0.123208294719
-0.123218431225
-0.123228874752
-0.12324727727
-0.123266245431
-0.123290727031
-0.123320288449
-0.123352334114
-0.123386697327
-0.123427437436
-0.123475614814
-0.123530074255
-0.123592167574
-0.123664474788
-0.123749661166
-0.123849467784
-0.123964904585
-0.124093414767
-0.124243426016
-0.124419271797
-0.12460677628
-0.124816776268
-0.125048458045
-0.125299563258
-0.12557668712
-0.125868602108
-0.126174258399
-0.126498214217
-0.126846705433
-0.127220981036
-0.127621517406
-0.12804922429
-0.128504784371
-0.128988449021
-0.129500164436
-0.130039391574
-0.130604875946
-0.131194542639
-0.131805432248
-0.132433839406
-0.133075676156
-0.133726757307
-0.134382789177
-0.135039109393
-0.13569029415
-0.136329707936
-0.13694944941
-0.137541243931
-0.138098049928
-0.138614786881
-0.139088301637
-0.139508045328
-0.139877068625
-0.140218001515
-0.140549657972
-0.140863062598
-0.141144578977
-0.141412884079
-0.141668677695
-0.141906781472
-0.142116368393
-0.142296882755
-0.142395978875
-0.142446447466
-0.14246112032
-0.142463183733
-0.142494654196
-0.142515114638
-0.142509823502
-0.142471441309
-0.142405591123
-0.142328873436
-0.142265646015
-0.142228060339
-0.123139819937
-0.123141918054
-0.123144907892
-0.12315030853
-0.123158768065
-0.123164323038
-0.123171480156
-0.123180960811
-0.123188709691
-0.123203240021
-0.123221450298
-0.123243510521
-0.12326968025
-0.123299220186
-0.123332018338
-0.123368273494
-0.12341106439
-0.123459917375
-0.123516167689
-0.123581941478
-0.123659993232
-0.123753226439
-0.123866299618
-0.123992538254
-0.124131304588
-0.124298516998
-0.124482971113
-0.12468254826
-0.124910801641
-0.125156437532
-0.125421931921
-0.12570562488
-0.126006354783
-0.126328269239
-0.12667454892
-0.127047253857
-0.127447327772
-0.127875675332
-0.128333083896
-0.128820038217
-0.129336840238
-0.129883122113
-0.130457427569
-0.131057408133
-0.131680046741
-0.132321747669
-0.132978549476
-0.133646322268
-0.134320750316
-0.134997153884
-0.135670091964
-0.136332883312
-0.136977583337
-0.137595758862
-0.138179675693
-0.138721660614
-0.139221616862
-0.139653664167
-0.140028814947
-0.140401173277
-0.140804133598
-0.141174904131
-0.141463509642
-0.141744128936
-0.142014492457
-0.142266271781
-0.142482761713
-0.142655767871
-0.142782267078
-0.142813299874
-0.142769496277
-0.142694997622
-0.142755127195
-0.142790096255
-0.142776459329
-0.142704676044
-0.142586231889
-0.142445283387
-0.142336187452
-0.14226961071
-0.123102714543
-0.123103861897
-0.123104293973
-0.123109893404
-0.123116985747
-0.123122670862
-0.123129086143
-0.123137542688
-0.123144507479
-0.123155650215
-0.123171037505
-0.123189902326
-0.123212154468
-0.123237494097
-0.123268167556
-0.123301331799
-0.123339024743
-0.123382062854
-0.123432278093
-0.123491428832
-0.123561532864
-0.123645583516
-0.123751545732
-0.123878010063
-0.124010728773
-0.124163996716
-0.124344066393
-0.124535982516
-0.124750851163
-0.124990504158
-0.125248968503
-0.12552549792
-0.125820049603
-0.126138618557
-0.126482599979
-0.126853564153
-0.127252825695
-0.127681526522
-0.128140784971
-0.128631232589
-0.129153318332
-0.129707029374
-0.130290996404
-0.130902612636
-0.131538724668
-0.132195889479
-0.132870331542
-0.133557933636
-0.134254335736
-0.13495494927
-0.13565465368
-0.136347213639
-0.137024977099
-0.137678613367
-0.138296695403
-0.138861350412
-0.139403414684
-0.139845588288
-0.14020259505
-0.140614066306
-0.14118531951
-0.141735593976
-0.141944494082
-0.142233542923
-0.142528202031
-0.142810083724
-0.143040545682
-0.14317300955
-0.143290365546
-0.143394461066
-0.143266414048
-0.142862111521
-0.143023424029
-0.143110592018
-0.143106478712
-0.142995753493
-0.142797961699
-0.142546094979
-0.142369952069
-0.142248692542
-0.123062787476
-0.123063811292
-0.123064730183
-0.123067034506
-0.123071194125
-0.123076243365
-0.123081784218
-0.123088139079
-0.123095233525
-0.123103278014
-0.123115195204
-0.123130350488
-0.1231484357
-0.12316901747
-0.123194362766
-0.123224294926
-0.123257950563
-0.123295698503
-0.123339759661
-0.123392103509
-0.123454378205
-0.123528707241
-0.123623813083
-0.123745791746
-0.123877175985
-0.12401763727
-0.124188119115
-0.124375444477
-0.12457643822
-0.124804057204
-0.125052989177
-0.12532208062
-0.125613103441
-0.125928277996
-0.126269370522
-0.126638182339
-0.127036411073
-0.127465257236
-0.127926076665
-0.128420089007
-0.128947875213
-0.129509510432
-0.130103879389
-0.130728372788
-0.131379759561
-0.132054794595
-0.132749929257
-0.133460981125
-0.134183429617
-0.134913020824
-0.135645667901
-0.136376590102
-0.137099148901
-0.137801953277
-0.138462169144
-0.139027631952
-0.139686883656
-0.140177551477
-0.140377193022
-0.140769861937
-0.141648466315
-0.141585322667
-0.141534826877
-0.141625261815
-0.141737642471
-0.141871275941
-0.14201320949
-0.142165146037
-0.142243367435
-0.142115310023
-0.14194758186
-0.142397261738
-0.143592314513
-0.143902888812
-0.143861589986
-0.14362081921
-0.143233535827
-0.142612596506
-0.142332406015
-0.14209816924
-0.123019502859
-0.123020527001
-0.12302258563
-0.12302141968
-0.123022746392
-0.123026266987
-0.123030431808
-0.123035011408
-0.12304216623
-0.123046231773
-0.123054127708
-0.123065270906
-0.123079111156
-0.12309525408
-0.12311476954
-0.123139561888
-0.12316830779
-0.123200582514
-0.123238234277
-0.123283299505
-0.123337623284
-0.123402823626
-0.123485207984
-0.123596849031
-0.123727095882
-0.123858733115
-0.124013206353
-0.124196205436
-0.124391326887
-0.124601943906
-0.124838322203
-0.125098936789
-0.125384366652
-0.125695350356
-0.126033058408
-0.126399304536
-0.126795994745
-0.12722482264
-0.12768717183
-0.128184576611
-0.128718270152
-0.129288472677
-0.129894101835
-0.130532639754
-0.131201046687
-0.13189651607
-0.132615785582
-0.133354348908
-0.134107236784
-0.134870785875
-0.135643438661
-0.136423865
-0.137208386501
-0.137981214138
-0.138691020223
-0.139133415654
-0.140180323316
-0.140164889375
-0.140103525254
-0.140147746723
-0.140440716668
-0.140750729602
-0.140712323571
-0.140530584583
-0.140260322111
-0.139961331095
-0.139685128089
-0.139500288469
-0.139392954129
-0.139289514267
-0.139216153704
-0.13935764451
-0.140040169037
-0.140863822674
-0.141572165155
-0.14194323304
-0.142011875913
-0.142301115914
-0.142339383603
-0.141747284776
-0.12297252475
-0.122973025031
-0.122973702108
-0.122971565408
-0.122970881752
-0.122972762795
-0.122974855364
-0.122976749739
-0.122982668914
-0.122983743939
-0.122987714344
-0.122994787997
-0.12300444451
-0.123016344267
-0.123030046176
-0.123048473919
-0.123071108372
-0.123097146387
-0.123127794141
-0.123164977724
-0.123210606875
-0.12326654962
-0.123337052886
-0.123434734358
-0.123558099358
-0.123686782529
-0.123823534287
-0.123989962154
-0.124179601799
-0.124382047183
-0.124605463429
-0.124855500103
-0.12513329462
-0.125438672391
-0.12577210752
-0.126135004764
-0.126529608678
-0.126957874728
-0.127421617543
-0.127922443592
-0.128462078624
-0.129041339594
-0.129659237654
-0.130313061032
-0.131000019033
-0.1317183963
-0.132465689866
-0.133236429914
-0.134023932956
-0.13482540966
-0.135645073913
-0.136488860526
-0.137361412412
-0.13825830851
-0.139163636991
-0.139255325623
-0.139449896162
-0.139715064003
-0.139674806584
-0.139538515493
-0.139464487673
-0.139437493666
-0.139122228494
-0.138574907327
-0.137862064264
-0.137087838777
-0.136340290855
-0.135704273144
-0.135202989507
-0.134795294809
-0.134443366452
-0.134378980522
-0.134976974525
-0.13612855593
-0.137556411429
-0.138931054682
-0.139966725005
-0.14041227384
-0.140471045925
-0.140371185633
-0.122922693776
-0.122922631343
-0.122922313372
-0.122918730706
-0.122916616081
-0.12291641739
-0.122915908986
-0.122914059397
-0.122916021352
-0.122915248624
-0.122915691834
-0.122918660534
-0.122924181874
-0.122932194111
-0.122939418218
-0.122950956532
-0.122966684863
-0.122985738087
-0.123008590543
-0.12303716703
-0.123073246282
-0.123118917518
-0.123177656191
-0.123259916274
-0.123370299072
-0.123496461379
-0.123621543787
-0.123768250338
-0.123941326529
-0.124134501033
-0.124347818023
-0.124588457363
-0.124857649081
-0.125156086102
-0.125484336884
-0.125843296796
-0.126234995413
-0.126662109701
-0.127126757961
-0.127630897712
-0.128176560204
-0.128765124306
-0.129396139884
-0.130066665857
-0.130773766926
-0.131517560055
-0.132297159624
-0.133104862164
-0.133930151548
-0.134770644779
-0.135641298572
-0.136557664504
-0.137528959403
-0.13862312737
-0.138766935039
-0.138955444245
-0.139096044952
-0.139201660865
-0.139072615413
-0.138760004023
-0.138333027618
-0.137786179313
-0.137032462354
-0.136125514095
-0.135104722377
-0.134045197003
-0.133005940092
-0.132027248742
-0.131111409001
-0.13025990913
-0.129519097959
-0.129034787591
-0.129089475395
-0.12983796634
-0.131277539158
-0.133242787397
-0.13526804841
-0.136699548959
-0.137991370196
-0.140499240162
-0.122871206164
-0.122870394281
-0.122867931635
-0.122863437579
-0.122860597627
-0.122858124769
-0.122854920444
-0.122849621325
-0.122847073082
-0.122842441313
-0.122838561487
-0.122836773254
-0.122837394464
-0.122841129148
-0.122841711342
-0.122846106005
-0.122854408937
-0.122866052225
-0.122880416752
-0.122899660215
-0.12292533225
-0.1229596405
-0.123005870047
-0.123072123471
-0.123165556687
-0.123282490388
-0.123404001859
-0.123534615453
-0.123688235577
-0.123865044827
-0.124065607874
-0.124295288868
-0.12455441248
-0.124844613629
-0.125166745713
-0.125520947687
-0.125909332346
-0.12633464709
-0.126799754678
-0.127306815209
-0.127858273207
-0.128456455756
-0.129101530413
-0.129790434659
-0.13051855018
-0.131287677805
-0.132103055448
-0.132955882079
-0.13382351372
-0.134697405551
-0.135615972702
-0.136605752574
-0.137700488229
-0.137859447596
-0.138152203548
-0.138571620518
-0.138699751017
-0.13851719954
-0.138064735327
-0.137395626908
-0.136534535159
-0.135481004524
-0.134250877423
-0.132910249239
-0.131494291359
-0.130052120424
-0.128624209546
-0.127237641955
-0.125900233977
-0.124646732158
-0.123584085806
-0.122809021791
-0.122498736432
-0.122856706725
-0.124049490046
-0.126123760071
-0.128613116733
-0.13056639796
-0.133436893483
-0.143929889642
-0.122819169308
-0.122817578839
-0.122812849844
-0.122807645242
-0.122803661146
-0.122798586982
-0.122792300258
-0.122784065479
-0.122776215451
-0.122766388116
-0.122757072738
-0.122749565686
-0.122743997896
-0.122740883435
-0.122735642496
-0.122732943701
-0.122733295725
-0.122736700863
-0.122742328132
-0.122751815979
-0.122766407409
-0.122788193203
-0.122820994039
-0.122870545917
-0.122944237117
-0.123044341359
-0.123159279927
-0.123278408224
-0.123414578823
-0.123574485726
-0.123758850821
-0.12397428869
-0.12422194675
-0.124501721338
-0.12481619299
-0.125164678598
-0.12554871047
-0.125971652912
-0.126436759595
-0.126946707108
-0.127503877585
-0.128111291728
-0.128770268769
-0.129478557478
-0.130231669358
-0.131031931306
-0.131886062989
-0.132781517148
-0.133694067452
-0.134586959404
-0.135541024354
-0.136600046302
-0.136727342849
-0.137019792521
-0.137726245371
-0.138080315945
-0.137923575242
-0.137361835583
-0.136471039639
-0.135325948001
-0.1339620618
-0.132401268233
-0.130682569219
-0.128859706353
-0.126963681527
-0.125028145291
-0.123080432095
-0.121137050334
-0.119202380135
-0.117310899804
-0.115577923546
-0.114155334399
-0.113131013667
-0.112660011716
-0.112954359893
-0.114255620971
-0.116313453794
-0.117634774967
-0.117675548903
-0.121885355198
-0.12276767399
-0.122765431929
-0.122759188826
-0.122753084192
-0.122746841106
-0.122738537429
-0.122728179084
-0.122716822545
-0.122703224987
-0.122687436423
-0.122671927585
-0.12265791761
-0.122645415204
-0.122633762645
-0.122621869067
-0.122611646746
-0.122603413365
-0.122597289588
-0.122593382982
-0.122592680374
-0.122595748845
-0.122604020079
-0.122622290826
-0.122654497139
-0.122707308602
-0.122785689331
-0.122884162545
-0.122992334651
-0.123113059783
-0.123255949005
-0.123424600604
-0.12362215926
-0.123854786415
-0.124122621847
-0.124428489842
-0.124770659299
-0.125149436585
-0.125568938207
-0.126033086408
-0.126545318044
-0.127108330391
-0.127725190949
-0.128399093537
-0.129129488136
-0.129912038527
-0.130745462638
-0.131638321902
-0.132587286557
-0.133571919463
-0.134429741538
-0.135390395571
-0.135542691492
-0.135779350147
-0.136625445565
-0.137302623118
-0.137265101457
-0.136648424844
-0.135595424091
-0.134186218255
-0.132495030065
-0.130568745335
-0.128444106767
-0.126158412906
-0.123744248038
-0.121219710464
-0.11860320968
-0.11591029301
-0.113150863716
-0.110329018904
-0.107472109271
-0.104676753674
-0.102091198552
-0.0997204754337
-0.0975328675108
-0.0956566947211
-0.0944897285904
-0.0938936413493
-0.0900495550809
-0.074883158906
-0.0562372883894
-0.122716837648
-0.122714012889
-0.122706737315
-0.122699489678
-0.122690515672
-0.122678498777
-0.122663708199
-0.122648403824
-0.122628209972
-0.122606012492
-0.122583755362
-0.122562637623
-0.122542719063
-0.122522555541
-0.122501964323
-0.122483126282
-0.122465513764
-0.122448776948
-0.122433632977
-0.122421616098
-0.122412403918
-0.122406234428
-0.122408426076
-0.122422539244
-0.122453954638
-0.122508444566
-0.122586173549
-0.122680092661
-0.122789606053
-0.122912240684
-0.123061293401
-0.123240436471
-0.123454899242
-0.123704756854
-0.123997181238
-0.12433278238
-0.124706386695
-0.125122114972
-0.125584119727
-0.126097194019
-0.126665622045
-0.12729292669
-0.127983457971
-0.128736690823
-0.129544771461
-0.130407848286
-0.131345547032
-0.132377197063
-0.133532713716
-0.13419869821
-0.134447788393
-0.134633565623
-0.135443080088
-0.136341209919
-0.136552768255
-0.135960895286
-0.134775443508
-0.13313563412
-0.131129244589
-0.128824763371
-0.126269505397
-0.123500755749
-0.1205483926
-0.117432482673
-0.114164923713
-0.110758392917
-0.107224579905
-0.103570522713
-0.0997951040593
-0.0959003494796
-0.0919156429532
-0.087888408444
-0.0837518316276
-0.0792089551736
-0.0741752294763
-0.0690009762616
-0.0630576591511
-0.0494620160262
-0.0123572122527
0.0420920655305
-0.122666614936
-0.122663141466
-0.122655036356
-0.122646371559
-0.122634373657
-0.122618422668
-0.12259946973
-0.122578929006
-0.122551694784
-0.122522838723
-0.122493155686
-0.122464139452
-0.122436048339
-0.122406737372
-0.12237625611
-0.122347632565
-0.12231993563
-0.122291260228
-0.122263272764
-0.122238344907
-0.122215350144
-0.122193685069
-0.122177857919
-0.122172885015
-0.122182411038
-0.122211556356
-0.122264931309
-0.122337730184
-0.122432884727
-0.122540035055
-0.12266701388
-0.122821932414
-0.123016192337
-0.123250431984
-0.123523861796
-0.12384571334
-0.124212520644
-0.124623780613
-0.125083900221
-0.125597116173
-0.126169476838
-0.126807896892
-0.127516461953
-0.128290401951
-0.129116611484
-0.12999963842
-0.130988265921
-0.132182673334
-0.13430806801
-0.133645514906
-0.133756663543
-0.134321852839
-0.135306465675
-0.135728195683
-0.135289123605
-0.134046202707
-0.132211502772
-0.129916278536
-0.127251652138
-0.124283474151
-0.121059463768
-0.117617525472
-0.11398821304
-0.110194652466
-0.106254674302
-0.102182544681
-0.0979838196367
-0.0936487379323
-0.0891463680557
-0.0844229651027
-0.0793998713874
-0.0739649476598
-0.0679427065279
-0.0609327184829
-0.0526721156714
-0.0432837629605
-0.030986491868
-0.00621595324371
0.0479135305814
0.116875704832
-0.122616434941
-0.122612316646
-0.122603360343
-0.122592903096
-0.122577369344
-0.122557630026
-0.122534426788
-0.122507568366
-0.122473631065
-0.122438284692
-0.122400528205
-0.122362801201
-0.122325619178
-0.122286202752
-0.122244701743
-0.122204872769
-0.122166111016
-0.122123933673
-0.122081914998
-0.122042488376
-0.122003295478
-0.121965345299
-0.121930032887
-0.121904007462
-0.121891046691
-0.121894212105
-0.121920395588
-0.121966929651
-0.12203821935
-0.122130107126
-0.12223909898
-0.122369266675
-0.122534171632
-0.122746167248
-0.123003968772
-0.123308767403
-0.123663767955
-0.124067465374
-0.124523546944
-0.125036890393
-0.125613771415
-0.126262841323
-0.12698794391
-0.127778386793
-0.128616982062
-0.129496727612
-0.130419797211
-0.131313980809
-0.1321193797
-0.132688001938
-0.132803333017
-0.134174172598
-0.134801771619
-0.134573083834
-0.13340078616
-0.131443127062
-0.128907418602
-0.125921079484
-0.122577970119
-0.118947362858
-0.115083771794
-0.111032221152
-0.106829893675
-0.10250469143
-0.0980732191299
-0.0935363410446
-0.0888718310978
-0.08402900475
-0.0789277119866
-0.0734557516644
-0.0674460326463