/*--------------------------------*- C++ -*----------------------------------*\
| =========                 |                                                 |
| \\      /  F ield         | OpenFOAM: The Open Source CFD Toolbox           |
|  \\    /   O peration     | Version:  v1806                                 |
|   \\  /    A nd           | Web:      www.OpenFOAM.com                      |
|    \\/     M anipulation  |                                                 |
\*---------------------------------------------------------------------------*/
FoamFile
{
    version     2.0;
    format      ascii;
    class       volVectorField;
    location    "409";
    object      U;
}
// * * * * * * * * * * * * * * * * * * * * * * * * * * * * * * * * * * * * * //

dimensions      [0 1 -1 0 0 0 0];


internalField   nonuniform List<vector> 
6400
(
(-8.77650874748e-05 -0.000117353208736 0)
(-0.000238673732713 -8.97549553017e-05 0)
(-0.000349135379702 -7.28838144333e-05 0)
(-0.000473148694678 -6.4456153396e-05 0)
(-0.000561770027441 -3.90259536919e-05 0)
(-0.000624128879174 -1.88084227836e-05 0)
(-0.000652212460688 -1.14215553274e-05 0)
(-0.000672633942488 -2.20213560536e-05 0)
(-0.000751739951872 -3.4218520771e-05 0)
(-0.000832217712336 -3.19182369885e-05 0)
(-0.000857978832209 -2.8315503013e-05 0)
(-0.000931850225907 -3.14418221082e-05 0)
(-0.000996378119444 -2.80547093952e-05 0)
(-0.00104726978894 -2.15542507376e-05 0)
(-0.00108149331054 -1.83909570504e-05 0)
(-0.00111806397996 -2.1514632533e-05 0)
(-0.00116695195984 -2.22839944991e-05 0)
(-0.00120669161612 -1.8383536099e-05 0)
(-0.00123156805851 -1.24585349226e-05 0)
(-0.00125182762184 -8.98560268243e-06 0)
(-0.0012812477623 -1.45035503739e-05 0)
(-0.00132238174505 -2.12667944147e-05 0)
(-0.00136881948799 -2.31081414958e-05 0)
(-0.00141061519658 -2.27991274542e-05 0)
(-0.00144994039262 -2.05785320101e-05 0)
(-0.00148666852094 -1.74580641552e-05 0)
(-0.00152315744444 -1.62104664422e-05 0)
(-0.00155580685966 -1.43086432883e-05 0)
(-0.00158143729471 -1.14250360091e-05 0)
(-0.00160098486848 -9.10841447414e-06 0)
(-0.00161465880278 -8.70661506831e-06 0)
(-0.00162979988202 -7.57565160365e-06 0)
(-0.00164466826531 -4.98815230124e-06 0)
(-0.00165405060073 -4.64999601733e-06 0)
(-0.00166116078745 -4.00317476315e-06 0)
(-0.00167474700917 -3.34278756543e-06 0)
(-0.00168529805234 -4.09377242091e-06 0)
(-0.00167885084189 -3.15567619108e-06 0)
(-0.00168598863139 -1.0066355171e-06 0)
(-0.00170084752647 -8.4573453035e-07 0)
(-0.0017087522875 -6.11732479706e-06 0)
(-0.00170765355894 -6.82571520081e-06 0)
(-0.00170393028077 2.01539036185e-06 0)
(-0.00169530854937 8.03506813512e-06 0)
(-0.00167911895228 1.06382716685e-05 0)
(-0.0016580942018 1.35224391075e-05 0)
(-0.00163145605573 1.63325537051e-05 0)
(-0.00159774024761 1.98896458002e-05 0)
(-0.00155725873154 2.3077656309e-05 0)
(-0.00151048014687 2.26038555356e-05 0)
(-0.00146238325285 1.88422360712e-05 0)
(-0.00142507053956 2.21993838164e-05 0)
(-0.00136538782367 3.9425853545e-05 0)
(-0.00129161774508 4.85555306079e-05 0)
(-0.00119433125118 5.54517001276e-05 0)
(-0.00105927569836 6.66184130848e-05 0)
(-0.000919564185988 6.53598477123e-05 0)
(-0.000796155072209 6.32192457533e-05 0)
(-0.000669947966076 7.26908889353e-05 0)
(-0.000496110474786 7.79187968564e-05 0)
(-0.00032584863059 8.09798137319e-05 0)
(-0.000146702450095 9.77903024436e-05 0)
(9.07134728348e-05 0.000123964374069 0)
(0.000318177791888 8.20899748081e-05 0)
(0.000409262510109 4.33012824246e-05 0)
(0.000462172073373 2.74434336033e-05 0)
(0.000500832357887 1.61010134372e-05 0)
(0.000534192113559 9.1200685501e-06 0)
(0.000560002007375 3.6588838624e-06 0)
(0.000564244650964 -2.90173584153e-06 0)
(0.000555484521406 -9.40019873233e-06 0)
(0.000523470062685 -1.55924869466e-05 0)
(0.000476995560555 -2.27801940268e-05 0)
(0.00044518648264 -3.25953872549e-05 0)
(0.000351636829033 -3.04645021172e-05 0)
(0.00031901714289 -3.01622837926e-05 0)
(0.000218276034465 -2.00181768181e-05 0)
(0.00023050429081 -3.09528698102e-05 0)
(0.00010128377402 -2.35885696569e-05 0)
(7.57666418082e-05 -4.52354965502e-05 0)
(-3.25063077865e-05 -0.000162554847647 0)
(-0.000139037829272 -0.000183295836777 0)
(-0.000243130119533 -0.00016741670056 0)
(-0.00030904660388 -0.000133649545944 0)
(-0.000452477084092 -0.000131413629862 0)
(-0.000588304846045 -9.24385394513e-05 0)
(-0.000667214253919 -5.59484542674e-05 0)
(-0.000718933267322 -7.42442484575e-05 0)
(-0.000773588306276 -9.87123449337e-05 0)
(-0.000835480447806 -9.60262495807e-05 0)
(-0.00089417990865 -8.94796682024e-05 0)
(-0.000947509865068 -8.80744480938e-05 0)
(-0.000996719237455 -7.77128945536e-05 0)
(-0.00104058422305 -6.38314170525e-05 0)
(-0.00108412281607 -5.72501812275e-05 0)
(-0.00112598360278 -6.96404572554e-05 0)
(-0.00116861845844 -7.31601647724e-05 0)
(-0.00120057505547 -4.66047319006e-05 0)
(-0.00118786395146 -2.7565033167e-05 0)
(-0.00121656701601 -2.75398286095e-05 0)
(-0.00125917094009 -4.63648174069e-05 0)
(-0.00131004359811 -7.08326453827e-05 0)
(-0.00137012387713 -7.60780234601e-05 0)
(-0.00141888626255 -6.63529908195e-05 0)
(-0.00144228847456 -5.8812425385e-05 0)
(-0.00148756020203 -5.52024313269e-05 0)
(-0.00152766773589 -4.95785154942e-05 0)
(-0.0015567707819 -4.17666708482e-05 0)
(-0.00158055399658 -3.39944702856e-05 0)
(-0.00160102216318 -2.76647016187e-05 0)
(-0.00161765101105 -2.46300087652e-05 0)
(-0.00162283144627 -2.05571064283e-05 0)
(-0.00163709275217 -1.25449326385e-05 0)
(-0.00164410163558 -1.29535533527e-05 0)
(-0.00164636199489 -1.51491257933e-05 0)
(-0.00167200268466 -9.74070988739e-06 0)
(-0.00167492183851 -1.0881935518e-05 0)
(-0.00166977298018 -1.33187983695e-05 0)
(-0.00168511480249 -9.58112158859e-06 0)
(-0.00171410582376 -3.92091822625e-06 0)
(-0.00172479696178 4.75689377402e-06 0)
(-0.00164617679075 1.23693662937e-05 0)
(-0.00160845424032 1.65126510361e-05 0)
(-0.00160655723923 1.96989802918e-05 0)
(-0.00159542389515 2.35415329259e-05 0)
(-0.001587437431 2.92003655197e-05 0)
(-0.00157826544896 3.72451897992e-05 0)
(-0.00155732326993 4.69651044896e-05 0)
(-0.00153729052394 5.78262609339e-05 0)
(-0.00150554997969 6.78490914896e-05 0)
(-0.00144994563738 7.46241063527e-05 0)
(-0.00136039519508 8.08833462334e-05 0)
(-0.00127518008251 9.20584061254e-05 0)
(-0.00129178163715 0.000122588623877 0)
(-0.00118193849852 0.000156021545326 0)
(-0.0010720382531 0.000179870258025 0)
(-0.000988743628355 0.000194184627623 0)
(-0.000861441151809 0.000206546274943 0)
(-0.000710976638482 0.000232600636919 0)
(-0.000546803699316 0.000265301560135 0)
(-0.000361645052608 0.000299105628805 0)
(-0.000125958763338 0.000288679444765 0)
(0.000106568180152 0.000358908371188 0)
(0.000317111825339 0.00025364629688 0)
(0.000412836095293 0.00013592015879 0)
(0.000443658162409 7.01560218243e-05 0)
(0.000470877112564 4.64487250663e-05 0)
(0.000526526299191 3.54814904418e-05 0)
(0.00055465744283 1.62626955977e-05 0)
(0.000568305657421 -8.27495193452e-06 0)
(0.000552032490812 -3.34802674208e-05 0)
(0.000514318091598 -5.41390743382e-05 0)
(0.000455700972124 -6.33649702018e-05 0)
(0.000434899176555 -7.71754157098e-05 0)
(0.000390639435852 -8.4087920945e-05 0)
(0.000344864198118 -8.65306021009e-05 0)
(0.000291068612255 -8.08276195768e-05 0)
(0.000236037506808 -9.3432058315e-05 0)
(0.000148501934906 -0.000106868433282 0)
(6.92541748221e-05 -0.000179295764929 0)
(-4.93818745476e-05 -0.00028086269204 0)
(-0.000135623211516 -0.00030753604919 0)
(-0.000208672717529 -0.000286877548116 -9.79038252477e-29)
(-0.000359761315639 -0.000293464975094 9.28936761424e-29)
(-0.00050231127771 -0.000291645383635 8.37507583018e-29)
(-0.00058749919049 -0.000233605547589 -7.69315453027e-29)
(-0.000645757591909 -0.000120445932186 7.79447645971e-29)
(-0.000699965551333 -0.000129167346506 -7.68198405144e-29)
(-0.0007578129665 -0.000159117280766 0)
(-0.000824167753994 -0.000162258594804 0)
(-0.000889212236663 -0.000151627140631 0)
(-0.000945326667975 -0.000138252383517 0)
(-0.000994668532237 -0.000121533428033 0)
(-0.00103712167221 -0.000109074133486 0)
(-0.00107985270785 -0.000100345081894 0)
(-0.00112052432718 -8.4055081329e-05 0)
(-0.00101185329535 -5.58013130439e-05 0)
(-0.000978738521836 -3.91170054436e-05 0)
(-0.00101080062589 -4.90421788413e-05 0)
(-0.00108352957201 -8.63855474247e-05 0)
(-0.00124577192728 -0.000126829866001 0)
(-0.00133184797187 -0.000136903384698 0)
(-0.00135594423861 -0.00012522707005 0)
(-0.00140554793317 -0.000110855158937 0)
(-0.00145627610866 -0.000100832300444 0)
(-0.00149255571473 -9.2927864327e-05 0)
(-0.00152417340349 -8.08679533059e-05 0)
(-0.00155367518041 -6.78111362647e-05 0)
(-0.00157814859897 -5.59570764995e-05 0)
(-0.00159615426273 -4.64409967502e-05 -1.56954113106e-28)
(-0.00161649233772 -3.77183140606e-05 1.52303379299e-28)
(-0.00161372984412 -3.01616745008e-05 0)
(-0.00162300450234 -2.09868642174e-05 0)
(-0.00165108726862 -1.29932460058e-05 0)
(-0.00161468548624 -2.12848191598e-05 0)
(-0.00164043452987 -2.49070806657e-05 0)
(-0.0016821840606 -1.74097755791e-05 0)
(-0.00164950952749 -2.14192155478e-05 0)
(-0.00167290605222 -2.83577361226e-05 0)
(-0.0017110965054 -1.69077071915e-05 0)
(-0.0017260302463 1.4314141188e-05 0)
(-0.0017200068778 3.5839470392e-05 0)
(-0.00171042670997 3.50234438516e-05 0)
(-0.00169941505175 3.36066830665e-05 0)
(-0.00168318561196 3.829635563e-05 0)
(-0.00166209023155 4.64242869271e-05 0)
(-0.00163655046811 5.87369297518e-05 0)
(-0.00160639012061 7.34348314801e-05 0)
(-0.00157153664151 9.06536915161e-05 0)
(-0.00153142592572 0.000112172684813 0)
(-0.00148546232266 0.000135242575756 0)
(-0.00143189966757 0.000152532869909 0)
(-0.00136710805753 0.00016274721631 0)
(-0.00127768570056 0.000196043037475 0)
(-0.00117023683098 0.000241336243514 0)
(-0.00108889482345 0.000277583458147 0)
(-0.000981595910149 0.000310870251165 0)
(-0.000843328893269 0.000349927218271 0)
(-0.000683034747628 0.000395580193693 0)
(-0.000503719922775 0.000446970786395 0)
(-0.000306695082635 0.000498584187457 0)
(-9.7668859391e-05 0.000553115726774 0)
(0.000123950254925 0.00058234134364 0)
(0.000277967917059 0.000382873099558 0)
(0.000356213724993 0.000200975815847 0)
(0.000433020128546 0.000125287184393 0)
(0.000495012767622 9.00316498368e-05 0)
(0.000525442488575 6.07176656674e-05 0)
(0.00054193379461 2.33827098329e-05 0)
(0.000541730130996 -1.88368207326e-05 0)
(0.000520881727633 -5.54180921728e-05 0)
(0.000494076743516 -7.88761127073e-05 0)
(0.000482320177429 -9.3944714283e-05 0)
(0.00045972780809 -0.000115959786779 0)
(0.000408806723974 -0.000136811313081 0)
(0.000348770642125 -0.000143034347644 0)
(0.000286812327238 -0.000142927397687 0)
(0.000227517777211 -0.000173679989356 0)
(0.000159665491836 -0.000245074407679 0)
(4.22744775062e-05 -0.000252662703996 0)
(-5.00514177229e-05 -0.000422370860727 0)
(-6.29483653895e-05 -0.000282219084568 0)
(-0.000172079123587 -0.000436030201972 0)
(-0.000316098306377 -0.000438995201929 0)
(-0.000432998126818 -0.000370249017538 0)
(-0.000244340157211 -0.000139532664699 0)
(-0.000305804732346 -0.000139545401766 0)
(-0.000577483185901 -0.000255571225616 0)
(-0.00071292557646 -0.000268585456046 0)
(-0.000797934515996 -0.000242393483246 0)
(-0.000876645627521 -0.000220862504748 0)
(-0.000940865824394 -0.000195895514532 0)
(-0.000993345249749 -0.00016937902149 0)
(-0.00102600071171 -0.000129538766082 0)
(-0.000963791627279 -7.68778339614e-05 0)
(-0.000909527466668 -4.25076188769e-05 0)
(-0.000908927874042 -3.91647052412e-05 0)
(-0.000968070238164 -7.76423147566e-05 0)
(-0.00110439243564 -0.000141308926335 0)
(-0.00123898078347 -0.000202741400226 0)
(-0.00127892800641 -0.000211793133075 0)
(-0.00132226127652 -0.000191322165745 0)
(-0.00137280375126 -0.00017262035702 0)
(-0.00141621318081 -0.00015799148154 0)
(-0.00145412100994 -0.000142138226449 0)
(-0.00148782514414 -0.00012586807473 0)
(-0.00151752705774 -0.000110162373784 0)
(-0.00155092804275 -9.39673129918e-05 0)
(-0.00157037175321 -7.79687213728e-05 0)
(-0.00159800073548 -6.382337447e-05 0)
(-0.00159890485702 -5.08286827578e-05 0)
(-0.00162317368757 -3.6753255482e-05 0)
(-0.00159997638495 -2.14335532173e-05 0)
(-0.0016129967304 -1.89488125287e-05 0)
(-0.00165638109295 -2.75027639138e-05 0)
(-0.00162787982729 -3.91846072092e-05 0)
(-0.00166721508278 -4.03829679353e-05 0)
(-0.00170945398752 -4.03009601116e-05 0)
(-0.00171855907471 -4.27154622599e-05 0)
(-0.0017216853567 -2.56294298345e-05 0)
(-0.00172395707342 6.72238124858e-06 0)
(-0.00172131601468 3.21785317598e-05 0)
(-0.00171440555347 4.25969977029e-05 0)
(-0.00170351054536 4.87394159806e-05 0)
(-0.00168747093485 5.77914753059e-05 0)
(-0.00166669647923 7.05035524114e-05 1.44823640872e-28)
(-0.00164155430161 8.67853690636e-05 -1.45912199286e-28)
(-0.0016119314548 0.000106059247188 0)
(-0.00157756300889 0.000128496233062 0)
(-0.00153780889563 0.000154289456525 0)
(-0.00149141987537 0.000181764162559 0)
(-0.00143576439545 0.000209579431278 0)
(-0.00136771789046 0.000242767541789 0)
(-0.00128528178051 0.000288748619728 0)
(-0.00119216316113 0.000336554805137 0)
(-0.00108906322733 0.000384813319809 0)
(-0.000966446912926 0.00044307941198 0)
(-0.000817486845689 0.000508572583821 2.85373171527e-28)
(-0.000642754729137 0.000578892635526 -3.30396451624e-28)
(-0.000446343298019 0.000650156243418 0)
(-0.000237445013342 0.00070958348724 0)
(-3.46760531492e-05 0.000738198603085 0)
(0.000124354101745 0.000691937556886 0)
(0.000261005943697 0.000517197204216 0)
(0.000392597917498 0.000319480102983 0)
(0.000446045547438 0.000188707697651 0)
(0.000488729692215 0.000124588747047 0)
(0.000522834315418 7.83287186565e-05 0)
(0.000540265753299 2.72987440724e-05 0)
(0.000551366970149 -2.79754500274e-05 0)
(0.000545320027754 -7.27563251022e-05 0)
(0.000529242904687 -0.000101248064226 0)
(0.000494735336427 -0.000130475408135 0)
(0.000422915544676 -0.000160032849659 0)
(0.00036751457092 -0.000186859849935 0)
(0.000314845964224 -0.000209224734238 0)
(0.000245398919539 -0.000217520123096 0)
(0.000150064351756 -0.000204317987396 0)
(0.00011091439069 -0.000282986913628 0)
(3.78138299996e-05 -0.000337957459844 0)
(-4.89062881998e-06 -0.000420510871036 0)
(-3.15658735828e-05 -0.0003443392586 0)
(-0.000157257848852 -0.000575395145907 0)
(-0.000270004137104 -0.000529744117783 0)
(-0.000285800101609 -0.000340517762988 0)
(-0.000224890721841 -0.000186282139621 0)
(-0.000383983719094 -0.000307186706068 0)
(-0.000590609081721 -0.000432924544115 0)
(-0.00066983700335 -0.000384334280861 0)
(-0.000765932487224 -0.000333563090429 0)
(-0.000851080963499 -0.000304291060239 0)
(-0.000921541870998 -0.000261555392398 0)
(-0.000925410911986 -0.000175064272227 0)
(-0.000844146082558 -8.85197154322e-05 0)
(-0.000860380458808 -5.616219189e-05 0)
(-0.000912872948673 -6.69322998335e-05 0)
(-0.00100671765701 -0.000115794946355 0)
(-0.00112614506899 -0.000190694158019 0)
(-0.0012101458107 -0.000244908568492 0)
(-0.0012290106058 -0.000251483933429 0)
(-0.00127225888666 -0.000249278785411 0)
(-0.00132785609936 -0.000240985317197 0)
(-0.00137227603057 -0.000221353207085 0)
(-0.00141352979465 -0.000198838560998 0)
(-0.00144979966494 -0.000177584734547 0)
(-0.0014807122442 -0.000158964910867 0)
(-0.00151743457293 -0.000139693000499 0)
(-0.00153545896433 -0.000119504928404 0)
(-0.00157374116582 -9.96738187327e-05 0)
(-0.00157195717597 -7.92289371213e-05 0)
(-0.00161079125484 -6.09448101365e-05 -1.49995985208e-28)
(-0.00156818281324 -4.25090575855e-05 1.40456196534e-28)
(-0.00161333945562 -3.30729316395e-05 0)
(-0.00164889200856 -2.99838442112e-05 0)
(-0.00162943990111 -4.12697186521e-05 0)
(-0.00168112787043 -6.11265186248e-05 0)
(-0.00170370660217 -7.13071216807e-05 0)
(-0.00171810053471 -6.23753038796e-05 0)
(-0.00172478778574 -4.62080855621e-05 0)
(-0.00172696318349 -2.33457900257e-05 0)
(-0.00172812926507 6.28301382269e-06 0)
(-0.00172638961313 3.26260870586e-05 0)
(-0.00172033585271 4.97789558159e-05 0)
(-0.0017095825016 6.26464145874e-05 0)
(-0.0016938207779 7.66822790234e-05 0)
(-0.00167349319922 9.3725134717e-05 0)
(-0.00164888222136 0.000114138579871 0)
(-0.0016198708637 0.000137899305263 0)
(-0.00158603494957 0.00016535397941 0)
(-0.00154653738404 0.00019687574696 0)
(-0.001499892896 0.000232255733249 0)
(-0.00144364812926 0.000271969291459 0)
(-0.00137518987359 0.000318757047329 0)
(-0.00129298316306 0.000374341773356 0)
(-0.00119729955828 0.000435784386116 0)
(-0.00108566305687 0.000506210871731 0)
(-0.000950711848442 0.000589767116163 0)
(-0.000787101426289 0.000682865488674 0)
(-0.000595774284966 0.000777735843647 0)
(-0.000385228370888 0.000861396368922 0)
(-0.000172819109944 0.000912848993533 0)
(1.69348649527e-05 0.000907915445237 0)
(0.00014818312487 0.000811570919244 0)
(0.000291191869909 0.000663267696664 0)
(0.000438511750362 0.000446925084621 0)
(0.00049439495171 0.000253704364944 0)
(0.000527042663103 0.000155327513 0)
(0.000543620439176 9.24740080619e-05 0)
(0.000550407815519 3.20199081954e-05 0)
(0.000558313934378 -2.96277833606e-05 0)
(0.000562251644882 -8.64575718361e-05 0)
(0.000532223775211 -0.000139002607444 0)
(0.00045261071817 -0.000180729640639 0)
(0.000396479735608 -0.000216879435748 0)
(0.000346119446526 -0.000250788834591 0)
(0.000288879154005 -0.000281181743407 0)
(0.000212104113178 -0.000275018320987 0)
(0.000143655204793 -0.000271626873306 0)
(9.80336236981e-05 -0.000365502711556 0)
(2.75986691409e-05 -0.000392898827922 0)
(1.09375649486e-06 -0.000391926133696 0)
(-3.96355620993e-05 -0.000419856879778 0)
(-0.000159562266681 -0.000657103503004 0)
(-0.000222510557734 -0.000541398190551 0)
(-0.000166927160329 -0.000264544498667 0)
(-0.000227972144318 -0.000269952369901 0)
(-0.00048544242995 -0.0005061281549 0)
(-0.000569717272622 -0.000526616743773 0)
(-0.000640912302072 -0.000473492579752 0)
(-0.000727124980622 -0.000425658647202 0)
(-0.000810770793614 -0.000363188672046 0)
(-0.000752459529869 -0.000239956111476 0)
(-0.000686403210499 -0.000127567512432 0)
(-0.000740807040938 -9.88352912818e-05 0)
(-0.000809069821628 -0.000115138085428 0)
(-0.000938321088997 -0.000170751902674 0)
(-0.00107366250112 -0.000236985010476 0)
(-0.00116087316531 -0.000272232369449 0)
(-0.00116476573275 -0.000270537677309 0)
(-0.00121739289393 -0.000287917141773 0)
(-0.00128131515788 -0.000301860827695 0)
(-0.00132571993865 -0.000289138292672 0)
(-0.00136719702907 -0.000265092517367 0)
(-0.0014050763501 -0.000239478990302 0)
(-0.00144842159827 -0.000215197631673 0)
(-0.00147968889444 -0.000188083397649 0)
(-0.00148700670002 -0.000166298107407 0)
(-0.00154377692747 -0.000146214736775 0)
(-0.00152842783147 -0.000117192578388 0)
(-0.00158985645175 -9.02416430087e-05 0)
(-0.00152452687364 -6.21064570275e-05 0)
(-0.00159793601552 -5.59426017209e-05 0)
(-0.00154660335315 -5.13168268635e-05 0)
(-0.00161714841633 -5.64629575019e-05 0)
(-0.00167922165439 -7.45267701597e-05 0)
(-0.00170388571105 -9.22110811843e-05 0)
(-0.00171677601092 -8.76823963858e-05 0)
(-0.00172575417035 -7.11972615544e-05 0)
(-0.00173104563049 -4.95141480884e-05 0)
(-0.0017338217067 -2.35433435173e-05 0)
(-0.00173481992443 6.0499925503e-06 0)
(-0.0017331489133 3.40718345502e-05 0)
(-0.0017274505322 5.66262152374e-05 0)
(-0.00171693189413 7.56808215133e-05 0)
(-0.00170158626346 9.49009621375e-05 0)
(-0.00168177067943 0.000116365126917 0)
(-0.00165779181117 0.000140940159958 0)
(-0.00162947820142 0.000169130672742 0)
(-0.00159625693969 0.000201648936674 0)
(-0.00155719960097 0.000239332151028 0)
(-0.00151079825912 0.000282974494247 0)
(-0.00145478721252 0.000333788170255 0)
(-0.00138665081201 0.000393524521961 0)
(-0.00130416659389 0.000463156363881 0)
(-0.0012049623462 0.000543528035965 0)
(-0.00108442057998 0.000638787729379 0)
(-0.000936145949839 0.000750595281539 0)
(-0.000757382109124 0.000871779366569 0)
(-0.000552714961938 0.000987736817175 0)
(-0.00033352550375 0.00107497442077 0)
(-0.000121222674708 0.00110701248555 0)
(6.02551820718e-05 0.00105163416043 0)
(0.000189208106287 0.000886229331745 0)
(0.000360765366418 0.000825816129321 0)
(0.00045881632972 0.000539123479857 0)
(0.000508838929621 0.000304767272778 0)
(0.000552678983626 0.000177059636798 0)
(0.000572175471057 9.91190465495e-05 0)
(0.000573570262848 3.35305488969e-05 0)
(0.000588521956135 -3.61127955571e-05 0)
(0.000580684635289 -0.000120180539105 0)
(0.000501109709782 -0.000190206642471 0)
(0.000429942583646 -0.000235736247575 0)
(0.000385190421519 -0.000275584385244 0)
(0.000329831698302 -0.000312551713971 0)
(0.000278754125559 -0.000346265424232 0)
(0.000203199469546 -0.000324679004688 0)
(0.000144405228215 -0.00033130887007 0)
(9.75384886666e-05 -0.000429341745018 0)
(2.98003164465e-05 -0.000446990949189 0)
(-1.4323627085e-05 -0.00042601529023 0)
(-9.18618281225e-05 -0.000550130108227 0)
(-0.000208886861144 -0.000717118958659 0)
(-0.00023496243872 -0.000662630077154 0)
(-0.000158173712754 -0.000331884960889 0)
(-0.000331274539183 -0.000481656385741 0)
(-0.000503804107362 -0.000622904081045 0)
(-0.000548658677348 -0.000593196650249 0)
(-0.00061804682643 -0.00054240776223 0)
(-0.000662074992049 -0.0004865097306 0)
(-0.000774258780181 -0.000397582407289 3.56574788238e-28)
(-0.000598042454288 -0.00018625867992 -2.10066580731e-28)
(-0.000684605440668 -0.00015864877008 0)
(-0.000727659333392 -0.000166778276894 0)
(-0.00084480111377 -0.000224766486683 0)
(-0.000998434790063 -0.000309036981821 0)
(-0.0010951585552 -0.000333187382288 0)
(-0.00108043344934 -0.000297801857965 0)
(-0.00114379982223 -0.000312837436781 0)
(-0.00122820474368 -0.000349915933074 0)
(-0.00127238760195 -0.000353010457189 0)
(-0.0013192578926 -0.000334257418513 0)
(-0.00136337331446 -0.000308343650258 0)
(-0.00140394069135 -0.000278373569865 0)
(-0.00143077440875 -0.000244612599578 0)
(-0.00144529617192 -0.000210743616163 0)
(-0.00149853933582 -0.000190076690887 0)
(-0.00146861572494 -0.000166292661018 0)
(-0.00155447938664 -0.000136466947445 0)
(-0.00148010859185 -8.60388356118e-05 0)
(-0.00156615878263 -7.50638899773e-05 0)
(-0.00152230740399 -7.56665595083e-05 1.35914535327e-28)
(-0.00159682655697 -7.96658138338e-05 -1.42064739559e-28)
(-0.00162643718974 -0.000103357575149 0)
(-0.00169986001465 -0.000120987521117 0)
(-0.00171716076221 -0.000114910810777 0)
(-0.00172576446825 -9.87746280862e-05 0)
(-0.00173304996609 -7.77050574037e-05 0)
(-0.00173901560318 -5.29133500753e-05 0)
(-0.00174259524727 -2.47016666389e-05 0)
(-0.00174356718829 6.08501924384e-06 0)
(-0.00174179068994 3.63793429359e-05 0)
(-0.00173615158702 6.35589753329e-05 0)
(-0.00172581491396 8.81645377051e-05 0)
(-0.00171080369944 0.000112464838057 0)
(-0.00169149474988 0.000138367898774 0)
(-0.00166814182991 0.000167102974483 0)
(-0.00164051885772 0.000199674481896 0)
(-0.00160803669672 0.000237238189451 0)
(-0.00156983261981 0.000281164315525 0)
(-0.00152448491525 0.000333002846187 0)
(-0.00146977327678 0.000394543048568 0)
(-0.0014028710021 0.000467709561489 0)
(-0.00132036638771 0.000554511564094 0)
(-0.00121776817372 0.000658054383331 0)
(-0.00108912494124 0.000782052618822 0)
(-0.000929102255652 0.000924318446414 0)
(-0.00073759318313 0.00107193110959 0)
(-0.000521350467544 0.0012038223109 0)
(-0.000292161785426 0.00129318396753 0)
(-6.9086512471e-05 0.00130326810822 0)
(0.000121543618083 0.00121596471982 0)
(0.000288509030562 0.00109188216855 0)
(0.000419534171645 0.000916173642207 0)
(0.000502422394752 0.000611225482107 0)
(0.000532315300597 0.000351670371139 0)
(0.000603056837085 0.000215971093884 0)
(0.000636869910133 0.000115946545532 0)
(0.000639182774865 3.05772490343e-05 0)
(0.000630346425894 -6.65188866181e-05 0)
(0.000575214772458 -0.00017610399818 0)
(0.000482891706851 -0.00024829528335 0)
(0.000428815675499 -0.000296627500807 0)
(0.000374797212856 -0.000333344147811 0)
(0.000325411683224 -0.000370566884742 0)
(0.000273033851719 -0.000385678365515 0)
(0.000219461600096 -0.000388632959877 0)
(0.000149043462544 -0.000392118397466 0)
(9.94514639818e-05 -0.000485209767672 0)
(3.47574287011e-05 -0.000517610372129 0)
(-2.9783099623e-05 -0.000497268625263 0)
(-0.000131855345183 -0.000676899702332 0)
(-0.00023461423149 -0.000745430327364 0)
(-0.000148297375934 -0.000441581874504 0)
(-0.00016680109807 -0.000415712271653 0)
(-0.000390068406122 -0.000674910602411 0)
(-0.000467253962326 -0.000689872037516 0)
(-0.000533045512896 -0.000659295240453 0)
(-0.00057138417608 -0.000587885607692 0)
(-0.000641522890128 -0.000529016294737 0)
(-0.000520851233675 -0.000302445991918 0)
(-0.000595519411485 -0.000222678826103 0)
(-0.000668368546641 -0.000219305257835 0)
(-0.000727384564565 -0.000253695051677 0)
(-0.000906017077929 -0.000360380157259 0)
(-0.00102232423081 -0.00040810017284 0)
(-0.000998968205772 -0.000354481581063 0)
(-0.00105233147125 -0.000344386752007 0)
(-0.00115605265918 -0.000388826755137 0)
(-0.0012201190357 -0.000409599650669 0)
(-0.00126072441798 -0.00039939220807 0)
(-0.00130245964282 -0.000378014978523 0)
(-0.00135266719239 -0.000354108715999 0)
(-0.0013924836249 -0.000319549524127 0)
(-0.00143885023793 -0.000271725227147 0)
(-0.0014268161832 -0.000238144219265 0)
(-0.00149884636659 -0.000211443674152 0)
(-0.00148785322799 -0.000176654899645 0)
(-0.00146639313641 -0.000140821248105 0)
(-0.00149768056614 -0.000115105507256 0)
(-0.00159653888404 -0.000104191994204 0)
(-0.00156484752307 -9.19517715006e-05 0)
(-0.00157393324073 -0.000122289733317 0)
(-0.00168729275696 -0.000156048506722 0)
(-0.00170812817485 -0.000156321693156 0)
(-0.00172357078733 -0.000133430528039 0)
(-0.0017342941024 -0.000108922513571 0)
(-0.00174210528441 -8.42752909437e-05 0)
(-0.00174866402988 -5.71273897452e-05 0)
(-0.00175302744653 -2.66680054323e-05 0)
(-0.00175426459878 6.18907210092e-06 0)
(-0.00175228990304 3.92623933616e-05 0)
(-0.00174655649087 7.06963845545e-05 0)
(-0.00173633263581 0.00010037210525 0)
(-0.00172155573561 0.000129558973678 1.40322002643e-28)
(-0.0017026164181 0.000159842796757 -1.39941111955e-28)
(-0.00167974137943 0.000192682028378 0)
(-0.00165273284618 0.000229487225228 0)
(-0.00162114683722 0.000271824812329 0)
(-0.00158435012994 0.000321595496121 0)
(-0.00154107972342 0.000381111692765 0)
(-0.00148907977141 0.000453075649309 0)
(-0.00142500570247 0.000540581937132 0)
(-0.00134410965704 0.000647344440855 0)
(-0.00124004960063 0.000777638803549 0)
(-0.0011058917142 0.000933273201323 0)
(-0.000937138712634 0.00110716267236 0)
(-0.000735017009143 0.00128139865789 0)
(-0.000504729153271 0.00143317674668 0)
(-0.000252782902171 0.00153118426107 0)
(1.08095000061e-07 0.00152773973044 0)
(0.000220561449997 0.0014153273597 0)
(0.000394548366806 0.00122884905855 0)
(0.000500799674173 0.000989641605917 0)
(0.000641314690482 0.000747077157147 0)
(0.000616572876484 0.000396695526459 0)
(0.000662942320589 0.000252070054556 0)
(0.000702172582731 0.000128182704852 0)
(0.000688304281237 7.78891273133e-06 0)
(0.000649644889617 -0.000122900424867 0)
(0.000569830515127 -0.000243931864547 0)
(0.000485414443072 -0.000316704602729 0)
(0.000423797590523 -0.000361327726019 0)
(0.000364401479138 -0.0003892223134 0)
(0.000324071765197 -0.000413617055994 0)
(0.00028134846879 -0.000423360275332 0)
(0.00024102953922 -0.000452745739204 0)
(0.000165042517338 -0.000471012503289 0)
(9.91298879735e-05 -0.000544578673517 0)
(3.49314479674e-05 -0.000597033478226 0)
(-4.23307870131e-05 -0.000588453162032 0)
(-0.000151917159373 -0.000781518022934 0)
(-0.000198863600191 -0.00076660059345 0)
(-0.000142990558438 -0.000484173356804 0)
(-0.000234407493532 -0.000554599906671 0)
(-0.000405214251731 -0.000770519135489 0)
(-0.000432742756132 -0.000751924628211 0)
(-0.000518615612413 -0.000720934713522 0)
(-0.000493917621841 -0.000586039065477 0)
(-0.000649452472709 -0.000592856122631 0)
(-0.000506661111832 -0.000331078389175 0)
(-0.000605846540276 -0.000292797940611 0)
(-0.000661748634212 -0.000294098961576 0)
(-0.000780758830156 -0.000377826013647 0)
(-0.000932186655842 -0.00048336755524 0)
(-0.00100595195157 -0.000467133011514 0)
(-0.000979548380174 -0.000393217748637 0)
(-0.00106172663763 -0.000418146557905 0)
(-0.00114795754662 -0.000460659485693 0)
(-0.00120344089751 -0.00046436429815 0)
(-0.00125316382411 -0.000446014925299 0)
(-0.00128829312262 -0.000418375831663 0)
(-0.00133387965621 -0.000392140586365 0)
(-0.0013534250972 -0.000354934244639 0)
(-0.00136841551029 -0.000292221757341 0)
(-0.00144980996555 -0.000262813731567 0)
(-0.00138321949358 -0.000230190144246 0)
(-0.00152973764112 -0.000199791826438 0)
(-0.00145286421809 -0.000163802174454 0)
(-0.00158035949496 -0.000157774991326 0)
(-0.0015038715486 -0.000128312389604 0)
(-0.00162726980515 -0.000130630589438 0)
(-0.0016642797352 -0.00016849598871 1.52870151701e-28)
(-0.00169697792291 -0.00019506695719 -1.56072606366e-28)
(-0.00171573377812 -0.000178439592136 0)
(-0.00173120351731 -0.000149497232145 0)
(-0.00174405955544 -0.000120343595782 0)
(-0.00175317862703 -9.19980634672e-05 0)
(-0.00176016284963 -6.21665220049e-05 0)
(-0.00176494355531 -2.92941218952e-05 0)
(-0.00176662269374 6.17779528759e-06 0)
(-0.00176472642529 4.24969979032e-05 0)
(-0.0017588446442 7.80914553381e-05 0)
(-0.00174856548303 0.000112524157655 0)
(-0.00173389092466 0.000146436765938 0)
(-0.00171507880982 0.000181049764215 0)
(-0.00169235462594 0.000217864256221 0)
(-0.00166575763554 0.000258561404077 0)
(-0.00163520855562 0.000305047121282 0)
(-0.00160044380265 0.000359742891415 0)
(-0.00156050987926 0.00042587986149 0)
(-0.00151321439176 0.000507584672805 0)
(-0.00145469741084 0.000609899290311 0)
(-0.00137883456505 0.000738564330358 0)
(-0.00127737361128 0.000898343570741 0)
(-0.00114188255905 0.0010883218587 0)
(-0.000966934084703 0.00129671978698 0)
(-0.000752326717992 0.00150267119708 0)
(-0.00049973666915 0.00168625615852 0)
(-0.000211859759566 0.00180884905863 0)
(7.7405444896e-05 0.00179015980293 0)
(0.000316819243373 0.00162199881665 0)
(0.000501255928109 0.00137918327143 0)
(0.000642585324503 0.00110274828612 0)
(0.000761125649715 0.000792897128001 0)
(0.000839998205865 0.000462621723631 0)
(0.000755973961609 0.000242503855788 0)
(0.000785167551734 0.000127955391639 0)