/*--------------------------------*- C++ -*----------------------------------*\
| =========                 |                                                 |
| \\      /  F ield         | OpenFOAM: The Open Source CFD Toolbox           |
|  \\    /   O peration     | Version:  v1806                                 |
|   \\  /    A nd           | Web:      www.OpenFOAM.com                      |
|    \\/     M anipulation  |                                                 |
\*---------------------------------------------------------------------------*/
FoamFile
{
    version     2.0;
    format      ascii;
    class       surfaceScalarField;
    location    "881";
    object      phia;
}
// * * * * * * * * * * * * * * * * * * * * * * * * * * * * * * * * * * * * * //

dimensions      [0 3 -1 0 0 0 0];
oriented        oriented;


internalField   nonuniform List<scalar> 
12640
(
5.36709905366e-08
-5.32322584544e-08
1.01182431722e-07
-4.71169720826e-08
1.42099385176e-07
-4.06113726362e-08
1.76980093938e-07
-3.46100918839e-08
2.04480613575e-07
-2.7266078285e-08
2.24609462128e-07
-1.9949643502e-08
2.42166851805e-07
-1.74045828232e-08
2.66505490044e-07
-2.41997918967e-08
2.97867108294e-07
-3.122530302e-08
3.2935789874e-07
-3.13629581064e-08
3.60192287115e-07
-3.07112502784e-08
3.92800699274e-07
-3.24949095846e-08
4.25212489488e-07
-3.23033508384e-08
4.56639582234e-07
-3.13291738251e-08
4.8895021422e-07
-3.22208824465e-08
5.25126686118e-07
-3.61031966521e-08
5.63522017103e-07
-3.83246300717e-08
6.01152294886e-07
-3.75641620123e-08
6.37817035997e-07
-3.65877596284e-08
6.76274291549e-07
-3.83758343463e-08
7.20726484971e-07
-4.4364677543e-08
7.70542586879e-07
-4.97333922651e-08
8.21792961501e-07
-5.11681278142e-08
8.72619907963e-07
-5.07533441421e-08
9.22643895933e-07
-4.99513422565e-08
9.72258744935e-07
-4.95493516911e-08
1.02224740395e-06
-4.99221463311e-08
1.07229998899e-06
-4.9992516812e-08
1.1219877265e-06
-4.96258633476e-08
1.17156412545e-06
-4.95204527273e-08
1.22181588305e-06
-5.01930857869e-08
1.27234635732e-06
-5.04771657842e-08
1.32277106168e-06
-5.03692228856e-08
1.37456935116e-06
-5.17453932428e-08
1.42759954066e-06
-5.29712615027e-08
1.48112165371e-06
-5.34665504942e-08
1.53503886203e-06
-5.38565126086e-08
1.58801772573e-06
-5.29198977382e-08
1.63905338308e-06
-5.09719708207e-08
1.68821225159e-06
-4.90990695318e-08
1.73637053744e-06
-4.80958045713e-08
1.78158120521e-06
-4.51533115041e-08
1.82126118508e-06
-3.96196411483e-08
1.8569012998e-06
-3.5582108401e-08
1.89000336097e-06
-3.30390354471e-08
1.92024740834e-06
-3.01825990939e-08
1.94723902082e-06
-2.69244367718e-08
1.97028075734e-06
-2.29751621507e-08
1.98929358689e-06
-1.89396622567e-08
2.0061256193e-06
-1.67582080487e-08
2.02307677404e-06
-1.68683376783e-08
2.03741231352e-06
-1.42501089985e-08
2.04287821835e-06
-5.37046562631e-09
2.0413767716e-06
1.60339686338e-09
2.03234019797e-06
9.15101257337e-09
2.01380521613e-06
1.86588964139e-08
1.99576602107e-06
1.81854026114e-08
1.98248129789e-06
1.34554669205e-08
1.9656054074e-06
1.70820090231e-08
1.9456101329e-06
2.02426534498e-08
1.93187939118e-06
1.40358415358e-08
1.91289336204e-06
1.93596580452e-08
1.85819430464e-06
5.51416456267e-08
1.74414093066e-06
1.14473684676e-07
1.61460767901e-06
1.29845920368e-07
1.51181560026e-06
1.03014637052e-07
1.41440575692e-06
9.76074290205e-08
1.31408479301e-06
1.00535445689e-07
1.20473083592e-06
1.09600641572e-07
1.07997679055e-06
1.2502944532e-07
9.46431626112e-07
1.33832507287e-07
8.14038117967e-07
1.32670007536e-07
6.86930548239e-07
1.27366203467e-07
5.51906200841e-07
1.3527291976e-07
4.35735671101e-07
1.16395184428e-07
3.34809902384e-07
1.0114264898e-07
2.63102846059e-07
7.19298728683e-08
1.83135761563e-07
8.01990791946e-08
1.10994453818e-07
7.24205075535e-08
1.11243374104e-07
2.87683074041e-08
-8.16713030777e-08
6.64358500306e-08
-8.44633156478e-08
1.02950903719e-07
-7.68468453084e-08
1.40050922974e-07
-7.14760637385e-08
1.84752483702e-07
-7.17708193562e-08
2.19383034746e-07
-5.43865056523e-08
2.43338298263e-07
-4.11956364464e-08
2.69234095573e-07
-4.9930493549e-08
2.98262060703e-07
-6.0107478046e-08
3.29706195687e-07
-6.26608217888e-08
3.61387759079e-07
-6.22688030769e-08
3.91340397985e-07
-6.23224863685e-08
4.21292440848e-07
-6.21539523424e-08
4.52468151891e-07
-6.24083325938e-08
4.85504917269e-07
-6.51853907925e-08
5.22533042285e-07
-7.30523811052e-08
5.59889310437e-07
-7.56175109401e-08
5.92651939203e-07
-7.02454302185e-08
6.26398045381e-07
-7.02580072347e-08
6.67029705517e-07
-7.89137103866e-08
7.14847554792e-07
-9.20969548116e-08
7.67607203039e-07
-1.02398167306e-07
8.20161347921e-07
-1.03646378935e-07
8.69744748864e-07
-1.00253332568e-07
9.18908671513e-07
-9.90492309464e-08
9.69507665101e-07
-1.0007319703e-07
1.01976035441e-06
-1.00115325882e-07
1.06942310612e-06
-9.95855575932e-08
1.11917156718e-06
-9.93193776797e-08
1.16914425381e-06
-9.94278972406e-08
1.219070655e-06
-1.0006868249e-07
1.26895814707e-06
-1.00304257847e-07
1.31877175224e-06
-1.00133196396e-07
1.37045520513e-06
-1.03367221444e-07
1.42484428243e-06
-1.07309800783e-07
1.47894815048e-06
-1.07504931439e-07
1.53260660652e-06
-1.07459389143e-07
1.5870072608e-06
-1.07253684684e-07
1.64123095717e-06
-1.05139183739e-07
1.69188400618e-06
-9.96845336609e-08
1.73253376846e-06
-8.86904286592e-08
1.76598054937e-06
-7.8536361694e-08
1.8013247091e-06
-7.49104131736e-08
1.83845544342e-06
-7.26485649105e-08
1.87415422284e-06
-6.86814724571e-08
1.90765437451e-06
-6.3615369053e-08
1.93799968001e-06
-5.72091148379e-08
1.96517421271e-06
-5.00777916676e-08
1.98868136346e-06
-4.2379628021e-08
2.00544356133e-06
-3.3441215612e-08
2.01286242161e-06
-2.42110783863e-08
2.01722429994e-06
-1.85232838803e-08
2.02958594202e-06
-1.76418279249e-08
2.03807430803e-06
-6.77900012425e-09
2.03335101821e-06
1.39854924183e-08
2.02735970065e-06
2.47813396992e-08
2.01984993962e-06
2.58423363863e-08
2.00616125961e-06
2.73225829424e-08
1.99144880751e-06
3.20044066203e-08
1.97392873407e-06
3.80207559673e-08
1.94007812471e-06
4.81884248765e-08
1.9005089232e-06
5.92962030968e-08
1.83736404269e-06
1.18710410154e-07
1.7223331428e-06
2.29904687436e-07
1.56832469902e-06
2.84141778147e-07
1.41624428982e-06
2.55303256951e-07
1.32353659477e-06
1.90504275133e-07
1.25711518182e-06
1.67165806045e-07
1.16982939233e-06
1.97125982848e-07
1.05132062075e-06
2.43808271248e-07
9.10339242672e-07
2.75090310455e-07
7.66685015613e-07
2.76585766979e-07
6.4649143391e-07
2.47812005389e-07
5.55833513514e-07
2.26188829462e-07
4.66705188582e-07
2.05777259619e-07
3.83532139594e-07
1.84568499445e-07
2.96007537569e-07
1.5971340917e-07
2.17506946213e-07
1.58976383222e-07
1.13988292571e-07
1.76302450921e-07
2.25445589764e-07
3.51092827605e-08
-1.16596416441e-07
5.42413365982e-08
-1.03327845386e-07
9.60372915272e-08
-1.18376976796e-07
1.4357961547e-07
-1.18791587716e-07
1.88129842051e-07
-1.16126614599e-07
2.12867946695e-07
-7.89621093724e-08
2.29363655638e-07
-5.75145450174e-08
2.57383144817e-07
-7.77586281697e-08
2.89480842095e-07
-9.20270673494e-08
3.21825855839e-07
-9.48510572545e-08
3.53763546328e-07
-9.40672102926e-08
3.84023116337e-07
-9.24705104111e-08
4.13692726363e-07
-9.17321784355e-08
4.4516103338e-07
-9.3800142332e-08
4.76154250045e-07
-9.61053013857e-08
4.95960330389e-07
-9.2789344352e-08
5.08452097515e-07
-8.80328495184e-08
5.341792898e-07
-9.58950650277e-08
5.80683743633e-07
-1.16673608522e-07
6.44640685022e-07
-1.42780057386e-07
7.1001376636e-07
-1.57376775068e-07
7.63525870139e-07
-1.55825960919e-07
8.12086890318e-07
-1.52123804024e-07
8.62740464101e-07
-1.50832715888e-07
9.13724218562e-07
-1.49958552941e-07
9.63271257174e-07
-1.49553650603e-07
1.01265517184e-06
-1.49430950892e-07
1.06252679487e-06
-1.49395871215e-07
1.11254596902e-06
-1.49275391554e-07
1.16290313585e-06
-1.49728931755e-07
1.21262587e-06
-1.49733493018e-07
1.26259193409e-06
-1.50216417711e-07
1.3138522686e-06
-1.51337704973e-07
1.36379587976e-06
-1.53256834066e-07
1.41670443714e-06
-1.60156745384e-07
1.47481570146e-06
-1.65557615116e-07
1.53004272031e-06
-1.62623109625e-07
1.58321378585e-06
-1.60364358058e-07
1.63827989134e-06
-1.60141173094e-07
1.69084781063e-06
-1.5219322565e-07
1.73896514606e-06
-1.36746013792e-07
1.78301496531e-06
-1.2252868519e-07
1.82251444566e-06
-1.14348932079e-07
1.85857554242e-06
-1.08651725591e-07
1.89193935175e-06
-1.01983106869e-07
1.92228039443e-06
-9.38959885113e-08
1.94964991155e-06
-8.45130811735e-08
1.97384429084e-06
-7.42068816117e-08
1.99455808862e-06
-6.30219783452e-08
2.01207833879e-06
-5.08890727415e-08
2.02696145939e-06
-3.90145032056e-08
2.03772040368e-06
-2.91989308725e-08
2.03929546576e-06
-1.91242238753e-08
2.0351217803e-06
-2.50562030241e-09
2.03376519319e-06
1.54558220003e-08
2.03161548261e-06
2.70596199346e-08
2.02264282904e-06
3.49666086252e-08
2.0077887731e-06
4.23542014534e-08
1.98944202136e-06
5.05635062228e-08
1.96680964822e-06
6.09029240427e-08
1.93843907487e-06
7.68575344628e-08
1.87828630679e-06
1.19801189467e-07
1.74815699547e-06
2.49215424965e-07
1.56490348873e-06
4.13493403647e-07
1.42113289978e-06
4.28167702426e-07
1.35483583854e-06
3.21804118585e-07
1.27755656784e-06
2.67970084456e-07
1.17673787742e-06
2.68180922928e-07
1.06505371821e-06
3.09031404784e-07
9.40097224144e-07
3.6901092757e-07
8.19577167079e-07
3.95867716094e-07
7.25681350199e-07
3.70743641829e-07
6.433613746e-07
3.30399471318e-07
5.57574842016e-07
3.12235955608e-07
4.56370197239e-07
3.07232892831e-07
3.5439803915e-07
2.86794349863e-07
2.68030766353e-07
2.4633564018e-07
2.03111926319e-07
2.24153535717e-07
8.76459555791e-08
2.92061108533e-07
3.13223851214e-07
2.41961010295e-08
-1.40505263139e-07
3.35437977152e-08
-1.12488861951e-07
7.85262273226e-08
-1.63129945942e-07
1.17128228396e-07
-1.57191496277e-07
1.2435143344e-07
-1.23191580587e-07
1.14792782571e-07
-6.93059201033e-08
1.58731711374e-07
-1.01300476801e-07
2.2522075505e-07
-1.44032795982e-07
2.71838885495e-07
-1.38453604829e-07
3.08053953984e-07
-1.30901757711e-07
3.41952195167e-07
-1.27837648745e-07
3.73623854206e-07
-1.24044190806e-07
4.01717426491e-07
-1.19746155872e-07
4.18745659018e-07
-1.10760127499e-07
4.27168371124e-07
-1.04458159519e-07
4.43680703851e-07
-1.09219961458e-07
4.81039695782e-07
-1.25305096451e-07
5.38454279942e-07
-1.53216017869e-07
6.0395857736e-07
-1.82084243041e-07
6.59260795555e-07
-1.97990082834e-07
7.05020879978e-07
-2.03049949694e-07
7.53325044661e-07
-2.04044062474e-07
8.03737865297e-07
-2.02457273532e-07
8.53389848585e-07
-2.0040776825e-07
9.0267637357e-07
-1.99174952357e-07
9.519694652e-07
-1.98777474051e-07
1.00194519686e-06
-1.99342911043e-07
1.05219243279e-06
-1.99578615035e-07
1.10283196457e-06
-1.99855667722e-07
1.15294694998e-06
-1.99785504881e-07
1.20394749696e-06
-2.0067960019e-07
1.25334464846e-06
-1.99559382298e-07
1.30232569488e-06
-2.00263349271e-07
1.35865627233e-06
-2.09527413663e-07
1.41537793024e-06
-2.16819280717e-07
1.47138393768e-06
-2.2150080994e-07
1.5326101938e-06
-2.23787732328e-07
1.59152839797e-06
-2.19219683143e-07
1.64297077188e-06
-2.11523776209e-07
1.69079371565e-06
-1.99954689587e-07
1.73783072448e-06
-1.83723694038e-07
1.78289159669e-06
-1.67529080632e-07
1.82386315833e-06
-1.55262717054e-07
1.86073239151e-06
-1.4546165894e-07
1.89423417072e-06
-1.35426839379e-07
1.92458539834e-06
-1.24186308546e-07
1.95184310718e-06
-1.11709543196e-07
1.97590039308e-06
-9.81986767963e-08
1.99666223865e-06
-8.3716679901e-08
2.01424543065e-06
-6.84000606332e-08
2.02832333376e-06
-5.30175226812e-08
2.03726970367e-06
-3.80643573476e-08
2.03996877399e-06
-2.17362512699e-08
2.03967579633e-06
-2.11464664036e-09
2.03805808212e-06
1.71842454998e-08
2.03257048686e-06
3.26763047583e-08
2.02165817417e-06
4.60292982611e-08
2.00479120299e-06
5.93987741139e-08
1.98091794538e-06
7.46448732469e-08
1.94602183765e-06
9.60417068246e-08
1.8875411046e-06
1.35616685404e-07
1.78428141357e-06
2.23370080898e-07
1.65257256847e-06
3.81249657049e-07
1.53124483835e-06
5.35118671905e-07
1.39698770584e-06
5.62682763939e-07
1.26781485056e-06
4.51171557611e-07
1.16660590066e-06
3.69356357272e-07
1.07874766375e-06
3.56225435957e-07
9.93412352118e-07
3.94577842058e-07
9.01023580647e-07
4.61642622353e-07
7.98123003446e-07
4.99034854023e-07
6.91860239353e-07
4.77277704354e-07
5.8135439806e-07
4.41151380932e-07
4.71651188193e-07
4.22162059106e-07
3.70234776601e-07
4.08873251267e-07
2.66246536702e-07
3.91010506965e-07
1.7609202533e-07
3.36684028342e-07
1.18240295475e-07
2.82166310212e-07
6.08407183905e-08
3.49647487462e-07
3.74160970918e-07
4.42129037063e-09
-1.44849986709e-07
2.78617451721e-08
-1.35786370614e-07
6.24988284326e-08
-1.97592923346e-07
9.06707350464e-08
-1.85221249664e-07
8.82222576851e-08
-1.20621874355e-07
1.14219014632e-07
-9.51742031889e-08
1.6842848198e-07
-1.55322320916e-07
2.09492754889e-07
-1.84901326485e-07
2.48074968928e-07
-1.76848886169e-07
2.86279888521e-07
-1.68956813276e-07
3.23709468664e-07
-1.65157392982e-07
3.49994922466e-07
-1.50242735971e-07
3.59079046821e-07
-1.28761983523e-07
3.6862760847e-07
-1.20233219267e-07
3.97160072328e-07
-1.3289887645e-07
4.44730362886e-07
-1.56690706219e-07
5.03704827695e-07
-1.84176687308e-07
5.59801171676e-07
-2.09212779175e-07
6.03912029935e-07
-2.26101780835e-07
6.44808389241e-07
-2.38798518607e-07
6.91052837302e-07
-2.49208346028e-07
7.4013223837e-07
-2.53041149234e-07
7.89583725269e-07
-2.51829594182e-07
8.38686141282e-07
-2.49436813857e-07
8.87766722365e-07
-2.48184856422e-07
9.3759394354e-07
-2.48539002021e-07
9.87413787544e-07
-2.49096653924e-07
1.03840341648e-06
-2.50506764531e-07
1.08862461571e-06
-2.50018364273e-07
1.13934900201e-06
-2.50454775153e-07
1.18790953865e-06
-2.49185597513e-07
1.24033150416e-06
-2.51925631483e-07
1.29850383956e-06
-2.58377245613e-07
1.35453284475e-06
-2.65495492214e-07
1.41413996299e-06
-2.76362822318e-07
1.47704549436e-06
-2.8434388855e-07
1.53552616976e-06
-2.82206363261e-07
1.59028548138e-06
-2.73918959391e-07
1.64160493614e-06
-2.62782710728e-07
1.6903832247e-06
-2.48673585473e-07
1.73795899714e-06
-2.31239666968e-07
1.78361710236e-06
-2.13129066989e-07
1.82560057706e-06
-1.97188158348e-07
1.86336896151e-06
-1.83173496402e-07
1.89734437631e-06
-1.69344962524e-07
1.92788321894e-06
-1.54667802666e-07
1.9551257533e-06
-1.38892242205e-07
1.9790498726e-06
-1.22061349812e-07
1.99960449971e-06
-1.04206402378e-07
2.0167150796e-06
-8.54435074724e-08
2.02988022055e-06
-6.61118355921e-08
2.03809219563e-06
-4.62012419489e-08
2.04127052356e-06
-2.4832036207e-08
2.04117330339e-06
-1.92412287801e-09
2.03821957659e-06
2.02460740265e-08
2.03050601938e-06
4.05164127355e-08
2.01591659676e-06
6.07673657457e-08
1.99184207244e-06
8.36472255934e-08
1.95381527765e-06
1.12872133283e-07
1.89383524034e-06
1.56249053325e-07
1.80132453899e-06
2.283803589e-07
1.68005468916e-06
3.44916145614e-07
1.56807508825e-06
4.93497739118e-07
1.47533333945e-06
6.28141217775e-07
1.38139699136e-06
6.56858282521e-07
1.25617812459e-06
5.76595141658e-07
1.11820804952e-06
5.07509132378e-07
1.00014309384e-06
4.74478388995e-07
9.05734646716e-07
4.89194083229e-07
8.16960057068e-07
5.50656468658e-07
7.1336363165e-07
6.02895923082e-07
6.03476001666e-07
5.87408047806e-07
4.97733401661e-07
5.47101631312e-07
3.92533250902e-07
5.27561646642e-07
2.88078381309e-07
5.13531548392e-07
1.93591976275e-07
4.85689735615e-07
1.37804583556e-07
3.92621002055e-07
8.50353628268e-08
3.35066706118e-07
3.32857000001e-08
4.01550135504e-07
4.07518425086e-07
1.30494233358e-09
-1.45990572594e-07
3.16319348358e-08
-1.65985302595e-07
4.96592111811e-08
-2.15481334967e-07
6.2939504152e-08
-1.9836116154e-07
6.28700500457e-08
-1.20450883911e-07
1.16792574274e-07
-1.48946624795e-07
1.66659912486e-07
-2.05002202327e-07
1.9305947473e-07
-2.11113054011e-07
2.250531871e-07
-2.08686132804e-07
2.58518298035e-07
-2.02293464856e-07
2.8325736819e-07
-1.89792794207e-07
2.83920108114e-07
-1.50837203622e-07
2.94350575216e-07
-1.39115390295e-07
3.27684223771e-07
-1.53472702115e-07
3.78592557324e-07
-1.83698891298e-07
4.4141438711e-07
-2.19397570601e-07
4.99379263747e-07
-2.42033842785e-07
5.42075204472e-07
-2.51813598933e-07
5.81122536031e-07
-2.6506027596e-07
6.27262202113e-07
-2.84851502412e-07
6.75096892642e-07
-2.96959144789e-07
7.22472417884e-07
-3.00335939926e-07
7.70864908939e-07
-3.00145670158e-07
8.20370942e-07
-2.98869298248e-07
8.69808016006e-07
-2.97553306171e-07
9.17504183534e-07
-2.9616875351e-07
9.68500668646e-07
-3.00030864989e-07
1.01899252065e-06
-3.00938848137e-07
1.07025672593e-06
-3.01224636947e-07
1.11726438698e-06
-2.97406833895e-07
1.16823269033e-06
-3.0009875686e-07
1.2231966728e-06
-3.06832246306e-07
1.28041401364e-06
-3.15533906075e-07
1.34835695303e-06
-3.33374635833e-07
1.41628045384e-06
-3.44222085278e-07
1.4771745428e-06
-3.45175473188e-07
1.53371913432e-06
-3.38690644491e-07
1.58790167336e-06
-3.28042080714e-07
1.63994308492e-06
-3.14765503949e-07
1.69002041311e-06
-2.98692085469e-07
1.73852838861e-06
-2.79689376864e-07
1.78488936692e-06
-2.59432422597e-07
1.82777832022e-06
-2.40021147883e-07
1.86649139259e-06
-2.21831463973e-07
1.90113770747e-06
-2.0393683472e-07
1.93201361112e-06
-1.85488410953e-07
1.95929088762e-06
-1.66113332081e-07
1.98298645774e-06
-1.45698781407e-07
2.00304154345e-06
-1.24201711846e-07
2.01931244446e-06
-1.01652760195e-07
2.03140491299e-06
-7.81402033555e-08
2.03883678168e-06
-5.35648421468e-08
2.04176532979e-06
-2.76839294297e-08
2.04083918163e-06
-9.09664862977e-10
2.03537760118e-06
2.5813858162e-08
2.02289728417e-06
5.31206444287e-08
1.99997570065e-06
8.38339181665e-08
1.96192593901e-06
1.218645952e-07
1.90230487832e-06
1.72683022504e-07
1.81477485156e-06
2.43989446123e-07
1.69939867244e-06
3.43985284165e-07
1.57347271995e-06
4.71071991229e-07
1.47392143049e-06
5.93303177746e-07
1.37538706951e-06
7.26918894358e-07
1.26173153348e-06
7.70745616648e-07
1.15753314365e-06
6.80983568365e-07
1.03665565344e-06
6.28573528448e-07
9.1804009337e-07
5.93281548457e-07
8.20724722813e-07
5.86713168237e-07
7.26699418193e-07
6.44914139221e-07
6.21067227648e-07
7.08761948226e-07
5.25533826709e-07
6.83141101609e-07
4.21587701377e-07
6.51228547913e-07
3.14300875497e-07
6.35029101668e-07
2.15707342464e-07
6.12306411463e-07
1.50933653189e-07
5.50623437019e-07
9.94156664383e-08
4.44266057864e-07
5.3162628485e-08
3.81438567287e-07
2.27511502186e-08
4.32089340908e-07
4.30337961374e-07
1.09919326256e-08
-1.56932641705e-07
4.31659170834e-08
-1.98048276468e-07
5.65292738308e-08
-2.28732977344e-07
4.75442731654e-08
-1.89260014324e-07
6.93940721432e-08
-1.42174639336e-07
1.24719089939e-07
-2.04099495104e-07
1.51444966372e-07
-2.31547603791e-07
1.73785581713e-07
-2.33302102528e-07
1.97578170583e-07
-2.32335200084e-07
2.30384700344e-07
-2.34993036834e-07
2.34454765766e-07
-1.93780591861e-07
2.40313459221e-07
-1.56617617932e-07
2.71300395916e-07
-1.70006828487e-07
3.13455625513e-07
-1.95514379836e-07
3.72802786192e-07
-2.42923055692e-07
4.31227082718e-07
-2.77707549977e-07
4.72365463012e-07
-2.83071839495e-07
5.09634825421e-07
-2.88990200312e-07
5.57444420895e-07
-3.1277940182e-07
6.06613743133e-07
-3.33934115845e-07
6.53311077732e-07
-3.43574154328e-07
7.00549125392e-07
-3.4749595505e-07
7.49275808867e-07
-3.48795814816e-07
7.97215300094e-07
-3.46737707185e-07
8.44462114877e-07
-3.44733472712e-07
8.9314146493e-07
-3.44783391416e-07
9.42243831702e-07
-3.49070952134e-07
9.93892548604e-07
-3.52527795136e-07
1.04274680043e-06
-3.50022273498e-07
1.09111043146e-06
-3.45714755718e-07
1.14832296801e-06
-3.57252735866e-07
1.20844548425e-06
-3.66895227005e-07
1.27597476774e-06
-3.8300018098e-07
1.34474533709e-06
-4.02080622703e-07
1.41203313737e-06
-4.11446564307e-07
1.47281831328e-06
-4.05899540082e-07
1.52965465055e-06
-3.95467448053e-07
1.58469315329e-06
-3.83022226919e-07
1.63814365914e-06
-3.68158018945e-07
1.68977225689e-06
-3.50263208166e-07
1.73950178833e-06
-3.29362030301e-07
1.78680373058e-06
-3.06678909878e-07
1.83066085336e-06
-2.83824187299e-07
1.87035680123e-06
-2.61474794675e-07
1.90577338945e-06
-2.39301276306e-07
1.93705978506e-06
-2.16722994848e-07
1.96433192698e-06
-1.93333126597e-07
1.98759724938e-06
-1.68911352649e-07
2.00680790488e-06
-1.43359322571e-07
2.02187017277e-06
-1.16660969423e-07
2.03259124697e-06
-8.88058682766e-08
2.03878779218e-06
-5.96998744635e-08
2.04044258522e-06
-2.92686657498e-08
2.03715883338e-06
2.4614431634e-09
2.02699018625e-06
3.60853104428e-08
2.00623128503e-06
7.39992997062e-08
1.97019321189e-06
1.20011045736e-07
1.91406001577e-06
1.78157157875e-07
1.83456442954e-06
2.52357081011e-07
1.73307689735e-06
3.45670433706e-07
1.62168257373e-06
4.55582108659e-07
1.52022982403e-06
5.72746842362e-07
1.41763514868e-06
6.96114950352e-07
1.31034597369e-06
8.34440871185e-07
1.16686260376e-06
9.14434618948e-07
1.05289769083e-06
7.95137963402e-07
9.62544281133e-07
7.19102337532e-07
8.58516492319e-07
6.97492719802e-07
7.49769631858e-07
6.95652413541e-07
6.43548005748e-07
7.51334977303e-07
5.54079543036e-07
7.98414820577e-07
4.61350370001e-07
7.76033819171e-07
3.48212586396e-07
7.64525166802e-07
2.39845820228e-07
7.43557653715e-07
1.54923504423e-07
6.97384176352e-07
1.11196480104e-07
5.94487482314e-07
5.75770066467e-08
4.98004433885e-07
1.55623696216e-08
4.23563311908e-07
7.94600678709e-09
4.398320305e-07
4.38343404538e-07
1.95652399299e-08
-1.76327771999e-07
4.43722772999e-08
-2.22737449471e-07
5.02975701199e-08
-2.34529563057e-07
3.26224977837e-08
-1.71485895554e-07
7.1717375058e-08
-1.8113847853e-07
1.11922339923e-07
-2.44133704097e-07
1.32383088219e-07
-2.51861604895e-07
1.5420292467e-07
-2.54983200317e-07
1.64230020425e-07
-2.42259209935e-07
1.83260596456e-07
-2.53915637999e-07
1.81813875452e-07
-1.92255700206e-07
2.13811414726e-07
-1.88518887465e-07
2.49301913534e-07
-2.05385987793e-07
3.01314136033e-07
-2.47405445984e-07
3.58678796168e-07
-3.00162716469e-07
3.99968137414e-07
-3.18884867297e-07
4.33646978676e-07
-3.16654459801e-07
4.80700463924e-07
-3.35950799063e-07
5.32169374128e-07
-3.64157391537e-07
5.79512171044e-07
-3.81191156589e-07
6.25596720301e-07
-3.89577569819e-07
6.72522855429e-07
-3.94342310093e-07
7.22269022604e-07
-3.98468730641e-07
7.71935764142e-07
-3.96336965008e-07
8.17260894544e-07
-3.89991026492e-07
8.68833914187e-07
-3.96293495231e-07
9.17042222476e-07
-3.97218216248e-07
9.64207605429e-07
-3.99634169328e-07
1.01287173848e-06
-3.98629058552e-07
1.07793775704e-06
-4.10721490365e-07
1.13763212177e-06
-4.16887027418e-07
1.19728923442e-06
-4.2648884143e-07
1.26772905986e-06
-4.53375948365e-07
1.34056664005e-06
-4.74854145906e-07
1.40456637232e-06
-4.75383934621e-07
1.4650923259e-06
-4.66365229926e-07
1.52376847259e-06
-4.54084982418e-07
1.58078906037e-06
-4.39985389079e-07
1.63614055714e-06
-4.23452864622e-07
1.68959560511e-06
-4.03662280605e-07
1.74086236106e-06
-3.80573799767e-07
1.78940883708e-06
-3.55171828668e-07
1.83442020226e-06
-3.28783779541e-07
1.87520457824e-06
-3.02208834456e-07
1.91146761348e-06
-2.75515342961e-07
1.94317284043e-06
-2.48380064678e-07
1.97031464482e-06
-2.20427746092e-07
1.99285740253e-06
-1.91408256785e-07
2.01079035967e-06
-1.61246793076e-07
2.0241398995e-06
-1.29966852304e-07
2.0329170282e-06
-9.75347794668e-08
2.03704239932e-06
-6.37722480055e-08
2.0360988548e-06
-2.82569944436e-08
2.02857659246e-06
1.0070565886e-08
2.0110912167e-06
5.36679633715e-08
1.97874961929e-06
1.06457310656e-07
1.92738376535e-06
1.71510343415e-07
1.85601244715e-06
2.49670069435e-07
1.76691037885e-06
3.41617783484e-07
1.66489045264e-06
4.4786425238e-07
1.56220272658e-06
5.5846165651e-07
1.46785460491e-06
6.67289485623e-07
1.37980477823e-06
7.84382104425e-07
1.30723430548e-06
9.07218554725e-07
1.18324216382e-06
1.03864674643e-06
9.86859011913e-07
9.91705239161e-07
8.58920323769e-07
8.4720761395e-07
7.5622248343e-07
8.0034559085e-07
6.54917562288e-07
7.97099444147e-07
5.74822221704e-07
8.31582091839e-07
5.03258111999e-07
8.70126041555e-07
3.97115024096e-07
8.82318684305e-07
2.74280600854e-07
8.87504842203e-07
1.66296743046e-07
8.51685990881e-07
9.83140811843e-08
7.65504244878e-07
4.98521927374e-08
6.43075598635e-07
2.95620996641e-09
5.45019713914e-07
-3.2907518152e-08
4.59541892516e-07
-2.26704073317e-08
4.29705895623e-07
4.15742031007e-07
2.30829808761e-08
-1.99361537855e-07
3.82300964344e-08
-2.37773477333e-07
3.41778541182e-08
-2.30385736459e-07
3.7278996478e-08
-1.74483210018e-07
7.76389252322e-08
-2.21364075906e-07
9.3604539668e-08
-2.59960338116e-07
1.11317298883e-07
-2.6945288496e-07
1.31773265216e-07
-2.75331458394e-07
1.38389522054e-07
-2.48769219436e-07
1.50076857147e-07
-2.65507369739e-07
1.6387997493e-07
-2.05963258666e-07
1.93197033724e-07
-2.17729929874e-07
2.30550269942e-07
-2.42616660412e-07
2.85600592101e-07
-3.02324024765e-07
3.33694266756e-07
-3.48138181798e-07
3.64409519118e-07
-3.49497766502e-07
4.01610428102e-07
-3.53758723249e-07
4.50582382988e-07
-3.84827437827e-07
5.00119797247e-07
-4.136038962e-07
5.47515248147e-07
-4.28499333533e-07
5.94197349164e-07
-4.36174150302e-07
6.39806980072e-07
-4.39875122414e-07
6.86444809335e-07
-4.45037930842e-07
7.34853781089e-07
-4.44678552574e-07
7.80135722915e-07
-4.35210897741e-07
8.29836359629e-07
-4.45931667669e-07
8.82574103722e-07
-4.49894603594e-07
9.38418748798e-07
-4.55420424324e-07
9.96789217895e-07
-4.5694189233e-07
1.05437628897e-06
-4.68247817394e-07
1.1168852728e-06
-4.79331492327e-07
1.19269522836e-06
-5.02232725118e-07
1.26484666693e-06
-5.25461242608e-07
1.33007848791e-06
-5.40022102351e-07
1.39338446848e-06
-5.38628977881e-07
1.45563041519e-06
-5.28552110078e-07
1.51667288898e-06
-5.1506976981e-07
1.57613020259e-06
-4.99386091948e-07
1.63378490635e-06
-4.81052035305e-07
1.68940463818e-06
-4.59227587904e-07
1.74259740793e-06
-4.33713586221e-07
1.79277809369e-06
-4.05301301552e-07
1.83922500513e-06
-3.75181251757e-07
1.8812765723e-06
-3.44213014134e-07
1.9184858085e-06
-3.12679141109e-07
1.95058910819e-06
-2.80440334392e-07
1.97740940558e-06
-2.47207921929e-07
1.99884536412e-06
-2.12806007158e-07
2.014930376e-06
-1.77298538534e-07
2.02584571193e-06
-1.40845474215e-07
2.0317875711e-06
-1.03439085586e-07
2.03269555884e-06
-6.46290744781e-08
2.02767107798e-06
-2.31600036396e-08
2.01409400897e-06
2.37283965232e-08
1.98721759077e-06
8.06464488256e-08
1.94154110501e-06
1.52240709158e-07
1.8761956215e-06
2.36957241359e-07
1.79707987325e-06
3.2891259483e-07
1.70783662595e-06
4.31001050913e-07
1.60407610973e-06
5.51786715954e-07
1.49752952266e-06
6.65182488976e-07
1.40730636903e-06
7.57707101068e-07
1.33748904181e-06
8.54386122478e-07
1.28230867272e-06
9.62605762842e-07
1.22972494125e-06
1.0914281138e-06
1.03330563288e-06
1.18830899909e-06
7.74306247908e-07
1.10633886634e-06
6.6114652699e-07
9.13583089698e-07
5.85081671578e-07
8.73254258806e-07
5.34237535782e-07
8.82519711286e-07
4.59654467764e-07
9.44820021588e-07
3.35186288715e-07
1.00691141517e-06
1.98742882931e-07
1.02407841117e-06
8.67414093351e-08
9.63818316915e-07
2.16355280645e-08
8.30738193631e-07
-3.80129397479e-08
7.02848592833e-07
-7.82657824154e-08
5.85390472561e-07
-9.30824928087e-08
4.74469302642e-07
-6.03891432479e-08
3.97136690445e-07
3.55401736743e-07
2.3734030065e-08
-2.22900406764e-07
3.57140748048e-08
-2.49616704432e-07
2.41956134254e-08
-2.1875345356e-07
3.87668446814e-08
-1.88955714868e-07
6.95780612568e-08
-2.52052104152e-07
7.52647589814e-08
-2.65539993586e-07
8.81181975863e-08
-2.82188054301e-07
9.92091994081e-08
-2.86330212162e-07
1.16007115934e-07
-2.6547591445e-07
1.12671062437e-07
-2.62069541465e-07
1.37775074001e-07
-2.30968110096e-07
1.70554492844e-07
-2.50392652296e-07
2.08157801835e-07
-2.80101004707e-07
2.55942713039e-07
-3.49983042208e-07
2.92549905641e-07
-3.84629133914e-07
3.18126801066e-07
-3.74975403018e-07
3.62211163271e-07
-3.97745289262e-07
4.129275862e-07
-4.35447163445e-07
4.61720164498e-07
-4.6230361131e-07
5.10263626486e-07
-4.7695442613e-07
5.58892016432e-07
-4.84723359367e-07
6.06163862416e-07
-4.87072798086e-07
6.49571189966e-07
-4.88371257825e-07
6.95915508973e-07
-4.90957957441e-07
7.47136554316e-07
-4.86370379069e-07
7.93989879465e-07
-4.92721145054e-07
8.44183786751e-07
-5.0003081883e-07
8.93267286745e-07
-5.04446924841e-07
9.59155470109e-07
-5.2276915373e-07
1.02734156464e-06
-5.36371565313e-07
1.099682615e-06
-5.51605893214e-07
1.17229027844e-06
-5.74771779908e-07
1.24839093625e-06
-6.01494673541e-07
1.31625930577e-06
-6.07827680163e-07
1.38063692129e-06
-6.02946496016e-07
1.44479776993e-06
-5.92654546838e-07
1.50844017313e-06
-5.78655086006e-07
1.57068454466e-06
-5.61574938367e-07
1.63103471469e-06
-5.41348114981e-07
1.68919116588e-06
-5.17331581544e-07
1.74471650294e-06
-4.89188122421e-07
1.79697327008e-06
-4.57509090782e-07
1.8452384503e-06
-4.23399774602e-07
1.88882723676e-06
-3.87757820164e-07
1.92714232798e-06
-3.50953619932e-07
1.9596587528e-06
-3.1292012128e-07
1.98594958264e-06
-2.73465775876e-07
2.00579676146e-06
-2.32626852349e-07
2.01928975197e-06
-1.90763561973e-07
2.02677719479e-06
-1.48308089248e-07
2.02867742504e-06
-1.05302047206e-07
2.02499480517e-06
-6.08921854515e-08
2.01451116701e-06
-1.25990440343e-08
1.99379548328e-06
4.4530828727e-08
1.95704754867e-06
1.17471041424e-07
1.89818638456e-06
2.1117714302e-07
1.82200588189e-06
3.13247190917e-07
1.74290566518e-06
4.08072500028e-07
1.65809522569e-06
5.15912626493e-07
1.53711181032e-06
6.72914459167e-07
1.40836287409e-06
7.9413021769e-07
1.32033752987e-06
8.45940033405e-07
1.26591137155e-06
9.09029043579e-07
1.23389455454e-06
9.94826747352e-07
1.21873836846e-06
1.10678646163e-06
1.15690937166e-06
1.25030771563e-06
8.75203447225e-07
1.38814938335e-06
5.75815655891e-07
1.21302225543e-06
5.08348935303e-07
9.40746654905e-07
5.08396159297e-07
8.82539075334e-07
4.27457904096e-07
1.02585773396e-06
2.78227210325e-07
1.15625954042e-06
1.18943793364e-07
1.1834899249e-06
-1.02417099525e-08
1.09313140061e-06
-7.98206313456e-08
9.0044013328e-07
-1.4735228974e-07
7.70499264232e-07
-1.80525441828e-07
6.18686504675e-07
-1.5946194614e-07
4.53518839598e-07
-9.4272691236e-08
3.32035935212e-07
2.61191254048e-07
1.90320127904e-08
-2.4190412742e-07
2.81061579455e-08
-2.58619354973e-07
2.08129510748e-08
-2.11386466332e-07