/*--------------------------------*- C++ -*----------------------------------*\
| =========                 |                                                 |
| \\      /  F ield         | OpenFOAM: The Open Source CFD Toolbox           |
|  \\    /   O peration     | Version:  v1806                                 |
|   \\  /    A nd           | Web:      www.OpenFOAM.com                      |
|    \\/     M anipulation  |                                                 |
\*---------------------------------------------------------------------------*/
FoamFile
{
    version     2.0;
    format      ascii;
    class       volScalarField;
    location    "705";
    object      p;
}
// * * * * * * * * * * * * * * * * * * * * * * * * * * * * * * * * * * * * * //

dimensions      [0 2 -2 0 0 0 0];


internalField   nonuniform List<scalar> 
6400
(
0.14593824627
0.145941422897
0.14595051212
0.145968333901
0.145994915715
0.146030234591
0.146074261922
0.146128094116
0.146192775721
0.146270015026
0.146366054834
0.146484220724
0.146621867105
0.146778903031
0.146957257728
0.147159527049
0.147387450934
0.147641033219
0.147918120917
0.148213253536
0.14852083605
0.148842442354
0.14918569695
0.149558557699
0.1499659431
0.15040772846
0.150880418325
0.151381318745
0.151909926398
0.152466788
0.153052244746
0.15366426753
0.154296772286
0.154943556316
0.155601727921
0.156268529751
0.156944301418
0.157634861422
0.158338769853
0.159047032687
0.159760432796
0.160491089939
0.161245096706
0.162014313841
0.162787501819
0.16355672184
0.164315923467
0.16506039413
0.165785823291
0.16648842171
0.167165008104
0.167810059717
0.168414494691
0.168967313498
0.169466218639
0.169915451761
0.170310793604
0.170642735094
0.170909015503
0.171117201826
0.171274267719
0.171384866078
0.171453670219
0.171496645288
0.171530164396
0.171561619402
0.171584321415
0.171590880102
0.171582037875
0.171562579411
0.171535739932
0.171502746802
0.171464369165
0.1714246173
0.171384631814
0.171346958067
0.171313640911
0.171290917668
0.171275895246
0.171269471
0.145933633778
0.145937018145
0.145945299481
0.145962704725
0.14599078262
0.146027550669
0.146072050383
0.146124147496
0.146186807531
0.146263822005
0.146359506701
0.146476638108
0.146614569038
0.146772544614
0.146951062831
0.147151962808
0.147379105788
0.147633351075
0.147911753258
0.148207430094
0.148513075423
0.14883256262
0.149175206179
0.149548079125
0.14995593142
0.15039847202
0.150871503867
0.15137301504
0.151902577545
0.152460193405
0.153045772358
0.153658242074
0.154291727964
0.154938628267
0.155596905588
0.156263974765
0.156939672289
0.157630749562
0.158335846062
0.159045021021
0.159757913439
0.160489170408
0.161246430711
0.162018125285
0.162792608712
0.163563259492
0.164323990563
0.165070318145
0.165797527685
0.166500617004
0.167176375325
0.167822526348
0.168431619684
0.168986695252
0.16948730371
0.169939309429
0.170333272244
0.17066234052
0.17092814037
0.171135411943
0.171289748437
0.171399573027
0.171468930583
0.171513176648
0.171548499562
0.171580879873
0.171603190154
0.171606878254
0.171594617166
0.17157207912
0.171542434511
0.171506648165
0.171465062718
0.171421598384
0.171379648048
0.171341219224
0.171309034607
0.171286035872
0.171270943105
0.171265805724
0.145920617746
0.145926191011
0.145933749432
0.145949783837
0.145976937095
0.146017740139
0.146065724505
0.14611632757
0.146176040438
0.146251396519
0.146346242039
0.146462814718
0.146601027087
0.146759813268
0.146938387385
0.147135911244
0.147360658498
0.14761954364
0.147900974811
0.148195243677
0.148496721902
0.148811049995
0.149152697579
0.149527860632
0.149936664757
0.150379135746
0.150853388985
0.151356718948
0.151887876094
0.152446806605
0.153033235771
0.153646790161
0.154282347545
0.154928999699
0.155586121226
0.156254819279
0.15693085654
0.157621333484
0.158327756832
0.159040194099
0.159759159287
0.160495065311
0.161252607378
0.162024440726
0.162800530816
0.163573454255
0.164337266998
0.165086964759
0.165817750998
0.166525101143
0.167205233694
0.167853491932
0.168461408897
0.169019999819
0.169527993174
0.169982003196
0.17037410457
0.170701472718
0.170965801332
0.171171302394
0.171324322526
0.171431714609
0.171501074603
0.171549779194
0.171591243572
0.171624881903
0.171642852215
0.171640486191
0.171621666825
0.171592521154
0.171556309812
0.171513633006
0.171466334467
0.171418449601
0.171372818089
0.17133230595
0.171299875195
0.171276497905
0.171261717114
0.171256261435
0.145901896432
0.145907639004
0.14591417601
0.145928993834
0.145952980336
0.145993711421
0.14605388837
0.146104701897
0.146160065752
0.146232531362
0.146325976327
0.146442235762
0.14658110023
0.146739925424
0.146918404377
0.147120099576
0.14734891467
0.14760501937
0.14787812994
0.148161319473
0.148458766432
0.148776662049
0.149120811702
0.149496693502
0.149906650422
0.15035060754
0.150826752884
0.151332303294
0.151865756708
0.152426531859
0.153015003128
0.153630143175
0.154267305147
0.154916928172
0.15557178224
0.156237814689
0.156917262546
0.157608585069
0.158313849788
0.159030525147
0.159757642339
0.160500138754
0.161260760429
0.16203463057
0.162813555493
0.163590189288
0.164358400477
0.165112908581
0.165848833137
0.166561572632
0.167246666005
0.16789868258
0.168510329514
0.169074709375
0.16958753457
0.170043097862
0.170435087755
0.170761390745
0.171023949172
0.17122729671
0.171378096302
0.171484615815
0.171558608472
0.17161617387
0.171662921965
0.171693912244
0.17170587305
0.171694746845
0.171665032577
0.171624729969
0.171578265666
0.17152646467
0.171470976454
0.171414056491
0.171360348774
0.171316596707
0.171284019597
0.171258281338
0.17124055526
0.171233299405
0.1458724812
0.14587386935
0.145881899891
0.145897187234
0.14592386138
0.145962471336
0.146017925313
0.146073344796
0.146132134047
0.146205183978
0.146297549311
0.146413729901
0.146553838993
0.146718150146
0.146904116099
0.147106537607
0.147328412484
0.147571420208
0.147833657289
0.148113975881
0.148412735664
0.148732143533
0.149077940372
0.149455516807
0.149867096969
0.150312941062
0.150791160538
0.151299503731
0.151835912114
0.152399727699
0.152990321602
0.153608959713
0.154250098479
0.154897705193
0.155551562298
0.156216473391
0.156894280312
0.157588022662
0.158297363705
0.159019992656
0.159755096415
0.160504922058
0.161270577529
0.162048407928
0.162831689874
0.163613455137
0.164387468206
0.16514824612
0.165890794961
0.166610356281
0.167302032268
0.167960112598
0.168577901211
0.169148831061
0.169666827972
0.170125066743
0.170517915012
0.17084388696
0.171105373796
0.171307630179
0.171458490966
0.171568228936
0.171649947433
0.171714832923
0.171760895997
0.171789499306
0.171796021635
0.171774133285
0.171728993332
0.171671836685
0.171609975999
0.171544251672
0.171473660245
0.171401386137
0.171338268579
0.171289908693
0.171252586055
0.171219670649
0.171199401065
0.171192327019
0.145819186579
0.145819503355
0.145832511517
0.145848572685
0.14587824964
0.1459193381
0.145971485594
0.146027807316
0.146091564724
0.146167040965
0.146258103599
0.146374967896
0.146524106223
0.146697300336
0.146882657977
0.147078905148
0.147290809411
0.147524634976
0.147781924997
0.148060062683
0.148357053532
0.148676730075
0.149024394931
0.14940426697
0.149818083709
0.150265665753
0.150746707253
0.151258054803
0.151798525897
0.152366128285
0.152961162865
0.153581949459
0.15422299518
0.15487419586
0.155525064109
0.156186061323
0.156865179144
0.157563234745
0.158278270256
0.159007996237
0.159751471006
0.160509445862
0.16128188286
0.162065635556
0.162854986064
0.163643422174
0.164424723848
0.165193284797
0.165944011603
0.166672007044
0.16737212602
0.168038528626
0.168664614696
0.169243402098
0.169767593239
0.170229903048
0.170625306045
0.170952964665
0.171215927668
0.171420440289
0.171575497799
0.17169239702
0.171783438239
0.171850380971
0.171895129834
0.171919364403
0.171918425322
0.171883268685
0.171817995438
0.171737523592
0.171653462758
0.171564911621
0.171469466826
0.171377752765
0.171302577075
0.171245635424
0.171198554049
0.171159848422
0.1711384867
0.171129812151
0.145738113632
0.145744500036
0.145765538897
0.145789080113
0.145815246609
0.145857117088
0.14591135524
0.145970205771
0.146037786391
0.146116323514
0.146211751086
0.146332726863
0.146489913238
0.146662548353
0.146843361264
0.147031563224
0.147237079238
0.14746838855
0.14772358324
0.147996720605
0.148290957394
0.148611314444
0.148960646463
0.149342341896
0.149758734275
0.150210351222
0.150692820309
0.151207788354
0.151753113186
0.152327873281
0.152927110402
0.153548257281
0.154190091411
0.154837110779
0.155487341876
0.156149027701
0.156831414592
0.157534859997
0.158256640242
0.15899431255
0.159746756064
0.160513817203
0.16129464607
0.162086229578
0.162883464314
0.163680241551
0.164470438571
0.165248415986
0.166009031712
0.166747304225
0.167457940487
0.168134945749
0.16877147065
0.169359899959
0.169892184209
0.170361044879
0.170762161502
0.171095421937
0.171364455418
0.171575942652
0.171739258713
0.171865432922
0.171962513349
0.17203028748
0.172080422466
0.172100292956
0.17208350072
0.172026960831
0.171935561165
0.171825213122
0.171708797124
0.171584956021
0.171455389377
0.171338901037
0.171246276379
0.17117527326
0.171116999827
0.171076522555
0.171056717322
0.171047634291
0.145642036526
0.145654248141
0.145678272627
0.14571168276
0.145740683817
0.145784595276
0.145837598938
0.145899653423
0.145972112236
0.146049012739
0.146153253885
0.146287375282
0.146443129693
0.146612479827
0.1467865695
0.146967675619
0.147172300849
0.147404142262
0.147654523368
0.147922712428
0.14821482148
0.148535377747
0.148886193758
0.149270803845
0.149690727186
0.150145559263
0.150632292407
0.151147582202
0.15170039829
0.152284817526
0.15288603706
0.153504607316
0.154144621285
0.154789600248
0.15543903984
0.156105422774
0.15679340563
0.157503094692
0.158232317072
0.15897871562
0.159740906681
0.160518111786
0.161308895198
0.162110177359
0.162917178057
0.163724096126
0.164524955395
0.165314166034
0.166086596447
0.166837228033
0.167560663484
0.168250706978
0.168900126975
0.169500757699
0.170044257831
0.170523771691
0.170935770115
0.171280500083
0.171561030213
0.171783172201
0.171955881072
0.172089251916
0.17218997849
0.172262998272
0.172314655569
0.172338626214
0.172302463178
0.172215026106
0.172088855972
0.171938624942
0.171776804879
0.171603124714
0.171428233043
0.171276398382
0.171158289963
0.171069564764
0.17100668595
0.17096986193
0.170956130606
0.17095108991
0.145535864556
0.145551518539
0.145576047196
0.145605310167
0.145641808511
0.145694526992
0.145748306577
0.145812463776
0.145893335168
0.145976141848
0.146078758997
0.146222074519
0.146380926466
0.146544876047
0.146713156562
0.146894082752
0.147098266765
0.147327227303
0.147573119123
0.147838534596
0.148129152193
0.148449048922
0.14879981201
0.149186365777
0.149613985397
0.150070878765
0.150562337764
0.151085688786
0.15164044314
0.15222646623
0.152833613517
0.153457878275
0.154087822612
0.154728573869
0.155382854092
0.15605593906
0.156750786716
0.157467660677
0.158205075793
0.158960994936
0.159733849722
0.160522372908
0.161324670844
0.162137507901
0.162956225342
0.163775229437
0.164588718728
0.165391219406
0.166177654804
0.166943003236
0.167681796282
0.168387658539
0.169053048911
0.169669551432
0.170229025108
0.170725337681
0.171155432159
0.171518554579
0.171814955465
0.172049044251
0.172231118477
0.172372538348
0.172479309642
0.172553775933
0.172597311366
0.172619879516
0.172586846112
0.172461200995
0.172289318091
0.172086970074
0.171863129622
0.171621381015
0.171381390587
0.171175746524
0.171021997175
0.170919141867
0.170863561063
0.170840681966
0.170838273741
0.170841130881
0.145417835414
0.145435657631
0.145464214233
0.145492652484
0.14553214073
0.145585537963
0.145641934091
0.145706642982
0.145788223651
0.145888294108
0.145996517789
0.146140460934
0.146300517816
0.146461019554
0.146623847417
0.146807740375
0.147015303831
0.147239361921
0.147479859993
0.147742932874
0.148033269222
0.14835368193
0.14870483772
0.149090295557
0.149524500891
0.149990227244
0.150479026901
0.151009578459
0.151569876898
0.152160556619
0.15277106001
0.153393501718
0.154022631952
0.154661044131
0.155319669282
0.156000297737
0.156703129839
0.157428214805
0.158174671245
0.158940938476
0.15972545214
0.160526576544
0.161342000842
0.162168273542
0.163000746254
0.163833961324
0.164662296954
0.165480438127
0.166283393247
0.16706616004
0.16782325929
0.168548265966
0.169233609444
0.169871101961
0.170453293165
0.170974756049
0.171431732562
0.171819881327
0.172134274576
0.172381197771
0.172576830464
0.172733435626
0.172849371062
0.172918863173
0.172943408289
0.1729344935
0.17289407775
0.172781747112
0.172553100231
0.172280750949
0.171978821754
0.17164572129
0.171302729709
0.171010009317
0.170809728018
0.170706119567
0.170677396515
0.170684150211
0.170700158759
0.170714041338
0.145282795994
0.145299782255
0.145330934128
0.145364675611
0.145412878424
0.145461296322
0.145518766262
0.145586331434
0.145660776986
0.145770406191
0.145893351801
0.146038427771
0.146199124849
0.146360557355
0.146522908624
0.146707817317
0.146917068467
0.147138198662
0.147374745297
0.147634635597
0.147924089252
0.148246556442
0.148602975257
0.148988616407
0.14941839829
0.149897243813
0.150394856271
0.150925491386
0.151487817315
0.152073954095
0.15269165389
0.15331730182
0.153944880046
0.154585629219
0.155250051605
0.155938530373
0.156650079034
0.157384385836
0.158140847014
0.158918349874
0.159715553678
0.16053063032
0.161360867722
0.162202530394
0.163050912725
0.163900672485
0.164746379613
0.16558288331
0.166405271592
0.167208588841
0.167987453638
0.168735656437
0.169446087738
0.170111441018
0.17072532717
0.17128226136
0.171775278944
0.172194418444
0.172529113112
0.172793844619
0.17301601366
0.173203915284
0.173335571063
0.173392517314
0.17337886484
0.173311553747
0.173215119919
0.173107270193
0.17289012386
0.17254701506
0.172153895888
0.171694137908
0.171173073953
0.170729707649
0.17047277962
0.170396613916
0.170432910448
0.17049579461
0.170541962736
0.170574284112
0.145126739794
0.145140278632
0.145165375597
0.145208247255
0.145267418246
0.145316768052
0.145375942176
0.145450358802
0.145523765622
0.145630476026
0.145764873516
0.145913981226
0.146074763503
0.146238844835
0.146408626431
0.146596586372
0.146804807497
0.147023192421
0.147257494343
0.147514453295
0.147800293581
0.148120900898
0.148486971074
0.148884683298
0.149309624383
0.149788783017
0.150295462874
0.150824546021
0.151396694021
0.151988646687
0.152599112706
0.153221371404
0.153851707432
0.154500955106
0.155173367876
0.155870260673
0.156591201333
0.157335721699
0.158103283575
0.158893032312
0.159703975101
0.160534380838
0.161381202979
0.162240312667
0.163106903644
0.163975787731
0.164841758507
0.165699800467
0.166545031403
0.167372556677
0.168177257457
0.168953557126
0.169695552533
0.170397628752
0.171054354608
0.17165773918
0.17219519032
0.172656763582
0.17301890306
0.173308797066
0.173581862463
0.173837176839
0.174004153077
0.174041656515
0.173966326776
0.173811691514
0.173616812329
0.17344270275
0.173242321806
0.172893113698
0.172456257435
0.171830323935
0.170955968409
0.170217953862
0.169906760756
0.169932289456
0.170120872591
0.170290616197
0.170377812966
0.170446255786
0.144949229489
0.144959836891
0.144975935968
0.145023856393
0.145084448593
0.145142198573
0.145205952126
0.145288091348
0.145369683388
0.14547589874
0.145615541559
0.145767650572
0.145928265051
0.146091264852
0.146270960235
0.146469374387
0.146677328868
0.146893612849
0.147127009596
0.147382712696
0.147664873784
0.147979142208
0.148346175198
0.148765223369
0.149197441442
0.14966583884
0.150184329773
0.150720232132
0.151284833085
0.151881180394
0.152494168021
0.153115335566
0.153748835347
0.154406288114
0.155088158926
0.155794691856
0.156525902518
0.157281554539
0.15806140622
0.158864714559
0.159690613205
0.160537685305
0.161402853673
0.162281583852
0.16316886609
0.164059730013
0.164949277942
0.165832580817
0.166704657649
0.167560647033
0.168395912674
0.169206113057
0.169987576728
0.170737189545
0.171449091197
0.172107844023
0.172700224449
0.173248460279
0.173655395556
0.173973484348
0.174389964704
0.17481807785
0.175047913587
0.175021814808
0.17480929309
0.174491275516
0.174123916496
0.173792194439
0.173531922114
0.173244249222
0.173001892701
0.172200446727
0.170659369151
0.169362150637
0.168992973657
0.169258393487
0.169776584491
0.170132176599
0.170222956995
0.170369183725
0.144751342772
0.144763570112
0.144784956528
0.144821983736
0.144877156382
0.144940597202
0.145010236592
0.145096802798
0.145191511851
0.145301081063
0.145445039824
0.145599999757
0.145761993513
0.145924833981
0.146107786834
0.146316095543
0.146528576219
0.146746847443
0.14698125025
0.147237379224
0.147518175277
0.147827062288
0.148189491245
0.14862089527
0.149069806946
0.149536425423
0.15005863143
0.150603830284
0.151165029972
0.151758768343
0.152367639803
0.152989917791
0.153633820073
0.154301491965
0.15499361101
0.155710819293
0.156453525475
0.157221425744
0.158014526213
0.158832694024
0.159675140265
0.160540457896
0.161425720636
0.162326237437
0.163236835091
0.164152829466
0.165069749531
0.165982664928
0.166886252489
0.167775590117
0.168646782218
0.169497541508
0.170327639614
0.17113700778
0.171915264573
0.172633642118
0.173325053849
0.174105578083
0.174467672876
0.174530401982
0.174402393696
0.174576499533
0.174779706474
0.174780340013
0.174604457883
0.174337113046
0.174036591919
0.17375342546
0.173526112841
0.173434718015
0.173802132922
0.173581377173
0.170125862307
0.166848368136
0.166970899734
0.168093515715
0.16949053146
0.170149001346
0.170068286146
0.170421797704
0.144528309531
0.144542219243
0.144574073051
0.144601266685
0.144649977335
0.144715273152
0.144789784482
0.144882315115
0.14499270079
0.145105289207
0.145252514173
0.145410786783
0.145575852716
0.145742044247
0.145927737995
0.146141090569
0.146358572649
0.146581403621
0.146818799401
0.147076512681
0.14735796139
0.147665425534
0.148019423193
0.148449144466
0.148923483875
0.149399412743
0.149910644664
0.150471399785
0.151042697438
0.151622043996
0.152225312965
0.152852934835
0.153506234746
0.154184893196
0.154888585976
0.155617731866
0.156372918907
0.157154421406
0.157962204326
0.158796398577
0.159656883793
0.160542319632
0.161449675382
0.162374179092
0.163310724565
0.164255191391
0.165203746564
0.166151361086
0.167091882825
0.168019947296
0.168932909226
0.169831648834
0.170720210612
0.171600931337
0.172454592587
0.173233460754
0.173801229045
0.174002703411
0.174224676416
0.174405529029
0.174472605287
0.174529991621
0.174638037475
0.174618333583
0.174444680053
0.174172508059
0.173849919056
0.173513090628
0.17318921399
0.172850720504
0.172391689739
0.170881760827
0.168631834802
0.167522585755
0.167930375431
0.169067072326
0.170472546511
0.171314904422
0.169332357179
0.170700507226
0.144275608958
0.144289122851
0.144320310285
0.14435000129
0.144396667566
0.144464028576
0.144541526203
0.144635365755
0.144760842478
0.144885417669
0.14503582182
0.145198410605
0.145368468369
0.145541019619
0.145731370357
0.145947716769
0.146169281791
0.146397523662
0.146639155247
0.146899461994
0.147182274099
0.147490653672
0.147839221361
0.14826182605
0.148752951307
0.149248343977
0.149753153386
0.150307832355
0.150889977395
0.151475342535
0.15207507157
0.152705111198
0.153366529004
0.154056350254
0.154772399827
0.155514398396
0.156283245057
0.157079464048
0.157903400122
0.158755223731
0.159635243584
0.160542658279
0.161474379332
0.162425254982
0.163390250722
0.164366475085
0.16535150251
0.166339864379
0.167323167091
0.168295361407
0.169256508511
0.170211371074
0.171167763416
0.172138091092
0.173055530214
0.173325143786
0.173589579757
0.173856923631
0.174073714671
0.174235295394
0.17429587691
0.174305565286
0.174306679462
0.174218395243
0.174006302306
0.17369657494
0.173323577232
0.172910919435
0.17246981758
0.171932767473
0.171180206885
0.170021700868
0.168701395522
0.167885591426
0.167935031457
0.168652777632
0.169606208744
0.169997590692
0.171039262364
0.17257119883
0.143995079892
0.14400793731
0.144040761012
0.144071620192
0.144119462736
0.144188035789
0.144268168397
0.144360160621
0.144489562473
0.144631643783
0.144790465841
0.144959259947
0.145136390704
0.145319554892
0.145515719189
0.145735256686
0.145960950585
0.146195293162
0.146442008805
0.146705890632
0.146990770318
0.147300295477
0.147645846218
0.148059547767
0.148552662395
0.149077070704
0.14959312205
0.150135610867
0.150713286405
0.151301795472
0.151905789793
0.152543184102
0.153213760593
0.153914796307
0.154643872555
0.155399994314
0.156183556522
0.156995718373
0.15783711582
0.158708230404
0.159609506236
0.160540664808
0.16149909836
0.162479173682
0.163475341948
0.164486365347
0.16551248206
0.166547766658
0.167580078829
0.168602226048
0.169618457674
0.170636975926
0.171672739778
0.172660410321
0.172890060319
0.173128687277
0.173401364034
0.173647466351
0.173828354265
0.173940805976
0.173970967246
0.173932918016
0.173840474505
0.173664203895
0.173381327824
0.173000799072
0.172542562993
0.172019835314
0.171431689712
0.170753213759
0.169896015001
0.168804756282
0.167631977786
0.166790961191
0.166611729923
0.167056394764
0.167942980393
0.169173764436
0.171227843502
0.173481352099
0.143689408804
0.143700696355
0.143729321322
0.14376467759
0.143818593638
0.1438888161
0.143973396249
0.144065641502
0.14419550038
0.144348864369
0.144515697606
0.144690501384
0.144873523249
0.145070930746
0.145276919878
0.145500205834
0.145730959981
0.145973100398
0.146226274979
0.146494881445
0.146782770232
0.147093746645
0.147437753596
0.147844150091
0.14833275647
0.148876480972
0.149415606143
0.149955843916
0.150523440543
0.151109400242
0.151719396297
0.152364905493
0.153045373548
0.153757857008
0.154500787358
0.155272611079
0.156072636616
0.156901956505
0.157762352534
0.158654288088
0.159578563282
0.160535681143
0.161523480864
0.16253572275
0.163564997603
0.164612548824
0.165685995904
0.166778131036
0.167864827139
0.168940412319
0.170017175798
0.171113214972
0.172153640058
0.172430598225
0.17268503948
0.17291879854
0.173152158064
0.173346969606
0.173473228005
0.173520847632
0.173483089914
0.173362229729
0.173162593322
0.172873638683
0.172483071212
0.17199255368
0.171411850965
0.170747748862
0.169998086639
0.169153527104
0.168147277188
0.166951440258
0.165714181276
0.16471417071
0.164178100038
0.164157676422
0.164663198752
0.165796205993
0.168119947572
0.170127745584
0.143362237416
0.143372230383
0.143395154402
0.143435603054
0.14349484577
0.143566599243
0.143655001943
0.143752070959
0.143880038831
0.144040101181
0.144212892183
0.144392629042
0.144578877223
0.144785866077
0.145007764085
0.145238025142
0.145475052484
0.145726281198
0.145988867851
0.146264408125
0.146557097952
0.14687008952
0.147213901805
0.147614878761
0.148093869874
0.148638488392
0.149202061237
0.14975715391
0.150323406634
0.150907727951
0.151518502864
0.152170305665
0.152860607875
0.153583634501
0.154341591368
0.155130646139
0.155947926613
0.156796168085
0.157677389945
0.158592422907
0.159541781601
0.16052643356
0.16154537474
0.162593596539
0.163664599222
0.164759300126
0.165882732155
0.167023462211
0.168164755146
0.169305228898
0.170454065803
0.171580150887
0.1718941467
0.172171710527
0.1724229177
0.172636843111
0.172813899444
0.172935715716
0.172980816104
0.172937654989
0.172801112711
0.172570587688
0.172246634377
0.171824500789
0.171297571688
0.170664630873
0.169928704391
0.169091124162
0.168147307122
0.167085688503
0.165890084132
0.164510289341
0.163012526576
0.161588421089
0.160367636328
0.159367625845
0.158533724287
0.157688342238
0.156376217866
0.153572286322
0.143015084133
0.143024957496
0.143046474081
0.143091687858
0.143151645139
0.143222648041
0.143310208429
0.143413897548
0.143539941996
0.143704367557
0.143882377873
0.144067074205
0.144257661546
0.144468800912
0.144704720845
0.144946058407
0.145191758673
0.145451917989
0.145725138287
0.146010737321
0.146311530705
0.146628036136
0.146972832504
0.147371050811
0.147841280201
0.148380293721
0.148956145944
0.1495292202
0.150097660753
0.150682508671
0.151300579574
0.151957170422
0.152655167665
0.153390571222
0.154164348438
0.154971294618
0.155807531954
0.156676360053
0.15758007759
0.158520062349
0.159497034194
0.16051226461
0.161567288526
0.162660862915
0.163783565192
0.164924417034
0.16608697165
0.167273365902
0.168483888786
0.169711569561
0.170934636256
0.17128573162
0.171581183766
0.171857033333
0.172083884566
0.172250604598
0.172353726693
0.172382521088
0.17232286609
0.172165234276
0.171905081524
0.17154077805
0.171071301295
0.170493526516
0.169802927414
0.168996374922
0.168071968949
0.167026086422
0.165850887985
0.164533765845
0.163064990913
0.161372225859
0.159427973998
0.157323243355
0.155073554319
0.152551756596
0.149490742407
0.145535479708
0.140562935903
0.139438486006
0.142644625278
0.142655042757
0.142677764384
0.142728053294
0.142788154334
0.142857664437
0.142941856471
0.143050084597
0.143172561431
0.143339715838
0.143523130022
0.143713109521
0.14390934061
0.144126051965
0.144371311615
0.144624165476
0.144880632976
0.145150545637
0.145433590267
0.145730388735
0.146042706325
0.146365418647
0.146712165703
0.147109811071
0.147573546542
0.148104834831
0.148683607311
0.149269512274
0.14985170107
0.150441089707
0.151065289623
0.151729139067
0.15243260444
0.153174961678
0.15396186718
0.154789842895
0.155648738334
0.156540679053
0.157468464838
0.15843497386
0.159442413364
0.160492964515
0.161592888746
0.162740570782
0.163911730536
0.165090887356
0.16629135362
0.16753795233
0.168860388975
0.170218947978
0.170623005376
0.170926269606
0.171223813952
0.171471323504
0.171645708603
0.171739641554
0.171748335384
0.171664408245
0.171479082741
0.171185670318
0.170780409796
0.170261279671
0.169626388059
0.168872493647
0.167994831837
0.166987885408
0.165845079301
0.164556962546
0.163109116884
0.161480537485
0.159643318595
0.157546474396
0.155048231823
0.152067998398
0.148496967886
0.143947840161
0.137576599365
0.127558673692
0.108713169468
0.0628338193544
0.142243048301
0.142253971192
0.142280092801
0.142336150249
0.142397360157
0.142466152394
0.142549331987
0.142659220596
0.142777593208
0.142944998438
0.143133573532
0.143328934539
0.14353103304
0.143753619512
0.144006331193
0.144270212985
0.144539932276
0.144820931663
0.145113338068
0.145420955657
0.145747098062
0.146079732593
0.146429125634
0.146827485667
0.147287867222
0.147811046083
0.148385933274
0.148974300108
0.149573666029
0.150181490366
0.15081116123
0.151477509811
0.152189747176
0.152944891162
0.153739566494
0.154582913557
0.155466262375
0.156384303598
0.157340075633
0.158335733177
0.159375695509
0.160469215686
0.161626759931
0.162831492038
0.164046107571
0.165265271352
0.166521989618
0.167867275394
0.16932352767
0.170032353357
0.170297599531
0.17056049491
0.170812723242
0.170998072757
0.171092280181
0.171088025819
0.170980551542
0.170764795088
0.170435508125
0.169988386528
0.169420475139
0.168729460163
0.167912529648
0.166965325282
0.165881413731
0.164652105999
0.163265769335
0.161706220184
0.15995051618
0.157966382702
0.155708400847
0.15311835632
0.150003191741
0.14608874169
0.141125437972
0.13453603488
0.125089256451
0.110360743575
0.0854531144078
0.0439113993381
0.141799399839
0.141810783319
0.141840288496
0.141902539093
0.141964866734
0.142036707497
0.142121049994
0.142231039154
0.142348988295
0.142517857137
0.142711787355
0.142912551301
0.143120458612
0.143348535465
0.143607055803
0.143879709904
0.144165024895
0.144459452201
0.144762003797
0.145080116752
0.145420401071
0.145768002589
0.146122067027
0.146520410262
0.146980345365
0.14749771261
0.148067127162
0.148653163374
0.149258533246
0.149888599895
0.150538502685
0.151211546142
0.151920047018
0.152683034199
0.153495190842
0.154353773283
0.155258611242
0.156203660371
0.157189293248
0.158218194269
0.159297722254
0.160446870711
0.161669081695
0.162928851189
0.164197745895
0.165491653088
0.166861583281
0.16822927441
0.169344165991
0.169714760164
0.169928281031
0.170141058119
0.170321350103
0.170416189843
0.170404957856
0.170280115086
0.170037327283
0.169673356641
0.169185331877
0.168570672295
0.167826999861
0.166951567164
0.165940379833
0.164787311246
0.163483380083
0.16201606487
0.160368225554
0.158516280439
0.15642751284
0.154056211817
0.151337675283
0.148177455256
0.144439342763
0.139747256939
0.133603843804
0.125447303301
0.114171457198
0.0978853989676
0.0732650900485
0.0392588477584
0.141304887696
0.14131870833
0.14134997593
0.141412715689
0.1414799901
0.141560923746
0.141651165714
0.141765001501
0.141890230866
0.142056649722
0.142255440987
0.142461816881
0.142675743717
0.142909239881
0.143172562551
0.143450247987
0.14374763677
0.144059418694
0.144375426425
0.144705927271
0.145059148313
0.145425647489
0.145792978472
0.146188891015
0.146648238337
0.147162654272
0.147727364236
0.148311361312
0.148916170411
0.149559057404
0.150231625151
0.150924178703
0.151638118228
0.152399575309
0.153218961132
0.154095721548
0.155023966159
0.155997437939
0.157013961716
0.158079465145
0.159211536202
0.160428301023
0.161714970932
0.163037357034
0.164394976703
0.165835117937
0.167312161764
0.168364430123
0.168886268815
0.16920421766
0.169445564702
0.169620300008
0.169713344282
0.169700180239
0.169565651155
0.169303314761
0.168910524554
0.168385999809
0.167728693086
0.166937223359
0.166009473603
0.164942028366
0.163729428538
0.162363354342
0.160831784207
0.159118017176
0.157199285507
0.155044653434
0.152611913644
0.149843022795
0.146657154286
0.142939573096
0.138525396848
0.13314703671
0.126232736659
0.1170517951
0.104758600634
0.0880018316468
0.0643487918153
0.0344020375954
0.140764906165
0.140782734013
0.14081465749
0.140871500213
0.140946977299
0.141037775847
0.141137207792
0.14125965756
0.141398886654
0.141562550388
0.141763374665
0.141974817124
0.142195122242
0.142434561006
0.1427033121
0.142986739715
0.143290652662
0.143618064407
0.143950985256
0.144297516309
0.144664045727
0.14504911841
0.145440511162
0.145845371198
0.146297433817
0.146807743933
0.147367863754
0.147950578032
0.148553097553
0.149199694173
0.14988605619
0.150603941289
0.151336184474
0.152099810508
0.15292025702
0.153806104175