/*--------------------------------*- C++ -*----------------------------------*\
| =========                 |                                                 |
| \\      /  F ield         | OpenFOAM: The Open Source CFD Toolbox           |
|  \\    /   O peration     | Version:  v1806                                 |
|   \\  /    A nd           | Web:      www.OpenFOAM.com                      |
|    \\/     M anipulation  |                                                 |
\*---------------------------------------------------------------------------*/
FoamFile
{
    version     2.0;
    format      ascii;
    class       surfaceScalarField;
    location    "943";
    object      phi;
}
// * * * * * * * * * * * * * * * * * * * * * * * * * * * * * * * * * * * * * //

dimensions      [0 3 -1 0 0 0 0];
oriented        oriented;


internalField   nonuniform List<scalar> 
12640
(
-2.55390479752e-07
2.55586755566e-07
-4.77737655081e-07
2.22532818849e-07
-6.63948982285e-07
1.86353123487e-07
-8.16977824182e-07
1.53150012829e-07
-9.30768375048e-07
1.13889903452e-07
-1.00540284081e-06
7.47232597359e-08
-1.06021439033e-06
5.48927507369e-08
-1.13509488359e-06
7.49533456652e-08
-1.23093831367e-06
9.59122079133e-08
-1.32032095425e-06
8.94442566005e-08
-1.40118761745e-06
8.09207162336e-08
-1.48101461614e-06
7.98757140148e-08
-1.55110906993e-06
7.01392443109e-08
-1.60863792612e-06
5.75697919066e-08
-1.66072905631e-06
5.21293162814e-08
-1.7179182614e-06
5.72229291309e-08
-1.77597703336e-06
5.80909486405e-08
-1.82530225827e-06
4.93553146583e-08
-1.86529887082e-06
4.00276705056e-08
-1.90327540859e-06
3.80074344651e-08
-1.95029988364e-06
4.70558239535e-08
-2.0056202184e-06
5.53492427777e-08
-2.06019220881e-06
5.45998549985e-08
-2.10993138155e-06
4.97635610377e-08
-2.15421834796e-06
4.43102728377e-08
-2.19360386452e-06
3.94056553572e-08
-2.22951199642e-06
3.59277233658e-08
-2.26137427445e-06
3.18787796687e-08
-2.28867291481e-06
2.73147477875e-08
-2.31233940897e-06
2.36795439285e-08
-2.33415911174e-06
2.18324975084e-08
-2.35353101548e-06
1.93815740458e-08
-2.36950003341e-06
1.59783729793e-08
-2.38456262551e-06
1.50694197651e-08
-2.39907554393e-06
1.45203634551e-08
-2.41208225407e-06
1.30113006953e-08
-2.42413142928e-06
1.20540081488e-08
-2.43412910534e-06
9.9999880118e-09
-2.44038734393e-06
6.26045912624e-09
-2.44275407235e-06
2.36548715651e-09
-2.44297910187e-06
2.23053688926e-10
-2.43968648516e-06
-3.29808604098e-09
-2.42985250964e-06
-9.84003721608e-09
-2.41498544746e-06
-1.48761952889e-08
-2.39672045434e-06
-1.82746545807e-08
-2.37455859044e-06
-2.21745431623e-08
-2.34794489601e-06
-2.66267857195e-08
-2.31607389232e-06
-3.18865220347e-08
-2.27874415899e-06
-3.73450684575e-08
-2.23774099446e-06
-4.10198174289e-08
-2.19514857631e-06
-4.26075668791e-08
-2.14801176725e-06
-4.71519660088e-08
-2.08997788593e-06
-5.80467160619e-08
-2.02196786155e-06
-6.80217804274e-08
-1.94401619366e-06
-7.79599000095e-08
-1.85445229013e-06
-8.95704068181e-08
-1.76027137089e-06
-9.41837320879e-08
-1.66320379649e-06
-9.70689334138e-08
-1.55594633182e-06
-1.07256409134e-07
-1.43828341244e-06
-1.1765933974e-07
-1.31452785806e-06
-1.23747748054e-07
-1.1752332885e-06
-1.39285362159e-07
-1.00089829772e-06
-1.74329649527e-07
-8.0165621273e-07
-1.99248881433e-07
-6.31449674375e-07
-1.70216320415e-07
-5.10115987691e-07
-1.21346880729e-07
-4.12564599563e-07
-9.75652184222e-08
-3.24277916136e-07
-8.83026893721e-08
-2.41441038298e-07
-8.28559342446e-08
-1.63535003211e-07
-7.79286285374e-08
-9.58541519688e-08
-6.77036525453e-08
-4.34108018556e-08
-5.24629469376e-08
-6.8352657842e-09
-3.65937337921e-08
1.74342418912e-08
-2.42874265227e-08
3.00876062466e-08
-1.26696941663e-08
3.47918943135e-08
-4.71576356304e-09
3.50449041135e-08
-2.64036514882e-10
2.86918871259e-08
6.35209853564e-09
1.86877801784e-08
9.9565143986e-09
1.86807670834e-08
-1.36876457158e-07
3.92620996117e-07
-3.16452450321e-07
4.02252515981e-07
-4.8596772441e-07
3.55994063961e-07
-6.54159171919e-07
3.21440904384e-07
-8.50894317862e-07
3.10719513582e-07
-9.94406810187e-07
2.18322963849e-07
-1.07716829729e-06
1.37734601214e-07
-1.1558905023e-06
1.53755813344e-07
-1.24205207316e-06
1.82145156641e-07
-1.33235614196e-06
1.79813524288e-07
-1.41668459465e-06
1.65305525497e-07
-1.48745950794e-06
1.50702081985e-07
-1.54996030296e-06
1.32684182554e-07
-1.6074285946e-06
1.15080197479e-07
-1.66165326539e-06
1.06390362922e-07
-1.71995245439e-06
1.15559394976e-07
-1.77490138991e-06
1.13071934825e-07
-1.81080121931e-06
8.52892982451e-08
-1.84292951153e-06
7.21870831855e-08
-1.88716134359e-06
8.22738416419e-08
-1.94272672912e-06
1.0265253988e-07
-2.0054442739e-06
1.18099875196e-07
-2.06368430109e-06
1.12866670882e-07
-2.1109063925e-06
9.70137380131e-08
-2.15325328725e-06
8.66791644909e-08
-2.19461358549e-06
8.07897509224e-08
-2.23100180923e-06
7.23339881875e-08
-2.26198446156e-06
6.28815507399e-08
-2.28924425984e-06
5.45890108355e-08
-2.31335163129e-06
4.78033938043e-08
-2.33423210202e-06
4.27237509692e-08
-2.35226091266e-06
3.74229729377e-08
-2.367022247e-06
3.07473802036e-08
-2.38131807083e-06
2.93753568592e-08
-2.39754453581e-06
3.07518737318e-08
-2.41120642378e-06
2.66812319435e-08
-2.42248806911e-06
2.33388358294e-08
-2.43413246028e-06
2.16494363258e-08
-2.44449474147e-06
1.6622536079e-08
-2.44879418878e-06
6.66608256154e-09
-2.43973003548e-06
-8.84564376605e-09
-2.42216908917e-06
-2.0862617908e-08
-2.40741248654e-06
-2.46052201182e-08
-2.39464758953e-06
-2.76487006088e-08
-2.37966777198e-06
-3.3266762988e-08
-2.36135951887e-06
-4.04944217022e-08
-2.33856359532e-06
-4.94385742837e-08
-2.31117325665e-06
-5.92918702028e-08
-2.27856432717e-06
-6.99721485684e-08
-2.23754854724e-06
-8.20520318921e-08
-2.18575988141e-06
-9.44143181735e-08
-2.12932744651e-06
-1.0359960695e-07
-2.07749002452e-06
-1.09899550166e-07
-2.01837987876e-06
-1.27143497072e-07
-1.94392046384e-06
-1.52429934372e-07
-1.86335533011e-06
-1.7014095394e-07
-1.77519622538e-06
-1.82347400766e-07
-1.67522633594e-06
-1.97039311021e-07
-1.56656334109e-06
-2.15918411713e-07
-1.44676627643e-06
-2.37451598851e-07
-1.30743848968e-06
-2.63070653385e-07
-1.15347360531e-06
-2.93243199675e-07
-9.77636618265e-07
-3.50164592684e-07
-7.8603952189e-07
-3.90848682544e-07
-6.10497507863e-07
-3.45772744081e-07
-4.71488358195e-07
-2.6037013334e-07
-3.73463916061e-07
-1.95605958342e-07
-2.94523658851e-07
-1.6726114201e-07
-2.18475606324e-07
-1.58925642679e-07
-1.44244469408e-07
-1.52182217403e-07
-7.8887783971e-08
-1.33082276523e-07
-2.87521026064e-08
-1.02617248163e-07
6.05079562309e-09
-7.14142790882e-08
2.88394835603e-08
-4.70925813722e-08
4.23823306884e-08
-2.62292930402e-08
4.85661353941e-08
-1.09126189253e-08
4.7382554042e-08
9.08130421422e-10
3.96317218466e-08
1.40779929669e-08
2.28004497697e-08
2.67874373331e-08
4.14344422427e-08
-1.71949430362e-07
5.64640776833e-07
-2.6711876783e-07
4.97539420792e-07
-4.64080055619e-07
5.53069940728e-07
-6.81747085946e-07
5.39210637748e-07
-8.79722356743e-07
5.08781057621e-07
-9.87141598036e-07
3.25816178512e-07
-1.04349188506e-06
1.94162871836e-07
-1.13052533585e-06
2.40869104888e-07
-1.22991981818e-06
2.81613383138e-07
-1.32548855224e-06
2.75447556053e-07
-1.41306697612e-06
2.52940155238e-07
-1.48725688412e-06
2.24939963813e-07
-1.55040979674e-06
1.95879445316e-07
-1.60945901345e-06
1.74167885217e-07
-1.65755510117e-06
1.54523746571e-07
-1.66296016166e-06
1.20998796047e-07
-1.64345023869e-06
9.35948891898e-08
-1.66147560071e-06
1.03345916892e-07
-1.73190402142e-06
1.42648528739e-07
-1.84113685507e-06
1.91539431203e-07
-1.94518472345e-06
2.06733426104e-07
-2.01160856737e-06
1.845533842e-07
-2.06105428596e-06
1.62340924381e-07
-2.11109933219e-06
1.47083728835e-07
-2.15730288113e-06
1.32906882505e-07
-2.19623219323e-06
1.19739989508e-07
-2.23068864851e-06
1.06810870699e-07
-2.26183839224e-06
9.40485714644e-08
-2.28924343069e-06
8.20107812546e-08
-2.31348049011e-06
7.20539410137e-08
-2.33346310989e-06
6.2719214999e-08
-2.35087569446e-06
5.48458087636e-08
-2.36752099851e-06
4.74024176186e-08
-2.37829037064e-06
4.01523138645e-08
-2.39083418524e-06
4.33040676518e-08
-2.41000737818e-06
4.58601720443e-08
-2.42322162437e-06
3.65586336745e-08
-2.43222677556e-06
3.06574131784e-08
-2.44305994463e-06
2.74578306177e-08
-2.44984243813e-06
1.34471197092e-08
-2.45022762823e-06
-8.46305613866e-09
-2.44491385377e-06
-2.6182232971e-08
-2.4338976002e-06
-3.56282590923e-08
-2.41879620314e-06
-4.2760071056e-08
-2.40027580528e-06
-5.1798305532e-08
-2.37780203604e-06
-6.29823612343e-08
-2.35128999077e-06
-7.59657899366e-08
-2.32036004768e-06
-9.02393325176e-08
-2.28459298898e-06
-1.05756996671e-07
-2.24412429864e-06
-1.22539839573e-07
-2.19916846471e-06
-1.39388434241e-07
-2.14772494068e-06
-1.55061268744e-07
-2.08495265574e-06
-1.72687636365e-07
-2.01435648417e-06
-1.97753926243e-07
-1.94187229965e-06
-2.24923146368e-07
-1.86274461018e-06
-2.49275497518e-07
-1.77123193618e-06
-2.73861914283e-07
-1.66732159475e-06
-3.0094911555e-07
-1.55194612476e-06
-3.31291885254e-07
-1.42398472992e-06
-3.65408809495e-07
-1.2820894132e-06
-4.04958849866e-07
-1.11364284758e-06
-4.61682141798e-07
-9.16736867011e-07
-5.47066822325e-07
-7.12597595684e-07
-5.94994109327e-07
-5.43400056974e-07
-5.14979406425e-07
-4.30134087726e-07
-3.73650648996e-07
-3.3375836455e-07
-2.91999101335e-07
-2.47160213067e-07
-2.53878520309e-07
-1.7049098454e-07
-2.35615298984e-07
-1.01484810109e-07
-2.21208830032e-07
-4.32498386679e-08
-1.91334988082e-07
1.63969376183e-09
-1.47523327536e-07
3.38670696692e-08
-1.03656673532e-07
5.15343523785e-08
-6.47780288294e-08
5.99247079017e-08
-3.46354134414e-08
6.21337891617e-08
-1.31358059071e-08
5.86053854259e-08
4.42526859999e-09
4.88743971284e-08
2.38097417937e-08
2.35056416974e-08
5.20874469962e-08
6.49494738712e-08
-1.25133503984e-07
6.89901455732e-07
-1.7584212747e-07
5.48326148496e-07
-3.9394393142e-07
7.71269564779e-07
-5.75546627517e-07
7.20905477063e-07
-6.04783398593e-07
5.38090011134e-07
-5.58015843383e-07
2.79090778249e-07
-7.50431060305e-07
3.86635046617e-07
-1.02298212269e-06
5.13498504146e-07
-1.19226259646e-06
4.5096671553e-07
-1.30743990079e-06
3.90688194204e-07
-1.40570212817e-06
3.51255529752e-07
-1.4888254334e-06
3.08107147495e-07
-1.54946183852e-06
2.56554275907e-07
-1.56246608218e-06
1.87207356375e-07
-1.53729026131e-06
1.29381835398e-07
-1.53436356676e-06
1.18106570582e-07
-1.5899997624e-06
1.49264882841e-07
-1.69752996577e-06
2.10910450083e-07
-1.81846212265e-06
2.63614413794e-07
-1.90260189611e-06
2.75712047538e-07
-1.95684850184e-06
2.61010510692e-07
-2.01205349088e-06
2.39787715007e-07
-2.06635413779e-06
2.16668253339e-07
-2.11406326811e-06
1.94818029565e-07
-2.15660051363e-06
1.75466467343e-07
-2.19483963023e-06
1.5800032852e-07
-2.23006291721e-06
1.42052782327e-07
-2.26164711172e-06
1.25650583129e-07
-2.28956849787e-06
1.09947325652e-07
-2.31274133144e-06
9.52405898846e-08
-2.33378862718e-06
8.37779444561e-08
-2.34965483948e-06
7.07223666842e-08
-2.36129877477e-06
5.90555985565e-08
-2.38071105428e-06
5.95737821825e-08
-2.397610718e-06
6.02111150279e-08
-2.41174652613e-06
6.00029086102e-08
-2.43265778709e-06
5.74746979136e-08
-2.4485598282e-06
4.65629254009e-08
-2.45347539357e-06
3.23740512353e-08
-2.45350580586e-06
1.3476782396e-08
-2.45218495613e-06
-9.78731524874e-09
-2.44779301989e-06
-3.05791960151e-08
-2.43805612178e-06
-4.53731241475e-08
-2.42331261585e-06
-5.75133736238e-08
-2.40444885321e-06
-7.06747280501e-08
-2.38157572443e-06
-8.58698607695e-08
-2.35460088545e-06
-1.029574341e-07
-2.3232470887e-06
-1.21611040201e-07
-2.28726925719e-06
-1.4175435681e-07
-2.24656502136e-06
-1.63263942254e-07
-2.2004449912e-06
-1.85528889885e-07
-2.14694084412e-06
-2.08585081645e-07
-2.08484688371e-06
-2.34800274659e-07
-2.01659248837e-06
-2.66023008737e-07
-1.94216944034e-06
-2.99358253654e-07
-1.85815026851e-06
-3.33299153691e-07
-1.76202310331e-06
-3.69989962951e-07
-1.65222573477e-06
-4.1074357188e-07
-1.52725435768e-06
-4.56254532303e-07
-1.38456300358e-06
-5.08089422561e-07
-1.2191202737e-06
-5.70390489267e-07
-1.0310941661e-06
-6.49696765377e-07
-8.48986176766e-07
-7.29166922405e-07
-6.81226271528e-07
-7.62750997378e-07
-5.08874569364e-07
-6.87341673509e-07
-3.70088405238e-07
-5.12453884584e-07
-2.67230741883e-07
-3.94875730946e-07
-1.84037281594e-07
-3.37092058401e-07
-1.14097132871e-07
-3.05574463004e-07
-5.10651050227e-08
-2.84257066436e-07
6.40639488025e-09
-2.48821694602e-07
4.7692922758e-08
-1.88822650194e-07
6.55676792362e-08
-1.21547390458e-07
7.14563925334e-08
-7.06784082572e-08
7.44030130597e-08
-3.75961747671e-08
7.14068513528e-08
-1.01521512653e-08
5.78856076191e-08
1.79355625304e-08
4.18360063967e-08
3.98303379007e-08
2.26103680724e-08
7.13329006545e-08
8.75247953591e-08
-3.28543198529e-08
7.22778053836e-07
-1.55442812356e-07
6.70970737363e-07
-3.32933330423e-07
9.48831925035e-07
-4.7525527411e-07
8.63288189462e-07
-4.71891243628e-07
5.34778186376e-07
-5.83738579066e-07
3.90985146375e-07
-8.13374761104e-07
6.16337074091e-07
-9.87964932263e-07
6.88157838501e-07
-1.1370217421e-06
6.00090775525e-07
-1.2678463247e-06
5.2156874897e-07
-1.38380625592e-06
4.67261601868e-07
-1.45428056908e-06
3.78620173489e-07
-1.45260683586e-06
2.54913951031e-07
-1.44201048419e-06
1.76644514302e-07
-1.48632518022e-06
1.73732489072e-07
-1.5795141035e-06
2.11332237397e-07
-1.69632460243e-06
2.66112419491e-07
-1.79489570048e-06
3.09517238799e-07
-1.85482303546e-06
3.23575175665e-07
-1.90156105019e-06
3.22481017384e-07
-1.95688159299e-06
3.16360555521e-07
-2.01407401575e-06
2.97007805299e-07
-2.06682354543e-06
2.69443635867e-07
-2.11379238101e-06
2.41810227229e-07
-2.15569602749e-06
2.17392041145e-07
-2.19451402784e-06
1.96837960558e-07
-2.22902199369e-06
1.7657963755e-07
-2.26118960858e-06
1.57834632274e-07
-2.28813980408e-06
1.36912135903e-07
-2.31104518806e-06
1.18158441658e-07
-2.32707442023e-06
9.98184593015e-08
-2.34576929176e-06
8.94276885631e-08
-2.3713699056e-06
8.46663157961e-08
-2.38817992836e-06
7.63931127567e-08
-2.40719159579e-06
7.92312415606e-08
-2.4292835104e-06
8.21013367957e-08
-2.44454325897e-06
7.2739264191e-08
-2.45401281376e-06
5.60350140529e-08
-2.45804291619e-06
3.64050395286e-08
-2.45838514189e-06
1.38176129556e-08
-2.45691128448e-06
-1.12644568153e-08
-2.45256280941e-06
-3.49335513769e-08
-2.44335034259e-06
-5.45936699042e-08
-2.42896062287e-06
-7.191400049e-08
-2.41000679437e-06
-8.9641737211e-08
-2.38682065248e-06
-1.09071816526e-07
-2.35940393109e-06
-1.30391764468e-07
-2.32756239327e-06
-1.53472209118e-07
-2.29105934246e-06
-1.78278372767e-07
-2.24956121396e-06
-2.04784351944e-07
-2.2021964187e-06
-2.32916843658e-07
-2.14759378474e-06
-2.63210918651e-07
-2.08528965624e-06
-2.97125586013e-07
-2.01605421536e-06
-3.35276784286e-07
-1.93877427738e-06
-3.76646740477e-07
-1.85031678306e-06
-4.21759819404e-07
-1.74752549848e-06
-4.72775592325e-07
-1.62721172951e-06
-5.31041163537e-07
-1.48599880053e-06
-5.97448908568e-07
-1.32084100164e-06
-6.73225396205e-07
-1.13300655405e-06
-7.58200873441e-07
-9.40860448362e-07
-8.41822215118e-07
-7.7471769335e-07
-8.95294865009e-07
-6.14636535038e-07
-9.22832338012e-07
-4.64906023661e-07
-8.37082369453e-07
-3.27703749139e-07
-6.49674032726e-07
-2.09034649178e-07
-5.13566355366e-07
-1.14705085475e-07
-4.31440853747e-07
-4.09930999266e-08
-3.79303032206e-07
2.28070560902e-08
-3.48071459346e-07
7.35235620894e-08
-2.99548629799e-07
9.2418556532e-08
-2.07730564679e-07
9.36246904633e-08
-1.22759575836e-07
9.54195820105e-08
-7.2487446738e-08
9.41843259848e-08
-3.63728491934e-08
8.36514695794e-08
3.67101395818e-10
6.76073942686e-08
3.39677588092e-08
4.89511212422e-08
5.8493719949e-08
2.39354071683e-08
9.62874036986e-08
1.11471257501e-07
-1.91603208225e-08
7.42007198274e-07
-1.82684999764e-07
8.34544993055e-07
-2.88542910473e-07
1.05474291827e-06
-3.62877268574e-07
9.37675975517e-07
-3.70681703043e-07
5.42619975763e-07
-6.21141365341e-07
6.41497980999e-07
-8.45369839051e-07
8.40629864567e-07
-9.61922515262e-07
8.04774421751e-07
-1.09162528524e-06
7.29845595838e-07
-1.21339643167e-06
6.43390582068e-07
-1.2853393852e-06
5.39245124688e-07
-1.26476208018e-06
3.58073761374e-07
-1.27023621886e-06
2.60418612778e-07
-1.34875147764e-06
2.55193617548e-07
-1.46921740947e-06
2.94235845447e-07
-1.61293413897e-06
3.55088173915e-07
-1.7307484715e-06
3.83963863252e-07
-1.7963824699e-06
3.75184952507e-07
-1.84295165492e-06
3.70175652949e-07
-1.90190721247e-06
3.81466370333e-07
-1.96126614126e-06
3.75747621069e-07
-2.01483276724e-06
3.50600621137e-07
-2.06548747045e-06
3.20122627503e-07
-2.11368693525e-06
2.90032489476e-07
-2.15666669736e-06
2.60392319878e-07
-2.1906134166e-06
2.30803947794e-07
-2.225713204e-06
2.11696602054e-07
-2.25714128503e-06
1.89278384291e-07
-2.28468668207e-06
1.64471549571e-07
-2.3014680411e-06
1.34952101208e-07
-2.31861482127e-06
1.1697636872e-07
-2.33986456173e-06
1.10688342772e-07
-2.36058520444e-06
1.0539757073e-07
-2.39492439783e-06
1.10742190385e-07
-2.42425328434e-06
1.08568515268e-07
-2.44191661896e-06
9.97710228497e-08
-2.45299670347e-06
8.38235681947e-08
-2.46022474398e-06
6.32653903204e-08
-2.46392960119e-06
4.01102303503e-08
-2.46470634101e-06
1.45928032861e-08
-2.46325325253e-06
-1.27213055186e-08
-2.45878294548e-06
-3.94099494939e-08
-2.44977951371e-06
-6.3605976613e-08
-2.43567565189e-06
-8.60293954969e-08
-2.41675950405e-06
-1.08572223097e-07
-2.39334459429e-06
-1.32503374868e-07
-2.36548946001e-06
-1.58265949279e-07
-2.33303519366e-06
-1.85947502991e-07
-2.29570918795e-06
-2.15627393584e-07
-2.25307566649e-06
-2.47442655277e-07
-2.20435553527e-06
-2.81663087404e-07
-2.14862621567e-06
-3.18966291136e-07
-2.08542978277e-06
-3.60346659071e-07
-2.01430082483e-06
-4.06422285738e-07
-1.93312354254e-06
-4.57835057128e-07
-1.83818756603e-06
-5.16694187787e-07
-1.7251809523e-06
-5.85766669454e-07
-1.58955855723e-06
-6.66645220766e-07
-1.42776920332e-06
-7.59207133806e-07
-1.24070774259e-06
-8.60256297409e-07
-1.0398168098e-06
-9.5906599032e-07
-8.48246462071e-07
-1.0333720789e-06
-6.80958638162e-07
-1.06257152202e-06
-5.23033316335e-07
-1.08075154265e-06
-3.74455708755e-07
-9.8567054968e-07
-2.5333735947e-07
-7.70811326199e-07
-1.37226988773e-07
-6.29694593781e-07
-3.3873951141e-08
-5.34814840221e-07
5.05996495559e-08
-4.63792471778e-07
1.1495458189e-07
-4.12435943001e-07
1.40084601628e-07
-3.24686571484e-07
1.32516382108e-07
-2.00163538905e-07
1.26847834995e-07
-1.17105475113e-07
1.23771131725e-07
-6.94154922796e-08
1.17094750325e-07
-2.97090135845e-08
1.02004531027e-07
1.54469227461e-08
8.21798215148e-08
5.37824367726e-08
5.96266374283e-08
8.10101412831e-08
3.10447065968e-08
1.24894227843e-07
1.4248289741e-07
-7.33207693059e-08
8.15341770651e-07
-2.55569369766e-07
1.01683353549e-06
-3.49834299519e-07
1.14904474333e-06
-3.28497738815e-07
9.16379628167e-07
-4.38941340295e-07
6.53106466561e-07
-6.98821327122e-07
9.01436388586e-07
-8.28420744701e-07
9.70290225662e-07
-9.32852827745e-07
9.09254088751e-07
-1.03297418318e-06
8.30019068673e-07
-1.15870637082e-06
7.69157496346e-07
-1.17279916421e-06
5.53370379997e-07
-1.16790994583e-06
3.53211635264e-07
-1.24895670593e-06
3.4149762958e-07
-1.35800279951e-06
3.64276593065e-07
-1.50475022268e-06
4.4102206373e-07
-1.63829925321e-06
4.88673986342e-07
-1.71392352407e-06
4.59621850063e-07
-1.76661438366e-06
4.27907306839e-07
-1.8367145007e-06
4.40306179509e-07
-1.90397571627e-06
4.48756280676e-07
-1.96103773635e-06
4.32836085927e-07
-2.0149552043e-06
4.0454285064e-07
-2.0667543577e-06
3.71945308447e-07
-2.11189637372e-06
3.35195487873e-07
-2.15005209028e-06
2.98567592447e-07
-2.18622819969e-06
2.66998080274e-07
-2.21559136303e-06
2.41076557973e-07
-2.24729239888e-06
2.2099455381e-07
-2.27160546772e-06
1.88797939167e-07
-2.29001242876e-06
1.53370955758e-07
-2.31451911182e-06
1.41494862e-07
-2.34183705731e-06
1.38017523826e-07
-2.37611598303e-06
1.39687548863e-07
-2.40741217805e-06
1.42048282937e-07
-2.43512336393e-06
1.36287564709e-07
-2.45154555882e-06
1.16199036131e-07
-2.46116373136e-06
9.34456612069e-08
-2.46759990834e-06
6.9703634594e-08
-2.47139481267e-06
4.39053189414e-08
-2.4725337483e-06
1.57298601462e-08
-2.47111896073e-06
-1.41402515096e-08
-2.46651388416e-06
-4.40218101322e-08
-2.45756869555e-06
-7.25606876821e-08
-2.44365012155e-06
-9.99604168121e-08
-2.42478879918e-06
-1.27448643716e-07
-2.40117209729e-06
-1.56137953859e-07
-2.3728251333e-06
-1.86633230308e-07
-2.33958123368e-06
-2.19214409578e-07
-2.30115209281e-06
-2.54082001755e-07
-2.2571166051e-06
-2.91506239163e-07
-2.20685557485e-06
-3.31954270412e-07
-2.14964542014e-06
-3.76207214123e-07
-2.0847098367e-06
-4.2530879964e-07
-2.01057251422e-06
-4.80582194042e-07
-1.92411502039e-06
-5.4429982079e-07
-1.82067233797e-06
-6.20129316296e-07
-1.69481305863e-06
-7.11615623419e-07
-1.54188635312e-06
-8.19535347373e-07
-1.36148767085e-06
-9.395760049e-07
-1.1610138566e-06
-1.06069838328e-06
-9.58873756299e-07
-1.16118061262e-06
-7.72847216835e-07
-1.21937979452e-06
-5.96572171948e-07
-1.23883065075e-06
-4.5147633279e-07
-1.2258468535e-06
-2.9140490801e-07
-1.14575050658e-06
-1.5876996104e-07
-9.03457827467e-07
-4.60366064574e-08
-7.42451722645e-07
6.55564530604e-08
-6.46426823072e-07
1.59939447335e-07
-5.58187563429e-07
2.08845054785e-07
-4.6134723737e-07
2.01125619183e-07
-3.1696586562e-07
1.79666795097e-07
-1.78717600429e-07
1.64492788435e-07
-1.01928288098e-07
1.5262236331e-07
-5.75592506575e-08
1.41653790977e-07
-1.87474551288e-08
1.27793765661e-07
2.92931450985e-08
1.04793268726e-07
7.67665193821e-08
7.4669793804e-08
1.1114273151e-07
4.11129034843e-08
1.58385649629e-07
1.83609981822e-07
-1.24656394183e-07
9.40067482079e-07
-2.78064276024e-07
1.17028313867e-06
-3.32625222815e-07
1.20364968531e-06
-2.68241299809e-07
8.52026735161e-07
-4.79425771365e-07
8.64334091114e-07
-6.87599029837e-07
1.10966674607e-06
-7.96164942822e-07
1.07890273272e-06
-9.07681330807e-07
1.0208181951e-06
-9.61383773418e-07
8.83750551768e-07
-1.01896762318e-06
8.26777751146e-07
-1.02255205996e-06
5.56977668452e-07
-1.13384816193e-06
4.64537349047e-07
-1.23926726321e-06
4.46949344658e-07
-1.38193607671e-06
5.06981219794e-07
-1.5296851425e-06
5.88808565731e-07
-1.61585415148e-06
5.74876590121e-07
-1.67303370603e-06
5.16831475762e-07
-1.7541649693e-06
5.09068176758e-07
-1.83620895852e-06
5.22379201517e-07
-1.90082748016e-06
5.13401827213e-07
-1.95641669194e-06
4.8845065688e-07
-2.00934062621e-06
4.57490837124e-07
-2.0633340137e-06
4.25959838043e-07
-2.11445742264e-06
3.86338754608e-07
-2.1502479556e-06
3.34376649795e-07
-2.18819582368e-06
3.04962840732e-07
-2.21976985225e-06
2.72666310294e-07
-2.23626909269e-06
2.37508237907e-07
-2.25969514887e-06
2.12237107131e-07
-2.30353159255e-06
1.97219830072e-07
-2.33600529526e-06
1.73980340607e-07
-2.35475666369e-06
1.56780932512e-07
-2.38805866403e-06
1.73000608773e-07
-2.42378121993e-06
1.77780208773e-07
-2.44520633416e-06
1.57720129447e-07
-2.45961969253e-06
1.3061786831e-07
-2.46960499697e-06
1.0343468011e-07
-2.47632417674e-06
7.64246363557e-08
-2.48036641593e-06
4.79474767914e-08
-2.48179119461e-06
1.71523860696e-08
-2.48043791395e-06
-1.54981536364e-08
-2.47573755286e-06
-4.87294986966e-08
-2.46680944857e-06
-8.14990362646e-08
-2.45302069974e-06
-1.1376231927e-07
-2.43419859482e-06
-1.46286911142e-07
-2.41035803497e-06
-1.79997515713e-07
-2.38142779753e-06
-2.15585566243e-07
-2.3471985539e-06
-2.53468758901e-07
-2.30738512045e-06
-2.93923917575e-07
-2.26163257238e-06
-3.37290146529e-07
-2.20945203992e-06
-3.84168479143e-07
-2.15013792774e-06
-4.35553513219e-07
-2.08250610165e-06
-4.92972401041e-07
-2.00425537628e-06
-5.58848092031e-07
-1.91145516926e-06
-6.37112129882e-07
-1.79875420668e-06
-7.32833003827e-07
-1.66045218122e-06
-8.49886807925e-07
-1.49317626733e-06
-9.86799838963e-07
-1.29987281143e-06
-1.13285664969e-06
-1.09050610069e-06
-1.27004887763e-06
-8.82719394196e-07
-1.36895211347e-06
-6.87821071446e-07
-1.41426502334e-06
-5.16999547283e-07
-1.40964327811e-06
-3.82719522493e-07
-1.36012311526e-06
-2.4212352125e-07
-1.2863477392e-06
-6.38927609182e-08
-1.08170497364e-06
6.13283385926e-08
-8.67686034942e-07
1.74885818567e-07
-7.60006578779e-07
2.70203612038e-07
-6.5352796757e-07
3.02665906351e-07
-4.93809148151e-07
2.75228562661e-07
-2.89532988571e-07
2.35369046877e-07
-1.38847330233e-07
1.98471397028e-07
-6.50464393194e-08
1.76191231172e-07
-3.52797746429e-08
1.69713501336e-07
-1.22816829256e-08
1.64134391076e-07
3.48605953908e-08
1.39126943041e-07
1.01760227369e-07
9.67830563663e-08
1.53442236559e-07
5.12444961924e-08
2.0395603085e-07
2.3482429447e-07
-1.54489295021e-07
1.09456861785e-06
-2.71076609543e-07
1.28690632265e-06
-2.84332001926e-07
1.21693054886e-06
-3.22451771677e-07
8.90178986983e-07
-5.45235955878e-07
1.08716126472e-06
-6.51552261784e-07
1.21602761487e-06
-7.54297838114e-07
1.18168801924e-06
-8.64129731054e-07
1.13068173004e-06
-9.24411430925e-07
9.4406435114e-07
-9.85062254988e-07
8.87452987866e-07
-1.02755113776e-06
5.9949222745e-07
-1.13004883898e-06
5.67061954143e-07
-1.25286968741e-06
5.69804879766e-07
-1.4069043602e-06
6.6105197795e-07
-1.53312172874e-06
7.15056627514e-07
-1.60299891355e-06
6.44782446858e-07
-1.66672977691e-06
5.80590245738e-07
-1.74936021517e-06
5.91726887081e-07
-1.827919881e-06
6.00966259705e-07
-1.89577773231e-06
5.81285970046e-07
-1.95474215733e-06
5.47440000556e-07
-2.0045131398e-06
5.07282963229e-07
-2.04872850224e-06
4.70194705096e-07
-2.09497995043e-06
4.32608078053e-07
-2.13695527133e-06
3.76368410751e-07
-2.16725493008e-06
3.35278846996e-07
-2.20542462353e-06
3.10850870095e-07
-2.24507143604e-06
2.77169138243e-07
-2.27817894479e-06
2.45357155057e-07
-2.30691297085e-06
2.25966333139e-07
-2.33940692844e-06
2.06487182818e-07
-2.3860163272e-06
2.03402873113e-07
-2.41536038371e-06
2.02355841733e-07
-2.43604742137e-06
1.98476402779e-07
-2.45409678866e-06
1.75776421019e-07
-2.46853849607e-06
1.4506480097e-07
-2.47917251027e-06
1.14072185977e-07
-2.48637402147e-06
8.36279499645e-08
-2.49069378509e-06
5.22669716612e-08
-2.49235474412e-06
1.88108676673e-08
-2.4911319336e-06
-1.67260803485e-08
-2.48644173587e-06
-5.34275995988e-08
-2.47755316973e-06
-9.03984790004e-08
-2.46387856142e-06
-1.27450871842e-07
-2.44508895912e-06
-1.65093553299e-07
-2.42099247737e-06
-2.04114382066e-07
-2.39137632523e-06
-2.45225393711e-07
-2.35596356245e-06
-2.88909150904e-07
-2.31446191957e-06
-3.35456129801e-07
-2.26657787142e-06
-3.8520905395e-07
-2.21190296402e-06
-4.38878337151e-07
-2.14967921953e-06
-4.97816415571e-07
-2.07837859575e-06
-5.64298476154e-07
-1.9952672838e-06
-6.41996032498e-07
-1.89619611731e-06
-7.36202106859e-07
-1.77606368123e-06
-8.52964200558e-07
-1.62945012161e-06
-9.96526023629e-07
-1.45255173102e-06
-1.16369941365e-06
-1.2491960269e-06
-1.33622456565e-06
-1.02657171929e-06
-1.49268436907e-06
-8.0523612323e-07
-1.59029644948e-06
-5.97894351393e-07
-1.62160682889e-06
-4.17674500542e-07
-1.58986015555e-06
-2.69497132387e-07
-1.50829345263e-06
-1.64616212849e-07
-1.39122950735e-06
-9.63604332594e-09
-1.23668125457e-06
1.62927556692e-07
-1.04028537254e-06
2.83562870711e-07
-8.80695673485e-07
3.93636287387e-07
-7.636304117e-07
4.28572449762e-07
-5.28765816315e-07
3.77156126276e-07
-2.38109573145e-07
2.9260810445e-07
-5.43123061328e-08
2.15959507295e-07
1.16081426745e-08
1.83017288971e-07
-2.34798875514e-09
1.98144876788e-07
-2.74160606414e-08
2.15148132936e-07
1.78380555074e-08
1.85458731905e-07
1.31429873147e-07
1.27912968629e-07
2.11001946361e-07
6.15600012448e-08
2.70250809772e-07
2.96406303511e-07
-1.70705585166e-07
1.26534913977e-06
-2.83119958237e-07
1.39936576763e-06
-2.65008225358e-07
1.19885419903e-06
-3.74436338692e-07
9.99636062635e-07
-5.61754067947e-07
1.27451586356e-06
-6.19533181551e-07
1.27383868886e-06
-7.07460444586e-07
1.26965154575e-06
-7.72549928646e-07
1.19579515066e-06
-8.63338453695e-07
1.03487788862e-06
-8.95848289922e-07
9.19986648084e-07
-9.97807195303e-07
7.01473395158e-07
-1.12088948862e-06
6.9017500619e-07
-1.25449996314e-06
7.03444014025e-07
-1.39729283669e-06
8.03875132814e-07
-1.4894203121e-06
8.0721253182e-07
-1.55069494953e-06
7.06080560383e-07
-1.64328908769e-06
6.73209553276e-07
-1.73515274627e-06
6.83616863141e-07
-1.81247765385e-06
6.78317001038e-07
-1.88431322038e-06
6.53145962964e-07
-1.95229565092e-06
6.15443486749e-07
-2.01114198897e-06
5.66149901927e-07
-2.05036653631e-06
5.09437534529e-07
-2.08264204305e-06
4.64899702906e-07
-2.13498959838e-06
4.28732063614e-07
-2.17321144329e-06
3.73515698744e-07
-2.19092594796e-06
3.28579505504e-07
-2.21751720589e-06
3.03773151303e-07
-2.25768962264e-06
2.85542990622e-07
-2.30764683316e-06
2.75936662708e-07
-2.35423262876e-06
2.53086380704e-07
-2.39150517843e-06
2.4068845576e-07
-2.42749242966e-06
2.38354414283e-07
-2.44921774573e-06
2.20210324602e-07
-2.46520196185e-06
1.91767375626e-07
-2.47906695465e-06
1.58934881433e-07
-2.49011878031e-06
1.25127626547e-07
-2.49782082075e-06
9.13316649835e-08
-2.50241009689e-06
5.68559029077e-08
-2.50422807904e-06
2.06259888165e-08
-2.50314460307e-06
-1.78150075056e-08
-2.49857054686e-06
-5.80100568111e-08
-2.48980318018e-06
-9.91773228657e-08
-2.47626926045e-06
-1.40999590822e-07
-2.45753531112e-06
-1.83845785233e-07
-2.43320044958e-06
-2.28471068976e-07
-2.40284250258e-06
-2.75609301638e-07
-2.36606271915e-06
-3.25718243391e-07
-2.32254552926e-06
-3.79007357717e-07
-2.27203117811e-06
-4.35758541101e-07
-2.21416085928e-06
-4.96789442837e-07
-2.1481316858e-06
-5.63878707774e-07
-2.07232982227e-06
-6.40139218848e-07
-1.98417068982e-06
-7.30186374096e-07
-1.88050485887e-06
-8.39904550368e-07
-1.75792204782e-06
-9.75594300952e-07
-1.60991832438e-06
-1.14452659762e-06
-1.42656458928e-06
-1.34712276215e-06
-1.21425103147e-06
-1.54859441941e-06
-9.7065938732e-07
-1.73627530071e-06
-7.30042390117e-07
-1.83088196977e-06
-4.97038658865e-07
-1.85457288332e-06
-2.84824353336e-07
-1.80203610351e-06
-1.07669869734e-07
-1.68541423036e-06
1.30982615811e-08
-1.51196270538e-06
9.31902040606e-08
-1.31679171209e-06
1.62378819047e-07
-1.10953164406e-06
3.54705807477e-07
-1.07309572571e-06
5.39124308266e-07