/*--------------------------------*- C++ -*----------------------------------*\
| =========                 |                                                 |
| \\      /  F ield         | OpenFOAM: The Open Source CFD Toolbox           |
|  \\    /   O peration     | Version:  v1806                                 |
|   \\  /    A nd           | Web:      www.OpenFOAM.com                      |
|    \\/     M anipulation  |                                                 |
\*---------------------------------------------------------------------------*/
FoamFile
{
    version     2.0;
    format      ascii;
    class       volVectorField;
    location    "862";
    object      Ua;
}
// * * * * * * * * * * * * * * * * * * * * * * * * * * * * * * * * * * * * * //

dimensions      [0 1 -1 0 0 0 0];


internalField   nonuniform List<vector> 
6400
(
(1.85037586309e-05 2.58468889133e-05 0)
(5.01181168184e-05 1.92989062631e-05 0)
(7.36412292462e-05 1.56394892799e-05 0)
(9.8685164495e-05 1.42349791893e-05 0)
(0.000118465442451 1.05585924513e-05 0)
(0.000134506465807 7.847999696e-06 0)
(0.000146547978531 7.25817619529e-06 0)
(0.000158883348155 9.63901399207e-06 0)
(0.000181246356742 1.25092658542e-05 0)
(0.000204999633481 1.28708625693e-05 0)
(0.000222069922263 1.25595729106e-05 0)
(0.00024622212391 1.35603690153e-05 0)
(0.000270823341222 1.38611565556e-05 0)
(0.000294705413279 1.37271239778e-05 0)
(0.000317787194727 1.41441440284e-05 0)
(0.000342911880488 1.55817364071e-05 0)
(0.000371533518533 1.65239075118e-05 0)
(0.00040013810517 1.66087236321e-05 0)
(0.000427797215211 1.65670270359e-05 0)
(0.000457086410659 1.72914073797e-05 0)
(0.000490814045386 1.96970185579e-05 0)
(0.000528346170216 2.18781389096e-05 0)
(0.000567361568809 2.26201222675e-05 0)
(0.000605735829647 2.27074856512e-05 0)
(0.000643904342521 2.25830372224e-05 0)
(0.000682533566115 2.24786943428e-05 0)
(0.000722229358896 2.28026675075e-05 0)
(0.000762191688181 2.30322714893e-05 0)
(0.000801732171768 2.30411507074e-05 0)
(0.000840879064016 2.31038195795e-05 0)
(0.000879615637172 2.34956526517e-05 0)
(0.000919451118189 2.37639069317e-05 0)
(0.000960569862943 2.39058529261e-05 0)
(0.00100185602106 2.45968628189e-05 0)
(0.0010439928296 2.52088696594e-05 0)
(0.00108871810321 2.56402532468e-05 0)
(0.00113258978234 2.60223637459e-05 0)
(0.0011724599608 2.56979130208e-05 0)
(0.00121528751691 2.50552328049e-05 0)
(0.00126021741365 2.45945868428e-05 0)
(0.00130116277698 2.47101052784e-05 0)
(0.00133630467235 2.38452984037e-05 0)
(0.00136915655604 2.14174670002e-05 0)
(0.00140110463639 1.96133877586e-05 0)
(0.00143082762106 1.86329465468e-05 0)
(0.0014582945818 1.75559908161e-05 0)
(0.00148328336772 1.63582364212e-05 0)
(0.00150528039301 1.48497526691e-05 0)
(0.00152425241562 1.33197080452e-05 0)
(0.00154000292594 1.2707854648e-05 0)
(0.00155376657314 1.32313847992e-05 0)
(0.00156829476426 1.23568151368e-05 0)
(0.00157864818927 8.24128437993e-06 0)
(0.00158640270409 5.55852530192e-06 0)
(0.00158499875902 2.93566033071e-06 0)
(0.00156892261769 -1.16802580506e-06 0)
(0.00155161718077 -6.54105165397e-07 0)
(0.00154614565394 2.15448949557e-06 0)
(0.00154327757343 1.22304172779e-06 0)
(0.00152310637897 5.40652191666e-07 0)
(0.00150652671917 4.80172218759e-06 0)
(0.00149763606232 3.42791106937e-06 0)
(0.00153632744413 -1.03424951684e-05 0)
(0.00151885355853 -3.61849952449e-05 0)
(0.00132990472919 -4.47579951686e-05 0)
(0.00118358548109 -3.68704347511e-05 0)
(0.00111068947656 -3.88914348958e-05 0)
(0.0010579657679 -4.04250514297e-05 0)
(0.00100149859408 -4.35170178485e-05 0)
(0.000913345126582 -4.86269213843e-05 0)
(0.000815659535966 -5.20641888396e-05 0)
(0.000698132328723 -5.21763826271e-05 0)
(0.000583761655146 -5.25766756663e-05 0)
(0.000506285224261 -5.64237844528e-05 0)
(0.00036935168172 -4.43040481281e-05 0)
(0.00031673415038 -3.82153201899e-05 0)
(0.000204514554111 -2.31351341859e-05 0)
(0.000208715563624 -3.10080263787e-05 0)
(8.82994775681e-05 -2.13785357163e-05 0)
(6.56862327626e-05 -3.90219829439e-05 0)
(7.15306196959e-06 3.68939958266e-05 0)
(3.08248783789e-05 4.08644495181e-05 0)
(5.40893203841e-05 3.69254802577e-05 0)
(7.0424392275e-05 3.05203775611e-05 0)
(0.000100746031172 3.0647619509e-05 0)
(0.000127674882787 2.40515203218e-05 0)
(0.000145927453219 1.99253297451e-05 0)
(0.000162441733187 2.57615232543e-05 0)
(0.000181480080124 3.17171570509e-05 0)
(0.000202695818171 3.28094387036e-05 0)
(0.000224174448486 3.29482085027e-05 0)
(0.000245731434205 3.40091662002e-05 0)
(0.000267900484908 3.43266909746e-05 0)
(0.000290667684866 3.44661821989e-05 0)
(0.000315130831697 3.60714564529e-05 0)
(0.000341278121814 4.09058630307e-05 0)
(0.000369048118871 4.43486482613e-05 0)
(0.000396375858147 4.26287401288e-05 0)
(0.00041821634012 4.15475478439e-05 0)
(0.000449319822523 4.47295341109e-05 0)
(0.000485961807667 5.11792043539e-05 0)
(0.000524973725853 5.74704388703e-05 0)
(0.000565585084739 5.92323364409e-05 0)
(0.000604638753845 5.79749847116e-05 0)
(0.000640238666376 5.71628079134e-05 0)
(0.000680110858847 5.76800275174e-05 0)
(0.000720489273091 5.81257149615e-05 0)
(0.000759881097943 5.81299251205e-05 0)
(0.00079917151003 5.8050288345e-05 0)
(0.000838748517692 5.82220714428e-05 0)
(0.000878202046439 5.89165108285e-05 0)
(0.000916440389247 5.92987807372e-05 0)
(0.000957620350856 5.92803355852e-05 0)
(0.000998870072666 6.12239354474e-05 0)
(0.0010405109256 6.34625822736e-05 0)
(0.0010875699294 6.36834397203e-05 0)
(0.00113058834922 6.39092358949e-05 0)
(0.00117059701322 6.37213485656e-05 0)
(0.00121509517206 6.2153369569e-05 0)
(0.00126315549024 5.95092279392e-05 0)
(0.00130480781219 5.50834104466e-05 0)
(0.0013268208759 4.98209825859e-05 0)
(0.00135234574703 4.61873170504e-05 0)
(0.00138607599927 4.38791565307e-05 0)
(0.00141701408332 4.14938975447e-05 0)
(0.00144675638179 3.85558070117e-05 0)
(0.00147473858974 3.49049062388e-05 0)
(0.00149881667041 3.0637743302e-05 0)
(0.00152185723283 2.61160333158e-05 0)
(0.00154128560867 2.18519565229e-05 0)
(0.00155318815502 1.83656268121e-05 0)
(0.00155382843673 1.50626252433e-05 0)
(0.0015576972772 1.12437019768e-05 0)
(0.00158657609843 4.2251853797e-06 0)
(0.00158098957357 -7.54142120927e-06 0)
(0.00157085007778 -1.59014476513e-05 0)
(0.00157339065634 -1.57272899752e-05 0)
(0.0015684100458 -1.38306942478e-05 0)
(0.00155792057514 -1.70332983306e-05 0)
(0.00154844922919 -2.05012888561e-05 0)
(0.00153593582707 -2.14276787987e-05 0)
(0.00148942741789 -2.65040388473e-05 0)
(0.00152519549094 -6.47439195525e-05 0)
(0.001484611343 -0.000138280899157 0)
(0.00132369959225 -0.000173021440493 0)
(0.00112247008683 -0.000143826929917 0)
(0.00101812827992 -0.000110286581233 0)
(0.00101182542077 -0.00010462016484 0)
(0.000961248112181 -0.000121866578067 0)
(0.000895794404873 -0.000149246075578 0)
(0.000789107490224 -0.000166692034437 0)
(0.000667754067385 -0.000165610745799 0)
(0.000539878201685 -0.000144486492748 0)
(0.000479334755959 -0.000139240713256 0)
(0.000401146263318 -0.000126939238866 0)
(0.000333017877419 -0.000112706331805 0)
(0.000265731795657 -9.34930649276e-05 0)
(0.000206088155987 -9.28706815874e-05 0)
(0.000125635476307 -9.58132097513e-05 0)
(5.7644276822e-05 -0.000153912630384 0)
(9.91030012251e-06 6.32191394856e-05 0)
(2.82647245156e-05 6.75975899628e-05 0)
(4.42627985103e-05 6.36937850904e-05 7.08995461063e-29)
(7.44775665922e-05 6.4013927872e-05 -6.43943664347e-29)
(0.000103051065349 6.35384571744e-05 -5.55752785919e-29)
(0.000122376205168 5.47191608868e-05 5.02508339913e-29)
(0.000137725395077 4.00890824228e-05 -4.98669713781e-29)
(0.000154338059422 4.53325786437e-05 4.76328047466e-29)
(0.000174109392904 5.33971022583e-05 0)
(0.000195886712613 5.60786385018e-05 0)
(0.000218094532784 5.63942031624e-05 0)
(0.000239824437018 5.65857269297e-05 0)
(0.000261619974832 5.70514389246e-05 0)
(0.000283922842287 5.90123260629e-05 0)
(0.000308507706971 6.3230670686e-05 0)
(0.000334818969743 6.6670970355e-05 0)
(0.000337641473766 6.35480037689e-05 0)
(0.000350485571378 6.24025932724e-05 0)
(0.000380462928208 6.90707395617e-05 0)
(0.000422439108491 8.24958710797e-05 0)
(0.000480871007494 9.63592621753e-05 0)
(0.000524340041878 0.000100851022093 0)
(0.000558366628401 9.95431901284e-05 0)
(0.000596945479415 9.80625026216e-05 0)
(0.000636960350945 9.79207129787e-05 0)
(0.000675565582894 9.85503842637e-05 0)
(0.000714447503994 9.88222020072e-05 0)
(0.000754051681521 9.89516958844e-05 0)
(0.000793740979046 9.92001151944e-05 0)
(0.000833296444134 9.97221262594e-05 8.03504521941e-29)
(0.000873703187131 0.000100357547166 -7.7474888387e-29)
(0.000910697543638 0.000100763437962 0)
(0.000951622865587 0.000101744572586 0)
(0.000997331786291 0.000104014518651 0)
(0.00103274684626 0.00010789548047 0)
(0.00108047731387 0.000110789975567 0)
(0.00113092413131 0.00010994272153 0)
(0.00116702243519 0.000108814792322 0)
(0.00121239887972 0.00010855183391 0)
(0.00126111622445 0.000103946414674 0)
(0.00130294862386 9.36020358907e-05 0)
(0.00133760050907 8.41516252366e-05 0)
(0.00137014934528 7.9954076765e-05 0)
(0.00140222833083 7.7222323543e-05 0)
(0.00143222979934 7.33253000458e-05 0)
(0.00145972132576 6.8402924093e-05 0)
(0.00148478012828 6.23769605749e-05 0)
(0.00150736248343 5.5696397544e-05 0)
(0.00152753008495 4.83779877744e-05 0)
(0.00154494770348 4.00262861468e-05 0)
(0.00155911864523 3.15333270889e-05 0)
(0.00157031563508 2.5594155076e-05 0)
(0.00157948908754 2.19825866785e-05 0)
(0.00158136949238 1.10412933782e-05 0)
(0.00157553374657 -4.74937845507e-06 0)
(0.00157771864634 -1.33836706101e-05 0)
(0.00157735344153 -1.64529722223e-05 0)
(0.00157004563476 -1.95318781129e-05 0)
(0.00155903178144 -2.3906020152e-05 0)
(0.00154592807922 -2.95758475257e-05 0)
(0.00152529121718 -3.94215570397e-05 0)
(0.00150862232356 -5.98720234749e-05 0)
(0.00148643171877 -0.000139962612377 0)
(0.00136441105037 -0.000254640835462 0)
(0.001150724043 -0.00026818003829 0)
(0.00105641625492 -0.000224149612687 0)
(0.00101884791002 -0.000183033967891 0)
(0.000953973609574 -0.000171326392851 0)
(0.00088633451485 -0.000199386063835 0)
(0.000803974632668 -0.000239187964853 0)
(0.000700497941823 -0.000257778832951 0)
(0.000603704756916 -0.0002469094171 0)
(0.000541834086969 -0.00022871656757 0)
(0.000479972671842 -0.000220331420314 0)
(0.00039883482065 -0.000209833990146 0)
(0.00031719476705 -0.000188270101362 0)
(0.000242949068513 -0.000163990954386 0)
(0.000183344152587 -0.000169659064848 0)
(0.000125782138756 -0.000214896423724 0)
(3.18107058891e-05 -0.000210057885997 0)
(8.70706948346e-06 9.05013788417e-05 0)
(1.34862143744e-05 6.50005296209e-05 0)
(3.35673334008e-05 9.30724630481e-05 0)
(6.04226968106e-05 9.32901924178e-05 0)
(8.67188291936e-05 8.335246813e-05 0)
(5.66444282421e-05 3.97145843078e-05 0)
(7.3166461439e-05 4.48722288375e-05 0)
(0.000130534141958 7.76267496983e-05 0)
(0.000159810610069 8.2612559369e-05 0)
(0.000184274961447 8.07027669505e-05 0)
(0.000208175142327 7.98825648845e-05 0)
(0.00023078745231 7.89369734526e-05 0)
(0.000252692500783 7.95554956369e-05 0)
(0.000273117892849 8.04276905282e-05 0)
(0.000281168261593 7.76806950122e-05 0)
(0.000288954641008 7.53767355921e-05 0)
(0.000307721667453 7.85966157715e-05 0)
(0.000342135913202 9.24160408822e-05 0)
(0.00039425033947 0.000114516395179 0)
(0.00044357816434 0.000133731617739 0)
(0.000478146493294 0.000139864311335 0)
(0.000514063086929 0.000139172432503 0)
(0.000552179914891 0.000138049171266 0)
(0.000590168996024 0.000137435401323 0)
(0.000628212946115 0.000137072645658 0)
(0.000666480438392 0.00013720392502 0)
(0.000705263876156 0.000137828393612 0)
(0.000745706919728 0.000138605779502 0)
(0.000785044453343 0.00013903550163 0)
(0.000826342659074 0.000139921863662 0)
(0.000864187789005 0.000140355022651 0)
(0.00090610513236 0.000141167070213 0)
(0.000941574026326 0.000141267837186 0)
(0.000986313400564 0.000145922189096 0)
(0.00103713699066 0.000152837082669 0)
(0.0010757571408 0.000156258264227 0)
(0.00112594217818 0.000156549612373 0)
(0.00117584033751 0.000155055012931 0)
(0.00121900822142 0.000152520384374 0)
(0.00126055248179 0.000145111887043 0)
(0.00130038848153 0.000132970420044 0)
(0.00133699304734 0.000121297581978 0)
(0.0013712203606 0.000113499187976 0)
(0.00140366772273 0.000107713636519 0)
(0.00143376278434 0.000101502089366 0)
(0.00146132409619 9.42498287519e-05 -6.49571482758e-29)
(0.00148641192983 8.59839390439e-05 6.5192201867e-29)
(0.00150901222119 7.68993858832e-05 0)
(0.00152910214676 6.70237807634e-05 0)
(0.00154649325797 5.63942038726e-05 0)
(0.00156086588123 4.58133528295e-05 0)
(0.00157190420641 3.61320769353e-05 0)
(0.00157920792125 2.55776829794e-05 0)
(0.00158173148807 1.12059763415e-05 0)
(0.00158127485796 -3.23722821447e-06 0)
(0.00158065870832 -1.35729060795e-05 0)
(0.00157758708333 -2.15764576348e-05 0)
(0.00156936289259 -2.9135015808e-05 -1.18606383856e-28)
(0.0015560727114 -3.74847622798e-05 1.35843870403e-28)
(0.00153675637451 -4.89981244204e-05 0)
(0.00150755752862 -7.02410508005e-05 0)
(0.00146456680676 -0.000124372223913 0)
(0.00138001729135 -0.000244805690796 0)
(0.00127014099775 -0.000372789173372 0)
(0.00118269040177 -0.000392442716721 0)
(0.00101634528487 -0.000294142134328 0)
(0.000927974855751 -0.000240593762726 0)
(0.000873384790877 -0.000241386669993 0)
(0.000812916378239 -0.000276187318707 0)
(0.000756601147304 -0.000329342861526 0)
(0.000679686857959 -0.000354488722556 0)
(0.000597300319107 -0.000339848603247 0)
(0.000511837931647 -0.000315412213704 0)
(0.00040531472934 -0.000289222200726 0)
(0.000327497765832 -0.000278108756856 0)
(0.000256140880495 -0.000268994216484 0)
(0.000180320618293 -0.000238721116484 0)
(0.000103228578576 -0.000189174210401 0)
(7.50462394728e-05 -0.000237121497677 0)
(2.50741998515e-05 -0.000272422540945 0)
(1.61806147313e-07 9.14545849227e-05 0)
(6.35095398464e-06 7.77903280485e-05 0)
(2.74535315998e-05 0.000117474752213 0)
(4.83604593897e-05 0.000112526823631 0)
(5.5791910856e-05 8.40827628462e-05 0)
(4.79048837875e-05 5.45512799063e-05 0)
(8.40837426811e-05 8.6002739038e-05 0)
(0.000122879244046 0.00011426878645 0)
(0.000143433822394 0.000110913678964 0)
(0.00016864578935 0.000106625843959 0)
(0.000193705581976 0.000105480007658 0)
(0.000216946158546 0.000103539848141 0)
(0.000231259715872 9.72603939768e-05 0)
(0.000231279458548 8.72878269312e-05 0)
(0.000248814716253 8.98627506843e-05 0)
(0.000278109595109 0.000101014241188 0)
(0.000318205277261 0.000118780983672 0)
(0.000363066536766 0.000141073640176 0)
(0.000401495760698 0.000158951381042 0)
(0.00043120536449 0.0001674909168 0)
(0.000465774415294 0.000173663676002 0)
(0.000503596970989 0.000177026514012 0)
(0.000540832004105 0.00017689256769 0)
(0.000578464009156 0.000175911186985 0)
(0.000616273132214 0.00017548607376 0)
(0.000654282653481 0.000176169460218 0)
(0.000694320057772 0.000177601840258 0)
(0.000732849391719 0.000178390670696 0)
(0.000775313475508 0.00017969819582 0)
(0.000812626010652 0.000179744215311 0)
(0.000856627137729 0.00018136167101 7.7082054514e-29)
(0.000887590582788 0.000180479740656 -7.37310291804e-29)
(0.000936643562164 0.000185460935645 0)
(0.000986931528683 0.000192213517276 0)
(0.00102853905668 0.000198404974721 0)
(0.00108156299134 0.000204927747334 0)
(0.00112956664092 0.000205974088856 0)
(0.00117465662808 0.000201275566442 0)
(0.00121763543174 0.000194241476102 0)
(0.00125910973552 0.000184679154428 0)
(0.00129913533605 0.000172032555685 0)
(0.00133691809424 0.000159044784771 0)
(0.00137231229662 0.000148357168648 0)
(0.00140535279175 0.000139398133419 0)
(0.00143579850877 0.00013045563912 0)
(0.00146360766825 0.000120716105498 0)
(0.00148883952588 0.000110036023358 0)
(0.00151149019261 9.84846216575e-05 0)
(0.00153149765774 8.607331732e-05 0)
(0.00154870371305 7.28902145614e-05 0)
(0.00156283243199 5.93585459136e-05 0)
(0.00157346982811 4.56558681759e-05 0)
(0.0015801469033 3.07543399237e-05 0)
(0.00158274373534 1.39991942571e-05 0)
(0.00158267904578 -2.20234369564e-06 0)
(0.0015810027311 -1.59562740209e-05 0)
(0.00157561976862 -2.86231606199e-05 0)
(0.00156371570827 -4.21281267382e-05 0)
(0.00154323403386 -5.88004406284e-05 0)
(0.00151069342555 -8.39167212073e-05 0)
(0.00146029817833 -0.000129215754596 0)
(0.00138581008071 -0.000213847665646 0)
(0.00127740240492 -0.000339132537059 0)
(0.00120711624215 -0.00045142627182 0)
(0.00116097945564 -0.000484203331712 0)
(0.00102674041408 -0.000410747749484 0)
(0.000911762415134 -0.000344546630044 0)
(0.000819370287933 -0.000322994292434 0)
(0.000742446244885 -0.000344581733716 0)
(0.000683300768961 -0.00039420534239 0)
(0.000623612892596 -0.000435567593644 0)
(0.00053822526461 -0.000431850752017 0)
(0.00042389249451 -0.000388688079048 0)
(0.000344349504448 -0.000370369359629 0)
(0.000269871506257 -0.000364208103087 0)
(0.000196312302855 -0.000348848187152 0)
(0.000128077656439 -0.000285327428424 0)
(8.06747604201e-05 -0.000240228173015 0)
(5.0050797653e-05 -0.000294363367072 0)
(1.22296473816e-05 -0.000301596837602 0)
(-1.06851678078e-06 8.54201215041e-05 0)
(6.60189998985e-06 9.19498991516e-05 0)
(2.50623805506e-05 0.000131833872976 0)
(3.6823558677e-05 0.000118973268693 0)
(2.97096822083e-05 6.86431801794e-05 0)
(4.40349048475e-05 7.44239187456e-05 0)
(9.19390341849e-05 0.0001258263678 0)
(0.000109480532581 0.000134891237506 0)
(0.000127564265658 0.000133639657256 0)
(0.000150131493709 0.000132821880428 0)
(0.000174636510942 0.00012812680281 0)
(0.000178218778604 0.00011179172089 0)
(0.000174783701429 9.51599868106e-05 0)
(0.000196650625664 0.000101588893923 0)
(0.000226888120184 0.000118547813426 0)
(0.000272061735962 0.000142699013986 0)
(0.000317504757605 0.000164022875398 0)
(0.000354477099008 0.000178723412195 0)
(0.00038070866029 0.000187535193416 0)
(0.000415426872688 0.000200287036962 0)
(0.000453274843114 0.000210771363123 0)
(0.000489300283005 0.000214417334468 0)
(0.000525832479036 0.000214691980987 0)
(0.000562960698696 0.00021416442933 0)
(0.000601905611095 0.000214556269688 0)
(0.000640036478632 0.000215034582747 0)
(0.000675992876513 0.000216629472161 0)
(0.000720769116708 0.000219838953049 0)
(0.000755529822433 0.000218932352975 0)
(0.000802745250536 0.000220760691793 0)
(0.000830187287567 0.000218794944872 0)
(0.000882733797026 0.000225587195498 0)
(0.000915862377463 0.000229360135403 0)
(0.000974642609385 0.000240699829301 0)
(0.00103254967579 0.000251156751445 0)
(0.0010816881426 0.000255331112315 0)
(0.00112751404348 0.000252375088495 0)
(0.00117207345643 0.000245512994689 0)
(0.00121545240447 0.000236550030349 0)
(0.00125762219296 0.000225360656013 0)
(0.00129833585722 0.000211732203053 0)
(0.00133708079714 0.00019727936192 0)
(0.00137347121708 0.000183926796785 0)
(0.00140724961461 0.000171790296076 0)
(0.00143824659794 0.000159868527586 0)
(0.00146644715324 0.000147411085998 0)
(0.00149190821975 0.000134141686961 0)
(0.00151460611596 0.000119993516743 0)
(0.00153444181507 0.000104924830017 0)
(0.00155126823468 8.89612296823e-05 0)
(0.00156485058587 7.22460571631e-05 0)
(0.00157483483307 5.47303000737e-05 0)
(0.00158092256211 3.60344114426e-05 0)
(0.00158326723092 1.64307284359e-05 0)
(0.00158255746131 -2.68189055837e-06 0)
(0.00157841753054 -2.10373945896e-05 0)
(0.00156814350073 -4.05257164766e-05 0)
(0.00154814437012 -6.39275808704e-05 0)
(0.00151473395061 -9.52837799554e-05 0)
(0.00146309958984 -0.000141327572124 0)
(0.00139000708449 -0.000211511227306 0)
(0.00129669650315 -0.000309457387929 0)
(0.00117634687153 -0.000411475050526 0)
(0.00115473695952 -0.000527909802926 0)
(0.00105708836376 -0.000551972603727 0)
(0.000937407487676 -0.000491500236267 0)
(0.000852272853173 -0.0004429041925 0)
(0.000761412187116 -0.000412286836855 0)
(0.000673627815865 -0.000413894118392 0)
(0.000621313598886 -0.000469760184738 0)
(0.000560509900236 -0.000528359593409 0)
(0.000452309205421 -0.000501717103292 0)
(0.000362819981622 -0.000465388372763 0)
(0.00029060101023 -0.000456966729057 0)
(0.000210366103365 -0.000443950061246 0)
(0.000148822171839 -0.000412706821162 0)
(9.37113994231e-05 -0.000320195235529 0)
(5.67406553045e-05 -0.000278742682507 0)
(3.1490925782e-05 -0.000325754710853 0)
(8.35348277169e-06 -0.000320879912086 0)
(1.75019443547e-06 9.0892568994e-05 0)
(1.42359286346e-05 0.000114033299703 0)
(2.9962715131e-05 0.000140194032697 0)
(3.09113123611e-05 0.000138851163935 0)
(2.37161534418e-05 8.56660633851e-05 0)
(5.50266853781e-05 0.0001193876676 0)
(8.41108415029e-05 0.000146703294346 0)
(9.53122275225e-05 0.000150515825285 0)
(0.00011126020176 0.000152119442152 0)
(0.000127654126524 0.000152192890226 0)
(0.000151766297608 0.000147248121508 -2.26677669099e-28)
(0.000133182889397 0.000108423061558 1.52770351117e-28)
(0.000156846861098 0.000115122523305 0)
(0.000179884286426 0.000130930087043 0)
(0.000220390888174 0.000160312314382 0)
(0.000267146775326 0.000189842431245 0)
(0.000303276544461 0.000203205464597 0)
(0.0003248984697 0.000205594310211 0)
(0.000359886571149 0.000220292413419 0)
(0.000399980041451 0.00023811128548 0)
(0.000435029795742 0.000247120659622 0)
(0.000471070682441 0.00025107559756 0)
(0.000508090077411 0.000252634140165 0)
(0.000545659375556 0.000252505418328 0)
(0.000581898046211 0.000251661330504 0)
(0.000617792847311 0.000252433056398 0)
(0.000661198969959 0.0002566560474 0)
(0.000692812095657 0.00025809158676 0)
(0.000743527938354 0.000261446944296 0)
(0.000768431744569 0.000255256377232 0)
(0.00082365309713 0.000263112104613 0)
(0.000857592595796 0.000268790244315 -7.31042963604e-29)
(0.000915508245297 0.000281716210827 7.29934683215e-29)
(0.00096953898692 0.000295811363696 0)
(0.00102907411933 0.000305569118345 0)
(0.00107770287391 0.000304551229461 0)
(0.00112323495264 0.000298372438146 0)
(0.0011683283342 0.000289964367664 0)
(0.00121280429121 0.000279697787383 0)
(0.00125609796206 0.000267167088064 0)
(0.0012977939025 0.000252292873956 0)
(0.00133754795017 0.000236174254438 0)
(0.0013749262349 0.000220251537368 0)
(0.00140954986857 0.000204980721076 0)
(0.0014412251813 0.000189912291691 0)
(0.00146991951856 0.000174487351771 0)
(0.00149563760282 0.000158368641153 0)
(0.00151830236969 0.000141376093166 0)
(0.00153779050675 0.000123397894539 0)
(0.00155398737684 0.000104388481296 0)
(0.00156673613398 8.43391289659e-05 0)
(0.00157580034768 6.31748376555e-05 0)
(0.00158099689951 4.084682973e-05 0)
(0.0015823017592 1.76801649507e-05 0)
(0.00157942402635 -6.03596715489e-06 0)
(0.00157060191112 -3.1445622251e-05 0)
(0.00155218029794 -6.13162444895e-05 0)
(0.00152001938288 -9.91539480786e-05 0)
(0.00147103333148 -0.000149011569083 0)
(0.00140466712075 -0.00021512238563 0)
(0.00132320092921 -0.000299163821955 0)
(0.0012332418782 -0.000396172719425 0)
(0.0011568256195 -0.000498059726492 0)
(0.00109230540675 -0.00060478661411 0)
(0.00100136607559 -0.000641302418504 0)
(0.000842959976507 -0.000557465346634 0)
(0.000788940926742 -0.000524242888229 0)
(0.000718821340423 -0.000507592435076 0)
(0.000634501461115 -0.000509571957959 0)
(0.000565913619533 -0.000559868386638 0)
(0.000488370116526 -0.000598718669124 0)
(0.000392300541154 -0.000568395820456 0)
(0.000317557761306 -0.000555754686958 0)
(0.000232284558116 -0.000542531084358 0)
(0.000157026484941 -0.0005173375212 0)
(0.000103776574804 -0.000443705594618 0)
(6.52215441485e-05 -0.0003662799274 0)
(2.65887654259e-05 -0.000310918084131 0)
(8.76763187046e-06 -0.000339816383188 0)
(3.0775742727e-06 -0.000338794334202 0)
(4.14227521338e-06 0.000102458097187 0)
(1.83003139132e-05 0.000132000215019 0)
(3.022693278e-05 0.000143688628734 0)
(1.79996768389e-05 0.000100766929472 0)
(2.13568307073e-05 0.000101741160716 0)
(5.43604595172e-05 0.00015146330267 0)
(6.86887534424e-05 0.00015996504683 0)
(8.11430514675e-05 0.000164565134991 0)
(9.05502097196e-05 0.000166734454216 0)
(0.000108010172456 0.00016927970992 0)
(9.83035272475e-05 0.000127389673845 0)
(0.000114448899231 0.000126137295546 0)
(0.000137948404853 0.000139385501517 0)
(0.000164833111593 0.000163115426657 0)
(0.000213331169271 0.00020575011724 0)
(0.000250305645046 0.000226759590673 0)
(0.000268624051978 0.000225455636456 0)
(0.000299344956367 0.000237139572137 0)
(0.000341048411258 0.000259939880204 0)
(0.00037834939712 0.000275264528916 0)
(0.000412757745202 0.000282705477817 0)
(0.000448141733717 0.000287143605547 0)
(0.000486031943612 0.000290684274061 0)
(0.000523489199493 0.00029109938311 0)
(0.000562398476849 0.000289928880277 0)
(0.000594586944161 0.000291238802129 0)
(0.00064157246592 0.000297839427193 0)
(0.000676688963893 0.000298003236644 0)
(0.000708691800557 0.000295797809381 0)
(0.000754170405742 0.0003005977743 0)
(0.000814224185896 0.000312949039433 0)
(0.000852115802713 0.000317825991703 0)
(0.000900863438037 0.000333649379965 0)
(0.000969869564465 0.000353983467809 0)
(0.00102171243304 0.000358586680235 0)
(0.00107001067785 0.000353365511538 0)
(0.00111724880247 0.000345197612639 0)
(0.00116380313588 0.000335611757762 0)
(0.0012096989611 0.000324187356078 0)
(0.00125441845476 0.000310317600158 0)
(0.00129741213789 0.000293954982158 0)
(0.00133833632506 0.000275941434279 0)
(0.00137680986762 0.000257426352327 0)
(0.00141241476786 0.000239016968249 0)
(0.00144489221885 0.000220647899576 -6.31099725754e-29)
(0.00147414490221 0.000201973896856 6.28358711935e-29)
(0.00150008551332 0.000182657796469 0)
(0.00152256409515 0.000162453938312 0)
(0.00154144766219 0.000141220580394 0)
(0.00155668554126 0.000118883551913 0)
(0.00156822680729 9.53652417312e-05 0)
(0.00157594881316 7.05404084505e-05 0)
(0.00157965015894 4.42804086563e-05 0)
(0.00157881785381 1.63410009598e-05 0)
(0.00157196217621 -1.43056471804e-05 0)
(0.00155589435958 -5.00691268628e-05 0)
(0.00152641098464 -9.39045156764e-05 0)
(0.00148107118919 -0.000148067724209 0)
(0.00142139531426 -0.000214171790707 0)
(0.00135045399182 -0.000293357567642 0)
(0.00127128956249 -0.000381247527033 0)
(0.00119281254788 -0.00047268748173 0)
(0.00112427964372 -0.000569518970437 0)
(0.00105239513331 -0.00067123201025 0)
(0.00103285720629 -0.000770930561017 0)
(0.000835651829921 -0.000669948242579 0)
(0.000710235033368 -0.000596892652536 0)
(0.000645495195895 -0.000583138909161 0)
(0.000564345949689 -0.000585817172957 0)
(0.000499197588825 -0.000627876289189 0)
(0.000431216842264 -0.000656716114454 0)
(0.000351191053237 -0.000650258788033 0)
(0.000265623043972 -0.000650285722709 0)
(0.000172885943803 -0.000628330839931 0)
(0.000103648296858 -0.000575302514035 0)
(5.64666456279e-05 -0.000479830044708 0)
(2.05741832508e-05 -0.00040940981674 0)
(-1.26287046363e-05 -0.000345794685659 0)
(-2.38278120174e-05 -0.000340572451195 0)
(-9.74792486052e-06 -0.000340720469236 0)
(5.25589743901e-06 0.000115410419427 0)
(1.77728254138e-05 0.000143728416168 0)
(1.96515040787e-05 0.000145989782521 0)
(1.32274140692e-05 0.000107755251078 0)
(2.63876155901e-05 0.000125335356471 0)
(4.7980202551e-05 0.00016425617578 0)
(5.3618912868e-05 0.000171309676788 0)
(6.71009762263e-05 0.000176458090294 0)
(6.85901794148e-05 0.000168125412411 0)
(8.60212159138e-05 0.000189582883869 0)
(7.85563251752e-05 0.000142092685061 0)
(9.90905211915e-05 0.000147119670027 0)
(0.000119739475783 0.000165014991374 0)
(0.000154937731323 0.000204903469436 0)
(0.000195464642461 0.000243261897984 0)
(0.000223333488913 0.000255717730191 0)
(0.000240656125163 0.000254780405695 0)
(0.000276268509949 0.000274713068162 0)
(0.000315782665404 0.000297863167405 0)
(0.000351851687811 0.000311531086227 0)
(0.000387529351768 0.000318966918848 0)
(0.000422288648161 0.000323222364087 0)
(0.000459701472063 0.00032756128772 0)
(0.00049396063404 0.000327477476145 0)
(0.000528000892716 0.000324289635574 0)
(0.000574414047806 0.000331637548095 0)
(0.000599400863122 0.000331670933262 0)
(0.000660264970596 0.000342757497135 0)
(0.00068658215807 0.000340687290078 0)
(0.00074904902792 0.000354255076922 0)
(0.000779322017746 0.000354312727945 0)
(0.000847431878712 0.000373961641322 0)
(0.000904546868151 0.000394842662006 -7.51063572533e-29)
(0.000959503388472 0.000408540173557 7.41747501087e-29)
(0.00101091930288 0.000409256062124 0)
(0.00106073070485 0.000402876267221 0)
(0.00110999222295 0.000393760016055 0)
(0.0011584684083 0.000383035110208 0)
(0.00120608904575 0.000370349290969 0)
(0.00125248019808 0.000355045483377 0)
(0.00129708778822 0.000336991184376 0)
(0.00133947666225 0.000316857895351 0)
(0.001379250628 0.000295636712614 0)
(0.00141600533639 0.000274006204045 0)
(0.00144943001263 0.000252137521949 0)
(0.00147929438444 0.000229859832905 0)
(0.00150537238939 0.000206884162048 0)
(0.00152743886852 0.00018297637722 0)
(0.00154537246795 0.000158037018774 0)
(0.00155920374722 0.000132032527485 0)
(0.00156901548851 0.000104840005176 0)
(0.00157479914073 7.61364233173e-05 0)
(0.00157622397947 4.52792366941e-05 0)
(0.00157207406538 1.08925801482e-05 0)
(0.00155949198587 -2.95351429398e-05 0)
(0.00153392583748 -7.90825779961e-05 0)
(0.00149196776481 -0.000138500280441 0)
(0.00143665201939 -0.000205833717569 0)
(0.00137546344201 -0.000282263577398 0)
(0.00130583862895 -0.000372103125474 0)
(0.00122402629569 -0.000462434931576 0)
(0.00114336467539 -0.000544118945979 0)
(0.00107848557539 -0.000628930721056 0)
(0.00102915549948 -0.000721488504554 0)
(0.00100416726642 -0.000826353439286 0)
(0.000941344385938 -0.000862595292697 0)
(0.000684268883215 -0.000697542615506 0)
(0.000568669209921 -0.000662875180306 0)
(0.000508092337494 -0.00066499487773 0)
(0.000453631458303 -0.000686741698902 0)
(0.000393145615818 -0.000716929984308 0)
(0.000313712781251 -0.000746559929823 0)
(0.00020988226613 -0.000753822133411 0)
(0.000109537413443 -0.000713074064227 0)
(4.05259570136e-05 -0.000623040977012 0)
(-6.97882771343e-06 -0.000526645000229 0)
(-4.64769091719e-05 -0.000445009858241 0)
(-6.89311673186e-05 -0.000373242647766 0)
(-6.24113420323e-05 -0.000328369349315 0)
(-2.51963177998e-05 -0.000306827435244 0)
(5.35504252766e-06 0.000129260239437 0)
(1.6839908386e-05 0.000149801309991 0)
(1.3085429375e-05 0.00014260283726 0)
(9.17298863093e-06 0.000113107956823 0)