/*--------------------------------*- C++ -*----------------------------------*\
| =========                 |                                                 |
| \\      /  F ield         | OpenFOAM: The Open Source CFD Toolbox           |
|  \\    /   O peration     | Version:  v1806                                 |
|   \\  /    A nd           | Web:      www.OpenFOAM.com                      |
|    \\/     M anipulation  |                                                 |
\*---------------------------------------------------------------------------*/
FoamFile
{
    version     2.0;
    format      ascii;
    class       surfaceScalarField;
    location    "264";
    object      phia;
}
// * * * * * * * * * * * * * * * * * * * * * * * * * * * * * * * * * * * * * //

dimensions      [0 3 -1 0 0 0 0];
oriented        oriented;


internalField   nonuniform List<scalar> 
12640
(
1.09593959448e-07
-1.10584881394e-07
2.1273123068e-07
-1.03919348374e-07
3.06385584159e-07
-9.42455049373e-08
3.86644232797e-07
-8.07377659475e-08
4.43845413294e-07
-5.76543107612e-08
4.7507427472e-07
-3.17108170118e-08
4.93221066659e-07
-1.85944475501e-08
5.30003315736e-07
-3.71879744828e-08
5.88160879787e-07
-5.8528560447e-08
6.42854693465e-07
-5.5016620342e-08
6.93277294015e-07
-5.06763966774e-08
7.50332688483e-07
-5.72823480688e-08
8.02578352169e-07
-5.24483120684e-08
8.44560740545e-07
-4.21714869724e-08
8.81860017942e-07
-3.74789407279e-08
9.27102131804e-07
-4.54402163545e-08
9.74826317698e-07
-4.79141443465e-08
1.01356401554e-06
-3.89270124151e-08
1.04046756606e-06
-2.70501866488e-08
1.06174340655e-06
-2.13945804902e-08
1.09563673781e-06
-3.39928121376e-08
1.14633521876e-06
-5.07987375671e-08
1.20329333335e-06
-5.70471952766e-08
1.26075867634e-06
-5.75560012306e-08
1.3146308628e-06
-5.39536387163e-08
1.36394950137e-06
-4.94050578545e-08
1.41234254116e-06
-4.84719464442e-08
1.45794796631e-06
-4.56915414115e-08
1.49849380339e-06
-4.06203603236e-08
1.53503575581e-06
-3.66216790806e-08
1.57244462784e-06
-3.74733385114e-08
1.6089479833e-06
-3.65732908667e-08
1.64047814521e-06
-3.16031190534e-08
1.6739555012e-06
-3.35481049524e-08
1.70787679705e-06
-3.39661926303e-08
1.74127393754e-06
-3.34530298037e-08
1.77925623938e-06
-3.80157718753e-08
1.81655873357e-06
-3.73114014941e-08
1.85036585333e-06
-3.37933743102e-08
1.8880546582e-06
-3.76770157753e-08
1.9465626204e-06
-5.84872564238e-08
2.00824071456e-06
-6.16641442168e-08
2.04417736629e-06
-3.59174188897e-08
2.06409463215e-06
-1.98876161373e-08
2.07735989598e-06
-1.32193066189e-08
2.08291224881e-06
-5.49924825417e-09
2.08095022349e-06
2.03526132642e-09
2.06926366778e-06
1.17704076671e-08
2.04962136381e-06
1.97456390095e-08
2.0357121223e-06
1.40135307931e-08
2.04227095599e-06
-6.41748597305e-09
2.04705841741e-06
-4.65306424616e-09
1.99794365328e-06
4.92512448248e-08
1.91706814988e-06
8.10324831761e-08
1.81401139381e-06
1.03223525598e-07
1.66906370686e-06
1.45113653083e-07
1.53413864051e-06
1.35159611805e-07
1.43169379771e-06
1.02747525911e-07
1.31310764282e-06
1.18946937773e-07
1.17761477714e-06
1.35934921531e-07
1.06028461119e-06
1.17874962876e-07
9.22941895567e-07
1.3786837279e-07
6.95571217243e-07
2.27859452287e-07
5.06029957129e-07
1.89822773985e-07
3.80058078367e-07
1.26162368207e-07
2.92710327404e-07
8.74837341472e-08
2.18079548833e-07
7.47773315786e-08
1.45564439982e-07
7.26865964308e-08
7.29981360917e-08
7.27708935412e-08
1.4294265178e-09
7.17947085536e-08
-6.3091475886e-08
6.47661133884e-08
-1.13773118826e-07
5.0933320061e-08
-1.46923371589e-07
3.33918319954e-08
-1.6149306237e-07
1.4808515257e-08
-1.61159092361e-07
-1.12074432948e-10
-1.49213264766e-07
-1.17105029622e-08
-1.34406990076e-07
-1.45315573265e-08
-1.03378949307e-07
-3.07423707186e-08
-6.56553121336e-08
-3.74143443977e-08
-6.53264699419e-08
5.53863752848e-08
-1.6639070958e-07
1.27737849024e-07
-1.76796283225e-07
1.99138219364e-07
-1.66052874545e-07
2.75796020071e-07
-1.57744371676e-07
3.80305249194e-07
-1.62577274964e-07
4.65388868962e-07
-1.17227030479e-07
5.1543894652e-07
-6.91069137876e-08
5.60619060966e-07
-8.27887763029e-08
6.08755399913e-07
-1.07045719637e-07
6.63441387727e-07
-1.10008409022e-07
7.17416959988e-07
-1.049245133e-07
7.61198528318e-07
-1.01282136935e-07
8.01603038512e-07
-9.30723819433e-08
8.4248849359e-07
-8.32660135457e-08
8.8348418633e-07
-7.87108855728e-08
9.31404405688e-07
-9.35698074198e-08
9.72508820173e-07
-8.92276179648e-08
9.86031679734e-07
-5.25905109779e-08
9.95716405554e-07
-3.68589856803e-08
1.02271809719e-06
-4.84855398864e-08
1.06980300393e-06
-8.11776373185e-08
1.13845156216e-06
-1.19525997912e-07
1.20771748642e-06
-1.26416982188e-07
1.26048651506e-06
-1.10401969582e-07
1.31004560858e-06
-1.03609716364e-07
1.3654833824e-06
-1.04914857836e-07
1.41492429336e-06
-9.80100064649e-08
1.45728611058e-06
-8.81229281733e-08
1.49658137388e-06
-8.0008507743e-08
1.53352090455e-06
-7.36244492234e-08
1.56643657066e-06
-7.04757039406e-08
1.59656937483e-06
-6.67781377367e-08
1.62171651023e-06
-5.68322690014e-08
1.65055515863e-06
-6.24424526975e-08
1.6906732519e-06
-7.41647343413e-08
1.72416756744e-06
-6.6971858932e-08
1.75845403083e-06
-7.23320511782e-08
1.80602553211e-06
-8.48775750399e-08
1.86023090755e-06
-8.80051305171e-08
1.90361701546e-06
-8.10400586676e-08
1.88831630321e-06
-4.31969837567e-08
1.84373494794e-06
-1.70676431898e-08
1.84015444521e-06
-3.23336513399e-08
1.86418016943e-06
-4.38697709786e-08
1.89522060243e-06
-4.42244529932e-08
1.93041325285e-06
-4.06185391397e-08
1.96193328942e-06
-2.94219672281e-08
1.98882831359e-06
-1.50246447769e-08
2.00622769696e-06
2.43663277673e-09
1.99202403934e-06
2.83409681891e-08
1.92981712948e-06
5.58943852622e-08
1.86163663606e-06
6.36640448391e-08
1.87846890517e-06
3.25623251302e-08
1.89160845999e-06
6.80800155496e-08
1.83719169431e-06
1.57829761534e-07
1.79423136686e-06
1.88320729664e-07
1.74239198072e-06
1.87280715149e-07
1.6478620747e-06
1.97630005077e-07
1.54087650119e-06
2.26349883897e-07
1.40618767404e-06
2.71144645707e-07
1.17454093242e-06
3.50003475161e-07
9.37491150369e-07
3.75420261759e-07
7.10344686557e-07
4.55473287899e-07
5.19312071319e-07
3.81153742512e-07
3.81772190487e-07
2.63855568985e-07
2.78659887461e-07
1.90739982986e-07
2.01255546582e-07
1.52320598425e-07
1.32068133307e-07
1.42049222056e-07
6.14097405324e-08
1.43632407117e-07
-9.69164444265e-09
1.43138708199e-07
-7.32670554971e-08
1.2859737091e-07
-1.21908904728e-07
9.98279738258e-08
-1.56770139864e-07
6.85020348461e-08
-1.8089822926e-07
3.9197883374e-08
-1.90356494565e-07
9.61379661071e-09
-1.87282028648e-07
-1.45036965709e-08
-1.67402276235e-07
-3.41149024821e-08
-1.34400006685e-07
-6.33988694458e-08
-7.50230344885e-08
-9.63014467079e-08
-1.40138194019e-07
7.44084884281e-08
-2.41349599013e-07
1.06097147625e-07
-2.08916293233e-07
2.00406997664e-07
-2.6078856324e-07
3.15490153321e-07
-2.73275291531e-07
4.17915136634e-07
-2.65436403601e-07
4.65101879307e-07
-1.64762669366e-07
4.87593373219e-07
-9.19332059379e-08
5.37159889648e-07
-1.32722008266e-07
5.96217249584e-07
-1.66439781574e-07
6.55128542657e-07
-1.69209945463e-07
7.10436325644e-07
-1.60479538839e-07
7.56791050563e-07
-1.47885108039e-07
7.97304687306e-07
-1.33843067499e-07
8.38564464059e-07
-1.24786605748e-07
8.66925259569e-07
-1.07316044612e-07
8.3953788521e-07
-6.63883128081e-08
7.8466618037e-07
-3.44827125054e-08
7.77592641974e-07
-4.56165295712e-08
8.26861114355e-07
-8.62086924056e-08
9.37906019646e-07
-1.59616059749e-07
1.0633089253e-06
-2.06675162676e-07
1.14085242602e-06
-1.97176352749e-07
1.19394539629e-06
-1.79601670768e-07
1.25649502236e-06
-1.73048584827e-07
1.31665998301e-06
-1.63859905637e-07
1.36471669115e-06
-1.53063462727e-07
1.40770165535e-06
-1.41074510536e-07
1.44900940531e-06
-1.29518896554e-07
1.48673252676e-06
-1.17807783096e-07
1.52300075702e-06
-1.09979537738e-07
1.5518960105e-06
-9.94544189841e-08
1.57759675545e-06
-9.25551324505e-08
1.607632285e-06
-8.69544614828e-08
1.61850615402e-06
-7.33961730421e-08
1.63947408652e-06
-9.51677569599e-08
1.69503133303e-06
-1.22562960352e-07
1.73355171658e-06
-1.10865351301e-07
1.77054116261e-06
-1.21868811407e-07
1.84018237829e-06
-1.57636621276e-07
1.90992249815e-06
-1.50788822848e-07
1.9697884445e-06
-1.03063748225e-07
2.01826217235e-06
-6.55401379708e-08
2.04653659825e-06
-6.05821550202e-08
2.06522722975e-06
-6.25303865263e-08
2.07955610451e-06
-5.85005360429e-08
2.08797548434e-06
-4.89806178076e-08
2.09223841653e-06
-3.36048911447e-08
2.09151051793e-06
-1.42125000863e-08
2.0848692417e-06
9.18057995389e-09
2.07586190481e-06
3.7449567186e-08
2.06644102249e-06
6.54380117961e-08
2.04479548943e-06
8.54476795707e-08
1.97333365658e-06
1.04187172291e-07
1.88781040824e-06
1.53781520295e-07
1.845132131e-06
2.00726157792e-07
1.80508541327e-06
2.28623419284e-07
1.72954522258e-06
2.6312526466e-07
1.62378765862e-06
3.03739188739e-07
1.4976995595e-06
3.52851211278e-07
1.35073166875e-06
4.18556221055e-07
1.20116656705e-06
5.00074419351e-07
9.89304708358e-07
5.87783720681e-07
7.37462887057e-07
7.07730744612e-07
5.03795092946e-07
6.15105277988e-07
3.53975705743e-07
4.13869619275e-07
2.65182270142e-07
2.79678741718e-07
1.86119381248e-07
2.31536905462e-07
1.112501687e-07
2.17093592327e-07
3.98902090776e-08
2.15204989896e-07
-2.94260387133e-08
2.12704713735e-07
-9.37782829598e-08
1.93216165906e-07
-1.50560783331e-07
1.56881078589e-07
-1.94889040878e-07
1.13106755973e-07
-2.17236604964e-07
6.18153570594e-08
-2.19870706636e-07
1.25103936649e-08
-2.08642968961e-07
-2.54494258766e-08
-1.85820831912e-07
-5.66157120264e-08
-1.51095094175e-07
-9.77876297228e-08
-7.11879781978e-08
-1.75921722852e-07
-2.11126824745e-07
5.10577520789e-08
-2.92720410629e-07
6.25514492024e-08
-2.20701909605e-07
1.77393266128e-07
-3.76065531304e-07
2.66529653257e-07
-3.62867097768e-07
2.57066950129e-07
-2.56287501754e-07
2.08686520565e-07
-1.16516459218e-07
2.94902205387e-07
-1.78328408617e-07
4.51463764817e-07
-2.89566595165e-07
5.61394454531e-07
-2.7666969998e-07
6.3533403042e-07
-2.43421550589e-07
6.99159886798e-07
-2.24578602186e-07
7.51693711666e-07
-2.00703164967e-07
7.83249001983e-07
-1.65679761753e-07
7.64197227349e-07
-1.05991966204e-07
7.09684241744e-07
-5.29974125806e-08
6.86375025685e-07
-4.32039554005e-08
7.21667576442e-07
-6.98697630588e-08
8.13216384368e-07
-1.37249412182e-07
9.42892485748e-07
-2.15980849404e-07
1.03865746799e-06
-2.55492239553e-07
1.08886608557e-06
-2.56998185573e-07
1.14398028037e-06
-2.52395094423e-07
1.2055107862e-06
-2.41236388958e-07
1.25921073417e-06
-2.26843718704e-07
1.30760667439e-06
-2.12353760185e-07
1.35191220155e-06
-1.97455454965e-07
1.39561599272e-06
-1.84870976996e-07
1.43575425564e-06
-1.69736216061e-07
1.47447941122e-06
-1.5662119861e-07
1.50551080825e-06
-1.41099218276e-07
1.53755608085e-06
-1.31587809922e-07
1.55687735131e-06
-1.11973250727e-07
1.56284028112e-06
-9.29895662129e-08
1.6065055369e-06
-1.17113254834e-07
1.64486253885e-06
-1.3356819033e-07
1.68140777316e-06
-1.59123474388e-07
1.7676557372e-06
-1.97118718454e-07
1.85140112531e-06
-2.05617600132e-07
1.89526538975e-06
-2.01515933518e-07
1.92649471368e-06
-1.82023897417e-07
1.96739997014e-06
-1.43968873919e-07
2.01128379652e-06
-1.09408363956e-07
2.04375414886e-06
-9.30340088633e-08
2.06588516097e-06
-8.46284508188e-08
2.0815275086e-06
-7.41038944213e-08
2.09160108552e-06
-5.89978620908e-08
2.09698942303e-06
-3.89280145605e-08
2.09735339847e-06
-1.44929100445e-08
2.09230848445e-06
1.43164345288e-08
2.08241138087e-06
4.74534771305e-08
2.06544892714e-06
8.25155385015e-08
2.03343398115e-06
1.17595134335e-07
1.98028381998e-06
1.57490027385e-07
1.92519089578e-06
2.09062166205e-07
1.86799995376e-06
2.58139997515e-07
1.7936951766e-06
3.03187956723e-07
1.69912988032e-06
3.57994200736e-07
1.58023894509e-06
4.22975503049e-07
1.43578352544e-06
4.976918718e-07
1.27060089317e-06
5.84171981892e-07
1.09160118055e-06
6.7950189173e-07
8.98553896263e-07
7.81279727604e-07
7.35761377355e-07
8.70979708801e-07
5.36113490252e-07
8.15084330613e-07
3.6315888809e-07
5.87038209017e-07
2.47278222026e-07
3.9572132163e-07
1.59708306683e-07
3.19262534015e-07
8.24709297085e-08
2.94516329067e-07
9.97225812152e-09
2.8793778023e-07
-6.37037600657e-08
2.86653715633e-07
-1.38528247493e-07
2.68336304961e-07
-1.98487022182e-07
2.17131836434e-07
-2.26255906361e-07
1.41135160487e-07
-2.32742586289e-07
6.85403447032e-08
-2.30844346644e-07
1.08627541831e-08
-2.11729832412e-07
-4.43005090344e-08
-1.67772713049e-07
-1.00340577726e-07
-1.20863122142e-07
-1.44510331249e-07
-6.47289101459e-08
-2.31751173403e-07
-2.7576966968e-07
4.74837812761e-09
-2.97743800565e-07
5.71380412337e-08
-2.73329490434e-07
1.50699970366e-07
-4.70029749784e-07
2.03424806406e-07
-4.15970611319e-07
1.74659861688e-07
-2.27722554752e-07
2.18414135294e-07
-1.60391343717e-07
3.45813354276e-07
-3.05919778791e-07
4.47992369115e-07
-3.92019268862e-07
5.27009342857e-07
-3.559569676e-07
6.02543528887e-07
-3.19239921378e-07
6.73385779116e-07
-2.95729665762e-07
6.98353269154e-07
-2.25946456949e-07
6.6278613187e-07
-1.30348412797e-07
6.32286575041e-07
-7.56626989839e-08
6.56222060228e-07
-7.70525779814e-08
7.25649058156e-07
-1.12733611794e-07
8.32983017842e-07
-1.77305577664e-07
9.39743940267e-07
-2.44119466791e-07
9.97324160803e-07
-2.73680147421e-07
1.03022941436e-06
-2.88517985154e-07
1.08271257967e-06
-3.09599892434e-07
1.14252985096e-06
-3.12326963123e-07
1.19815608915e-06
-2.96970679252e-07
1.24774663156e-06
-2.7654156063e-07
1.29356042736e-06
-2.58265357094e-07
1.33926472525e-06
-2.43261614964e-07
1.37803168262e-06
-2.23719329892e-07
1.41859277465e-06
-2.10389154063e-07
1.45057955755e-06
-1.88704930036e-07
1.48294759786e-06
-1.73566862144e-07
1.49940330845e-06
-1.48138567676e-07
1.5267742347e-06
-1.39419242719e-07
1.58068445883e-06
-1.46960945397e-07
1.60700320307e-06
-1.4346974687e-07
1.65886292602e-06
-1.85444877724e-07
1.74237580521e-06
-2.42650178135e-07
1.80668834854e-06
-2.61447262933e-07
1.85728965512e-06
-2.56241200649e-07
1.89637006581e-06
-2.40613339539e-07
1.93079601618e-06
-2.16460896179e-07
1.96986960697e-06
-1.8304066579e-07
2.01050561522e-06
-1.50034668227e-07
2.04397493257e-06
-1.26482296473e-07
2.0685385509e-06
-1.09165134454e-07
2.08614565085e-06
-9.16726631239e-08
2.09806510479e-06
-7.08702287251e-08
2.10488244366e-06
-4.56836236713e-08
2.10633736087e-06
-1.58745957095e-08
2.10177921473e-06
1.89630456862e-08
2.09028710171e-06
5.9043563428e-08
2.0692474563e-06
1.03667692171e-07
2.03444631891e-06
1.52525389367e-07
1.98510142635e-06
2.06989053656e-07
1.92762907684e-06
2.66722869688e-07
1.85941837625e-06
3.26569082902e-07
1.77218808288e-06
3.90684142137e-07
1.66179333201e-06
4.68682411149e-07
1.52419216357e-06
5.60914708051e-07
1.36024063209e-06
6.62024715272e-07
1.17980418186e-06
7.65006659967e-07
9.96758637011e-07
8.62994193218e-07
8.33619221208e-07
9.44880233426e-07
7.2390317466e-07
9.81088199693e-07
5.34524360139e-07
1.00482309419e-06
3.77548205373e-07
7.44285127235e-07
2.51479228421e-07
5.21983357038e-07
1.43038584005e-07
4.27891210854e-07
5.10882101834e-08
3.86682229184e-07
-3.02011251126e-08
3.69469316962e-07
-1.12979350246e-07
3.69716230318e-07
-1.91241247127e-07
3.46896766953e-07
-2.33977739331e-07
2.60135717532e-07
-2.49912389962e-07
1.57302812669e-07
-2.60591382047e-07
7.94483234602e-08
-2.57017339026e-07
7.51986409443e-09
-2.2704067254e-07
-7.40375221654e-08
-1.84768295192e-07
-1.42413352694e-07
-1.3310451777e-07
-1.95952841782e-07
-6.47440417473e-08
-2.99977395165e-07
-3.40386770069e-07
9.75784886851e-10
-2.98820926937e-07
7.6829468951e-08
-3.49405258236e-07
1.22544198678e-07
-5.16088069699e-07
1.43153606705e-07
-4.36846906242e-07
1.31366463048e-07
-2.16062341141e-07
2.50104796137e-07
-2.79282169555e-07
3.81712732893e-07
-4.37766773089e-07
4.38119997555e-07
-4.48670175787e-07
4.98836527222e-07
-4.16955047457e-07
5.53611624629e-07
-3.74322490761e-07
5.70365982193e-07
-3.12769273429e-07
5.23531076532e-07
-1.79319803514e-07
5.12925549729e-07
-1.198846213e-07
5.57802791761e-07
-1.2064657162e-07
6.39581036294e-07
-1.58925923672e-07
7.61937266119e-07
-2.35191254394e-07
8.79169594941e-07
-2.9465723753e-07
9.31866090066e-07
-2.96948608458e-07
9.60113253938e-07
-3.02055975089e-07
1.01905407927e-06
-3.47588101083e-07
1.08108966361e-06
-3.71763051113e-07
1.13293843031e-06
-3.64298109182e-07
1.18292462085e-06
-3.47073586159e-07
1.23395518247e-06
-3.27678656998e-07
1.28096235427e-06
-3.0538173428e-07
1.31072547493e-06
-2.73118362661e-07
1.35201004506e-06
-2.65103702994e-07
1.38425086596e-06
-2.42728081708e-07
1.41787332291e-06
-2.22422014842e-07
1.42756194645e-06
-1.83350221731e-07
1.44694912613e-06
-1.67612434322e-07
1.48024442882e-06
-1.72778036453e-07
1.51235826299e-06
-1.7911104751e-07
1.6016055132e-06
-2.3273788557e-07
1.69811692832e-06
-2.81971762703e-07
1.76582314179e-06
-3.10380257031e-07
1.81578489889e-06
-3.11439755889e-07
1.85811280264e-06
-2.98600507726e-07
1.89645134807e-06
-2.78979216395e-07
1.93358933756e-06
-2.5361382688e-07
1.97255907582e-06
-2.220119937e-07
2.01158900479e-06
-1.8905381536e-07
2.04553531538e-06
-1.60410694501e-07
2.07215190863e-06
-1.35756009996e-07
2.09202114293e-06
-1.11508792969e-07
2.10603947747e-06
-8.48450771477e-08
2.114568438e-06
-5.41583586247e-08
2.11713522776e-06
-1.83743905506e-08
2.11269094632e-06
2.34869852474e-08
2.09975674631e-06
7.20722067225e-08
2.07611998905e-06
1.27413074228e-07
2.03950783607e-06
1.89266807605e-07
1.98955158445e-06
2.57104982077e-07
1.92698917216e-06
3.29470826434e-07
1.84768271532e-06
4.06110367023e-07
1.74544752994e-06
4.93167769928e-07
1.61739493191e-06
5.97040810913e-07
1.46374545261e-06
7.14900439379e-07
1.28915302665e-06
8.36985883766e-07
1.10602839483e-06
9.48550975066e-07
9.3204755711e-07
1.03739903083e-06
7.82945558779e-07
1.09439420562e-06
6.72454690048e-07
1.09200394856e-06
5.2279217306e-07
1.15489879486e-06
3.57292752697e-07
9.10041909803e-07
2.38561422742e-07
6.40907374599e-07
1.22154041857e-07
5.44491298529e-07
1.39986847978e-08
4.95048146459e-07
-8.40267181865e-08
4.67742085242e-07
-1.75669264833e-07
4.61625687381e-07
-2.37797311317e-07
4.09290450439e-07
-2.64269100764e-07
2.8683359652e-07
-2.88566245887e-07
1.81810096749e-07
-3.05189239623e-07
9.62827541399e-08
-2.98913730604e-07
1.47471620265e-09
-2.65238694611e-07
-1.07516058065e-07
-2.16048260271e-07
-1.91402351353e-07
-1.56797715864e-07
-2.55079273035e-07
-8.22594509886e-08
-3.74258217723e-07
-4.22556147141e-07
2.704890047e-08
-3.26043356907e-07
1.2114848098e-07
-4.43727671125e-07
1.58645194878e-07
-5.53908910515e-07
1.23791337961e-07
-4.02226431597e-07
1.6164637681e-07
-2.54044098487e-07
3.04879193922e-07
-4.22708957872e-07
3.77229519869e-07
-5.10346020501e-07
4.21795872153e-07
-4.93504971447e-07
4.55555956114e-07
-4.50981949941e-07
5.08338124485e-07
-4.27399775402e-07
4.82913004656e-07
-2.87583315743e-07
4.59284977807e-07
-1.55835126079e-07
4.99719305408e-07
-1.60427694264e-07
5.62620218729e-07
-1.83628432517e-07
6.74281582732e-07
-2.70682803203e-07
7.97450851303e-07
-3.58496016688e-07
8.49028200611e-07
-3.46378255755e-07
8.72588752794e-07
-3.20639702552e-07
9.40334052821e-07
-3.69933575966e-07
1.01229851188e-06
-4.19691374329e-07
1.06797108361e-06
-4.2757132839e-07
1.11910650466e-06
-4.1556324464e-07
1.16954044354e-06
-3.97622297885e-07
1.21061242728e-06
-3.6886837963e-07
1.24185510536e-06
-3.36735150844e-07
1.27595516018e-06
-3.0731811673e-07
1.30153668628e-06
-2.90782693111e-07
1.33703224069e-06
-2.78313295031e-07
1.35592484881e-06
-2.41410665177e-07
1.36628424317e-06
-1.93795267422e-07
1.40689259073e-06
-2.08288268365e-07
1.45655068255e-06
-2.22487570396e-07
1.53100526637e-06
-2.53592637617e-07
1.61921781285e-06
-3.20969746284e-07
1.71172911114e-06
-3.7451416613e-07
1.77142431879e-06
-3.70114885634e-07
1.81585586993e-06
-3.55912613859e-07
1.85671794665e-06
-3.39501340045e-07
1.89666450209e-06
-3.18955790728e-07
1.93599498337e-06
-2.92962480963e-07
1.97552931881e-06
-2.61551243446e-07
2.01414330614e-06
-2.27662237799e-07
2.04867287244e-06
-1.94925527843e-07
2.07711690556e-06
-1.6417811144e-07
2.09932662316e-06
-1.33688508607e-07
2.11568893067e-06
-1.01168677704e-07
2.12615965539e-06
-6.45806330239e-08
2.12995012757e-06
-2.21048141616e-08
2.1257459543e-06
2.7765418134e-08
2.11192575539e-06
8.59817223849e-08
2.08661483073e-06
1.52834484039e-07
2.0480599145e-06
2.27956952456e-07
1.99494621278e-06
3.10377926435e-07
1.92514671844e-06
3.99479378683e-07
1.83396906652e-06
4.97495981494e-07
1.71716955289e-06
6.10251193801e-07
1.5744703543e-06
7.40025717288e-07
1.4102090672e-06
8.79503100524e-07
1.23398412836e-06
1.01360918695e-06
1.06085066199e-06
1.12208905768e-06
9.1609517717e-07
1.18258433473e-06
8.11013998621e-07
1.19990602233e-06
6.82659658812e-07
1.22077519133e-06
5.73180458833e-07
1.26470122001e-06
3.54913564721e-07
1.128541605e-06
2.13416021451e-07
7.82572245379e-07
9.00131051142e-08
6.68067920371e-07
-3.45730923298e-08
6.19835181343e-07
-1.47712666331e-07
5.8108429333e-07
-2.31547726984e-07
5.45680477636e-07
-2.74287833695e-07
4.5222572667e-07
-3.09195501516e-07
3.21924747113e-07
-3.46905437794e-07
2.19703487824e-07
-3.66638734575e-07
1.16211742196e-07
-3.57382463672e-07
-7.60426886217e-09
-3.26277873876e-07
-1.38402215473e-07
-2.69483740272e-07
-2.48057990695e-07
-1.93390675833e-07
-3.30924909375e-07
-1.0882881531e-07
-4.58669611085e-07
-5.31266255088e-07
5.24858737525e-08
-3.78637446208e-07
1.38525524272e-07
-5.30004195926e-07
1.48208840874e-07
-5.63799414613e-07
8.76360733847e-08
-3.41780741243e-07
1.87009355991e-07
-3.53563645375e-07
3.08887076118e-07
-5.4480346519e-07
3.55569383792e-07
-5.57275799117e-07
4.03687589725e-07
-5.41873427104e-07
3.99324595131e-07
-4.46903108498e-07
4.11679210217e-07
-4.39993009321e-07
3.79853691874e-07
-2.55907176494e-07
4.36274948584e-07
-2.12365238261e-07
4.89856960992e-07
-2.14092953353e-07
5.81452336981e-07
-2.75318842537e-07
7.01768559471e-07
-3.91129372094e-07
7.63607103325e-07
-4.2048396029e-07
7.83167037865e-07
-3.66078978999e-07
8.50619172214e-07
-3.88228743714e-07
9.32963308889e-07
-4.52421128532e-07
9.93323999519e-07
-4.80198618678e-07
1.04387866512e-06
-4.7826712061e-07
1.09318806396e-06
-4.64996060069e-07
1.14750416311e-06
-4.52067488549e-07
1.19793805526e-06
-4.19427158372e-07
1.2200186594e-06
-3.5891848928e-07
1.25982030019e-06
-3.47228425134e-07
1.28354750149e-06
-3.14606516633e-07
1.28932066849e-06
-2.84180451231e-07
1.30521036279e-06
-2.57378563301e-07
1.3833795406e-06
-2.72037464274e-07
1.43199498338e-06
-2.56969407353e-07
1.45948279089e-06
-2.50009018282e-07
1.54851098148e-06
-3.42649049015e-07
1.65507914919e-06
-4.2757177264e-07
1.71662173676e-06
-4.36100535777e-07
1.76661512838e-06
-4.2015759535e-07
1.81178991357e-06
-4.01136232947e-07
1.85464718369e-06
-3.8240232389e-07
1.89671610998e-06
-3.6105921809e-07
1.93810343886e-06
-3.34371758114e-07
1.97869123155e-06
-3.02147827761e-07
2.01767079777e-06
-2.66639073253e-07
2.0531746235e-06
-2.30418020524e-07
2.0835624807e-06
-1.9454730809e-07
2.1082663396e-06
-1.58366286552e-07
2.12719603545e-06
-1.20064929372e-07
2.13987673971e-06
-7.72178580777e-08
2.14520255053e-06
-2.7376140697e-08
2.14169427516e-06
3.13430896487e-08
2.12769562238e-06
1.00070391882e-07
2.10137051842e-06
1.79271242175e-07
2.06070617872e-06
2.68759199284e-07
2.00322121143e-06
3.68047034795e-07
1.92524243687e-06
4.77633002361e-07
1.82257015913e-06
6.00436102763e-07
1.69346197111e-06
7.39576388787e-07
1.54116143675e-06
8.92651772383e-07
1.37234229102e-06
1.04868259214e-06
1.19575124624e-06
1.19060459621e-06
1.02979555647e-06
1.28850307762e-06
9.02135621378e-07
1.31067153987e-06
8.05053844261e-07
1.29738304352e-06
7.19590586679e-07
1.30660837799e-06
6.5793412339e-07
1.32668963078e-06
4.62998155515e-07
1.32376279947e-06
2.07527237879e-07
1.03822706048e-06
4.74491728326e-08
8.28308614685e-07
-8.91399135238e-08
7.56581070604e-07
-2.02582346127e-07
6.94717704227e-07
-2.74027423417e-07
6.17298566579e-07
-3.20125218435e-07
4.98506252949e-07
-3.74500962295e-07
3.76483600056e-07
-4.21458178362e-07
2.66849517365e-07
-4.44865890668e-07
1.3980021024e-07
-4.40003842721e-07
-1.22490347665e-08
-4.12870599744e-07
-1.65401461518e-07
-3.52226707599e-07
-3.08435848032e-07
-2.50530712791e-07
-4.32516849184e-07
-1.37994823565e-07
-5.70944956566e-07
-6.69051528859e-07
7.09369467212e-08
-4.49776861848e-07
1.35488256209e-07
-5.94788963369e-07
1.13736616356e-07
-5.42267884533e-07
1.15387769302e-07
-3.4355654381e-07
2.35128769841e-07
-4.73477612139e-07
2.84800667414e-07
-5.94701750977e-07
3.2752006465e-07
-6.00249385142e-07
3.70121093419e-07
-5.84725323291e-07
3.73705068444e-07
-4.50697244788e-07
3.81752151206e-07
-4.4826829637e-07
3.86894743718e-07
-2.61160928161e-07
4.34730032276e-07
-2.60294258964e-07
4.97468046481e-07
-2.76911878138e-07
6.05823628679e-07
-3.8377860965e-07
7.09472346535e-07
-4.94941090947e-07
7.35928147867e-07
-4.47106739788e-07
7.6841470603e-07
-3.98706943841e-07
8.40865804406e-07
-4.60820784087e-07
9.12690617777e-07
-5.24396239429e-07
9.6990176243e-07
-5.37557124642e-07
1.0192333491e-06
-5.27729565021e-07
1.05981198164e-06
-5.05713664668e-07
1.09655614012e-06
-4.88954374933e-07
1.13370931509e-06
-4.56698290935e-07
1.16303468004e-06
-3.88362444001e-07
1.19262648785e-06
-3.76924256348e-07
1.23593522157e-06
-3.58003172233e-07
1.28514572051e-06
-3.33481328079e-07
1.33306593818e-06
-3.05382861754e-07
1.36880636915e-06
-3.07846281239e-07
1.42017782454e-06
-3.08378880057e-07
1.5235680611e-06
-3.53428698595e-07
1.60440164361e-06
-4.23512566995e-07
1.66134790101e-06
-4.84560852768e-07
1.71192579759e-06
-4.86734364925e-07
1.76027041932e-06
-4.68560832519e-07
1.80709622771e-06
-4.48016651847e-07
1.85214104782e-06
-4.27493926321e-07
1.89614043258e-06
-4.05094836482e-07
1.93946179868e-06
-3.77717275405e-07
1.98168152406e-06
-3.44379707636e-07
2.02187296648e-06
-3.06832423158e-07
2.0588405333e-06
-2.67378802817e-07
2.09145813428e-06
-2.27150548669e-07
2.11894540403e-06
-1.85832664963e-07
2.14071987106e-06
-1.41809733112e-07
2.15596218081e-06
-9.24230501381e-08
2.16337997476e-06
-3.47424686461e-08
2.1613587296e-06
3.34332563845e-08
2.14812898991e-06
1.13388577665e-07
2.12165464702e-06
2.05864035982e-07
2.07930922102e-06
3.11259394828e-07
2.01745819038e-06
4.30045485243e-07
1.93174974337e-06
5.63590320112e-07
1.81887564403e-06
7.1344953029e-07
1.68005214345e-06
8.78714623112e-07
1.52079741896e-06
1.0521870016e-06
1.34756099659e-06
1.22232138031e-06
1.16760228306e-06
1.37103192049e-06
1.00750075434e-06
1.44904495429e-06
8.97050260767e-07
1.42153013993e-06
8.14331882779e-07
1.38049070924e-06
7.39812680568e-07
1.38148109629e-06
6.72134663891e-07
1.39471996053e-06
5.85883808573e-07
1.41029664214e-06
3.03593171928e-07
1.32076019107e-06
2.74801203784e-09
1.12932977329e-06
-1.46730556867e-07
9.06233123101e-07
-2.52906828234e-07
8.01047977989e-07
-3.21959266082e-07
6.86537604262e-07
-3.86001795299e-07
5.62742145553e-07
-4.56967771304e-07
4.47646150021e-07
-5.0888150971e-07
3.18960987068e-07
-5.37088113217e-07
1.68213886644e-07
-5.43917226661e-07
-5.27824993966e-09
-5.24082149218e-07
-1.84955721651e-07
-4.60529190706e-07
-3.71912008291e-07
-3.34746682819e-07
-5.57975902752e-07
-1.75740823366e-07
-7.29598209024e-07
-8.4466569835e-07
8.49208780246e-08
-5.34820091688e-07
1.41181314981e-07
-6.51245538789e-07
1.01403237753e-07
-5.02646155054e-07
1.42408890562e-07
-3.84713504377e-07
2.46666057989e-07
-5.77949908447e-07
2.56512778671e-07
-6.04791815689e-07
2.93622468586e-07
-6.37586647305e-07
3.02243275454e-07
-5.93576316078e-07
3.35846009799e-07
-4.84473996108e-07
3.19833852866e-07
-4.32396072121e-07
3.66842700224e-07
-3.08271490321e-07
4.26869946975e-07
-3.20395732606e-07
4.97423569824e-07
-3.47560733656e-07
5.98140541731e-07
-4.84640692886e-07
6.55923582048e-07
-5.52886687392e-07
6.66014961733e-07
-4.573455152e-07
7.32667480006e-07
-4.65502134207e-07
8.13614363894e-07
-5.41917377417e-07
8.80658102988e-07
-5.91591920804e-07
9.40950035699e-07
-5.97992033983e-07
9.95411936982e-07
-5.82346506223e-07
1.04443845186e-06
-5.54889805358e-07
1.07138858781e-06
-5.16038000845e-07
1.09421931598e-06
-4.79660206798e-07
1.14535294399e-06
-4.39603756053e-07
1.16801959941e-06
-3.99685895176e-07
1.17715103334e-06
-3.67239870204e-07
1.19538594591e-06
-3.51805342653e-07
1.26073472051e-06
-3.70802231621e-07
1.34147620574e-06
-3.88641701705e-07
1.42186658232e-06
-3.88802275267e-07
1.49840599394e-06
-4.29988986027e-07
1.59733792662e-06
-5.22476526794e-07
1.65735932677e-06
-5.44638432385e-07
1.7054419863e-06
-5.34881247152e-07
1.7539459063e-06
-5.17127326543e-07
1.80243452355e-06
-4.9656206179e-07
1.84947594469e-06
-4.74584146516e-07
1.8951819291e-06
-4.50839548673e-07
1.94019305621e-06
-4.22755983849e-07
1.98423122272e-06
-3.88434263106e-07
2.02627910573e-06
-3.48886503355e-07
2.06531410769e-06
-3.06411631854e-07
2.10052882427e-06
-2.62356342118e-07
2.13118352902e-06
-2.16470255511e-07
2.15634596942e-06
-1.66949021172e-07
2.1747807687e-06
-1.10819957575e-07
2.18506294029e-06
-4.49753422906e-08
2.18561930812e-06
3.29447235645e-08
2.17456109485e-06
1.24544750756e-07
2.14943446314e-06
2.31111853026e-07
2.10679605489e-06
3.54029905733e-07
2.04192007769e-06
4.95140237098e-07
1.94961373851e-06
6.55989042641e-07
1.82784943964e-06
8.35509256857e-07
1.68001148763e-06
1.02671409274e-06
1.51305741132e-06
1.21952332346e-06
1.3299112503e-06
1.40590260118e-06
1.14442142509e-06
1.55698039316e-06
1.00212732763e-06
1.59180869477e-06
9.19181592536e-07
1.50482491337e-06
8.39180190989e-07
1.46078136416e-06
7.47205417378e-07
1.47381981799e-06
6.65224330118e-07
1.47707087827e-06
5.98692966455e-07
1.47717950928e-06
4.35102657465e-07
1.48466987042e-06
1.05330922524e-07
1.45935760969e-06
-1.87752752422e-07
1.19950636174e-06
-2.99055669231e-07
9.12522901284e-07
-3.80295400126e-07
7.67960233423e-07
-4.67990701008e-07
6.50642523133e-07
-5.5103093648e-07
5.30930986057e-07
-6.03545727632e-07
3.71686217193e-07
-6.41629886215e-07
2.0645151435e-07
-6.65946595244e-07
1.92877266138e-08
-6.58817764088e-07
-1.92035652203e-07
-5.90894150761e-07
-4.39467901604e-07
-4.46681499537e-07
-7.02046747659e-07
-2.36267318768e-07
-9.39802555473e-07
-1.08064897262e-06