/*--------------------------------*- C++ -*----------------------------------*\
| =========                 |                                                 |
| \\      /  F ield         | OpenFOAM: The Open Source CFD Toolbox           |
|  \\    /   O peration     | Version:  v1806                                 |
|   \\  /    A nd           | Web:      www.OpenFOAM.com                      |
|    \\/     M anipulation  |                                                 |
\*---------------------------------------------------------------------------*/
FoamFile
{
    version     2.0;
    format      ascii;
    class       volScalarField;
    location    "254";
    object      p;
}
// * * * * * * * * * * * * * * * * * * * * * * * * * * * * * * * * * * * * * //

dimensions      [0 2 -2 0 0 0 0];


internalField   nonuniform List<scalar> 
6400
(
0.153165021487
0.153167188025
0.153173294428
0.153184924543
0.15320149415
0.15322273636
0.153248758388
0.153280693184
0.153318547883
0.153362325955
0.153417354544
0.153486354984
0.15356582659
0.153655905345
0.153758528152
0.153875828784
0.154008359997
0.154155399122
0.154315562527
0.154484250616
0.154655043656
0.154827646012
0.155007478307
0.155201038784
0.155412981724
0.15564316571
0.155888024212
0.156145156997
0.156414597249
0.156697379534
0.156994417678
0.157304345076
0.157621257117
0.157939404189
0.158257064424
0.158570371283
0.158878184799
0.159189053088
0.159502293844
0.159806204084
0.160102356408
0.160407368603
0.160730308764
0.161062993218
0.161396689172
0.161726502731
0.162048701905
0.162361437927
0.162663252117
0.162953077407
0.16323078503
0.163492175542
0.163731731364
0.163941095839
0.164121121769
0.164281848777
0.164420751246
0.164528227924
0.164603165624
0.164653303832
0.164683266921
0.164695149
0.164693990141
0.164677653097
0.164636036517
0.164550676494
0.164418130438
0.164262255056
0.164109433052
0.163968342757
0.163836964337
0.163709609969
0.16358255418
0.163462538252
0.163349187128
0.163246571638
0.163157830798
0.163097964644
0.163058632109
0.163041955865
0.153161732966
0.153163990673
0.153169375185
0.153180754898
0.153198820696
0.153221562994
0.153248121344
0.153278511505
0.153314572618
0.153358414219
0.153413133625
0.153480835236
0.153560577382
0.153651751019
0.153754799366
0.153870807014
0.154002711956
0.154150564405
0.154312582212
0.154482762277
0.154651811585
0.154822012122
0.155000834176
0.15519375757
0.155405929061
0.155637060698
0.155882054255
0.156139720903
0.156410270716
0.156693971295
0.156990852205
0.157301095854
0.157619387332
0.157937639053
0.158255765502
0.158569433893
0.1588766654
0.159187945268
0.159502139772
0.159805422358
0.160097090505
0.160400516254
0.160729117656
0.161065588006
0.161400798754
0.16173220663
0.162055712764
0.162370051162
0.16267298005
0.16296137386
0.16323544365
0.163497586233
0.163746090259
0.163957751863
0.164138911268
0.164303940512
0.164440195712
0.164543168033
0.164617361095
0.164666968302
0.164695606791
0.164708122183
0.164706622956
0.164690129308
0.164648957378
0.16456463925
0.164430054687
0.16427132582
0.164115766093
0.163971622395
0.163837212056
0.163706345222
0.163574482468
0.163448256975
0.163332484073
0.163229674324
0.163144939962
0.163084907324
0.163045705435
0.163032336192
0.153152704785
0.153156546931
0.153161186596
0.153171583837
0.153189126799
0.153214963306
0.153244442131
0.153273992059
0.153307926473
0.153350599463
0.153404644368
0.153471687198
0.1535515729
0.153643474539
0.15374677397
0.153859405147
0.153989397508
0.154144262969
0.154310361802
0.154479603017
0.154644252374
0.15480780882
0.154984569201
0.155180196447
0.155392991251
0.155623322099
0.155869678741
0.156129478937
0.156401779344
0.15668699214
0.156984742756
0.157295988702
0.157617275996
0.157934810453
0.158251054417
0.158567979395
0.158874488533
0.159182999974
0.15949776337
0.159803384244
0.160102299828
0.160410324588
0.16073509411
0.161068996096
0.161404177056
0.161736297561
0.162061962224
0.162378872532
0.162684784058
0.162977665343
0.163256606335
0.163520134554
0.163762996725
0.163978320715
0.164170367293
0.16433692497
0.164470233526
0.164571889991
0.164645316496
0.164694066076
0.164722385557
0.164734671363
0.164732241677
0.164717216965
0.164676321851
0.164589328798
0.164455591636
0.16429524018
0.164132138943
0.163979289758
0.163835953826
0.163695953681
0.163558401673
0.163428351214
0.163308301846
0.163203399403
0.163119875535
0.163059669399
0.163021460564
0.163007321305
0.153140516269
0.153144312111
0.153147774008
0.153157289809
0.153172701745
0.153198408576
0.153237358459
0.153266805394
0.153298041408
0.153338638143
0.153391662286
0.153458350303
0.153538615142
0.153630167255
0.15373396807
0.153853340331
0.153989671287
0.154142348931
0.154300901195
0.154457536273
0.154616344616
0.154783288774
0.154962303402
0.155157852512
0.155371624404
0.155603574368
0.155852140016
0.156114424661
0.156389339658
0.156676454947
0.156976872349
0.157289906123
0.157612708375
0.157935998997
0.158248519551
0.158559936452
0.158871545235
0.159178300709
0.159485883949
0.159793639156
0.160101178568
0.16041546661
0.160741256454
0.161075075518
0.161411215722
0.161745258613
0.162073743041
0.162394028833
0.162703814707
0.163001058948
0.163284027222
0.16355036037
0.163796209354
0.164017867496
0.164214351189
0.164381511297
0.16451539808
0.164617147974
0.16469017858
0.164738369796
0.164765890619
0.164776425574
0.164773268376
0.164759998512
0.164721374131
0.164636953424
0.164499823408
0.164331113565
0.164155666308
0.163989443713
0.163835140291
0.163687646967
0.16354342315
0.163401123219
0.163268427415
0.163159787664
0.163077820706
0.163012187364
0.162966423815
0.162947442301
0.153121677049
0.15312191042
0.15312622028
0.153135973778
0.153153129828
0.15317724323
0.153212133348
0.153245418069
0.153279194731
0.15332067604
0.153373073677
0.153439703585
0.15352098584
0.153618880709
0.1537316707
0.153853152658
0.153984263463
0.154124372223
0.154270965462
0.154424198152
0.154584397215
0.154752141588
0.154932076306
0.155128895176
0.155344099924
0.155578122235
0.15582890899
0.156094424367
0.15637248402
0.156663311838
0.156966103085
0.157284187616
0.157613443195
0.157932205991
0.158243840711
0.158552247848
0.158856840933
0.159163309143
0.159472855541
0.159784685695
0.160098945694
0.16041906719
0.160747743065
0.161083257563
0.161421525603
0.161758472972
0.162090615411
0.162415143719
0.162729704441
0.163032193012
0.163320494096
0.163591979394
0.163843332397
0.164071227539
0.164272448591
0.164442406987
0.164578201366
0.164681196339
0.164754969712
0.164803511278
0.164830829646
0.164840644966
0.164836689962
0.164823817178
0.16478369806
0.16470028114
0.164562336165
0.164384910319
0.164193026276
0.164008718842
0.163840228649
0.1636801826
0.16351642866
0.163350858841
0.163204917634
0.16308996738
0.162997759777
0.16291369745
0.162860136474
0.162840653279
0.153086187663
0.153085566123
0.153093687891
0.153103559415
0.153122425951
0.153148643035
0.15318042367
0.153214643707
0.153251972187
0.153295429783
0.153346641313
0.153414375553
0.153505317458
0.153612054409
0.153725081798
0.153841505865
0.153963155435
0.154094137028
0.154236688781
0.154388510093
0.154546217753
0.154713302024
0.154894520351
0.155093328251
0.155310656682
0.155546136606
0.155800503106
0.156069233277
0.156352038011
0.156646765647
0.15695570213
0.157277009889
0.157605279797
0.157930489186
0.158235620867
0.158534425605
0.158837035761
0.159145338413
0.159458388804
0.159775099821
0.160095534082
0.160421507291
0.160754440673
0.161093258118
0.161434914718
0.161775788481
0.162112485571
0.162442160996
0.162762483086
0.163071356167
0.163366542194
0.163645317452
0.163904358329
0.164139815221
0.164347201806
0.164521854646
0.164661592918
0.164767938698
0.16484434353
0.164894668474
0.164922738008
0.164932992724
0.164929709781
0.164912856629
0.16487213432
0.164784948465
0.164642265578
0.164455973344
0.164246580966
0.164041239299
0.163852328693
0.163665245547
0.163466656361
0.163274841369
0.163112167543
0.162981317726
0.162865192207
0.162763253266
0.162702983808
0.16267707689
0.153031666763
0.153035478209
0.153050094063
0.153065151787
0.153080810482
0.153106940553
0.153140866236
0.153176235257
0.153216362532
0.153262131972
0.153317384621
0.15338846034
0.153487701884
0.153594988265
0.153704309979
0.153812813577
0.15392791812
0.154057449607
0.15419952759
0.154346078558
0.154500529688
0.154668029275
0.154850395834
0.15505034144
0.155269863152
0.155510559161
0.155765862776
0.156039355713
0.156327326991
0.156631065838
0.156945565372
0.157267192581
0.15759692555
0.157914060143
0.158215358904
0.158510915379
0.158814009623
0.15912527806
0.159442605878
0.159764538446
0.160091055338
0.160423138332
0.160761392062
0.161104890901
0.161451180791
0.161797037834
0.16213923847
0.162475040637
0.162802246587
0.163118872502
0.163422690292
0.163710873437
0.163979776008
0.164224828673
0.164440794128
0.164623080035
0.164769860788
0.164882457846
0.164963708769
0.165016762275
0.165045451858
0.16505558668
0.16505157376
0.165029555579
0.164993884226
0.164904238937
0.164750149617
0.164550127305
0.164321965701
0.164090621437
0.163866282224
0.163633904783
0.163392420307
0.163170044667
0.162980978515
0.162820161222
0.162672656645
0.162556652805
0.162491189898
0.162459327164
0.152967849579
0.152975757658
0.152993164439
0.153016099393
0.153033473597
0.153059848295
0.153092823847
0.153130002685
0.153173840131
0.153217700649
0.153280264449
0.153363702746
0.153461630996
0.15356677271
0.153669262144
0.153770392584
0.153885187436
0.15401688688
0.154154150037
0.154295676382
0.15444784736
0.154615544798
0.154799252073
0.155002041932
0.155225118567
0.155468914851
0.155729874429
0.156002390787
0.156300508278
0.156616954493
0.156931952878
0.157249304619
0.157577186613
0.15788806654
0.158183736043
0.158482203753
0.158788502286
0.15910333843
0.159425228514
0.159752699831
0.160085507481
0.160424131673
0.160768652702
0.1611180603
0.161470178645
0.161822087086
0.16217079363
0.162513783325
0.162849103535
0.163174978383
0.163489279218
0.163789091449
0.164070378995
0.164327930778
0.164556050178
0.164750136543
0.164908170554
0.16503045262
0.165118156191
0.165173104725
0.165199887296
0.165206480228
0.165197720657
0.1651747527
0.165140422784
0.165064263472
0.164901396678
0.16467987218
0.164424080918
0.164153641661
0.16387678199
0.163585765635
0.1632946605
0.163029414375
0.162799157867
0.162596046141
0.162422154237
0.16229465388
0.162227335965
0.162196501428
0.152898267571
0.152908896324
0.152926830029
0.1529456367
0.152968813464
0.153002760681
0.153035152813
0.153073408373
0.153123501126
0.15317206712
0.153232053002
0.15332413327
0.153424896336
0.153525101905
0.153621755665
0.153722642463
0.153837212722
0.153966633249
0.154099514833
0.154238470183
0.154389074936
0.154555685174
0.154739049692
0.154943425151
0.15517630096
0.155421440101
0.15568850406
0.155971488176
0.156271239467
0.156587690837
0.156909880967
0.157235492907
0.15754556542
0.157847874709
0.158146539297
0.158449545491
0.15876015563
0.159079184825
0.15940595266
0.159739312285
0.160078831808
0.160424578365
0.160776259101
0.161132708595
0.161491816615
0.161850859435
0.162207125119
0.162558428103
0.162903147628
0.163239804104
0.163566487499
0.163880315758
0.164177007269
0.16445095289
0.164696155101
0.164907660964
0.16508223026
0.165217464399
0.165311206084
0.16536444048
0.165385869793
0.165388736749
0.165378966371
0.165354856695
0.165312248819
0.165245657387
0.165103465059
0.164855389762
0.16455974346
0.164235025833
0.163888519649
0.16352688501
0.163171432498
0.162842577687
0.162552632143
0.162303664383
0.162109953838
0.161976967657
0.161908629583
0.161882114007
0.152822028767
0.152834795304
0.152855782916
0.15287425292
0.152898772474
0.152933556093
0.152966991551
0.153005301395
0.153054015978
0.153117132223
0.153181913271
0.153273984334
0.153375609566
0.153471398196
0.153562410177
0.153666178569
0.153784895653
0.153909007209
0.154036621316
0.154173606634
0.154324248218
0.154490839702
0.154674287174
0.154877056708
0.155117519255
0.155372788239
0.1556343381
0.155928092505
0.156233871346
0.156556340573
0.156880937042
0.15720220396
0.15750887781
0.15780415488
0.158104914871
0.158412966626
0.158728611669
0.159052495609
0.159384545361
0.159724138965
0.160070868317
0.16042445263
0.160784222516
0.161148804741
0.161516056028
0.161883365837
0.162248298521
0.162609065297
0.162964447358
0.163313348967
0.163654243826
0.16398456194
0.16430016929
0.164595463982
0.16486428476
0.165100635851
0.165298041117
0.165447872887
0.16554263978
0.165588535398
0.165604711521
0.165608932548
0.165603955336
0.165580871389
0.165528959723
0.165443549124
0.165313103836
0.165092113052
0.164739941792
0.164340674032
0.163911054781
0.163465357381
0.163018457813
0.162591963316
0.162221049057
0.161927333326
0.16171850521
0.161583108963
0.161511648008
0.161485287371
0.152735933397
0.152748413059
0.152770950739
0.152794220478
0.152825825024
0.152854961109
0.152888358766
0.152928513442
0.152970089371
0.153039935673
0.153117158934
0.153209759392
0.153311606891
0.153406617094
0.153496504656
0.153600506085
0.153720978274
0.153841718924
0.153965513989
0.154099671596
0.154250198259
0.154418626981
0.154607188397
0.154809996019
0.155043912701
0.155316321835
0.155587815741
0.155880864351
0.156188123547
0.156501706031
0.1568366321
0.15715898867
0.157460089619
0.157754889418
0.158059198637
0.15837237976
0.15869352781
0.159022958321
0.159360835319
0.159707026024
0.160061448366
0.160423640466
0.160792499418
0.161166345061
0.161542924896
0.161919699983
0.16229449318
0.162665894476
0.16303308999
0.163395447691
0.163752068884
0.164101161667
0.164439441594
0.164762117638
0.165063106103
0.165334072048
0.165560712589
0.165721258105
0.165808461701
0.165846516899
0.165864795204
0.165878334569
0.165887591081
0.165873858545
0.165814485911
0.165696002419
0.165525374338
0.165312438217
0.164974842982
0.164492830505
0.163964752092
0.163415267764
0.162832266561
0.162247916423
0.161767606209
0.16143070423
0.161213130894
0.161075143239
0.16100436289
0.160978927574
0.15263773173
0.152647501391
0.152664265477
0.15269451902
0.152735929717
0.152764031718
0.15279772869
0.152842476074
0.152882551913
0.152948685686
0.153035418407
0.153130646501
0.15323171162
0.153327479791
0.153423226734
0.153529153994
0.153647726378
0.153765021507
0.153886384052
0.154017858617
0.154165288934
0.154331512958
0.154530002943
0.154746266987
0.154974260542
0.155247046096
0.155528344589
0.155816777214
0.156138592826
0.156459196235
0.156782859276
0.157095755975
0.157395753342
0.157698512993
0.158008498422
0.158327222641
0.158654396422
0.158990121773
0.159334590455
0.159687868876
0.16005039251
0.160421952662
0.160801013286
0.161185350456
0.161572528742
0.161960086543
0.162346058131
0.162729287797
0.163109248657
0.16348579499
0.163858900964
0.164228228748
0.164592650769
0.164949626656
0.165293687742
0.165611022854
0.165869684593
0.166032524537
0.166108634036
0.166150440432
0.166185758333
0.166213911904
0.166253382021
0.166269101464
0.166210640273
0.166051743491
0.165808603477
0.165530030262
0.165184235443
0.164686323977
0.164083021293
0.16341616621
0.162621803193
0.161752118786
0.16111477641
0.160752854678
0.160552617512
0.160419623642
0.160376778336
0.160372561294
0.152527083089
0.152534175385
0.152542420765
0.152576805818
0.152618226996
0.152652715538
0.152689618032
0.152739509503
0.152785649663
0.152850109067
0.152940770425
0.153037400046
0.153136890193
0.153229905713
0.15333331385
0.153448054477
0.153564277929
0.153678578392
0.153798518839
0.153928804578
0.154072903985
0.154233030022
0.154430405856
0.154670372207
0.154905763343
0.155164319339
0.155460942522
0.155756722248
0.156067474504
0.156393730594
0.156717870404
0.157026119656
0.157325675601
0.157634689853
0.157951557674
0.15827679041
0.158610562435
0.158953129524
0.159305132943
0.159666534342
0.160037777594
0.160419279997
0.16080958199
0.161205808696
0.16160505992
0.162004921292
0.162403590159
0.162799925397
0.163193366286
0.163584029002
0.163972936458
0.164362137835
0.164754675757
0.165152779715
0.165552367245
0.165927222731
0.166216902765
0.166374334287
0.166447197189
0.166528955705
0.166603473145
0.166626208263
0.166724768087
0.166828284845
0.166795757424
0.166569939497
0.166201286537
0.165784333571
0.165362592808
0.164883007813
0.164291889837
0.163572368212
0.16244864332
0.160970362964
0.160104920347
0.159811279963
0.159711436313
0.159585352053
0.159626710896
0.159685857826
0.152404960459
0.152413210095
0.152426517807
0.152450086871
0.152486155032
0.152524733597
0.152565786034
0.152618006431
0.152674599671
0.152740022135
0.152833233011
0.152930844576
0.153029761299
0.153121195538
0.153224948949
0.153347798963
0.153466132864
0.153580733585
0.153700592375
0.153830819572
0.153973607911
0.154129165337
0.15432157327
0.154572945145
0.154824854918
0.155080912525
0.155382896433
0.155687625953
0.155993001025
0.156317485652
0.156631174176
0.156936318756
0.157245937901
0.157563073759
0.157887459418
0.158220027165
0.158561557245
0.158911786263
0.159271624479
0.159642063282
0.160023337169
0.160415741089
0.160818226743
0.1612277031
0.161640731021
0.162054773723
0.162468056544
0.162879027724
0.163286416334
0.163690072915
0.164091796419
0.164497021396
0.164915810257
0.165359144127
0.165825041722
0.166260997586
0.166574955038
0.166740133543
0.166851640962
0.167063074926
0.16721025322
0.167115731821
0.167357521841
0.167657505717
0.167634036196
0.167275599132
0.166711833443
0.166063399724
0.16545837825
0.164967294284
0.164555008536
0.164134116769
0.162492432016
0.15965947828
0.158515654761
0.158555694753
0.158750889063
0.158504434606
0.15874686812
0.158953060533
0.152267918092
0.152277156832
0.152299702489
0.152313595868
0.152343178666
0.152382866418
0.152427247009
0.152483369868
0.152552818028
0.15261838274
0.152712566263
0.15281125619
0.15291074513
0.153003746094
0.153108293169
0.153234120784
0.153354703177
0.153471334131
0.153592358287
0.153722887136
0.153865577963
0.154020280699
0.154204690009
0.154451713572
0.154730108813
0.154995197776
0.155283961715
0.155608825874
0.155924339208
0.156226977654
0.156531899092
0.156840278414
0.157157220112
0.157482494598
0.157815367202
0.158156306134
0.158505984433
0.158865068142
0.159233979445
0.159613911217
0.160006206046
0.160410986036
0.160827025151
0.161251193093
0.161679827385
0.16211034832
0.162540788713
0.16296861751
0.163390723738
0.163804917148
0.164213140743
0.164625052466
0.165060273989
0.165543802905
0.166072322204
0.166549254304
0.1669443045
0.167232797038
0.167448194922
0.168057584393
0.168214214469
0.166989304858
0.166813738155
0.1671191411
0.167223303854
0.166917029861
0.166394530177
0.165841601074
0.16536065774
0.165053207678
0.165274779339
0.165917863923
0.164532002936
0.156085305745
0.155029991049
0.156601286082
0.157824250744
0.156985820378
0.157753462978
0.158297486102
0.152113031716
0.15212133742
0.152141617124
0.152157487189
0.152184361634
0.15222554514
0.152271478462
0.152326894757
0.152408675686
0.152482841375
0.15257730046
0.152677749062
0.152779191586
0.152876323996
0.152983358111
0.153109878986
0.153231881203
0.153351179873
0.153474090915
0.153605376594
0.153747954721
0.153903286721
0.154083112508
0.154322124246
0.154616158093
0.154898710876
0.155178882211
0.155496469036
0.155823598443
0.156130227358
0.156428975915
0.156737637643
0.157060200414
0.157393642526
0.157735251704
0.158084749352
0.158443411547
0.158811806778
0.159190920496
0.159581643155
0.15998582915
0.160404347672
0.16083576908
0.161276448659
0.161722544678
0.162172235409
0.16262390962
0.163072874575
0.163510839815
0.163931546452
0.164336694789
0.164738237479
0.165166019421
0.165665880876
0.166203234454
0.166728851082
0.167464968681
0.168046331473
0.167537561124
0.167477242393
0.16771438086
0.167490298083
0.167091558041
0.167017936446
0.16690623529
0.166533113467
0.165990694554
0.165406321517
0.164852635354
0.164339935818
0.163834091553
0.162769691193
0.159478536653
0.15656201563
0.156785697055
0.159134962407
0.16013446166
0.153288217574
0.156581819074
0.158145937113
0.151942579397
0.151949867362
0.151970441341
0.151986205319
0.15201287733
0.152054327825
0.152101292506
0.15215314518
0.152235848476
0.152324422066
0.152424080983
0.152527812867
0.152632746564
0.152737724207
0.15284766522
0.152974571898
0.153097904882
0.153220522292
0.153345832865
0.153478416584
0.153621187056
0.153776361018
0.153953185475
0.154183104387
0.154476471195
0.154787812382
0.155076873052
0.155380681351
0.155701326285
0.156007312428
0.156307038244
0.15662273964
0.156952930957
0.157294754352
0.157645658512
0.158004866755
0.158372981596
0.158751526461
0.159141479819
0.159544261848
0.159961555143
0.160394805417
0.160843533392
0.161303605332
0.161770015893
0.162242048399
0.162719903355
0.163195960698
0.163653499992
0.164078374317
0.164469031514
0.164833790454
0.165208162077
0.16563319787
0.166037640806
0.166550941604
0.167086604723
0.16764970658
0.167766624032
0.167511663931
0.167424856591
0.167152634538
0.166721580585
0.166401302077
0.166086658219
0.165630483816
0.165037229444
0.164372737116
0.163683782462
0.162925647709
0.16198218628
0.160637044315
0.158635941017
0.156961365818
0.156428202483
0.156749993329
0.155366805952
0.156190406247
0.1579478016
0.158246325671
0.151758759325
0.151764485594
0.151780688607
0.151798374104
0.15182936759
0.151870805111
0.151920194851
0.151970485706
0.152051594503
0.152148657236
0.152252918246
0.152359403827
0.15246630118
0.152581869383
0.152698197604
0.152825363343
0.152950611213
0.153078147508
0.153206744794
0.153341290294
0.153484790577
0.15363947863
0.153813888179
0.154036572736
0.154325506553
0.154654596424
0.154963550101
0.155262199035
0.155569421708
0.155869732477
0.156172973425
0.156494977837
0.15683284661
0.157182840682
0.157543531303
0.157914129589
0.158293609591
0.158682825534
0.159084793422
0.159500428246
0.159932018565
0.160382124481
0.160850550036
0.161332739667
0.161821006425
0.16231918159
0.162837425653
0.163360654361
0.163844273595
0.16427144106
0.164634907648
0.16492184577
0.165183991216
0.165405658587
0.165676173288
0.166163862373
0.166740873022
0.167156465288
0.167228220729
0.16702611156
0.166804839846
0.166490620279
0.166062187612
0.165611533538
0.165126429796
0.164538991823
0.163831669913
0.163030183626
0.162153434831
0.161180621397
0.160000954011
0.158520536644
0.156736713704
0.154999105893
0.153833039492
0.153316086241
0.152918122961
0.153754132894
0.154460762262
0.159024697824
0.151564110363
0.151568583506
0.151579579941
0.151599697557
0.151634456272
0.151675386995
0.151726374588
0.151779569868
0.151856538423
0.151957762412
0.152064824847
0.152172988612
0.152279571447
0.152400099279
0.152528556821
0.152658619587
0.152786406454
0.152919643685
0.153054198425
0.153192275579
0.153337819717
0.153491808058
0.15366425048
0.153880800608
0.154160063531
0.154486369868
0.154817540868
0.15512670921
0.15542996125
0.155727224828
0.156028419723
0.156354856938
0.156700329639
0.157055881672
0.157427903221
0.157811156278
0.158201511722
0.158603121434
0.159018660037
0.159449575426
0.159897061265
0.160364269718
0.160853255841
0.161363747413
0.16189369056
0.162444793411
0.163016394567
0.163580098592
0.164099352966
0.164561807189
0.164912220654
0.165060115827
0.165156082328
0.165112739097
0.165387808454
0.165832988673
0.166317752432
0.166572372454
0.166569908483
0.166362477752
0.166045316356
0.165627674795
0.165104306595
0.164507431254
0.163843422749
0.163084490448
0.162212323295
0.161229523662
0.160137987021
0.15892571574
0.157496814198
0.155766028521
0.15378184547
0.151751525523
0.149974794989
0.14856062362
0.147339254084
0.146493538059
0.147355656629
0.137883727406
0.151359308966
0.151363374272
0.151372659275
0.151396196914
0.151430611899
0.151469110456
0.151517308602
0.15157554831
0.151648184488
0.151751004919
0.15186010286
0.151969894808
0.152077393887
0.1521979028
0.152336435574
0.152472854376
0.152604966233
0.15274284247
0.152884053237
0.153028181573
0.153178532038
0.153332608266
0.153503248084
0.153715353883
0.153985281064
0.154304574532
0.15464444569
0.154967329581
0.155265161075
0.155559762557
0.155868411016
0.15619644427
0.156547269299
0.156912894955
0.157296940166
0.15769224755
0.158094722391
0.158509965954
0.158940340368
0.15938777752
0.159853665108
0.160341431506
0.160858847403
0.161415852004
0.162007971894
0.162613324259
0.163229084288
0.163848876543
0.164466710256
0.165066189086
0.165512953205
0.165392054982
0.165326228269
0.165098594315
0.165255558577
0.165593693501
0.165828868277
0.165880306217
0.165750537036
0.165454728788
0.165027170828
0.164486757191
0.163838607638
0.163094418403
0.162257736993
0.161315169136
0.160251006742
0.159055965947
0.157719297986
0.156218380408
0.154509254404
0.152475901309
0.150094847126
0.147481586051
0.144717740024
0.141711621411
0.138100585199
0.133201041654
0.127101169304
0.118008912636
0.15114168346
0.151145725398
0.151155434299
0.151183601376
0.151216951282
0.151252542
0.151295719225
0.151357223784
0.151424165202
0.151526883372
0.151638086894
0.151749708448
0.151859273962
0.151981485373
0.152125211423
0.152268211297
0.152406306224
0.15254929495
0.15269552418
0.152846138083
0.153003930572
0.153160229507
0.153328945615
0.153537773366
0.153799749772
0.154110505688
0.154451546291
0.154782001078
0.155089470681
0.155382276253
0.155695893266
0.156029536455
0.156380917209
0.156747281648
0.157139357146
0.157551904448
0.157970765189
0.158401933779
0.158847647939
0.159312244199
0.15979925536
0.160312851219
0.160872074903
0.161491247277
0.162137941796
0.162787929981
0.163461998706
0.164199162198
0.165031621066
0.165983840341
0.167026594664
0.165557610868
0.165258475886
0.165345830096
0.165239343003
0.165234660968
0.165216053058
0.165075293802
0.16478973629
0.164360783082
0.163799744033
0.163117644026
0.162319708548
0.161409724697
0.160386738365
0.15924071496
0.157956444151
0.156517611
0.15490407826
0.153086062772
0.151025755238
0.148606574317
0.145693497163
0.1422716874
0.138241317855
0.133220783727
0.126342836755
0.115637869958
0.0968278434571
0.0531830689523
0.150905460727
0.150909336202
0.150921280595
0.150955031921
0.150987903689
0.151021346358
0.151061895488
0.151123180565
0.151184144953
0.151284537617
0.151397674965
0.151511144452
0.151622917147
0.151746871994
0.151893648081
0.15204260916
0.152188885836
0.152337728511
0.152487944771
0.15264414178
0.152810668689
0.152972329561
0.153138867399
0.153344680576
0.153600751635
0.153901930665
0.154237479118
0.154564093549
0.154885281856
0.155192395711
0.155506081733
0.155838348522
0.156197289215
0.156574728596
0.156965169609
0.157385937818
0.157823387257
0.158272673226
0.158738407935
0.159221940315
0.159729551077
0.160279494676
0.160900928258
0.16158110914
0.162268727748
0.162970439578
0.163752552888
0.164705084848
0.165827931522
0.167244951841
0.166646219277
0.166220188859
0.165580550961
0.165270164392
0.164985177319
0.164746851133
0.164497354498
0.164154458288
0.163688549413
0.163094813151
0.162374304461
0.161529665932
0.160561986226
0.159469948917
0.158248107313
0.156884694398
0.155362024027
0.153657461319
0.151741565625
0.149573780445
0.147097409456
0.144238564659
0.14078399528
0.136503412095
0.131188617331
0.1242947279
0.114680955444
0.100107059092
0.076525652417
0.0380461678962
0.150642548845
0.150646286351
0.150660363718
0.150699543028
0.150731618202
0.150766374646
0.150806099018
0.150864581134
0.15092267372
0.151022247974
0.151137508208
0.151252735239
0.151366593155
0.151491758705
0.15163967493
0.151792192217
0.151948669295
0.152104815322
0.152259205638
0.152420212994
0.152594527398
0.152765843166
0.152931543157
0.15313295835
0.153385099668
0.153678035922
0.154006104556
0.154326161756
0.154646358142
0.154972466537
0.15530277967
0.15563714435
0.155984584678
0.156366585286
0.156772983938
0.157200665749
0.157651784895
0.15811903185
0.158604720788
0.159110788897
0.159648551827
0.160253441528
0.160942880489
0.161668690103
0.162404322983
0.16319907385
0.164153959173
0.165361661759
0.166509435194
0.166740494085
0.166792519854
0.16614855515
0.165492559348
0.165018360996
0.164574440633
0.164124713257
0.16364693423
0.163093373407
0.16243456248
0.161659454323
0.16076289806
0.159741340784
0.158590851417
0.157305332619
0.155874796647
0.154283741736
0.152510308456
0.150525550483
0.148291270418
0.145755940942
0.142848901751
0.139473548254
0.135468899923
0.130486315884
0.124117813483
0.115852581952
0.104693766013
0.0889579294492
0.0658785723417
0.0344511573746
0.15034607557
0.150351778851
0.150366521462
0.150404764754
0.150439686678
0.15048120409
0.150523983203
0.150582414602
0.150644855161
0.15073924229
0.150855966705
0.150972906696
0.151088853991
0.151214921331
0.151362666993
0.151514929171
0.151677325532
0.151844317973
0.152005779588
0.152172848627
0.152352656542
0.152536486496
0.152710113591
0.15290233048
0.153150854632
0.153437661296
0.153758161308
0.154073085273
0.154387022943
0.154721247145
0.155068783934
0.155418896077
0.155766573452
0.156140149622
0.156547803107
0.156988561791
0.157455253738
0.157941783464
0.158446092832
0.158977401336
0.159564117112
0.160239807914
0.16098553308
0.161758217975
0.162568276675
0.163498149817
0.164614980469
0.165898034708
0.166249836504
0.16632262942
0.16619395684
0.165712185273
0.165124268068
0.16454295671
0.163941318741
0.163304853592
0.16262330944
0.161869038199
0.161017977951
0.160056821552
0.158977059031
0.157771127245
0.156430788894
0.154945566652
0.153301093081
0.151477555136
0.149448303943
0.147178247333
0.144621223551
0.141715765645
0.138378876198
0.134496822881
0.129912977675
0.124353781006
0.117315487185
0.108173507351
0.0961782573238
0.0801485937194
0.0580656602132
0.0305007092821
0.150020794981
0.150030172527
0.150044711414
0.150075763687
0.15011693804
0.15016544534
0.150214137143
0.150276924196
0.150349216832
0.15043730044
0.150552436309
0.150670314929
0.150788412547
0.150915570322
0.1510633465
0.151215894854
0.151378168834
0.151554387648
0.15172597765
0.151901483277
0.152086767083
0.15228255451
0.152474258576
0.152668657334
0.152902572336
0.153182301431
0.15349556641
0.153806235895
0.15411254493
0.154445646486
0.154800823422
0.155172668593
0.155532897722
0.155901128216
0.156302737188
0.156745446883
0.157224621065
0.15773269373