/*--------------------------------*- C++ -*----------------------------------*\
| =========                 |                                                 |
| \\      /  F ield         | OpenFOAM: The Open Source CFD Toolbox           |
|  \\    /   O peration     | Version:  v1806                                 |
|   \\  /    A nd           | Web:      www.OpenFOAM.com                      |
|    \\/     M anipulation  |                                                 |
\*---------------------------------------------------------------------------*/
FoamFile
{
    version     2.0;
    format      ascii;
    class       surfaceScalarField;
    location    "254";
    object      phi;
}
// * * * * * * * * * * * * * * * * * * * * * * * * * * * * * * * * * * * * * //

dimensions      [0 3 -1 0 0 0 0];
oriented        oriented;


internalField   nonuniform List<scalar> 
12640
(
-1.85365349814e-07
1.85149201193e-07
-3.590809889e-07
1.73503763183e-07
-5.15454103373e-07
1.56201400551e-07
-6.47895902438e-07
1.32280516845e-07
-7.40270742314e-07
9.22313769162e-08
-7.8867086515e-07
4.82856970894e-08
-8.15122197887e-07
2.63508939562e-08
-8.72078068976e-07
5.68624274748e-08
-9.62357955234e-07
9.01826101247e-08
-1.04504640512e-06
8.2594605859e-08
-1.12054070452e-06
7.5402920944e-08
-1.20555453767e-06
8.49240672544e-08
-1.28053653977e-06
7.48916025289e-08
-1.33689736486e-06
5.62745325713e-08
-1.38421789876e-06
4.72420791267e-08
-1.44248099089e-06
5.82005761027e-08
-1.5031521121e-06
6.06107186502e-08
-1.54784175835e-06
4.46334204167e-08
-1.57250571827e-06
2.45945389373e-08
-1.58668284205e-06
1.40950513541e-08
-1.61801635111e-06
3.12408339564e-08
-1.67305591748e-06
5.49452431985e-08
-1.73644258351e-06
6.3289573763e-08
-1.79972160468e-06
6.31869368772e-08
-1.85685314627e-06
5.70415115536e-08
-1.90604814096e-06
4.91090877861e-08
-1.95224479132e-06
4.61083599696e-08
-1.99256690369e-06
4.02369909498e-08
-2.02391937181e-06
3.12629139948e-08
-2.04802974642e-06
2.40238670576e-08
-2.07166826087e-06
2.35456684478e-08
-2.09226175399e-06
2.05017759718e-08
-2.10378794456e-06
1.1432971986e-08
-2.11510374414e-06
1.1217267011e-08
-2.12483083692e-06
9.61252990988e-09
-2.13120892331e-06
6.26223598257e-09
-2.14136703719e-06
1.00294305685e-08
-2.1504352554e-06
8.92781871827e-09
-2.1539212477e-06
3.3312579666e-09
-2.160052085e-06
5.96973784529e-09
-2.18934077086e-06
2.91227440029e-08
-2.22268569611e-06
3.31920898495e-08
-2.22606153977e-06
3.22782246594e-09
-2.21072121178e-06
-1.54885656499e-08
-2.18740849314e-06
-2.34646083302e-08
-2.15493729265e-06
-3.26226959546e-08
-2.11359743805e-06
-4.14948121267e-08
-2.06130509933e-06
-5.24448886338e-08
-1.99975400509e-06
-6.17038847339e-08
-1.94248822301e-06
-5.74132864318e-08
-1.90283311795e-06
-3.9807337543e-08
-1.8575384504e-06
-4.54440264975e-08
-1.75766867209e-06
-1.00022798414e-07
-1.6210147889e-06
-1.3682264756e-07
-1.4632766445e-06
-1.57907886213e-07
-1.2691859533e-06
-1.94261645389e-07
-1.07638738274e-06
-1.9299165459e-07
-8.96863746419e-07
-1.79753944011e-07
-6.93535526982e-07
-2.03602860359e-07
-4.6615558202e-07
-2.276917327e-07
-2.20443644202e-07
-2.46079100867e-07
4.11309340859e-08
-2.62010002265e-07
3.63178186786e-07
-3.22567219386e-07
5.90238160292e-07
-2.27448778523e-07
7.26706087598e-07
-1.36690553796e-07
8.18010228548e-07
-9.14593224018e-08
8.83215961503e-07
-6.53335764325e-08
9.36749414534e-07
-5.36722861223e-08
9.78888008083e-07
-4.22991401069e-08
1.00302321338e-06
-2.4330490386e-08
1.0036149084e-06
-8.0199703977e-10
9.76250744367e-07
2.71550666671e-08
9.1758485518e-07
5.84487502571e-08
8.15717974331e-07
1.01636782515e-07
7.01725855125e-07
1.13766088267e-07
5.80335308442e-07
1.21168504998e-07
4.82242377475e-07
9.78947220902e-08
3.50318899153e-07
1.31683497089e-07
2.16487665237e-07
1.33340917718e-07
2.1622920814e-07
-9.2048790469e-08
2.77034724139e-07
-2.13651069742e-07
2.94944739174e-07
-3.32246164517e-07
2.74650997216e-07
-4.60060474126e-07
2.59971081804e-07
-6.34657638808e-07
2.66714922749e-07
-7.76062861478e-07
1.89570446197e-07
-8.55762754635e-07
1.05942440397e-07
-9.24379125096e-07
1.25364697147e-07
-9.97336766631e-07
1.63034388343e-07
-1.08075982221e-06
1.65909553269e-07
-1.1613848535e-06
1.55931511861e-07
-1.22438019302e-06
1.47821205733e-07
-1.28073850168e-06
1.31166231568e-07
-1.33608371801e-06
1.11541573353e-07
-1.38943794824e-06
1.00535854508e-07
-1.45111684628e-06
1.19814375908e-07
-1.50105051795e-06
1.10493682911e-07
-1.50652169133e-06
5.00355163761e-08
-1.50507266301e-06
2.30748485011e-08
-1.52852269891e-06
3.74557423515e-08
-1.57979094784e-06
8.24139606374e-08
-1.66199163687e-06
1.37038042433e-07
-1.7441834651e-06
1.45387440345e-07
-1.80078669167e-06
1.19690361971e-07
-1.85190102786e-06
1.08069577069e-07
-1.91016605328e-06
1.07279281068e-07
-1.95793328738e-06
9.37921793808e-08
-1.99380478074e-06
7.60138559057e-08
-2.02361181454e-06
6.09858816223e-08
-2.04825698256e-06
4.85725525574e-08
-2.06557760076e-06
4.07802978748e-08
-2.07767250805e-06
3.25046162961e-08
-2.08105852257e-06
1.4727346355e-08
-2.08601914165e-06
1.60707916495e-08
-2.10388380715e-06
2.73769347708e-08
-2.11066021204e-06
1.29074685506e-08
-2.11603474314e-06
1.52700399137e-08
-2.13797650726e-06
3.07223022568e-08
-2.16619857129e-06
3.14024497393e-08
-2.17844363436e-06
1.80438436937e-08
-2.1207693744e-06
-2.87068274009e-08
-2.03292291911e-06
-5.48022994248e-08
-1.99501120976e-06
-3.4820764351e-08
-1.9878890515e-06
-2.2757874448e-08
-1.98761277498e-06
-2.38847705583e-08
-1.9905569153e-06
-2.98313459218e-08
-1.98790505031e-06
-4.4295614181e-08
-1.97844746445e-06
-6.20564284428e-08
-1.95672925818e-06
-8.35719207253e-08
-1.90046963648e-06
-1.13822981496e-07
-1.79543420043e-06
-1.44982706875e-07
-1.68459686373e-06
-1.56417340409e-07
-1.64908297914e-06
-1.35683392138e-07
-1.60050734716e-06
-1.85558902443e-07
-1.48571557817e-06
-2.7286251388e-07
-1.36761057622e-06
-3.12544031204e-07
-1.22330338955e-06
-3.3751624547e-07
-1.02993727355e-06
-3.73374763209e-07
-8.11289195751e-07
-4.22562835262e-07
-5.5721460107e-07
-4.82128420754e-07
-2.55828069493e-07
-5.47895296642e-07
4.54156364395e-08
-5.63714312009e-07
3.57212018038e-07
-6.3488668081e-07
5.80143369287e-07
-4.50735119382e-07
7.05695536213e-07
-2.62477371847e-07
7.76044382847e-07
-1.61952935268e-07
8.48304116356e-07
-1.37728671974e-07
9.23370918022e-07
-1.28873624169e-07
9.78667246136e-07
-9.77588931953e-08
1.00534476366e-06
-5.11818002467e-08
9.96303441687e-07
8.04840446222e-09
9.53701295183e-07
6.95637877852e-08
9.02063068492e-07
1.09878127627e-07
8.53472236029e-07
1.49998121485e-07
7.78971840475e-07
1.88021566997e-07
6.88155998028e-07
2.11740342936e-07
5.65498641919e-07
2.20247589237e-07
4.32075593789e-07
2.647761304e-07
2.33114327862e-07
3.31948084297e-07
4.48863169398e-07
-1.25165547697e-07
4.0211068736e-07
-1.79422611886e-07
3.49059888173e-07
-3.37339205181e-07
4.32424358166e-07
-5.30030331717e-07
4.52533949244e-07
-7.01045127026e-07
4.37615861058e-07
-7.79545749911e-07
2.67974258943e-07
-8.14034000064e-07
1.40318529118e-07
-8.89736851784e-07
2.00939262996e-07
-9.8071729352e-07
2.53887706269e-07
-1.07119445034e-06
2.56270450406e-07
-1.15469857625e-06
2.39329951615e-07
-1.22254241676e-06
2.15580630206e-07
-1.27951814716e-06
1.88073869563e-07
-1.33545703717e-06
1.67421845251e-07
-1.36782930228e-06
1.32852842527e-07
-1.31001040689e-06
6.19425345014e-08
-1.21080617723e-06
1.12297315264e-08
-1.18766357798e-06
2.68301977022e-08
-1.24901577234e-06
8.43500788527e-08
-1.40154468427e-06
1.89892936437e-07
-1.57258302728e-06
2.53349693194e-07
-1.66872613124e-06
2.33082566228e-07
-1.72768397387e-06
2.04247176733e-07
-1.79979324724e-06
1.91707986411e-07
-1.86637855277e-06
1.74561978899e-07
-1.91396161004e-06
1.54775248736e-07
-1.95285979124e-06
1.32599640788e-07
-1.98749846733e-06
1.10565891397e-07
-2.01524647692e-06
8.86424631123e-08
-2.03896737511e-06
7.22068787221e-08
-2.05105451947e-06
5.27802087715e-08
-2.0570357246e-06
3.83948448883e-08
-2.06724314487e-06
2.48459705058e-08
-2.04858668552e-06
-2.68280958487e-09
-2.04030660487e-06
1.89763452317e-08
-2.07615810826e-06
4.86318212854e-08
-2.08737811692e-06
2.63482036071e-08
-2.09515028397e-06
3.83459077871e-08
-2.14254198748e-06
7.86346828548e-08
-2.18876440114e-06
6.41074724174e-08
-2.22203343292e-06
4.40117754743e-09
-2.23917118045e-06
-3.78207726044e-08
-2.2321814181e-06
-4.19692181131e-08
-2.21459379039e-06
-4.050162366e-08
-2.19186688309e-06
-4.67711399462e-08
-2.16231537573e-06
-5.95401147111e-08
-2.12783842434e-06
-7.89314267901e-08
-2.0872360725e-06
-1.02813855475e-07
-2.03962753986e-06
-1.31333561277e-07
-1.98824669166e-06
-1.65350363064e-07
-1.93361074358e-06
-1.99762922165e-07
-1.86189723519e-06
-2.28276133568e-07
-1.73803025987e-06
-2.59697418186e-07
-1.60208810949e-06
-3.2165018382e-07
-1.49493959421e-06
-3.80168101792e-07
-1.37388420509e-06
-4.33779099841e-07
-1.20936039953e-06
-5.02253136068e-07
-1.00594683081e-06
-5.77046258503e-07
-7.72372279745e-07
-6.5644427202e-07
-5.14644760695e-07
-7.40221361152e-07
-2.49118287872e-07
-8.13838731562e-07
5.76437821402e-08
-8.7096321451e-07
3.06407181546e-07
-8.84142936309e-07
4.94513432417e-07
-6.39174519023e-07
6.37390195323e-07
-4.05556942667e-07
7.62578782368e-07
-2.87296249866e-07
8.52777139955e-07
-2.28054855852e-07
9.09414960906e-07
-1.8564044909e-07
9.45462971492e-07
-1.33935117367e-07
9.61096548516e-07
-6.69627508043e-08
9.66225856109e-07
2.75728456215e-09
9.75962987526e-07
5.96336837158e-08
9.69693167145e-07
1.15926627997e-07
9.18482333032e-07
2.00961563717e-07
8.17836763623e-07
2.88401961384e-07
6.92536851709e-07
3.36738278078e-07
5.63955544844e-07
3.48573241804e-07
4.40146465271e-07
3.88280806639e-07
1.98037364259e-07
5.73382645413e-07
6.46803240341e-07
-8.76002169037e-08
4.89558723666e-07
-1.07091367059e-07
3.68459315216e-07
-3.00544684735e-07
6.25747485617e-07
-4.49243838538e-07
6.0111859797e-07
-4.31872541798e-07
4.20159949213e-07
-3.50472780768e-07
1.86527219422e-07
-4.9435556225e-07
2.84118813114e-07
-7.52048667161e-07
4.58493061815e-07
-9.29246994202e-07
4.30949966185e-07
-1.04501263297e-06
3.71917203058e-07
-1.14312286287e-06
3.37348098507e-07
-1.2219253625e-06
2.94314465894e-07
-1.26427209246e-06
2.30366876722e-07
-1.22315269367e-06
1.26259336706e-07
-1.12488802801e-06
3.45403278563e-08
-1.07764623445e-06
1.46380947032e-08
-1.12000652476e-06
5.35192471315e-08
-1.24710349954e-06
1.53843840538e-07
-1.42992560534e-06
2.67077400591e-07
-1.55753322407e-06
3.17402733009e-07
-1.61532351023e-06
3.11043694127e-07
-1.67982118162e-06
2.97481838484e-07
-1.75168797027e-06
2.7601942805e-07
-1.81051360173e-06
2.50440764172e-07
-1.86044896756e-06
2.244105423e-07
-1.9031642054e-06
1.97402119554e-07
-1.94332385711e-06
1.72675158645e-07
-1.97676131131e-06
1.43913676966e-07
-2.00597521062e-06
1.17770834996e-07
-2.02291824554e-06
8.90648844322e-08
-2.0390003747e-06
6.87771264056e-08
-2.03716114017e-06
3.64754288048e-08
-2.01510157821e-06
2.69209194264e-09
-2.03918349368e-06
2.1287053363e-08
-2.0524699807e-06
3.21414205537e-08
-2.06147737818e-06
5.75012234799e-08
-2.13338354291e-06
9.81032373742e-08
-2.19740121937e-06
1.02205503176e-07
-2.21130063512e-06
9.237848791e-08
-2.2109866463e-06
6.36334353566e-08
-2.22172496081e-06
1.49784217421e-08
-2.23400818607e-06
-2.56995164404e-08
-2.23192467899e-06
-4.42104712595e-08
-2.21790448542e-06
-5.46794033156e-08
-2.19647156458e-06
-6.83593610525e-08
-2.16863153139e-06
-8.75360979016e-08
-2.13533090895e-06
-1.12385634406e-07
-2.09611302357e-06
-1.42184268226e-07
-2.05046663745e-06
-1.77127932978e-07
-1.99852287693e-06
-2.17438308832e-07
-1.93715582885e-06
-2.6126961128e-07
-1.85770472862e-06
-3.07865121924e-07
-1.75459503977e-06
-3.62946820666e-07
-1.64399606133e-06
-4.32394085826e-07
-1.51967835098e-06
-5.04640605466e-07
-1.36861589129e-06
-5.85018007071e-07
-1.18716038637e-06
-6.83921721197e-07
-9.71549894844e-07
-7.9291497815e-07
-7.2526672833e-07
-9.03032968907e-07
-4.6095170996e-07
-1.00488491222e-06
-1.92678799678e-07
-1.08251355395e-06
5.64131476839e-08
-1.12047751235e-06
2.33756480529e-07
-1.0618586638e-06
4.57182856342e-07
-8.62908076316e-07
6.39163404907e-07
-5.87769281572e-07
7.44960457194e-07
-3.932544026e-07
8.26561859481e-07
-3.09788700177e-07
8.96697880315e-07
-2.55884403889e-07
9.54257702619e-07
-1.91604212741e-07
1.00205660661e-06
-1.14875201115e-07
1.03891759073e-06
-3.42705925055e-08
1.04140562466e-06
5.69418890983e-08
9.76579254258e-07
1.80523007527e-07
8.70632785033e-07
3.06664337822e-07
7.55387051559e-07
4.03382871355e-07
6.09520940696e-07
4.82329978272e-07
4.41035047542e-07
5.16744465445e-07
3.05386178079e-07
5.23620004686e-07
1.59350375533e-07
7.19284767425e-07
8.05809849788e-07
-9.633891971e-09
4.99157217269e-07
-9.81218538987e-08
4.5686919577e-07
-2.57561213143e-07
7.85090650176e-07
-3.46483230227e-07
6.89968746448e-07
-2.99139572818e-07
3.72757648544e-07
-3.704097865e-07
2.5773358169e-07
-5.80085789894e-07
4.93684245609e-07
-7.49815258972e-07
6.2809442956e-07
-8.78483193506e-07
5.59491335256e-07
-9.98786575391e-07
4.92119305372e-07
-1.10868087153e-06
4.47170738502e-07
-1.14346984883e-06
3.29049994803e-07
-1.0787328997e-06
1.65591568818e-07
-1.02250196295e-06
6.99806413769e-08
-1.0514812676e-06
6.34517604184e-08
-1.14808860912e-06
1.11164562285e-07
-1.30037083902e-06
2.05708788002e-07
-1.44868859492e-06
3.02061631332e-07
-1.51994454727e-06
3.38237627852e-07
-1.55302521467e-06
3.50390314095e-07
-1.61481133601e-06
3.72735229506e-07
-1.68622485752e-06
3.68800916488e-07
-1.74990883592e-06
3.39611483714e-07
-1.803449439e-06
3.03895120064e-07
-1.85000199605e-06
2.70877109917e-07
-1.8950144218e-06
2.42333936869e-07
-1.92863430479e-06
2.06207496237e-07
-1.96260636476e-06
1.77803110385e-07
-1.98349282151e-06
1.38577432087e-07
-2.00184235994e-06
1.07334970568e-07
-1.99810772561e-06
6.49638101989e-08
-2.00607901316e-06
4.43578314568e-08
-2.04834054876e-06
4.48521420398e-08
-2.04749992648e-06
2.0324671133e-08
-2.07663810641e-06
6.11407024039e-08
-2.14277340361e-06
1.2348663077e-07
-2.18435117578e-06
1.39527848765e-07
-2.2089367234e-06
1.26638339323e-07
-2.21824000865e-06
1.01526075878e-07
-2.22143128595e-06
6.66665495241e-08
-2.22935619611e-06
2.27421470393e-08
-2.23749978653e-06
-1.77163852713e-08
-2.23617245907e-06
-4.5697141771e-08
-2.22433359049e-06
-6.66745988467e-08
-2.20455546527e-06
-8.82924597072e-08
-2.17836345249e-06
-1.13880630353e-07
-2.14646007259e-06
-1.44440105251e-07
-2.10860622097e-06
-1.8018560741e-07
-2.06409780334e-06
-2.21779935916e-07
-2.01168792076e-06
-2.69986574034e-07
-1.94807038266e-06
-3.25021584267e-07
-1.86824707299e-06
-3.87821589947e-07
-1.77041550857e-06
-4.60913871216e-07
-1.6579192063e-06
-5.45029407225e-07
-1.52437711447e-06
-6.38335091542e-07
-1.36117297094e-06
-7.48400550723e-07
-1.16506559314e-06
-8.80246675932e-07
-9.34900266685e-07
-1.02334182269e-06
-6.77504684964e-07
-1.16073262182e-06
-4.1040365254e-07
-1.27232805783e-06
-1.55113767404e-07
-1.33814938508e-06
5.61306429138e-08
-1.33206418065e-06
1.99124511327e-07
-1.20519143386e-06
4.51260830071e-07
-1.11536993928e-06
6.47252966075e-07
-7.83998608187e-07
7.64607595368e-07
-5.10779050628e-07
8.43337610689e-07
-3.88633624139e-07
9.09297691815e-07
-3.21937202382e-07
9.72692530926e-07
-2.55070472391e-07
1.03859486302e-06
-1.80906843257e-07
1.07797880414e-06
-7.3818401764e-08
1.03967788747e-06
9.50295766896e-08
9.50515611456e-07
2.69462916919e-07
8.47908769191e-07
4.09035832777e-07
7.18739811788e-07
5.32274090144e-07
5.57714085051e-07
6.43044793147e-07
4.23225884403e-07
6.51023606332e-07
2.84539918591e-07
6.6212812994e-07
1.27809665781e-07
8.75448208381e-07
9.33582381393e-07
-2.74016814712e-09
5.01816834194e-07
-1.31509507597e-07
5.85577349454e-07
-2.11487188912e-07
8.64993111862e-07
-2.47744540896e-07
7.26154632889e-07
-2.28879887153e-07
3.53846097549e-07
-4.26469532358e-07
4.55242358392e-07
-6.45616240939e-07
7.12715181151e-07
-7.39584375963e-07
7.21940607286e-07
-8.39315015347e-07
6.59125451064e-07
-9.25888582231e-07
5.78614630454e-07
-9.47165248079e-07
4.68386802559e-07
-8.67594542528e-07
2.49445153248e-07
-8.46359703331e-07
1.44311666314e-07
-9.12122657437e-07
1.35680124277e-07
-1.03207799406e-06
1.83325538849e-07
-1.21157129974e-06
2.90558721005e-07
-1.38018547009e-06
3.74219739699e-07
-1.44730068076e-06
3.69084811987e-07
-1.47461746127e-06
3.65465568406e-07
-1.54685785862e-06
4.22538769182e-07
-1.6229727219e-06
4.48757455319e-07
-1.68292694907e-06
4.28664865882e-07
-1.73888707772e-06
3.95485013114e-07
-1.79523727327e-06
3.60159741836e-07
-1.84426085428e-06
3.19821168352e-07
-1.86690308087e-06
2.64894467189e-07
-1.90342789447e-06
2.42655007292e-07
-1.9274846469e-06
2.01783126464e-07
-1.94993240702e-06
1.60945836936e-07
-1.94013220218e-06
9.74584346596e-08
-1.93829964855e-06
6.30510056728e-08
-1.95460200891e-06
6.05664996634e-08
-1.96544247727e-06
5.55816962936e-08
-2.04886295453e-06
1.03612424268e-07
-2.13195502675e-06
1.44082144972e-07
-2.17824407712e-06
1.69623704739e-07
-2.20269357134e-06
1.6382718429e-07
-2.2171472578e-06
1.40941802484e-07
-2.22555725602e-06
1.09783816962e-07
-2.23150800333e-06
7.24606271567e-08
-2.23859128618e-06
2.96653524823e-08
-2.24430909112e-06
-1.21594306506e-08
-2.24294881128e-06
-4.7215986223e-08
-2.23266617868e-06
-7.71129893896e-08
-2.21461399303e-06
-1.06497307454e-07
-2.19007601951e-06
-1.38568905536e-07
-2.15968997957e-06
-1.74972996708e-07
-2.12320280291e-06
-2.16816146118e-07
-2.07970142526e-06
-2.65420467488e-07
-2.02756226386e-06
-3.22260620604e-07
-1.96399896981e-06
-3.88718320489e-07
-1.88565417527e-06
-4.66300361228e-07
-1.79020328649e-06
-5.56499321081e-07
-1.67504651891e-06
-6.60331641928e-07
-1.53287509714e-06
-7.80664659162e-07
-1.35705566494e-06
-9.24408349564e-07
-1.14638643668e-06
-1.09114385722e-06
-9.04573006561e-07
-1.26542155108e-06
-6.4135720133e-07
-1.42424037407e-06
-3.75747462893e-07
-1.53823408038e-06
-1.39009171566e-07
-1.57520775256e-06
4.18004594159e-08
-1.51317503556e-06
2.12817015256e-07
-1.37649991618e-06
4.2626342145e-07
-1.32909618334e-06
6.05640867011e-07
-9.63613120856e-07
7.33152873308e-07
-6.38448178569e-07
8.40199809811e-07
-4.95805151804e-07
9.32882591058e-07
-4.14692652031e-07
1.02289816336e-06
-3.45194564732e-07
1.09812032493e-06
-2.56231144564e-07
1.10014283799e-06
-7.6045342354e-08
1.03839323404e-06
1.56585460032e-07
9.59224849267e-07
3.48427335318e-07
8.55031905695e-07
5.12990082492e-07
7.15338779338e-07
6.71705520095e-07
5.68889878894e-07
7.89247697805e-07
4.22599756359e-07
7.97045578707e-07
2.77153432723e-07
8.07217356367e-07
1.36490254461e-07
1.01605267887e-06
1.06973158242e-06
-4.73113223845e-08
5.49099759897e-07
-2.08905461026e-07
7.47109600044e-07
-2.7670662997e-07
9.32737786012e-07
-2.21535419963e-07
6.70925310848e-07
-2.8450451694e-07
4.16752773489e-07
-5.23678463132e-07
6.94316080188e-07
-6.46176498409e-07
8.35097974373e-07
-7.20500983982e-07
7.96176285962e-07
-7.76167085035e-07
7.14704878344e-07
-8.60161740294e-07
6.62554335928e-07
-8.19501272914e-07
4.27684223763e-07
-7.76000237306e-07
2.05903247987e-07
-8.35783760359e-07
2.04036293485e-07
-9.29394854511e-07
2.29211017591e-07
-1.09501786574e-06
3.48849664709e-07
-1.27599865326e-06
4.71438253874e-07
-1.34563754242e-06
4.43768664529e-07
-1.3693878076e-06
3.92749564323e-07
-1.4570750275e-06
4.53061896875e-07
-1.54901875175e-06
5.14390339638e-07
-1.61617015769e-06
5.15819963304e-07
-1.67604711191e-06
4.88456024163e-07
-1.73311560703e-06
4.52466942401e-07
-1.77532783202e-06
4.02293398118e-07
-1.8021555506e-06
3.46572760669e-07
-1.83236925307e-06
2.95032303315e-07
-1.84610535942e-06
2.56314088346e-07
-1.8745987951e-06
2.30199487985e-07
-1.87989951782e-06
1.6617363537e-07
-1.87220196995e-06
8.96851777393e-08
-1.89659865928e-06
8.73557729877e-08
-1.93509083941e-06
9.89590808491e-08
-2.00013584496e-06
1.20505271383e-07
-2.07570052396e-06
1.7903496753e-07
-2.15712320031e-06
2.25355306651e-07
-2.19492909726e-06
2.07280869896e-07
-2.21270206527e-06
1.81452529207e-07
-2.22504325531e-06
1.53134377816e-07
-2.23493511169e-06
1.19523726071e-07
-2.24279890685e-06
8.01684807081e-08
-2.24967501697e-06
3.63828728416e-08
-2.25408668474e-06
-7.90670499683e-09
-2.25252888159e-06
-4.89309162549e-08
-2.24326485422e-06
-8.65312900238e-08
-2.22668779617e-06
-1.23225716458e-07
-2.20370827817e-06
-1.61696540041e-07
-2.1747943611e-06
-2.04032126638e-07
-2.13968512705e-06
-2.52067026261e-07
-2.09751754538e-06
-3.07726062894e-07
-2.04680063269e-06
-3.73116428983e-07
-1.98518076243e-06
-4.5047673076e-07
-1.90951642244e-06
-5.42104649875e-07
-1.81586224445e-06
-6.50305014297e-07
-1.69833157161e-06
-7.78014227473e-07
-1.54899597203e-06
-9.30177050289e-07
-1.36262927558e-06
-1.11098110574e-06
-1.14018035321e-06
-1.31382392879e-06
-8.87814887397e-07
-1.51803477013e-06
-6.1637991987e-07
-1.69592122932e-06
-3.46741700815e-07
-1.80816138188e-06
-1.2123688176e-07
-1.80097369242e-06
5.32137274405e-08
-1.68789645356e-06
2.40548604897e-07
-1.56410562834e-06
3.50507715003e-07
-1.43935767748e-06
5.61738181748e-07
-1.17508491745e-06
7.20796071823e-07
-7.97679132738e-07
8.73306412763e-07
-6.48416933877e-07
1.00845039756e-06
-5.49961032665e-07
1.11060050467e-06
-4.47406327934e-07
1.15126824483e-06
-2.97104136274e-07
1.12588289311e-06
-5.07993146301e-08
1.08038578972e-06
2.01905538309e-07
1.01078425849e-06
4.17847782013e-07
8.97343665597e-07
6.26232033195e-07
7.48176583619e-07
8.20632633348e-07
6.1252455279e-07
9.24643853962e-07
4.42035769988e-07
9.67297181485e-07
2.73595120363e-07
9.75516094147e-07
1.47573766373e-07
1.14143678943e-06
1.21729922153e-06
-9.12224055513e-08
6.40239454152e-07
-2.40984702873e-07
8.96811760554e-07
-2.60670306981e-07
9.523531717e-07
-1.60890786753e-07
5.71099746014e-07
-3.30438867957e-07
5.86231867313e-07
-5.38198505797e-07
9.01971173103e-07
-6.17768619336e-07
9.14581172546e-07
-6.99442043774e-07
8.77765801146e-07
-6.93033174505e-07
7.08248504985e-07
-7.07628903413e-07
6.77090655556e-07
-6.59089842811e-07
3.79109363768e-07
-7.49176778384e-07
2.95935316896e-07
-8.31202341696e-07
2.85989942852e-07
-9.69711535568e-07
3.67633988812e-07
-1.14956726076e-06
5.28602528703e-07
-1.23632148228e-06
5.58095835738e-07
-1.25856084459e-06
4.65927800185e-07
-1.35016090546e-06
4.8426464264e-07
-1.46019642136e-06
5.6300524043e-07
-1.53566297393e-06
5.89766551246e-07
-1.59528878824e-06
5.75359576241e-07
-1.65289363904e-06
5.45974035582e-07
-1.71644568669e-06
5.15941431802e-07
-1.7745575215e-06
4.60331909947e-07
-1.79050328986e-06
3.62442924032e-07
-1.825411707e-06
3.29869531137e-07
-1.84262969669e-06
2.73457848993e-07
-1.8233037404e-06
2.10799452314e-07
-1.82852285572e-06
1.71317423891e-07
-1.90859486679e-06
1.69670890818e-07
-1.95206170127e-06
1.30727741687e-07
-1.95164638884e-06
9.84289993341e-08
-2.03184208452e-06
2.00571131728e-07
-2.13148472235e-06
2.78532635861e-07
-2.17451168767e-06
2.68235553621e-07
-2.20170030525e-06
2.34323737265e-07
-2.22036716146e-06
1.99973289241e-07
-2.23444812394e-06
1.67067600809e-07
-2.24613710649e-06
1.31061589975e-07
-2.25559633245e-06
8.94730417137e-08
-2.26268457705e-06
4.33136692463e-08
-2.2664196851e-06
-4.32925461033e-09
-2.26476800883e-06
-5.07387012739e-08
-2.25627192562e-06
-9.51804442237e-08
-2.24087622544e-06
-1.38771766696e-07
-2.21918178121e-06
-1.8353841936e-07
-2.19155289346e-06
-2.31805627153e-07
-2.15784545977e-06
-2.85917370937e-07
-2.11750411704e-06
-3.48213685636e-07
-2.06943222807e-06
-4.2133494886e-07
-2.01156608316e-06
-5.08499382835e-07
-1.94035692346e-06
-6.13481198169e-07
-1.85010905434e-06
-7.40712390658e-07
-1.7326892735e-06
-8.95622859811e-07
-1.57944907375e-06
-1.08361494908e-06
-1.38589813147e-06
-1.30474655864e-06
-1.15365301076e-06
-1.54630476114e-06
-8.87208045187e-07
-1.78470033569e-06
-5.9311005419e-07
-1.99028917488e-06
-3.0219267876e-07
-2.09928701114e-06
-7.35303633854e-08
-2.02991739021e-06
9.26744137918e-08
-1.85437813183e-06
2.21706188935e-07
-1.69341220631e-06
3.25822309795e-07
-1.54375380829e-06
5.21886545772e-07
-1.37140359771e-06
7.35998132121e-07
-1.01196634841e-06
9.08894947242e-07
-8.21483260107e-07
1.05962606183e-06
-7.00777306459e-07
1.15759027807e-06
-5.45580601293e-07
1.18902502737e-06
-3.28585419521e-07
1.18631896374e-06
-4.82849549936e-08
1.16827872698e-06
2.19826376577e-07
1.10286770179e-06
4.83122548417e-07
9.76230885453e-07
7.52676035596e-07
8.21062147004e-07
9.75598768132e-07
6.59809741899e-07
1.08564081437e-06
4.73775419197e-07
1.15307713669e-06
2.70330006415e-07
1.17851995715e-06
1.34965227202e-07
1.27682869887e-06
1.35195576226e-06
-1.24098093337e-07
7.64300841489e-07
-2.39857176193e-07
1.01250697408e-06
-2.07032954586e-07
9.19484771181e-07
-2.11413915797e-07
5.75431362868e-07
-4.16260345348e-07
7.91004107409e-07
-5.05019787e-07
9.90645920004e-07
-5.78483143026e-07
9.87975444896e-07
-6.51694939779e-07
9.50921797366e-07
-6.62460038462e-07
7.18957481954e-07
-6.78330271664e-07
6.92913458355e-07
-6.8290597873e-07
3.83634658441e-07
-7.58528004295e-07
3.71497188134e-07
-8.57027780542e-07
3.84409601371e-07
-1.02127401336e-06
5.31780429155e-07
-1.17749217834e-06
6.84726773668e-07
-1.21568689143e-06
5.96209543225e-07
-1.25494502103e-06
5.05105492233e-07
-1.35157738843e-06
5.80807584146e-07
-1.44625555418e-06
6.57591795467e-07
-1.51851005976e-06
6.61931026052e-07
-1.57701776826e-06
6.33776157486e-07
-1.62114276491e-06
5.9002126226e-07
-1.65773399402e-06
5.52462687302e-07
-1.69590016774e-06
4.98429819581e-07
-1.72802552169e-06
3.94506160378e-07
-1.74672227776e-06
3.48494631184e-07
-1.79201291174e-06
3.18676907886e-07
-1.8432104361e-06
2.61922483877e-07
-1.88399056677e-06
2.12022564918e-07
-1.90765138923e-06
1.9324354716e-07
-1.95138442386e-06
1.74353029592e-07
-2.05838167041e-06
2.05298779503e-07
-2.11769552499e-06
2.59742603597e-07
-2.15403605131e-06
3.14728159576e-07
-2.18408716064e-06
2.98144238883e-07
-2.20932910045e-06
2.59422787361e-07
-2.22981129181e-06
2.20310518661e-07
-2.24580511946e-06
1.82913331161e-07
-2.25884404046e-06
1.43949137913e-07
-2.26957683891e-06
1.00051075177e-07
-2.27742878404e-06
5.10093174666e-08
-2.28121941323e-06
-6.9514733533e-10
-2.27964366445e-06
-5.24688482893e-08
-2.2717471748e-06
-1.0322978253e-07
-2.25724242742e-06
-1.53426860066e-07
-2.23640201438e-06
-2.04527514532e-07
-2.20966232934e-06
-2.5869528901e-07
-2.17727744086e-06
-3.18457204552e-07
-2.13923456408e-06
-3.86414728492e-07
-2.09506226183e-06
-4.65685669176e-07
-2.0430854539e-06
-5.60662041259e-07
-1.97933024986e-06
-6.77413891975e-07
-1.89655702354e-06
-8.23703008472e-07
-1.78445172004e-06
-1.00792748717e-06
-1.63266698312e-06
-1.23562105788e-06
-1.4349889585e-06
-1.50265920515e-06
-1.18938326973e-06
-1.79211048762e-06
-8.93566444432e-07
-2.08077247137e-06
-5.54402404367e-07
-2.3296052878e-06
-2.37294133557e-07
-2.41672147586e-06
-3.18180115936e-08
-2.23567047923e-06
9.28830101324e-08
-1.97935781995e-06
2.06625081669e-07
-1.8074287936e-06
3.37641415707e-07
-1.67501585363e-06
4.81688062184e-07
-1.51571708917e-06
7.32313207737e-07
-1.26283247869e-06
9.74712961882e-07
-1.06403705432e-06
1.13232071659e-06
-8.58610146868e-07
1.2240072245e-06
-6.37257147416e-07
1.26028736864e-06
-3.65119858883e-07
1.29236447083e-06
-8.03742689686e-08
1.30518633594e-06
2.06903042478e-07
1.24274523463e-06
5.45433139863e-07
1.08932126523e-06
9.05951701007e-07
9.00941163834e-07
1.16371984651e-06
6.92345795646e-07
1.29400908251e-06
4.83417611636e-07
1.36171060648e-06
2.63787193895e-07
1.39809104883e-06
1.09071226912e-07
1.43098373625e-06
1.46109864998e-06
-1.50126361858e-07
9.14329251124e-07
-2.53435973304e-07
1.11573861017e-06
-1.90040409842e-07
8.56032083417e-07
-2.63088895926e-07
6.48431308954e-07
-4.44494108254e-07
9.72339198679e-07
-4.64336879102e-07
1.01043320893e-06
-5.29956537644e-07
1.0535247346e-06
-5.45542626198e-07
9.6646322383e-07
-6.01581698431e-07
7.74951013352e-07
-5.84657857294e-07
6.7593694541e-07
-6.60999890321e-07
4.59925719753e-07
-7.57353260762e-07
4.67778010365e-07
-8.69920751688e-07
4.96899870107e-07
-1.02382734576e-06
6.8559632005e-07
-1.10782734474e-06
7.68635543149e-07
-1.12256002341e-06
6.10869269319e-07
-1.21780487696e-06
6.00269966042e-07
-1.32851664428e-06
6.9142941741e-07
-1.41642071589e-06
7.45404210553e-07
-1.49414419517e-06
7.39563787375e-07
-1.56289460074e-06
7.02449369405e-07
-1.62154096383e-06
6.48592932564e-07
-1.64577961233e-06
5.7662865777e-07
-1.65881700642e-06
5.11405572229e-07
-1.72103980091e-06
4.56665120504e-07
-1.74176744237e-06
3.69151180296e-07
-1.72370122407e-06
3.00546811158e-07
-1.7356673422e-06
2.73821031607e-07
-1.79506864772e-06
2.71341289755e-07
-1.88827295478e-06
2.86354594952e-07
-1.96875117416e-06
2.5471792192e-07
-2.03735911228e-06
2.73773849563e-07
-2.12703875777e-06
3.49274220836e-07
-2.16772703736e-06
3.55274765411e-07
-2.19446678753e-06
3.24744164796e-07
-2.21972159693e-06
2.84535521571e-07
-2.24197105333e-06
2.42414306844e-07
-2.25972583374e-06
2.00519407384e-07
-2.27372871857e-06
1.57800061751e-07
-2.28521939189e-06
1.11387656923e-07
-2.29389081668e-06
5.95249861381e-08
-2.29828466585e-06
3.54329419415e-09
-2.2971040454e-06
-5.38047925894e-08
-2.2896471986e-06
-1.10840642097e-07
-2.27567788231e-06
-1.67549989054e-07
-2.25528394259e-06
-2.25077777129e-07
-2.22890586256e-06
-2.85231861666e-07
-2.19739218165e-06
-3.50138628172e-07
-2.16176752037e-06
-4.22230748948e-07
-2.12263966704e-06
-5.05010818763e-07
-2.07919660896e-06
-6.04315409604e-07
-2.02757446789e-06
-7.29284430567e-07
-1.95916302982e-06
-8.92309502729e-07
-1.86087767916e-06
-1.10644703113e-06
-1.71801194605e-06
-1.37870700797e-06
-1.51769401898e-06
-1.70316709052e-06
-1.24578523663e-06
-2.06425795407e-06
-8.87361425541e-07
-2.43933865844e-06
-4.86390366834e-07
-2.73097590849e-06
-1.79493054574e-07
-2.72386928133e-06
-3.8220819633e-08
-2.37729611577e-06
4.70786409001e-08
-2.06494326389e-06
1.73764184073e-07
-1.9343960003e-06
3.52908428404e-07
-1.85440916571e-06
5.66174710374e-07
-1.72922129943e-06
8.43413251862e-07
-1.54029177681e-06
1.0662266165e-06
-1.28715648548e-06
1.18946921802e-06
-9.81864648112e-07
1.27566689145e-06
-7.23768502691e-07
1.34655667824e-06
-4.35878564506e-07
1.43029951083e-06
-1.64278866066e-07
1.49322129473e-06
1.43895632865e-07