/*--------------------------------*- C++ -*----------------------------------*\
| =========                 |                                                 |
| \\      /  F ield         | OpenFOAM: The Open Source CFD Toolbox           |
|  \\    /   O peration     | Version:  v1806                                 |
|   \\  /    A nd           | Web:      www.OpenFOAM.com                      |
|    \\/     M anipulation  |                                                 |
\*---------------------------------------------------------------------------*/
FoamFile
{
    version     2.0;
    format      ascii;
    class       volVectorField;
    location    "340";
    object      U;
}
// * * * * * * * * * * * * * * * * * * * * * * * * * * * * * * * * * * * * * //

dimensions      [0 1 -1 0 0 0 0];


internalField   nonuniform List<vector> 
6400
(
(-8.57625817291e-05 -0.000115232450078 0)
(-0.000234747157054 -8.92431264118e-05 0)
(-0.000344198856592 -7.33229097893e-05 0)
(-0.000469213958639 -6.54418234935e-05 0)
(-0.000557991049913 -3.91207342722e-05 0)
(-0.000619815591716 -1.77477031375e-05 0)
(-0.000645076091463 -1.00131420021e-05 0)
(-0.000662155751404 -2.13793829228e-05 0)
(-0.000742816745513 -3.45263504663e-05 0)
(-0.000826135103163 -3.21534876412e-05 0)
(-0.000848465272577 -2.8448885583e-05 0)
(-0.000925502848713 -3.23519589837e-05 0)
(-0.000992103988955 -2.89158638133e-05 0)
(-0.00104439903151 -2.18729975999e-05 0)
(-0.00107812400199 -1.83549116428e-05 0)
(-0.00111462780109 -2.18197119484e-05 0)
(-0.00116519178508 -2.27126606552e-05 0)
(-0.00120550703595 -1.85066423326e-05 0)
(-0.00122910706354 -1.18493966153e-05 0)
(-0.00124684803893 -7.61660312795e-06 0)
(-0.00127413283692 -1.35563863967e-05 0)
(-0.00131481284348 -2.12007963618e-05 0)
(-0.0013623728844 -2.3597795919e-05 0)
(-0.00140540441932 -2.37487009443e-05 0)
(-0.00144638780376 -2.15495210715e-05 0)
(-0.00148456533707 -1.81421098866e-05 0)
(-0.0015229010254 -1.69900423102e-05 0)
(-0.0015573922508 -1.50419057628e-05 0)
(-0.00158418051909 -1.18869707975e-05 0)
(-0.00160436675845 -9.35550138368e-06 0)
(-0.00161805050763 -9.12864015399e-06 0)
(-0.00163401116629 -8.0308067943e-06 0)
(-0.00164978639276 -5.10616232388e-06 0)
(-0.00165930031199 -4.84272371339e-06 0)
(-0.00166612433741 -4.0643704129e-06 0)
(-0.00168076831141 -3.36655554179e-06 0)
(-0.00169289396501 -4.4981518434e-06 0)
(-0.0016843305766 -3.52170265588e-06 0)
(-0.00169267558443 -1.22312956642e-06 0)
(-0.00171071092937 -1.74560962043e-06 0)
(-0.00172297474753 -9.52278398068e-06 0)
(-0.00172682412532 -1.11352324966e-05 0)
(-0.00172758404 1.29629356167e-07 0)
(-0.00172132097557 7.63837440706e-06 0)
(-0.00170567096694 1.08391090689e-05 0)
(-0.00168445807243 1.43682747365e-05 0)
(-0.00165664454379 1.76791067515e-05 0)
(-0.0016205186118 2.18187328347e-05 0)
(-0.00157664973483 2.53215650856e-05 0)
(-0.00152606557173 2.40643667529e-05 0)
(-0.0014750009871 1.86747311946e-05 0)
(-0.00143995631202 2.23968636397e-05 0)
(-0.00137602004892 4.3925285593e-05 0)
(-0.00129529487521 5.42794266072e-05 0)
(-0.00118816434726 6.13388590865e-05 0)
(-0.00103797254487 7.34190433139e-05 0)
(-0.000885594605866 7.0253809229e-05 0)
(-0.000753318269572 6.65520930979e-05 0)
(-0.000619015638008 7.64538926471e-05 0)
(-0.000433445693211 8.15756564544e-05 0)
(-0.000251170433774 8.64609794027e-05 0)
(-5.8666255499e-05 0.000105719815492 0)
(0.000208875622509 0.000129842041983 0)
(0.000436072449335 8.6672738676e-05 0)
(0.000532244893015 4.84698632978e-05 0)
(0.000592305235086 3.28766303394e-05 0)
(0.000640514250427 2.13491909101e-05 0)
(0.000686429323654 1.47489129651e-05 0)
(0.000727123570513 9.89793096922e-06 0)
(0.000744776943961 3.14108509958e-06 0)
(0.000748430441578 -4.61596715969e-06 0)
(0.000721465142827 -1.3507931358e-05 0)
(0.00067142087004 -2.49789464426e-05 0)
(0.000638372329921 -4.08617415401e-05 0)
(0.000513333776703 -4.05973298983e-05 0)
(0.000471614012855 -4.19929850659e-05 0)
(0.000326282366793 -2.85753049324e-05 0)
(0.000346646511289 -4.56676098573e-05 0)
(0.00015327045768 -3.548612705e-05 0)
(0.000114768203039 -6.85074579263e-05 0)
(-3.14785582522e-05 -0.00015852793549 0)
(-0.000134979402247 -0.000179738464217 0)
(-0.00023649201695 -0.000165497543107 0)
(-0.000300177565544 -0.000131992001209 0)
(-0.000442633203486 -0.000130307485563 0)
(-0.000581282374265 -9.16145763984e-05 0)
(-0.000662238079756 -5.40688792482e-05 0)
(-0.000714142503657 -7.33685385738e-05 0)
(-0.00076870791789 -9.95080852551e-05 0)
(-0.000830970529024 -9.67914869755e-05 0)
(-0.000890154609432 -9.04467860048e-05 0)
(-0.000943787698141 -8.99979346421e-05 0)
(-0.000993154908934 -7.93870941248e-05 0)
(-0.00103721074417 -6.46409679278e-05 0)
(-0.00108143869013 -5.75420120627e-05 0)
(-0.00112406543371 -7.13005400731e-05 0)
(-0.00116741223601 -7.50435737274e-05 0)
(-0.00119863478738 -4.50477588215e-05 0)
(-0.00117868325058 -2.38979687959e-05 0)
(-0.00120561122193 -2.33123452115e-05 0)
(-0.00124727067162 -4.38775246163e-05 0)
(-0.00129938329795 -7.18828391119e-05 0)
(-0.00136353122041 -7.90320909563e-05 0)
(-0.00141529100899 -6.89338349975e-05 0)
(-0.00143700646667 -6.11709494963e-05 0)
(-0.00148572951067 -5.78855257074e-05 0)
(-0.00152842525855 -5.21108714713e-05 0)
(-0.00155858620923 -4.36923639206e-05 0)
(-0.00158306672808 -3.52591943816e-05 0)
(-0.00160411387003 -2.84079314405e-05 0)
(-0.0016213866202 -2.54680308582e-05 0)
(-0.0016249404357 -2.13307965738e-05 0)
(-0.00163982966683 -1.22486284188e-05 0)
(-0.00164619326431 -1.3200257417e-05 0)
(-0.00164672425731 -1.60705357532e-05 0)
(-0.00167655366234 -9.59678832643e-06 0)
(-0.00167847974476 -1.172473002e-05 0)
(-0.00167193434933 -1.55304863013e-05 0)
(-0.00169060757932 -1.18812931536e-05 0)
(-0.00172625196174 -6.64886275323e-06 0)
(-0.00174205033135 2.0853820283e-06 0)
(-0.00164280428615 1.00517478347e-05 0)
(-0.00160084182367 1.42961869267e-05 0)
(-0.00160226454856 1.76282207725e-05 0)
(-0.00159282047235 2.17678938619e-05 0)
(-0.00158860508355 2.80609778658e-05 0)
(-0.00158392518693 3.72439008712e-05 0)
(-0.00156500864107 4.83889585514e-05 0)
(-0.00154816649405 6.08061330872e-05 0)
(-0.0015169813113 7.19726475004e-05 0)
(-0.00145636358944 7.87373414318e-05 0)
(-0.00135524059364 8.47472500917e-05 0)
(-0.00125911883141 9.65345857083e-05 0)
(-0.00129514326592 0.000132702131237 0)
(-0.00117282206444 0.000170277660807 0)
(-0.00105551764269 0.000195638123209 0)
(-0.00097150716138 0.000210682750937 0)
(-0.000833620415764 0.00022265264456 0)
(-0.000670600151522 0.000250387953518 0)
(-0.000492524278459 0.000286485485716 0)
(-0.000288474397397 0.000323893921822 0)
(-4.71676996173e-05 0.000307911736982 0)
(0.000216185074991 0.000377415481294 0)
(0.000430353540285 0.000268314028199 0)
(0.000532305821325 0.000150776787868 0)
(0.000565525599376 8.38084162384e-05 0)
(0.000599764013261 6.17984271147e-05 0)
(0.000673826454014 5.46384074955e-05 0)
(0.00071841003675 3.69919887695e-05 0)
(0.000748999428226 1.13028078193e-05 0)
(0.000744400837844 -1.9454304774e-05 0)
(0.000710973288812 -4.99041194396e-05 0)
(0.000645139772111 -6.89776887659e-05 0)
(0.000627806559861 -9.41615144728e-05 0)
(0.000573647313754 -0.000110319930607 0)
(0.000513185443588 -0.000119467908695 0)
(0.000437637600342 -0.000115497908246 0)
(0.000357461438987 -0.000138111202985 0)
(0.000225886856162 -0.000160962991202 0)
(0.000105546067905 -0.000271845009279 0)
(-4.83123240042e-05 -0.000273847459737 0)
(-0.000132231156068 -0.000301755881418 0)
(-0.000203168699008 -0.000283118604258 -9.89489759208e-29)
(-0.000354586655373 -0.00029256307098 9.47844342372e-29)
(-0.00049917325508 -0.000293316695979 8.63543885048e-29)
(-0.000583221628372 -0.000235024118412 -7.95681775101e-29)
(-0.000639501906019 -0.000118984006362 8.09031549304e-29)
(-0.000694017316646 -0.000128795404314 -8.03062072769e-29)
(-0.000752149858012 -0.00015977772557 0)
(-0.000819175668878 -0.000163639787863 0)
(-0.000885106445712 -0.000153244379185 0)
(-0.000941571782437 -0.000140120176118 0)
(-0.000991105575211 -0.000123200823695 0)
(-0.00103362923877 -0.000110656350914 0)
(-0.00107620433223 -0.00010109310186 0)
(-0.00111681506062 -8.22174167951e-05 0)
(-0.000991070975365 -5.09641065684e-05 0)
(-0.000953257035325 -3.2839104688e-05 0)
(-0.000982984482067 -4.27671040976e-05 0)
(-0.00105526281479 -8.28522654509e-05 0)
(-0.00122999369302 -0.000128554657958 0)
(-0.00132448699016 -0.00014200777419 0)
(-0.00134632161799 -0.000130307904019 0)
(-0.00139930455555 -0.000115486226733 0)
(-0.00145391657563 -0.000105486743359 0)
(-0.00149169894749 -9.76392036743e-05 0)
(-0.00152420073956 -8.46528958866e-05 0)
(-0.00155469147247 -7.05059654376e-05 0)
(-0.00157980494754 -5.77042465163e-05 0)
(-0.00159752921296 -4.75674702503e-05 -1.68964781639e-28)
(-0.0016192452942 -3.81937068778e-05 1.64096310934e-28)
(-0.00161317960816 -3.02579493834e-05 0)
(-0.0016213572093 -2.0307465874e-05 0)
(-0.00165362909548 -1.10390794356e-05 0)
(-0.00160592027226 -2.15213374586e-05 0)
(-0.00163506137362 -2.64764870955e-05 0)
(-0.00168592105526 -1.82985197725e-05 0)
(-0.00164355062859 -2.49112457236e-05 0)
(-0.00167354972206 -3.58461659458e-05 0)
(-0.00172254774376 -2.46336260613e-05 0)
(-0.00174460321582 1.18201756147e-05 0)
(-0.00174187450682 3.65170537423e-05 0)
(-0.00173504364793 3.33418923286e-05 0)
(-0.00172591532457 3.02923272869e-05 0)
(-0.0017105195328 3.4870995613e-05 0)
(-0.00168958671429 4.35808423924e-05 0)
(-0.00166361571289 5.7503950642e-05 0)
(-0.00163243318943 7.42939617178e-05 0)
(-0.00159595821403 9.40672674044e-05 0)
(-0.00155373172356 0.000119013281628 0)
(-0.00150541201579 0.000145529275828 0)
(-0.00144871677164 0.000164470946085 0)
(-0.00137823063494 0.000173263552112 0)
(-0.00127846792849 0.00020977084331 0)
(-0.00115994868145 0.000259624024405 0)
(-0.00107705745483 0.000298851015449 0)
(-0.000963011889507 0.000334536268188 0)
(-0.000814461402993 0.000376409469834 0)
(-0.000642875294775 0.000425242702867 0)
(-0.000451959293874 0.000480035125357 0)
(-0.000244615212875 0.000533105173031 0)
(-2.40863703332e-05 0.000590004884731 0)
(0.000217144692649 0.000617728984059 0)
(0.000373475675572 0.000407408797489 0)
(0.00045385601595 0.000223475434181 0)
(0.000543311884262 0.000149863168616 0)
(0.000621218210801 0.0001197743719 0)
(0.000665823853324 9.47853908552e-05 0)
(0.000697669282671 5.84585444831e-05 0)
(0.000712899199211 1.30271115042e-05 0)
(0.000704672795589 -3.20494465531e-05 0)
(0.000688280977934 -6.76325764732e-05 0)
(0.000689912616944 -9.55798656396e-05 0)
(0.000672082318712 -0.000136465863559 0)
(0.000607943371534 -0.000178046466263 0)
(0.000526010992878 -0.000197195516268 0)
(0.000437462943924 -0.000205128082943 0)
(0.000349184993655 -0.000258060661143 0)
(0.000245581911743 -0.000370805356619 0)
(6.54087419215e-05 -0.000385117329095 0)
(-4.92384402045e-05 -0.00041442551067 0)
(-5.996601597e-05 -0.000273752659908 0)
(-0.000168107645975 -0.000432616570516 0)
(-0.000314100729246 -0.000439398360952 0)
(-0.000428107571876 -0.000369599092644 0)
(-0.000234895187564 -0.000135368405698 0)
(-0.000292670665839 -0.00013532321775 0)
(-0.000562605785139 -0.000254634138815 0)
(-0.00070530121979 -0.000271708205195 0)
(-0.000791397695153 -0.000245214707187 0)
(-0.000872033291637 -0.00022364332967 0)
(-0.000937100119823 -0.000198426154208 0)
(-0.00098954139576 -0.000171191332708 0)
(-0.00102043378002 -0.000128258966916 0)
(-0.000946305734821 -7.07952070716e-05 0)
(-0.000885474984288 -3.3625335977e-05 0)
(-0.000882437080082 -2.94586322358e-05 0)
(-0.000941177300326 -6.98654803797e-05 0)
(-0.00108282067241 -0.000137891080444 0)
(-0.00123008324662 -0.000207440625997 0)
(-0.00127008466366 -0.000219515622131 0)
(-0.00131404860647 -0.000198720812629 0)
(-0.00136720683768 -0.000179869412377 0)
(-0.00141246155295 -0.000165324945329 0)
(-0.00145149416305 -0.000148812544498 0)
(-0.0014860023443 -0.000131456363814 0)
(-0.00151598892191 -0.000114639937484 0)
(-0.00155114972248 -9.72519636706e-05 0)
(-0.00156963095087 -8.00226135026e-05 0)
(-0.00159942365141 -6.48629904437e-05 0)
(-0.00159656570093 -5.0787988987e-05 0)
(-0.00162410070261 -3.53553927861e-05 0)
(-0.00159259931014 -1.82401567787e-05 0)
(-0.00160461129888 -1.60104431684e-05 0)
(-0.00165611687433 -2.66756274273e-05 0)
(-0.00161786901299 -4.20582235151e-05 0)
(-0.00166556528971 -4.56878549439e-05 0)
(-0.00171926451689 -4.87270802504e-05 0)
(-0.0017317404559 -5.54325897712e-05 0)
(-0.00173673117248 -3.79250119182e-05 0)
(-0.00174185886318 -1.24852605044e-06 0)
(-0.00174256107708 2.74685034705e-05 0)
(-0.00173869070869 3.8198091518e-05 0)
(-0.00173003612387 4.41706190354e-05 0)
(-0.00171533621541 5.37824139086e-05 0)
(-0.00169521423083 6.78182139139e-05 1.59505271803e-28)
(-0.00167010320878 8.62106034225e-05 -1.6069340603e-28)
(-0.00163985801348 0.000108196742695 0)
(-0.001604155274 0.000133873514303 0)
(-0.00156232223792 0.000163342161617 0)
(-0.00151303161952 0.000194416545197 0)
(-0.00145317305178 0.000225280264213 0)
(-0.001379027319 0.000261494484241 0)
(-0.00128904185425 0.000311762093375 0)
(-0.00118834417721 0.000362572202978 0)
(-0.00107769302317 0.000413317497807 0)
(-0.000946618012298 0.0004758321796 0)
(-0.000788233724779 0.000545392118062 3.09901464601e-28)
(-0.000604256695742 0.000618631095293 -3.55553755989e-28)
(-0.000400477136995 0.000691242812347 0)
(-0.000187114361753 0.000750572137919 0)
(1.94200355155e-05 0.000780207036862 0)
(0.000186426744459 0.000736147386882 0)
(0.000335053241867 0.000553895167317 0)
(0.000480185335373 0.000355014579948 0)
(0.000543276801229 0.00022733020807 0)
(0.000600176769845 0.000168161046582 0)
(0.000652056264529 0.000127480214822 0)
(0.000688473400571 7.88079007192e-05 0)
(0.000722190495163 2.17530960449e-05 0)
(0.000739484057545 -3.0549473534e-05 0)
(0.000744967375319 -7.32399289966e-05 0)
(0.00071917688574 -0.000127658345936 0)
(0.000630266418131 -0.000189711127387 0)
(0.000558152391485 -0.000245031927968 0)
(0.000485851484914 -0.000291258160818 0)
(0.000383157535427 -0.000316600972591 0)
(0.000235391512375 -0.000307208224982 0)
(0.000173708161601 -0.000431413785165 0)
(5.91274132909e-05 -0.000517334831019 0)
(-4.01317448715e-06 -0.000409738291038 0)
(-2.91226034132e-05 -0.000334314190401 0)
(-0.000154989833211 -0.000574745881913 0)
(-0.000267838960915 -0.000528345985251 0)
(-0.000277001469051 -0.000332964504895 0)
(-0.000215449471156 -0.000180052752507 0)
(-0.000370258094939 -0.00030140645753 0)
(-0.000583297835399 -0.00043679515746 0)
(-0.00066222711117 -0.000389221030726 0)
(-0.000758944861429 -0.000337796802212 0)
(-0.000845345791766 -0.000308724894592 0)
(-0.000915977084923 -0.000264178203373 0)
(-0.000913030409051 -0.000171236921187 0)
(-0.000822630029472 -8.00602249618e-05 0)
(-0.000837756044277 -4.56239573292e-05 0)
(-0.00088975549958 -5.6112116368e-05 0)
(-0.000985901880877 -0.000107145512075 0)
(-0.00111292182208 -0.000188383985205 0)
(-0.00120394358543 -0.000249461765127 0)
(-0.00121903441523 -0.000257323942753 0)
(-0.0012626462047 -0.000256715281529 0)
(-0.00132121546196 -0.000250295504549 0)
(-0.00136690142718 -0.000230641043716 0)
(-0.00140930200001 -0.000207268400269 0)
(-0.00144627508903 -0.000184935045733 0)
(-0.00147728429148 -0.000165336712392 0)
(-0.00151586266573 -0.000144731437681 0)
(-0.00153169275241 -0.000122969964656 0)
(-0.00157352287828 -0.000101815309278 0)
(-0.00156626800006 -7.96534505928e-05 0)
(-0.00161105020744 -5.98455228945e-05 -1.61144336641e-28)
(-0.00155648737961 -3.93926392096e-05 1.49600792903e-28)
(-0.00160799506377 -2.93283684425e-05 0)
(-0.00164767553953 -2.65787952642e-05 0)
(-0.00161958846114 -4.12209802554e-05 0)
(-0.00168302839552 -6.77229006979e-05 0)
(-0.0017103036166 -8.39720496258e-05 0)
(-0.00172865501666 -7.69477231179e-05 0)
(-0.00173791256197 -6.10265004271e-05 0)
(-0.00174211357008 -3.70714817348e-05 0)
(-0.00174611907913 -4.73021309078e-06 0)
(-0.00174773901068 2.41545577548e-05 0)
(-0.00174485212736 4.25120249308e-05 0)
(-0.00173667350394 5.61796716826e-05 0)
(-0.00172277278987 7.14752194024e-05 0)
(-0.00170367520672 9.04913555982e-05 0)
(-0.00167964960607 0.000113655690551 0)
(-0.00165048539067 0.000140873085078 0)
(-0.0016156222859 0.000172423605773 0)
(-0.00157407435401 0.000208562910374 0)
(-0.00152418019687 0.000248785653376 0)
(-0.00146319143406 0.000293267424198 0)
(-0.00138832428487 0.00034466944955 0)
(-0.00129841326037 0.000404640243375 0)
(-0.00119442568698 0.000469666201039 0)
(-0.00107411942665 0.000543926721064 0)
(-0.000930230214324 0.000631859463831 0)
(-0.000758246191065 0.000728036275294 0)
(-0.00056076459209 0.000823039530868 0)
(-0.000348021023079 0.000904255349 0)
(-0.000136965030724 0.000954050425317 0)
(5.14516394763e-05 0.000952672787629 0)
(0.000182633394254 0.000862566928552 0)
(0.000339481898286 0.000717614781981 0)
(0.000505768727163 0.000501054835911 0)
(0.00057669164386 0.000309470127101 0)
(0.000626510796802 0.00021714893351 0)
(0.000662653955123 0.000161227222955 0)
(0.000691771921676 0.000105256241192 0)
(0.000728305571123 4.52748471485e-05 0)
(0.000767398791052 -1.73772415224e-05 0)
(0.00076055196569 -9.68614250076e-05 0)
(0.000671464529748 -0.000182990197388 0)
(0.000606011906487 -0.000260191739131 0)
(0.000542745238425 -0.000331760102481 0)
(0.000460934907643 -0.000397836811321 0)
(0.000340076925639 -0.000407585183041 0)
(0.000229841958134 -0.00041286718363 0)
(0.000156866591719 -0.000560706812424 0)
(4.43331238035e-05 -0.000604836574617 0)
(1.57459396884e-06 -0.000380596950518 0)
(-3.75901904147e-05 -0.000408410435053 0)
(-0.000158098665599 -0.000655918721012 0)
(-0.000218217755326 -0.00053379627276 0)
(-0.000160538815012 -0.000255762735653 0)
(-0.00021858219717 -0.000261307786611 0)
(-0.000477364429931 -0.000504571743059 0)
(-0.000564959746318 -0.000531105856471 0)
(-0.000634022856433 -0.00047771227916 0)
(-0.000719167223548 -0.000429818266887 0)
(-0.000801882173901 -0.000365269250236 0)
(-0.00073253613922 -0.000234561332559 0)
(-0.000663363693113 -0.000118677028012 0)
(-0.000717169486094 -8.86051476651e-05 0)
(-0.000784565813939 -0.000104590449624 0)
(-0.000916520060098 -0.000162556148096 0)
(-0.00106040987926 -0.000235207406727 0)
(-0.00115418810592 -0.000275397084454 0)
(-0.00115133260857 -0.000272673625503 0)
(-0.00120553224551 -0.000293223701964 0)
(-0.00127371240661 -0.000311697484003 0)
(-0.00131897251091 -0.000299994402599 0)
(-0.00136114664741 -0.000275399290763 0)
(-0.00139930307969 -0.000248814321326 0)
(-0.00144456714059 -0.000223614035082 0)
(-0.00147595795193 -0.000194368294596 0)
(-0.0014784932853 -0.000170938741374 0)
(-0.00154180330345 -0.000149898252731 0)
(-0.00151707163431 -0.000118139705271 0)
(-0.00158796410567 -8.9276413476e-05 0)
(-0.00150509552836 -5.81203927748e-05 0)
(-0.00159141747719 -5.22554186676e-05 0)
(-0.00152580299437 -4.82515386581e-05 0)
(-0.00160579015102 -5.54091916048e-05 0)
(-0.00167862901657 -7.98307745668e-05 0)
(-0.00170855259926 -0.000105336378534 0)
(-0.00172443786743 -0.000104046026371 0)
(-0.00173594419873 -8.84601550319e-05 0)
(-0.00174350441261 -6.65896305162e-05 0)
(-0.00174877428462 -3.96292491726e-05 0)
(-0.00175281007996 -8.15217131056e-06 0)
(-0.00175460437092 2.19609335096e-05 0)
(-0.001752342189 4.6164743996e-05 0)
(-0.00174484792668 6.67303021168e-05 0)
(-0.00173199909899 8.78626488725e-05 0)
(-0.001714104954 0.000111945521368 0)
(-0.00169140144291 0.000139982315822 0)
(-0.00166353292283 0.000172499743782 0)
(-0.00162968078993 0.000210178967636 0)
(-0.00158868294607 0.00025373987123 0)
(-0.00153882159307 0.000303719009047 0)
(-0.00147763556063 0.000360973749132 0)
(-0.00140257943694 0.000426860173216 0)
(-0.0013117043796 0.000501953612357 0)
(-0.00120309999348 0.000586941005458 0)
(-0.00107268299272 0.000686391593494 0)
(-0.00091502721189 0.000801316211295 0)
(-0.000729194515187 0.000922486810612 0)
(-0.000521868900557 0.001034271126 0)
(-0.000305254013984 0.00111479651108 0)
(-0.000100090072354 0.00114337619095 0)
(7.24673819187e-05 0.00109082406926 0)
(0.000194748325935 0.000930188284524 0)
(0.000378704276058 0.000901678019437 0)
(0.000493181400788 0.000613116834381 0)
(0.000563369996328 0.000379769388588 0)
(0.000631088793638 0.000260322615345 0)
(0.000677903868383 0.00019203019056 0)
(0.000709170891814 0.000134652355721 0)
(0.000764608611033 7.36262627678e-05 0)
(0.000798445420311 -2.16097772406e-05 0)
(0.000727593091243 -0.000140520505661 0)
(0.000654754843755 -0.00023975523676 0)
(0.000612952560479 -0.000329553742874 0)
(0.000542086579653 -0.000418663128474 0)
(0.000462403894823 -0.000501369548112 0)
(0.000334447887271 -0.000490973121991 0)
(0.000235774049242 -0.000509951323795 0)
(0.000158285415154 -0.000663888216691 0)
(4.81083165253e-05 -0.000692176279669 0)
(-1.36883328045e-05 -0.000413510452071 0)
(-9.01766129278e-05 -0.000538253654058 0)
(-0.00020937525584 -0.000715568259945 0)
(-0.000232234040578 -0.000657014523711 0)
(-0.000151559391906 -0.000319753286947 0)
(-0.000322160290964 -0.000471529680251 0)
(-0.000501279357332 -0.000625168168379 0)
(-0.000544247678677 -0.000596584556887 0)
(-0.000611932258232 -0.000544749298989 0)
(-0.000651219565812 -0.000486531550777 0)
(-0.000763028222549 -0.000395198012722 3.70300965642e-28)
(-0.000576289815075 -0.00017642975839 -2.11731909164e-28)
(-0.000663723472555 -0.000148406582282 0)
(-0.000704591852702 -0.000155898040889 0)
(-0.000821653368702 -0.000215738082096 0)
(-0.000983461137635 -0.000307734356629 0)
(-0.00108743705259 -0.000336969877889 0)
(-0.00106298454827 -0.000297160190992 0)
(-0.00112786311442 -0.000314693164514 0)
(-0.0012189193438 -0.000358895567398 0)
(-0.00126383289896 -0.000364765008973 0)
(-0.00131191511757 -0.000346071066918 0)
(-0.00135678598256 -0.000319415205281 0)
(-0.00139786931331 -0.000288125476945 0)
(-0.00142341094242 -0.000252093035336 0)
(-0.00143388657798 -0.000215255028515 0)
(-0.0014920992475 -0.000193997239789 0)
(-0.00145063647945 -0.000168325231369 0)
(-0.00154892143003 -0.000136650143445 0)
(-0.00145545601553 -8.0543944522e-05 0)
(-0.00155415064834 -7.00386479276e-05 0)
(-0.00149873698803 -7.2477451786e-05 1.43656802958e-28)
(-0.00158388901835 -7.81549082e-05 -1.51889265268e-28)
(-0.00161351446246 -0.000109003074307 0)
(-0.00170226736446 -0.000134950064883 0)
(-0.00172206775727 -0.000132407491329 0)
(-0.00173264871867 -0.000117719924498 0)
(-0.00174207886778 -9.72282007752e-05 0)
(-0.00175062575675 -7.24085163598e-05 0)
(-0.00175711832908 -4.35746562984e-05 0)
(-0.00176137489773 -1.14817072997e-05 0)
(-0.00176331405836 2.0533758975e-05 0)
(-0.00176149913558 4.95152851054e-05 0)
(-0.00175477041821 7.60810907258e-05 0)
(-0.00174300948542 0.000102827569003 0)
(-0.001726485348 0.000131964350923 0)
(-0.0017052869163 0.000164929782558 0)
(-0.00167889115208 0.000202843127571 0)
(-0.00164635338645 0.000246870489756 0)
(-0.00160649531107 0.000298249827413 0)
(-0.00155763390313 0.000358226562378 0)
(-0.00149735357409 0.000428115913252 0)
(-0.00142279159679 0.0005092472894 0)
(-0.00133073360813 0.000603076489997 0)
(-0.00121716330975 0.000712350297347 0)
(-0.00107708022786 0.000840311329313 0)
(-0.00090692104033 0.000983190347433 0)
(-0.000708939100727 0.00112619910373 0)
(-0.00049192666786 0.00124806334554 0)
(-0.000269173322844 0.00132502084019 0)
(-6.09794091189e-05 0.00132608527824 0)
(0.000109424152245 0.00124201618107 0)
(0.00026306544762 0.00114258106555 0)
(0.000392381343991 0.0010016548805 0)
(0.000494412229173 0.000706301861283 0)
(0.000554702669131 0.000449966906313 0)
(0.000658290615062 0.000330724511643 0)
(0.000730577296627 0.000246876813776 0)
(0.000774807868633 0.000174851501421 0)
(0.000812870219911 8.42232751212e-05 0)
(0.000793431588347 -5.34618773629e-05 0)
(0.000713956791829 -0.000184705305741 0)
(0.000680974559855 -0.000291990155213 0)
(0.000634713355376 -0.000395267247211 0)
(0.000569203750929 -0.000507139290834 0)
(0.000472764450601 -0.000576655369691 0)
(0.000369823405519 -0.000602382897556 0)
(0.000246320015455 -0.000612588799385 0)
(0.000161666680105 -0.000756476500178 0)
(5.58317680498e-05 -0.000805658883678 0)
(-2.88649457351e-05 -0.000483017259498 0)
(-0.000131488825352 -0.000667108788003 0)
(-0.000236670396608 -0.000741495243873 0)
(-0.000143776469734 -0.000427326728825 0)
(-0.000159626876313 -0.000401346735069 0)
(-0.000385658897125 -0.000670682716306 0)
(-0.000464687281151 -0.000691181619806 0)
(-0.000529573255956 -0.000661537666391 0)
(-0.000563170492273 -0.000585803197647 0)
(-0.000630810692718 -0.000525543226825 0)
(-0.000501918037441 -0.00029208707577 0)
(-0.000575820782742 -0.000210891098534 0)
(-0.000647910521377 -0.000207705333785 0)
(-0.000704337061905 -0.000242515827659 0)
(-0.000887754224852 -0.000355982581533 0)
(-0.00101322070566 -0.000411767145847 0)
(-0.000980215350214 -0.000353196497838 0)
(-0.0010328462821 -0.000342931504446 0)
(-0.00114334659152 -0.000395073577715 0)
(-0.0012106299075 -0.000421227312441 0)
(-0.00125095354915 -0.000412049655271 0)
(-0.00129278986165 -0.000390417796108 0)
(-0.00134496957672 -0.00036626462859 0)
(-0.00138481471686 -0.000329811211524 0)
(-0.00143299774986 -0.000277860568065 0)
(-0.00141229633575 -0.000241723114036 0)
(-0.00149151295858 -0.00021367626198 0)
(-0.00147300843819 -0.000176085412399 0)
(-0.00144518129735 -0.000137384565521 0)
(-0.00147624813216 -0.000110395507049 0)
(-0.00158841063964 -0.000100331439584 0)
(-0.00154677207363 -8.79407947654e-05 0)
(-0.00155302952588 -0.000125465332869 0)
(-0.00168727976806 -0.000170352418342 0)
(-0.00170937906672 -0.000176080850021 0)
(-0.00172704952316 -0.000153957614565 0)
(-0.00173974532435 -0.000130081077106 0)
(-0.00174973438615 -0.000106140493586 0)
(-0.00175911039474 -7.9371830924e-05 0)
(-0.00176676606194 -4.87247734078e-05 0)
(-0.00177163505245 -1.50427659676e-05 0)
(-0.00177370449538 1.93793716069e-05 0)
(-0.00177230175983 5.25507125379e-05 0)
(-0.00176642675594 8.43925239666e-05 0)
(-0.00175583335897 0.00011639808723 1.54463400864e-28)
(-0.00174075993699 0.000150456420385 -1.54011362781e-28)
(-0.00172116969536 0.000188323946254 0)
(-0.00169644599395 0.00023162343925 0)
(-0.00166566550373 0.000281966575631 0)
(-0.00162777211679 0.00034109561258 0)
(-0.00158114012545 0.000410944251443 0)
(-0.00152322524233 0.000493618377656 0)
(-0.00145056613063 0.000591476505749 0)
(-0.00135851633338 0.000707416120729 0)
(-0.00124125562968 0.000844738837753 0)
(-0.00109321601209 0.00100366694385 0)
(-0.000912315748944 0.0011748948909 0)
(-0.000702099702858 0.00133948967962 0)
(-0.000469922065712 0.00147411726392 0)
(-0.000227363792627 0.00154824249275 0)
(-1.76153050396e-06 0.00152357128789 0)
(0.000180240333621 0.00141433785075 0)
(0.000323157663935 0.00126157349193 0)
(0.000417785424169 0.001075224134 0)
(0.000568874267059 0.000885882676319 0)
(0.000596361256395 0.000532287039592 0)
(0.000690173381088 0.000407317454016 0)
(0.000778377592066 0.00030464240777 0)
(0.00081480188854 0.000197588124937 0)
(0.000826267369271 6.66767052214e-05 0)
(0.000786356891601 -9.00055831318e-05 0)
(0.000738883764262 -0.000220510714414 0)
(0.000720415094672 -0.000334036590693 0)
(0.000677175536635 -0.0004568049212 0)
(0.000615253806122 -0.00058729182918 0)
(0.000511029646754 -0.000663982776345 0)
(0.000412495471879 -0.000725490144286 0)
(0.000270374762543 -0.000748535735468 0)
(0.000157707186275 -0.00085496342818 0)
(5.47672112575e-05 -0.00093188864865 0)
(-4.15081352101e-05 -0.000572949463173 0)
(-0.000153332316529 -0.000775050546639 0)
(-0.000199631413341 -0.000759350773403 0)
(-0.000138559718942 -0.000468414653926 0)
(-0.000228372821425 -0.000539432830923 0)
(-0.000404439404078 -0.000769376651981 0)
(-0.000429138639302 -0.000752043116932 0)
(-0.00051588247327 -0.000721650816963 0)
(-0.000482677800969 -0.000577569626745 0)
(-0.000641091686832 -0.000588534064107 0)
(-0.000488888237014 -0.000318170595731 0)
(-0.000588611723136 -0.000280145359956 0)
(-0.000642066741312 -0.000281282331547 0)
(-0.000760248486573 -0.000368415537349 0)
(-0.000920494020315 -0.000485264536282 0)
(-0.000996956076595 -0.000470670630548 0)
(-0.000959755106889 -0.000389578545425 0)
(-0.00104525696531 -0.000419494831649 0)
(-0.00113634500015 -0.00047018777778 0)
(-0.00119263560467 -0.000477103742046 0)
(-0.00124290841228 -0.000459103318605 0)
(-0.00127626213793 -0.000430569613032 0)
(-0.00132268560284 -0.000403863559804 0)
(-0.00133989349855 -0.00036410986244 0)
(-0.00134971986426 -0.000295067610605 0)
(-0.00143942509923 -0.000265470427611 0)
(-0.00135682390973 -0.000230331999351 0)
(-0.00152337575892 -0.000198428642341 0)
(-0.00142777601414 -0.000159798652562 0)
(-0.00157452610501 -0.000155938158727 0)
(-0.00147801430604 -0.000124464173758 0)
(-0.0016195233779 -0.000129422108299 0)
(-0.00165893544875 -0.000178041109407 1.65621762069e-28)
(-0.00169626365579 -0.000214677878659 -1.70548745957e-28)
(-0.00171583686069 -0.000200464115981 0)
(-0.00173284100244 -0.000172182843191 0)
(-0.00174778516724 -0.000143772881566 0)
(-0.00175919189826 -0.000116404388744 0)
(-0.00176907591436 -8.74194731653e-05 0)
(-0.00177738010167 -5.48863784528e-05 0)
(-0.00178308714069 -1.91054540961e-05 0)
(-0.00178570669255 1.81213141419e-05 0)
(-0.00178477482108 5.51808446373e-05 0)
(-0.00177972944163 9.17230526551e-05 0)
(-0.00177040435564 0.000128615536949 0)
(-0.00175681996668 0.000167419755357 0)
(-0.00173883746739 0.000210037493808 0)
(-0.00171596860701 0.00025847773262 0)
(-0.00168751555539 0.000314749553168 0)
(-0.00165261813304 0.000381086466883 0)
(-0.00160978147835 0.000460260436063 0)
(-0.00155637959236 0.000555709776447 0)
(-0.00148825949679 0.000671578178413 0)
(-0.00139920320127 0.000812435861349 0)
(-0.00128139636086 0.000981155566763 0)
(-0.00112798661005 0.00117401639823 0)
(-0.00093643573566 0.00137653201095 0)
(-0.000707830727855 0.0015685575028 0)
(-0.00044615809863 0.00172532472505 0)
(-0.000169353668344 0.00180148463343 0)
(6.90613778954e-05 0.00173601390405 0)
(0.000237530572608 0.00156906190465 0)
(0.000370309003891 0.00138165604672 0)
(0.000491902472915 0.0011841569378 0)
(0.000613069374721 0.000953577721612 0)
(0.000736994249435 0.000670872260512 0)
(0.000742545152732 0.000443842354273 0)
(0.000840541763307 0.000361274776607 0)