/*--------------------------------*- C++ -*----------------------------------*\
| =========                 |                                                 |
| \\      /  F ield         | OpenFOAM: The Open Source CFD Toolbox           |
|  \\    /   O peration     | Version:  v1806                                 |
|   \\  /    A nd           | Web:      www.OpenFOAM.com                      |
|    \\/     M anipulation  |                                                 |
\*---------------------------------------------------------------------------*/
FoamFile
{
    version     2.0;
    format      ascii;
    class       surfaceScalarField;
    location    "748";
    object      phi;
}
// * * * * * * * * * * * * * * * * * * * * * * * * * * * * * * * * * * * * * //

dimensions      [0 3 -1 0 0 0 0];
oriented        oriented;


internalField   nonuniform List<scalar> 
12640
(
-2.54320244952e-07
2.54858884246e-07
-4.78357968621e-07
2.24498158422e-07
-6.68016482955e-07
1.90003598405e-07
-8.24352894393e-07
1.56618521846e-07
-9.3957328587e-07
1.15463837844e-07
-1.01338857622e-06
7.40544201503e-08
-1.06641658803e-06
5.32519273209e-08
-1.1421271764e-06
7.59128042576e-08
-1.24164041286e-06
9.96991263199e-08
-1.3343752101e-06
9.28978340305e-08
-1.41845115466e-06
8.42131056022e-08
-1.50276827551e-06
8.44405233258e-08
-1.57687974811e-06
7.42239178057e-08
-1.6371123474e-06
6.03373952709e-08
-1.69133666706e-06
5.43221938564e-08
-1.75183407841e-06
6.05916153426e-08
-1.81355180751e-06
6.18061408623e-08
-1.86515472767e-06
5.16865058815e-08
-1.90563768309e-06
4.05580004938e-08
-1.94337969016e-06
3.78122466319e-08
-1.9924165976e-06
4.9102960623e-08
-2.05266583971e-06
6.03127662978e-08
-2.11334342482e-06
6.07366985867e-08
-2.16933389938e-06
5.60463414103e-08
-2.21943236103e-06
5.01498562947e-08
-2.26405228521e-06
4.46690823712e-08
-2.30505065065e-06
4.10443741118e-08
-2.34160763236e-06
3.6601668555e-08
-2.37293406717e-06
3.13682111961e-08
-2.40014639932e-06
2.72529907307e-08
-2.42564182362e-06
2.55332627631e-08
-2.44857799769e-06
2.29735103225e-08
-2.46753680735e-06
1.89947381086e-08
-2.48590751685e-06
1.84060173515e-08
-2.50405315221e-06
1.81786228739e-08
-2.52084333297e-06
1.68231163416e-08
-2.53737068791e-06
1.65579255852e-08
-2.55207246107e-06
1.47311709304e-08
-2.56273877531e-06
1.06938800364e-08
-2.5696183219e-06
6.90750794963e-09
-2.57569849765e-06
6.10671469555e-09
-2.578383901e-06
2.71167576254e-09
-2.57235042103e-06
-6.00901346544e-09
-2.55986257041e-06
-1.24635806013e-08
-2.54351574552e-06
-1.6323982382e-08
-2.52267048708e-06
-2.08220111814e-08
-2.49667543562e-06
-2.59728881142e-08
-2.46440450108e-06
-3.22481785104e-08
-2.42565316574e-06
-3.87294753042e-08
-2.38329412855e-06
-4.23363978755e-08
-2.34063292966e-06
-4.2639743865e-08
-2.29277594889e-06
-4.78344755127e-08
-2.22915695128e-06
-6.35964706e-08
-2.15192437372e-06
-7.72084430712e-08
-2.06144166557e-06
-9.04587694681e-08
-1.95423957538e-06
-1.0717723085e-07
-1.84163397714e-06
-1.1258175026e-07
-1.72650393753e-06
-1.15105488984e-07
-1.59577178224e-06
-1.30707673147e-07
-1.44835617648e-06
-1.47391198851e-07
-1.29117571449e-06
-1.57154890898e-07
-1.10633837476e-06
-1.84804441256e-07
-8.52901951757e-07
-2.53388202611e-07
-5.73850334207e-07
-2.78998236031e-07
-3.63892627246e-07
-2.09921137532e-07
-2.22893221935e-07
-1.40973066735e-07
-1.11632205636e-07
-1.11239504941e-07
-1.1283624272e-08
-1.00326175257e-07
8.12302676842e-08
-9.2489229852e-08
1.63615919729e-07
-8.23560274369e-08
2.28186023959e-07
-6.45403742875e-08
2.68289880187e-07
-4.00753129129e-08
2.82467412598e-07
-1.41497542703e-08
2.70179083664e-07
1.23157111544e-08
2.43481314678e-07
2.67241726178e-08
2.07884046581e-07
3.56205722875e-08
1.7649133063e-07
3.14130998355e-08
1.29959484427e-07
4.65552366002e-08
8.08292137655e-08
4.91750122657e-08
8.08529002246e-08
-1.34782129001e-07
3.89967917448e-07
-3.11931008987e-07
4.01981301224e-07
-4.801894857e-07
3.58541697075e-07
-6.4947458516e-07
3.26129717227e-07
-8.51903067253e-07
3.18128004751e-07
-1.00126721194e-06
2.23643836761e-07
-1.08666659531e-06
1.38874761589e-07
-1.16728129703e-06
1.56738952725e-07
-1.25557708593e-06
1.88185622413e-07
-1.34925040731e-06
1.86733647484e-07
-1.4371613988e-06
1.72269094795e-07
-1.51044623383e-06
1.57849437372e-07
-1.57529581339e-06
1.39190329598e-07
-1.63535918849e-06
1.20509340752e-07
-1.69225294402e-06
1.11323954126e-07
-1.75430047878e-06
1.22738158465e-07
-1.81203441503e-06
1.19632788372e-07
-1.84647809142e-06
8.62087483812e-08
-1.8765013779e-06
7.06556390851e-08
-1.92136718949e-06
8.27457902882e-08
-1.98102111561e-06
1.08826012336e-07
-2.05128125369e-06
1.3063626021e-07
-2.11725053098e-06
1.26768963316e-07
-2.17003301137e-06
1.08884299637e-07
-2.21758123548e-06
9.77530773507e-08
-2.26492451652e-06
9.20610441149e-08
-2.30652883809e-06
8.2698225085e-08
-2.34182617372e-06
7.19428903058e-08
-2.37302329866e-06
6.26104568665e-08
-2.40078824141e-06
5.50577467734e-08
-2.42487190576e-06
4.96584063081e-08
-2.44580241543e-06
4.39410725375e-08
-2.4629076887e-06
3.61386217545e-08
-2.48008446727e-06
3.56172418091e-08
-2.50070736052e-06
3.88379963445e-08
-2.51834880607e-06
3.44959117011e-08
-2.5337847425e-06
3.20267947836e-08
-2.55116976598e-06
3.2144592381e-08
-2.56807082656e-06
2.76255741297e-08
-2.57765895879e-06
1.65226495978e-08
-2.56852136291e-06
-3.00130889987e-09
-2.5481204832e-06
-1.76639361795e-08
-2.53398545644e-06
-2.01170222371e-08
-2.52452102702e-06
-2.19048697945e-08
-2.51334914698e-06
-2.74704882388e-08
-2.49895695906e-06
-3.51920195549e-08
-2.47947999991e-06
-4.5425111578e-08
-2.4547456004e-06
-5.69606054261e-08
-2.42372491106e-06
-6.97256626356e-08
-2.38129941473e-06
-8.47398780411e-08
-2.32356460023e-06
-1.00350157075e-07
-2.2603784059e-06
-1.10998496465e-07
-2.20785418207e-06
-1.16096013445e-07
-2.14649841475e-06
-1.38540740604e-07
-2.06289185644e-06
-1.74040089758e-07
-1.97257575882e-06
-1.97469879684e-07
-1.87215667541e-06
-2.12975571828e-07
-1.75399340211e-06
-2.33244716654e-07
-1.62326056361e-06
-2.61415419719e-07
-1.47424140147e-06
-2.96385898077e-07
-1.28838479067e-06
-3.4298105645e-07
-1.07708251147e-06
-3.96069397634e-07
-8.28757808311e-07
-5.01663819343e-07
-5.69975136603e-07
-5.3773460417e-07
-3.58117728915e-07
-4.21741673864e-07
-2.03192707379e-07
-2.95873802606e-07
-8.84346374325e-08
-2.25975862211e-07
1.01665585526e-08
-1.98905932317e-07
1.00986614942e-07
-1.83283621651e-07
1.81257735248e-07
-1.62601190692e-07
2.40838308367e-07
-1.24092287303e-07
2.74099120662e-07
-7.33100452571e-08
2.89333297005e-07
-2.93576550779e-08
2.93648398282e-07
8.02824011239e-09
2.7979982472e-07
4.05997189365e-08
2.53733441856e-07
6.17131469431e-08
2.12191810643e-07
7.2984018496e-08
1.63491120053e-07
9.52854601849e-08
8.87463068526e-08
1.23951528571e-07
1.69640556743e-07
-1.71673548088e-07
5.61883893371e-07
-2.63333822008e-07
4.93917205291e-07
-4.62251930956e-07
5.57726144657e-07
-6.85258501885e-07
5.49388858738e-07
-8.87598717142e-07
5.20692907839e-07
-9.9490507289e-07
3.31138559466e-07
-1.04964971952e-06
1.9380990704e-07
-1.13886557434e-06
2.46153410271e-07
-1.24172248911e-06
2.91224053569e-07
-1.3411348161e-06
2.86306810685e-07
-1.43240316261e-06
2.63675392379e-07
-1.50939034955e-06
2.34963930493e-07
-1.57486253013e-06
2.04783174275e-07
-1.63651591437e-06
1.82279269014e-07
-1.68518066883e-06
1.60098085802e-07
-1.68235244586e-06
1.20007656856e-07
-1.65013467334e-06
8.74945647519e-08
-1.66285105729e-06
9.89963275606e-08
-1.73751491037e-06
1.45386982212e-07
-1.86142350535e-06
2.06723343497e-07
-1.98213442945e-06
2.2960570522e-07
-2.05749798081e-06
2.06066651013e-07
-2.11240307681e-06
1.81735026014e-07
-2.16924849354e-06
1.65787738007e-07
-2.22196751846e-06
1.50525367643e-07
-2.26591275198e-06
1.36057473637e-07
-2.30480305353e-06
1.21635841643e-07
-2.34019663713e-06
1.07382740672e-07
-2.37144360631e-06
9.3900518986e-08
-2.39932341262e-06
8.29801476488e-08
-2.42208994371e-06
7.24647628599e-08
-2.44198904809e-06
6.38790833072e-08
-2.46163604933e-06
5.58229564059e-08
-2.47337084609e-06
4.73888252921e-08
-2.48842971504e-06
5.39303328953e-08
-2.51425747408e-06
6.03570083371e-08
-2.53241122604e-06
5.0211563957e-08
-2.54603980564e-06
4.58036410589e-08
-2.56440344227e-06
4.60179025583e-08
-2.57841166716e-06
3.05604030304e-08
-2.58471578956e-06
3.33063425547e-09
-2.58415857e-06
-1.81934790632e-08
-2.57625256976e-06
-2.79974963569e-08
-2.56345781209e-06
-3.46738829648e-08
-2.54691083327e-06
-4.39932284201e-08
-2.52590162973e-06
-5.61763936596e-08
-2.50043816065e-06
-7.08649248789e-08
-2.46999089655e-06
-8.73834723839e-08
-2.43397029482e-06
-1.05722747203e-07
-2.39268271866e-06
-1.26002925481e-07
-2.34649828019e-06
-1.46510784975e-07
-2.29223439638e-06
-1.65237665534e-07
-2.22182630772e-06
-1.86479822406e-07
-2.14150162258e-06
-2.18840439521e-07
-2.06147805761e-06
-2.5403975491e-07
-1.97354684936e-06
-2.85376840854e-07
-1.86810926947e-06
-3.18389561926e-07
-1.7448218151e-06
-3.56508178813e-07
-1.60436955364e-06
-4.01843428175e-07
-1.44348662778e-06
-4.57241649996e-07
-1.26023284048e-06
-5.26203835674e-07
-1.03169916244e-06
-6.24564518911e-07
-7.73215908878e-07
-7.6010248724e-07
-5.21317446867e-07
-7.89592616305e-07
-3.1409803601e-07
-6.28932811261e-07
-1.7166764824e-07
-4.38281148922e-07
-5.35570448025e-08
-3.44066578693e-07
4.57528467946e-08
-2.98194898263e-07
1.30129972603e-07
-2.67640880748e-07
2.02148575863e-07
-2.34595093659e-07
2.61967345083e-07
-1.83888826364e-07
3.10854922645e-07
-1.22172385952e-07
3.40450124812e-07
-5.8926564875e-08
3.38441423073e-07
1.00641268219e-08
3.09183673668e-07
6.98854668134e-08
2.65992955636e-07
1.04931801576e-07
2.18993664734e-07
1.20005133191e-07
1.71862241744e-07
1.42442540341e-07
7.77015752356e-08
2.1816843636e-07
2.47348243942e-07
-1.24172152801e-07
6.86307214429e-07
-1.70914114627e-07
5.40842121731e-07
-3.94123776804e-07
7.81178285138e-07
-5.77853241066e-07
7.33357735096e-07
-5.99933366561e-07
5.4295315774e-07
-5.43888129116e-07
2.75190151766e-07
-7.37716363002e-07
3.87764426945e-07
-1.02137778059e-06
5.29992149139e-07
-1.19968083096e-06
4.69700440036e-07
-1.32034490417e-06
4.07124491303e-07
-1.42328081035e-06
3.66751521022e-07
-1.50989943666e-06
3.21712156851e-07
-1.57128167429e-06
2.66287182183e-07
-1.57735914433e-06
1.88469037633e-07
-1.53950378318e-06
1.22341634566e-07
-1.52865956358e-06
1.09247776217e-07
-1.58591642281e-06
1.44827247029e-07
-1.7047357535e-06
2.17888207766e-07
-1.84286436413e-06
2.83589631942e-07
-1.93826278195e-06
3.02195105113e-07
-1.99686449372e-06
2.8827790531e-07
-2.05755575237e-06
2.66823693776e-07
-2.11835289507e-06
2.42594293915e-07
-2.17167693129e-06
2.19169083147e-07
-2.21926222037e-06
1.98164816822e-07
-2.26211493605e-06
1.78960435171e-07
-2.30190538506e-06
1.61474582668e-07
-2.3376902347e-06
1.43212776417e-07
-2.36959608139e-06
1.25850402057e-07
-2.39588164036e-06
1.09307570908e-07
-2.42014240116e-06
9.67662169166e-08
-2.43769244702e-06
8.14679987258e-08
-2.44971026505e-06
6.78778347421e-08
-2.47402842863e-06
7.17421794069e-08
-2.49550087204e-06
7.54372672761e-08
-2.51410107101e-06
7.89894328027e-08
-2.5445444628e-06
8.06865291252e-08
-2.56918350607e-06
7.04729854066e-08
-2.57880175668e-06
5.56663290463e-08
-2.58252711137e-06
3.43144741431e-08
-2.58583196005e-06
6.66373312558e-09
-2.58619730667e-06
-1.7801356883e-08
-2.58008202569e-06
-3.40861861192e-08
-2.56794995365e-06
-4.67804268983e-08
-2.55111152838e-06
-6.0806022389e-08
-2.52977157884e-06
-7.74915124819e-08
-2.50388070645e-06
-9.67307223014e-08
-2.47308107392e-06
-1.18158646359e-07
-2.43703233984e-06
-1.41746541365e-07
-2.39560734673e-06
-1.67403315243e-07
-2.34779988721e-06
-1.94292834006e-07
-2.29066346288e-06
-2.22348813202e-07
-2.22233018525e-06
-2.54787370193e-07
-2.14681611572e-06
-2.94329787392e-07
-2.0640267521e-06
-3.36804719335e-07
-1.9686665978e-06
-3.80713657267e-07
-1.85696458662e-06
-4.30068135569e-07
-1.72597499457e-06
-4.87474178494e-07
-1.57235771376e-06
-5.55435421881e-07
-1.39150916673e-06
-6.38062078711e-07
-1.17709347418e-06
-7.40586062421e-07
-9.36022600934e-07
-8.65598636975e-07
-7.23145264028e-07
-9.72945637919e-07
-5.17412833734e-07
-9.9529525426e-07
-2.94356671739e-07
-8.51961146816e-07
-1.27796488964e-07
-6.04819559231e-07
-5.37249715969e-09
-4.66470847739e-07
9.5643589046e-08
-3.99194640546e-07
1.81988439376e-07
-3.5396556044e-07
2.61605663561e-07
-3.14196157522e-07
3.34772393495e-07
-2.57031124859e-07
3.79979368673e-07
-1.67355823646e-07
3.76352040961e-07
-5.52750054461e-08
3.43584876347e-07
4.28545528523e-08
3.02305650885e-07
1.11187218986e-07
2.45383803595e-07
1.61875882666e-07
1.76931361734e-07
1.88481953454e-07
1.21533117126e-07
1.97862804113e-07
6.32810757467e-08
2.76426837008e-07
3.10653611273e-07
-2.94834664801e-08
7.15899714372e-07
-1.51638225772e-07
6.6313909715e-07
-3.33112748821e-07
9.62849632745e-07
-4.72748900797e-07
8.73173741517e-07
-4.60467022448e-07
5.30799109863e-07
-5.70218604519e-07
3.8504003948e-07
-8.07534881491e-07
6.25220978112e-07
-9.88594257889e-07
7.11214119856e-07
-1.14129737757e-06
6.22562443498e-07
-1.27679204139e-06
5.42766319123e-07
-1.39781229831e-06
4.87910672625e-07
-1.46712792105e-06
3.91151203729e-07
-1.45557447475e-06
2.5484245269e-07
-1.43612571981e-06
1.69115454794e-07
-1.47993859099e-06
1.66241447626e-07
-1.58004184078e-06
2.09434678212e-07
-1.71026923334e-06
2.75136820998e-07
-1.82182526764e-06
3.29525246885e-07
-1.8868815235e-06
3.48723900955e-07
-1.93527385559e-06
3.50661891969e-07
-1.99525065326e-06
3.48325328414e-07
-2.05843186461e-06
3.30071541019e-07
-2.11685948724e-06
3.01083663678e-07
-2.16891220629e-06
2.7127956809e-07
-2.21551976519e-06
2.44826128521e-07
-2.25911380214e-06
2.22605405683e-07
-2.29767071748e-06
2.0007881058e-07
-2.33409704138e-06
1.79684786902e-07
-2.36435412235e-06
1.56151475905e-07
-2.39042286432e-06
1.35418924823e-07
-2.40761919769e-06
1.14002795381e-07
-2.42913714982e-06
1.03023912096e-07
-2.46104611697e-06
9.98231098044e-08
-2.48103192346e-06
9.1763062381e-08
-2.50601367745e-06
1.00452467925e-07
-2.53721019623e-06
1.102187843e-07
-2.55947817521e-06
1.02986279416e-07
-2.57455151476e-06
8.55774433045e-08
-2.58297684061e-06
6.41215025267e-08
-2.58729437009e-06
3.8661114267e-08
-2.59030091946e-06
9.69823763177e-09
-2.59053023004e-06
-1.75446389645e-08
-2.58510404373e-06
-3.94858041851e-08
-2.57356341727e-06
-5.82946367133e-08
-2.55677635053e-06
-7.7567156813e-08
-2.53523198478e-06
-9.90099298128e-08
-2.50898467579e-06
-1.22952462111e-07
-2.47779052823e-06
-1.4932704795e-07
-2.44131364211e-06
-1.78197831489e-07
-2.39906364296e-06
-2.09627055908e-07
-2.34977929626e-06
-2.43550888368e-07
-2.29146784941e-06
-2.80633393197e-07
-2.22345654024e-06
-3.22772529467e-07
-2.14698547249e-06
-3.70775154557e-07
-2.06042580435e-06
-4.2334014109e-07
-1.95923838276e-06
-4.81877220113e-07
-1.83884173713e-06
-5.50441193893e-07
-1.694184327e-06
-6.32106983967e-07
-1.52000082664e-06
-7.29592843843e-07
-1.31310348092e-06
-8.44930172977e-07
-1.07949774657e-06
-9.7416101582e-07
-8.50836566447e-07
-1.09423028515e-06
-6.65633734094e-07
-1.15812069705e-06
-4.63986168391e-07
-1.19691406947e-06
-2.66227596529e-07
-1.04969474523e-06
-9.45762661558e-08
-7.76449582123e-07
4.59940299275e-08
-6.07025061821e-07
1.5805581401e-07
-5.11238796558e-07
2.50866296312e-07
-4.4676508043e-07
3.39487505871e-07
-4.02795430011e-07
4.11754929262e-07
-3.29281097778e-07
4.26265046834e-07
-1.81844441373e-07
4.00989383827e-07
-2.99812943646e-08
3.64082939809e-07
7.97784640838e-08
3.09283519059e-07
1.66006024145e-07
2.36290732224e-07
2.34888682917e-07
1.74531403812e-07
2.50251368678e-07
1.1519467354e-07
2.57208366198e-07
5.09463441908e-08
3.40712772035e-07
3.61598043726e-07
-1.62838669826e-08
7.3230380753e-07
-1.81354139474e-07
8.28334680702e-07
-2.86756437036e-07
1.06841117728e-06
-3.57493258031e-07
9.44052973925e-07
-3.59645833241e-07
5.33039407002e-07
-6.13319413647e-07
6.38828578527e-07
-8.46285267747e-07
8.58336160592e-07
-9.63284330874e-07
8.28362429788e-07
-1.09390016147e-06
7.53319898462e-07
-1.21624674871e-06
6.6525888393e-07
-1.28422513858e-06
5.56018203686e-07
-1.25203074593e-06
3.59059338635e-07
-1.25173789424e-06
2.54635820588e-07
-1.33215927303e-06
2.49618931946e-07
-1.46039548415e-06
2.94561919655e-07
-1.61902499413e-06
3.68151657673e-07
-1.75102027155e-06
4.07219309035e-07
-1.8210925513e-06
3.99681141683e-07
-1.86865145498e-06
3.96362040291e-07
-1.93295282185e-06
4.15039069532e-07
-1.99828421296e-06
4.13728381274e-07
-2.05671585301e-06
3.88569804976e-07
-2.11224849673e-06
3.56678377753e-07
-2.16570627242e-06
3.24794801727e-07
-2.21354083552e-06
2.92714562795e-07
-2.25028535145e-06
2.5940013641e-07
-2.28968754802e-06
2.39528949307e-07
-2.32455727365e-06
2.1460023791e-07
-2.35552617887e-06
1.87164118921e-07
-2.37257753112e-06
1.52511915629e-07
-2.3913373033e-06
1.32802183153e-07
-2.41627236025e-06
1.27996375811e-07
-2.44089407214e-06
1.2448013978e-07
-2.48639635589e-06
1.37299737415e-07
-2.52665455118e-06
1.40744577024e-07
-2.55165463846e-06
1.35252031957e-07
-2.56823504248e-06
1.19598988992e-07
-2.58026601082e-06
9.76396262459e-08
-2.58834776063e-06
7.22335010516e-08
-2.5933816788e-06
4.37241287606e-08
-2.59640782315e-06
1.27526040925e-08
-2.59638958516e-06
-1.75354068922e-08
-2.59123630684e-06
-4.46119094389e-08
-2.58016874964e-06
-6.93352912344e-08
-2.56359090447e-06
-9.41181556521e-08
-2.54195529299e-06
-1.20618868693e-07
-2.51537903079e-06
-1.49501956962e-07
-2.48366043291e-06
-1.81018852496e-07
-2.44640444156e-06
-2.15426501663e-07
-2.40296442833e-06
-2.53039616088e-07
-2.35220357554e-06
-2.94283453424e-07
-2.29277777981e-06
-3.40031462287e-07
-2.22400851042e-06
-3.91514293895e-07
-2.14526428378e-06
-4.4949369038e-07
-2.05359512672e-06
-5.14984464901e-07
-1.94397247527e-06
-5.91475683435e-07
-1.81071036722e-06
-6.83678513055e-07
-1.64798372714e-06
-7.94808147817e-07
-1.45216732622e-06
-9.25381840839e-07
-1.22735477351e-06
-1.06971465148e-06
-9.91792816803e-07
-1.20969519239e-06
-7.74700343762e-07
-1.31129694661e-06
-5.84143052946e-07
-1.34865487487e-06
-3.91570040031e-07
-1.38946664608e-06
-2.00376262012e-07
-1.2408673751e-06
-4.39953101447e-08
-9.32812903151e-07
1.03654870592e-07
-7.54657277793e-07
2.33332434181e-07
-6.4090576674e-07
3.45138614314e-07
-5.58551975268e-07
4.40372355316e-07
-4.98019840119e-07
4.82903736923e-07
-3.71793638259e-07
4.72529638332e-07
-1.71456808378e-07
4.48942855159e-07
-6.38075692225e-09
4.03376916515e-07
1.25358294196e-07
3.30363529203e-07
2.39032935397e-07
2.50220780666e-07
3.15041650418e-07
1.76329465462e-07
3.24156790086e-07
1.11062946846e-07
3.22492688178e-07
5.28113345492e-08
3.98958814335e-07
4.14427743147e-07
-7.16063190974e-08
8.03984392246e-07
-2.58338582231e-07
1.01518482096e-06
-3.51627746948e-07
1.16183146165e-06
-3.22290567742e-07
9.14832938845e-07
-4.29408716546e-07
6.40253821849e-07
-6.97761736024e-07
9.07314909092e-07
-8.3048786698e-07
9.91205912291e-07
-9.3391929336e-07
9.31927204479e-07
-1.03149830479e-06
8.51040049959e-07
-1.15682327862e-06
7.90707619037e-07
-1.16119140699e-06
5.60497122604e-07
-1.14812277158e-06
3.46073620816e-07
-1.22976249203e-06
3.36356403961e-07
-1.34279668776e-06
3.6273467691e-07
-1.50176162715e-06
4.53614957099e-07
-1.64957518511e-06
5.16057383031e-07
-1.72890320172e-06
4.86635624809e-07
-1.78157767043e-06
4.52438268894e-07
-1.8581566673e-06
4.73021166324e-07
-1.93255623534e-06
4.89515650943e-07
-1.99473814621e-06
4.75982178164e-07
-2.05347453745e-06
4.47373393058e-07
-2.1102111718e-06
4.13476702345e-07
-2.15927378214e-06
3.73914784979e-07
-2.2002671209e-06
3.3376189573e-07
-2.2398239257e-06
2.99006958252e-07
-2.27129374156e-06
2.71046523002e-07
-2.30676117035e-06
2.50112619698e-07
-2.33252531458e-06
2.12971303241e-07
-2.35151550149e-06
1.71542779217e-07
-2.38047292343e-06
1.6179846582e-07
-2.41405230094e-06
1.61612484633e-07
-2.45810653863e-06
1.6856962691e-07
-2.49966451661e-06
1.78892451355e-07
-2.53787098006e-06
1.78985467556e-07
-2.56108448062e-06
1.58499133683e-07
-2.57576258514e-06
1.3430953917e-07
-2.5869014481e-06
1.08809864434e-07
-2.59528468064e-06
8.06469864995e-08
-2.600936959e-06
4.94057237271e-08
-2.60405918862e-06
1.59033344079e-08
-2.60385075278e-06
-1.7715806811e-08
-2.59878871989e-06
-4.96462133083e-08
-2.58804030862e-06
-8.00560311572e-08
-2.57167127237e-06
-1.10459585184e-07
-2.54996646978e-06
-1.422958907e-07
-2.52299540292e-06
-1.76445044436e-07
-2.49054477244e-06
-2.13440883409e-07
-2.45219728728e-06
-2.53745108045e-07
-2.40731424726e-06
-2.97892690044e-07
-2.35495494451e-06
-3.46613364275e-07
-2.29400909462e-06
-4.00947648411e-07
-2.22329899289e-06
-4.62196836778e-07
-2.14074421262e-06
-5.32021820056e-07
-2.04221412502e-06
-6.13489140936e-07
-1.92195467261e-06
-7.11709056788e-07
-1.77394585462e-06
-8.31660459853e-07
-1.59407359118e-06
-9.74652627673e-07
-1.38440702675e-06
-1.13502151578e-06
-1.15631611658e-06
-1.29777968473e-06
-9.30841685678e-07
-1.43514558136e-06
-7.26093531858e-07
-1.51602489961e-06
-5.22804994249e-07
-1.55192624481e-06
-3.5868677842e-07
-1.55356628194e-06
-1.45822811968e-07
-1.45371293401e-06
3.38991245099e-08
-1.1125180252e-06
1.91803268142e-07
-9.12549237821e-07
3.40491705172e-07
-7.89575678782e-07
4.62859714448e-07
-6.80914391752e-07
5.35219734829e-07
-5.70363507111e-07
5.49322954595e-07
-3.8588873323e-07
5.48288001817e-07
-1.70411668441e-07
5.29011507941e-07
1.29047432437e-08
4.64732405453e-07
1.89646230117e-07
3.65900946679e-07
3.3787295806e-07
2.7417102589e-07
4.06782049561e-07
1.8082560924e-07
4.17507023874e-07
1.02721465098e-07
4.00598069765e-07
5.23888418207e-08
4.4932408979e-07
4.66810763891e-07
-1.24363429739e-07
9.28471594451e-07
-2.82907452404e-07
1.17384969694e-06
-3.33588285487e-07
1.21263005863e-06
-2.58946863652e-07
8.40272822105e-07
-4.73114977549e-07
8.54524377304e-07
-6.89503480028e-07
1.12384080116e-06
-7.97181636828e-07
1.09901363508e-06
-9.08019601881e-07
1.04289815626e-06
-9.54221222007e-07
8.97356542033e-07
-1.00648598649e-06
8.4308926549e-07
-9.99809634992e-07
5.53899815787e-07
-1.11265858236e-06
4.59000718025e-07
-1.21964929312e-06
4.43424327577e-07
-1.37032242082e-06
5.13492665143e-07
-1.5309489603e-06
6.14336255958e-07
-1.62147781536e-06
6.06678578608e-07
-1.67750457868e-06
5.42747738894e-07
-1.76471251222e-06
5.39729216119e-07
-1.8550240886e-06
5.63414484373e-07
-1.92502131571e-06
5.5959062236e-07
-1.98491697758e-06
5.35950456953e-07
-2.04237179412e-06
5.04894521141e-07
-2.10183558302e-06
4.73002150391e-07
-2.15823413985e-06
4.30371499103e-07
-2.19568844247e-06
3.71268628289e-07
-2.23757791976e-06
3.40946745335e-07
-2.27144619846e-06
3.04962086435e-07
-2.28687338329e-06
2.65584645781e-07
-2.31179622686e-06
2.3793580703e-07
-2.36546150091e-06
2.25247984595e-07
-2.40433153374e-06
2.00706941912e-07
-2.42608951906e-06
1.83406851762e-07
-2.47004779891e-06
2.12563650116e-07
-2.51835728087e-06
2.27237385912e-07
-2.54725988188e-06
2.07922770467e-07
-2.5676841505e-06
1.78957084631e-07
-2.58302326741e-06
1.49681233835e-07
-2.59476686482e-06
1.2058493369e-07
-2.60369460815e-06
8.96051941328e-08
-2.60989355056e-06
5.56342297969e-08
-2.61319103491e-06
1.9229710854e-08
-2.61289559828e-06
-1.79827572348e-08
-2.60789140214e-06
-5.46220414042e-08
-2.59737824197e-06
-9.05407994473e-08
-2.5811700205e-06
-1.26639155055e-07
-2.55933928702e-06
-1.64097581347e-07
-2.53184061074e-06
-2.03913928676e-07
-2.4984191007e-06
-2.46831966142e-07
-2.45867198288e-06
-2.93460492716e-07
-2.41204415722e-06
-3.44489091218e-07
-2.35773072351e-06
-4.00894716723e-07
-2.29457453744e-06
-4.64074000734e-07
-2.22074528417e-06
-5.35997122742e-07
-2.13303371558e-06
-6.19707398841e-07
-2.02648985897e-06
-7.20005331855e-07
-1.89536887882e-06
-8.42801537182e-07
-1.73503231752e-06
-9.91968330747e-07
-1.5445361813e-06
-1.16511960494e-06
-1.3298243034e-06
-1.34970614372e-06
-1.10304367018e-06
-1.52453491026e-06
-8.77039660113e-07
-1.66112823134e-06
-6.64021053993e-07
-1.729026103e-06
-4.75022267332e-07
-1.74091122957e-06
-3.25405554623e-07
-1.70317064896e-06
-1.38262154316e-07
-1.64084402626e-06
1.16676491682e-07
-1.36744589193e-06
2.99125358076e-07
-1.09498172231e-06
4.49097646657e-07
-9.39540124241e-07
5.5980378163e-07
-7.91603293387e-07
6.12628932808e-07
-6.2318536039e-07
6.36779122573e-07
-4.10032205076e-07
6.63363639036e-07
-1.96992351745e-07
6.46714299034e-07
2.95583303581e-08
5.52822193218e-07
2.83543169207e-07
4.19261193242e-07
4.71438815749e-07
2.91637813981e-07
5.34410196211e-07
1.78511066407e-07
5.30643916765e-07
8.4443378204e-08
4.94682995562e-07
3.64686517463e-08
4.97286134161e-07
5.03293330051e-07
-1.56183960239e-07
1.08473888993e-06
-2.75955688346e-07
1.29373655993e-06
-2.81854228955e-07
1.21862521264e-06
-3.15266424769e-07
8.73769355673e-07
-5.44966154469e-07
1.08433430625e-06
-6.51871254637e-07
1.23087088245e-06
-7.53469243311e-07
1.2007351341e-06
-8.61798269797e-07
1.15133930487e-06
-9.15726133779e-07
9.51390685991e-07
-9.7053980346e-07
8.98002211712e-07
-1.00775679709e-06
5.91191455566e-07
-1.11041298458e-06
5.61728729563e-07
-1.23559018666e-06
5.68682299757e-07
-1.39963621172e-06
6.77629088993e-07
-1.53554131232e-06
7.50334849025e-07
-1.6043904608e-06
6.75618629323e-07
-1.66828404307e-06
6.06726418763e-07
-1.75723314752e-06
6.2876247963e-07
-1.84219542662e-06
6.48459097465e-07
-1.91482801364e-06
6.32301011941e-07
-1.97777894617e-06
5.98972864805e-07
-2.03075280036e-06
5.57934526652e-07
-2.07789780359e-06
5.20210003189e-07
-2.12752090201e-06
4.80050225601e-07
-2.17224104447e-06
4.16041372915e-07
-2.20439814529e-06
3.73153913966e-07
-2.24753400325e-06
3.48143643073e-07
-2.29307439161e-06
3.11169726873e-07
-2.33161296872e-06
2.76515955223e-07
-2.36445586743e-06
2.58130080494e-07
-2.40349763145e-06
2.39785757595e-07
-2.46386194252e-06
2.43807950943e-07
-2.50236993758e-06
2.51107930098e-07
-2.52982126482e-06
2.54724405543e-07
-2.55430698765e-06
2.32443404355e-07
-2.57485695116e-06
1.99540868382e-07
-2.5912481688e-06
1.66105073684e-07
-2.60387101494e-06
1.33239312619e-07
-2.61339850091e-06
9.91632625731e-08
-2.62011145224e-06
6.23770227965e-08
-2.62373050064e-06
2.28780973183e-08
-2.62353896215e-06
-1.81451886905e-08
-2.61864363036e-06
-5.94882851139e-08
-2.60833650083e-06
-1.00818546713e-07
-2.59224985687e-06
-1.42695877559e-07
-2.57020862327e-06
-1.86107983578e-07
-2.54201676305e-06
-2.32073872592e-07
-2.50737087164e-06
-2.8144445683e-07
-2.46589460497e-06
-3.3490306369e-07
-2.41712217221e-06
-3.93227048613e-07
-2.36032843544e-06
-4.57656092844e-07
-2.29419457754e-06
-5.30176578926e-07
-2.21631883082e-06
-6.1384598093e-07
-2.12280012657e-06
-7.13197666541e-07
-2.00864400675e-06
-8.34132391186e-07
-1.86932407337e-06
-9.82090771901e-07
-1.70221028914e-06
-1.15904835326e-06
-1.50676858535e-06
-1.36053082955e-06
-1.28976111891e-06
-1.56668416194e-06
-1.06259576251e-06
-1.75167615712e-06
-8.26077086795e-07
-1.89762797516e-06
-6.01863983678e-07
-1.95322693539e-06
-4.03296287246e-07
-1.93947256813e-06
-2.33147401763e-07
-1.87331639825e-06
-1.00566217604e-07
-1.77342263108e-06
1.41253143868e-07
-1.60925571253e-06
4.1978458171e-07
-1.37350502479e-06
5.67754537699e-07
-1.0874927417e-06
6.58184731392e-07
-8.82028991247e-07
7.02657946775e-07
-6.67650670185e-07
7.56057178117e-07
-4.6343130849e-07
8.25958603173e-07
-2.66893812006e-07
8.21304893864e-07
3.42131997085e-08
6.75426512916e-07
4.29422776891e-07
4.73162319654e-07
6.737086073e-07
2.82361915238e-07
7.25219619652e-07
1.43287804299e-07
6.6972392836e-07
4.844702108e-08
5.89521367869e-07
7.571122698e-09
5.38188080675e-07
5.10856707429e-07
-1.74449399116e-07
1.25932462554e-06
-2.88566819935e-07
1.40797297162e-06
-2.61679798527e-07
1.19183524581e-06
-3.69805385387e-07
9.81982502057e-07
-5.63702316003e-07
1.27834476275e-06
-6.17252754359e-07
1.28453289866e-06
-7.03901179477e-07
1.28749959715e-06
-7.63605262529e-07
1.2111426579e-06
-8.51816066964e-07
1.03969218066e-06
-8.75869184074e-07
9.22135796013e-07
-9.77449224774e-07
6.92839947236e-07
-1.10170576843e-06
6.86060359535e-07
-1.23856743063e-06
7.05622443939e-07
-1.38959475896e-06
8.28748464122e-07
-1.4839609504e-06
8.44794315041e-07
-1.54151477068e-06
7.33255735631e-07
-1.63884418653e-06
7.04139639425e-07
-1.73779315279e-06
7.27796374837e-07
-1.82052779613e-06
7.31275855755e-07
-1.89723279019e-06
7.09082707408e-07
-1.96974345739e-06
6.71555137001e-07
-2.03264828196e-06
6.20907293348e-07
-2.07338671197e-06
5.610087037e-07
-2.1065815629e-06
5.13301133587e-07
-2.16457840571e-06
4.74090107016e-07
-2.2047699259e-06
4.13393446907e-07
-2.22145640167e-06
3.64877292057e-07
-2.25000928643e-06
3.39765959075e-07
-2.29802348834e-06
3.24571109031e-07
-2.35935558606e-06
3.19500752558e-07
-2.41691482898e-06
2.97381838837e-07
-2.46401911306e-06
2.90948508742e-07
-2.51190741208e-06
2.99032749539e-07
-2.54115984182e-06
2.84012920413e-07
-2.56340406077e-06
2.54722607335e-07
-2.58356212246e-06
2.19732675284e-07
-2.60078434922e-06
1.8335992407e-07
-2.61433905909e-06
1.46825663084e-07
-2.62448489788e-06
1.0933993021e-07
-2.63164525585e-06
6.95675920832e-08
-2.63564819727e-06
2.69108570542e-08
-2.63575245502e-06
-1.80112556028e-08
-2.63110310535e-06
-6.41077000446e-08
-2.62103130806e-06
-1.10859768277e-07
-2.60506191311e-06
-1.58633635621e-07
-2.58278259954e-06
-2.08354200546e-07
-2.55377469954e-06
-2.61047012135e-07
-2.51765109705e-06
-3.17532178749e-07
-2.47408210995e-06
-3.78435220042e-07
-2.42270710546e-06
-4.44566732174e-07
-2.3628700117e-06
-5.17459291837e-07
-2.29315228954e-06
-5.99864964418e-07
-2.21084460372e-06
-6.96126398746e-07
-2.11195149585e-06
-8.12061712004e-07
-1.99239340433e-06
-9.53656035448e-07
-1.84985632236e-06
-1.12459309818e-06
-1.68200565077e-06
-1.32686877411e-06
-1.48194976131e-06
-1.56054885105e-06
-1.26251658213e-06
-1.78609014862e-06
-1.04365349636e-06
-1.97051614703e-06
-7.89535102011e-07
-2.15173841656e-06
-5.35672214192e-07
-2.20709251166e-06
-2.97216265955e-07
-2.17793667279e-06
-9.01298486329e-08
-2.08041455922e-06
6.99978350713e-08
-1.93355910494e-06
2.36984765055e-07
-1.77624726462e-06
4.66115434843e-07
-1.60262832386e-06
6.68003342519e-07
-1.28937494428e-06
7.43494262702e-07
-9.57507530785e-07
7.94026674208e-07
-7.18181939811e-07
8.89079386941e-07