/*--------------------------------*- C++ -*----------------------------------*\
| =========                 |                                                 |
| \\      /  F ield         | OpenFOAM: The Open Source CFD Toolbox           |
|  \\    /   O peration     | Version:  v1806                                 |
|   \\  /    A nd           | Web:      www.OpenFOAM.com                      |
|    \\/     M anipulation  |                                                 |
\*---------------------------------------------------------------------------*/
FoamFile
{
    version     2.0;
    format      ascii;
    class       volVectorField;
    location    "552";
    object      U;
}
// * * * * * * * * * * * * * * * * * * * * * * * * * * * * * * * * * * * * * //

dimensions      [0 1 -1 0 0 0 0];


internalField   nonuniform List<vector> 
6400
(
(-0.000101222338035 -0.000133800060442 0)
(-0.000271041356884 -9.94588351188e-05 0)
(-0.000394317251033 -7.87155608572e-05 0)
(-0.000527769126712 -6.83410824678e-05 0)
(-0.000624657414258 -4.26453997457e-05 0)
(-0.000694353419051 -2.30186211145e-05 0)
(-0.000731343444637 -1.5680484593e-05 0)
(-0.00076117905797 -2.55627018861e-05 0)
(-0.000844240797718 -3.67898816026e-05 0)
(-0.000926576036844 -3.44523985908e-05 0)
(-0.000961862675676 -3.07453027468e-05 0)
(-0.00103642200929 -3.26364797514e-05 0)
(-0.00110296124404 -2.91007399052e-05 0)
(-0.00115622302505 -2.3139893017e-05 0)
(-0.00119504009792 -2.04111757996e-05 0)
(-0.00123561804264 -2.31639231249e-05 0)
(-0.00128628864371 -2.382584429e-05 0)
(-0.00132930816664 -2.0310748317e-05 0)
(-0.00136004485111 -1.53876969967e-05 0)
(-0.00138827531003 -1.30819419468e-05 0)
(-0.00142549317556 -1.81626661641e-05 0)
(-0.00147201329887 -2.37447296952e-05 0)
(-0.00152143066357 -2.47534027012e-05 0)
(-0.001565903011 -2.37619142049e-05 0)
(-0.00160733441723 -2.15123768817e-05 0)
(-0.00164658592188 -1.88315762357e-05 0)
(-0.0016852767068 -1.7548752324e-05 0)
(-0.00172035016538 -1.58267134148e-05 0)
(-0.00174952248344 -1.34315295511e-05 0)
(-0.00177353658547 -1.15472542219e-05 0)
(-0.00179277653681 -1.10788751815e-05 0)
(-0.00181279063451 -1.0091332539e-05 0)
(-0.00183287082925 -8.16491275538e-06 0)
(-0.00184898802258 -7.98752069927e-06 0)
(-0.00186384811197 -7.72992766283e-06 0)
(-0.00188384830352 -7.32412982138e-06 0)
(-0.00190048793038 -7.71626731701e-06 0)
(-0.00190476940375 -6.83474812801e-06 0)
(-0.00191863471207 -4.89447787927e-06 0)
(-0.00193795475972 -3.93319414062e-06 0)
(-0.00194899746116 -6.14748181081e-06 0)
(-0.00194980234386 -5.6395585877e-06 0)
(-0.00194781328806 5.86632778888e-07 0)
(-0.00194314133978 5.07108938833e-06 0)
(-0.0019327151079 7.27235778229e-06 0)
(-0.00191768804792 9.75327121926e-06 0)
(-0.00189747242841 1.23832399536e-05 0)
(-0.00187084047351 1.56741970399e-05 0)
(-0.00183784526549 1.8855031668e-05 0)
(-0.00179844262993 1.95082250553e-05 0)
(-0.00175623184337 1.76630184925e-05 0)
(-0.00171881439783 2.04937195461e-05 0)
(-0.00166680832651 3.26267386624e-05 0)
(-0.00160490196525 3.99754828661e-05 0)
(-0.00152316360385 4.62523289209e-05 0)
(-0.00140978554484 5.59934103799e-05 0)
(-0.00129054839996 5.62331029386e-05 0)
(-0.00118681252522 5.47199219321e-05 0)
(-0.00108181470098 6.31314253322e-05 0)
(-0.000931513280869 6.94366351539e-05 0)
(-0.000784994181521 6.97610634952e-05 0)
(-0.000621449183619 8.72138881025e-05 0)
(-0.000467489335543 0.000129836164186 0)
(-0.000165758667082 0.000110367390277 0)
(1.49354902914e-05 6.40425674404e-05 0)
(0.000104661650538 4.17216421918e-05 0)
(0.000166712783969 3.01378239179e-05 0)
(0.000218566347434 2.27126101643e-05 0)
(0.000263185321748 1.65979021242e-05 0)
(0.000291245467889 9.32073696817e-06 0)
(0.00030455668404 1.56957073764e-06 0)
(0.000295744627445 -5.92899763506e-06 0)
(0.00027153555151 -1.29841582052e-05 0)
(0.000251744484085 -2.02699268011e-05 0)
(0.00019428137995 -1.91126461608e-05 0)
(0.000171783871605 -1.84603179496e-05 0)
(0.000113965078367 -1.19548098963e-05 0)
(0.000117490195148 -1.6932494271e-05 0)
(5.04076974008e-05 -1.20652687294e-05 0)
(3.74104544908e-05 -2.24998007627e-05 0)
(-3.82378035632e-05 -0.000188280492695 0)
(-0.000162469216234 -0.000209596611186 0)
(-0.000282727460733 -0.000187960331339 0)
(-0.000360526737887 -0.000150338298188 0)
(-0.00051909496482 -0.000146287167461 0)
(-0.000661025628782 -0.000103173215762 0)
(-0.000743459672756 -6.57947958743e-05 0)
(-0.000800085182957 -8.34760877193e-05 0)
(-0.000860286885073 -0.000106514373418 0)
(-0.000927327709798 -0.000103577756604 0)
(-0.000990635562798 -9.60741496652e-05 0)
(-0.00104847233061 -9.27214983297e-05 0)
(-0.00110209627803 -8.20412172058e-05 0)
(-0.00114996281273 -6.87921790947e-05 0)
(-0.00119662700363 -6.27760967977e-05 0)
(-0.00124133474922 -7.35410380939e-05 0)
(-0.00128688813756 -7.69641039466e-05 0)
(-0.00132380110487 -5.50381956705e-05 0)
(-0.00132512012925 -3.89206271508e-05 0)
(-0.00136108845138 -4.01139094357e-05 0)
(-0.00140999848686 -5.69041283193e-05 0)
(-0.00146377621121 -7.64891705895e-05 0)
(-0.0015226541263 -7.89423403579e-05 0)
(-0.00157165082255 -6.95784849295e-05 0)
(-0.00160161207923 -6.2328674752e-05 0)
(-0.00164671007061 -5.8471069936e-05 0)
(-0.00168801191924 -5.33398320596e-05 0)
(-0.00172054084564 -4.66713284326e-05 0)
(-0.00174844235186 -4.01601850955e-05 0)
(-0.00177341861046 -3.49678578673e-05 0)
(-0.00179475720834 -3.23017994284e-05 0)
(-0.00180795495818 -2.88499097613e-05 0)
(-0.00182775771875 -2.29025655888e-05 0)
(-0.00184252698833 -2.33631196507e-05 0)
(-0.00185439230337 -2.54156713025e-05 0)
(-0.00188244251131 -2.19854837691e-05 0)
(-0.00189463720018 -2.21942778409e-05 0)
(-0.00189942069997 -2.30031933368e-05 0)
(-0.00191880062791 -1.92684286022e-05 0)
(-0.0019479579799 -1.3202186135e-05 0)
(-0.00196089090754 -4.36142588355e-06 0)
(-0.00191440997497 3.85788954663e-06 0)
(-0.00188939271552 8.80936161415e-06 0)
(-0.00188995816883 1.24935725927e-05 0)
(-0.00188316350454 1.67833183077e-05 0)
(-0.00187630189754 2.26125377618e-05 0)
(-0.00186675975561 3.03389902175e-05 0)
(-0.00184769656006 3.94751275261e-05 0)
(-0.0018275242415 4.94801603952e-05 0)
(-0.00179812382695 5.88935331963e-05 0)
(-0.00175049323472 6.60489701804e-05 0)
(-0.00167619242816 7.2676897053e-05 0)
(-0.00160637809587 8.25683616171e-05 0)
(-0.00160446859115 0.00010474751046 0)
(-0.00151287955855 0.000132329237803 0)
(-0.00141616126413 0.000152830683088 0)
(-0.00134194646469 0.000162337363132 0)
(-0.00123803274127 0.000170899423431 0)
(-0.00111528529974 0.000192455095181 0)
(-0.000983169902267 0.000220001028291 0)
(-0.000838223278291 0.000250503053162 0)
(-0.00059292898745 0.00026862515373 0)
(-0.00044184241239 0.000376109976767 0)
(-0.000165748846121 0.000336825253014 0)
(1.00900556206e-05 0.000211070471785 0)
(0.000101766545049 0.000122875028944 0)
(0.000162322400279 8.57817634799e-05 0)
(0.000225021441492 7.1295410749e-05 0)
(0.000270970796657 5.25497491229e-05 0)
(0.000303477311323 2.86842203242e-05 0)
(0.000310928416826 1.20858195784e-06 0)
(0.000296667864742 -2.32289973508e-05 0)
(0.000262897426077 -3.70218840351e-05 0)
(0.000247795782015 -4.95436521369e-05 0)
(0.000216457293944 -5.47511148589e-05 0)
(0.000184505132203 -5.4734217515e-05 0)
(0.000149926036586 -4.87169372222e-05 0)
(0.000117546103926 -5.11661109694e-05 0)
(7.22651413661e-05 -5.44774852859e-05 0)
(3.32968909544e-05 -8.83256136339e-05 0)
(-5.6590170936e-05 -0.000325070788743 0)
(-0.000156634051713 -0.000350840829613 0)
(-0.000242166299711 -0.000323237780152 -9.17749339073e-29)
(-0.000406711319402 -0.000323288942856 8.52879161149e-29)
(-0.000558323160672 -0.000315382430232 7.52676502669e-29)
(-0.00065427013722 -0.000252403868398 -6.8659080741e-29)
(-0.00072266349986 -0.000135998130374 6.89685225718e-29)
(-0.000781840281094 -0.00014293906279 -6.69746224545e-29)
(-0.000844710548792 -0.000173069197544 0)
(-0.000915972724231 -0.000174821342752 0)
(-0.000985343376876 -0.00016275070827 0)
(-0.00104604279793 -0.000147808918051 0)
(-0.00109974127165 -0.000130222214789 0)
(-0.00114630898041 -0.000117070263597 0)
(-0.00119356229973 -0.000109324155807 0)
(-0.00123830495457 -9.6788503153e-05 0)
(-0.00115601246539 -7.26440894121e-05 0)
(-0.00113225649954 -5.79291470719e-05 0)
(-0.00117270850749 -6.85792457455e-05 0)
(-0.00125229103791 -0.000103012446941 0)
(-0.00140191870604 -0.000136285151905 0)
(-0.00148082424753 -0.000141510960552 0)
(-0.00151202037095 -0.000129523735346 0)
(-0.00156118035374 -0.00011563945931 0)
(-0.0016109563299 -0.000105714265911 0)
(-0.00164962470406 -9.80359384931e-05 0)
(-0.00168461522041 -8.76583102029e-05 0)
(-0.00171755922119 -7.66055341098e-05 0)
(-0.0017461658996 -6.66574190696e-05 0)
(-0.00176975294701 -5.86962755415e-05 -1.2873655421e-28)
(-0.00179375884679 -5.16848335978e-05 1.24659796432e-28)
(-0.00180120193806 -4.54619408416e-05 0)
(-0.00181824990361 -3.84816257306e-05 0)
(-0.00184778024995 -3.35725476724e-05 0)
(-0.00183369617647 -3.99327781112e-05 0)
(-0.00186260577567 -4.28458392556e-05 0)
(-0.00190069876332 -3.69969915113e-05 0)
(-0.00188854060668 -3.76567586234e-05 0)
(-0.00191199009584 -3.98789851409e-05 0)
(-0.00194546297993 -2.84971879005e-05 0)
(-0.00196045375032 -3.18628415581e-06 0)
(-0.00195855991887 1.56545115513e-05 0)
(-0.0019533205987 1.88695732033e-05 0)
(-0.0019473360038 2.07005611604e-05 0)
(-0.00193689996234 2.69635039e-05 0)
(-0.00192164443411 3.61035738284e-05 0)
(-0.00190176771125 4.84020554047e-05 0)
(-0.00187703513748 6.25762021212e-05 0)
(-0.00184739751372 7.86182037892e-05 0)
(-0.00181222463973 9.76376482741e-05 0)
(-0.00177074603889 0.000117529320834 0)
(-0.00172229811112 0.000132637383179 0)
(-0.00166604318697 0.000142995445316 0)
(-0.00159103942017 0.000170666907067 0)
(-0.00149980784011 0.000208319254395 0)
(-0.00142657718398 0.000236245507626 0)
(-0.001337119831 0.000259731282052 0)
(-0.00122431963365 0.000288230558814 0)
(-0.00109445293961 0.00032417732955 0)
(-0.000949178292854 0.000369737939302 0)
(-0.000780523503714 0.000430386521819 0)
(-0.00059431259733 0.000511676759685 0)
(-0.000401192723882 0.000621487406364 0)
(-0.00016486397535 0.000515253929406 0)
(4.25146002457e-06 0.000313543547291 0)
(0.00010902569548 0.000210504154471 0)
(0.000188208782449 0.000159076753172 0)
(0.000243817083892 0.000121303762169 0)
(0.000283693878471 8.36008817219e-05 0)
(0.000306554745136 4.06461802957e-05 0)
(0.000308223705831 -2.27541243937e-06 0)
(0.000297022772171 -3.54628652315e-05 0)
(0.000287816218915 -5.83773279804e-05 0)
(0.000266755742297 -8.00255082429e-05 0)
(0.000227043449 -9.40005979838e-05 0)
(0.000183367856869 -9.41270971379e-05 0)
(0.000142011536263 -8.75442617733e-05 0)
(0.000107505878393 -9.48417331699e-05 0)
(7.33858255583e-05 -0.000122598487875 0)
(1.88226391769e-05 -0.000121324304509 0)
(-5.66161414737e-05 -0.00048157292411 0)
(-7.65547612937e-05 -0.000330560031554 0)
(-0.000198411976926 -0.000485638378841 0)
(-0.00035202549881 -0.000480075967231 0)
(-0.000486302412432 -0.000406728392009 0)
(-0.000291962794021 -0.000163454904865 0)
(-0.000368792681529 -0.000163629641128 0)
(-0.00066759433807 -0.000281695276153 0)
(-0.000800070657771 -0.000287322555675 0)
(-0.000890559065461 -0.000259373781436 0)
(-0.000972633948223 -0.000236055617832 0)
(-0.00104104642246 -0.000209587988326 0)
(-0.00109842226437 -0.000182335130162 0)
(-0.00113772824563 -0.00014550769192 0)
(-0.0010952834971 -9.87644685941e-05 0)
(-0.00105257836418 -6.79697529728e-05 0)
(-0.00105845384712 -6.61827639318e-05 0)
(-0.00112358228047 -0.000103395676725 0)
(-0.00125866721787 -0.000162387475747 0)
(-0.0013801590038 -0.000212848226631 0)
(-0.00142450042892 -0.000217485878747 0)
(-0.00147127945362 -0.000197053853155 0)
(-0.00152244159038 -0.000178271404559 0)
(-0.00156750849847 -0.000163452298128 0)
(-0.00160808183386 -0.000148649800298 0)
(-0.0016449946012 -0.000134243319467 0)
(-0.00167876432458 -0.000120629184788 0)
(-0.00171448874126 -0.000106823746445 0)
(-0.0017400770616 -9.33288634536e-05 0)
(-0.001769993003 -8.16256203678e-05 0)
(-0.00178126020488 -7.11432861818e-05 0)
(-0.00180697571885 -6.03109106629e-05 0)
(-0.00180123657094 -4.87762027773e-05 0)
(-0.00182255272636 -4.78398985082e-05 0)
(-0.00186275273779 -5.55359225483e-05 0)
(-0.00185489028425 -6.32880270699e-05 0)
(-0.00189138489743 -6.23949239211e-05 0)
(-0.00192778186479 -5.93188235996e-05 0)
(-0.00194151554779 -5.68451980684e-05 0)
(-0.00195111168672 -4.0341710654e-05 0)
(-0.00195855206405 -1.26516804616e-05 0)
(-0.0019603208773 1.02422884362e-05 0)
(-0.00195788295146 2.19826670107e-05 0)
(-0.00195203312681 3.01764158345e-05 0)
(-0.00194153186388 4.07105890168e-05 0)
(-0.00192628463257 5.43852461178e-05 1.13985557902e-28)
(-0.00190640390233 7.10074474432e-05 -1.14785655316e-28)
(-0.00188169479695 9.00441436841e-05 0)
(-0.00185191087969 0.00011149170711 0)
(-0.00181649467584 0.00013531509462 0)
(-0.00177448105017 0.000159975703178 0)
(-0.00172423869301 0.000184223566095 0)
(-0.00166392970558 0.000212237082408 0)
(-0.001591674143 0.000249929956307 0)
(-0.0015106597969 0.000288943602314 0)
(-0.00142314837023 0.000325979541207 0)
(-0.00132185304122 0.000368088995975 0)
(-0.00120055080664 0.000416594531374 2.26882360136e-28)
(-0.0010583418257 0.000473473178776 -2.65580243564e-28)
(-0.000894363765614 0.000542498428992 0)
(-0.00070776370356 0.000624002565119 0)
(-0.000509666460715 0.000711971965825 0)
(-0.00033615135067 0.000765887474703 0)
(-0.000171941513307 0.000690046734357 0)
(9.28626493476e-06 0.000493612787032 0)
(0.00013245458546 0.000306004751355 0)
(0.000209193874436 0.000219419106577 0)
(0.00026960155744 0.000166689694085 0)
(0.000311863208404 0.000112995301252 0)
(0.000341541757774 5.40642643537e-05 0)
(0.000350434574489 -3.69788967742e-06 0)
(0.000341021437622 -5.0482618741e-05 0)
(0.00030944205491 -9.07147791188e-05 0)
(0.000250406761795 -0.000118405199912 0)
(0.000202843869264 -0.000134612859266 0)
(0.0001587603367 -0.000141578543628 0)
(0.000111702781308 -0.000132475978718 0)
(6.34705781382e-05 -0.000108792506197 0)
(4.53440235177e-05 -0.000137558732308 0)
(1.51331964127e-05 -0.000157997309731 0)
(-7.7516854866e-06 -0.000487068722252 0)
(-4.09852877939e-05 -0.000402272356977 0)
(-0.000178266633111 -0.000632376263545 0)
(-0.000301601747016 -0.00058361118008 0)
(-0.000334834220115 -0.000391194641886 0)
(-0.000270740556328 -0.000219978376368 0)
(-0.000454573550322 -0.00034996091755 0)
(-0.000665448158389 -0.00046504430479 0)
(-0.000753430211129 -0.000409957143937 0)
(-0.000856829124227 -0.000355945730829 0)
(-0.000946967660844 -0.000323537158383 0)
(-0.00102311625116 -0.000280701859127 0)
(-0.0010410297913 -0.000200282437049 0)
(-0.000974429258599 -0.000117335038817 0)
(-0.00099573485768 -8.71909074696e-05 0)
(-0.00105418717493 -9.93610167728e-05 0)
(-0.00115040899646 -0.000146868222256 0)
(-0.00126387958135 -0.000214139206389 0)
(-0.00134242430152 -0.00025944680306 0)
(-0.00137072525967 -0.000264281221867 0)
(-0.00141778159395 -0.000259648505011 0)
(-0.00147356354973 -0.000248437591901 0)
(-0.00152037611875 -0.000228494347751 0)
(-0.00156412346721 -0.000207024582069 0)
(-0.00160351716599 -0.000187414446 0)
(-0.00163847026028 -0.00017061178797 0)
(-0.00167703091069 -0.000153964989912 0)
(-0.0017025167613 -0.000136792749484 0)
(-0.00174082077403 -0.000119981078396 0)
(-0.00175137600512 -0.000103022737331 0)
(-0.0017875213604 -8.85836435261e-05 -1.23481262037e-28)
(-0.00176690584786 -7.41839979846e-05 1.17186965755e-28)
(-0.00180972058268 -6.80183051389e-05 0)
(-0.00184692551007 -6.71478324959e-05 0)
(-0.00184645056086 -7.57459699593e-05 0)
(-0.00189083159462 -8.89384273714e-05 0)
(-0.00191583447702 -9.27769706098e-05 0)
(-0.00193386478535 -8.23730231482e-05 0)
(-0.0019461451779 -6.64969551536e-05 0)
(-0.00195483245066 -4.51459831317e-05 0)
(-0.00196161899832 -1.82555004483e-05 0)
(-0.00196481717037 6.43558302778e-06 0)
(-0.00196372644986 2.41491316984e-05 0)
(-0.00195825540545 3.84963472258e-05 0)
(-0.00194797716827 5.39800753459e-05 0)
(-0.0019329524638 7.22060013798e-05 0)
(-0.00191322503417 9.33780867778e-05 0)
(-0.00188857429801 0.000117333623312 0)
(-0.00185859578802 0.000144137265402 0)
(-0.0018226168735 0.000173798619819 0)
(-0.001779551716 0.000205813419369 0)
(-0.00172775365745 0.000240347004712 0)
(-0.00166552925226 0.000279711957287 0)
(-0.00159196473302 0.000325289615721 0)
(-0.00150810149518 0.000374062535974 0)
(-0.00141306414491 0.000427000266509 0)
(-0.00130087973357 0.000488431140951 0)
(-0.00116586665372 0.000559858829901 0)
(-0.00100582715841 0.000641869286876 0)
(-0.000822172832355 0.000733184819635 0)
(-0.000623754117635 0.000824189798511 0)
(-0.000434094187026 0.000893699383295 0)
(-0.000283002123676 0.000902340153585 0)
(-0.000140000219082 0.000854862094152 0)
(3.99515328336e-05 0.000671203582602 0)
(0.000167877011376 0.000431228575462 0)
(0.000252741433308 0.000300048957785 0)
(0.00031459266781 0.000218211874824 0)
(0.000356459932878 0.000144568699788 0)
(0.000386404617848 6.94629064827e-05 0)
(0.000400337102119 -8.3841540777e-06 0)
(0.000372290916647 -8.5747501846e-05 0)
(0.00029854933892 -0.000140188992126 0)
(0.000240356753737 -0.000172671230285 0)
(0.000186278972814 -0.000191346241643 0)
(0.000133050176417 -0.000194909359425 0)
(8.3962124624e-05 -0.000165272392636 0)
(5.12799848826e-05 -0.000141090964542 0)
(3.13509538431e-05 -0.000172227962042 0)
(7.82593408801e-06 -0.000176292649158 0)
(-2.53054956787e-07 -0.000457745329998 0)
(-4.87738179317e-05 -0.00048831383946 0)
(-0.000178682791208 -0.000723317246737 0)
(-0.000254238189789 -0.000610776954547 0)
(-0.00019944494125 -0.000312174819046 0)
(-0.000273845885234 -0.00031743418034 0)
(-0.000551038589399 -0.000557182266381 0)
(-0.000637337389127 -0.000566712155022 0)
(-0.000720088459742 -0.00050895617276 0)
(-0.000816535450517 -0.000456513982214 0)
(-0.000909063927295 -0.000392423090749 0)
(-0.000869852443607 -0.00027461030738 0)
(-0.000807467888908 -0.000161491251274 0)
(-0.000868416976186 -0.000133528091599 0)
(-0.000944804420063 -0.000151610509727 0)
(-0.00107790775518 -0.000205876175531 0)
(-0.00120640375892 -0.0002637496903 0)
(-0.00128889752653 -0.000292424324499 0)
(-0.00130622293799 -0.000292423705417 0)
(-0.00136077584295 -0.000305553784763 0)
(-0.00142297000834 -0.000313137130458 0)
(-0.00147023415998 -0.000298627072945 0)
(-0.00151470767248 -0.000274958207618 0)
(-0.00155612613446 -0.000250507758308 0)
(-0.00160081889279 -0.000227724973106 0)
(-0.00163592701459 -0.000204106741395 0)
(-0.00165393347399 -0.000185372493994 0)
(-0.00170615821523 -0.000167975269524 0)
(-0.00170820305116 -0.000143744916591 0)
(-0.00176148774736 -0.00012143920119 0)
(-0.00172580694464 -9.89081268157e-05 0)
(-0.00178676880144 -9.49418760774e-05 0)
(-0.00176189015998 -9.15188197672e-05 0)
(-0.00182607166079 -9.74096682082e-05 0)
(-0.00188147843843 -0.000110370027279 0)
(-0.00190757438923 -0.000120041733362 0)
(-0.00192494177206 -0.00011297290391 0)
(-0.00193935948128 -9.66515844062e-05 0)
(-0.00195085537988 -7.61307957716e-05 0)
(-0.00195997708425 -5.17796114797e-05 0)
(-0.0019669219097 -2.40587437525e-05 0)
(-0.00197077743471 2.83189738974e-06 0)
(-0.00197054958753 2.56565185858e-05 0)
(-0.00196564499217 4.59125736822e-05 0)
(-0.00195586350279 6.66728889412e-05 0)
(-0.00194125165074 8.97085813477e-05 0)
(-0.00192182905947 0.000115642982381 0)
(-0.00189728366178 0.000144692390479 0)
(-0.00186704384753 0.000177135340446 0)
(-0.0018303314107 0.000213252329104 0)
(-0.00178602449345 0.000253248933912 0)
(-0.00173257367547 0.000297775008604 0)
(-0.00166840572824 0.000348078838927 0)
(-0.00159240636984 0.000404606095817 0)
(-0.00150364022144 0.000467284805739 0)
(-0.00139905193656 0.000539063159172 0)
(-0.00127286802513 0.000623616524382 0)
(-0.00112066751677 0.000721087422479 0)
(-0.000943061204856 0.000827411088956 0)
(-0.00074695992214 0.000931092447198 0)
(-0.000550382861267 0.0010131476909 0)
(-0.000376580078702 0.00104489927585 0)
(-0.000220835861229 0.000991285584391 0)
(-9.11765072226e-05 0.00103362079796 0)
(7.6744337448e-05 0.00080186210754 0)
(0.000197594788438 0.000534817594098 0)
(0.000295483180415 0.000379903701892 0)
(0.00037315370286 0.000273554859425 0)
(0.000422251357262 0.00017894921326 0)
(0.000463905862744 8.38479913133e-05 0)
(0.000465230122442 -3.59792610947e-05 0)
(0.00038386405611 -0.000143525435359 0)
(0.000301916824543 -0.00020490579793 0)
(0.000236390067737 -0.000241310217751 0)
(0.00016574185256 -0.000255434901584 0)
(0.000109683198534 -0.000246122036526 0)
(6.37731034459e-05 -0.000193327997489 0)
(3.66539452803e-05 -0.000167184120317 0)
(1.96621151978e-05 -0.000192419755609 0)
(5.25516406341e-06 -0.000188501736736 0)
(-1.73916824593e-05 -0.000498141720989 0)
(-0.000104719868094 -0.00063153941606 0)
(-0.000227921225008 -0.000790306918558 0)
(-0.000264189274505 -0.000738997122979 0)
(-0.000190588444199 -0.000394177595594 0)
(-0.00038506157834 -0.000551341787526 0)
(-0.000559297024191 -0.000677629355545 0)
(-0.000613386820135 -0.00064243183703 0)
(-0.000693159534009 -0.00058854267153 0)
(-0.000751281711507 -0.000531339783658 0)
(-0.000873607897513 -0.000439655226491 3.1494694546e-28)
(-0.000708374648165 -0.000228082911795 -1.9792163396e-28)
(-0.000800500314752 -0.000198919972257 0)
(-0.000852829621857 -0.000208891726766 0)
(-0.000979212377125 -0.000266641419617 0)
(-0.00112753061056 -0.000340782250839 0)
(-0.00121887154899 -0.000357238997487 0)
(-0.00122202453369 -0.000327572766003 0)
(-0.0012876500946 -0.000339195738515 0)
(-0.00136694605845 -0.000366531692846 0)
(-0.00141403071294 -0.000365599089186 0)
(-0.00146303306728 -0.000346368451387 0)
(-0.00150989324695 -0.000321116341759 0)
(-0.00155348280972 -0.000292781132165 0)
(-0.00158582443898 -0.000262279991376 0)
(-0.00160980680377 -0.000233136840912 0)
(-0.00166016537134 -0.000214524055534 0)
(-0.0016506040129 -0.000194397052808 0)
(-0.00172320564735 -0.000169153799484 0)
(-0.00168079602354 -0.000128026750721 0)
(-0.00175371946049 -0.000119122835929 0)
(-0.00173216469482 -0.000119362044409 1.14975961803e-28)
(-0.00179767925803 -0.000124897412285 -1.17555710552e-28)
(-0.00183416908077 -0.000142608760177 0)
(-0.00189504289545 -0.000153338860185 0)
(-0.00191695481129 -0.000145371913671 0)
(-0.00193125614183 -0.000129369704975 0)
(-0.00194459721941 -0.000109334306576 0)
(-0.00195672545237 -8.60316143692e-05 0)
(-0.00196665123531 -5.94224227519e-05 0)
(-0.0019739744828 -3.01153333681e-05 0)
(-0.00197831971106 -6.6044769869e-07 0)
(-0.00197874393209 2.67355950427e-05 0)
(-0.00197448818133 5.25153806588e-05 0)
(-0.00196533088466 7.86316713017e-05 0)
(-0.00195129121267 0.000106709763822 0)
(-0.00193227648952 0.00013767778386 0)
(-0.00190783719023 0.000172125884199 0)
(-0.00187728431224 0.000210614280804 0)
(-0.0018397991252 0.000253739810023 0)
(-0.00179427379322 0.000302174073167 0)
(-0.00173919538439 0.00035681843248 0)
(-0.00167284268272 0.000418733105046 0)
(-0.00159331340769 0.000488972500091 0)
(-0.00149790951549 0.00056959531817 0)
(-0.00138213723984 0.000664385661564 0)
(-0.00124074525907 0.000775294924675 0)
(-0.00107176813525 0.00089821909992 0)
(-0.000880477904509 0.00102131562744 0)
(-0.000680521117059 0.00112665757494 0)
(-0.000489970514986 0.00118984865454 0)
(-0.000325386543123 0.0011961754602 0)
(-0.000179356572019 0.00118460645167 0)
(-6.00278759621e-05 0.00114785356418 0)
(9.34342515562e-05 0.000933633911516 0)
(0.000234707794879 0.000637875713155 0)
(0.000365686728071 0.000489093037326 0)
(0.000473512912743 0.00036025575193 0)
(0.000540254067012 0.000228624512272 0)
(0.000569428484951 7.79588507825e-05 0)
(0.000519995138886 -9.72733355822e-05 0)
(0.000409249345712 -0.000221487241641 0)
(0.000321386668566 -0.000293206327283 0)
(0.000227084734364 -0.000326715155541 0)
(0.000142182915245 -0.000328461314485 0)
(8.06000467329e-05 -0.000283646951768 0)
(4.31366804329e-05 -0.000229368120328 0)
(1.53311365868e-05 -0.000189256607285 0)
(3.82937772728e-06 -0.000201444704958 0)
(1.36284204735e-06 -0.00019879173596 0)
(-3.48695348067e-05 -0.000580493018374 0)
(-0.000145325887697 -0.000765328247884 0)
(-0.000252590166925 -0.000826961125719 0)
(-0.000174170986617 -0.000519502940166 0)
(-0.00020129765386 -0.000491150722654 0)
(-0.000438203093172 -0.000748958091053 0)
(-0.000519572457593 -0.000753423600743 0)
(-0.000593981712976 -0.000717570855484 0)
(-0.000646351499145 -0.000647730398058 0)
(-0.000728075394285 -0.000585651810461 0)
(-0.000617372295204 -0.000356108100493 0)
(-0.000700667290888 -0.000272644553286 0)
(-0.000781827972157 -0.000268140099332 0)
(-0.00085193540253 -0.000303675949009 0)
(-0.00103329744815 -0.000402986463072 0)
(-0.00114170471703 -0.000438406680771 0)
(-0.00113602521798 -0.000390294945857 0)
(-0.0011952102166 -0.000379798469257 0)
(-0.00129399747765 -0.000413342222561 0)
(-0.00135777482604 -0.000426541277338 0)
(-0.0014024804394 -0.000414506101388 0)
(-0.00144769219716 -0.000393004377191 0)
(-0.00149875936989 -0.000369137533552 0)
(-0.00154202709556 -0.000336973407458 0)
(-0.00158942193107 -0.00029512020045 0)
(-0.00159313738248 -0.000265640405178 0)
(-0.00165889786963 -0.000242441127836 0)
(-0.00166227756138 -0.000212877440196 0)
(-0.00165408174089 -0.000182468181602 0)
(-0.00169019048634 -0.000160822093062 0)
(-0.00177501417725 -0.000152378811725 0)
(-0.00176302419519 -0.000143104850214 0)
(-0.00178219499744 -0.000166896829401 0)
(-0.00187391363888 -0.000191515272321 0)
(-0.00190050145697 -0.000188626540421 0)
(-0.00192052251886 -0.000167896863599 0)
(-0.001936861377 -0.00014532885868 0)
(-0.00195089489695 -0.000122281372967 0)
(-0.00196371670373 -9.6813725245e-05 0)
(-0.00197455283782 -6.80636599219e-05 0)
(-0.00198255182892 -3.66312386202e-05 0)
(-0.00198738908628 -4.30034150057e-06 0)
(-0.00198844092741 2.73732601306e-05 0)
(-0.00198494413789 5.83507338776e-05 0)
(-0.00197655484936 8.98041434974e-05 1.104569579e-28)
(-0.00196320762289 0.000123118071379 -1.10178632472e-28)
(-0.00194466413679 0.000159429292999 0)
(-0.00192033931307 0.000199646321169 0)
(-0.00188948472568 0.000244591153947 0)
(-0.00185130143181 0.000295146681908 0)
(-0.0018047057433 0.000352381443452 0)
(-0.00174813752721 0.000417626683851 0)
(-0.00167952867023 0.000492550746718 0)
(-0.00159599109103 0.000579476682267 0)
(-0.00149332543785 0.000681868324203 0)
(-0.0013662497693 0.000802950387967 0)
(-0.00121075916842 0.000941156876901 0)
(-0.00102772043133 0.00108689668507 0)
(-0.000825637752915 0.00122214106322 0)
(-0.000618227515459 0.00132537004925 0)
(-0.000422386267227 0.00137068664335 0)
(-0.000256141351789 0.0013552359715 0)
(-0.000124389386579 0.00130545486236 0)
(-2.89692225127e-05 0.00123567907534 0)
(0.000101689952722 0.00117396806693 0)
(0.000277158115569 0.000788636046327 0)
(0.000447039660377 0.000619689006681 0)
(0.00059293985246 0.000460203761205 0)
(0.000666915306299 0.000264753801531 0)
(0.000671910931629 3.86927817086e-05 0)
(0.000585125799203 -0.00018401415273 0)
(0.000460683640425 -0.000329161553694 0)
(0.000338702552806 -0.00041086746287 0)
(0.000209280535463 -0.000435044457987 0)
(0.000106869106166 -0.000406359150052 0)
(4.0696807704e-05 -0.000328223564435 0)
(4.62215793624e-06 -0.000263348649891 0)
(-1.61207784818e-05 -0.000210311694991 0)
(-1.94065220127e-05 -0.000199972878469 0)
(-7.15622361946e-06 -0.0001977208755 0)
(-4.81642509889e-05 -0.000683190343211 0)
(-0.000163301669253 -0.000872897538827 0)
(-0.000216802249037 -0.000858002245622 0)
(-0.000168375387748 -0.000569855965082 0)
(-0.000272024492167 -0.000644437612025 0)
(-0.000447023624365 -0.000847825856163 0)
(-0.000484082102041 -0.000824328207314 0)
(-0.000576320245896 -0.000788510483122 0)
(-0.00056839090636 -0.00066029551306 0)
(-0.000731625763668 -0.000657854289043 0)
(-0.000599116302411 -0.000393674807549 0)
(-0.000705792111103 -0.000351025228138 0)
(-0.00077266136055 -0.000352219297207 0)
(-0.000902631534445 -0.000433661546623 0)
(-0.00104799081864 -0.000523401773455 0)
(-0.00112337861534 -0.00050286909764 0)
(-0.00111655116454 -0.000437124339485 0)
(-0.00119869260412 -0.000454189100545 0)
(-0.00128265464428 -0.000484925234822 0)
(-0.00134114129651 -0.000483721486858 0)
(-0.00139382106063 -0.000464239948541 0)
(-0.00143493210524 -0.000437156840006 0)
(-0.00148269695342 -0.000411216658192 0)
(-0.00150857647163 -0.000377253956819 0)
(-0.0015344337542 -0.00032355037836 0)
(-0.00160745390181 -0.000295496504627 0)
(-0.00156759398516 -0.000267221774505 0)
(-0.00168870705289 -0.000241529499497 0)
(-0.00164284952175 -0.000210710373078 0)
(-0.00174667160617 -0.000204852184185 0)
(-0.00170396723703 -0.000180347424988 0)
(-0.00180646859461 -0.000184085355406 0)
(-0.00184629631528 -0.000212245466698 1.23613288629e-28)
(-0.00187963896705 -0.000230043069888 -1.2420880844e-28)
(-0.00190394600393 -0.00021474961196 0)
(-0.00192464363407 -0.000188960238698 0)
(-0.001942930039 -0.000162565905799 0)
(-0.0019582952708 -0.00013643049486 0)
(-0.00197183073498 -0.000108613285347 0)
(-0.00198344023257 -7.76886321773e-05 0)
(-0.00199233659261 -4.38312683713e-05 0)
(-0.00199795920918 -8.37418032125e-06 0)
(-0.00199975390519 2.74408158423e-05 0)
(-0.00199712005506 6.33684824492e-05 0)
(-0.00198968153308 0.000100123906951 0)
(-0.00197716162098 0.000138870839436 0)
(-0.00195913873821 0.000180850653343 0)
(-0.00193496665491 0.000227207564955 0)
(-0.0019039144056 0.000278971873665 0)
(-0.00186522718063 0.000337272773196 0)
(-0.00181787390201 0.000403620598964 0)
(-0.00176026076283 0.000480099702146 0)
(-0.00168993904867 0.000569568569432 0)
(-0.00160305281444 0.000675849796327 0)
(-0.00149418822769 0.000803011734456 0)
(-0.00135764648455 0.000952331061865 0)
(-0.00119062956521 0.00111766977185 0)
(-0.000994455149483 0.00128661735981 0)
(-0.000776772136544 0.00143712293631 0)
(-0.000550792593243 0.00154230641381 0)
(-0.000341261813285 0.00156317881256 0)
(-0.000176904483853 0.00149996017122 0)
(-6.08828288455e-05 0.00140967889527 0)
(3.24352993868e-05 0.00133399394105 0)
(0.000127299639628 0.00126837860799 0)
(0.000328096598347 0.00107392975644 0)
(0.000533129154593 0.00073821249674 0)
(0.000749326755419 0.000592048310678 0)
(0.000844518851279 0.000300282740615 0)