/*--------------------------------*- C++ -*----------------------------------*\
| =========                 |                                                 |
| \\      /  F ield         | OpenFOAM: The Open Source CFD Toolbox           |
|  \\    /   O peration     | Version:  v1806                                 |
|   \\  /    A nd           | Web:      www.OpenFOAM.com                      |
|    \\/     M anipulation  |                                                 |
\*---------------------------------------------------------------------------*/
FoamFile
{
    version     2.0;
    format      ascii;
    class       volVectorField;
    location    "726";
    object      Ua;
}
// * * * * * * * * * * * * * * * * * * * * * * * * * * * * * * * * * * * * * //

dimensions      [0 1 -1 0 0 0 0];


internalField   nonuniform List<vector> 
6400
(
(2.75114099973e-05 3.75200510793e-05 0)
(7.44384642419e-05 2.82045662011e-05 0)
(0.000108926519612 2.28611840841e-05 0)
(0.000145782148397 2.06920004273e-05 0)
(0.000174205654334 1.48828635776e-05 0)
(0.000196425952691 1.04572533884e-05 0)
(0.000211645913948 9.13440994963e-06 0)
(0.000226319475924 1.23193721949e-05 0)
(0.000255686952007 1.62970692114e-05 0)
(0.00028649233563 1.65184756941e-05 0)
(0.000306312773186 1.57729168474e-05 0)
(0.000336613075619 1.69558469131e-05 0)
(0.000366663920232 1.696220405e-05 0)
(0.000394740658031 1.6264221251e-05 0)
(0.00042061668657 1.63628304326e-05 0)
(0.000448604732168 1.79942864252e-05 0)
(0.000480973132831 1.89701043043e-05 0)
(0.000512542299754 1.86923092061e-05 0)
(0.000541870079254 1.8125706577e-05 0)
(0.000572409721741 1.85764442993e-05 0)
(0.000608159154094 2.1477314766e-05 0)
(0.000648630858463 2.42358009262e-05 0)
(0.000690882608354 2.50931572931e-05 0)
(0.000731949937634 2.50672240275e-05 0)
(0.00077242747902 2.46839959427e-05 0)
(0.000813058967236 2.42750828453e-05 0)
(0.000854657058114 2.4465149831e-05 0)
(0.000896132618103 2.45196765164e-05 0)
(0.000936555140183 2.42746262899e-05 0)
(0.000976037343957 2.4128128993e-05 0)
(0.00101459498281 2.44789846693e-05 0)
(0.00105437099232 2.46683209843e-05 0)
(0.00109549930066 2.46521013962e-05 0)
(0.00113644459515 2.54128390367e-05 0)
(0.00117820822464 2.60919023486e-05 0)
(0.00122340295494 2.66232678426e-05 0)
(0.0012676613556 2.72196295805e-05 0)
(0.00130650095719 2.68871345116e-05 0)
(0.0013497184007 2.61716019661e-05 0)
(0.00139614873479 2.58438499232e-05 0)
(0.00143802072097 2.65312397947e-05 0)
(0.00147309894621 2.57731205149e-05 0)
(0.00150572707266 2.25811807214e-05 0)
(0.00153728583509 2.02698552428e-05 0)
(0.00156608933543 1.91457152101e-05 0)
(0.0015923591198 1.79014267933e-05 0)
(0.00161582044978 1.65336451808e-05 0)
(0.00163577177551 1.47532118512e-05 0)
(0.00165221312976 1.29780726859e-05 0)
(0.00166499338521 1.256815863e-05 0)
(0.0016760088939 1.38162689404e-05 0)
(0.00168944455471 1.29508307801e-05 0)
(0.00169672066224 7.07100812131e-06 0)
(0.00170065293251 3.54745909697e-06 0)
(0.00169303799637 1.70665945222e-07 0)
(0.00166502537476 -5.72230624743e-06 0)
(0.00163495002606 -4.87227170505e-06 0)
(0.00162183413616 -7.02844125573e-07 0)
(0.00161409538656 -2.44410580031e-06 0)
(0.00157923993649 -3.96259642117e-06 0)
(0.00155192396943 2.49885677722e-06 0)
(0.00152641526762 -1.30242691329e-06 0)
(0.00158495658188 -2.57744329808e-05 0)
(0.00151062952045 -6.05002902015e-05 0)
(0.00124364908089 -6.05450240498e-05 0)
(0.00109932479284 -4.46422662349e-05 0)
(0.00102252253269 -4.43675644739e-05 0)
(0.000962614118713 -4.46549437919e-05 0)
(0.000899012845496 -4.66724352014e-05 0)
(0.000807599824878 -5.01615492036e-05 0)
(0.000710208159947 -5.15383784247e-05 0)
(0.000599713709362 -4.95959935796e-05 0)
(0.000496245565715 -4.80798593796e-05 0)
(0.000425980078333 -4.98880774698e-05 0)
(0.000309047482233 -3.8510398727e-05 0)
(0.000263037661967 -3.28225837921e-05 0)
(0.000169303545881 -1.97688452548e-05 0)
(0.000171647006904 -2.60796640334e-05 0)
(7.26730826942e-05 -1.78221782104e-05 0)
(5.40755695885e-05 -3.23904902676e-05 0)
(1.06411304368e-05 5.3319140442e-05 0)
(4.56872907927e-05 5.90821255396e-05 0)
(7.96641546085e-05 5.32434808993e-05 0)
(0.000102858737447 4.35060563852e-05 0)
(0.000147222210587 4.32062370535e-05 0)
(0.000186713644474 3.26508218961e-05 0)
(0.000212182244348 2.49857961373e-05 0)
(0.000233526688586 3.22767940849e-05 0)
(0.000257640848488 4.02738457801e-05 0)
(0.000284480240756 4.10835593592e-05 0)
(0.000311215826037 4.05056195332e-05 0)
(0.000337486966601 4.11921077461e-05 0)
(0.00036391896727 4.0466456037e-05 0)
(0.000390356609116 3.92921969056e-05 0)
(0.000418318254575 4.02137466007e-05 0)
(0.00044775349017 4.59612405849e-05 0)
(0.000478805143496 4.96456807675e-05 0)
(0.00050851800853 4.57442276199e-05 0)
(0.00052913615619 4.29200441541e-05 0)
(0.000562163230885 4.60045045911e-05 0)
(0.000601995973252 5.39398511045e-05 0)
(0.000644723055824 6.21016687766e-05 0)
(0.0006895474816 6.40678250239e-05 0)
(0.000731768480522 6.17787690901e-05 0)
(0.000768435031112 6.01031869006e-05 0)
(0.00081090529083 6.01510446057e-05 0)
(0.000853458668884 6.00093297302e-05 0)
(0.000894058089017 5.92669900244e-05 0)
(0.000934051303826 5.84684167401e-05 0)
(0.000974030475495 5.80789748111e-05 0)
(0.00101353667971 5.85218128258e-05 0)
(0.00105087943607 5.85809080424e-05 0)
(0.00109197454563 5.79828314887e-05 0)
(0.0011326814633 6.01757853507e-05 0)
(0.00117353492821 6.28925487695e-05 0)
(0.0012220685721 6.29823685497e-05 0)
(0.00126486216192 6.35721118741e-05 0)
(0.00130388981339 6.38319497827e-05 0)
(0.00134951320572 6.22175110498e-05 0)
(0.00140040327179 5.93460249073e-05 0)
(0.00144325824546 5.42566066081e-05 0)
(0.00145821241313 4.81229310892e-05 0)
(0.00147982558429 4.41531981155e-05 0)
(0.00151377457235 4.18486310954e-05 0)
(0.00154418468608 3.94137429707e-05 0)
(0.00157387620907 3.62544302094e-05 0)
(0.00160194503653 3.21383933187e-05 0)
(0.00162511556221 2.7200844071e-05 0)
(0.00164768346442 2.19394000062e-05 0)
(0.00166578353586 1.70786043964e-05 0)
(0.00167397410564 1.33612033294e-05 0)
(0.00166666879175 9.81803775029e-06 0)
(0.00166368569775 5.46467564736e-06 0)
(0.00170056180482 -3.5136102673e-06 0)
(0.00168675729221 -1.93011471442e-05 0)
(0.00166816551056 -3.04332476651e-05 0)
(0.00166912577663 -2.97106071649e-05 0)
(0.00165819946731 -2.66920912833e-05 0)
(0.00163945954538 -3.18176347013e-05 0)
(0.00162240987964 -3.80235847549e-05 0)
(0.00160379965329 -4.17018626838e-05 0)
(0.00151162422311 -5.0875455141e-05 0)
(0.00156520293661 -0.000114924162124 0)
(0.00146944576623 -0.000207722971579 0)
(0.0012469475333 -0.000219545946423 0)
(0.00103877293371 -0.000164474233578 0)
(0.000932799826649 -0.000122748062261 0)
(0.000916756268211 -0.000114987707764 0)
(0.000859087094252 -0.000128760104394 0)
(0.000788948123705 -0.000150527114422 0)
(0.000684419550949 -0.00016091110396 0)
(0.000571356309215 -0.000153995672638 0)
(0.000457141905091 -0.000130810119485 0)
(0.000401528031027 -0.000122909631496 0)
(0.000333414164319 -0.000110022292285 0)
(0.000274999404571 -9.63957100533e-05 0)
(0.000218298414796 -7.9278060498e-05 0)
(0.000168580906921 -7.77003027257e-05 0)
(0.000102711197807 -7.96486292131e-05 0)
(4.68156746236e-05 -0.000127027801148 0)
(1.48991254364e-05 9.17859857275e-05 0)
(4.25875675224e-05 9.81604415241e-05 0)
(6.6194745943e-05 9.20429461461e-05 7.2196931891e-29)
(0.000111012315812 9.23458873546e-05 -6.60520050872e-29)
(0.000153037407952 9.11585975052e-05 -5.74029799945e-29)
(0.000180802012548 7.65102839491e-05 5.2060276622e-29)
(0.000202213013951 5.12604144077e-05 -5.18761284319e-29)
(0.000223927798009 5.69928927577e-05 4.98243996546e-29)
(0.000249038190013 6.77317163541e-05 0)
(0.000276834468947 7.05573668191e-05 0)
(0.000304852308988 6.97105549813e-05 0)
(0.000331565997384 6.84359902505e-05 0)
(0.000357651261352 6.71598140787e-05 0)
(0.000383531603183 6.77587433146e-05 0)
(0.000411629784076 7.11152450348e-05 0)
(0.000441288308165 7.32631885813e-05 0)
(0.00043533672272 6.7437959295e-05 0)
(0.000444518750878 6.45155590489e-05 0)
(0.000476821726523 7.18549373004e-05 0)
(0.000524833767823 8.83830204119e-05 0)
(0.000596469321365 0.000105652099797 0)
(0.000646296537201 0.000110669143544 0)
(0.000681706926812 0.000107947811509 0)
(0.000723378512088 0.000104896033906 0)
(0.000766530856086 0.000103607176772 0)
(0.00080704345791 0.000103309068571 0)
(0.000847365115782 0.000102384591507 0)
(0.00088816425687 0.000101279603055 0)
(0.000928582310066 0.000100434065143 0)
(0.000968318980645 0.00010009977147 8.82505122e-29)
(0.00100903523547 0.000100019467324 -8.52423554422e-29)
(0.00104441296706 9.97888634999e-05 0)
(0.00108479470856 0.000100184182492 0)
(0.00113171390852 0.000102257314618 0)
(0.00116305232168 0.000107161693864 0)
(0.00121226943133 0.000111009052676 0)
(0.00126583440878 0.00011011864033 0)
(0.00129864162565 0.000109522131625 0)
(0.00134570764749 0.000110375704213 0)
(0.00139784263585 0.000105275135178 0)
(0.00144097483961 9.23093887614e-05 0)
(0.0014750081507 8.09079910817e-05 0)
(0.00150681516169 7.69979787014e-05 0)
(0.00153830809483 7.48769844949e-05 0)
(0.00156738195234 7.1033390817e-05 0)
(0.00159362726699 6.58170694647e-05 0)
(0.00161718114332 5.90722010232e-05 0)
(0.00163798904854 5.14432123985e-05 0)
(0.0016561340172 4.29438487906e-05 0)
(0.00167122886132 3.29723634e-05 0)
(0.00168273538758 2.27460096814e-05 0)
(0.0016908745694 1.60952635358e-05 0)
(0.00169653265703 1.31187590636e-05 0)
(0.00169232756461 -4.13976064857e-07 0)
(0.0016781660983 -2.09963135638e-05 0)
(0.00167749760315 -3.16825217385e-05 0)
(0.00167297439292 -3.52910183383e-05 0)
(0.00165842915268 -3.9678905981e-05 0)
(0.00163861168925 -4.6736725014e-05 0)
(0.00161581492914 -5.73281899452e-05 0)
(0.00158034645033 -7.76711554336e-05 0)
(0.00154532474959 -0.000113085182244 0)
(0.00150671443142 -0.000232560788284 0)
(0.00132170361543 -0.000359236562047 0)
(0.00106646910817 -0.000328471331629 0)
(0.000972409042132 -0.000256815888193 0)
(0.000928657057843 -0.000206029071713 0)
(0.000857767928951 -0.000188617829598 0)
(0.000786132816393 -0.000209906111994 0)
(0.000702579306826 -0.000240281526294 0)
(0.00060248437389 -0.000248871702864 0)
(0.000511348384994 -0.000230801304435 0)
(0.000452581223937 -0.000208163219613 0)
(0.000396712847713 -0.000195010669643 0)
(0.000327584620671 -0.000181444930703 0)
(0.000259131407301 -0.00016056927395 0)
(0.000197352178529 -0.000138549976192 0)
(0.000148236084392 -0.000141487744848 0)
(0.000101360038211 -0.000177162574748 0)
(2.55070060336e-05 -0.000172751101439 0)
(1.34520457394e-05 0.00013278052623 0)
(2.05691137644e-05 9.38589882563e-05 0)
(5.15997195824e-05 0.000135737775893 0)
(9.21483782706e-05 0.000135382113552 0)
(0.00013060996705 0.000118765283567 0)
(8.2894062911e-05 5.35829935651e-05 0)
(0.00010608382867 5.83934996143e-05 0)
(0.000189946605623 0.00010132278944 0)
(0.000230928081078 0.000106815821289 0)
(0.000263203279071 0.000102333425306 0)
(0.000294084621111 9.9281206027e-05 0)
(0.0003224109079 9.57508827436e-05 0)
(0.00034894567955 9.37104646319e-05 0)
(0.000372321488273 9.09975788635e-05 0)
(0.000375685415166 8.35293734418e-05 0)
(0.000378389642534 7.7852501497e-05 0)
(0.000396513081877 8.04532285345e-05 0)
(0.000435804160265 9.73857517784e-05 0)
(0.00049955891427 0.000124994521291 0)
(0.00055947508071 0.000149207580689 0)
(0.000596947140375 0.000155625651303 0)
(0.0006357846879 0.000152679865207 0)
(0.000677244772696 0.000149457170374 0)
(0.000717909780729 0.000147107988181 0)
(0.000758073147767 0.000144994468418 0)
(0.000797991765452 0.000143416414417 0)
(0.000838017954905 0.00014244750354 0)
(0.000879895688127 0.000141684344033 0)
(0.000919533817886 0.000140609166873 0)
(0.000961674243344 0.000140268409234 0)
(0.00099823185082 0.000139541531344 0)
(0.00104062232272 0.000139324065185 0)
(0.00107271293332 0.00013817726901 0)
(0.00111740035651 0.000143221917063 0)
(0.00117101168503 0.000151887335789 0)
(0.00120648872875 0.000156779835852 0)
(0.00125945740573 0.00015789969152 0)
(0.00131255238821 0.000157102137233 0)
(0.00135617254009 0.000155303661832 0)
(0.00139777646415 0.000146842801298 0)
(0.00143770593863 0.00013206938552 0)
(0.00147406141624 0.000118254600263 0)
(0.00150784267059 0.000109864529432 0)
(0.00153967569851 0.000104096429742 0)
(0.001568811049 9.76743533767e-05 0)
(0.0015950988754 8.98546911262e-05 -7.38251049204e-29)
(0.00161864791439 8.06674094206e-05 7.41914938251e-29)
(0.00163943836877 7.03737731177e-05 0)
(0.00165743878093 5.90080435186e-05 0)
(0.00167242377222 4.66071847782e-05 0)
(0.00168399449192 3.42403253807e-05 0)
(0.00169162358326 2.30746199152e-05 0)
(0.0016946301002 1.07534701092e-05 0)
(0.00169171675205 -6.85015999353e-06 0)
(0.00168556627252 -2.45269928281e-05 0)
(0.00167975690409 -3.70361666305e-05 0)
(0.00167066701448 -4.74648107266e-05 0)
(0.00165435468289 -5.83883535512e-05 -1.401300168e-28)
(0.00163052977055 -7.19423796824e-05 1.62017486465e-28)
(0.00159717698878 -9.25871806935e-05 0)
(0.00154750691726 -0.000129802857745 0)
(0.00147690266668 -0.000210446947829 0)
(0.00136207328243 -0.000367204656437 0)
(0.00123132211751 -0.000503730747789 0)
(0.0011165266945 -0.000482945089216 0)
(0.000930077887232 -0.000337085665427 0)
(0.000839196333158 -0.000269673154331 0)
(0.000778137146553 -0.000263463288461 0)
(0.000712868089181 -0.00028940720608 0)
(0.000652374141973 -0.00033071773383 0)
(0.00057470019001 -0.000343235720614 0)
(0.000495249373914 -0.000318558493583 0)
(0.000418756199351 -0.00028568154811 0)
(0.000329768708507 -0.000253874916171 0)
(0.00026509013019 -0.00023889498687 0)
(0.000205903174023 -0.000227936808829 0)
(0.000143926365381 -0.000200240387912 0)
(8.22706397185e-05 -0.000157149579001 0)
(5.97316453649e-05 -0.000195026501502 0)
(1.97291136265e-05 -0.000223014132631 0)
(7.26547446157e-07 0.000134149074236 0)
(1.03087208763e-05 0.000113108826461 0)
(4.36947001605e-05 0.000173055668745 0)
(7.57738915855e-05 0.000163719013611 0)
(8.62940546938e-05 0.000117931886514 0)
(7.24646857042e-05 7.31755911539e-05 0)
(0.000125011024494 0.000115888194664 0)
(0.000182488388495 0.000154236901058 0)
(0.000210808026498 0.000145843132974 0)
(0.000244931732297 0.000136525661992 0)
(0.000277754490406 0.000132272917717 0)
(0.000307405084574 0.000126239065366 0)
(0.000322881411429 0.00011234786301 0)
(0.000316083569358 9.42301204625e-05 0)
(0.000334550271827 9.35397747459e-05 0)
(0.000368247976587 0.000105368661673 0)
(0.000416392615163 0.000127204266269 0)
(0.000471087771345 0.000155681567787 0)
(0.000516007250382 0.00017772895518 0)
(0.000547112127666 0.000186366089029 0)
(0.000584726590789 0.000191821070137 0)
(0.000626426896873 0.000193853295347 0)
(0.000666559291994 0.000191418086792 0)
(0.000706670520622 0.000187936119983 0)
(0.000746422578042 0.000185176495268 0)
(0.00078581126483 0.000183822034147 0)
(0.00082754307156 0.00018332259118 0)
(0.000866278282288 0.000182097760198 0)
(0.000910376899213 0.000181621600502 0)
(0.000946168989915 0.000179722130058 0)
(0.000991705079076 0.000179960153106 8.46640891991e-29)
(0.0010175007544 0.00017725732849 -8.08432577233e-29)
(0.001068851088 0.000182101997236 0)
(0.00112105068762 0.000189574875508 0)
(0.00116020073748 0.000197388545805 0)
(0.00121684846405 0.000206758160404 0)
(0.00126624903411 0.000209451292006 0)
(0.00131194394626 0.000204565974661 0)
(0.00135497959738 0.000196734338971 0)
(0.00139628504381 0.000185755226636 0)
(0.00143621898119 0.000170936736873 0)
(0.00147383061085 0.000155976208469 0)
(0.0015088611597 0.000144249209787 0)
(0.00154127581709 0.000134787372261 0)
(0.00157075614802 0.0001252823238 0)
(0.00159728946881 0.000114693451364 0)
(0.00162096303721 0.000102831420073 0)
(0.00164175840679 8.97810322002e-05 0)
(0.00165957532803 7.55516378556e-05 0)
(0.00167419342561 6.02510949943e-05 0)
(0.00168523436156 4.44338923968e-05 0)
(0.00169209815071 2.83530642567e-05 0)
(0.00169413204765 1.06804423037e-05 0)
(0.00169122864889 -9.50194314041e-06 0)
(0.00168528843733 -2.91231250845e-05 0)
(0.00167749851891 -4.61693393858e-05 0)
(0.0016646974229 -6.30592554709e-05 0)
(0.00164267075984 -8.28003559792e-05 0)
(0.00160803504119 -0.000109169424625 0)
(0.00155564895734 -0.000149718401618 0)
(0.00147855215522 -0.000217714480251 0)
(0.00137541705266 -0.000329714622769 0)
(0.00124484399325 -0.000478332740779 0)
(0.00116877127818 -0.000598080660853 0)
(0.00110271076251 -0.000598901116672 0)
(0.000944001219091 -0.000473350033012 0)
(0.000822095824011 -0.000384179459068 0)
(0.000722982877763 -0.000351428279559 0)
(0.00064082894312 -0.000362188969007 0)
(0.000576361975989 -0.000398440961886 0)
(0.000512557809527 -0.000423388230306 0)
(0.000432960292404 -0.000401881441031 0)
(0.000338323083199 -0.000346946845156 0)
(0.000273556261374 -0.000320967656758 0)
(0.000212895104388 -0.000309903776257 0)
(0.000153489689522 -0.000293044335566 0)
(9.97787469961e-05 -0.000237392763201 0)
(6.27428833949e-05 -0.000198174554178 0)
(3.85832332345e-05 -0.000240843323091 0)
(9.19548021408e-06 -0.000245917441347 0)
(-1.07445548924e-06 0.000125707566201 0)
(1.12724510335e-05 0.000135013495043 0)
(4.14328102212e-05 0.000195455848541 0)
(6.02263973032e-05 0.000172691850826 0)
(4.80881194322e-05 9.56420391219e-05 0)
(6.91129326571e-05 0.000101648414052 0)
(0.000141758324807 0.00017406604125 0)
(0.000167001053273 0.000183755562003 0)
(0.000192354492295 0.000177128404509 0)
(0.000223293003945 0.000171387882758 0)
(0.000255933574057 0.000160726096297 0)
(0.000255644730603 0.000133189316318 0)
(0.000245849149625 0.000105836874931 0)
(0.000272425001563 0.000109140554489 0)
(0.000308783748255 0.000127175824468 0)
(0.000365427054354 0.000156020040965 0)
(0.000422145273868 0.000182596578509 0)
(0.000465990020761 0.000199735887104 0)
(0.000492669709558 0.000207986329388 0)
(0.000531298070551 0.000221680860973 0)
(0.000573821282134 0.000232637101354 0)
(0.000612903759668 0.00023444510845 0)
(0.000652063526756 0.000231912480465 0)
(0.000691386732839 0.000228463978407 0)
(0.000732752026696 0.000226153551493 0)
(0.000772208230461 0.000223790454738 0)
(0.000807535658898 0.000223031561471 0)
(0.000855361339314 0.000224356597591 0)
(0.00088752722909 0.000220528925904 0)
(0.000937944378254 0.000220191183843 0)
(0.000958309290845 0.00021531480395 0)
(0.00101525776877 0.000222245384993 0)
(0.00104247985497 0.000225570263169 0)
(0.0011062017981 0.00023888473454 0)
(0.00116865611326 0.00025243662857 0)
(0.00121909280004 0.00025899708428 0)
(0.00126514060399 0.000256357931516 0)
(0.00130965908574 0.000248763724164 0)
(0.00135283698956 0.000238656807702 0)
(0.00139477426365 0.000225936064688 0)
(0.00143530383718 0.000210358719119 0)
(0.0014738418899 0.000194022726568 0)
(0.00150987218312 0.000179318238749 0)
(0.00154302132045 0.000166225508335 0)
(0.00157306977409 0.000153362236896 0)
(0.00160000875952 0.00013974159672 0)
(0.00162390366962 0.000124991576036 0)
(0.0016446885758 0.000109008343151 0)
(0.00166218590543 9.17237580424e-05 0)
(0.00167615744297 7.31673303778e-05 0)
(0.00168625889631 5.35384773896e-05 0)
(0.00169199858269 3.2811868961e-05 0)
(0.00169299068394 1.05309649022e-05 0)
(0.00168946341564 -1.30039152444e-05 0)
(0.00168228171801 -3.62371368851e-05 0)
(0.00167076111368 -5.94283977587e-05 0)
(0.00165100716633 -8.58088572959e-05 0)
(0.00161786730499 -0.00011962032726 0)
(0.0015663520451 -0.00016632803053 0)
(0.00149109617821 -0.000233088796807 0)
(0.00139168145007 -0.000327044320638 0)
(0.00127718058378 -0.000445553961463 0)
(0.00113441747335 -0.00055480727205 0)
(0.001119237965 -0.000690795038626 0)
(0.000995386736385 -0.000678899731153 0)
(0.000859137137382 -0.000567415296186 0)
(0.000764891470377 -0.00049387265784 0)
(0.000663276555651 -0.000448856216283 0)
(0.000567605201771 -0.00043785064517 0)
(0.000505379161017 -0.000478262573495 0)
(0.000440785522493 -0.000511798070024 0)
(0.000349549422014 -0.000459908450489 0)
(0.000279111334293 -0.00040858257101 0)
(0.000222085123386 -0.000390727288871 0)
(0.000159220235627 -0.000373542308209 0)
(0.000111747744121 -0.000343074325869 0)
(7.0330485847e-05 -0.000264178715716 0)
(4.20984246139e-05 -0.00022844002645 0)
(2.27640409744e-05 -0.000265006616954 0)
(5.78943022698e-06 -0.000260360529231 0)
(3.2769183505e-06 0.000134916939791 0)
(2.39316530512e-05 0.000169911402276 0)
(5.07020976912e-05 0.000209781188743 0)
(5.5248171829e-05 0.000203637973161 0)
(4.15249696059e-05 0.000119990813272 0)
(9.0377509452e-05 0.000167461079224 0)
(0.000134890689544 0.000205616220417 0)
(0.000151074115323 0.000206075783567 0)
(0.000174079756782 0.000202509748568 0)
(0.000195584557115 0.000197213104027 0)
(0.000230438191922 0.000183590232994 -2.36226244688e-28)
(0.000196733635829 0.000125105548303 1.55713418354e-28)
(0.0002280460082 0.000128584393813 0)
(0.000255230440924 0.000144600539139 0)
(0.000306593555929 0.000178790264721 0)
(0.000366503210338 0.000215121029169 0)
(0.000410413739251 0.000229724338759 0)
(0.000431223634466 0.000228511058725 0)
(0.000471178618455 0.000243928492948 0)
(0.000517749819522 0.000264149354639 0)
(0.000556045286606 0.000272551546551 0)
(0.000595273458596 0.00027404608164 0)
(0.000635133826365 0.000272516642378 0)
(0.000675085618752 0.000268947344716 0)
(0.000712408516675 0.000264364397044 0)
(0.000748250088669 0.000261561396693 0)
(0.00079445271781 0.000263581621255 0)
(0.000822228406064 0.000262303305831 0)
(0.00087804986986 0.000263194377106 0)
(0.000894911037872 0.000251758789931 0)
(0.000955507587802 0.000259254826128 0)
(0.00098403463137 0.000264773181218 -7.98721137499e-29)
(0.00104673688338 0.000279462254746 8.03847985036e-29)
(0.0011024800345 0.000296893272293 0)
(0.00116711744026 0.000309760213785 0)
(0.00121617962417 0.000309094342429 0)
(0.00126130148481 0.000302220489343 0)
(0.00130603576746 0.000292799468058 0)
(0.00135023330181 0.000281299265506 0)
(0.00139325861418 0.00026724577881 0)
(0.00143468751224 0.000250552975027 0)
(0.00147416806386 0.000232592567024 0)
(0.00151115433681 0.000215096486523 0)
(0.00154514636466 0.000198498569601 0)
(0.0015758974084 0.000182119586257 0)
(0.00160336131311 0.000165190441558 0)
(0.00162751330549 0.000147238055303 0)
(0.00164818835908 0.00012799211833 0)
(0.0016651396099 0.000107282849218 0)
(0.00167813226615 8.50534982336e-05 0)
(0.00168689600414 6.13362948512e-05 0)
(0.00169109460583 3.6113398064e-05 0)
(0.00169051802162 9.38692659077e-06 0)
(0.00168520049245 -1.85015759725e-05 0)
(0.00167479773239 -4.75508400959e-05 0)
(0.00165697858531 -7.9971854336e-05 0)
(0.00162682276381 -0.000120146843026 0)
(0.00157891525188 -0.000172850740371 0)
(0.00151007132352 -0.000242146277353 0)
(0.00142207775503 -0.000330182455326 0)
(0.00132114465077 -0.000434471709084 0)
(0.00121698049019 -0.000546265363492 0)
(0.0011307344355 -0.000659534103872 0)
(0.00106391499677 -0.000775797204338 0)
(0.000951864770889 -0.000784058621989 0)
(0.000768353064096 -0.000644837593695 0)
(0.000701270001827 -0.000590823465725 0)
(0.000614078028819 -0.000559276419031 0)
(0.000515793523295 -0.000545300715849 0)
(0.000436299845541 -0.000571996464025 0)
(0.000361867556833 -0.000573623097406 0)
(0.000286336496088 -0.000511653137977 0)
(0.00023005514197 -0.000478791891662 0)
(0.000166818419577 -0.000456168296958 0)
(0.000111362288585 -0.000429324364148 0)
(7.3196980656e-05 -0.000365025902387 0)
(4.53162214564e-05 -0.000299435406206 0)
(1.64219967842e-05 -0.000252996512067 0)
(3.68491775493e-06 -0.00027474820956 0)
(1.30895900263e-06 -0.000273051750517 0)
(7.16931645767e-06 0.000153987921075 0)
(3.1565269208e-05 0.000199807352534 0)
(5.31937215865e-05 0.000216688250423 0)
(3.4301001574e-05 0.000146492779357 0)
(4.03015994703e-05 0.00014483433053 0)
(9.45336523865e-05 0.000217135600453 0)
(0.0001162352272 0.000225713526158 0)
(0.000135509057231 0.000226849124207 0)
(0.000149659792721 0.00022230354109 0)
(0.00017463753533 0.000219060894483 0)
(0.000154764991225 0.000155783043618 0)
(0.000178028416646 0.000146425919715 0)
(0.000208495754418 0.000158528772118 0)
(0.000241257921731 0.000184778552379 0)
(0.000305850661884 0.000236372408286 0)
(0.000352432058843 0.000260442197712 0)
(0.000369382521066 0.000253637513862 0)
(0.000404439837022 0.000263796535671 0)
(0.000454466881951 0.000289625295303 0)
(0.000496800065688 0.000305785367321 0)
(0.000534199415961 0.000311351178823 0)
(0.000572407473886 0.000312906007785 0)
(0.000613556066159 0.000313381216023 0)
(0.000653300544225 0.000309807815372 0)
(0.000694666265737 0.000303664250607 0)
(0.00072472108892 0.000301117386543 0)
(0.000775813431375 0.000305036734278 0)
(0.000808517363657 0.000301441558743 0)
(0.000836542602558 0.000295201598953 0)
(0.000882711233486 0.000297707101842 0)
(0.000949199019406 0.000310027977986 0)
(0.000982655269116 0.000313751506685 0)
(0.00103080862507 0.000333001076112 0)
(0.00110819533026 0.000358644377799 0)
(0.00116064733352 0.000364436322647 0)
(0.0012087521087 0.000358074533165 0)
(0.0012555666052 0.000348627215663 0)
(0.00130164451947 0.000337891927425 0)
(0.00134717118811 0.000325232608384 0)
(0.00139157317236 0.000309877222707 0)
(0.00143423359172 0.000291769228375 0)
(0.00147480559678 0.000271922521858 0)
(0.00151284698707 0.000251672429051 0)
(0.00154783062148 0.000231639690942 0)
(0.00157942890796 0.00021161852744 -7.15868389973e-29)
(0.00160750474171 0.000191078778544 7.13311191381e-29)
(0.00163189259792 0.000169509503128 0)
(0.00165229612225 0.00014652291239 0)
(0.00166840611479 0.000121890341484 0)
(0.00168001221059 9.5527161995e-05 0)
(0.00168692919188 6.74176811069e-05 0)
(0.001688948847 3.75527648261e-05 0)
(0.00168587966799 5.91164488369e-06 0)
(0.0016772623682 -2.78399723205e-05 0)
(0.0016614982149 -6.5396405007e-05 0)
(0.0016348148901 -0.000110595943749 0)
(0.00159201121853 -0.000168005841743 0)
(0.00153025937395 -0.000240127232842 0)
(0.00145258397281 -0.000326919212653 0)
(0.00136485418541 -0.000426471979701 0)
(0.00127164487941 -0.000530834727947 0)
(0.00118285959104 -0.000633115060296 0)
(0.00110863925392 -0.000737273095718 0)
(0.00103366791664 -0.000845382133238 0)
(0.00101654215083 -0.000951539252895 0)
(0.00077117906471 -0.000780932462978 0)
(0.000623563762843 -0.0006828434075 0)
(0.000535735427221 -0.000653962386275 0)
(0.000435370129049 -0.000635363888039 0)
(0.000356957336747 -0.000642903615946 0)
(0.000293004795105 -0.000621981222806 0)
(0.000232548866187 -0.000573455803949 0)
(0.00017329400959 -0.000545978989168 0)
(0.000112121993344 -0.000516429817353 0)
(6.57033202049e-05 -0.000470263209646 0)
(3.32739461305e-05 -0.000390636465481 0)
(7.3373759209e-06 -0.000331723625785 0)
(-1.6572871296e-05 -0.000279081800214 0)
(-2.32732568245e-05 -0.000273228597076 0)
(-9.39396872512e-06 -0.000272142759085 0)
(9.41584055227e-06 0.000176300740584 0)
(3.26785721609e-05 0.000221105176277 0)
(3.94950527214e-05 0.000221918509941 0)
(2.91118768717e-05 0.000158254827278 0)
(5.1841230352e-05 0.000182325979386 0)
(8.90164093727e-05 0.000238737898666 0)
(9.83014213473e-05 0.000243535456647 0)
(0.000120201659946 0.000245182368438 0)
(0.000121310586642 0.00022486231521 0)
(0.000153288321878 0.000245679060328 0)
(0.000134185335784 0.000173766227383 0)
(0.000164028472189 0.000174244298062 0)
(0.000190559541335 0.000191391855011 0)
(0.00023728740869 0.000238100269476 0)
(0.000290842337116 0.000284637582486 0)
(0.000325111884841 0.000294583661579 0)
(0.000341013504644 0.000286401237664 0)
(0.000383343880049 0.000307484727466 0)
(0.000429926916206 0.000333281798064 0)
(0.000470482659237 0.000346227670677 0)
(0.000509902106918 0.000350952583288 0)
(0.000547121061056 0.000351571640601 0)
(0.000587469967471 0.0003524172362 0)
(0.00062232764596 0.000347822821795 0)
(0.00065630022505 0.000338007550626 0)
(0.000707665250859 0.000342106691652 0)
(0.000725666753203 0.000337827282144 0)
(0.000796227658345 0.000346580701308 0)
(0.000814458436784 0.000340051547904 0)
(0.000885241361136 0.000353685429928 0)
(0.000907259313957 0.00035016135356 0)
(0.000983675729017 0.000371888370943 0)
(0.00104277219394 0.000397498206708 -8.3216537784e-29)
(0.00109905336716 0.000414802261905 8.26671540669e-29)
(0.00115038294515 0.000415218351226 0)
(0.00119976482936 0.000407286971967 0)
(0.0012485571506 0.0003966852789 0)
(0.00129647627354 0.000384698456123 0)
(0.0013435992743 0.000370771103875 0)
(0.0013895723085 0.000354030128 0)
(0.00143378293987 0.000334286284333 0)
(0.00147576502802 0.000312319669028 0)
(0.00151507835668 0.000289248891279 0)
(0.00155124159493 0.000265767805777 0)
(0.00158387278599 0.000241942183193 0)
(0.00161265728776 0.00021741957039 0)
(0.00163722984537 0.000191696448265 0)
(0.00165715795388 0.000164343480157 0)
(0.00167207774144 0.000135148224609 0)
(0.00168179136808 0.000104073879433 0)
(0.00168619220513 7.11023206073e-05 0)
(0.00168516716476 3.61049268941e-05 0)
(0.00167843131769 -1.39079824242e-06 0)
(0.00166493576397 -4.28915537186e-05 0)
(0.00164192014382 -9.17337990444e-05 0)
(0.00160467392863 -0.000152577940216 0)
(0.0015492764254 -0.000227628721214 0)
(0.00147915312467 -0.000313973030517 0)
(0.00140387904926 -0.000410662640613 0)
(0.00132230714791 -0.000519484515628 0)
(0.00122934330414 -0.000624079761006 0)
(0.00113841495438 -0.000712328918226 0)
(0.00106815206978 -0.000800203709404 0)
(0.00101645155223 -0.000897271463333 0)
(0.000997684458265 -0.00101094633641 0)
(0.000912835166858 -0.00102798686595 0)
(0.000602462054441 -0.000802066515155 0)
(0.000453742139129 -0.000760119850086 0)
(0.000364760797935 -0.00073703791365 0)
(0.000290690412376 -0.000710094496022 0)
(0.00023011810782 -0.000673012714921 0)
(0.000171704173504 -0.000640754877134 0)
(0.000111939391161 -0.000607743557844 0)
(5.91371216646e-05 -0.000568144410951 0)
(1.64692178898e-05 -0.000502892521326 0)
(-1.85832544097e-05 -0.000425288029283 0)
(-4.79690202594e-05 -0.000357840418792 0)
(-6.33685338572e-05 -0.000298481697761 0)
(-5.50551936237e-05 -0.000260642959444 0)
(-2.19338045419e-05 -0.000241978254338 0)
(1.02612791328e-05 0.000201465898128 0)
(3.31969064856e-05 0.000234564481548 0)
(3.16533505868e-05 0.000219162092294 0)
(2.55805908675e-05 0.000168320531535 0)
(5.75678407823e-05 0.000230723764269 0)