/*--------------------------------*- C++ -*----------------------------------*\
| =========                 |                                                 |
| \\      /  F ield         | OpenFOAM: The Open Source CFD Toolbox           |
|  \\    /   O peration     | Version:  v1806                                 |
|   \\  /    A nd           | Web:      www.OpenFOAM.com                      |
|    \\/     M anipulation  |                                                 |
\*---------------------------------------------------------------------------*/
FoamFile
{
    version     2.0;
    format      ascii;
    class       volScalarField;
    location    "658";
    object      alphak;
}
// * * * * * * * * * * * * * * * * * * * * * * * * * * * * * * * * * * * * * //

dimensions      [0 0 -1 0 0 0 0];


internalField   nonuniform List<scalar> 
6400
(
0.891305007637
1.42767139467
2.26415880833
2.82355155095
3.35788383594
3.89306877834
4.57084157179
5.32954343322
5.77634287591
6.46094501327
7.71928149018
8.60444170208
9.34832894766
10.1814065358
11.2050404676
12.2795460385
13.2437062282
14.1505281941
14.9149337627
15.3700257399
15.6071348236
15.9779042117
16.6870453946
17.7146250402
18.8377431853
19.8515022781
20.6935135916
21.475218151
22.2982498786
23.1777667752
24.0586035653
24.7482364148
25.1697062044
25.4435471158
25.6116409951
25.6708217557
25.9004209174
26.3550878817
26.4951294975
26.4146970422
26.7069585929
27.5002647103
28.2956712462
28.735746547
28.8677207694
28.7855903819
28.556226007
28.2244292589
27.8033672678
27.3132177244
26.6687569207
25.6489094902
24.2882928159
22.6595408794
21.2116034012
19.9912652841
18.3145248225
15.9003764375
13.3670866487
11.3111776338
9.21855975117
7.02887170876
4.91278418716
5.12262635657
8.64895180004
13.4193833121
16.3255771763
15.9788334782
13.9626354951
12.3684177285
11.5512371171
11.8332618213
12.4598683311
12.3980912367
14.5356332235
14.0067998855
15.9306664533
9.83036595959
12.8613855411
4.80558211605
3.15662069428
2.53254112853
3.15812570931
4.4230060742
4.37245197062
4.31548003593
4.56834189509
5.04522726156
5.71801854527
6.57122748236
7.59571665271
8.61828573664
9.52519939787
10.3944379185
11.2818329532
12.2940834029
13.3586174118
14.3746420496
15.4206507894
15.7064747228
15.7567267087
16.1009484058
16.7835063945
17.7975445181
19.0463571983
20.0025816872
20.8143394741
21.6343793874
22.4728013125
23.3220556553
24.1733693238
24.9532354795
25.3693443713
25.6377071088
25.83903084
25.8098995683
26.0875335872
26.5665412253
26.658002342
26.4393843405
26.701578147
28.0424318806
29.1422008414
29.4872077554
29.5588049471
29.3956915198
29.0636327493
28.6604589852
28.0743856595
27.4160936018
26.841624085
26.3515104672
25.1975870011
22.8833427148
21.5549583754
20.110313861
17.8587026754
15.5089498041
13.2181684727
10.9527843243
8.86340782048
7.36664253878
5.32113295327
5.61560440643
8.85115538778
14.4934562877
18.1581841038
16.8135741046
14.6180787258
12.6996571342
12.0551106356
12.5540289198
13.7464023522
13.2132990698
13.119724506
12.6421544076
11.4853836755
9.67398878618
8.14934853717
4.23228670558
3.26411772216
2.88183563031
3.40236917783
3.71523822738
4.28922169157
4.75284790596
4.76073821812
4.94482467178
5.61915271237
6.54674715454
7.58020725085
8.62247970245
9.57481710058
10.4470317805
11.1895051373
12.1084305474
14.6965336311
16.6983045736
17.1696570926
16.6773367947
15.5630254006
15.777997691
16.9042472297
17.9693902825
18.9733976475
19.9955841352
20.9128641943
21.7353039459
22.5532762811
23.3988046174
24.2161072584
25.0862455157
25.4991285802
25.5372358469
26.0541590411
26.0416306123
26.0030838815
26.6716190993
26.8099498725
26.6537607004
26.9303061037
27.7066527365
28.481200246
28.923745782
29.0807044463
29.0405167988
28.8450117044
28.5145580012
28.052181681
27.47980879
26.7977312339
25.8931550388
24.6391597303
23.2922125289
21.9323607532
19.9988719034
17.7696581864
15.4962720547
13.2375224006
11.0592974515
9.08543349501
7.2108178883
5.9489722035
7.04924301202
11.2862204792
15.5324377823
17.5987880559
17.6538302639
16.0554369591
14.4061524061
13.7699425033
13.7355501037
13.1186322951
12.5722328216
12.6053438555
12.3170039126
11.378189618
9.77668546732
7.34407171378
7.53985931318
3.306712856
5.53840102854
3.75054396773
3.89353385972
4.60480774481
11.9093112984
10.314843309
5.48485507121
5.58611531078
6.54196805932
7.60292118646
8.6656233951
9.59334633218
10.4788641308
12.1661500429
14.249029787
15.9413018902
16.4404449705
15.557812392
14.9406644007
15.3552044057
16.021547064
16.8879505649
17.9504339759
19.0573926369
20.111998161
21.0567152316
21.8584732245
22.6957245375
23.4711330554
24.4143875927
25.0802146924
25.7727899553
25.8043539089
25.6242130044
26.1227104499
26.1771080645
26.2552776182
26.5644363328
26.8484849885
27.2462803352
27.8761744848
28.5242334833
28.9621551957
29.1579624144
29.154059014
28.9863615869
28.6765858203
28.2340693568
27.6659086285
26.9557506631
26.0431142847
24.8876820563
23.5486042502
21.978583095
20.0425995461
17.8374471916
15.5667563887
13.3476632463
11.2755715398
9.46641445635
8.08294405348
7.65349095412
8.52632201952
10.9162194852
15.9867840488
19.3369079944
19.4424948905
17.7520931996
15.3875460679
13.8033902908
13.0582240868
13.2840773122
14.7567901182
14.7361864844
13.4486074056
13.3411023679
16.6575120129
13.0488992263
11.0576522302
5.73751549198
7.6182679805
4.55457849297
4.87393011709
6.66671392552
11.804715161
8.33589281713
5.97942491463
6.11201441932
6.7622797699
7.74516554909
8.82092847278
10.2486023435
12.4966071955
13.551144493
14.0123033401
14.1561890849
14.124836552
14.3545433803
14.9880114626
15.4844067199
16.0743678784
16.9815850897
18.0520873138
19.1736598023
20.257736675
21.1740581426
22.0958941852
22.8075821136
23.7618482834
24.4572180026
25.6744717488
25.70873734
25.4627068573
25.7260357016
25.6780947015
25.9283113791
26.3122231155
26.7061204635
27.080658569
27.5142677661
28.0671021771
28.6308315933
29.0526694424
29.273642683
29.3018457947
29.1621539313
28.8760304766
28.4552541573
27.9003336245
27.1917584405
26.2917868014
25.1746407862
23.8296962751
22.1890158812
20.2060849185
18.0053097656
15.7804917681
13.677463408
11.8286396129
10.3918625226
9.57651817399
9.63135281437
9.90014196177
11.3326283076
15.6137626959
19.4664267178
20.7791579239
19.5798541086
16.7965492718
14.3093528875
14.0089662991
16.3239260626
17.2295790096
16.2208434537
15.3324027533
18.0240443814
21.0571673007
16.3519918475
15.4654350039
10.0243489424
9.19957827079
5.6766521307
6.20505457945
12.0913926469
11.5778885655
6.81204272056
6.59242216323
6.74854715019
7.11620247778
7.98567519767
10.5688136321
13.7306631251
14.2186048389
13.9502921162
13.1903727246
13.0059107048
13.4886556076
14.4769249398
14.9568926405
15.3858525951
16.1467770888
17.1248056934
18.2248309096
19.279624475
20.3729406885
21.5273800742
22.2011219914
23.3029637883
23.8158827362
25.2587506253
25.4730813971
26.300655252
25.672997247
25.1916425933
25.4275787879
25.930541966
26.4396439367
26.8974566706
27.3225242898
27.7762724432
28.2897492602
28.7997071004
29.2033985999
29.4383446662
29.4927430915
29.3801657139
29.1205994141
28.727082017
28.1974917729
27.5117392018
26.6375481641
25.5400997348
24.175908406
22.4912977234
20.5042601545
18.3650496337
16.2681535653
14.3760733814
12.8428368783
11.8116005262
11.4650583172
11.9033524851
11.1324541607
13.2763067794
17.6359935668
20.8574111136
22.1005208241
21.1291097715
17.7236565143
15.4972891785
17.3122067086
19.5446617675
19.0408438142
18.0721752357
18.1753170334
22.789121746
24.391096008
19.3677077796
19.1709049245
12.1539308715
9.10028605239
6.89977665746
6.46735523361
12.0516699456
8.54864636744
7.074987097
7.20019954419
7.34255966615
8.04703530399
8.57547993443
13.4177031194
14.154936349
14.2449097199
13.0325793434
12.2214837867
12.6269057757
13.9693309083
14.4359791103
14.6767104429
15.3995209267
16.2587800683
17.2397419264
18.3371490593
19.5664658204
20.7425819899
21.5549113766
22.9654011696
23.3911236614
24.9420075884
25.0193468498
26.0966550729
25.7944132821
25.4520307573
25.0361554472
25.3870942669
26.016959293
26.6072598203
27.1096928108
27.571038544
28.0440319514
28.5414352549
29.020846032
29.4105749304
29.6540949546
29.7299025993
29.6444000791
29.4163130404
29.0588624604
28.5678470176
27.9204862862
27.080256423
26.0005819035
24.6307672457
22.9477559271
21.0203788863
19.0197551654
17.1348597476
15.505456633
14.2322633302
13.4440679586
13.1749985249
12.9435737708
12.955856258
15.0196135825
20.3809207329
22.3779130056
22.5287762837
21.372352264
19.0396313443
18.710270023
21.2452503704
21.6759657042
20.8607284872
20.3026523047
22.3248498282
25.1134028846
26.6007442321
22.0013927371
20.8625424077
11.8935820005
8.80481458828
8.05838957458
12.2440308858
12.180143534
7.65782920421
7.74234698273
7.89992804912
7.99836424888
8.58182900787
13.1558439182
14.1136571325
14.2495343653
13.83551437
11.9343874641
11.8379360078
13.4020295526
14.0965196115
14.088969815
14.555088956
15.4377851904
16.4276803638
17.4401037063
18.5900955646
19.6656007551
21.078893189
21.6432346632
22.9856854367
24.5517128696
25.0841669814
24.7382284445
25.6054756618
25.855009216
24.9619312054
25.0330635015
25.5355684758
26.1708976288
26.7893795783
27.3337017758
27.8311872306
28.3255621427
28.8230001867
29.2892396499
29.6711092663
29.9213155294
30.0164414204
29.9600516725
29.7701900208
29.4592478993
29.0202576069
28.4259050447
27.6324789981
26.5866753647
25.2476030023
23.6305451019
21.843843768
20.0577216476
18.4072486915
16.946427142
15.749533833
14.988035783
14.6776399918
14.6482022396
14.9909692895
15.0440374975
20.75898689
24.3378481388
24.1147902308
23.3741006184
22.2968820621
22.9883284298
24.2675645414
23.5554755361
22.8942583759
23.1540495016
25.5593467364
26.2780879549
26.8926681115
24.0129331735
21.8727150095
11.2042760562
8.77275550422
8.7330037572
13.2353798021
11.212464863
8.31501722586
8.46701703252
8.75640989688
9.90213137835
8.71101306648
13.9279726674
14.6476061062
14.2990083847
12.6627535856
11.607421498
11.9762846577
13.4739681759
13.8289140446
13.9830942346
14.576367759
15.4398967525
16.5027750503
17.6129959194
19.1494841543
20.447637098
21.0504684078
22.9557890109
22.9026458362
24.7310149812
24.5829614523
25.7969388504
25.0007625154
24.8142168718
24.887811014
25.2082850046
25.7384848042
26.3594480852
26.9880395825
27.5700302854
28.1077616167
28.6283793786
29.1355861119
29.6014278627
29.9828375156
30.2406150492
30.3556474554
30.3328592659
30.1896233253
29.9364824626
29.5637982935
29.0397701992
28.3149132904
27.336828423
26.0858217293
24.615241524
23.0510532833
21.5132052702
20.0100898215
18.5132847072
17.2415260968
16.5718650038
16.5742921445
16.8738547006
17.0743598947
16.9312642338
18.1302669952
24.7093765156
26.1581855553
25.8994651443
26.285240152
27.1122555798
26.5968925711
25.5179795957
25.34565713
26.4286481953
27.7201692553
27.6325887201
27.0597553831
26.0605944893
24.6981214976
10.7163593966
9.24607372849
9.88549629436
13.3197858141
9.34831536244
9.33750826226
9.1980640114
9.47079421171
12.4721898243
11.2420781248
14.7632797167
14.9302195
14.3877496294
12.0269866521
11.6580929606
13.2222695016
13.6992635944
13.5967182784
13.950698549
14.7230237694
15.5678809723
16.5760684822
17.5473061005
19.2978202367
21.4263153054
21.0035145401
22.9060584243
24.2359347529
24.9644848859
25.6535185223
25.1270158934
25.2255348185
24.549198955
24.8119516603
25.3776783739
25.9634306796
26.5757237911
27.2060413569
27.8186339112
28.4001475453
28.9560246242
29.4823742085
29.9565732524
30.344354125
30.6138346917
30.7518115718
30.768210615
30.6812124612
30.4985053732
30.2080394482
29.7761014516
29.1520952709
28.2925673204
27.205168255
25.9709250171
24.690152541
23.3477813867
21.7749299659
20.0795666711
18.8835841231
18.6542311903
19.1775635009
19.6961530359
19.8002989511
19.4514678122
18.0918641597
17.6895283925
28.0401567381
30.5928358619
31.2135780327
30.6844266468
28.9388141195
27.8786843664
28.2072560317
29.5133873335
29.99045417
29.848951684
29.6217975874
30.0014927366
30.2075096875
10.7445634906
10.1136368949
13.2547649743
13.5219109189
9.50947971222
10.1098383201
9.92728403096
10.3884263068
12.0318423073
14.6861591707
15.611980092
15.2198560577
14.6523676687
12.0800170017
11.8243647038
13.725017884
13.8121754831
13.5820851745
13.9758636543
14.851990818
15.9147312583
16.9315351125
17.7225297028
18.9342499524
21.5918012016
22.830599525
22.5692678916
24.3494874868
23.9324653311
25.6738979027
26.0928080203
25.191094314
24.5312172875
24.9248674389
25.5762239323
26.1989017105
26.8162619306
27.4492978166
28.0825955136
28.706730195
29.308025585
29.8645924733
30.355444718
30.7558828209
31.0424719358
31.2095998568
31.2728300462
31.2514501279
31.151537269
30.9607797243
30.6474882476
30.1668005547
29.4927873188
28.6607691432
27.7494254398
26.7474669
25.4092220355
23.5811335002
21.9165548101
21.2217287091
21.7567135273
22.8638749759
23.563197729
23.5734655522
22.8732585247
21.2146762936
18.7320123139
19.008776831
32.1204719307
36.9322171311
35.054298304
31.9884212579
30.8707675109
31.4449681468
32.4833790223
33.0739861948
33.5761940575
34.200007263
34.8574903424
35.5553973106
11.1412771477
11.0057921176
14.9097473276
14.2709838916
12.4267580352
11.34781695
10.8856529772
11.8393614548
11.5562159503
15.6562386977
16.2867266313
15.5873555772
14.7769199074
12.7311176015
12.5856380152
14.1813263428
13.8507067298
13.6749069189
14.091797899
14.8920546453
16.0519325174
17.3848786306
19.091062782
19.0587448732
21.1014851875
23.1946573396
22.4810162307
24.5934197108
25.5047165098
24.9288384044
25.2541981085
24.6319435577
24.8162070352
25.2467664798
25.8314935906
26.4574668278
27.0856153272
27.7262364038
28.3696849302
29.0241318238
29.6784502691
30.2835066227
30.8009259941
31.2185734723
31.5287125646
31.7338010522
31.8530666957
31.9062365561
31.8998828747
31.825496681
31.6591838333
31.3730303568
30.9687286716
30.4927583407
29.9462470268
29.0682287748
27.5351777967
25.7771137627
24.6639089119
24.814240355
26.311331869
28.1027348446
29.1797309861
29.2814171254
28.5476516082
26.6528522401
23.4988693362
19.02042737
27.4274060985
37.8613157792
39.9566462014
36.0518505282
34.8799299038
35.4455770987
36.4280351665
37.2188701862
38.5124352058
39.4559743186
39.4751204495
39.7303011446
11.7721629675
11.6739168796
14.6827623988
14.7899916184
14.8153765741
12.5134487238
11.9748264259
14.6609402432
11.9679267408
16.5204401856
16.8027099977
15.9641506892
14.8986736006
13.3688227171
15.1114459163
15.2291883702
14.0612457582
13.904716308
14.3419406607
15.029656629
16.0079248923
17.3766164768
20.3300646386
21.291888344
20.6141449796
23.2488144663
24.247310121
24.1808737401
25.4663884053
25.9417841076
25.5771104634
24.6738095507
25.0200881204
25.5746615005
26.1421105287
26.7497175625
27.3742029737
28.034712333
28.7049124704
29.3737257257
30.0627741908
30.7258050007
31.2910024926
31.7364682475
32.0761604237
32.3288801143
32.5148083363
32.6502492692
32.7438010183
32.7965658537
32.8032706228
32.7702108164
32.7319851306
32.6960422405
32.4387098193
31.3809643288
30.0463278284
29.7953000399
29.5603845188
30.5809451039
32.6709469466
33.621629181
33.0241149866
32.0700231674
29.8539690015
26.8430015264
23.5595765137
17.131330846
16.5672527311
31.3568406438
38.5778277253
36.9582110215
34.2080821962
36.6295296794
39.1631689162
41.8176102069
44.0966396913
44.9693655464
45.0019188577
45.2296191153
12.4603340313
12.3938651347
12.0443911624
15.1364314014
15.3731797024
13.3144352668
12.9533476884
15.669984483
12.6558870169
17.4171293543
17.2708862726
16.3553669504
15.1262900351
13.7035103416
16.2635505883
15.8303088948
14.5222112762
14.3128603197
14.6960331312
15.3369430013
16.0878824876
17.261933689
20.8233230481
22.3608992265
20.9595253055
23.266329999
24.7562081482
23.7241132014
25.0917731607
25.52839488
24.7105070677
25.0178175695
25.4602384626
25.954266788
26.4856051332
27.0935045251
27.7162883569
28.357265767
29.057191353
29.7729807039
30.4898663593
31.1937725392
31.8135576808
32.3051289349
32.688182666
33.0005084046
33.2631839415
33.4836836543
33.6759641604
33.8574788027
34.052127649
34.3327863194
34.7598657352
35.2013443907
34.9311701604
33.4725430691
33.6628450772
29.9071726666
26.1787825372
23.4282398431
16.0688433123
0.0858932863367
0.000297493265759
3.03525798379e-05
2.40865694143e-06
6.7847006396e-07
7.98610314654e-06
8.15982539086e-05
0.000921738443883
0.00240749572396
3.9978342951
39.6269298903
49.8997935817
46.0739470068
41.4956886057
42.9473037937
47.6866821388
50.268139922
51.796500333
52.2507059835
13.3282852576
13.4223304209
15.7844840177
15.8020236481
15.8483284421
13.9990575792
14.0082736359
16.5444591334
13.6902628427
18.2000025924
17.7215829897
16.7717352535
15.4365147714
14.1117089051
16.5619437249
16.060892288
14.9796734505
14.7816931189
15.0904312868
15.6590048032
16.3402522975
17.2725969173
20.2599792171
23.1695700613
23.3511430484
22.6726461172
24.9624940623
25.8181219938
24.0519621127
24.1303669202
24.6538215154
25.2538581926
25.8168053551
26.342100191
26.8860831341
27.4654427595
28.0910565497
28.7500561785
29.4374876837
30.1907874804
30.9627560989
31.7078674008
32.3720858488
32.9157088327
33.3614460202
33.7505684514
34.1002662242
34.4100552249
34.6868927718
34.9677050906
35.3521952456
36.0003892198
36.9670471464
37.8032441289
37.147015793
33.2836535249
22.5373204048
1.00883481552e-07
1.10961368077e-10
2.08012898053e-12
3.5259611703e-14
1.02014805e-16
2.89903807238e-19
5.0181800321e-24
3.92523530971e-24
9.52956870819e-24
6.42368274693e-23
3.00881713479e-22
1.1114585515e-21
7.06314540136e-21
5.53028517844e-21
4.79782306832e-19
2.73076299269e-16
2.74499950387e-14
2.08299092274e-12
4.79662476042e-10
8.07422885799e-06
51.64693594
57.4959107696
58.1854307413
14.1468567129
14.3389050834
17.4119626867
16.5013140522
16.0033479461
14.6869643633
15.0285866419
17.2917669391
17.2655046522
19.175166183
18.2380409066
17.2833007549
15.8344349772
14.6633206013
16.8792742364
16.2273473618
15.4160811541
15.2580547625
15.4930548769
15.9781890837
16.6234810807
17.5062056026
19.7653900446
23.4266366827
24.7057914092
22.4400503124
24.479272424
25.896558715
25.7550224626
24.5498474802
24.7359373448
25.4734985825
26.1750189335
26.7740933286
27.281493657
27.8678219105
28.4892824699
29.168274635
29.8771574733
30.6447921372
31.4680308029
32.2723788453
32.9758711287
33.5572635078
34.0764257525
34.5919154096
35.0691776333
35.4465840586
35.7228280688
36.060147505
36.6542658319
37.6666529033
39.17230459
40.404355335
31.1847722365
0.0661783216279
5.57876242741e-14
2.25912956061e-16
6.53303698556e-18
9.51090429272e-20
7.72740875331e-23
1.28939220344e-25
9.08898481651e-27
0
0
0
0
0
0
0
0
1.26412278889e-30
4.26362446345e-28
6.37747341172e-26
3.70000584055e-23
5.16800011535e-20
2.79860414653e-15
4.25001824314e-11
0.000331347701286
61.9169347099
14.8173359238
15.0312286086
19.5475706508
17.0486660781
15.9162772396
15.2961138079
15.7654253033
17.3830558981
18.856347361
20.2942970647
18.9118303015
17.9307893966
16.4831365419
15.5042789837
17.4026563006
16.5448744193
15.9287520841
15.7822364915
15.9352598961
16.3347293821
16.908050061
17.725038422
19.5651859584
23.3004449661
25.6921797373
24.9717280976
23.9778561444
25.2664438021
25.5315586712
24.5840419202
25.1768699119
25.9386222155
26.6862009912
27.2580979033
27.7848317307
28.3085257058
28.9420593722
29.6174623328
30.3556013868
31.1501087799
32.0032339754
32.8697132304
33.6539755611
34.2748551394
34.8595556323
35.5149713838
36.1367508927
36.5488624456
36.7796825332
37.1443344302
37.907551519
39.1252602081
40.8651515279
31.8223245038
3.69431834124e-10
8.07676914335e-17
2.64882860972e-20
1.07107689198e-21
1.46038109925e-23
4.00476186359e-26
0
0
0
0
0
0
0
0
0
0
0
0
0
1.62882206909e-29
1.61858895616e-28
3.54829768968e-27
1.72052048376e-25
9.55444504225e-22
7.95277234168e-13
1.53302523707e-17
15.3405374199
15.544593538
21.592683975
17.471436247
16.0732788922
15.8601902746
16.5737698116
16.7979357903
19.8058443451
21.0975160543
19.5642772939
18.5929634473
17.3279941748
17.3675665535
18.1337040695
17.1030595715
16.6356251412
16.5003345996
16.4858357852
16.7781475649
17.2458086642
17.983581298
19.5512801701
23.1555332951
26.1023876225
26.6061869471
23.8308342298
24.2449738636
24.356619567
24.6982444165
25.4834966819
26.4239838476
27.1782470048
27.7867503156
28.3340131056
28.9239726113
29.461156269
30.1325193398
30.8777068071
31.6825858556
32.6051399847
33.5470962034
34.3909484443
34.9984850166
35.5963425469
36.8123841916
38.3857326236
38.9511759626
38.2848080157
38.447517546
39.2726377147
40.5125068976
30.6035565935
4.27408177485e-11
6.44160111742e-16
2.88980354145e-27
2.92018227817e-24
4.7649327263e-26
0
0
0
0
0
0
0
0
0
0
0
0
0
0
0
0
0
0
2.51647903075e-28
1.70411803503e-27
3.14253494341e-25
96.2727657857
15.7941904784
15.9641715251
21.4456332616
16.9518005676
16.3038943647
16.3487485827
17.489889358
16.8329298248
20.6122384862
21.8438357746
20.1835747262
19.2069046446
17.9871855432
19.5615816386
19.1455052696
17.8638396621
17.4488222752
17.5691121205
17.2581117323
17.3904902971
17.6830388623
18.2864661617
19.6780832195
22.9991926988
25.9722155556
27.7002622915
26.4506224483
25.5485126802
25.2641681192
24.9445488966
25.7761479418
27.0399440819
27.6330916588
28.3226508536
29.111127457
29.5358023548
30.0731492463
30.7500889447
31.5137042909
32.3272635522
33.2154719004
34.217024322
35.198492606
36.1691516782
37.2818381109
38.8353144268
40.1145239794
40.1819349783
40.1189022154
40.6979562823
41.8828503559
34.3262537493
1.94368562008e-10
1.77419683042e-15
2.33186676119e-19
3.16712201501e-21
0
0
0
0
0
0
0
0
0
0
0
0
0
0
0
0
0
0
0
0
0
0
7.74316540996e-28
5.63589098945e-17
16.3117293239
16.4581118972
21.1028441294
16.6605384105
16.6164672087
16.7484334786
18.2796544427
17.3192929926
21.3193484774
22.576923503
20.7986062179
19.8210062192
18.5403734016
20.3306690219
20.083610408
18.6937000377
18.250230518
18.4733521101
18.1805122663
18.2226294806
18.3189196103
18.6429680044
19.9653277744
22.975911206
25.6941610423
28.019774495
27.6443199172
26.1047996129
24.7715575243
25.4424504856
26.2803594092
27.5077991406
28.4643926565
29.2804210754
29.9487610056
30.2567957667
30.7695714792
31.4592497746
32.239689903
33.0885051372
33.9902857899
35.0736001231
36.3687622817
37.9155010587
39.0066482644
39.5464825761
40.3375548829
40.9015097145
42.2565883646
44.1130606403
40.2771956656
1.77107558117e-09
2.35165025756e-15
4.05530030051e-19
8.31762975377e-22
2.01385816186e-23
6.75983826713e-26
0
0
0
0
0
0
0
0
0
0
0
0
0
0
0
0
0
0
0
0
0
1.30126498964e-28
1.72169243613e-28
17.0704980691
17.2167176005
20.8050966655
16.9697888097
17.1884807793
17.2457689721
18.3182432115
18.0561112526
21.8375898995
23.2758492422
21.4472585257
20.4834933955
19.2096536402
21.029997076
20.9282636838
19.6090095923
19.1082063306
19.3540402056
19.0819308518
19.1997521209
19.2245690862
19.1585989509
20.4460985265
23.1482600243
25.5639714603
28.1051764373
28.1998506343
26.8662550218
25.2866482878
25.6763266166
26.8862457499
27.6879172405
28.5242262644
29.541491935
30.8734843778
31.2949719404
31.7224080653
32.2774646235
33.0207127827
33.9450964998
34.9587798176
36.1771049572
38.1211772934
39.8659833214
40.2485698133
40.6465935636
41.9247575482
44.7959974132
48.189808603
44.2063794195
5.06001809344e-10
8.40557847253e-17
3.47842493334e-21
1.14046137814e-24
7.15578353449e-27
1.45041933178e-26
2.22730286701e-27
0
0
0
0
0
0
0
0
0
0
0
0
0
0
0
0
0
0
0
0
0
9.61803143577e-30
4.36726546016e-29
18.2100054965
18.3177266765
21.1251858974
17.925026319
18.3556722486
18.1138182657
18.657563075
19.3736091313
21.917329274
23.808597289
22.1583995358
21.2162002472
19.9847086603
21.8246778994
21.8001324038
20.6835414078
20.1469444909
20.3781852904
19.9920145357
20.2734615306
20.4383595595
19.898052922
21.0030786595
23.5187752835
25.6298811662
27.9724663556
28.4534815243
27.5381038755
27.2598733656
26.5433211073
27.2930681589
28.4801525232
29.8834113614
30.1451049262
31.1518504062
32.3297269787
32.7903888227
33.4099722945
34.052813986
34.8898349102
36.0432833282
38.0166788221
40.619600732
41.607340459
41.6029757827
42.8983972754
47.306757607
54.2197231464
50.1212613271
1.82009714591e-11
1.27349051178e-18
1.18897703631e-23
8.13537283091e-26
0
0
0
0
0
0
0
0
0
0
0
0
0
0
0
0
0
0
0
0
0
0
0
0
0
0
0
19.7964975315
19.6785271666
21.9696165408
19.8148211428
20.3092026929
19.3903718253
19.6178850057
21.2718758165
22.1663814532
24.4466130324
22.9841751434
22.0291771001
20.8409058998
22.657090739
22.6679756914
21.8657217942
21.6548993699
21.7114131935
20.9957725298
21.4413772533
21.9479608602
20.9468923058
21.4503282439
23.9800538106
25.8995524762
27.8619065343
28.6342727682
27.7203475366
28.4524242299
28.1305108038
28.3565458477
28.2458657644
29.655682933
31.3648318112
32.1190896076
33.0803452151
33.8583762952
34.5094843357
35.2920363959
36.150851714
37.7412360223
40.8172520144
43.0675915418
43.5506409198
44.3170618756
48.0355135052
56.0920377643
53.2990858915
22.2970859536
1.13648499547e-20
1.98681564585e-23
9.09737551686e-26
0
0
0
0
0
0
0
0
0
0
0
0
0
0
0
0
0
0
0
0
0
0
0
0
0
0
0
0
21.473625867
20.9602168103
22.8804032355
22.3074895669
22.0308654737
20.8656830222
20.6756777023
22.4224830407
21.4752766168
24.9510496596
23.9067386081
22.9145351438
21.7684932104
23.5014455088
23.4757481929
22.8580069268
23.7216353585
23.3138297631
22.1217200487
22.7257437028
23.3009489546
22.2874225251
21.6522019163
24.0003764173
26.0978887373
27.7907147208
28.7134571993
27.8232525716
28.8636354788
29.4266076461
29.7370190501
29.0412307243
29.904450436
31.3293834817
33.0524493534
34.309572619
35.1551806421
35.7760939313
36.5383482726
37.8129137799
40.6659499032
43.9796922222
45.7220632792
46.672887293
49.1250485315
54.5459920591
51.1015644337
28.4236787653
3.06008429752e-20
4.43011764009e-23
1.55151266198e-25
0
0
0
0
0
0
0
0
0
0
0
0
0
0
0
0
0
0
0
0
0
0
0
0
0
0
0
0
0
22.3210810465
21.8631992993
23.4707166868
23.3785101855
23.1179362219
22.2597220087
21.8848942825
23.8114949165
22.5406219464
25.5891664979
24.8404801542
23.8428638953
22.762595157
24.3743317051
24.2922072208
23.6916415548
24.7134879908
24.4451343392
23.2157131096
23.9872888001
24.0716859855
23.1350022949
22.6830316223
22.9172065243
25.6176786441
27.3154720718
28.5187813302
27.810220682
28.9553605623
29.9963333906
30.8775962859
30.8525669097
30.3055558097
31.4184837032
33.3139974362
35.2017341721
36.566409422
37.4452971977
38.2074472301
40.5910752316
44.3026029461
47.2450540081
48.7684828856
50.5962996938
54.4997275993
49.9246409211
23.4226227454
1.61659803264e-19
1.45623198152e-22
4.14742407387e-25
0
0
0
0
0
0
0
0
0
0
0
0
0
0
0
0
0
0
0
0
0
0
0
0
0
0
0
0
0
0
22.4453024365
22.432900523
23.8369683448
23.6277981607
23.8148568681
23.3444681332
22.9403384232
25.1783425225
24.2314769654
26.4034453692
25.831651647
24.8006982423
23.8186076527
25.291048784
25.1760409484
24.6512020599
25.5449312845
25.4340549666
24.3560258173
25.0350147338
23.9740604602
23.9196974206
23.7421978524
24.0076873261
24.8329969687
25.8753018776
27.7015159092
27.6104235118
28.5625845058
30.05329012
31.36183451
32.2257650927
31.8481152983
32.235101189
33.5519976782
35.4175983099
37.4900918156
39.1857440412
40.7037059268
44.1815396881
47.9217734327
50.3406927559
51.5158465772
53.2341281991
48.4297140493
29.9843220557
26.3308883575
5.05830291889e-22
1.13310717211e-24
0
0
0
0
0
0
0
0
0
0
0
0
0
0
0
0
0
0
0
0
0
0
0
0
0
0
0
0
0
0
0
22.7202890141
22.8398472296
24.1531107273
22.8210292386
24.1286717009
23.9550392563
23.657144849
25.8232542919
25.1121613918
27.2304674934
26.8555704235
25.7577149712
24.9424143636
26.2388070595
26.101181467
25.7428019434
26.4708238735
26.5327406383
25.6206306079
26.4597047107
25.3392548221
25.5494909952
25.0198539285
25.3251204444
26.6205866387
27.2552150296
27.3567912271
27.3419823914
28.1293500333
30.0042346063
31.3751288576
32.5018711818
33.1765809196
33.3531611984
34.8733887323
36.1734967433
38.2487055333
40.8047933771
43.8047194872
47.9681465308
51.2992573993
52.8923522459
52.1713838842
48.2940305857
42.7238940961
27.9953079999
4.24455456978e-21
9.66293617596e-24
0
0
0
0
0
0
0
0
0
0
0
0
0
0
0
0
0
0
0
0
0
0
0
0
0
0
0
0
0
0
0
0
23.4366907993
23.5201789996
24.4915662244
23.2494734028
24.406286911
24.3052896595
24.1656193894
26.0655582108
25.7294734466
27.8504093184
27.8510732642
26.6541821507
26.1191676331
27.171064957
26.9858067214
26.7994518823
27.365391792
27.7135717546
26.9313625394
27.902567849
27.1213868618
27.597286838
27.4084338586
26.3630119639
27.4248059503
28.3760210253
28.5443186438
27.1872472854
27.6341625121
29.909755856
31.5214568188
32.2076464345
33.0372709874
33.7112834099
35.2721455224
36.8471403436
39.1219529969
42.4493345454
47.0895659622
51.8204899572
54.4337229027
54.5066213787
51.6103594552
45.8464989371
28.8195661367
22.2078135352
6.73351380433e-23
2.73045481808e-25
0
0
0
0
0
0
0
0
0
0
0
0
0
0
0
0
0
0
0
0
0
0
0
0
0
0
0
0
0
0
0
0
24.3365491719
25.3222445475
24.9788184359
24.2137887702
24.9543317608
24.7089216524
24.6505384554
26.2723376422
26.2865889731
28.1300432633
28.8060938669
27.450095967
27.1598628904
27.9397049714
27.8137709519
27.6068129788
27.7318452597
28.7851416099
28.2960202855
29.165797743
29.0499254787
28.9610367144
28.8489598672
28.4977761178
27.8529426136
28.5906990913
29.4965397243
26.7760688242
27.1538467584
29.2634461775
31.5690367554
32.7353983829
33.7054459651
33.7443122339
35.1575659334
37.1041213816
39.6568777177
43.9747599972
50.3493735755
55.4862457287
56.9834513658
52.8333562577
50.2771145971
47.6498819986
32.8825411994
4.56403673749e-22
1.16485195262e-24
0
0
0
0
0
0
0
0
0
0
0
0
0
0
0
0
0
0
0
0
0
0
0
0
0
0
0
0
0
0
0
0
0
25.0154576024
26.0393992931
25.6833183971
25.0804945987
25.6473247912
25.2745440199
25.1943832807
26.5493818278
26.8194754682
28.1481687953
29.6485205377
28.2000746723
27.7996080834
28.5700361578
28.6893268099
28.3309973334
28.026626079
29.5552277902
29.6767129154
30.2679690683
30.3964999868
30.589170843
29.5244841445
29.5384179849
29.1065942227
30.1872937021
30.8303294643
28.4386502345
26.7444480742
28.2941742697
30.8801037504
32.883142471
33.9729449863
34.2919366659
34.8313748899
36.8681906749
39.6077743838
45.1374772464
53.4353891932
59.1641069244
58.0037017258
52.4450689118