/*--------------------------------*- C++ -*----------------------------------*\
| =========                 |                                                 |
| \\      /  F ield         | OpenFOAM: The Open Source CFD Toolbox           |
|  \\    /   O peration     | Version:  v1806                                 |
|   \\  /    A nd           | Web:      www.OpenFOAM.com                      |
|    \\/     M anipulation  |                                                 |
\*---------------------------------------------------------------------------*/
FoamFile
{
    version     2.0;
    format      ascii;
    class       volScalarField;
    location    "732";
    object      pa;
}
// * * * * * * * * * * * * * * * * * * * * * * * * * * * * * * * * * * * * * //

dimensions      [0 2 -2 0 0 0 0];


internalField   nonuniform List<scalar> 
6400
(
-0.122825404752
-0.122826080485
-0.12282799573
-0.122831775566
-0.12283746884
-0.122845134851
-0.12285485322
-0.122867025893
-0.122882112345
-0.122900717038
-0.122924570101
-0.12295481658
-0.122991189332
-0.123034093492
-0.123084574526
-0.123143987229
-0.123213537529
-0.123293883917
-0.123385049364
-0.123485962729
-0.123595430511
-0.123714642526
-0.123846966912
-0.123996107012
-0.124164857322
-0.124354134116
-0.124563496237
-0.124792787848
-0.125042798836
-0.125314833977
-0.125610151025
-0.125928837715
-0.126268803674
-0.126627725732
-0.127004879534
-0.12739939735
-0.12781209359
-0.128246938258
-0.128703513804
-0.12917663064
-0.12966712312
-0.130183398406
-0.13073007656
-0.131302054321
-0.131891672214
-0.132493208718
-0.133102071655
-0.133714460399
-0.134326702309
-0.134935416156
-0.135537590154
-0.136128004747
-0.136697840972
-0.137236006064
-0.137739121615
-0.138209557537
-0.138641493175
-0.139022998894
-0.139348285514
-0.139621833005
-0.139847587261
-0.140026213703
-0.14015640484
-0.140260257478
-0.14037527912
-0.140539447047
-0.140749872973
-0.140960870073
-0.14113735872
-0.141276775016
-0.141388528225
-0.141483148823
-0.141567356353
-0.141639330438
-0.141701186018
-0.141753186567
-0.14179493365
-0.141821613337
-0.14183832455
-0.141845334349
-0.122824459331
-0.122825176379
-0.122826899575
-0.122830559256
-0.122836532096
-0.122844457401
-0.122854170318
-0.12286581531
-0.12288030396
-0.122898701779
-0.12292226603
-0.122952008382
-0.122988146273
-0.123030933717
-0.123081037565
-0.123139610414
-0.12320851891
-0.123288607189
-0.123379662788
-0.123480259404
-0.123588610722
-0.123706679416
-0.123838377514
-0.123987024957
-0.12415537558
-0.124344352106
-0.124553229585
-0.124782127629
-0.125031883258
-0.125303575056
-0.125598255194
-0.1259164985
-0.126256317168
-0.126614675304
-0.126991390964
-0.127385655125
-0.127797941662
-0.128232821951
-0.128689933429
-0.129163491208
-0.129653468929
-0.130169832477
-0.130718423326
-0.131291966533
-0.131882440108
-0.132485019
-0.133095066176
-0.133708942096
-0.134322655591
-0.134931807743
-0.135533258914
-0.136124548059
-0.136698539476
-0.137239067545
-0.137744035473
-0.138217323965
-0.138648258442
-0.139027391821
-0.139353030581
-0.139626529289
-0.139849958372
-0.140028911086
-0.140162328503
-0.14027051933
-0.140389462857
-0.140554724678
-0.140768033026
-0.140978599388
-0.141153427478
-0.141291981706
-0.141403085295
-0.141497548698
-0.141582153788
-0.141654743973
-0.1417151858
-0.141764733193
-0.141802801853
-0.141828122961
-0.141844087209
-0.141849355033
-0.122821754553
-0.122822907173
-0.122824414814
-0.122827702759
-0.122833366451
-0.122842008219
-0.122852213505
-0.122863191054
-0.122876692265
-0.122894338741
-0.122917256166
-0.122946302168
-0.122981826937
-0.123024024917
-0.123073268758
-0.123129888337
-0.123196874897
-0.123277102572
-0.123367979187
-0.123467278214
-0.123573579893
-0.123689014845
-0.123819303905
-0.123967652711
-0.124135109739
-0.12432270715
-0.1245306805
-0.124758900608
-0.125007877733
-0.125278662249
-0.125572253554
-0.125889538738
-0.12622902629
-0.126585904276
-0.126960740565
-0.127355022489
-0.12776673411
-0.128200504245
-0.128657890165
-0.129133131349
-0.129626640253
-0.130145587743
-0.130693928865
-0.131267238094
-0.131858635125
-0.132462751311
-0.133075059178
-0.13369152586
-0.134308111471
-0.134920785897
-0.13552595131
-0.136119119776
-0.136692273856
-0.137236357891
-0.137748572443
-0.138224427751
-0.138654461095
-0.139033071537
-0.13935879431
-0.139632506225
-0.139857166672
-0.140035859144
-0.140173251073
-0.140291576629
-0.140424448174
-0.140598460352
-0.140804753182
-0.141008420501
-0.141183688591
-0.141323897732
-0.141436460471
-0.141531091829
-0.141612042996
-0.141679807899
-0.141737253832
-0.141783725448
-0.141817768972
-0.141840520133
-0.141854540137
-0.141859479766
-0.122817901859
-0.122819036501
-0.122820245075
-0.122823169857
-0.12282797081
-0.122836220465
-0.122848472191
-0.122859191313
-0.122871363296
-0.122887813439
-0.122909724041
-0.122937868372
-0.122972541836
-0.123013530331
-0.123061187505
-0.123117196879
-0.123183503637
-0.123261344457
-0.123348502081
-0.123443143498
-0.123546841281
-0.123662045101
-0.123791573151
-0.123938389946
-0.124104363306
-0.124290492791
-0.124497096638
-0.124724082736
-0.124971830249
-0.125241205057
-0.125533479708
-0.12584936681
-0.126187453282
-0.12654389904
-0.126915837736
-0.127307164124
-0.127719763777
-0.128153107057
-0.128608951856
-0.129086092092
-0.129584161854
-0.130106849577
-0.130656702044
-0.131230937355
-0.131824012078
-0.132430629257
-0.133046126641
-0.133666270897
-0.134286946499
-0.134904069899
-0.135513494316
-0.136110074628
-0.136686750628
-0.137236308729
-0.137753540224
-0.138231768891
-0.138662877082
-0.139042059932
-0.139368170543
-0.13964242593
-0.139868097961
-0.140050410712
-0.140200252564
-0.140337457656
-0.140482351725
-0.140653445037
-0.140857375572
-0.141060522366
-0.141236511687
-0.141377510641
-0.141487910565
-0.141576128082
-0.141649932366
-0.14171578825
-0.141772345316
-0.141814279167
-0.141842365151
-0.141862986139
-0.141877044264
-0.141882765098
-0.122811882639
-0.122812038411
-0.122813448709
-0.122816265926
-0.122821275781
-0.122828259512
-0.122838935604
-0.122850407637
-0.122862809604
-0.122878649027
-0.122899397743
-0.122926458878
-0.122959984012
-0.12300037667
-0.123047765984
-0.1231018563
-0.123164516789
-0.123237013633
-0.123319251198
-0.123411061235
-0.123513041105
-0.123626623259
-0.123754502395
-0.123899497056
-0.124063432014
-0.124247507802
-0.124452076827
-0.124677264492
-0.124923337308
-0.125190984525
-0.125481230254
-0.125795702377
-0.126133100628
-0.126485955997
-0.126855130964
-0.127244000563
-0.127654208478
-0.128087709387
-0.12854474254
-0.129024403449
-0.129526590551
-0.130053254629
-0.130605763928
-0.13118213053
-0.13177786628
-0.132387962332
-0.133007679529
-0.133632622588
-0.134258577068
-0.134881325668
-0.135496357201
-0.136098276383
-0.136680545309
-0.137236351225
-0.137758999634
-0.138240706588
-0.13867403013
-0.139054830912
-0.139382427061
-0.139658827484
-0.139888825539
-0.140080720577
-0.140248321965
-0.140404741538
-0.140558722581
-0.140731805779
-0.140933154881
-0.141134642221
-0.141310542892
-0.141449818591
-0.141553777404
-0.141634140064
-0.141706323341
-0.141773225985
-0.141825297008
-0.14186061547
-0.141885030074
-0.141906385824
-0.141918727394
-0.141922506632
-0.122801135863
-0.122800959536
-0.122803191113
-0.122805852994
-0.122810858396
-0.122817480729
-0.12282718722
-0.122838228125
-0.12285089277
-0.122866324997
-0.122885589861
-0.122911222586
-0.122944446983
-0.12298437755
-0.123029341592
-0.123080053736
-0.123138388876
-0.12320628709
-0.123284401754
-0.123372741213
-0.123471535819
-0.123582509365
-0.123708131045
-0.123850837091
-0.124012284653
-0.12419346294
-0.124395390988
-0.12461817021
-0.124862106629
-0.125127656703
-0.125415762294
-0.125727541964
-0.126061358703
-0.126413226707
-0.126778309258
-0.127162959986
-0.127571864009
-0.128005967615
-0.128464704342
-0.128947248352
-0.129453497887
-0.129984444618
-0.13054062973
-0.131120373711
-0.131719903174
-0.132334549072
-0.132959576673
-0.133590478625
-0.134222938109
-0.134852606055
-0.135474752085
-0.136083865493
-0.136673521629
-0.137236642798
-0.137765525435
-0.13825196446
-0.13868911808
-0.139073532064
-0.139405238232
-0.139687433175
-0.139926634464
-0.140133114429
-0.140321214033
-0.140492692318
-0.140656457335
-0.140837778443
-0.141042302993
-0.141240809432
-0.141411813227
-0.141543212153
-0.141638072928
-0.141715925354
-0.141790980021
-0.141853913713
-0.141898204535
-0.141927102648
-0.141950107765
-0.141968221273
-0.141976564274
-0.141979666282
-0.122785076069
-0.122785991849
-0.12278950707
-0.12279321279
-0.122796639378
-0.122802917353
-0.122812527877
-0.122823130952
-0.122835536013
-0.122850364179
-0.122869232537
-0.12289304455
-0.122924949559
-0.122962228818
-0.12300389036
-0.123050784851
-0.123105317672
-0.123169495183
-0.123243660533
-0.123327393393
-0.123422160557
-0.123529993604
-0.123652598717
-0.123792132147
-0.123950383375
-0.124128700792
-0.124326523345
-0.12454613363
-0.124787607049
-0.125051365127
-0.125336351474
-0.1256439771
-0.12597413473
-0.126320509721
-0.126682699529
-0.127065018352
-0.127473053681
-0.127907809466
-0.128368403028
-0.128853971048
-0.129364347249
-0.129899947731
-0.130460730697
-0.131045070544
-0.131649621621
-0.132270005468
-0.132901542496
-0.133539665322
-0.1341799761
-0.134818018608
-0.13544891404
-0.13606701608
-0.136665727103
-0.137237504569
-0.13777404773
-0.13826718658
-0.138710795614
-0.139102232821
-0.13944238476
-0.139735344476
-0.139988746249
-0.140213603885
-0.140419165337
-0.140606631498
-0.140789196371
-0.140981801744
-0.141188735725
-0.141380168063
-0.141539520702
-0.141660058205
-0.141750973608
-0.141832363048
-0.141905566972
-0.141959235376
-0.141994411965
-0.142017321947
-0.142036712734
-0.142047078433
-0.142048553976
-0.142049593631
-0.122766516429
-0.122768433581
-0.122772181585
-0.12277710466
-0.122780070497
-0.122786422431
-0.122794903793
-0.122804986189
-0.122817082378
-0.122829840107
-0.122848452714
-0.12287164948
-0.1229005931
-0.122934338049
-0.122972331536
-0.123015129224
-0.123066193046
-0.123126698336
-0.123196025856
-0.123274758731
-0.123364981881
-0.123468799858
-0.123587614951
-0.123723702456
-0.12387834656
-0.124052318623
-0.124246735033
-0.124460291599
-0.124699358168
-0.12496136116
-0.12524273909
-0.125543288728
-0.125867996463
-0.126209758396
-0.126568190625
-0.126949620183
-0.127357457539
-0.127792776021
-0.128255141705
-0.128743802024
-0.129258464548
-0.129799155673
-0.13036541951
-0.130955553785
-0.131566424434
-0.132193860417
-0.132833256238
-0.133480024477
-0.134129705674
-0.134777749796
-0.135419145214
-0.136048063588
-0.136657613763
-0.137239848473
-0.137786278973
-0.138289182814
-0.138743259851
-0.139146502687
-0.139499996661
-0.139807821794
-0.140077602577
-0.140319950746
-0.140543923854
-0.140756037216
-0.140959192987
-0.141166340489
-0.14137117259
-0.141553627219
-0.14170116511
-0.141814251269
-0.141905618815
-0.141987146844
-0.142050258116
-0.142091952737
-0.142116681668
-0.142131980178
-0.142139782762
-0.142138342327
-0.142129635115
-0.14212488518
-0.122746546517
-0.122748918274
-0.122752271478
-0.122755468579
-0.122759166321
-0.122766541046
-0.122773990166
-0.122783140587
-0.122795212151
-0.122807148327
-0.122822206416
-0.122844330894
-0.122870971119
-0.122900728635
-0.122935027044
-0.122974770092
-0.123021380009
-0.123076967558
-0.123141160404
-0.123214917923
-0.123300173097
-0.123398932382
-0.12351254116
-0.123643842098
-0.123795677997
-0.123963861299
-0.124153686182
-0.124364356769
-0.124597033196
-0.124853938617
-0.125131658606
-0.125429450535
-0.125743877527
-0.126079113166
-0.126435649806
-0.126816477208
-0.127224181252
-0.127660015036
-0.128124062326
-0.128615850427
-0.129135019367
-0.129681297921
-0.130253916608
-0.130851044761
-0.131469611418
-0.132105562747
-0.132754363923
-0.133411426248
-0.134072227036
-0.134732110713
-0.13538592824
-0.136027657669
-0.136650156046
-0.137245317345
-0.137804921031
-0.1383219926
-0.138791804169
-0.13921194939
-0.139582626806
-0.139907636069
-0.140194495657
-0.14045502204
-0.140700850977
-0.140937866742
-0.141165483998
-0.141390623729
-0.141603145972
-0.141772861938
-0.14190943845
-0.142017896839
-0.14210829405
-0.142180432928
-0.142227180469
-0.142255047682
-0.142267381946
-0.142268466818
-0.142256759798
-0.142237064474
-0.14221502305
-0.142201743276
-0.122725089565
-0.12272760145
-0.122731076461
-0.122733134463
-0.122736750096
-0.122743167046
-0.122749617463
-0.122757273385
-0.122767232239
-0.122780370818
-0.122792939357
-0.122811973928
-0.122835740084
-0.122861975696
-0.122891895137
-0.122928323306
-0.122971000542
-0.123020881705
-0.123079057843
-0.123147329662
-0.123227470564
-0.123320938797
-0.123428692291
-0.123552737403
-0.123700045063
-0.12386508852
-0.124045231491
-0.124251659567
-0.124478537484
-0.124730981664
-0.125003410004
-0.125294513727
-0.125603076948
-0.12593147304
-0.126284866159
-0.126664725111
-0.127072214055
-0.127508515026
-0.127974161708
-0.128469079725
-0.12899298526
-0.129545397499
-0.130125271925
-0.130730620874
-0.131358358077
-0.132004478259
-0.132664488294
-0.133333787837
-0.134007762728
-0.134681615686
-0.135350047531
-0.136006900113
-0.136644965991
-0.137256387089
-0.137833677755
-0.13837071453
-0.138862153273
-0.139302962101
-0.139692679975
-0.140038101572
-0.140345606526
-0.14062645236
-0.140895017237
-0.141155396587
-0.141407791007
-0.141649721162
-0.141867981418
-0.142050759867
-0.142178618508
-0.142281526179
-0.142363007242
-0.142414876595
-0.142438371206
-0.142452059671
-0.142449756089
-0.142428535062
-0.14238952897
-0.142343209723
-0.142302591699
-0.142278330172
-0.122701398341
-0.122703521138
-0.122706713102
-0.122708707157
-0.122713075234
-0.122717130481
-0.122722066227
-0.122728177428
-0.122734169028
-0.122746205991
-0.122757844363
-0.122773884416
-0.122794398558
-0.122817794215
-0.122843864964
-0.122875376993
-0.122913369427
-0.122957690333
-0.123009617602
-0.123071405551
-0.123145528075
-0.123233718459
-0.123336995245
-0.1234531199
-0.123590071746
-0.123752129647
-0.12392682205
-0.12412447989
-0.124344683744
-0.12458575459
-0.124853978458
-0.125139608312
-0.125442045907
-0.12576539671
-0.126115441961
-0.126493584072
-0.126900468619
-0.127337112841
-0.127804287978
-0.128302309196
-0.128831145106
-0.129390246092
-0.129978313766
-0.130593171125
-0.131231678727
-0.131889852461
-0.132563212039
-0.133247091059
-0.133936711678
-0.134627069531
-0.13531271439
-0.135987466608
-0.136644375804
-0.137276363799
-0.137877148753
-0.138441226316
-0.138959810402
-0.139421795183
-0.139831796124
-0.140208949147
-0.140547673344
-0.140848166845
-0.141136167785
-0.14141585521
-0.141686628261
-0.14194155032
-0.142170991468
-0.142375494534
-0.142514952971
-0.142620284073
-0.14268203315
-0.142699347398
-0.142682893819
-0.142686658936
-0.142669601639
-0.142620116422
-0.142543272713
-0.142456904017
-0.142386694466
-0.142345378184
-0.122675062726
-0.122676300183
-0.122677719321
-0.122680415494
-0.122685254177
-0.122687672098
-0.122691126025
-0.122695981537
-0.122699043751
-0.122707019035
-0.122716904417
-0.122729943538
-0.122746690493
-0.122767065447
-0.122790722194
-0.122816964677
-0.122848991899
-0.122887206882
-0.122932686891
-0.122987290494
-0.123053604356
-0.123134467113
-0.123234033896
-0.123346279906
-0.123471059624
-0.123623337803
-0.123793491517
-0.123979710054
-0.124194841322
-0.12442912203
-0.124685204382
-0.124962075981
-0.125258823567
-0.125579101028
-0.125926059528
-0.126301875261
-0.126707654636
-0.127144430586
-0.12761309258
-0.128114202028
-0.12864808693
-0.129214378764
-0.129811604513
-0.130437335721
-0.131088364999
-0.131760758845
-0.132450035512
-0.133151371092
-0.133859685136
-0.134569665795
-0.135275691857
-0.135971735063
-0.136651510449
-0.137309304327
-0.137940300904
-0.138539695281
-0.139090855402
-0.139570465361
-0.140001348
-0.140441603854
-0.140831451613
-0.141138975886
-0.141436842745
-0.141730206192
-0.142018349272
-0.142288549905
-0.142529702654
-0.142734968886
-0.142915166802
-0.143034062057
-0.143078164775
-0.143038510892
-0.142945068301
-0.142968999555
-0.142945077169
-0.142859904047
-0.142726168726
-0.142571008123
-0.142451830156
-0.142379755724
-0.122646299766
-0.122646692649
-0.122645964238
-0.122648509744
-0.122651746443
-0.122653657265
-0.122655940587
-0.122659068925
-0.122660612732
-0.122664868619
-0.122671218087
-0.122680487236
-0.122692898175
-0.122708684668
-0.122729129243
-0.122751033437
-0.122777348021
-0.122809161708
-0.122847861976
-0.122895026255
-0.122952614529
-0.123023608152
-0.123115046718
-0.123225359744
-0.123342511529
-0.123480145637
-0.123644037541
-0.12382096334
-0.124021887648
-0.124248843007
-0.124496791468
-0.1247656855
-0.125055341879
-0.125371187732
-0.125714834446
-0.12608802969
-0.126492251305
-0.126928780826
-0.12739884173
-0.127903166982
-0.128442259418
-0.129016115713
-0.129623378588
-0.13026141017
-0.130926891743
-0.131616001584
-0.132324295144
-0.13304666733
-0.133777521123
-0.134511047499
-0.135241420148
-0.1359629814
-0.136670418723
-0.137359595839
-0.138026418594
-0.138671958655
-0.139270146946
-0.139756650334
-0.140193744698
-0.140788216559
-0.141357989526
-0.141593954569
-0.141881788215
-0.142192562401
-0.142511663457
-0.142805108263
-0.14305861928
-0.143221018319
-0.143407493909
-0.143685088326
-0.143776089729
-0.143623171962
-0.143162853576
-0.143277759607
-0.1432775462
-0.143155442091
-0.142936995824
-0.142664260286
-0.142474437905
-0.142345021261
-0.122615805155
-0.122615939942
-0.122615340149
-0.122615087645
-0.122615496148
-0.122616266644
-0.122617121639
-0.122617602783
-0.122618254435
-0.122618836322
-0.122621021696
-0.122625960452
-0.122633640071
-0.12264411729
-0.1226583835
-0.122675823682
-0.122697190251
-0.122722844688
-0.122754473715
-0.122793852187
-0.122842633394
-0.12290302592
-0.122982614669
-0.123086663092
-0.123200481307
-0.123323888616
-0.123476547123
-0.12364718592
-0.123832977363
-0.124046631599
-0.124284225017
-0.124544685928
-0.124829368636
-0.125140533939
-0.125480148618
-0.125850185649
-0.12625250033
-0.126688464587
-0.127159550062
-0.127667068815
-0.128211695427
-0.128793564136
-0.12941161513
-0.130063284511
-0.130745262361
-0.131453947893
-0.132185011171
-0.132932920989
-0.133691212502
-0.134453316971
-0.135213139253
-0.135965705139
-0.136706437269
-0.137431344702
-0.138130820454
-0.138845788561
-0.13955654995
-0.140024156812
-0.140292497535
-0.141294356083
-0.141276374579
-0.141242642805
-0.141310795708
-0.141411958046
-0.141540389599
-0.141676830541
-0.141827489989
-0.142014671664
-0.142217132657
-0.14234585223
-0.142308171287
-0.142208679725
-0.142722533364
-0.143914014291
-0.144064313652
-0.143810890001
-0.1433797481
-0.142716914691
-0.142417662279
-0.142169778395
-0.122583386222
-0.122583388986
-0.122583256771
-0.122579914143
-0.122577677592
-0.122576605919
-0.122575563199
-0.122573624265
-0.122573127329
-0.122569094339
-0.122566600314
-0.122566839368
-0.122569555096
-0.12257478731
-0.122582319987
-0.122593580114
-0.122608994643
-0.122628077701
-0.122652189068
-0.122683164948
-0.122722830443
-0.122772910599
-0.122838832283
-0.122931328665
-0.123041342573
-0.123153870677
-0.123289465094
-0.12345345552
-0.123631479867
-0.123827493
-0.124051464717
-0.124301971586
-0.124579554322
-0.124885116283
-0.125220054809
-0.125586378049
-0.12598616694
-0.126421270314
-0.12689321684
-0.127403649073
-0.127953895936
-0.128544299172
-0.12917392486
-0.129840432673
-0.130540881624
-0.13127228187
-0.132030617027
-0.132809732441
-0.133601766446
-0.134398921639
-0.135194874173
-0.135986330742
-0.136768134552
-0.137530050535
-0.1382228648
-0.139043935271
-0.140110608775
-0.140043320642
-0.140015905021
-0.140261587729
-0.140598096967
-0.140631573191
-0.140521678471
-0.140322471843
-0.140077856261
-0.139801826531
-0.139540494373
-0.139370061484
-0.139331551343
-0.139377110884
-0.1394306768
-0.139517216793
-0.1398598451
-0.140697722487
-0.141491169292
-0.141928503349
-0.14202661406
-0.142343692976
-0.142395379281
-0.141784158157
-0.12254894514
-0.122548400842
-0.122546831538
-0.122542219398
-0.122537917722
-0.122534871225
-0.122531305032
-0.122526309089
-0.122523294316
-0.12251505218
-0.122507983868
-0.122503379752
-0.122501046535
-0.122500999658
-0.122501660679
-0.122505544618
-0.122513733047
-0.122525313085
-0.122541134539
-0.122562943377
-0.122592605468
-0.122632029566
-0.122684869271
-0.122762195022
-0.122862897895
-0.122970018486
-0.123086302145
-0.12323218617
-0.123402683799
-0.123588769975
-0.123798459636
-0.124036856569
-0.124305176882
-0.124603568034
-0.12493280383
-0.125294508997
-0.125691092182
-0.126124675338
-0.126597204432
-0.127110416482
-0.127666146383
-0.128265370559
-0.128907367206
-0.129589820445
-0.130310377833
-0.131067547076
-0.131858463437
-0.132676063783
-0.1335098339
-0.134350106261
-0.135190696538
-0.136033495003
-0.136870921933
-0.13767262042
-0.138147148064
-0.139223775332
-0.139472259741
-0.139593531732
-0.139634210086
-0.139651808379
-0.139756307941
-0.139616201426
-0.139239657655
-0.138674516731
-0.137992458471
-0.137248658374
-0.13651700112
-0.135881652892
-0.135410122812
-0.135107568183
-0.134899742281
-0.134777112648
-0.134997682252
-0.135908573172
-0.137282568519
-0.138719502117
-0.139842627054
-0.140364668875
-0.140450325185
-0.140347683074
-0.122513317518
-0.122512192681
-0.122509411108
-0.122503124144
-0.122497157073
-0.12249172915
-0.122485092365
-0.122476109633
-0.1224684568
-0.122456831914
-0.12244522771
-0.122435592507
-0.122428094225
-0.122422830244
-0.122415804287
-0.122411706431
-0.122411770429
-0.122414940892
-0.122421509483
-0.122433246233
-0.1224518751
-0.122479494059
-0.12251913979
-0.122579739996
-0.122665588596
-0.122767023821
-0.122869145952
-0.122993836749
-0.123146064619
-0.123321143745
-0.123518954765
-0.123746002315
-0.124003849595
-0.124293571558
-0.124616041405
-0.124972387735
-0.125364829815
-0.125796176414
-0.126268668897
-0.126784369247
-0.127345428109
-0.127953411179
-0.128608219064
-0.129307576934
-0.130049524785
-0.130835239032
-0.131664565785
-0.13252928406
-0.133414776779
-0.134308631675
-0.135202950677
-0.13611956704
-0.13707165351
-0.138096905964
-0.138141492767
-0.138300691879
-0.138712152534
-0.139008562396
-0.139085056881
-0.138929735493
-0.138624973922
-0.138071356722
-0.137315181592
-0.136392573873
-0.135368033451
-0.134299917955
-0.133251883727
-0.132278679922
-0.131419778848
-0.130695981694
-0.130114660565
-0.129667090013
-0.129531390652
-0.130005747223
-0.131234215168
-0.133104428149
-0.135117772585
-0.136574504251
-0.137899522588
-0.140457349117
-0.122477581284
-0.122475738621
-0.122470930426
-0.12246332047
-0.122456106944
-0.122448059924
-0.122438128253
-0.122425313209
-0.122412657312
-0.122395934262
-0.122378949207
-0.122363582554
-0.122350165718
-0.122338985435
-0.12232377717
-0.122311356924
-0.122302635341
-0.122296768914
-0.122293189798
-0.122293932704
-0.122300473139
-0.122315026356
-0.122340503184
-0.122383533357
-0.122450556973
-0.122539779546
-0.122635413865
-0.12274204114
-0.122873118585
-0.123029890477
-0.123212738978
-0.12342667153
-0.123672387662
-0.123951984076
-0.124266600815
-0.12461660991
-0.125004355314
-0.125432720104
-0.125904600482
-0.126422230036
-0.126988112954
-0.127604709273
-0.128272585685
-0.128989588602
-0.129752812631
-0.130566354011
-0.131438251678
-0.132362669968
-0.133315201891
-0.134275076718
-0.135217309203
-0.136208293914
-0.137305397754
-0.137503589016
-0.137701459475
-0.13790313109
-0.138238879061
-0.138346715063
-0.138138907398
-0.137627000026
-0.136858128283
-0.135826626186
-0.134614624716
-0.133266680862
-0.131837256635
-0.130375439885
-0.128934096477
-0.12755722977
-0.126277995035
-0.12513331074
-0.124182412681
-0.123450975176
-0.123045623072
-0.123202914151
-0.124182199246
-0.126098992541
-0.128496850085
-0.130407055346
-0.13329274813
-0.143921339434
-0.122442754546
-0.122440139932
-0.122433251998
-0.122424501976
-0.122415643877
-0.122404638901
-0.122391038245
-0.122374616669
-0.122356273551
-0.122333333224
-0.122309902153
-0.122287819546
-0.122267269473
-0.122247738829
-0.122224743444
-0.122203785546
-0.122185596822
-0.12216967316
-0.122155406557
-0.122144480009
-0.122138006024
-0.122138135045
-0.122148285963
-0.122172771697
-0.122218208405
-0.122288240099
-0.122373971969
-0.122466219303
-0.122577583236
-0.122715189213
-0.122879572089
-0.123076877342
-0.123308840464
-0.123576019763
-0.123881064876
-0.124223644155
-0.12460560681
-0.125030329055
-0.125501050789
-0.126020417949
-0.126590781588
-0.127215142619
-0.127895046802
-0.128629082213
-0.129414780847
-0.130258438393
-0.131173896689
-0.132160096805
-0.133199085643
-0.134260684736
-0.135209954985
-0.136228826541
-0.136470179013
-0.136788455829
-0.137318803546
-0.137600170308
-0.137663279097
-0.13734159061
-0.136648723548
-0.135632189371
-0.134341211175
-0.132804548279
-0.131098796164
-0.129268428638
-0.12735861295
-0.125407930063
-0.123456540778
-0.121536395164
-0.119668344891
-0.117878424238
-0.116234900535
-0.114845735246
-0.113753783684
-0.113121117499
-0.113218018
-0.114336890319
-0.116247143433
-0.11745729944
-0.117454408604
-0.121772019714
-0.122409882853
-0.122406559626
-0.122398133231
-0.122388050928
-0.122376673194
-0.122362185344
-0.122344188564
-0.122323826412
-0.122299313568
-0.122269506152
-0.122238854117
-0.122209201627
-0.122180600978
-0.122151271588
-0.12211971757
-0.122089422947
-0.122060866393
-0.122033476715
-0.122007520828
-0.121984159118
-0.121963877918
-0.121948326516
-0.121941799303
-0.121946770191
-0.121969220122
-0.122015079136
-0.122081075728
-0.122159141504
-0.122252643824
-0.122370679594
-0.122516413038
-0.122693207073
-0.122907632565
-0.123160501572
-0.123454875405
-0.12378939315
-0.124164634564
-0.124584650132
-0.125053282657
-0.125573795384
-0.126148631677
-0.126780517966
-0.12747228484
-0.128223440511
-0.129031446663
-0.129900581031
-0.130850644339
-0.131903152154
-0.133066359618
-0.134314182948
-0.135137186101
-0.135368561991
-0.135666574151
-0.136435945559
-0.136955863693
-0.136972535571
-0.136597256043
-0.135741255077
-0.134477606923
-0.132876242531
-0.131000182772
-0.128893429503
-0.126613702318
-0.124193091686
-0.121661384659
-0.119042757852
-0.116362551531
-0.113641096281
-0.110890793088
-0.108129020314
-0.10541678884
-0.102858778931
-0.100439926246
-0.0981263172619
-0.0960774321517
-0.0947253384327
-0.0939523809943
-0.08994816088
-0.0746492583555
-0.0559676248372
-0.122379389294
-0.12237538254
-0.122365737445
-0.122354043639
-0.12233967564
-0.122321238287
-0.122298627999
-0.122273594453
-0.122242119871
-0.122205079463
-0.122166601838
-0.122128691289
-0.122091424069
-0.12205219866
-0.122010207557
-0.121969334185
-0.121929357557
-0.121889217869
-0.12184974827
-0.1218125886
-0.121777347103
-0.121744816269
-0.121719790686
-0.12170418
-0.12170280528
-0.121722134643
-0.12176417349
-0.121824638663
-0.121903711515
-0.121998434598
-0.122121322676
-0.122276584034
-0.122470186875
-0.122702692559
-0.122981421565
-0.123307403512
-0.123675958573
-0.124091040082
-0.124556626482
-0.125077105444
-0.125656150154
-0.126296417917
-0.127000777402
-0.127767338879
-0.128589099358
-0.12946971796
-0.130438311072
-0.131558241282
-0.132949711801
-0.135068736193
-0.134486504537
-0.134643395515
-0.13535116898
-0.136185816865
-0.136311081511
-0.135849069779
-0.134889108644
-0.133412988841
-0.131514360039
-0.129269242403
-0.126744283796
-0.123985573935
-0.121035124709
-0.117915145316
-0.11464570839
-0.11124393339
-0.107728037621
-0.104111504783
-0.100397368906
-0.096580109479
-0.0926637931772
-0.0886622752394
-0.0844999015946
-0.0798729882742
-0.0747067836009
-0.069375300392
-0.0632688388777
-0.0495109659299
-0.0122257775179
0.042409272372
-0.12235170579
-0.122346960202
-0.122336187142
-0.122322546942
-0.122304817824
-0.122282141495
-0.122255050342
-0.122224179257
-0.122185301691
-0.12214095087
-0.122093941764
-0.122046925011
-0.122000150665
-0.121950317679
-0.121896733255
-0.121844029085
-0.121791644268
-0.121737183359
-0.121682438237
-0.121629708678
-0.121577636308
-0.121526597588
-0.121480813085
-0.121443328531
-0.121417231148
-0.121408327945
-0.121422790589
-0.121458757547
-0.121519617155
-0.121594889465
-0.121692220251
-0.12181987255
-0.121989938904
-0.122203875707
-0.122461474951
-0.122771875589
-0.123132140707
-0.123541831557
-0.12400498443
-0.124525302977
-0.125107811969
-0.125757612222
-0.126475999851
-0.127255708344
-0.128081029834
-0.128948244303
-0.129878750753
-0.13092064332
-0.132313297582
-0.132928827958
-0.133476988974
-0.133763432193
-0.135129349445
-0.135569081367
-0.135172545468
-0.134104073914
-0.132462281623
-0.130295339596
-0.127706420677
-0.124773623353
-0.121562506412
-0.11811997768
-0.11448485083
-0.110682744165
-0.106736836868
-0.102665063994
-0.0984782621884
-0.0941716872914
-0.0897169384468
-0.0850546579301
-0.0800889383467
-0.0746832502301
-0.0686467731786
-0.0615813106059
-0.053226109751
-0.043716688075
-0.0312858988134
-0.00636514358738
0.0479660244352
0.117150655897
-0.122327031954
-0.122321541994
-0.122309605141
-0.122293606288
-0.122271972679
-0.12224496598
-0.122213167987
-0.12217542359
-0.122129274966
-0.122077721734
-0.122021490209
-0.121964492496
-0.121907239641
-0.121845792756
-0.121779508742
-0.121713597397
-0.121647543556
-0.121576848666
-0.121505426873
-0.121435372273
-0.121363760608
-0.121292856568
-0.121224436602
-0.121162841328
-0.121110997783
-0.121072832414
-0.121056559863
-0.121062518064
-0.121095533628
-0.121151012601
-0.12122589887
-0.121324839854
-0.121462233915
-0.121650667437
-0.121889735965
-0.122181177919
-0.122528400685
-0.122930013493
-0.123389293988
-0.123910360946
-0.124498025914
-0.12515826483
-0.125891834827
-0.126685888927
-0.127519047305
-0.128373882115
-0.129228593715
-0.129998462172
-0.130772015469
-0.130605650978
-0.131083348839
-0.133000615895
-0.134469716093
-0.134386323559
-0.13340416097
-0.131643118142
-0.129270516639
-0.126377967899
-0.123080612838
-0.119462789558
-0.115594412914
-0.111528812676
-0.107309634914
-0.102967738647
-0.0985239825631
-0.0939827829122
-0.089326235653
-0.0845068734399
-0.0794447116677
-0.0740216328038
-0.0680576028204
-0.0612730062335
-0.0533137626387