/*--------------------------------*- C++ -*----------------------------------*\
| =========                 |                                                 |
| \\      /  F ield         | OpenFOAM: The Open Source CFD Toolbox           |
|  \\    /   O peration     | Version:  v1806                                 |
|   \\  /    A nd           | Web:      www.OpenFOAM.com                      |
|    \\/     M anipulation  |                                                 |
\*---------------------------------------------------------------------------*/
FoamFile
{
    version     2.0;
    format      ascii;
    class       surfaceScalarField;
    location    "732";
    object      phia;
}
// * * * * * * * * * * * * * * * * * * * * * * * * * * * * * * * * * * * * * //

dimensions      [0 3 -1 0 0 0 0];
oriented        oriented;


internalField   nonuniform List<scalar> 
12640
(
5.17084848562e-08
-5.14363888407e-08
9.78778173556e-08
-4.60779838256e-08
1.38074177038e-07
-4.01518192752e-08
1.72416644404e-07
-3.4328965196e-08
1.99426608194e-07
-2.6968134651e-08
2.18969527398e-07
-1.95213391475e-08
2.35938726574e-07
-1.69679358749e-08
2.60080623809e-07
-2.41436771551e-08
2.91659107017e-07
-3.15913772613e-08
3.23361190869e-07
-3.17171525111e-08
3.54414465715e-07
-3.1066016633e-08
3.875247947e-07
-3.31230321139e-08
4.20451225613e-07
-3.29386065324e-08
4.52236697587e-07
-3.17990050188e-08
4.84831855816e-07
-3.26118454654e-08
5.21551481775e-07
-3.67381306095e-08
5.60536102959e-07
-3.90053010719e-08
5.98446478824e-07
-3.79318365948e-08
6.34938235178e-07
-3.65127316801e-08
6.73000308606e-07
-3.80825088325e-08
7.17595173392e-07
-4.46147363146e-08
7.68278180956e-07
-5.07016059165e-08
8.20655013076e-07
-5.23944415857e-08
8.72594532411e-07
-5.19557372522e-08
9.23532344758e-07
-5.09531500417e-08
9.73853013331e-07
-5.03352506307e-08
1.0245047671e-06
-5.06659885617e-08
1.07511684346e-06
-5.062632186e-08
1.12516984613e-06
-5.00672308781e-08
1.17498258423e-06
-4.98276085114e-08
1.22557753023e-06
-5.06099777115e-08
1.27649523733e-06
-5.09338476763e-08
1.32722656692e-06
-5.07488643163e-08
1.37966149255e-06
-5.24539329916e-08
1.4336323839e-06
-5.39910218362e-08
1.48840626215e-06
-5.47961687856e-08
1.54412145665e-06
-5.57384809682e-08
1.59913766308e-06
-5.50406750471e-08
1.65231605852e-06
-5.32038320932e-08
1.70405561392e-06
-5.17667076459e-08
1.75586151058e-06
-5.18333884218e-08
1.8049425714e-06
-4.9108519188e-08
1.84741810291e-06
-4.25018116313e-08
1.88524427783e-06
-3.78512403785e-08
1.92045576936e-06
-3.52340873891e-08
1.95265716023e-06
-3.22213691333e-08
1.98139978542e-06
-2.87582848319e-08
2.00577548732e-06
-2.43866346186e-08
2.02571707175e-06
-1.99459414609e-08
2.04382960141e-06
-1.81098016462e-08
2.06332911366e-06
-1.94872349676e-08
2.08018765121e-06
-1.68359125843e-08
2.0850662559e-06
-4.84342572324e-09
2.08112642621e-06
3.99052995042e-09
2.06769191576e-06
1.35029802556e-08
2.0412213585e-06
2.65605419029e-08
2.01594664577e-06
2.53936585855e-08
1.99816827695e-06
1.79374282408e-08
1.97498382463e-06
2.33917691381e-08
1.94685852738e-06
2.83962936444e-08
1.92908168894e-06
1.81380905527e-08
1.90225394539e-06
2.73193075422e-08
1.81588675762e-06
8.70078899514e-08
1.65350938088e-06
1.63010692442e-07
1.49421506841e-06
1.59748689641e-07
1.37987153381e-06
1.14685151477e-07
1.27555122701e-06
1.04647591863e-07
1.1705051004e-06
1.05426019365e-07
1.05905765543e-06
1.1190365743e-07
9.36229773087e-07
1.23355515262e-07
8.09465421294e-07
1.2732721957e-07
6.88061716668e-07
1.21955349211e-07
5.75054586175e-07
1.1353865921e-07
4.58445294345e-07
1.17130505566e-07
3.59697505e-07
9.92343887516e-08
2.74886998601e-07
8.52793929151e-08
2.15058843563e-07
6.03375678504e-08
1.49204257811e-07
6.63760997993e-08
9.04474785488e-08
5.949276674e-08
9.10312242503e-08
2.74331027542e-08
-7.89374454792e-08
6.34308159604e-08
-8.20280403442e-08
9.85925392758e-08
-7.5313442622e-08
1.34736660567e-07
-7.04518563559e-08
1.78993072161e-07
-7.12149858869e-08
2.13587970394e-07
-5.40855134248e-08
2.37524839968e-07
-4.08822601095e-08
2.63458836137e-07
-5.00847231235e-08
2.92541158849e-07
-6.06876556512e-08
3.24203257784e-07
-6.33952955218e-08
3.56196732186e-07
-6.30783476262e-08
3.86321474321e-07
-6.32618526453e-08
4.16481043951e-07
-6.31121524574e-08
4.47981598163e-07
-6.3315695717e-08
4.81447458871e-07
-6.60981805765e-08
5.19181770423e-07
-7.44966651324e-08
5.56915079828e-07
-7.67640525278e-08
5.89054473991e-07
-7.00948200905e-08
6.21987788764e-07
-6.94691245113e-08
6.62401051942e-07
-7.85177312986e-08
7.10931107063e-07
-9.31669736384e-08
7.65284169322e-07
-1.05075312836e-07
8.19405951684e-07
-1.06536193496e-07
8.69861806805e-07
-1.02429441327e-07
9.19741420111e-07
-1.00850396883e-07
9.71263273347e-07
-1.0187297906e-07
1.02219607884e-06
-1.01615404954e-07
1.07224900136e-06
-1.00694477332e-07
1.12229634777e-06
-1.00131311181e-07
1.17250947459e-06
-1.00056376434e-07
1.22257502148e-06
-1.00693323454e-07
1.27253440714e-06
-1.00910672535e-07
1.32233049596e-06
-1.00564831758e-07
1.3744521e-06
-1.04595667068e-07
1.43008383412e-06
-1.09646122143e-07
1.48546432137e-06
-1.10199834493e-07
1.54076579857e-06
-1.11066129536e-07
1.59768783405e-06
-1.11988627296e-07
1.65510557791e-06
-1.10650421199e-07
1.70868563944e-06
-1.05375396352e-07
1.74963955526e-06
-9.28184425431e-08
1.78186273866e-06
-8.13608734975e-08
1.81797296935e-06
-7.8641937004e-08
1.85758495389e-06
-7.74900262371e-08
1.89632944107e-06
-7.40050108926e-08
1.93323446915e-06
-6.91481262355e-08
1.9669261746e-06
-6.24695166492e-08
1.9973284758e-06
-5.48015866888e-08
2.02369667634e-06
-4.63220553578e-08
2.04161378342e-06
-3.60254267341e-08
2.04727639564e-06
-2.51410583552e-08
2.04948637788e-06
-1.90251610459e-08
2.06488383293e-06
-2.02080545875e-08
2.07624113042e-06
-7.31702969629e-09
2.06980262346e-06
2.00089971589e-08
2.06314208271e-06
3.33129203182e-08
2.05509331573e-06
3.35662125743e-08
2.03818147139e-06
3.50124044142e-08
2.0202083351e-06
4.15807409327e-08
1.99764837281e-06
5.12393115817e-08
1.94490180967e-06
7.12527276682e-08
1.88315036114e-06
8.95645649414e-08
1.78854993087e-06
1.82240672974e-07
1.63352220036e-06
3.18633862323e-07
1.45314230569e-06
3.40557144145e-07
1.28766653673e-06
2.8048858507e-07
1.18763599384e-06
2.05000878552e-07
1.11488660772e-06
1.78552379506e-07
1.02443490215e-06
2.02807863388e-07
9.08166509183e-07
2.40144620114e-07
7.75876113917e-07
2.60161503162e-07
6.45744143798e-07
2.52614421059e-07
5.38929959501e-07
2.20873966121e-07
4.59335973685e-07
1.97269294485e-07
3.82994534833e-07
1.76121753907e-07
3.12996906596e-07
1.55839809638e-07
2.4042305703e-07
1.33500738056e-07
1.76213224669e-07
1.31269819183e-07
9.21746361204e-08
1.44373205388e-07
1.83830771732e-07
3.3893828696e-08
-1.12589499191e-07
5.16800936111e-08
-9.97799632086e-08
9.24353782537e-08
-1.16038224541e-07
1.39415977753e-07
-1.17402803245e-07
1.83307218716e-07
-1.15059682317e-07
2.07137398457e-07
-7.78996314389e-08
2.22977189587e-07
-5.67240325796e-08
2.5108702989e-07
-7.8187554364e-08
2.8343554562e-07
-9.30381350039e-08
3.16069874954e-07
-9.60420947555e-08
3.48308398659e-07
-9.53246544819e-08
3.78764383426e-07
-9.37273762369e-08
4.08632036953e-07
-9.29911012604e-08
4.40431477296e-07
-9.51307682023e-08
4.71375114173e-07
-9.70631532656e-08
4.89345912756e-07
-9.24908678596e-08
4.98890273597e-07
-8.63299947266e-08
5.2301110662e-07
-9.42364280074e-08
5.69974840863e-07
-1.16453280633e-07
6.37031855977e-07
-1.45595429162e-07
7.06201270166e-07
-1.62357066287e-07
7.61601088076e-07
-1.60494935447e-07
8.11038235661e-07
-1.55991604386e-07
8.62893262537e-07
-1.54301908972e-07
9.14969656908e-07
-1.52943087698e-07
9.6509136155e-07
-1.52010720603e-07
1.01482662172e-06
-1.513658793e-07
1.06500290466e-06
-1.5088639675e-07
1.11520997363e-06
-1.50353715209e-07
1.16574674742e-06
-1.50609592456e-07
1.21535715308e-06
-1.50320295483e-07
1.2651711431e-06
-1.50742410366e-07
1.31656780003e-06
-1.51980698478e-07
1.36604716764e-06
-1.54096143225e-07
1.41939723985e-06
-1.63017897064e-07
1.47988456922e-06
-1.70711132385e-07
1.53699397414e-06
-1.68200573511e-07
1.59218885568e-06
-1.67210181668e-07
1.6509617497e-06
-1.69451031709e-07
1.70735988161e-06
-1.61803427892e-07
1.75892718636e-06
-1.44415997028e-07
1.80616903968e-06
-1.2863350832e-07
1.84817968356e-06
-1.20682177037e-07
1.8864543917e-06
-1.1579362516e-07
1.92202850041e-06
-1.0960535482e-07
1.95447714359e-06
-1.01620507959e-07
1.98390758286e-06
-9.19189403472e-08
2.01003939582e-06
-8.09474632055e-08
2.03244391399e-06
-6.87334187662e-08
2.05154720659e-06
-5.51283936074e-08
2.06809720203e-06
-4.16810955224e-08
2.07995365169e-06
-3.08610142727e-08
2.07962323559e-06
-1.9843618369e-08
2.07223560278e-06
1.2046953982e-10
2.07049172129e-06
2.18226946229e-08
2.06871141697e-06
3.51892047894e-08
2.05781302442e-06
4.45916839985e-08
2.03886910371e-06
5.41263247773e-08
2.01478541168e-06
6.58845818188e-08
1.98325905495e-06
8.30533801598e-08
1.94305753209e-06
1.11834138251e-07
1.85488586719e-06
1.78231830121e-07
1.6791800614e-06
3.58508381322e-07
1.45828767174e-06
5.40032609755e-07
1.2958665283e-06
5.03374404086e-07
1.22335553858e-06
3.53329478317e-07
1.14001891563e-06
2.88663726547e-07
1.03681866385e-06
2.82112386544e-07
9.26277109564e-07
3.13765529486e-07
8.06146142721e-07
3.60747703075e-07
6.9239091892e-07
3.74422597841e-07
6.04367277921e-07
3.41168148881e-07
5.29506496534e-07
2.96290574934e-07
4.55352960965e-07
2.71979544841e-07
3.70631082832e-07
2.61398039065e-07
2.86287850447e-07
2.4075818949e-07
2.15311316554e-07
2.05081683397e-07
1.62593175764e-07
1.84594423844e-07
7.00513304777e-08
2.37786333801e-07
2.54172677924e-07
2.3009656356e-08
-1.35674702518e-07
3.13922489719e-08
-1.0812376149e-07
7.56434673046e-08
-1.60238651737e-07
1.1341181365e-07
-1.55129925921e-07
1.19263399582e-07
-1.20893032596e-07
1.08567107313e-07
-6.72010640734e-08
1.51374575952e-07
-9.95204271274e-08
2.1794619052e-07
-1.44747051991e-07
2.65158491093e-07
-1.40245830515e-07
3.01812996227e-07
-1.32696113797e-07
3.36134869433e-07
-1.29650549518e-07
3.68059924003e-07
-1.25652423675e-07
3.95994111743e-07
-1.20928651181e-07
4.11508061205e-07
-1.10655660787e-07
4.17385816444e-07
-1.02958056052e-07
4.32082945697e-07
-1.07208187314e-07
4.69513742051e-07
-1.23780939867e-07
5.29117312908e-07
-1.53859467268e-07
5.98414891615e-07
-1.85770447029e-07
6.56274894878e-07
-2.03474924417e-07
7.02705957764e-07
-2.08806679762e-07
7.51870858751e-07
-2.09677294104e-07
8.03424499863e-07
-2.0756204182e-07
8.53893805705e-07
-2.0478692322e-07
9.03745763252e-07
-2.02810120611e-07
9.53396938904e-07
-2.01676302395e-07
1.00369725656e-06
-2.01680564027e-07
1.05412268588e-06
-2.0132599457e-07
1.10492378556e-06
-2.01169501459e-07
1.15489058526e-06
-2.00591405134e-07
1.2058750687e-06
-2.01320735809e-07
1.25462182504e-06
-1.9950636948e-07
1.30256407859e-06
-1.99941239161e-07
1.36005001915e-06
-2.11601699157e-07
1.41807897893e-06
-2.21068489857e-07
1.47557425445e-06
-2.2822915838e-07
1.54080257678e-06
-2.33453491655e-07
1.60378980285e-06
-2.30223494865e-07
1.65754736769e-06
-2.23236456438e-07
1.70729086452e-06
-2.11575683824e-07
1.75698658788e-06
-1.9414166113e-07
1.80513545539e-06
-1.7681246979e-07
1.84887163394e-06
-1.64448466118e-07
1.88815900223e-06
-1.55109745675e-07
1.92394906614e-06
-1.45422451803e-07
1.95650133515e-06
-1.34196431684e-07
1.98589599222e-06
-1.21333149154e-07
2.01196792386e-06
-1.07032980302e-07
2.03455639221e-06
-9.13290276807e-08
2.05377967078e-06
-7.43508062255e-08
2.06916859382e-06
-5.7060436521e-08
2.07848975599e-06
-4.01617070496e-08
2.08012058811e-06
-2.14405147705e-08
2.07864037729e-06
1.65157133498e-09
2.07616371816e-06
2.43718713416e-08
2.06889780443e-06
4.25529275814e-08
2.0546087221e-06
5.9014722365e-08
2.0320108329e-06
7.68954781415e-08
1.99868186483e-06
9.9438796934e-08
1.948303752e-06
1.33721250582e-07
1.86513722432e-06
1.95369784868e-07
1.72700872803e-06
3.16805716603e-07
1.57319250637e-06
5.1280869966e-07
1.43634794436e-06
6.77342422259e-07
1.28009084629e-06
6.60028872288e-07
1.1396104294e-06
4.94133541315e-07
1.03348268345e-06
3.95095960077e-07
9.42080415824e-07
3.73844625954e-07
8.54745648452e-07
4.01479688614e-07
7.62246472935e-07
4.53692791157e-07
6.62367619171e-07
4.74810840714e-07
5.64929701702e-07
4.39145157733e-07
4.70504401481e-07
3.91227994166e-07
3.7978033033e-07
3.6318569658e-07
2.96489609466e-07
3.4518985404e-07
2.11785520942e-07
3.25998759554e-07
1.39336994625e-07
2.78009225499e-07
9.34651136528e-08
2.30931386061e-07
4.7989155487e-08
2.83669634511e-07
3.02531392132e-07
3.58883847079e-09
-1.39090590424e-07
2.6055388296e-08
-1.30537121877e-07
6.00480321086e-08
-1.94148196652e-07
8.67579538708e-08
-1.81748008978e-07
8.27940329288e-08
-1.16911562457e-07
1.07789319011e-07
-9.21921250448e-08
1.61980866028e-07
-1.53702804641e-07
2.03009907352e-07
-1.85754700654e-07
2.41225664702e-07
-1.78448612203e-07
2.7955659391e-07
-1.7100926759e-07
3.17353894424e-07
-1.67431276511e-07
3.42894565266e-07
-1.51183399517e-07
3.49965448827e-07
-1.27999548492e-07
3.57715615028e-07
-1.18415661155e-07
3.85889254266e-07
-1.31147255893e-07
4.34684014474e-07
-1.56020253333e-07
4.96517456026e-07
-1.8563313223e-07
5.55648245456e-07
-2.1300956185e-07
6.00894020182e-07
-2.31034825633e-07
6.41902557664e-07
-2.4450059933e-07
6.88946904224e-07
-2.55867061557e-07
7.3907361632e-07
-2.59819410878e-07
7.89384870847e-07
-2.57887505321e-07
8.39070195489e-07
-2.54485685141e-07
8.88545845035e-07
-2.52298844095e-07
9.38713749964e-07
-2.51857030878e-07
9.88554172983e-07
-2.51533674387e-07
1.0396635675e-06
-2.52448081257e-07
1.08959973832e-06
-2.51118977915e-07
1.14013055567e-06
-2.51136218459e-07
1.18765273129e-06
-2.488576548e-07
1.23985102322e-06
-2.51720280702e-07
1.29921043378e-06
-2.59317933743e-07
1.35563236566e-06
-2.68042513182e-07
1.4172093259e-06
-2.82665584618e-07
1.48382756815e-06
-2.9486943896e-07
1.54514285126e-06
-2.94792510202e-07
1.60221918487e-06
-2.87325309943e-07
1.65551679366e-06
-2.7656091658e-07
1.70629355877e-06
-2.62380778235e-07
1.75640423639e-06
-2.44281648104e-07
1.80500241798e-06
-2.2544068577e-07
1.84982909042e-06
-2.09305032791e-07
1.89019023961e-06
-1.95500064629e-07
1.92660365379e-06
-1.81863032225e-07
1.95948956822e-06
-1.67106428047e-07
1.98899618695e-06
-1.50859146045e-07
2.01504796341e-06
-1.33098605865e-07
2.03750839786e-06
-1.13796650511e-07
2.05620608667e-06
-9.30483254428e-08
2.07042524785e-06
-7.12708048383e-08
2.07879763549e-06
-4.85144622686e-08
2.08116053153e-06
-2.37699426314e-08
2.07983088192e-06
3.03281567929e-09
2.07519845321e-06
2.90768179659e-08
2.06448933484e-06
5.33655704427e-08
2.0445449569e-06
7.90888284465e-08
2.01115877882e-06
1.10458931255e-07
1.95769214524e-06
1.53127261954e-07
1.87456398833e-06
2.17129272331e-07
1.75312225358e-06
3.17153032398e-07
1.607006276e-06
4.63309174838e-07
1.48717138967e-06
6.33045318769e-07
1.38336725376e-06
7.81555308433e-07
1.27313772032e-06
7.70634900869e-07
1.13315555527e-06
6.34424408244e-07
9.87182921344e-07
5.4135251214e-07
8.64695112289e-07
4.96619563795e-07
7.66873087331e-07
4.99629053083e-07
6.7561921512e-07
5.45345678384e-07
5.75773065068e-07
5.7512543894e-07
4.80370554864e-07
5.35008053476e-07
3.93965239662e-07
4.78050200219e-07
3.08842528582e-07
4.48732380508e-07
2.24957371774e-07
4.29539908907e-07
1.5009499614e-07
4.01331429748e-07
1.06756802755e-07
3.21737078309e-07
6.54324514254e-08
2.72572028303e-07
2.54097615367e-08
3.24295170803e-07
3.28087609559e-07
6.190093631e-10
-1.39777313387e-07
2.99652767927e-08
-1.59832338654e-07
4.71286053253e-08
-2.11211215913e-07
5.92522265383e-08
-1.93809570359e-07
5.82775498794e-08
-1.15912403073e-07
1.11096863816e-07
-1.45001034504e-07
1.61059309385e-07
-2.03641829129e-07
1.86758216982e-07
-2.11430517784e-07
2.18071473054e-07
-2.09714770799e-07
2.5097187624e-07
-2.03887057302e-07
2.74685496863e-07
-1.91116198203e-07
2.73117583672e-07
-1.49602104429e-07
2.82310326822e-07
-1.37189655674e-07
3.15533249454e-07
-1.51644319464e-07
3.67590679919e-07
-1.83217631047e-07
4.33392541431e-07
-2.21838562109e-07
4.94432690755e-07
-2.46689039954e-07
5.37937054356e-07
-2.565295108e-07
5.77056323134e-07
-2.70169391947e-07
6.24426240975e-07
-2.91885176396e-07
6.73481235246e-07
-3.04935798993e-07
7.21590371607e-07
-3.0794080736e-07
7.70587284767e-07
-3.06896236685e-07
8.20671012729e-07
-3.04580783808e-07
8.70439335963e-07
-3.02077832242e-07
9.1770140659e-07
-2.99129832852e-07
9.68785044259e-07
-3.02628033011e-07
1.01882551159e-06
-3.02499963336e-07
1.06977719676e-06
-3.02082300014e-07
1.11508516686e-06
-2.964563496e-07
1.16520663589e-06
-2.98992186808e-07
1.2200537173e-06
-3.06582039436e-07
1.27749511565e-06
-3.16775066913e-07
1.34895371404e-06
-3.39518345081e-07
1.42107035819e-06
-3.54801271148e-07
1.48466733396e-06
-3.58487271493e-07
1.54313243919e-06
-3.53280254965e-07
1.59908503939e-06
-3.43302277494e-07
1.6529567464e-06
-3.3045861139e-07
1.7050880768e-06
-3.14539489984e-07
1.75607613985e-06
-2.95298345414e-07
1.80526948141e-06
-2.74663558014e-07
1.85103441083e-06
-2.55099851639e-07
1.89249472349e-06
-2.36989653754e-07
1.92976806591e-06
-2.19163826016e-07
1.96318234005e-06
-2.00544863545e-07
1.99289772393e-06
-1.80594390075e-07
2.01885316824e-06
-1.59068687919e-07
2.04086510027e-06
-1.35817342819e-07
2.05863245967e-06
-1.10818011633e-07
2.07155116711e-06
-8.41834347184e-08
2.07892828098e-06
-5.58752376268e-08
2.08091042896e-06
-2.57204728805e-08
2.0782860631e-06
5.70559451229e-09
2.07003588032e-06
3.7403568035e-08
2.05268569858e-06
7.08087811949e-08
2.02141394403e-06
1.10500932148e-07
1.9697754834e-06
1.62260183286e-07
1.89016191148e-06
2.32956884026e-07
1.77792973919e-06
3.29622421204e-07
1.63893008239e-06
4.56459072502e-07
1.49661800097e-06
6.05954789467e-07
1.39177682196e-06
7.38243978846e-07
1.2856048669e-06
8.8810202569e-07
1.15707974699e-06
8.99494721114e-07
1.0422114175e-06
7.49574457419e-07
9.10417719337e-07
6.73408966599e-07
7.82711271386e-07
6.2461270316e-07
6.77288908032e-07
6.0536399823e-07
5.78942592122e-07
6.44082709216e-07
4.81838765523e-07
6.72648150768e-07
4.04034946752e-07
6.1320399935e-07
3.21957240923e-07
5.60502524621e-07
2.38093506344e-07
5.32997336397e-07
1.61781435669e-07
5.06282201266e-07
1.13020526633e-07
4.50496682736e-07
7.41246759695e-08
3.60984589604e-07
3.8740098312e-08
3.08381573837e-07
1.6303027847e-08
3.46985213306e-07
3.44732215939e-07
1.01904728579e-08
-1.49848408709e-07
4.16185569817e-08
-1.91180798989e-07
5.39012219228e-08
-2.23357310458e-07
4.36138986026e-08
-1.83445472539e-07
6.4351501155e-08
-1.36628704347e-07
1.19489646549e-07
-2.00118118465e-07
1.45916914243e-07
-2.30045755737e-07
1.67455194918e-07
-2.3290855434e-07
1.90224532696e-07
-2.32457009817e-07
2.22327196266e-07
-2.35921533734e-07
2.24239668701e-07
-1.92997577945e-07
2.28763673601e-07
-1.54105476924e-07
2.5952150733e-07
-1.6794462458e-07
3.02028780515e-07
-1.94160059076e-07
3.63774510782e-07
-2.44971987314e-07
4.2524987832e-07
-2.83321443657e-07
4.6686005634e-07
-2.88309014027e-07
5.03837401956e-07
-2.93518049128e-07
5.5324118991e-07
-3.19584954486e-07
6.04166111857e-07
-3.42821552945e-07
6.5185512193e-07
-3.52634737467e-07
6.9978571609e-07
-3.55881317911e-07
7.49108418913e-07
-3.56228086802e-07
7.97156579513e-07
-3.52636764084e-07
8.43991818205e-07
-3.48921825712e-07
8.9223914407e-07
-3.47385275985e-07
9.40619417224e-07
-3.51017300006e-07
9.91825736628e-07
-3.53715220807e-07
1.03918631039e-06
-3.49452569872e-07
1.08570353766e-06
-3.42983548367e-07
1.14317634177e-06
-3.56476362568e-07
1.20396665149e-06
-3.67385062752e-07
1.2740507032e-06
-3.86873456119e-07
1.34622477693e-06
-4.11708140666e-07
1.41705686552e-06
-4.25650810211e-07
1.47990649858e-06
-4.21356099055e-07
1.53822296814e-06
-4.11617791971e-07
1.59481113089e-06
-3.9991339681e-07
1.65005008758e-06
-3.85722354847e-07
1.70375589125e-06
-3.68271789751e-07
1.75593019947e-06
-3.47500677238e-07
1.80600218593e-06
-3.24764815102e-07
1.85276421095e-06
-3.01891740203e-07
1.89535140431e-06
-2.7960629482e-07
1.93360397898e-06
-2.57444059296e-07
1.9676591321e-06
-2.34624908232e-07
1.99757966917e-06
-2.10536201857e-07
2.02325394286e-06
-1.84760178549e-07
2.04446382793e-06
-1.57040217624e-07
2.06091790718e-06
-1.27278961862e-07
2.07221438106e-06
-9.54802508869e-08
2.07800410563e-06
-6.16526390144e-08
2.07820050861e-06
-2.58921435872e-08
2.07229125705e-06
1.16646854994e-08
2.05779390621e-06
5.19618162005e-08
2.02998309579e-06
9.8726220592e-08
1.98284439167e-06
1.57748638344e-07
1.9108691147e-06
2.34405904393e-07
1.81204646805e-06
3.31978364631e-07
1.69155957328e-06
4.50360467566e-07
1.56644729612e-06
5.81860921126e-07
1.45931304262e-06
7.13414287403e-07
1.35059014814e-06
8.47316500845e-07
1.24012155687e-06
9.98934674483e-07
1.0738042269e-06
1.06615403799e-06
9.43724786121e-07
8.7994579151e-07
8.37664317981e-07
7.79773027984e-07
7.17284539761e-07
7.45292865561e-07
5.95892258788e-07
7.27115788213e-07
4.86465596487e-07
7.53885178298e-07
4.07822074446e-07
7.51690121618e-07
3.35340552339e-07
6.86042789393e-07
2.50551554887e-07
6.45661415643e-07
1.71043067569e-07
6.12894584017e-07
1.09109243485e-07
5.68611223544e-07
7.8597900915e-08
4.81389896765e-07
3.8769725958e-08
4.01161694888e-07
7.46632055304e-09
3.39954233085e-07
3.91444748334e-09
3.51174661845e-07
3.48751364465e-07
1.84837107567e-08
-1.68401900571e-07
4.28915193943e-08
-2.1551237761e-07
4.76744864814e-08
-2.28084335855e-07
2.88086662191e-08
-1.64529466708e-07
6.67939776697e-08
-1.74583257412e-07
1.06929723243e-07
-2.40226398448e-07
1.26594652582e-07
-2.49653961973e-07
1.47594859925e-07
-2.53868529863e-07
1.56065732029e-07
-2.40835587684e-07
1.74350324444e-07
-2.54163272838e-07
1.70744847875e-07
-1.89350091247e-07
2.02467391605e-07
-1.85812252063e-07
2.37841894308e-07
-2.03312580291e-07
2.91182008296e-07
-2.47500358639e-07
3.51290221821e-07
-3.05083508036e-07
3.93489506244e-07
-3.25520801601e-07
4.26476159681e-07
-3.21297545497e-07
4.74881192952e-07
-3.41928739441e-07
5.2847774459e-07
-3.73189416648e-07
5.77088386167e-07
-3.91439582292e-07
6.2401879022e-07
-3.99572783899e-07
6.71599727606e-07
-4.03468975033e-07
7.22085010927e-07
-4.06718280172e-07
7.72081532488e-07
-4.02639870463e-07
8.16364030701e-07
-3.93208939815e-07
8.67891815277e-07
-3.98918862441e-07
9.14761680239e-07
-3.97893269981e-07
9.60182760487e-07
-3.99143315373e-07
1.00690758577e-06
-3.9618458255e-07
1.07378962547e-06
-4.09873241381e-07
1.13345566128e-06
-4.16151411425e-07
1.19301124275e-06
-4.26951498395e-07
1.26657248565e-06
-4.60447173154e-07
1.34347809593e-06
-4.88627622874e-07
1.40922434043e-06
-4.91412327039e-07
1.47105513574e-06
-4.83204041155e-07
1.53106562629e-06
-4.71647453857e-07
1.58958237399e-06
-4.58451448938e-07
1.64669514941e-06
-4.42858440063e-07
1.70222453281e-06
-4.23826412383e-07
1.7559113699e-06
-4.01214567203e-07
1.80719942261e-06
-3.7608147454e-07
1.8551643339e-06
-3.49886132921e-07
1.89899591501e-06
-3.23467151352e-07
1.93833005441e-06
-2.96806491005e-07
1.97307264862e-06
-2.6939401776e-07
2.0031134458e-06
-2.40601559189e-07
2.0282443476e-06
-2.09913963777e-07
2.04823278966e-06
-1.77048155262e-07
2.06285911178e-06
-1.41922065726e-07
2.07189075732e-06
-1.04518731029e-07
2.07504361445e-06
-6.48046094774e-08
2.07174367272e-06
-2.25697522934e-08
2.06024553467e-06
2.32001945824e-08
2.03672876244e-06
7.55465027909e-08
1.99564717936e-06
1.39878571462e-07
1.93234826565e-06
2.21176490859e-07
1.84654530066e-06
3.20341970128e-07
1.74259763279e-06
4.36108888452e-07
1.6277527356e-06
5.65439943946e-07
1.51667455326e-06
6.93218471396e-07
1.41917221128e-06
8.11221987059e-07
1.33136230326e-06
9.35454822815e-07
1.26459006048e-06
1.06604915855e-06
1.1229830683e-06
1.2081067083e-06
8.88232136224e-07
1.11499879244e-06
7.38445920278e-07
9.2984096682e-07
6.13799063201e-07
8.70289522981e-07
4.93878987874e-07
8.47383430191e-07
4.03938420404e-07
8.44202983765e-07
3.40023572667e-07
8.1594411179e-07
2.60358654663e-07
7.66057359148e-07
1.78329889205e-07
7.28044390386e-07
1.07348420513e-07
6.84249937999e-07
6.12383552479e-08
6.15089360241e-07
2.72605307738e-08
5.15743506345e-07
-6.74719386426e-09
4.3555347382e-07
-3.22640107169e-08
3.65972335105e-07
-2.11983286217e-08
3.40297510481e-07
3.27959794078e-07
2.20128890046e-08
-1.90266513408e-07
3.64718412005e-08
-2.29873952122e-07
3.10425899904e-08
-2.22537889448e-07
3.32213086091e-08
-1.66664374996e-07
7.30724995963e-08
-2.14391606852e-07
8.83270297111e-08
-2.55423638879e-07
1.05252028525e-07
-2.66514951874e-07
1.24857269825e-07
-2.73394524558e-07
1.29840018619e-07
-2.45761506687e-07
1.40159022937e-07
-2.64405368346e-07
1.53233355024e-07
-2.02391406206e-07
1.82360787641e-07
-2.14915307662e-07
2.19783276077e-07
-2.40733727112e-07
2.76974711572e-07
-3.0468873168e-07
3.2723246993e-07
-3.55325608869e-07
3.57197104032e-07
-3.55476402773e-07
3.94500007864e-07
-3.58596979507e-07
4.4534138125e-07
-3.92771281246e-07
4.9661921002e-07
-4.24470258508e-07
5.45097703242e-07
-4.39922383942e-07
5.92570011622e-07
-4.47048821459e-07
6.38569151495e-07
-4.49469017471e-07
6.85316297527e-07
-4.53468133282e-07
7.33503991839e-07
-4.50828062413e-07
7.77582994971e-07
-4.37290129126e-07
8.26676503637e-07
-4.48015567824e-07
8.78863919167e-07
-4.50083431349e-07
9.34342567155e-07
-4.54626823382e-07
9.92687506254e-07
-4.5453407997e-07
1.04957783831e-06
-4.66768669875e-07
1.11221410408e-06
-4.78794267509e-07
1.19141180729e-06
-5.06157954457e-07
1.26641561023e-06
-5.35461154024e-07
1.33284229292e-06
-5.55065591373e-07
1.39701962483e-06
-5.55602539277e-07
1.46023625701e-06
-5.46435388949e-07
1.52246601445e-06
-5.33894132443e-07
1.58333831865e-06
-5.19342948603e-07
1.64269339191e-06
-5.02235037473e-07
1.70035602036e-06
-4.81512837045e-07
1.75595558873e-06
-4.56840148048e-07
1.80888654963e-06
-4.29040295998e-07
1.85836578665e-06
-3.99394376845e-07
1.90364964601e-06
-3.68780816421e-07
1.9442061526e-06
-3.3739302812e-07
1.97966705065e-06
-3.04885442516e-07
2.00969575148e-06
-2.70661910084e-07
2.03396073939e-06
-2.34210362389e-07
2.05220872262e-06
-1.95328666229e-07
2.06429954201e-06
-1.54038123225e-07
2.07009849823e-06
-1.10340129209e-07
2.06924561396e-06
-6.39550549705e-08
2.06059831581e-06
-1.39075197903e-08
2.04139993764e-06
4.24311165149e-08
2.00698701837e-06
1.10009598483e-07
1.95228365112e-06
1.94667498077e-07
1.87663997389e-06
2.96889224681e-07
1.78715504337e-06
4.09951238589e-07
1.68850425904e-06
5.34946316493e-07
1.57587456243e-06
6.78296842988e-07
1.46167408026e-06
8.0768460011e-07
1.3685031027e-06
9.04680760152e-07
1.30042361032e-06
1.00383185318e-06
1.25053354484e-06
1.11625698383e-06
1.20268790636e-06
1.25626734187e-06
9.68144184927e-07
1.3498865578e-06
6.59026759934e-07
1.23936436104e-06
5.17305691461e-07
1.01237927869e-06
4.12501287914e-07
9.5258946723e-07
3.34428199417e-07
9.22643779549e-07
2.63161093189e-07
8.87579033336e-07
1.7776820991e-07
8.51798154714e-07
1.07276382833e-07
7.98908319492e-07
4.56815339615e-08
7.4620115874e-07
3.1721444929e-10
6.60864938078e-07
-4.41188347141e-08
5.60612696799e-07
-7.29842649892e-08
4.64836188045e-07
-8.14685944825e-08
3.7475336054e-07
-5.16398253825e-08
3.11220864255e-07
2.76389793585e-07
2.26370666949e-08
-2.12978166974e-07
3.3634041636e-08
-2.40819064856e-07
2.07401712944e-08
-2.09587806877e-07
3.42417674298e-08
-1.80097971517e-07
6.46914872237e-08
-2.44760804119e-07
6.93745138937e-08
-2.60019616599e-07
8.15131295032e-08
-2.78585774398e-07
9.15954647951e-08
-2.83386767653e-07
1.0780368879e-07
-2.61911085797e-07
1.02424839694e-07
-2.58970373837e-07
1.2727836198e-07
-2.27204486073e-07
1.60061714301e-07
-2.47686660873e-07
1.980623278e-07
-2.78715194109e-07
2.47887882247e-07
-3.54495181623e-07
2.85316741665e-07
-3.92737294977e-07
3.09620995869e-07
-3.79760558278e-07
3.54912566387e-07
-4.03877735303e-07
4.0779235839e-07
-4.45646524316e-07
4.58210074357e-07
-4.74886307582e-07
5.0796659091e-07
-4.89677581221e-07
5.57470956061e-07
-4.96549970777e-07
6.05354949257e-07
-4.97353103931e-07
6.48354402843e-07
-4.9646337826e-07
6.94088277537e-07
-4.96559265688e-07
7.45125991042e-07
-4.8832782354e-07
7.9018094539e-07
-4.93068662108e-07
8.38900327356e-07
-4.98804423757e-07
8.85755695426e-07
-5.01483482544e-07
9.52723049385e-07
-5.21503666571e-07
1.02189260986e-06
-5.35941408373e-07
1.09585527426e-06
-5.52761060323e-07
1.1701752574e-06
-5.80483939207e-07
1.24938570921e-06
-6.14678819339e-07
1.31830330875e-06
-6.23991678895e-07
1.38309435486e-06
-6.20403442773e-07
1.44790888073e-06
-6.11261806668e-07
1.51253075728e-06
-5.98530212023e-07
1.57604469668e-06
-5.82873655417e-07
1.63798376455e-06
-5.6419338965e-07
1.69811167518e-06
-5.41662634351e-07
1.75602042066e-06
-5.14773160903e-07
1.81106106311e-06
-4.84107255001e-07
1.86247593398e-06
-4.50837825099e-07
1.90952571071e-06
-4.15861470147e-07
1.95152588519e-06
-3.79427227689e-07
1.98780608693e-06
-3.41203774744e-07
2.01771782286e-06
-3.00615002553e-07
2.04074956215e-06
-2.57288723028e-07
2.05662989997e-06
-2.1125144519e-07
2.06527671547e-06
-1.62730722944e-07
2.0666329555e-06
-1.11724294873e-07
2.06022989227e-06
-5.75663776561e-08
2.04452840439e-06
1.81082604736e-09
2.01624692396e-06
7.07455144879e-08
1.97083998936e-06
1.55457025549e-07
1.9044642602e-06
2.61070652874e-07
1.8216052465e-06
3.79871819718e-07
1.73723096562e-06
4.94413509514e-07
1.64909745799e-06
6.2319785343e-07
1.52267705529e-06
8.04957263244e-07
1.38391202933e-06
9.46740557507e-07
1.28958587852e-06
9.99295831248e-07
1.23340810693e-06
1.06029484691e-06
1.20452471417e-06
1.14541041255e-06
1.20157097648e-06
1.25951645625e-06
1.13615121151e-06
1.41570177854e-06
8.04093797933e-07
1.57180990337e-06
4.37707933268e-07
1.37919340887e-06
3.28070125412e-07
1.06260705042e-06
2.56469509958e-07
9.94585126856e-07
1.70069648805e-07
9.74254486159e-07
8.28495414664e-08
9.392888623e-07
4.28786214502e-08
8.3917397745e-07
-1.3064806669e-08
8.02513880634e-07
-7.56042947727e-08
7.23834811095e-07
-1.31929203162e-07
6.17364758746e-07
-1.55646676172e-07
4.89110152358e-07
-1.3554100623e-07
3.55230250409e-07
-7.95497776571e-08
2.55312333103e-07
1.97242859939e-07
1.80177929209e-08
-2.30796702521e-07
2.5820816387e-08
-2.48486640087e-07
1.73580600853e-08
-2.01031820736e-07
3.67190027222e-08