/*--------------------------------*- C++ -*----------------------------------*\
| =========                 |                                                 |
| \\      /  F ield         | OpenFOAM: The Open Source CFD Toolbox           |
|  \\    /   O peration     | Version:  v1806                                 |
|   \\  /    A nd           | Web:      www.OpenFOAM.com                      |
|    \\/     M anipulation  |                                                 |
\*---------------------------------------------------------------------------*/
FoamFile
{
    version     2.0;
    format      ascii;
    class       volVectorField;
    location    "27";
    object      Ua;
}
// * * * * * * * * * * * * * * * * * * * * * * * * * * * * * * * * * * * * * //

dimensions      [0 1 -1 0 0 0 0];


internalField   nonuniform List<vector> 
6400
(
(0.000375042981817 0.000523256055218 0)
(0.00112068901243 0.000484345119267 0)
(0.00167076111915 0.000482318575714 0)
(0.00253164803923 0.000550583252374 0)
(0.0031818408636 0.00036540451292 0)
(0.00360762199937 4.59262046197e-05 0)
(0.00321580163118 -0.000115201754485 0)
(0.00280215423561 1.67599984961e-05 0)
(0.00320653987373 0.000213424617558 0)
(0.00421718729204 0.00026731960261 0)
(0.00360982713451 0.000194965590932 0)
(0.00471051437454 0.000486984606354 0)
(0.00572803901726 0.000692797675584 0)
(0.00703513372674 0.000604223406573 0)
(0.00691351339483 0.00031200014667 0)
(0.00691685306547 0.000549515543763 0)
(0.0080980118199 0.00104879356107 0)
(0.0091741225305 0.00107704493414 0)
(0.00918409166487 0.000403704013793 0)
(0.00856655543889 -0.000289408667154 0)
(0.00768330550477 -0.000435135885395 0)
(0.00677462973198 -0.00042260290728 0)
(0.0059984027215 -0.000320155142074 0)
(0.00506498425914 -4.8902250601e-05 0)
(0.00483455745262 -3.99238719323e-05 0)
(0.00456635484319 -0.00023716542041 0)
(0.00438211310159 -3.20693934854e-05 0)
(0.00467131144204 -0.000113384578113 0)
(0.00450170352259 -0.000235199473042 0)
(0.00458508320979 -0.000444851203288 0)
(0.00498171585314 -0.000822155413254 0)
(0.00811167435817 0.001658914887 0)
(0.0132513812753 0.00845474296584 0)
(0.0172754123125 0.019606276467 0)
(0.0215280715944 0.0337149633424 0)
(0.0295375201911 0.0453467319643 0)
(0.0432036914115 0.0649131881732 0)
(0.0663589615116 0.119244613831 0)
(0.078737030899 0.142000502986 0)
(0.090883121025 0.142401470276 0)
(0.10222035876 0.13336771633 0)
(0.11183352605 0.122706096109 0)
(0.119664457688 0.113329120357 0)
(0.125591529703 0.105964628591 0)
(0.129518940203 0.100239606154 0)
(0.131645837325 0.0927663684125 0)
(0.131750389555 0.0847445322834 0)
(0.129635429583 0.0771428379289 0)
(0.125146866089 0.0705331213036 0)
(0.118052607324 0.0657543670862 0)
(0.115069449792 0.0604194820715 0)
(0.0351762552979 0.0110750684538 0)
(0.0224823970548 0.00595555184877 0)
(0.0161461797194 0.00712910912265 0)
(0.00791752549901 0.00467690237174 0)
(0.00388695427574 0.00231158426291 0)
(0.00354197323593 0.00176860189882 0)
(0.00422934897887 0.00163709800936 0)
(0.00536480333529 0.00130535447341 0)
(0.00535810786653 0.000575059382204 0)
(0.00541465982308 0.000122501985243 0)
(0.00502052486296 -0.00055390343863 0)
(0.00409169283487 -0.0011935174398 0)
(0.00214389312018 -0.000733147415191 0)
(0.00102818916752 -0.000364133049929 0)
(0.000490120686999 -0.000213586466589 0)
(0.000215569015849 -0.000140423039707 0)
(5.82169101308e-05 -0.000110957865366 0)
(-5.4406820608e-05 -0.000101077465847 0)
(-0.000162605596777 -9.12101417428e-05 0)
(-0.00027523816409 -7.8961510674e-05 0)
(-0.000390263027656 -5.50177896615e-05 0)
(-0.000461209193766 -2.00399579565e-05 0)
(-0.000502512426878 2.30874737896e-05 0)
(-0.000477002729424 2.6352389605e-05 0)
(-0.000497254885494 2.78638231126e-05 0)
(-0.000372283327684 1.64402893334e-06 0)
(-0.000410825243032 2.07838885615e-05 0)
(-0.000208823757574 1.66696052751e-05 0)
(-0.000167876043926 -1.18111956902e-05 0)
(0.000124152126738 0.000653263594167 0)
(0.000543835483933 0.000803576538121 0)
(0.000961197118578 0.000826636782375 0)
(0.00117724589175 0.000645653799405 0)
(0.00185475553082 0.00064266644619 0)
(0.00290335385652 0.000447699619256 0)
(0.00393855732308 3.55847524766e-05 0)
(0.00450883281738 0.000216465968864 0)
(0.00497261111439 0.000675903268088 0)
(0.0056180253205 0.000667043725318 0)
(0.00621911614433 0.000782622131734 0)
(0.00684348693206 0.00121126862921 0)
(0.00725042487522 0.0012276964146 0)
(0.00743323799292 0.000801814413723 0)
(0.00813472207087 0.000487276584596 0)
(0.00860578116992 0.000876709270945 0)
(0.00855630569664 0.000845238291406 0)
(0.0077384177783 -0.000625628674272 0)
(0.0052000222637 -0.00112746306075 0)
(0.00532631142459 -0.00152570552758 0)
(0.00506178731398 -0.00154397432548 0)
(0.00480638552048 -0.00109055936042 0)
(0.0050932060594 -0.000933199136896 0)
(0.0062957054153 -0.00127538186721 0)
(0.00422191361569 -0.00083510790622 0)
(0.00520480199883 -0.000848136173787 0)
(0.00765156039048 -0.000775526359334 0)
(0.008837445234 -0.000757871452294 0)
(0.00869797447329 -0.00073338584035 0)
(0.00996374351313 0.00202358309067 0)
(0.0130244042815 0.00537306368348 0)
(0.0207949599796 0.0214135895016 0)
(0.0310049833902 0.0317690117347 0)
(0.062193619562 0.0549455274615 0)
(0.077226810648 0.0708131933355 0)
(0.0838498323841 0.0767580142046 0)
(0.0920586526387 0.0766679443907 0)
(0.111084625724 0.0781921437352 0)
(0.136355799256 0.0770767286834 0)
(0.150299648806 0.0763721426942 0)
(0.16174674916 0.0715351307891 0)
(0.169179184611 0.0656947454328 0)
(0.171774538032 0.0586700990201 0)
(0.169581318149 0.0499294776666 0)
(0.16336628341 0.0391661369124 0)
(0.154436715368 0.0263482462842 0)
(0.144154359178 0.0111518226537 0)
(0.132470309616 -0.00498827378437 0)
(0.120967676517 -0.0189295583149 0)
(0.110079466946 -0.0343102997381 0)
(0.100672621854 -0.0477602164552 0)
(0.0894308935165 -0.0645063362376 0)
(0.0850828590874 -0.0498036726425 0)
(0.0778023123364 -0.0361182305857 0)
(0.0725326184902 -0.0251357916118 0)
(0.0717832721896 -0.0142219354074 0)
(0.0648097745419 -0.00942923795704 0)
(0.0524990095472 -0.010485413744 0)
(0.0413505929129 -0.0112767371793 0)
(0.0286387598176 -0.0108729891382 0)
(0.0147087316172 -0.0067698587485 0)
(0.00562463957377 -0.00258407635689 0)
(0.00457024758233 -0.0027819173717 0)
(0.00215847732306 -0.00194027762951 0)
(0.00100700622549 -0.00103335237319 0)
(0.000429621757864 -0.000553746117419 0)
(0.000152370056595 -0.000391051828251 0)
(1.5759317227e-05 -0.000360503678502 0)
(-8.84225465204e-05 -0.000342846331826 0)
(-0.000195101663052 -0.000319817595991 0)
(-0.000309337761772 -0.000275270214554 0)
(-0.00043790829515 -0.00019570305631 0)
(-0.000513120874304 -0.00012749532467 0)
(-0.00056781331077 -7.91258402106e-05 0)
(-0.000579200619846 -3.74713232775e-05 0)
(-0.00057450811569 -1.46082643215e-05 0)
(-0.000530503935536 -1.85001824252e-05 0)
(-0.000482331993405 1.0534630233e-05 0)
(-0.000328212603984 4.18056608719e-05 0)
(-0.00010795599262 6.43005971917e-05 0)
(0.000189635442315 0.00111633985106 0)
(0.000522678834072 0.00132574830072 0)
(0.000838837082775 0.00138932552193 1.13062907877e-28)
(0.00178733561822 0.00166532919433 -1.25334013043e-28)
(0.00304410144081 0.00204578181416 -1.47584151178e-28)
(0.00345468537297 0.00160086093517 1.40184118754e-28)
(0.00353053924652 0.00066491313351 -1.42955399667e-28)
(0.0040576784263 0.000858774773241 1.71658588245e-28)
(0.00471306168742 0.00129255923256 0)
(0.00548526518585 0.00141770944394 0)
(0.00634518436826 0.00148443930588 0)
(0.00679467575551 0.00157034592902 0)
(0.00708023267987 0.00146842999725 0)
(0.00711801725863 0.00123272877138 0)
(0.00696841828891 0.000614375131605 0)
(0.00662791735149 -0.000499670260345 0)
(0.00311509991581 -0.000799810790367 0)
(0.00290424132759 -0.00108804320027 0)
(0.00287408958418 -0.0012167192343 0)
(0.00294368978127 -0.000989100497927 0)
(0.00379375518342 -0.000988012458021 0)
(0.00559286962508 -0.001066703824 0)
(0.00402614361507 -0.000619476860813 0)
(0.00464250496552 -0.000543733573414 0)
(0.00695555834717 -0.000276789308809 0)
(0.00923904863668 0.000842778603635 0)
(0.00865736909878 0.00120023101781 0)
(0.0108776388586 0.00318179967251 0)
(0.0131566663759 0.00663138309974 0)
(0.0187853705245 0.017381376941 7.86413129253e-28)
(0.027488825863 0.0284682138403 -9.9936869935e-28)
(0.0560449330505 0.058706976134 0)
(0.077138344378 0.0750867020046 0)
(0.0959613938311 0.0778894108834 0)
(0.112642433736 0.0694572734592 0)
(0.124999026806 0.0520467165132 0)
(0.133624588442 0.0406601209597 0)
(0.142433289811 0.0317684017298 0)
(0.148806906796 0.0227872963335 0)
(0.149744589501 0.0133443943255 0)
(0.145587516199 0.00367342967178 0)
(0.136911107929 -0.00604883996019 0)
(0.124762517897 -0.0154032412747 0)
(0.110627705032 -0.0236504615906 0)
(0.0961450670754 -0.0299416093132 0)
(0.0827243234762 -0.0336797217422 0)
(0.0714023988499 -0.0344570674177 0)
(0.0625690945402 -0.0324949357202 0)
(0.0557285758011 -0.0285047237014 0)
(0.0511406553481 -0.0236073319584 0)
(0.0490055339389 -0.0182556641346 0)
(0.0492706925341 -0.0127402360982 0)
(0.0503051493991 -0.00744105797031 0)
(0.0503928129336 -0.00405891072434 0)
(0.0498189756071 -0.00210453286119 0)
(0.048208792005 -0.00161086406078 0)
(0.0438698157013 -0.00388191657076 0)
(0.0368602869996 -0.00759119367612 0)
(0.0274192437369 -0.0110081136313 0)
(0.0199984159511 -0.0131315883808 0)
(0.0144810019781 -0.0127333076871 0)
(0.00917922738753 -0.0103027071888 0)
(0.00451036934072 -0.00634722730358 0)
(0.00169516691218 -0.00307047928629 0)
(0.000631812775204 -0.00136503064068 0)
(0.000280589778905 -0.000788101239755 0)
(9.14982340912e-05 -0.000581829088854 0)
(-5.51924076168e-05 -0.000491664955186 0)
(-0.000165879713372 -0.000434641437288 0)
(-0.000259807596017 -0.000380014322845 0)
(-0.000365352119164 -0.000311979276802 0)
(-0.000479151413949 -0.000241316259661 0)
(-0.000571241091262 -0.00020706173314 0)
(-0.000624321116186 -0.000139808410319 0)
(-0.000641151533923 -4.2836933412e-05 0)
(-0.000617304639631 -1.13501290825e-06 0)
(-0.000557467238074 3.77447195926e-06 0)
(-0.00048460548801 8.23105639823e-05 0)
(-0.000381595800241 0.000198975673038 0)
(-7.18607048432e-05 0.000290290284254 0)
(0.000196326620398 0.00178425223975 0)
(0.000167022098122 0.00102304553359 0)
(0.000774225424263 0.00233470629054 0)
(0.00211141354089 0.00293115047644 0)
(0.0023703473446 0.00213646429396 0)
(0.000811103507751 0.000490443365955 0)
(0.000906954309745 0.000475984962644 0)
(0.00198892648353 0.00140262685679 0)
(0.00414795338945 0.00251075306471 0)
(0.00501121096405 0.00239638750798 0)
(0.0062146776969 0.00238388654556 0)
(0.00658814679529 0.00205047957324 0)
(0.00645088568056 0.00132016820463 0)
(0.00558527499567 0.00013563817404 0)
(0.00340868053486 -0.000655299780602 0)
(0.00299247812864 -0.00107794267988 0)
(0.00287192436517 -0.00131679679648 0)
(0.00287585591177 -0.00120457576099 0)
(0.0032812897494 -0.000984547970054 0)
(0.00508785975963 -0.000722817084863 0)
(0.00529133418169 -0.000367695330977 0)
(0.00541825767961 -0.000372951199095 0)
(0.00660653106344 1.3356878994e-06 0)
(0.00903975411627 0.0013546038929 0)
(0.00969103402613 0.00181641365227 0)
(0.00957885595171 0.00249098301716 0)
(0.0102792763084 0.00519469707424 0)
(0.0159235861439 0.0100980093988 0)
(0.0201670311082 0.0198684538925 0)
(0.0360174348717 0.0343828448526 0)
(0.057536707237 0.0610077844633 0)
(0.0757612892191 0.0748307083983 0)
(0.0973684481806 0.0800759968271 0)
(0.116362837454 0.0766113052912 0)
(0.12808702173 0.0638584836834 0)
(0.135016041169 0.0496253408803 0)
(0.139156013897 0.0383891298394 0)
(0.140157837794 0.0292530352088 0)
(0.137650490038 0.0204763473598 0)
(0.131570592924 0.0115122312791 0)
(0.122426950863 0.00195190449466 0)
(0.111054965785 -0.00800667011137 0)
(0.0984260865159 -0.0177618809754 0)
(0.0854896257142 -0.026543635049 0)
(0.0730607497158 -0.0336837478883 0)
(0.0617965927495 -0.0387900988182 -1.18353380529e-27)
(0.0521063844057 -0.0418499947953 1.16828369559e-27)
(0.0441924896641 -0.0430221180909 0)
(0.0380919115061 -0.0426009456567 0)
(0.0337454362146 -0.0407939989713 0)
(0.0308403535884 -0.037911814993 0)
(0.0290539882462 -0.0341642418949 0)
(0.0277192540189 -0.0295811406463 0)
(0.0261184971556 -0.0251554803059 0)
(0.0241419117239 -0.0213247029886 0)
(0.0216556595146 -0.0176176729606 0)
(0.0181405063921 -0.0140120726037 0)
(0.0143005351599 -0.0140857846203 -8.97131032507e-28)
(0.0115668069222 -0.0137944959135 7.31852260508e-28)
(0.0114388995249 -0.0139139228462 0)
(0.0101543483515 -0.0135562074319 0)
(0.00717722685013 -0.0120336969628 0)
(0.00331771551977 -0.00879762405418 0)
(0.000964226834341 -0.00399886318108 0)
(0.000354071997211 -0.00177068775978 0)
(0.000114210731702 -0.00100210931013 0)
(-3.20049304413e-05 -0.00074717957902 0)
(-0.00014835358913 -0.000657159160488 0)
(-0.000248988179566 -0.000602197114662 0)
(-0.00033979602179 -0.00055830458559 0)
(-0.000443759944999 -0.000508316006757 0)
(-0.000559799375763 -0.000450833184163 0)
(-0.000648434512232 -0.000330476271337 0)
(-0.000661923674978 -0.000140023074899 0)
(-0.000641343347286 -1.70668672769e-05 0)
(-0.000583884747116 4.02032592882e-05 0)
(-0.000508400171074 0.000101508824099 0)
(-0.000357813870439 0.000210622519788 0)
(-0.000309948747378 0.00037543847769 0)
(-6.68803637498e-05 0.000485711016652 0)
(-1.4696284223e-05 0.00159685294038 0)
(4.03399749899e-05 0.00123759806323 0)
(0.000955417755602 0.00382722731947 0)
(0.00169981957866 0.00313344037035 0)
(0.00109780050876 0.00131892263086 0)
(0.000735779053812 0.000591609115855 0)
(0.0011902367492 0.0011930287044 0)
(0.00326569608128 0.00349253074173 0)
(0.00467098636149 0.00395234807875 0)
(0.00521673775592 0.00336841589699 0)
(0.00557392778179 0.0028154363574 0)
(0.00514707158914 0.00159018696274 0)
(0.00368495844692 2.59105483871e-05 0)
(0.00288554962341 -0.000673316140924 0)
(0.0030497992721 -0.00112543815778 0)
(0.00326366612203 -0.00133362456408 0)
(0.00360437371748 -0.00119061045726 0)
(0.00427688084588 -0.000662486193352 0)
(0.0063982161949 -2.74653274024e-05 0)
(0.0051557566054 -0.000199835948335 0)
(0.00526782714856 -0.00013502429879 0)
(0.00697501210886 0.000626615809455 0)
(0.00872356938666 0.00204847865742 0)
(0.00969791321195 0.00230981767934 0)
(0.0094886725346 0.00224768630038 0)
(0.0106554655821 0.00522884364923 0)
(0.0159867254196 0.0100045320189 0)
(0.0223149458665 0.0195888065138 0)
(0.039531876224 0.0332229662774 0)
(0.0665575254629 0.0583222597024 0)
(0.0819414791059 0.0676855338965 3.4361542667e-27)
(0.0993055975797 0.071912225998 -4.70093900342e-27)
(0.113604506316 0.0744341519904 0)
(0.124058225891 0.0663325949861 0)
(0.130194705645 0.0546947711571 0)
(0.132754559886 0.0443158460957 0)
(0.132461343334 0.0353257573018 0)
(0.129300217524 0.0263108432793 0)
(0.123522936656 0.0164195726713 0)
(0.115545855341 0.00568419536531 0)
(0.105844910775 -0.00551656200104 0)
(0.095013043321 -0.0164477830582 0)
(0.083688879213 -0.0262276197205 0)
(0.072534933015 -0.0341124778082 0)
(0.0621992286917 -0.0396929338849 0)
(0.053213476082 -0.0429344666604 0)
(0.0459005861454 -0.0441643179328 0)
(0.0403530681173 -0.043823913714 0)
(0.0364740697794 -0.0424367215672 0)
(0.0340266016544 -0.0405182568028 0)
(0.0327701574564 -0.0383922556349 0)
(0.0322723965746 -0.0359902715743 0)
(0.032005103266 -0.0335189380177 0)
(0.0313652157569 -0.0314389439206 0)
(0.0297284807746 -0.0291641635078 0)
(0.0259828875744 -0.0253669014018 0)
(0.0186139031934 -0.0172498720848 0)
(0.0154510235569 -0.0145509772724 0)
(0.013267799391 -0.0136177854253 0)
(0.0117442777242 -0.0132284450046 0)
(0.0101506156027 -0.0129265661502 0)
(0.00793377328523 -0.0125546798716 0)
(0.00209880766594 -0.00852022474966 0)
(-9.97826707201e-05 -0.00370129517072 0)
(4.30096750223e-05 -0.00160051843428 0)
(7.46630912168e-05 -0.00109832322268 0)
(-6.93269754674e-05 -0.000913656094464 0)
(-0.000222113794262 -0.000824033327318 0)
(-0.000349574523259 -0.000766276485003 0)
(-0.000449830432814 -0.000732630214856 0)
(-0.000555925897632 -0.000700919461127 0)
(-0.000661867868277 -0.000553735550517 0)
(-0.000700179298898 -0.000283890931467 0)
(-0.000702256584463 -0.000101588776799 0)
(-0.000658496456309 7.88171591748e-06 0)
(-0.000600692230136 0.000108628798383 0)
(-0.000515669195817 0.000239800104372 0)
(-0.000384883269094 0.000353787452758 0)
(-0.00028507940742 0.000537014888969 0)
(-3.1735368991e-05 0.000629965317672 0)
(-4.28120364001e-06 0.00145001812302 0)
(0.000119905275183 0.00156215312912 0)
(0.00103586080007 0.00432653543078 0)
(0.00108172892749 0.00245519945672 0)
(0.000625878166458 0.00086999503225 0)
(0.000749827628575 0.000825601578307 0)
(0.00209526894082 0.00267386808434 0)
(0.00445440455754 0.00516702598761 0)
(0.00461059654061 0.00436640599314 0)
(0.00462733639511 0.00338666016765 0)
(0.00403151266503 0.00200629408255 0)
(0.00247114566459 0.000426729349758 0)
(0.002225946867 -0.000327147389313 0)
(0.00254233709972 -0.000702935151942 0)
(0.00283506107292 -0.000858607261329 0)
(0.0034208683431 -0.000783389068668 0)
(0.00437058908651 -0.000218548254426 0)
(0.00658971868252 0.000484044207778 0)
(0.00455202484964 -0.000153699009227 0)
(0.00485815933514 -8.24518410514e-05 0)
(0.00676915544508 0.00116871061297 0)
(0.00828282387702 0.00299100592392 0)
(0.00888680268699 0.00341910115272 0)
(0.00804122923267 0.00353492825016 0)
(0.0114332248057 0.00533136762794 0)
(0.0138140583722 0.0107273030372 0)
(0.0223481688217 0.0228644628267 0)
(0.0367486781387 0.0344206870709 0)
(0.0742202082762 0.0668389850779 0)
(0.0886356887559 0.0743813205818 0)
(0.102524690915 0.077737488615 0)
(0.110605279732 0.0754635898236 0)
(0.118109679776 0.0693626163911 0)
(0.123519025168 0.0600513044625 0)
(0.126142970885 0.0506226029108 0)
(0.126034773653 0.0415351051953 0)
(0.123560551434 0.0319819912935 0)
(0.118910323073 0.0212235962537 0)
(0.112401864932 0.00913021465953 0)
(0.10436073185 -0.00380209072289 0)
(0.0951123784496 -0.0168123522626 0)
(0.0850977544105 -0.0290002391177 0)
(0.0748770748029 -0.0395226170688 0)
(0.065106522024 -0.0477616740313 0)
(0.056440856318 -0.0534126054277 0)
(0.0493996997394 -0.0564752795277 0)
(0.0442502623906 -0.0572083017048 0)
(0.0410134131572 -0.0560470035128 0)
(0.0394896621543 -0.0533877815732 0)
(0.039340907563 -0.049657741876 0)
(0.0402424912242 -0.0453789080825 0)
(0.041848192896 -0.0411903866571 0)
(0.0435985948128 -0.0375209763088 0)
(0.0448037163716 -0.0345123714452 0)
(0.0444505404716 -0.031627164375 0)
(0.0406260135312 -0.0275015879313 0)
(0.0332403323703 -0.0217721547005 0)
(0.0288575722405 -0.0185320520764 0)
(0.0251097063993 -0.0167798376726 0)
(0.0218513353835 -0.015697784884 0)
(0.0213109844622 -0.0170551860084 0)
(0.0268540134353 -0.0215373088658 0)
(0.0440916498101 -0.00608748278185 0)
(0.00540718119918 -0.0038084200395 0)
(0.000353340751525 -0.00153610456671 0)
(0.000283049919334 -0.00125738446642 0)
(-6.73088094897e-06 -0.00109804076548 0)
(-0.000258368049588 -0.00100027059482 0)
(-0.00044651717493 -0.000938898393935 0)
(-0.000584637445682 -0.000940769900736 0)
(-0.000690015628196 -0.000855304136127 0)
(-0.000741244581566 -0.000543537726236 0)
(-0.000761237085395 -0.000271341843533 0)
(-0.000764910998829 -0.000119197432408 0)
(-0.000712798119443 2.63410043248e-05 0)
(-0.000670229187685 0.000200964545575 0)
(-0.000561953117935 0.000356959754365 0)
(-0.000419140977961 0.000452804424182 0)
(-0.000325882486542 0.000655323982063 0)
(-6.51987257561e-05 0.000772020321024 0)
(6.48091354734e-05 0.00159741924502 0)
(0.000438628179335 0.00231565293676 0)
(0.00158853626623 0.00482851858943 0)
(0.00144462714344 0.00340599173412 0)
(0.000646118613585 0.000976228368864 0)
(0.00129839070868 0.00178117903831 0)
(0.00363279131052 0.00513144839014 0)
(0.00443046560114 0.00559597238138 0)
(0.00415388642926 0.00407966311983 0)
(0.00304616877389 0.00239573511809 0)
(0.00351624360268 0.00146913947869 -6.0659799689e-28)
(0.00202247354049 2.1774537903e-06 2.2822070445e-28)
(0.00253373176835 -0.000331179352182 0)
(0.00263314897398 -0.000491845761355 0)
(0.00305621113568 -0.000443215266147 0)
(0.00402730895789 0.000176139821738 0)
(0.00625669795699 0.000995934080279 0)
(0.00402389985654 1.36933651223e-05 0)
(0.00425437964657 -0.000237050919788 0)
(0.00594761109212 0.00108314547718 0)
(0.00733202203028 0.00296047024414 0)
(0.00881823097307 0.00381399699285 0)
(0.00857806706071 0.00348692480749 0)
(0.00953030672545 0.00525875052984 0)
(0.010326182215 0.00999747266676 0)
(0.0210575808017 0.025688661636 0)
(0.0296888111099 0.0333581944213 0)
(0.0760054698348 0.0756249309467 0)
(0.0920654831642 0.0845885257097 0)
(0.104247759804 0.0871643881689 0)
(0.10919773084 0.0830622575544 0)
(0.11284492437 0.0750793093655 -2.64277905144e-27)
(0.116871781971 0.0666966078664 1.97682608622e-27)
(0.119544759248 0.057739923634 0)
(0.120110909209 0.0487152855408 0)
(0.118582288436 0.0389877213885 0)
(0.115210006981 0.0278708601803 0)
(0.110165635802 0.0151607806899 0)
(0.103655134402 0.00119290560486 0)
(0.0958934739053 -0.0132637420446 0)
(0.0871744773281 -0.02726093974 0)
(0.07797132248 -0.0398011597034 0)
(0.0689258516312 -0.0499929233465 0)
(0.0607658569114 -0.0571910939806 0)
(0.0541482924105 -0.0610946664074 0)
(0.0495060512144 -0.0617761076039 0)
(0.0469898847469 -0.0596515659979 0)
(0.046461594253 -0.0553976235832 0)
(0.0475624115446 -0.0497857601817 0)
(0.0498098675242 -0.0436273051176 0)
(0.0526986596474 -0.0377500181064 0)
(0.0558671002316 -0.0327484074696 0)
(0.0588853298853 -0.0289734356264 0)
(0.0612886814678 -0.026694027613 0)
(0.062429506276 -0.0259639970632 0)
(0.0614270741615 -0.026527116528 0)
(0.0575149506045 -0.0276022399859 0)
(0.0509756626882 -0.0278512894039 0)
(0.0428886970534 -0.027622052598 0)
(0.0343359109986 -0.0265698761955 0)
(0.0269380027743 -0.0240914132833 0)
(0.0228254228612 -0.0195870595237 0)
(0.0210543546894 -0.0155168526005 0)
(0.0137696520808 -0.0086502991776 0)
(0.00120491921823 -0.00268260245389 0)
(0.00044311158829 -0.00173051275828 0)
(-1.59708482594e-05 -0.00145699858433 0)
(-0.000348449216659 -0.00130899391241 0)
(-0.000595554036196 -0.0012147519401 0)
(-0.000748046412882 -0.00113548183387 0)
(-0.000810732965801 -0.000885338903483 0)
(-0.000822544185233 -0.000532135796976 0)
(-0.000863927573636 -0.000315646543867 0)
(-0.00085895999989 -0.000141102715033 0)
(-0.000824289557427 5.83426615779e-05 0)
(-0.000770569175921 0.000296016130961 0)
(-0.000679041036945 0.00047123191599 0)
(-0.000471454006878 0.000565268798333 0)
(-0.000377568993901 0.000773449984868 0)
(-9.34026315086e-05 0.000904990630209 0)
(0.00010374136164 0.00190803002426 0)
(0.000835786852431 0.00338838242376 0)
(0.00200660465185 0.00464718365856 0)
(0.000694988894335 0.00149869290369 0)
(0.000654128660033 0.00122723869927 0)
(0.0021490084939 0.0035996331404 0)
(0.00356856726857 0.0056691625656 0)
(0.00418442029051 0.00574856826733 0)
(0.0029228757636 0.00305608405318 0)
(0.00300913753344 0.00221620034642 0)
(0.00186556968207 0.000676981584182 0)
(0.0022981954274 2.61715804729e-05 0)
(0.00259723843866 -0.000126734476702 0)
(0.00268728927554 -0.000155427119079 0)
(0.00347478519653 0.000334756866595 0)
(0.00558416435244 0.0014058536375 0)
(0.00376951030085 0.000570832998766 0)
(0.00397491092606 -1.59427518974e-05 0)
(0.00482330209836 0.000714475407376 0)
(0.00725383695852 0.00284316839466 0)
(0.00800715635645 0.0039991137498 0)
(0.00665555193595 0.00303320740049 0)
(0.00856378783077 0.00424958693165 0)
(0.00923702688876 0.00848527883114 0)
(0.01487786905 0.0175662052877 0)
(0.0232035158134 0.0315972469072 0)
(0.0571846238409 0.0666583073985 0)
(0.0868214262571 0.0906683515092 0)
(0.0997505380359 0.0956311768997 0)
(0.106580811709 0.0929923048089 0)
(0.109102280266 0.0838534604772 0)
(0.110873054723 0.0744712935067 0)
(0.113128465982 0.0657406418257 0)
(0.114197706847 0.0568244215907 0)
(0.113621892822 0.0472443968944 0)
(0.111445889324 0.0362290245426 0)
(0.107821807498 0.0233990581837 0)
(0.10284144268 0.00890681968792 0)
(0.0966249107745 -0.00664831122483 0)
(0.0893594326148 -0.0223385515291 0)
(0.0813828260537 -0.0370842021422 0)
(0.0732331617879 -0.0497781636791 0)
(0.0655887171711 -0.0594406988868 0)
(0.0591410242661 -0.0653802647595 0)
(0.0544316736538 -0.0673290825623 -7.50165849912e-28)
(0.0517226227132 -0.0655020684956 7.506156576e-28)
(0.0509797866814 -0.060562844761 0)
(0.051885883809 -0.0535087339099 0)
(0.0539480524422 -0.0454381676783 0)
(0.0565770738144 -0.0374253196347 0)
(0.0592087205151 -0.0303622940385 0)
(0.0613542234919 -0.0249196466245 0)
(0.0627553336594 -0.0211806173418 0)
(0.063018046433 -0.0191241905021 0)
(0.061841073584 -0.0185985326155 0)
(0.0589783947947 -0.0193928712001 0)
(0.0543781372944 -0.0213531965338 0)
(0.0482903275398 -0.0243662259262 0)
(0.0412660058716 -0.0279391703324 0)
(0.0340363016417 -0.0314406260078 0)
(0.0273091907203 -0.0339397413411 0)
(0.0219710820166 -0.0341070582322 0)
(0.0179982708981 -0.0309927053589 0)
(0.0128923797287 -0.0239179530888 0)
(0.00413085778296 -0.00692294505594 0)
(0.000481666402407 -0.00260956207285 0)
(-0.000163690954163 -0.00189971614305 0)
(-0.000516252086831 -0.00161360629841 0)
(-0.000760297532657 -0.001428663591 0)
(-0.000880701270875 -0.00122412896475 0)
(-0.000907757392951 -0.00088969432429 0)
(-0.000936988703817 -0.000586311103639 0)
(-0.000992255979238 -0.000388314332003 0)
(-0.000993351893081 -0.000171776191268 0)
(-0.000980030981993 9.26894576511e-05 0)
(-0.000913099071442 0.000366679107311 0)
(-0.000827148399705 0.000565802970485 0)
(-0.000573328990793 0.000693047147418 0)
(-0.000414151487482 0.000894000027186 0)
(-9.90303315791e-05 0.00103214515286 0)
(0.000122693836711 0.00230524925601 0)
(0.0012571531888 0.00473184599958 0)
(0.00177059170227 0.00432759168087 0)
(0.000773688022561 0.00163061188526 0)
(0.00113012942593 0.00198384901525 0)
(0.00309667147757 0.00550288679714 0)
(0.00312851484144 0.00613920175602 0)
(0.00388445096708 0.00561616386353 0)
(0.00202906464795 0.00229334713863 0)
(0.00373175754123 0.00252061791446 0)
(0.00201614301472 0.000598315466423 0)
(0.00259878787021 0.000323833991231 0)
(0.00271265556454 0.000156324939933 0)
(0.00302959570868 0.000367022733188 0)
(0.00444841470386 0.00161879049785 0)
(0.00604955612906 0.00186335011473 0)
(0.00387314629301 0.000374920754682 0)
(0.004500494924 0.000580161387574 0)
(0.00570974876399 0.00217042656989 0)
(0.00720916924136 0.00398641618993 0)
(0.00843436377919 0.00462902958955 0)
(0.00606313590623 0.00334575967269 0)
(0.00790416284127 0.00629877449051 0)
(0.00766011412673 0.012296240944 0)
(0.0191648341199 0.0352569827294 0)
(0.0273236008848 0.0433877156146 0)
(0.0809852086882 0.100162291657 0)
(0.0951580442184 0.106173128467 0)
(0.102349801033 0.105145225272 0)
(0.104866049175 0.0942707987498 0)
(0.10598035017 0.0833280349292 0)
(0.107071729627 0.0740686482447 0)
(0.108254044969 0.0653462501768 -1.35765293076e-27)
(0.108407517496 0.0561001376336 1.16914426227e-27)
(0.107275076642 0.0455617612937 0)
(0.10490804838 0.0331142584782 0)
(0.101370969239 0.0186509550164 0)
(0.0966952370385 0.00255890980716 0)
(0.0909741450917 -0.0143772530151 0)
(0.0844261765997 -0.031075984138 0)
(0.0774569160783 -0.0462978215539 0)
(0.070653593954 -0.0587899790531 0)
(0.0646856709545 -0.0674794178397 0)
(0.0601588143258 -0.0716863787983 0)
(0.0574701460836 -0.0713020534626 0)
(0.0567080971103 -0.0668664409218 0)
(0.0576323090603 -0.059467091326 0)
(0.0597599549216 -0.0505197420823 0)
(0.0624402796476 -0.0414513719133 0)
(0.0650273922218 -0.0333957784839 0)
(0.066982922628 -0.0271996148882 0)
(0.0679491523491 -0.0232547653531 0)
(0.0677288269793 -0.0215480842332 0)
(0.0661385924622 -0.0219750550506 0)
(0.063116573517 -0.0241475362137 0)
(0.0586857902866 -0.0274832348264 0)
(0.053054966906 -0.0312927318523 0)
(0.0466388816025 -0.0349237344267 0)
(0.0399457210568 -0.0378930671143 0)
(0.0334914850858 -0.0398632779185 0)
(0.0278349349257 -0.0405281135359 0)
(0.0233853757962 -0.0395100511075 0)
(0.0202588926557 -0.0364513021287 0)
(0.0167720130473 -0.0309413156241 0)
(0.00985182938654 -0.0211743766096 0)
(0.00226434240806 -0.00460705976384 0)
(-0.000421565241992 -0.00225424930614 0)
(-0.00078241733229 -0.00202963979415 0)
(-0.00093956549377 -0.00163359512739 0)
(-0.00100795216654 -0.00128434372462 0)
(-0.00103237373627 -0.000936070875548 0)
(-0.00108860770064 -0.000690099586764 0)
(-0.00114548985762 -0.000478334970049 0)
(-0.00116231176642 -0.000211247341532 0)
(-0.00115253583297 0.000108801550219 0)
(-0.00109982049005 0.000406709235342 0)
(-0.000975247950232 0.000654087867958 0)
(-0.000715715876223 0.000857436604768 0)
(-0.000463360389007 0.001077404685 0)
(-7.54840902707e-05 0.00123164475864 0)
(0.000177885458203 0.00291118816746 0)
(0.00176055963664 0.00621523805706 0)
(0.00156747012298 0.00359851670232 0)
(0.000819717604058 0.00161663510741 0)
(0.00206616508456 0.00351109124221 0)
(0.00226562267132 0.00451683744208 0)
(0.00275575626107 0.00665951056496 0)
(0.00295594961196 0.00501488087246 0)
(0.00169170004699 0.00203238806502 0)
(0.0026733133173 0.00184376208343 0)
(0.00210457092645 0.000633672041057 0)
(0.00266723124105 0.000589376199226 0)
(0.00273500861892 0.000505430379451 0)
(0.00333321853006 0.00110308259535 0)
(0.00552366303185 0.00273189517397 0)
(0.00348981278718 0.00120038999363 0)
(0.00385711962603 0.000518771293527 0)
(0.00451113186806 0.00124558838428 0)
(0.00614899355958 0.0034024316199 0)
(0.00674770491007 0.00471670509245 0)
(0.00818684289246 0.00463315171931 0)
(0.00562714192882 0.0040113224397 0)
(0.00963359396564 0.0103388318661 0)
(0.00897636089796 0.0166005938323 0)
(0.0192525823693 0.0394559235623 0)
(0.0461353388459 0.0751382528752 0)
(0.0883237179246 0.113865199617 0)
(0.0976753001586 0.11774998862 0)
(0.10033723562 0.107707176529 0)
(0.101172496581 0.0928583342296 0)
(0.101727764593 0.0823371263756 0)
(0.102375403324 0.0735967800041 0)
(0.1028788452 0.0648966032705 0)
(0.102533199847 0.0551477736345 0)
(0.101200959211 0.0435842931862 0)
(0.0989076673288 0.0297922565063 0)
(0.0956549207482 0.0138750456592 0)
(0.0914525382638 -0.00360024710339 0)