/*--------------------------------*- C++ -*----------------------------------*\
| =========                 |                                                 |
| \\      /  F ield         | OpenFOAM: The Open Source CFD Toolbox           |
|  \\    /   O peration     | Version:  v1806                                 |
|   \\  /    A nd           | Web:      www.OpenFOAM.com                      |
|    \\/     M anipulation  |                                                 |
\*---------------------------------------------------------------------------*/
FoamFile
{
    version     2.0;
    format      ascii;
    class       volVectorField;
    location    "303";
    object      Ua;
}
// * * * * * * * * * * * * * * * * * * * * * * * * * * * * * * * * * * * * * //

dimensions      [0 1 -1 0 0 0 0];


internalField   nonuniform List<vector> 
6400
(
(5.33757361937e-05 7.40012295598e-05 0)
(0.000148740261534 5.87975111956e-05 0)
(0.000219077609552 4.9727974264e-05 0)
(0.000300806658102 4.6172187758e-05 0)
(0.000359963084338 3.00532213304e-05 0)
(0.000401707974748 1.62387690624e-05 0)
(0.000418998525046 1.0859112893e-05 0)
(0.000430457925625 1.84509386409e-05 0)
(0.000486285446982 2.88215751668e-05 0)
(0.000546684767507 2.83555457933e-05 0)
(0.000563723731617 2.52795571466e-05 0)
(0.000620246204584 2.90336651662e-05 0)
(0.000670929313806 2.77471827249e-05 0)
(0.000712784766189 2.34655854243e-05 0)
(0.000742020697387 2.11751495373e-05 0)
(0.000774036020417 2.41144132424e-05 0)
(0.000817576820341 2.54405976011e-05 0)
(0.000854519964004 2.29772857122e-05 0)
(0.000879662713926 1.83455553813e-05 0)
(0.000900861882074 1.54981505009e-05 0)
(0.000930244581322 2.07908708233e-05 0)
(0.000971373742542 2.77097374867e-05 0)
(0.0010192313879 3.04582969337e-05 0)
(0.0010643081196 3.12746282308e-05 0)
(0.00110851134109 3.00334756177e-05 0)
(0.00115110023233 2.78232464794e-05 0)
(0.00119501725829 2.77276984968e-05 0)
(0.00123718149846 2.70149579514e-05 0)
(0.00127408847661 2.50635731378e-05 0)
(0.00130653514792 2.34418143294e-05 0)
(0.00133429883431 2.38197009101e-05 0)
(0.00136538692562 2.36215527419e-05 0)
(0.00139779039015 2.1964760129e-05 0)
(0.00142623524541 2.28698816992e-05 0)
(0.00145352096932 2.30453398455e-05 0)
(0.00148998360696 2.36855465091e-05 0)
(0.00152677794149 2.59810874471e-05 0)
(0.00154292092946 2.51576440351e-05 0)
(0.00157677786344 2.37911067648e-05 0)
(0.0016231113633 2.6233565267e-05 0)
(0.00166757359255 3.67356849501e-05 0)
(0.0017051681231 3.9571310837e-05 0)
(0.00173925395302 2.72640202918e-05 0)
(0.00176586161759 1.92294358134e-05 0)
(0.00178317993054 1.61849146699e-05 0)
(0.00179595773463 1.29125934271e-05 0)
(0.00180321895583 1.00206470953e-05 0)
(0.00180298414062 6.12561925151e-06 0)
(0.00179630633984 3.16135308842e-06 0)
(0.00178533021042 6.72712422285e-06 0)
(0.0017781391563 1.70869921204e-05 0)
(0.00180068041451 1.72062071588e-05 0)
(0.00178757091407 -9.76625385172e-06 0)
(0.00176042799588 -2.0832181257e-05 0)
(0.00170651807633 -2.89145086095e-05 0)
(0.00158649340745 -4.87582045727e-05 0)
(0.00146775899542 -4.18238950655e-05 0)
(0.00140186852743 -2.60327083386e-05 0)
(0.00136914710248 -3.27100809559e-05 0)
(0.00124263997467 -3.79361037708e-05 0)
(0.001169239984 -2.29966567607e-05 0)
(0.00108724335932 -3.97366607652e-05 0)
(0.00109155271429 -9.10217879685e-05 0)
(0.000820163484827 -8.04809175899e-05 0)
(0.000652236197975 -5.25385686244e-05 0)
(0.00056452300326 -3.63438165595e-05 0)
(0.000507061911407 -3.33868094379e-05 0)
(0.000459048433082 -3.23890625214e-05 0)
(0.000408632945344 -3.25174484827e-05 0)
(0.000347707452037 -3.28274487136e-05 0)
(0.000286419994681 -3.15218162514e-05 0)
(0.000225248405174 -2.80724276854e-05 0)
(0.000172833801771 -2.45004954693e-05 0)
(0.000135720088476 -2.20827605522e-05 0)
(9.09355298141e-05 -1.55785178558e-05 0)
(7.01634239622e-05 -1.19994861607e-05 0)
(4.16735150235e-05 -6.7925623998e-06 0)
(3.86433763938e-05 -7.36867002588e-06 0)
(1.55386968587e-05 -4.2602426256e-06 0)
(1.12378127958e-05 -7.24530012996e-06 0)
(1.98331388847e-05 0.000100879475181 0)
(8.57472731454e-05 0.000114950166441 0)
(0.000150276815322 0.00010681981455 0)
(0.000190924034608 8.53663678217e-05 0)
(0.000282609522799 8.5040618854e-05 0)
(0.000374019370851 6.0791706933e-05 0)
(0.000429183926532 3.66355428346e-05 0)
(0.000466044169814 5.06654308892e-05 0)
(0.000505206627397 6.95662089388e-05 0)
(0.000549906257777 6.85923042704e-05 0)
(0.000593238844137 6.52399278595e-05 0)
(0.000633397128058 6.62605297825e-05 0)
(0.000671261609454 6.04157676932e-05 0)
(0.000706449308791 5.15457202406e-05 0)
(0.000743138486585 4.7851576569e-05 0)
(0.000780182124518 5.95964526007e-05 0)
(0.000818406917283 6.40452126737e-05 0)
(0.000848450055267 4.31776354607e-05 0)
(0.000839430081301 2.81574582815e-05 0)
(0.000866970747301 2.85836856357e-05 0)
(0.00090738523461 4.53222630402e-05 0)
(0.000957784543227 6.8580151526e-05 0)
(0.00101924860546 7.6031932806e-05 0)
(0.00107190644414 6.9246625693e-05 0)
(0.00109946964226 6.38419596542e-05 0)
(0.00115096653703 6.27943301489e-05 0)
(0.0011987779267 5.98666888887e-05 0)
(0.00123704222464 5.45862267533e-05 0)
(0.0012716922876 4.91735058672e-05 0)
(0.00130463786139 4.49981554118e-05 0)
(0.00133585953987 4.42997470202e-05 0)
(0.0013552460481 4.2526203319e-05 0)
(0.00138641290058 3.64053040048e-05 0)
(0.00141178922247 3.99806730312e-05 0)
(0.00143260742054 4.51394979002e-05 0)
(0.00148421686735 4.12302133072e-05 0)
(0.00151029265547 4.52445862064e-05 0)
(0.00152859541305 5.04338084017e-05 0)
(0.0015731575543 4.89282783875e-05 0)
(0.00163800020531 4.71385310589e-05 0)
(0.00168732526415 4.07925946731e-05 0)
(0.00160534824929 3.08081176004e-05 0)
(0.0015879710038 2.63217899488e-05 0)
(0.00162007740725 2.49069689708e-05 0)
(0.00164198696648 2.29425549651e-05 0)
(0.00167268424517 1.92030964241e-05 0)
(0.00170655164077 1.26586006705e-05 0)
(0.00172635631544 3.9335547941e-06 0)
(0.00175315484069 -5.27142144966e-06 0)
(0.00176665927757 -1.22044388336e-05 0)
(0.00174615982118 -1.36069300992e-05 0)
(0.00167459386489 -1.60009446302e-05 0)
(0.00160863872301 -2.29371904385e-05 0)
(0.00175822143529 -4.93278180703e-05 0)
(0.0016804083242 -9.59154442728e-05 0)
(0.00161678755653 -0.000124124659424 0)
(0.00163822005522 -0.000117817676972 0)
(0.00159287563291 -0.00010209089023 0)
(0.00152590277222 -0.000117121308096 0)
(0.00146102956131 -0.000141028800678 0)
(0.00140677217626 -0.000162213078897 0)
(0.00106950335376 -0.000164152894901 0)
(0.0010999344727 -0.00025235859249 0)
(0.000828368034211 -0.000236180013758 0)
(0.000663854836344 -0.000172837020265 0)
(0.000540297982533 -0.000119090514612 0)
(0.000468225984845 -9.06853866383e-05 0)
(0.000437925379073 -8.55611317049e-05 0)
(0.000389726712933 -8.99904942014e-05 0)
(0.000336204945837 -9.61600000352e-05 0)
(0.000272513766495 -9.4615327656e-05 0)
(0.00021058987177 -8.37223470958e-05 0)
(0.000155143741545 -6.64413210643e-05 0)
(0.000122983924814 -5.63609082565e-05 0)
(9.23342016611e-05 -4.54690377464e-05 0)
(6.86206154357e-05 -3.57221533368e-05 0)
(4.90915625191e-05 -2.6443572205e-05 0)
(3.43596242223e-05 -2.14348194474e-05 0)
(1.97740730648e-05 -1.86436604713e-05 0)
(8.54613349796e-06 -2.66677266529e-05 0)
(2.98368050465e-05 0.000175049324037 0)
(8.355730493e-05 0.000192811448163 0)
(0.000128052577149 0.000183415766161 8.18396160227e-29)
(0.000225888678561 0.000191515834029 -7.88431351328e-29)
(0.000320741680306 0.000194157323709 -7.22924882289e-29)
(0.000374808576862 0.000157270343902 6.67303754918e-29)
(0.000411467511884 8.3963675065e-05 -6.79791277741e-29)
(0.000449753977653 9.2697267591e-05 6.77752058343e-29)
(0.000491737306853 0.000114600216507 0)
(0.000539678850648 0.000118720301513 0)
(0.000587429342975 0.000113220408596 0)
(0.000629175325151 0.000106192927689 0)
(0.000666857189786 9.69671789004e-05 0)
(0.00070084499724 9.1155184926e-05 0)
(0.000735633396143 8.77106029109e-05 0)
(0.000771732779918 7.71724032506e-05 0)
(0.000684083125545 5.34735107983e-05 0)
(0.000661544712808 4.02358821426e-05 0)
(0.000688892938344 4.86689245507e-05 0)
(0.000748694231178 8.11606544069e-05 0)
(0.000890812614792 0.000122225369505 0)
(0.000976495768592 0.000137331478825 0)
(0.0010029397891 0.000129560523177 0)
(0.00105550419787 0.000119786568105 0)
(0.00111104836535 0.000114314551122 0)
(0.00115341365446 0.000110473471709 0)
(0.00119205900883 0.000102483179306 0)
(0.00123028136687 9.36532581436e-05 0)
(0.00126532344459 8.58295047522e-05 0)
(0.0012949839332 8.0093540377e-05 1.44889898236e-28)
(0.00133016797124 7.49540742712e-05 -1.40790457364e-28)
(0.00134080366388 7.04894595743e-05 0)
(0.00136475877375 6.55440916477e-05 0)
(0.00141518295832 6.21421857033e-05 0)
(0.00138945820506 7.41685471281e-05 0)
(0.00143881403354 8.37084217015e-05 0)
(0.00151472612336 8.06432890441e-05 0)
(0.00149567185379 8.75813124946e-05 0)
(0.00155261048121 0.000103554709757 0)
(0.00163274579824 9.91602420331e-05 0)
(0.00168709043874 6.42844099544e-05 0)
(0.00171617808605 3.87438752338e-05 0)
(0.00174197264799 4.43353465136e-05 0)
(0.00176573540706 5.12126165028e-05 0)
(0.00178354683593 5.06475135242e-05 0)
(0.00179670094888 4.61986753999e-05 0)
(0.00180599898571 3.63108015762e-05 0)
(0.00181164953915 2.38030639036e-05 0)
(0.00181395133714 8.54782706001e-06 0)
(0.0018128820761 -1.24325178961e-05 0)
(0.00180911747667 -3.45206714337e-05 0)
(0.00180121812474 -4.40389755361e-05 0)
(0.00178295412147 -3.32650006729e-05 0)
(0.00172941694297 -6.38649408469e-05 0)
(0.00165391119642 -0.000117453876892 0)
(0.0016560825361 -0.000138753004122 0)
(0.00163272196973 -0.000145245230743 0)
(0.00157354092155 -0.000159535934995 0)
(0.00149965502462 -0.00018454935851 0)
(0.00141742281447 -0.000225282896587 0)
(0.00131320260731 -0.000295833621901 0)
(0.00119585463504 -0.000365259416407 0)
(0.00109971503688 -0.000474373942837 0)
(0.000791589691787 -0.000414414256768 0)
(0.000584813031288 -0.000272080406181 0)
(0.000511088870146 -0.000195269412253 0)
(0.000464053095619 -0.000158107342956 0)
(0.000408150940492 -0.000143538926101 0)
(0.000354127105721 -0.00014841878513 0)
(0.000296333566656 -0.000155320480766 0)
(0.000234308193008 -0.000149119781431 0)
(0.000179675933762 -0.000129681038636 0)
(0.000140770056653 -0.000109362896126 0)
(0.000109018449882 -9.21885603646e-05 0)
(8.01815354584e-05 -7.51943908813e-05 0)
(5.55944114648e-05 -5.91538370189e-05 0)
(3.60915002099e-05 -4.50790534171e-05 0)
(2.34895438118e-05 -3.72918685789e-05 0)
(1.45633783649e-05 -3.7527549053e-05 0)
(3.21532188497e-06 -3.30606448112e-05 0)
(2.914993544e-05 0.000264881736778 0)
(3.7112694753e-05 0.000173437828041 0)
(0.000105106984452 0.000280520919903 0)
(0.000199971488512 0.000287731364491 0)
(0.000273704811456 0.000243225672392 0)
(0.000147412570876 8.91648352825e-05 0)
(0.000182975635762 9.11215461159e-05 0)
(0.000357271414651 0.00017682219673 0)
(0.000456984850279 0.000192986113093 0)
(0.000517355071107 0.000176998822286 0)
(0.000574885422224 0.000164405783423 0)
(0.000622207713986 0.000149560315953 0)
(0.000661167151182 0.000134460249398 0)
(0.000686436939204 0.000108783328132 0)
(0.000636630960537 7.00557899351e-05 0)
(0.000597535595729 4.40217137689e-05 0)
(0.000600770344862 4.14899175382e-05 0)
(0.000649195931401 7.25567802695e-05 0)
(0.000760172613141 0.000127863300613 0)
(0.000882299353481 0.000188459064705 0)
(0.000922455359185 0.000202604863767 0)
(0.000965013625786 0.000190381029773 0)
(0.00101661562528 0.000179108710063 0)
(0.0010630306828 0.000170609533406 0)
(0.00110499073329 0.000160318250841 0)
(0.0011440607486 0.000149409059714 0)
(0.0011801771462 0.000139249479827 0)
(0.00122233477737 0.000129142939046 0)
(0.00125093214541 0.000118617898171 0)
(0.00129173847359 0.00011028998565 0)
(0.00130368377509 0.000101343207279 0)
(0.00134571716061 9.26958721224e-05 0)
(0.00133290864628 8.03246634806e-05 0)
(0.00136162306945 8.47604341089e-05 0)
(0.00143399425041 0.000103195403299 0)
(0.00141881065474 0.00012050386806 0)
(0.00148995948518 0.000130473366335 0)
(0.00157227949142 0.00014109241115 0)
(0.00161363344786 0.000153938515116 0)
(0.00164659852792 0.000141841351037 0)
(0.00168075331549 0.000107797637844 0)
(0.00171238349739 7.94543643089e-05 0)
(0.00174076116027 7.05331481499e-05 0)
(0.00176493455213 6.82687208765e-05 0)
(0.0017834793844 6.32986858417e-05 0)
(0.0017973693018 5.45176771753e-05 -1.39423581703e-28)
(0.00180740319551 4.17970892757e-05 1.40448372984e-28)
(0.00181376880232 2.597094813e-05 0)
(0.00181649101239 7.08599250001e-06 0)
(0.0018153523846 -1.49908272472e-05 0)
(0.00180965136624 -3.73014336536e-05 0)
(0.00179644597093 -5.64791508225e-05 0)
(0.00177121315502 -7.82551916324e-05 0)
(0.00173266077996 -0.000115532981695 0)
(0.00169205491344 -0.000149575366918 0)
(0.00165500875944 -0.000171892763339 0)
(0.00160766497027 -0.000199801144558 0)
(0.00153995680046 -0.000234180378751 -2.70694775758e-28)
(0.00145222478951 -0.00027744238077 3.08799827364e-28)
(0.00134512259653 -0.000336537298293 0)
(0.00121844750739 -0.000413517530063 0)
(0.00108323792258 -0.000506161835073 0)
(0.000968040877039 -0.000623229677878 0)
(0.000794130894777 -0.000599259707061 0)
(0.000627874490222 -0.000425061597128 0)
(0.000489132608845 -0.000269350281003 0)
(0.000419909663056 -0.000213254256438 0)
(0.000366394515619 -0.000201266335286 0)
(0.000313508917332 -0.000206294700979 0)
(0.000263164671613 -0.00021668229328 0)
(0.000206975253411 -0.000209995016639 0)
(0.000154126713973 -0.000183983273018 0)
(0.000111452743708 -0.000151170086689 0)
(7.61149299863e-05 -0.000118008512742 0)
(5.16200372589e-05 -9.67233309463e-05 0)
(3.10449573508e-05 -8.08701588657e-05 0)
(1.46246967928e-05 -6.05357120885e-05 0)
(5.90201672296e-06 -3.77395139353e-05 0)
(3.70711674394e-06 -3.75375186021e-05 0)
(9.92131154576e-07 -3.83957914631e-05 0)
(7.06039730713e-07 0.000259369292015 0)
(1.73561453867e-05 0.000211903584965 0)
(9.65522317231e-05 0.000372962552094 0)
(0.000169197276434 0.000344112801234 0)
(0.000171463220392 0.000216454927483 0)
(0.000132759995881 0.000118807304831 0)
(0.000231440398188 0.000201072688432 0)
(0.000373321677062 0.000299508872379 0)
(0.000426466910393 0.000272979351653 0)
(0.000491666929145 0.000241717114816 0)
(0.000552275991619 0.000225143071403 0)
(0.000602195243038 0.00019801074427 0)
(0.000600780458976 0.000137507922292 0)
(0.000539848968262 7.6057750966e-05 0)
(0.000553541707326 5.5732351589e-05 0)
(0.000595292851933 6.65623552999e-05 0)
(0.000670884350423 0.000106030441534 0)
(0.000772689027078 0.000170501104153 0)
(0.000851080907471 0.000222849399275 0)
(0.000870017817832 0.00023335628265 0)
(0.000911274555826 0.000238854227184 0)
(0.000966072509905 0.000240067967768 0)
(0.00101141744976 0.000229055701145 0)
(0.00105479795845 0.000214281013638 0)
(0.00109470969942 0.000200108698823 0)
(0.00113046970121 0.000188333754492 0)
(0.0011739944597 0.000176680848486 0)
(0.00119854967289 0.000163141505633 0)
(0.00124798266251 0.000151829921617 0)
(0.00125433482855 0.000137072812079 0)
(0.00131059335309 0.000127109384675 1.3796882397e-28)
(0.001276497565 0.000110370302134 -1.27311591314e-28)
(0.00134027524277 0.000110492880397 0)
(0.00139765103945 0.000118446526705 0)
(0.00139169356192 0.000136749531027 0)
(0.00147935921816 0.00017269205046 0)
(0.00153349931345 0.000196803443519 0)
(0.00157848774036 0.000196253159927 0)
(0.00161476867639 0.000186585393301 0)
(0.00164665167138 0.000168758029439 0)
(0.00167961326772 0.000140962400794 0)
(0.0017118545446 0.000114776692773 0)
(0.00174093091058 9.92560533593e-05 0)
(0.00176548724595 8.96734302864e-05 0)
(0.00178484359452 7.95754190298e-05 0)
(0.00179971485566 6.66421414834e-05 0)
(0.00181064678351 5.03240228709e-05 0)
(0.00181770255255 3.07647586033e-05 0)
(0.00182058938869 7.82301848203e-06 0)
(0.00181865910447 -1.85227201977e-05 0)
(0.00181072512811 -4.70752977655e-05 0)
(0.00179439562546 -7.70585904257e-05 0)
(0.00176719199093 -0.000110936067461 0)
(0.00172951246984 -0.000150819362393 0)
(0.00168643446981 -0.00018903441148 0)
(0.00163879696998 -0.000225541705807 0)
(0.0015777481186 -0.000269800387859 0)
(0.00149467318908 -0.000324672787903 0)
(0.00138686968807 -0.000390140551798 0)
(0.00125760603998 -0.000466823689906 0)
(0.00111678799345 -0.000552758648804 0)
(0.000983675241339 -0.000645946466341 0)
(0.000871771188712 -0.000736500884276 0)
(0.000778254050392 -0.000736543322098 0)
(0.000634693898501 -0.000564702188957 0)
(0.000498503165413 -0.000385914455333 0)
(0.000408676601207 -0.000302350323268 0)
(0.000332828828125 -0.000269378695401 0)
(0.000269346312357 -0.00026341527472 0)
(0.000214959814267 -0.000270192936572 0)
(0.00016068629216 -0.000267122383251 0)
(0.000109533977046 -0.00023266498031 0)
(7.0069537764e-05 -0.000178476887692 0)
(4.40594530891e-05 -0.000143834947509 0)
(2.14986874099e-05 -0.000121046381936 0)
(3.89645375223e-06 -9.78929133057e-05 0)
(-3.47652428283e-06 -6.47595282673e-05 0)
(-4.38375164843e-06 -4.20620959398e-05 0)
(-5.05744668103e-06 -4.07562072484e-05 0)
(-2.1633093051e-06 -3.65314502058e-05 0)
(-1.97280761877e-06 0.000240122296153 0)
(2.27598038264e-05 0.000258687062596 0)
(9.84477268892e-05 0.000423895135614 0)
(0.0001349045798 0.000345194685317 0)
(9.70099032054e-05 0.000165062329102 0)
(0.000133170119681 0.000170585852212 0)
(0.000300219443078 0.000336760373789 0)
(0.000360127136187 0.000361198366955 0)
(0.000404513831583 0.000331393659787 0)
(0.000460305326044 0.000304891214169 0)
(0.000517298173733 0.000265457018418 0)
(0.000469349279938 0.000176051394351 0)
(0.000423945498198 9.94684113068e-05 0)
(0.000462020214733 8.43748493807e-05 0)
(0.00051218197405 0.000101071440176 0)
(0.000610192538426 0.000148528178361 0)
(0.000722143639218 0.000207891018765 0)
(0.000800092868698 0.000244309863764 0)
(0.000803826921292 0.000245768236964 0)
(0.000852311034082 0.000268561699143 0)
(0.000914166263261 0.000290999101724 0)
(0.000958172437512 0.000287951627635 0)
(0.00100013057463 0.000273585501301 0)
(0.00103951626156 0.000256924108761 0)
(0.00108578863409 0.000242222273763 0)
(0.0011217700075 0.000223534948065 0)
(0.00113362431794 0.000208913649991 0)
(0.0011997384891 0.000199899957642 0)
(0.00118908536703 0.000177009401009 0)
(0.00126555247727 0.000162769436084 0)
(0.00120518811059 0.000137000646908 0)
(0.00130030327773 0.000142840734084 0)
(0.00125760027957 0.000141834443668 0)
(0.00134948444701 0.000163372382593 0)
(0.00144340553963 0.00020219876363 0)
(0.00150015988524 0.0002361584689 0)
(0.00154191591698 0.000242384198458 0)
(0.00157926232077 0.000234172793559 0)
(0.00161343007938 0.00021953300543 0)
(0.001646438069 0.000199607584253 0)
(0.00167948047585 0.000174014496234 0)
(0.00171172341545 0.000148273480076 0)
(0.00174121813739 0.000128057104841 0)
(0.00176635337357 0.000112191271439 0)
(0.0017867552807 9.68172460506e-05 0)
(0.00180274913448 7.95510288201e-05 0)
(0.00181474044184 5.93516176239e-05 0)
(0.00182251925437 3.57174269918e-05 0)
(0.00182538471468 8.11591170786e-06 0)
(0.00182240473394 -2.37836093108e-05 0)
(0.00181231167855 -5.97514451324e-05 0)
(0.00179328965686 -9.96280457039e-05 0)
(0.00176389104042 -0.000143717005752 0)
(0.00172443723956 -0.000191003561058 0)
(0.00167632802433 -0.000238985113119 0)
(0.00161730148251 -0.000291358691823 0)
(0.00153995689967 -0.000355437851901 0)
(0.00143875106068 -0.000432709094226 0)
(0.00131563199078 -0.000519394767073 0)
(0.00117591431418 -0.000607666238733 0)
(0.00103635394745 -0.000692783006748 0)
(0.000913833076068 -0.000762786508087 0)
(0.000756890123578 -0.000768052856643 0)
(0.000766804613151 -0.000874547377174 0)
(0.000578275737242 -0.000668420375899 0)
(0.000457587447585 -0.000476819108878 0)
(0.000378270319025 -0.000391640600157 0)
(0.000294973090076 -0.000345509528262 0)
(0.000220005758561 -0.000324826661038 0)
(0.000160913050778 -0.000333510329986 0)
(0.000105501155501 -0.000326237630554 0)
(6.1145474934e-05 -0.00026247876349 0)
(3.25536375469e-05 -0.000204372582364 0)
(7.72989611911e-06 -0.000170260953161 0)
(-1.25804271506e-05 -0.000139465577411 0)
(-2.18519205587e-05 -0.000105147639528 0)
(-1.94808881737e-05 -6.347125827e-05 0)
(-1.66058292571e-05 -4.13985350981e-05 0)
(-1.34326017999e-05 -3.64843297858e-05 0)
(-4.43832873287e-06 -3.02149156442e-05 0)
(7.63224254103e-06 0.00026021403602 0)
(5.57693513716e-05 0.000341131750943 0)
(0.000130578568809 0.00046009236062 0)
(0.000140914356876 0.000423612645289 0)
(8.94781180403e-05 0.000205651557843 0)
(0.000196486525595 0.000307506763565 0)
(0.000314803284222 0.000416229258515 0)
(0.000342741406359 0.000403680165086 0)
(0.000385467242184 0.000374954138308 0)
(0.00041011788308 0.00034107544608 0)
(0.000482034973444 0.000286395811872 -3.11143954393e-28)
(0.000359131213941 0.000136673481209 1.74750735412e-28)
(0.000417766937769 0.000123710494116 0)
(0.00044873445357 0.000134291472642 0)
(0.000532769750647 0.000184505066113 0)
(0.000654451427018 0.000260886669959 0)
(0.000737883091997 0.000290667055816 0)
(0.000723755112152 0.000263332962448 0)
(0.000777449829726 0.00028462624204 0)
(0.000855867730084 0.000328865851808 0)
(0.000899413706129 0.000340558371273 0)
(0.000944789013951 0.000332494370314 0)
(0.000988363938514 0.000317470087597 0)
(0.00102973551602 0.000297928162254 0)
(0.00105935636039 0.000273802623764 0)
(0.00107590084005 0.000249498759585 0)
(0.0011359622569 0.000240941103067 0)
(0.00111124734956 0.000223146295074 0)
(0.00120779503991 0.000209471458765 0)
(0.00113729405611 0.000162273144505 0)
(0.00123892438325 0.000167111085178 0)
(0.00120741371011 0.00017244839584 -1.21585412344e-28)
(0.00130211700721 0.000193493180411 1.29516111715e-28)
(0.00135085013357 0.000236225876187 0)
(0.00146144305512 0.000280451872174 0)
(0.00150612741886 0.000288539946738 0)
(0.00154164689608 0.000281528506884 0)
(0.00157668892131 0.000269002828447 0)
(0.00161193710888 0.000252630240628 0)
(0.00164637314309 0.000232011432199 0)
(0.00167977410373 0.000207044925418 0)
(0.00171216403465 0.000180839486768 0)
(0.0017420246268 0.000157027120153 0)
(0.00176788321855 0.000135919043458 0)
(0.0017893704424 0.000115498405748 0)
(0.0018066616619 9.37701120631e-05 0)
(0.00181984356676 6.9328199855e-05 0)
(0.00182833464247 4.10544467639e-05 0)
(0.0018311168533 7.96938709371e-06 0)
(0.00182712865608 -3.05782513803e-05 0)
(0.00181514687751 -7.4756926024e-05 0)
(0.00179367663138 -0.000124359031623 0)
(0.00176155959034 -0.000178727234354 0)
(0.00171828363104 -0.000236831479991 0)
(0.00166280950741 -0.000299297592699 0)
(0.00159134330028 -0.000371068829082 0)
(0.00149830955564 -0.000456815273919 0)
(0.00138242366097 -0.000554044335463 0)
(0.00125040414403 -0.000653614589484 0)
(0.0011161530798 -0.000744525983036 0)
(0.000991783355062 -0.000816102774177 0)
(0.000884515157028 -0.000865401901672 0)
(0.000798979538424 -0.00091766546513 0)
(0.000745710394695 -0.000961564629607 0)
(0.000579536853398 -0.000786883434638 0)
(0.000407724623968 -0.000554450735891 0)
(0.000339264813822 -0.000481058520835 0)
(0.000255703641234 -0.000438840260957 0)
(0.000172300139538 -0.00041175590611 0)
(0.000103137517959 -0.000403769350651 0)
(5.16700842963e-05 -0.000364391877414 0)
(1.8296256438e-05 -0.000287489926787 0)
(-9.81069293481e-06 -0.000235105469355 0)
(-3.49665820178e-05 -0.000192625633031 0)
(-4.90238006842e-05 -0.000150179079912 0)
(-4.69235444958e-05 -0.000100017027473 0)
(-3.9548743344e-05 -6.03074675394e-05 0)
(-3.12458840383e-05 -3.58074004251e-05 0)
(-2.28542830258e-05 -2.62285955271e-05 0)
(-7.50462944921e-06 -1.93770402081e-05 0)
(1.67895345182e-05 0.000302988917293 0)
(8.16149761045e-05 0.000423005023638 0)
(0.000147295264691 0.000474053826496 0)
(8.45714779801e-05 0.000270312816873 0)
(9.27769384655e-05 0.000256403212564 0)
(0.000235492336258 0.000438629692397 0)
(0.000287698906023 0.00045802200146 0)
(0.00032893339429 0.000445208834671 0)
(0.000346899602 0.00040018494815 0)
(0.000390852932543 0.000368153731203 0)
(0.000305900250134 0.000208524551945 0)
(0.000351914566686 0.000161736589591 0)
(0.000401697070676 0.000165786459236 0)
(0.000442945917957 0.000196591727501 0)
(0.000572875777392 0.000290474144868 0)
(0.000670774443574 0.00034268386611 0)
(0.000650763422948 0.000301534640062 0)
(0.000692139116806 0.000302449395791 0)
(0.000781349554718 0.000354831615971 0)
(0.000841380494792 0.000385110288281 0)
(0.000880411599949 0.000385115793522 0)
(0.000920487073077 0.000374689418985 0)
(0.000969763592129 0.000362961809823 0)
(0.00100929632449 0.000340061048295 0)
(0.00105579559353 0.000305245324215 0)
(0.00104780431061 0.000281081042718 0)
(0.0011225955251 0.000270071748573 0)
(0.00111913297422 0.000244406517622 0)
(0.00110752767188 0.000214730144831 0)
(0.00114527852145 0.000202945150509 0)
(0.00125807209346 0.000213438938265 0)
(0.00123945593968 0.000207823381747 0)
(0.00126546520769 0.000251727466111 0)
(0.00141495968702 0.000322721400134 0)
(0.00146099593649 0.000343903779995 0)
(0.00150116384958 0.000333296078859 0)
(0.00153807163637 0.000318909959835 0)
(0.00157377287434 0.000304234696356 0)
(0.00161015627509 0.000287119088882 0)
(0.00164605826847 0.000265876955009 0)
(0.00168033215466 0.000240507953079 0)
(0.00171299848919 0.000213142464856 0)
(0.00174335328994 0.000186273251103 0)
(0.00177016333493 0.000160715533178 0)
(0.00179291942652 0.000135598177088 -1.34760584644e-28)
(0.00181166257294 0.000109367337614 1.3434924694e-28)
(0.00182613728205 8.03143901255e-05 0)
(0.00183540061219 4.67881167239e-05 0)
(0.00183821667379 7.44747305226e-06 0)
(0.00183348466438 -3.8571090231e-05 0)
(0.00181998576675 -9.16317389819e-05 0)
(0.00179627351266 -0.000151547866197 0)
(0.00176101272836 -0.000217699341682 0)
(0.00171269061447 -0.000289974319839 0)
(0.00164863104957 -0.000370526039399 0)
(0.00156484449254 -0.00046351107978 0)
(0.0014587156866 -0.000569704946549 0)
(0.00133381365734 -0.000681849273674 0)
(0.00120164852006 -0.000787209781363 0)
(0.00107512459736 -0.000871747761484 0)
(0.000960605186143 -0.000923305762678 0)
(0.000867814574255 -0.000953912429836 0)
(0.000797152691298 -0.000983986061232 0)
(0.00073869352323 -0.00101946971828 0)
(0.00070104897795 -0.00102629550292 0)
(0.000422535754322 -0.000689607750731 0)
(0.00029254486486 -0.000574381823599 0)
(0.000200307469659 -0.000527293454159 0)
(0.000111945877357 -0.000487979242558 0)
(4.5259980729e-05 -0.000456245001965 0)
(2.64016642553e-06 -0.00039425005738 0)
(-3.00360124173e-05 -0.000320677207832 0)
(-6.25291801403e-05 -0.0002646674275 0)
(-8.34988608346e-05 -0.000208890276737 0)
(-8.8220132821e-05 -0.000150320830362 0)
(-7.73623222114e-05 -9.15194093269e-05 0)
(-6.63436865515e-05 -5.0937706891e-05 0)
(-4.99431400934e-05 -2.42613164703e-05 0)
(-3.33492126782e-05 -9.55331989152e-06 0)
(-1.1502069452e-05 -1.11272541194e-06 0)
(2.40771038304e-05 0.000358346743883 0)
(9.49533923249e-05 0.000490997592711 0)
(0.000120473259219 0.000482156010296 0)
(7.97747026415e-05 0.000295768818951 0)
(0.000134711421885 0.000343734713982 0)
(0.000245918084123 0.000500840918048 0)
(0.000260428136521 0.000496229277557 0)
(0.000315234419041 0.000482676807782 0)
(0.000290227724822 0.000389409094052 0)
(0.000386177157678 0.000412135459522 0)
(0.000291218322106 0.000227780274866 0)
(0.000354896388422 0.00020859747882 0)
(0.000391882322873 0.000216846929434 0)
(0.000473327699797 0.000288827937976 0)
(0.000590710015968 0.000387741970629 0)
(0.000648768148471 0.000388578873882 0)
(0.000624668986399 0.000333239864105 0)
(0.000691744430676 0.000366920829421 0)
(0.000767520989501 0.000419124054657 0)
(0.000817552700472 0.000435075837839 0)
(0.000863194800058 0.000429482201226 0)
(0.000896201721807 0.000413785998229 0)
(0.000940543429527 0.00040030375151 0)
(0.000963276432642 0.000373188870441 0)
(0.000975345692109 0.000322927048802 0)
(0.00105736363458 0.000313551149687 0)
(0.00100074922572 0.000285622833529 0)
(0.00114766228515 0.000280201270751 0)
(0.00108053415487 0.000248422546546 0)
(0.00122024664378 0.000264978486467 0)
(0.00115146769667 0.000238640678972 0)
(0.0012916266588 0.000269346852061 0)
(0.00135300219799 0.000334164164516 -1.42431988733e-28)
(0.00141489143494 0.000386546515389 1.47531901183e-28)
(0.00145584220443 0.000388951749203 0)
(0.00149472962135 0.000374233131519 0)
(0.00153361185727 0.000357553745323 0)
(0.0015708900505 0.00034111119215 0)
(0.00160814935618 0.000323035861875 0)
(0.00164509131911 0.000301059149484 0)
(0.00168058798457 0.000274762536531 0)
(0.00171414030239 0.000245778728268 0)
(0.00174525580733 0.000216103240541 0)
(0.00177319947719 0.000186686522211 0)
(0.0017975413667 0.000157223434184 0)
(0.00181795534564 0.000126444827982 0)
(0.00183382218651 9.24323504516e-05 0)
(0.00184402409471 5.31185241176e-05 0)
(0.00184724539163 6.88645454482e-06 0)
(0.00184229588226 -4.7280290947e-05 0)
(0.00182787209304 -0.000109948242899 0)
(0.00180240361318 -0.000181288516488 0)
(0.0017641200753 -0.000261310617876 0)
(0.00171042665975 -0.000350817771917 0)
(0.00163765456883 -0.000451993969244 0)
(0.00154259686891 -0.000566267430537 0)
(0.00142591412056 -0.000689624212286 0)
(0.00129590186605 -0.000810770522865 0)
(0.00116784614959 -0.000916991968265 0)
(0.00105007374295 -0.000994891200398 0)
(0.000941811590707 -0.00102600525454 0)
(0.000849972561277 -0.00102904029883 0)
(0.000781562968418 -0.00104176965124 0)
(0.000728735218926 -0.00106833806045 0)
(0.000706848323071 -0.00109350285773 0)
(0.000561870827519 -0.000963383258211 0)
(0.000278521306782 -0.000680510444928 0)
(0.000138823732156 -0.000629698828369 0)
(5.40400877575e-05 -0.000574571477683 0)
(-7.27374719253e-06 -0.000506948938302 0)
(-5.02501364735e-05 -0.000430153053113 0)
(-9.14100752118e-05 -0.000360884564962 0)
(-0.000125273201135 -0.000290889667096 0)
(-0.000138045929991 -0.000216106928915 0)
(-0.000132085176481 -0.000141885056177 0)
(-0.000116651862643 -7.86325997736e-05 0)
(-9.73949264373e-05 -3.25067033016e-05 0)
(-7.16969035303e-05 -2.42623496627e-06 0)
(-4.33964489172e-05 1.56260660278e-05 0)
(-1.44362986237e-05 2.51980960288e-05 0)
(3.03685252373e-05 0.000429242118456 0)
(0.000107445525031 0.00054087830149 0)
(0.000108821208597 0.000469830173817 0)
(8.03966740249e-05 0.000315820737763 0)