/*--------------------------------*- C++ -*----------------------------------*\
| =========                 |                                                 |
| \\      /  F ield         | OpenFOAM: The Open Source CFD Toolbox           |
|  \\    /   O peration     | Version:  v1806                                 |
|   \\  /    A nd           | Web:      www.OpenFOAM.com                      |
|    \\/     M anipulation  |                                                 |
\*---------------------------------------------------------------------------*/
FoamFile
{
    version     2.0;
    format      ascii;
    class       volScalarField;
    location    "619";
    object      p;
}
// * * * * * * * * * * * * * * * * * * * * * * * * * * * * * * * * * * * * * //

dimensions      [0 2 -2 0 0 0 0];


internalField   nonuniform List<scalar> 
6400
(
0.148487030105
0.148489977058
0.148498387369
0.148514823218
0.148539210812
0.148571485026
0.148611633033
0.148660725845
0.148719631047
0.148789771816
0.148877105146
0.148984789462
0.149110136956
0.149253083945
0.149415513114
0.149599892768
0.1498077739
0.150039059063
0.150291712145
0.150560449261
0.150839634985
0.151130557842
0.151440435384
0.151776920733
0.152144833581
0.152544058496
0.152971146493
0.153423481452
0.153900640764
0.154403235581
0.154931691365
0.155484100881
0.156054469905
0.156636707645
0.157228079629
0.157825708759
0.158429796233
0.159046508874
0.159674540046
0.160304632553
0.160937759528
0.161586764999
0.162258271242
0.162944204844
0.163633614287
0.16431899706
0.164994668539
0.165656339259
0.166300121344
0.166922653263
0.1675212364
0.168090683468
0.16862237187
0.169105514596
0.169538419647
0.169926515376
0.170266111395
0.170547701563
0.170769185561
0.170938794328
0.171063614241
0.171148486539
0.171197591021
0.171225142895
0.171242978307
0.171252025214
0.171244570333
0.171219400649
0.171182666359
0.171140104574
0.171094042694
0.171044530588
0.17099167542
0.170939977739
0.170890352495
0.170845220333
0.170806483433
0.170780600217
0.170763778901
0.170756647489
0.148482732178
0.148485864159
0.148493499718
0.14850955616
0.148535406082
0.148569095098
0.148609704533
0.148657125501
0.148714086172
0.1487840393
0.148871023761
0.148977656574
0.149103266454
0.14924713404
0.149409736026
0.149592767371
0.149799893151
0.150031842135
0.150285839405
0.150555199555
0.150832463149
0.151121225729
0.151430424685
0.151766828501
0.152135154706
0.152535122337
0.152962505178
0.153415412456
0.153893508208
0.154396839011
0.154925356431
0.155478167707
0.156049521305
0.156631833975
0.157223304534
0.157821167548
0.158425074186
0.15904224157
0.159671402116
0.160302227152
0.160934422819
0.161583785407
0.162258755744
0.162947305072
0.163638017359
0.164324840953
0.165002022344
0.165665544119
0.166311070202
0.166933897716
0.167531314476
0.168101820808
0.168638713603
0.169124175727
0.16955876028
0.169949910003
0.170287928853
0.170566298494
0.170787322627
0.170956055655
0.171078037415
0.171162393206
0.171212127184
0.171240818461
0.17126031198
0.17127043111
0.171262243163
0.17123398969
0.171193651026
0.171147676126
0.171098484733
0.171045862141
0.17098952275
0.170933998921
0.170882732575
0.170837409986
0.170800528014
0.170774797654
0.170758160105
0.170752552699
0.148470647605
0.148475823756
0.148482746996
0.148497516617
0.148522516072
0.14856000896
0.148603933104
0.148649971275
0.148704156267
0.148772541622
0.148858710394
0.148964763229
0.149090603261
0.149235223391
0.149397872255
0.149577549348
0.149782333189
0.150019074331
0.150276158106
0.150544177462
0.150817267248
0.151100701289
0.151408745371
0.15174740344
0.152116589593
0.15251636613
0.152944922723
0.15339961201
0.153879248946
0.154383844285
0.154913144379
0.155466964722
0.156040412912
0.156622348542
0.15721249977
0.157812061211
0.158416104482
0.159032343827
0.159662660058
0.160296603607
0.160934976309
0.161588969199
0.162263778996
0.162952124353
0.163644252372
0.164333187974
0.165013380276
0.165680230307
0.166329322857
0.166956507351
0.167558448615
0.168131003762
0.168666122186
0.169155097302
0.169597595593
0.169990666841
0.170326510703
0.17060305907
0.170822608434
0.170989673901
0.171110807646
0.171193075932
0.171242847939
0.171275899557
0.171300756398
0.171311362565
0.171299754038
0.171265869041
0.171217963469
0.171164081444
0.171107114831
0.17104680492
0.170984903813
0.170925667447
0.170871407987
0.17082486628
0.170788812176
0.170763536209
0.170747735418
0.170741999409
0.148453404416
0.148458708692
0.148464603154
0.148478220598
0.148500268556
0.148537656587
0.148593090492
0.148639268209
0.14868942165
0.148755073292
0.148839895333
0.148945604085
0.149072006099
0.149216567448
0.149379128423
0.149563146477
0.149772149085
0.150006196712
0.150255104193
0.150511937488
0.150780786019
0.151067679625
0.151378104824
0.15171732127
0.152087556031
0.15248874087
0.152919123773
0.153375958209
0.153857814264
0.154364156396
0.154895453398
0.155450773616
0.156025716087
0.156610774829
0.157198360618
0.157794813729
0.158402301467
0.159018992369
0.159647432201
0.160285332477
0.160931878244
0.161592393516
0.162270007081
0.162960102208
0.163654839431
0.164347302795
0.165031764492
0.165703337468
0.166357520693
0.166990088289
0.167596985128
0.168173230141
0.168711990736
0.169206844506
0.169654108621
0.170048463129
0.170384039656
0.170659442438
0.170877255115
0.171042440005
0.171161899828
0.171243641365
0.171297932689
0.171339380361
0.171369194208
0.171378020266
0.171360619764
0.171317068954
0.171256479893
0.171189394478
0.171120747211
0.171051007751
0.170981340144
0.170913253757
0.170851550946
0.170803236997
0.170768723923
0.170742304159
0.170724300191
0.170716986866
0.148426370142
0.148427524641
0.148434770186
0.148448785631
0.148473300146
0.148508660222
0.148559524267
0.148610099314
0.14866343575
0.148729664132
0.148813451501
0.148919044966
0.149046566556
0.149196522058
0.149366546908
0.149551389557
0.149753712532
0.149974851408
0.150212857405
0.150466727845
0.150736786523
0.151025005948
0.151336885331
0.151677631265
0.152049348185
0.152452313774
0.152884658914
0.15334418815
0.153828875206
0.154338171701
0.154871475393
0.155430311002
0.156009335064
0.156591958747
0.15717834742
0.157773291049
0.158378428245
0.158997118406
0.159629275038
0.160272821229
0.160927147618
0.161594772608
0.162277123878
0.162970879613
0.163669713284
0.164367088297
0.165057180988
0.165734901678
0.166395636035
0.167034999607
0.167648481678
0.168230791137
0.168775684249
0.169277072618
0.16972937011
0.170126181312
0.170462440773
0.170737439859
0.170954314862
0.171118849104
0.171238979569
0.171324228375
0.171385983949
0.17143419107
0.171463210281
0.171470435322
0.171448276217
0.171392975056
0.171314294466
0.171227361088
0.171141357038
0.17105675109
0.170970917407
0.170887195132
0.170817835853
0.170767457337
0.170730459151
0.170698561244
0.170679415974
0.17067298482
0.148377154198
0.148377278238
0.148389194002
0.148403845553
0.148431052987
0.148468716385
0.148516364516
0.148567771573
0.14862571786
0.148694195927
0.148776656741
0.148882894296
0.149019229599
0.149177787844
0.149347234589
0.149526089821
0.149718620867
0.149930677394
0.150163819456
0.150415506229
0.150683629855
0.150971893413
0.151285425493
0.151628273815
0.152002055741
0.152406577259
0.152841646074
0.153304032548
0.153792653838
0.15430556449
0.154843293196
0.155404189657
0.155982843274
0.156569153804
0.1571519574
0.157742181231
0.158348087004
0.158970648442
0.159608094955
0.160258355966
0.16092070593
0.161596142209
0.162284925207
0.162984266882
0.163688867376
0.16439265366
0.16508982783
0.165775184596
0.166444016662
0.167091803147
0.167713775624
0.168304487258
0.16885775246
0.169367013783
0.169825401754
0.170226103924
0.170564765275
0.170841410311
0.171059914557
0.171227032867
0.17135162177
0.171443991952
0.171515051846
0.171565147374
0.171593594
0.171597007935
0.171567634981
0.171497992253
0.171395904462
0.17128156199
0.171169739594
0.171058558981
0.170945000551
0.170842990024
0.17076517449
0.170710187515
0.170666749255
0.170632314914
0.170614267533
0.170607160101
0.148302199115
0.148307995067
0.148327489813
0.148349075486
0.148372829648
0.148411076249
0.148460736687
0.148514346243
0.148575806338
0.148647086592
0.148733688151
0.148843710434
0.148987808667
0.149145846872
0.149310835723
0.149481747765
0.14966791583
0.149877519867
0.150108655676
0.150355277183
0.150620498378
0.150909254361
0.151224216845
0.151568628159
0.151944747003
0.152353205065
0.152789449637
0.153255354999
0.153748633149
0.154268665202
0.154810463938
0.155371506701
0.155950777445
0.156532221183
0.157113844504
0.157704112148
0.158312749792
0.158940214967
0.159583930239
0.160241659486
0.160912513828
0.161596591797
0.162293341376
0.163000118958
0.163712249964
0.164424073718
0.165129903168
0.165824516187
0.166503172506
0.167161275601
0.167793902199
0.168395420092
0.168959338355
0.169478395876
0.169944918006
0.170352116848
0.170696383172
0.17097848974
0.171202850987
0.171376524334
0.171508666875
0.171609709975
0.171687083776
0.171738639054
0.171775213723
0.171775846752
0.171731044661
0.171638696886
0.17150639786
0.17135551438
0.171202705951
0.171047523519
0.170896904259
0.170773952606
0.17068506567
0.170622602813
0.170573763786
0.170542372117
0.170528947805
0.170522771654
0.148213548648
0.148224773883
0.148247098187
0.148277963691
0.14830422825
0.148344188633
0.148392597701
0.148449060096
0.148515022101
0.14858454546
0.148679437427
0.148802002059
0.148944585715
0.149099413778
0.149257706396
0.149421525418
0.149606762761
0.149816919191
0.15004320314
0.150284809002
0.150547761429
0.150836533523
0.151152753232
0.151499840973
0.15187924913
0.152290655766
0.152731076991
0.153196891448
0.153697680676
0.154227353943
0.154770767989
0.155328713853
0.155905848602
0.156484595784
0.157064640159
0.157659129381
0.158272827219
0.158905973868
0.159556564198
0.160222445558
0.160902477394
0.161596151531
0.162302342832
0.163018349744
0.163739828839
0.164461438471
0.165177657557
0.165883339964
0.16657378267
0.167244370086
0.167890073399
0.168505029709
0.169082303931
0.169613999045
0.170092069642
0.170510078628
0.170865107146
0.171158130565
0.171392790259
0.171575162133
0.171714333111
0.171820919258
0.171902136558
0.171961488153
0.172003490265
0.172014743038
0.171953465403
0.171828538566
0.17165465204
0.171451101401
0.171235394621
0.171015454046
0.170817830816
0.17066779019
0.170565192277
0.170496297423
0.17045240603
0.170430917372
0.17042724813
0.170426761292
0.14811579528
0.148130269933
0.148153035686
0.148179776825
0.148213033204
0.148261347925
0.148310234059
0.14836849312
0.148442245057
0.148517225038
0.148610210441
0.148741501129
0.148886905305
0.149036337568
0.14918884263
0.149352326891
0.149536968518
0.149744190887
0.149965925757
0.150204662244
0.150465951735
0.150753819129
0.151069724116
0.151418455681
0.151805457767
0.152218538249
0.152663549787
0.153137402991
0.153639762138
0.154170585876
0.154719705553
0.155283305628
0.155849213063
0.156422941255
0.157007315638
0.157607945083
0.1582279012
0.15886758678
0.159525704839
0.160200433263
0.160890456924
0.161594797296
0.162311891537
0.163038895489
0.163771596623
0.16450487591
0.16523341545
0.165952224156
0.166656694893
0.167342241377
0.168003777418
0.168635242725
0.169229333721
0.169777802582
0.170272654733
0.170707946423
0.171080869076
0.171391005321
0.171638757923
0.171828767173
0.171972231043
0.172083403263
0.172171759925
0.172237678862
0.172277525274
0.172297261601
0.172250288787
0.172085790278
0.171855573523
0.171577760927
0.171267301627
0.170953157881
0.170690443293
0.170504334506
0.17038844299
0.170324794607
0.170301614784
0.170301557893
0.170312994348
0.170322059978
0.148007365173
0.148023928522
0.148050436733
0.148076348383
0.148112247721
0.148161129431
0.148212244858
0.148270837015
0.148344839773
0.148436123495
0.148534228051
0.148665853574
0.148812188064
0.148957958042
0.149104930469
0.149271117277
0.149458914861
0.149661095071
0.149877358346
0.150113640446
0.150374469733
0.150662544739
0.150978539501
0.15132583809
0.151719179432
0.15214089595
0.152582576332
0.153063672371
0.153571243207
0.154106552613
0.154658554038
0.155219668529
0.155784159763
0.156354661893
0.156942742977
0.157550260147
0.158177495496
0.158824649529
0.159491037878
0.160175330567
0.160876232245
0.161592413102
0.162321913507
0.163061691945
0.163807561701
0.164554560731
0.165297588024
0.166031865852
0.166752932274
0.167456275519
0.168136838224
0.168788520982
0.169403951719
0.169974998334
0.170494118606
0.170955624462
0.17135526097
0.1716883633
0.171949322596
0.17214442654
0.172291097455
0.172409677264
0.172510243001
0.17258212113
0.172614878491
0.172612879983
0.172571731517
0.172436660652
0.172134921683
0.171751047301
0.171301778203
0.170842930755
0.170481790255
0.170249017828
0.170129400767
0.170095921326
0.170116304396
0.170153500596
0.1701867324
0.17020811757
0.147883547563
0.147899334235
0.1479281748
0.147959068321
0.148003171897
0.148047016555
0.148098898551
0.148159979338
0.148226824608
0.148326847163
0.14843873068
0.148571154682
0.148717820128
0.148864095806
0.149010282845
0.149177114935
0.149366301399
0.149565329159
0.149777500773
0.150010469544
0.150270263795
0.150560061576
0.150880944487
0.151228069711
0.151616452897
0.152051265449
0.152501422608
0.152982140145
0.153491355566
0.154021215971
0.154580324663
0.155144006857
0.155706127834
0.156278239162
0.156871422408
0.157486043916
0.158121195069
0.158776725975
0.159452234215
0.160146853696
0.160859539494
0.161588790185
0.162332262362
0.163086650595
0.163847732359
0.164610688741
0.165370657801
0.16612309517
0.166863701527
0.167588097584
0.168291404254
0.168967796213
0.169610376231
0.170211816016
0.170765351415
0.171264564653
0.171700531891
0.172062315456
0.172337135856
0.172537774949
0.172688549954
0.172818763672
0.172943579027
0.173027833142
0.17304469057
0.17299785536
0.172910917034
0.172799458445
0.172522671515
0.172022226801
0.171359725427
0.170647087367
0.17012968314
0.169844020427
0.169749675876
0.169789011023
0.16989156659
0.169989095225
0.170053266493
0.170092901932
0.147740697593
0.147753191112
0.147776125446
0.147815540503
0.147870017845
0.147914389466
0.147967604068
0.148034881823
0.148100444605
0.148197262476
0.148319766056
0.148455659254
0.14860201717
0.148750408596
0.148903388814
0.149072716884
0.149260482901
0.149456458764
0.149666129556
0.149895973888
0.150151990755
0.1504396101
0.150769698953
0.151128530118
0.151511578473
0.151946301061
0.152405202226
0.152883575499
0.153402666389
0.153937991628
0.154488910047
0.155048174471
0.155612175769
0.156192218545
0.156792637034
0.157414837721
0.158058487162
0.158723281799
0.159408889716
0.160114709069
0.160840078126
0.161583632573
0.162342711482
0.163113628675
0.163892085733
0.164673453605
0.165453147901
0.16622684106
0.166990368351
0.167739533576
0.168469849213
0.169176253447
0.169853190183
0.17049510034
0.17109602849
0.171646189514
0.172127772521
0.1725315267
0.172828828944
0.173039626311
0.173189355934
0.173329313157
0.173511775398
0.173634923858
0.173632355321
0.173519673324
0.173346621948
0.17318366894
0.172961851855
0.172455464283
0.171513416443
0.170276855395
0.169498269524
0.169179719142
0.169182596076
0.169378144586
0.169636762253
0.169831162973
0.16992970953
0.170001444248
0.147578421825
0.147588064118
0.147602273864
0.147646384571
0.147701922622
0.147754039912
0.147811355442
0.147885579973
0.147958606294
0.148054524503
0.148181638273
0.148319933906
0.148465638268
0.14861246783
0.148774506227
0.14895341
0.149140341011
0.149333825487
0.149542218951
0.149770505561
0.150022618303
0.150303678974
0.150634096729
0.151013761331
0.151403568045
0.151826853074
0.152297384781
0.152782029392
0.153292745774
0.153832145857
0.15438487352
0.154942194532
0.15550841495
0.156095866102
0.156704879327
0.157335779975
0.157988690436
0.158663537757
0.159360311299
0.160078514937
0.160817620408
0.161576635371
0.162352913209
0.163142372087
0.16394052445
0.164742994369
0.165545564354
0.166344078192
0.167134392339
0.167912494564
0.168674553894
0.169416967417
0.170136751906
0.170831321389
0.171494702359
0.172108765714
0.172645709373
0.173142535649
0.173492989497
0.173726035831
0.173847983571
0.173991766286
0.174366916886
0.174615268806
0.174558756752
0.174298349312
0.173956629162
0.173648057414
0.173421439203
0.173162660542
0.171870827837
0.169593213095
0.168445344802
0.168152899484
0.168367767576
0.168858125986
0.169407321344
0.169743865676
0.169829833144
0.169969768841
0.147397758637
0.147408868853
0.147428094893
0.147461581766
0.147511716088
0.147569001385
0.147631611954
0.147709596458
0.147794793909
0.14789336059
0.148024087162
0.148164572793
0.148311024099
0.14845716395
0.148621603085
0.148809498281
0.149000182108
0.149195015355
0.14940387058
0.149632117572
0.14988250381
0.150157980146
0.150483363148
0.150874555346
0.151280378663
0.151701259287
0.152175121882
0.152668506702
0.153174982512
0.153711272867
0.15425882121
0.154816244386
0.155392191881
0.155988979127
0.156607268041
0.157247787915
0.157911075666
0.158596956567
0.159305675995
0.160037402122
0.160791678679
0.161567538849
0.162362550732
0.163172513911
0.163992786695
0.164819301268
0.165648310302
0.166475729392
0.16729718851
0.168108776642
0.16890759329
0.169692376301
0.170464191491
0.171224698377
0.171965137851
0.172653964792
0.173279439459
0.17404681428
0.174416757516
0.174619495232
0.174402398355
0.17392107354
0.174066911769
0.174322880784
0.174334365552
0.174152348233
0.173917649603
0.173721342914
0.173640554019
0.173957147172
0.173535724259
0.167455872402
0.165803876003
0.166114293856
0.167032303326
0.168139296406
0.169335334538
0.16984110633
0.169737562286
0.170067898706
0.14719429009
0.147206910582
0.147236020805
0.147259873081
0.14730361756
0.147362447231
0.147429377209
0.147512620788
0.147612390818
0.147713157693
0.147846385492
0.147989433403
0.148138177835
0.148286962668
0.148453370717
0.148645465918
0.148840247914
0.149038767905
0.149249862583
0.149479037681
0.149729513378
0.150003214035
0.150319861619
0.150708569404
0.151138927199
0.151568313181
0.152030570754
0.152539296265
0.153055198084
0.153575838869
0.154116911716
0.154678764609
0.15526315924
0.155869878343
0.156498625904
0.15714989484
0.157824376175
0.158522503109
0.159244445345
0.159990643219
0.16076137156
0.16155573991
0.162371246258
0.16320366108
0.164048438236
0.164902080483
0.165761486244
0.16662250398
0.167480009277
0.168329772803
0.169170312525
0.170003771063
0.170836294314
0.171674237513
0.1725067264
0.173309630453
0.173733989884
0.17394243124
0.174172253064
0.174343185671
0.17433851869
0.174193851432
0.174116738719
0.174197665384
0.174151624996
0.173947271426
0.173665827861
0.173362322456
0.172990063925
0.172327661991
0.170042645846
0.167400333856
0.166543347546
0.166884868134
0.167746237209
0.168874072851
0.170148740059
0.170904798367
0.16906552219
0.170385693564
0.146963850649
0.146975983016
0.147004149341
0.147030228896
0.147071781166
0.147132355284
0.147201770853
0.14728578523
0.147399463769
0.147510986228
0.147646565318
0.147793081777
0.147945892753
0.148100145639
0.14827031938
0.148464538681
0.148662467902
0.148865408701
0.149079818805
0.149310766942
0.149561863605
0.149835902426
0.150146797297
0.150527826247
0.150973793165
0.151421559828
0.151876517915
0.152378450453
0.152904598114
0.153430362301
0.153966956681
0.154530293416
0.155121745491
0.155738448037
0.156378271983
0.157041013241
0.157727697379
0.158438976472
0.159175418101
0.159937478719
0.160725891111
0.161540360046
0.162378359775
0.163235315264
0.16410678159
0.164990521625
0.165884826827
0.166785013505
0.167683605145
0.168575775701
0.169462960497
0.170350892299
0.171249071074
0.172172292932
0.173079227697
0.173277955625
0.173521609404
0.173795394516
0.174015842378
0.17416106494
0.17416313878
0.174033281191
0.17389352111
0.173814926182
0.173670960008
0.173406683303
0.173046044418
0.172605605044
0.172027137712
0.171111106769
0.169567131717
0.167963952603
0.167005643302
0.166907486601
0.167426935229
0.168308922946
0.169278007569
0.169694956652
0.170734491976
0.172239125978
0.146708295978
0.146719710731
0.146749184334
0.146776113164
0.146818503056
0.146879923411
0.146951430607
0.147033170478
0.147149895661
0.147277548769
0.147420456152
0.14757218501
0.147730984652
0.147894715121
0.148069609675
0.148266035905
0.148467082089
0.148675044427
0.1488934838
0.149127035661
0.149379310794
0.14965370644
0.149961068102
0.150332723645
0.150779595613
0.151255072912
0.151719970147
0.152209013429
0.152729773917
0.153257656976
0.153797442055
0.154367271782
0.154966829671
0.155593492477
0.156244939469
0.156920278003
0.157620013198
0.158345461625
0.159097455782
0.159876782621
0.160684302707
0.161520281843
0.162382772591
0.163266772657
0.164167313698
0.165083852883
0.166017325063
0.166962274144
0.167907074099
0.168845883897
0.169784923741
0.17073222585
0.171701698775
0.172640364867
0.172886792094
0.173121152038
0.173349634873
0.173582348648
0.173754729995
0.173839997556
0.173811481925
0.173678019713
0.17349466
0.17329377914
0.173030148384
0.172662428001
0.172186533174
0.171600067233
0.170874028812
0.169907097329
0.16859701569
0.167172886321
0.166140198456
0.165783667395
0.166018991548
0.166668036083
0.167621615635
0.168872525682
0.170912251812
0.173147790572
0.146430156772
0.146440016072
0.146465301477
0.146496159169
0.146544047934
0.146606635661
0.146681903833
0.14676338098
0.146879917287
0.147017661949
0.14716743884
0.147324111253
0.147487678834
0.147664224884
0.147847571972
0.148046629959
0.148251596211
0.148466149885
0.148689823257
0.148926965076
0.149181205124
0.149456089554
0.149761163606
0.150124980889
0.150566643395
0.151059967796
0.151546474927
0.152032137389
0.152541867545
0.15306610363
0.153610745343
0.154187575249
0.154795795704
0.155432518869
0.156096277
0.156785642749
0.157500023998
0.158240610996
0.159009436934
0.15980723
0.160635230249
0.161494555778
0.16238376859
0.163297354846
0.1642283829
0.165178949187
0.166157822671
0.167157580242
0.168152626788
0.169139065287
0.170133725741
0.171151617546
0.172128654465
0.17241466405
0.172674509085
0.172904513164
0.173107892984
0.173279370802
0.173385299572
0.173400636556
0.173310737234
0.173119200843
0.172850248986
0.172521038009
0.17211592884
0.171609277254
0.170988309662
0.170243668991
0.169355055959
0.168296866813
0.167016281954
0.165629368466
0.164478136866
0.163782927128
0.163549183138
0.16371919682
0.164321815457
0.165505185482
0.167853648127
0.169861367393
0.146132816699
0.146141384052
0.146161116396
0.146196484403
0.146249136555
0.146312724108
0.146391110102
0.146476700385
0.14659073447
0.146734136962
0.146888791719
0.147049325562
0.147215067922
0.147399706079
0.147597331662
0.147802030623
0.148011961713
0.148234213635
0.14846587597
0.14870860567
0.148966410538
0.149242147477
0.149546046288
0.149903688683
0.150335106396
0.150828017503
0.151337337964
0.151836125636
0.152343356089
0.152864996841
0.153409263153
0.153991193497
0.154607954437
0.155253593723
0.155930710602
0.156635450707
0.157364991577
0.158122263544
0.158909473231
0.159727709056
0.160577848221
0.16146150666
0.162378562471
0.163325100247
0.164295560667
0.165291661315
0.166318776928
0.167363283416
0.168406455571
0.169448775797
0.170509633908
0.171568040233
0.171881295107
0.172154107954
0.17240297701
0.172609524672
0.172764599158
0.172860367559
0.172878146594
0.172799919801
0.172615980968
0.17232753444
0.171945453793
0.171477937105
0.170918203538
0.170250577553
0.169462050046
0.168542005724
0.167477778492
0.166259354607
0.164886830111
0.163388229905
0.161932015299
0.160693123572
0.159692613922
0.158869610661
0.158160895092
0.157412576002
0.156195713032
0.153497870305
0.145817632024
0.145826002291
0.145844238091
0.145883930218
0.145936939666
0.145999361378
0.1460764034
0.146167825111
0.14627928714
0.146426047394
0.146584826933
0.146749195849
0.146918138803
0.147105606545
0.14731564672
0.147529810624
0.147746887066
0.147976494742
0.14821718686
0.148468380706
0.148732803445
0.14901066632
0.149314313695
0.149668147864
0.150090016772
0.150576296981
0.151096128392
0.15161099713
0.152118656109
0.15263960468
0.153190155789
0.153775489959
0.15439856988
0.155055069335
0.155746239343
0.156466793663
0.157212964843
0.157988317458
0.158795260085
0.15963538679
0.160509738007
0.161420206609
0.162369559878
0.163358349466
0.164378500054
0.165419012619
0.166483358218
0.167570550694
0.168677253309
0.169788626603
0.170942337347
0.17128756582
0.171572199705
0.171835770393
0.172055117635
0.17221038503
0.17229271237
0.172294758167
0.172204896866
0.172011450298
0.171707704673
0.171293282109
0.170772429149
0.170148012805
0.169415501834
0.168564111053
0.167581973637
0.166457911269
0.165181105375
0.163744147571
0.162156088021
0.160387238387
0.158461333698
0.156472432459
0.154383392979
0.15201545251
0.149085808941
0.145248247518
0.140389762498
0.139363649966
0.145481498853
0.145490279884
0.145509478271
0.145553841124
0.145606634553
0.145667196563
0.145740514623
0.145835752881
0.145943059617
0.146091583972
0.146254612073
0.146423068084
0.146596407288
0.146788094296
0.147005911859
0.147229866855
0.147455995353
0.147693629972
0.147942373935
0.148202965377
0.148477136265
0.148759566003
0.149063656871
0.149415577141
0.149829918584
0.150307499297
0.150828878523
0.151354661812
0.151874324063
0.152397934029
0.152953328252
0.153544588305
0.154171496851
0.15483301935
0.155535319966
0.156274858617
0.157041213726
0.157836929073
0.158664803452
0.159527923002
0.160428806518
0.161370197401
0.162360071371
0.163399080563
0.164463894808
0.165540034133
0.166642909944
0.167795721023
0.169016231153
0.170232553538
0.1706186881
0.170923621961
0.171208912298
0.171442479518
0.171604590986
0.17168349426
0.171671083846
0.171560717213
0.171344960096
0.171016651552
0.170571235549
0.17000746691
0.169326082761
0.16852658295
0.167604042367
0.166548849959
0.165348754405
0.163990188596
0.162458471501
0.160738548333
0.158817245894
0.156666092101
0.15417193275
0.151264331918
0.147808799983
0.143386138816
0.137137400399
0.127239779069
0.108521442782
0.0627849696119
0.145117161304
0.1451263143
0.145148545813
0.145198202811
0.145251658084
0.14531109406
0.145382959225
0.145479132812
0.145581774281
0.145729708843
0.145896700691
0.146069271116
0.146247153214
0.146443269264
0.146666944446
0.146900129692
0.147137606275
0.147384394368
0.14764057879
0.147910041134
0.148195960254
0.14848637761
0.148791353897
0.149142394202
0.149552029028
0.15002038115
0.150536660921
0.151063062003
0.151597926931
0.152137931307
0.152696954374
0.153289109823
0.153923340338
0.154596082343
0.155303735804
0.156056182724
0.156844392822
0.157663174022
0.158515689383
0.159404006936
0.160332775249
0.161312173335
0.162354516214
0.163444419682
0.16454555922
0.165656616149
0.166820258479
0.168093377827
0.169540360743
0.169925330006
0.170215801596
0.170524047389
0.170778540967
0.170950976292
0.17103180336
0.171011952711
0.170884122663
0.17064330479
0.170285074601
0.169805276073
0.169200822644
0.168469896446
0.167610973447
0.166620912758
0.165493056027
0.164216545244
0.162776774641
0.16115569751
0.159331320363
0.157276526431
0.154956134117
0.152326071134
0.149208867462
0.145339197245
0.140457575354
0.133968230901
0.124628534051
0.110013162223
0.085230721776
0.0438334704657
0.144714492012
0.144723980123
0.144749220379
0.144804464864
0.144858532438
0.144920387613
0.144992823769
0.145088280169
0.145189727193
0.145338234202
0.145509307286
0.145685936952
0.145868236099
0.146068330394
0.146296178064
0.146536322231
0.14678728192
0.147045259266
0.147309487837
0.147587351271
0.147885030852
0.148188132413
0.148495774892
0.14884504656
0.149252588891
0.149713744519
0.150223221929
0.150745664279
0.151284333474
0.151844451842
0.152421565589
0.1530185351
0.15364708762
0.154325951808
0.155049271491
0.155814313142
0.156621137513
0.157463618299
0.15834226161
0.159259576254
0.160223056753
0.161252760305
0.162353166644
0.163488588557
0.164632039571
0.165804826878
0.167071040258
0.168429005401
0.169298845941
0.169589626246
0.169825963673
0.170074926515
0.170261062934
0.170346972415
0.170323282036
0.17018315406
0.169921178912
0.169534127815
0.169019641505
0.168375418552
0.167599180301
0.166688491119
0.165639972843
0.164448019069
0.163103462151
0.161592692883
0.159897195447
0.157992850294
0.155848341581
0.153422090626
0.150656470792
0.147466093947
0.14372291845
0.13905759256
0.132971920778
0.124893884407
0.113709296325
0.097525713709
0.0730234999422
0.0391543276911
0.144265328879
0.14427703065
0.144303746879
0.144359066418
0.144417324823
0.144487261126
0.144564648645
0.144662832323
0.144770430763
0.144915700702
0.145090267405
0.145271060387
0.145457889821
0.145661799509
0.145892743187
0.146136144429
0.146396941826
0.146669737125
0.146945113377
0.147233011988
0.147540998659
0.147860369754
0.148178977989
0.148523729842
0.148928994302
0.149385542997
0.149888742529
0.150407536848
0.150943659555
0.151514383241
0.152111670106
0.152726036337
0.153357974491
0.154033241932
0.154761683041
0.155542504351
0.156369776271
0.15723726694
0.158142737893
0.159092196263
0.160103546087
0.161195408047
0.162352539118
0.163539659495
0.164756076607
0.166047964479
0.16738867509
0.168404372416
0.16888169894
0.169140895264
0.16936123005
0.169542690962
0.169635340454
0.169612579156
0.169464826369
0.169187051052
0.168776203693
0.168230845931
0.167550099072
0.166732737744
0.165776731487
0.164678823321
0.16343382639
0.162033631425
0.160466108922
0.158714085556
0.156754315222
0.154556030778
0.152078501542
0.149266896755
0.146045325491
0.142305007949
0.137886478798
0.132525136039
0.125651189887
0.116531728908
0.104315533572
0.087650127127
0.0641070390888
0.0342874875252
0.143774760711
0.143790144791
0.143817277235
0.143866638214
0.143932168183
0.144010815651
0.144096207179
0.14420164327
0.14432162424
0.144463190634
0.144638498998
0.144822851421
0.145014455868
0.145222573965
0.145457092603
0.145704300261
0.145969413514
0.146255331788
0.146545053675
0.146846206149
0.147164706936
0.147499991721
0.147839804375
0.148191000349
0.148586857724
0.14903752134
0.149534474305
0.150050230745
0.15058207046
0.151154387934
0.151762993247
0.152400198486
0.153048002393
0.153723239503
0.154450505198
0.155237925942
0.156082886881