/*--------------------------------*- C++ -*----------------------------------*\
| =========                 |                                                 |
| \\      /  F ield         | OpenFOAM: The Open Source CFD Toolbox           |
|  \\    /   O peration     | Version:  v1806                                 |
|   \\  /    A nd           | Web:      www.OpenFOAM.com                      |
|    \\/     M anipulation  |                                                 |
\*---------------------------------------------------------------------------*/
FoamFile
{
    version     2.0;
    format      ascii;
    class       volScalarField;
    location    "462";
    object      alpha;
}
// * * * * * * * * * * * * * * * * * * * * * * * * * * * * * * * * * * * * * //

dimensions      [0 0 -1 0 0 0 0];


internalField   nonuniform List<scalar> 
6400
(
0.864714165128
1.34835133039
2.10971061153
2.551487031
2.97872931637
3.42281882547
4.0449630306
4.75372675427
5.05803904611
5.58265415843
6.76047918255
7.47521177215
8.04983220122
8.73104799878
9.6285294862
10.5628237699
11.3477428859
12.0869485055
12.7131905743
13.03025521
13.0881708391
13.2335322759
13.6930533747
14.4784337234
15.3611438891
16.1330919656
16.7236165253
17.2585432252
17.8527908659
18.5203146161
19.20641241
19.6895885
19.8954912472
19.9670286763
19.9322045853
19.7479574308
19.7453965846
20.0455067405
19.9642619631
19.615903259
19.6884264174
20.3336489362
21.0036718634
21.3378920231
21.4055726894
21.2919530483
21.0682144384
20.7886657429
20.4651795866
20.1167911047
19.6287798232
18.7164236247
17.5695985699
16.2146264798
15.1728535191
14.5773153279
13.5292739185
11.5854738131
9.4811179631
8.10963460485
6.61350504373
5.06209772971
3.3959310258
4.69595341359
8.77488589842
13.7483192762
16.7699302715
16.508470668
14.5498556492
12.9531351186
12.0962720192
12.2909057165
12.8174569542
12.6913644509
14.7055919958
14.1381670569
15.9882350862
9.8922482662
12.8732430503
4.81403497521
3.12170867611
2.46565885134
3.04795538591
4.27667412693
4.09245511651
3.88177812634
4.02362937441
4.40393361509
4.96221331597
5.68329767797
6.57140429885
7.45634084724
8.2252696175
8.9592576738
9.70156208221
10.5588293363
11.4571628705
12.328575483
13.3342809658
13.460759848
13.2918218661
13.3818368722
13.7786356516
14.5338333855
15.5933794584
16.2829304629
16.8315404127
17.4182449103
18.0355914766
18.6688013742
19.3137277527
19.9255009748
20.1293973899
20.2033989914
20.220095537
19.8981475097
19.9725347773
20.2934891252
20.1269580453
19.5719208805
19.5998407318
21.1442738581
22.2944436696
22.501780787
22.4867687816
22.2336477653
21.8265361791
21.4172533476
20.8272583077
20.2305713284
19.8548645593
19.7641250491
18.9619243802
16.4405684545
15.5863906205
14.6309165698
12.6671491606
10.7897156628
9.05533734179
7.35700933035
5.8540591195
5.48141708427
3.79146496095
5.03673086348
8.87279740808
14.7550067423
18.5301569247
17.3129438944
15.1792308114
13.2829397001
12.5892045806
12.9982953076
14.0764443556
13.4993737524
13.3378988764
12.8030407177
11.5935667331
9.74605543778
8.18552732959
4.27179531853
3.16097097622
2.74209964135
3.24656009241
3.45636503481
3.89236093596
4.27721698049
4.23599983217
4.32305861911
4.87466111812
5.66352849461
6.55355807885
7.45813431778
8.27704310936
9.01936936554
9.61765662262
10.3869738073
13.1736129525
15.2126880211
15.5405423162
14.7696923532
13.1075838436
12.9771068527
13.9316097413
14.7447764847
15.4770216499
16.2617794086
16.9484631105
17.5387413282
18.1343141697
18.772775273
19.3707574565
20.1052493087
20.3240623864
20.0815576451
20.5671457515
20.2590344625
19.852736312
20.4743664812
20.3258075322
19.8054782932
19.8412413806
20.4932726569
21.1649164772
21.5096352553
21.6019127393
21.5323138362
21.3405792916
21.047912522
20.6566062034
20.1919580763
19.658429686
18.9473701347
17.9358961669
16.9557368253
16.0583682121
14.4207404499
12.5793956138
10.8232781644
9.14709358165
7.58810991294
6.2945377611
5.09498979908
4.29504397755
6.21085686431
11.1376774352
15.7124425577
17.9720936139
18.1195826851
16.5623923815
14.9140036501
14.2357290469
14.1447508027
13.4928075329
12.9003500556
12.8595594826
12.4968470187
11.4975795017
9.86633365543
7.43452872755
7.60723564314
3.08520132001
5.43004848581
3.4879527829
3.55351255413
4.21768371824
11.8016984094
10.1577754163
4.96939777769
4.86427204329
5.67303841568
6.57877266834
7.49833087913
8.29302411847
9.07900558627
10.8609477547
13.0282915109
14.6805878849
14.9762505768
13.6548637045
12.574518459
12.7811152113
13.2384144667
13.8631595242
14.6911452963
15.5701676268
16.4010441254
17.1247693078
17.6842892136
18.3178991504
18.855538463
19.6505758774
20.0815910958
20.7102015649
20.5126729716
19.9687917825
20.3901982672
20.0883184338
19.7945483751
19.875345722
19.9636285232
20.1805147643
20.6631441721
21.1891038528
21.528506493
21.6603350161
21.6274499038
21.4640474215
21.1922691578
20.8220687083
20.3631334087
19.804678536
19.0969170857
18.2092446882
17.2056054997
16.0084448785
14.4626056515
12.7081977654
10.9802978153
9.3821878137
7.9860452234
6.87248376512
6.08144612544
5.96096846581
7.28136082032
10.4827198801
16.0922517492
19.6443540959
19.8542543033
18.2151159685
15.8868279133
14.3025956399
13.5255394411
13.6887870731
15.0584288096
14.9728021149
13.6330911061
13.4670738127
16.7262971934
13.1422986739
11.17131169
5.51593756129
7.46473276882
4.14422990733
4.46158115834
6.41444571837
11.6882835604
8.01581671678
5.32600096285
5.37718536116
5.89765192178
6.72834444036
7.66674231004
9.08736559188
11.4937944357
12.4947730701
12.7967516658
12.6532311902
12.2312332553
12.1415848882
12.63135261
12.9207109177
13.2634616161
13.9498645438
14.8001561069
15.7054905859
16.5790024299
17.2563322779
17.9900050442
18.4388076874
19.2608863765
19.6778567042
20.916256531
20.6143919931
20.0390444992
20.1793927583
19.719195196
19.671969798
19.8091162158
19.9936869427
20.1821726347
20.4407741687
20.8380337087
21.2714467329
21.5927683063
21.74855694
21.7466130065
21.6106585018
21.3626783094
21.0161120161
20.5747045915
20.0248521049
19.3382344944
18.4962251874
17.4860843539
16.2243227155
14.6624622147
12.9539501822
11.3131506154
9.87214764487
8.71447307771
7.90474561244
7.5194292501
7.78916895525
8.35216475821
10.5981947927
15.5818251456
19.7226545472
21.1518899335
20.0042678091
17.2646930692
14.8153317507
14.4933967794
16.7044228805
17.5465843267
16.4876824174
15.5494383471
18.1650410239
21.1546836677
16.4897057445
15.608180988
9.82976847425
8.97478719128
5.15285821051
5.78976356474
11.9614035517
11.4101390177
6.21501100289
5.87390706349
5.97567613652
6.24155885647
6.99950644915
9.73138611605
13.0482353719
13.4308496005
12.9900040531
11.8840074965
11.2976549283
11.4809880827
12.3735410768
12.6203117059
12.7771961029
13.32665179
14.1010949909
14.9979819417
15.8215943986
16.7120665757
17.7262510124
18.0883686775
19.1154732123
19.2858390181
20.8345680941
20.6262466111
21.4861111753
20.3796878711
19.4273191306
19.3553032204
19.6167114774
19.9075502961
20.1649069227
20.4031641603
20.6820855817
21.0371217123
21.4124762151
21.712845037
21.8797183494
21.9015518388
21.791152962
21.5697472312
21.2531864105
20.8430324947
20.3245325921
19.672521034
18.8568135579
17.8323874457
16.541521772
15.0097114561
13.4061854112
11.926021975
10.6911739746
9.78241155612
9.24082672507
9.21342591354
10.0195677537
9.22434531521
12.2785322686
17.4101401995
20.9952396203
22.4104621614
21.5121393349
18.18097406
16.0228799526
17.7903017212
19.9581571893
19.4147519704
18.3936302536
18.4447678174
22.955781815
24.5182154025
19.5393082961
19.3388908219
11.9249088123
8.72089281545
6.26887470609
5.88939676414
11.8702915112
8.11867844109
6.32895167027
6.42753791274
6.5272704291
7.20519701568
7.62980961388
12.8769055005
13.4842266049
13.4635399944
11.9502027726
10.7075469281
10.822576992
12.1490317728
12.3723516326
12.2821221358
12.7920814527
13.4440331729
14.2193887282
15.1141763469
16.1764037535
17.2104862983
17.7394845784
19.1313174042
19.1494806617
20.8561030413
20.4768367306
21.5596633769
20.7886296914
20.0976326955
19.1705022898
19.2547760727
19.6710277293
20.0529948668
20.3524280731
20.6228041101
20.9195304476
21.2567477702
21.5989433353
21.8823026241
22.0542643659
22.0941048573
22.0086331442
21.8190082358
21.5420502388
21.177086071
20.705552399
20.0960793471
19.3057679369
18.2854700826
17.0153038854
15.5723753801
14.1311826411
12.8551321271
11.8197423411
11.0457596947
10.6269331425
10.6265668746
10.5797393288
10.7352525922
13.644713218
19.9495054489
22.369261017
22.7612085607
21.7309858147
19.4996172846
19.254385745
21.7726948142
22.1872813536
21.3242529581
20.7102508885
22.6312642701
25.3290641847
26.7590259188
22.1948187284
21.0593674546
11.5848511898
8.24806562352
7.36882380867
11.9666562793
11.9163949614
6.94536948306
6.93875145479
7.05836374067
7.18078172128
7.72217373111
12.664644213
13.5733509024
13.5826201368
13.0077167756
10.6353494925
10.2091685797
11.8083793198
12.326057724
11.9511880828
12.1472744541
12.8425278003
13.6465425504
14.441810922
15.4023513461
16.2712792537
17.6283534401
17.8553185937
19.1269863461
20.6754474415
20.9685140674
20.1019851335
20.9275484145
20.9280472772
19.3472800247
19.1210152147
19.3860861837
19.801882528
20.2092115443
20.5465975232
20.8478252202
21.1623960622
21.4978721178
21.8244756032
22.0962918275
22.2706112676
22.3256444659
22.266845472
22.1159471147
21.8892985504
21.5828074988
21.1721503878
20.6172818692
19.8682361337
18.8879422187
17.6967346279
16.4039086852
15.1626878663
14.062369292
13.0935367697
12.2920158455
11.8512243573
11.8082597126
11.9951473993
12.5169641451
12.8739560543
19.9980494364
24.1105589924
24.1960853781
23.6468119013
22.7428621808
23.58515156
24.9186239024
24.2128948102
23.4965507558
23.6641339614
25.9221491258
26.547864584
27.093131752
24.2182088017
22.0866851127
10.7808693532
8.05691989693
8.0191939284
12.9115110514
10.7608211345
7.45519973791
7.59755520263
7.84122884971
9.16938151184
7.77497625419
13.438469311
14.0587330151
13.5985176862
11.6449605032
10.1539840516
10.3450968225
11.9087565489
11.992028497
11.8152706238
12.1774851021
12.8441648205
13.7484280564
14.6623201656
16.0824809371
17.2917907364
17.558703969
19.5826201202
18.9485514709
20.9275113388
20.1922469222
21.5398835098
20.0966484377
19.5131408062
19.2224205094
19.2774628941
19.5730589504
19.9660398519
20.3766069627
20.7475457668
21.0844021488
21.4200615346
21.7613913944
22.0842602602
22.3511748354
22.5274419267
22.5973189991
22.5693901934
22.4654229199
22.2997109517
22.0647559176
21.7303974325
21.2490967846
20.5706824115
19.6788181887
18.6282668577
17.5336515799
16.4820247757
15.4377128417
14.3326158478
13.3885840334
13.0404808101
13.3696082061
13.9452415422
14.3899969212
14.5165354721
16.6447959131
24.2572226713
25.9900786784
26.0641812247
26.7505107547
27.8142410921
27.4502997782
26.4054828165
26.151074759
27.0628016122
28.1697316106
27.9555966872
27.3043116782
26.2696322962
24.8941870277
10.1314997288
8.40020819074
9.18248707789
12.9461371961
8.5764822872
8.46265386609
8.26124853949
8.51511551179
11.8211893003
10.4640243456
14.270226747
14.2979848215
13.6285939921
10.8356330336
10.1388198793
11.8210605767
12.1588914423
11.7114170254
11.7773709779
12.3466215323
12.9783008406
13.826190652
14.5977183876
16.2582185894
18.4640723067
17.474581173
19.5210007586
20.7168629643
21.1820220622
21.6432679456
20.5675159753
20.4581458819
19.1449518017
19.1083098989
19.4337935848
19.7778423962
20.1535680155
20.557648996
20.9538852621
21.3304848083
21.6962919772
22.051034818
22.3767155677
22.6440320206
22.8251485329
22.9112880355
22.9183890799
22.869943946
22.7762651561
22.6260416825
22.3856090878
22.0036486451
21.4357807233
20.6895463764
19.8403336246
18.9659444024
18.0114067053
16.7787739322
15.3791615207
14.4895050546
14.641518426
15.5583071069
16.4036609497
16.8525668994
16.894039821
16.0170535644
16.4903231906
27.7455565196
30.6196647255
31.6784760391
31.5469888831
30.1067751656
29.1333748942
29.3206088934
30.3458174357
30.562396462
30.225921481
29.8787167099
30.1863620202
30.3550369527
9.98133489069
9.16334839059
12.695783698
13.0208863313
8.54397391171
9.18798128292
8.9125564445
9.46950809543
11.2066701151
14.0579489837
15.0467278567
14.5172427596
13.8088136934
10.7468100527
10.2695048118
12.369710627
12.2294045541
11.6604312122
11.8028184993
12.4933074867
13.3777565517
14.1850943735
14.792475048
15.8679072898
18.6346599111
19.7840681808
19.030932611
20.8635251501
19.7927954686
21.6828149224
21.8487511809
20.3662873393
19.0798328353
19.2119857377
19.622778297
19.9934458144
20.3642156941
20.7610456251
21.1690041036
21.5830580543
21.9897073306
22.3676491071
22.7021095053
22.9739220304
23.1631986537
23.2697840464
23.3172517853
23.3308456699
23.318044549
23.265217961
23.1379736275
22.8863029487
22.4782331218
21.9438098161
21.3502468895
20.6560965639
19.5419039972
17.859223874
16.4550659817
16.1490398838
17.1873604619
18.7286131625
19.7552801876
20.1597262427
19.890467612
18.7700100654
17.0779625489
18.3903882886
32.1563045371
37.3918127449
36.0862340367
33.6587954998
32.7448348879
33.0748803649
33.6704834449
33.8182329696
33.9861003197
34.4342126935
35.002162599
35.6524385276
10.219717828
9.97617433666
14.3035218547
13.628758624
11.6004906608
10.3702761094
9.776257846
10.9495226104
10.5549865176
15.0062830557
15.6383891795
14.8024305253
13.8078515074
11.2812498596
11.0318293102
12.8499870713
12.2136902713
11.719191826
11.9204511687
12.539931537
13.5437677038
14.6449973499
16.3927009331
16.0177985211
18.1016484576
20.1766020155
18.8557668039
21.1572441307
21.8379392681
20.6812994494
20.7559035321
19.4859237501
19.3835284924
19.5427842903
19.868001848
20.2346848598
20.6056096697
20.998194846
21.4017456268
21.8353337597
22.2913130359
22.7132564921
23.0640205286
23.341011108
23.5419629992
23.6749117084
23.768195289
23.8478927526
23.9206309242
23.9737854728
23.9760793452
23.888824752
23.7023203432
23.4527786377
23.1317698828
22.4189414815
20.7765103381
18.8640158411
18.0983948401
18.8805098968
21.0576524201
23.0965005229
24.2337267761
24.7290892444
24.3344001155
22.8674629736
20.6165827228
17.8349108102
27.7751712537
38.2985426935
41.1840399026
38.4302332644
37.5571949333
37.7658590741
38.1008415327
38.163977151
38.9022910016
39.6444945418
39.5779038329
39.7755047663
10.7442773124
10.5830736051
13.9864221106
14.0431569485
14.0262677057
11.4272683425
10.7732947335
13.8925703738
10.823548237
15.8557931156
16.0871610926
15.099687598
13.8152432135
11.8260676539
13.836328685
13.9227011535
12.3517524698
11.9137701081
12.1699032208
12.6914048304
13.5096945207
14.6221299105
17.7713300436
18.7124342415
17.5161578016
20.264466335
21.1153897662
20.6800238809
21.8101097583
22.0018938324
21.1701331879
19.4916675638
19.5830396068
19.873941421
20.1672020149
20.5050421658
20.8598141543
21.2659399787
21.6877465976
22.1158349035
22.5928571229
23.0682747648
23.459684339
23.7501239989
23.9639244044
24.1282704406
24.2726256949
24.4190474819
24.5743447662
24.731338338
24.8713578057
24.984839632
25.0911929413
25.1870840706
25.0554784235
23.9581834901
21.7535545801
20.3387860563
21.228855946
23.849407071
27.1504774011
29.4491155525
30.3038919779
30.7328971401
29.5839650206
27.3576457697
24.4465172006
20.0995091467
22.5295292329
34.7294998182
41.8573808166
43.148075042
41.6749587859
42.2691436476
42.707536621
43.309658142
44.3977499591
45.0793127533
45.0577818596
45.2383958689
11.3287825627
11.2305835078
10.8986956943
14.3219782736
14.4990328252
12.1127044949
11.6771538583
14.817432878
11.3950470962
16.7194942659
16.4834285097
15.4090676786
13.9407955204
12.08551595
15.009365787
14.4123922046
12.7162851351
12.2762075584
12.5080052107
13.0135169661
13.601583418
14.5256599925
18.3246297381
19.7731998765
17.8426406435
20.3401345116
21.6520115888
20.0233808277
21.4400078471
21.4691430559
19.8365306189
19.8478812163
20.0336944805
20.2520232851
20.4953711855
20.8311933187
21.1739208314
21.5351116673
21.9798168359
22.4488618689
22.9339057236
23.4350246943
23.8718914208
24.1950861276
24.4323307037
24.6336623042
24.8310336665
25.0366369496
25.2612115125
25.506609169
25.7720751482
26.1187349541
26.5915586423
27.0613112923
26.8480054268
25.0209319402
23.3410142567
23.1867379491
23.9334482556
25.631301502
26.9544912564
25.4111416958
20.6207554547
15.9791168658
11.1857160698
10.4530318874
14.4901909073
18.2176707192
20.1944974747
19.7262019253
43.3326057625
47.2517147785
46.7967498711
43.0581589995
41.6638443492
46.0559147844
49.2976687807
50.6924892992
51.7987299123
52.3070628432
12.0902416857
12.1712108939
14.9352063164
14.9052410536
14.8786114864
12.6880501233
12.678690073
15.5866908557
12.3500025829
17.4534637995
16.8525839467
15.7356599776
14.1415954703
12.4357731355
15.250413844
14.5199811239
13.081772167
12.6900096936
12.8692049911
13.31517858
13.8547342552
14.5747787285
17.6484190021
20.5850570385
20.686537721
19.6204694168
21.867427148
22.5523305072
20.0137837103
19.6375143182
19.7521868244
20.0722506541
20.3681603381
20.6189161317
20.8850571528
21.1756327102
21.5127439599
21.8872378586
22.2911946919
22.7873305137
23.3175520694
23.8408968972
24.3051947841
24.6643825026
24.9431881863
25.1909759072
25.4401267002
25.7014956163
25.9687195398
26.2427261567
26.5975753536
27.1944450952
28.0746007079
28.8018483112
27.9621274627
25.8652807226
21.4664391585
13.2837771912
0.103190556015
0.0019344540339
3.27903215287e-05
9.48705358644e-08
2.69601353861e-10
4.66674840686e-15
3.65034444977e-15
8.86219691254e-15
5.97382139215e-14
2.79810458782e-13
1.03362123147e-12
6.5685013966e-12
5.14298996466e-12
4.46182341352e-10
2.53952304703e-07
2.55276255128e-05
0.00193711554947
0.446070902515
43.8905070077
55.0729173405
58.9626290809
59.58453859
12.7963863404
12.9840954244
16.5169637669
15.4907024139
14.8757809324
13.2781389025
13.659168502
16.2089601576
16.1867630131
18.3528621249
17.2704109907
16.1457392897
14.4131868996
12.9340286023
15.5047257945
14.5747576572
13.4435680531
13.1142155024
13.2277770263
13.5980305961
14.1151706907
14.8416055703
17.059714489
20.8438018493
22.0829449821
19.2097536898
21.4114656576
22.5640730691
22.0815134219
20.1579100694
19.8621047977
20.296120694
20.72139388
21.0478443636
21.2463783877
21.5456394596
21.8644493852
22.2514883784
22.6660972382
23.1549483404
23.7234454588
24.2901483106
24.7696924615
25.1426912688
25.4724565793
25.8233844104
26.1647356452
26.445407767
26.6317033187
26.8578442662
27.2930235379
28.0706634523
29.3017135845
29.8949817575
26.6578768884
14.9943196349
5.18807227e-05
2.10091890097e-07
6.07551736871e-09
8.84483959761e-11
7.18624526382e-14
1.19909388917e-16
8.45246785511e-18
0
0
0
0
0
0
0
0
1.1755941344e-21
3.96503563941e-19
5.93084817475e-17
3.44088818084e-14
4.80607633658e-11
2.60261317025e-06
0.039523822857
45.6302309496
62.6832720348
13.3678892765
13.5783657263
18.7088815783
15.9234996186
14.5970539101
13.8051819972
14.351498988
16.1606360333
17.7670216535
19.3934476377
17.8401194591
16.6826825763
14.9278996732
13.7364101045
15.9671776108
14.7895659589
13.8917127817
13.5926527618
13.6260990684
13.916127137
14.3668193548
15.0438586156
16.81321514
20.7134682655
23.0751197759
22.1854747727
20.8392957152
21.9138429824
21.72365035
19.9836254853
20.3243258928
20.7993036709
21.2804103859
21.5320586713
21.7441006233
21.9441491793
22.278938872
22.6383273893
23.0732987477
23.571995007
24.1452743063
24.7566145626
25.3125748053
25.7030274488
26.0693921473
26.5239822895
26.9670442914
27.2238771452
27.2840928055
27.4232771693
27.8521579616
28.5938677559
29.5568682816
27.7732165531
0.343559898672
7.51113935555e-08
2.46332666732e-11
9.96067567783e-13
1.35810814374e-14
3.72430162474e-17
0
0
0
0
0
0
0
0
0
0
0
0
0
1.5147529079e-20
1.50523643715e-19
3.29980440806e-18
1.60002952768e-16
8.8853311149e-13
0.000739582625937
1.42566488986e-08
13.8102751529
14.0084763125
20.8027757818
16.2421662008
14.6046590229
14.3009892098
15.1460564546
15.3596362865
18.7166495192
20.1328006351
18.397698187
17.2363216039
15.6511841548
15.6979332776
16.614736951
15.2512963981
14.5412323716
14.276247336
14.1329465348
14.322420092
14.6717266405
15.276470041
16.7713512903
20.5799319573
23.4822892518
23.8534474718
20.3819588741
20.6350265773
20.1858316577
20.1007764363
20.6096144262
21.3129184737
21.782666795
22.0483656923
22.2690449166
22.5738831764
22.7527601724
23.094347128
23.5156963673
24.0016184869
24.6426599663
25.3102081366
25.895542704
26.2357119971
26.6064174972
27.8701409954
29.6633712455
30.1321273373
28.8049615459
28.5242927649
28.7686171079
29.2473548789
27.6893649682
0.0397476060763
5.99048490888e-07
2.68742571748e-18
2.71567697995e-15
4.43123643772e-17
0
0
0
0
0
0
0
0
0
0
0
0
0
0
0
0
0
0
2.34024575295e-19
1.58477577014e-18
2.9224579124e-16
94.39209159
14.2095402724
14.374743233
20.5805260938
15.5272633327
14.7286842316
14.726863256
16.0519755969
15.2504087127
19.5099691397
20.8304880008
18.936811629
17.756530553
16.2025591319
18.0108963583
17.5371567775
15.9202878204
15.2941083163
15.3587307674
14.8651778311
14.8996266695
15.0772387742
15.5414315385
16.8772469931
20.4305179056
23.345231227
24.9708077545
23.3811009731
22.1867009517
21.403000438
20.392891923
20.9280531024
22.0156420202
22.196001408
22.5525751815
23.1087058007
23.1493757893
23.3280572452
23.6629335426
24.088739668
24.5638168149
25.1167412903
25.8285335473
26.5628683322
27.430928243
28.5856754595
30.298647225
31.5854788862
31.28249543
30.938195605
31.3461066793
31.9677010348
33.1840005005
0.18075660325
1.64994682911e-06
2.16856219251e-10
2.94532310984e-12
0
0
0
0
0
0
0
0
0
0
0
0
0
0
0
0
0
0
0
0
0
0
7.20089845519e-19
5.24120002232e-08
14.6917043155
14.8372642632
20.151597333
15.0808119456
14.979103478
15.069280871
16.8212620844
15.6568688102
20.1797141985
21.5154051464
19.4796747705
18.2907725546
16.6712385221
18.713296645
18.3893552005
16.6654824834
16.0330857852
16.2239014959
15.7499477938
15.7028122224
15.6933615288
15.840556669
17.1465738753
20.4067535397
23.0625107676
25.316139207
24.6086698895
22.6078502558
20.537109137
20.9255903436
21.5041976068
22.5465958926
23.1760144724
23.634559893
23.948237932
23.82013313
23.9804720225
24.3319917743
24.7594275523
25.255991444
25.7996958727
26.5857060568
27.7195547525
29.3909505078
30.4684180335
30.6429662632
31.1785866343
31.5016559967
33.4376250793
35.4888661435
39.770616018
1.64704416621
2.1869602172e-06
3.77130076954e-10
7.73513209051e-13
1.87282427263e-14
6.28643537338e-17
0
0
0
0
0
0
0
0
0
0
0
0
0
0
0
0
0
0
0
0
0
1.21013520409e-19
1.60111940624e-19
15.4278783213
15.5751738208
19.7266708187
15.2972703157
15.5187700269
15.5177787121
16.7276744557
16.3686925654
20.6362094654
22.1631280134
20.0623017454
18.882158518
17.2740158237
19.3626405598
19.167332587
17.5207818674
16.8448656126
17.0734139997
16.6074545579
16.6559360064
16.6043335455
16.3069698901
17.6154329386
20.563109826
22.9302297075
25.4175514765
25.1309179562
23.2159046925
20.9532417891
21.1345205883
22.2025284358
22.6032715112
23.0689852644
23.7765935468
24.9023539117
24.8570227012
24.9235307475
25.0952521326
25.4738425308
26.0540363171
26.7142810733
27.6275559548
29.703137467
31.6235579208
31.6497022642
31.6334609436
32.6858996333
36.1566007635
40.4310349572
43.625252152
0.470565647809
7.81692161192e-08
3.23482495889e-12
1.06059294116e-15
6.65465192477e-18
1.34884401567e-17
2.07132108448e-18
0
0
0
0
0
0
0
0
0
0
0
0
0
0
0
0
0
0
0
0
0
8.94446444586e-21
4.06141848204e-20
16.5541206049
16.6535237221
19.9204532533
16.2105324916
16.690210941
16.3479124866
16.943306199
17.7318191212
20.5841602748
22.6265165688
20.715475377
19.5527429759
17.9930636696
20.1031468041
19.9762713085
18.5519891833
17.8592062397
18.085272923
17.4709961873
17.7140274584
17.8541833688
17.0230959092
18.1379519487
20.8967934148
22.9825333634
25.2553771709
25.3595983556
23.7781935738
23.1657486587
22.0268954778
22.6465948482
23.5744253539
24.7153608151
24.3456876571
25.0123103865
25.9315641773
25.9535921687
26.2358185793
26.4793928924
26.9311323223
27.7371191447
29.7380625022
32.7323377741
33.5541300016
33.1046316912
34.2671391468
39.2038875455
46.3561089808
48.9111276944
0.0169263266796
1.18430581983e-09
1.10571096583e-14
7.56563892787e-17
0
0
0
0
0
0
0
0
0
0
0
0
0
0
0
0
0
0
0
0
0
0
0
0
0
0
0
18.1476930098
17.9863043681
20.6462093483
18.1426696519
18.7011548207
17.5998312113
17.8400887597
19.7310530235
20.7184449052
23.2037756362
21.4970800137
20.3144125012
18.8061174978
20.8810265459
20.7802361298
19.6964337206
19.3925277753
19.4270132689
18.4252878123
18.8810012548
19.4276997935
18.0860889023
18.5226236141
21.3082801154
23.2241133743
25.0937691994
25.5376767237
23.8726996116
24.362360244
23.6700106581
23.7858460883
23.1413996446
24.2296389715
25.7104846339
25.9744937005
26.5758315469
26.9879624178
27.2749028917
27.7110899196
28.1740922331
29.628292061
33.20692043
35.6055562683
35.7796479831
36.4130810833
40.648719099
48.9990594547
50.7789675399
0.000240096271258
1.05689503129e-11
1.8476755897e-14
8.46027094053e-17
0
0
0
0
0
0
0
0
0
0
0
0
0
0
0
0
0
0
0
0
0
0
0
0
0
0
0
0
19.8493324551
19.2391024434
21.4553737218
20.7474033534
20.4292296962
19.0741595485
18.8430554726
20.8664719319
19.7754673247
23.6404498612
22.390396854
21.1598581459
19.7051788849
21.6752567751
21.5273994891
20.6466757895
21.5861616094
21.0581675547
19.5111302479
20.1950091406
20.7999588869
19.4763082605
18.6008021234
21.2763342614
23.3927775686
24.968710356
25.5960669603
23.9389031942
24.7143122766
24.9801611851
25.1112083574
23.9073476796
24.5429441919
25.5175197035
26.9254134025
27.8207856812
28.2689359489
28.5017350453
28.8932389991
29.9440228145
33.2463742832
37.0224447542
38.6929956259
39.4569114963
42.1662114522
48.4459381358
47.3021186956
1.11315762786e-05
2.84578142454e-11
4.11986901762e-14
1.44285760917e-16
0
0
0
0
0
0
0
0
0
0
0
0
0
0
0
0
0
0
0
0
0
0
0
0
0
0
0
0
0
20.6776187424
20.1277132562
21.970572411
21.7913307516
21.4930194952
20.4871099077
20.0394639772
22.262265841
20.8066703123
24.2125681515
23.2937074527
22.0552287334
20.6848755664
22.5053041079
22.2953851133
21.4484329798
22.5484984348
22.1552478538
20.5843660619
21.5110999302
21.5237053691
20.2621998898
19.6850843753
19.8826048545
22.8978582603
24.4758449873
25.3873346651
23.9195455917
24.778379678
25.5117730273
26.1808365616
25.8501897914
24.7596194295
25.5404699672
27.1515577652
28.7034743105
29.6688138636
30.190778011
30.5975554775
33.2952718346
37.6501984305
40.8061559297
42.1300926241
43.6889475024
47.5135625609
42.9460047542
3.95136088331e-05
1.50338494137e-10
1.35424959573e-13
3.85697295942e-16
0
0
0
0
0
0
0
0
0
0
0
0
0
0
0
0
0
0
0
0
0
0
0
0
0
0
0
0
0
0
20.7614886011
20.7114057919
22.3051454516
22.0084486782
22.18778473
21.5995482624
21.0952647545
23.6356096318
22.5321158937
24.964177234
24.2592105798
22.986958595
21.7396608783
23.3860646346
23.1398133595
22.3945953147
23.3471647191
23.1192279489
21.7290092534
22.5407272943
21.1763199563
21.0088969123
20.7386812997
21.0247715241
21.8858371133
22.8272802744
24.5590631203
23.7698856996
24.2965255301
25.5437662224
26.6415372627
27.2357542668
26.3506783158
26.3334994572
27.2861147473
28.7922505775
30.5270831065
31.9568328501
33.3985728223
37.5698557742
41.8045122282
44.2398903835
45.0187134908
46.0811266145
40.4883194463
2.00362078867
1.01966209102e-09
4.7040614201e-13
1.0537537626e-15
0
0
0
0
0
0
0
0
0
0
0
0
0
0
0
0
0
0
0
0
0
0
0
0
0
0
0
0
0
0
0
21.0368268324
21.1446472724
22.6190711781
21.061013648
22.4982474277
22.2263223699
21.821992983
24.2534231641
23.3954345922
25.752528168
25.2757328869
23.9294450421
22.8787259956
24.3051332312
24.0328314609
23.4804695189
24.2246441158
24.1944986208
22.9950555496
23.9537069511
22.537956191
22.7054892821
22.0037500528
22.3132341228
23.7767551042
24.382721395
24.2149370355
23.5598444486
23.8070889922
25.5148310267
26.6730700768
27.4977026109
27.817370372
27.452814963
28.7754587087
29.5648719968
31.2469983046
33.6431720598
36.9535882987
41.863941473
45.4886259999
46.8521435597
45.3729161837
39.6584808568
32.9172498673
3.85861351127e-08
3.94730124261e-12
8.98622443124e-15
0
0
0
0
0
0
0
0
0
0
0
0
0
0
0
0
0
0
0
0
0
0
0
0
0
0
0
0
0
0
0
0
21.7855385985
21.8602855685
22.9496800193
21.5083345728
22.7746174294
22.5848954345
22.3516946964
24.4673289957
24.01923805
26.3471461954
26.2854509978
24.826562335
24.0917876236
25.2203631152
24.8974869286
24.5392565228
25.0700311291
25.3596377704
24.3082776782
25.3679640851
24.3327582573
24.8293040778
24.535891819
23.248412858
24.4693316581
25.4772017724
25.5586700929
23.4483376652
23.2438740063
25.449088576
26.8546387939
27.1077766188
27.5736493932
27.8142659741
29.0762045286
30.1881293008
32.1114324841
35.4064506433
40.6718746395
46.1016881666
48.8217924968
48.1995745965
43.1690416652
35.7157627554
0.0398145370579
4.48811014484e-11
6.26195445718e-14
2.5392364544e-16
0
0
0
0
0
0
0
0
0
0
0
0
0
0
0
0
0
0
0
0
0
0
0
0
0
0
0
0
0
0
0
0
22.7277357559
23.8143310621
23.4329146533
22.5344016588
23.345028183
23.0070635976
22.868198576
24.6593658326
24.5975985144
26.5939526532
27.276291632
25.6423042276
25.1758948887
25.9726776296
25.7283733945
25.3447650806
25.3427692522
26.428468348
25.7008002961
26.6043313417
26.3368393724
26.156795953
25.952843311
25.5254785419
24.7387608373
25.5434853284
26.5484598323
22.9258691113
22.7915068772
24.7641328253
26.9311512874
27.7564124749
28.4552545188
27.8950142618
28.9723173155
30.48779915
32.6387647128
37.0540120493
44.2986637823
50.0528690154
51.4427917135
45.6836862989
40.6291786365
37.0098920554
3.38531047722e-09
4.24440953439e-13
1.08327540251e-15
0
0
0
0
0
0
0
0
0
0
0
0
0
0
0
0
0
0
0
0
0
0
0
0
0
0
0
0
0
0
0
0
0
23.4538454734
24.5736681971
24.1785600831
23.4681002087
24.0862417789
23.6173006253
23.4577480482
24.9398902462
25.166066254
26.5779866085
28.1692501141
26.4412421479
25.842478329
26.6044806705
26.6444590495
26.0855409902
25.5728459907
27.195118078
27.1479802635
27.6862783646
27.6862956883
27.7901893485
26.4552104478
26.4159925795
25.9199140081
27.2316327382
27.9320296174
24.9614541007
22.4413025686
23.7976392306
26.3162243292
28.0281607324
28.7101148358
28.5569782079
28.699767303
30.427403238
32.6661796573
38.3534099993
47.7033624906
54.0115756678
51.9506924282
44.1876546841
36.6701814998
11.3173932192
1.45523536949e-11
1.25148162785e-14