/*--------------------------------*- C++ -*----------------------------------*\
| =========                 |                                                 |
| \\      /  F ield         | OpenFOAM: The Open Source CFD Toolbox           |
|  \\    /   O peration     | Version:  v1806                                 |
|   \\  /    A nd           | Web:      www.OpenFOAM.com                      |
|    \\/     M anipulation  |                                                 |
\*---------------------------------------------------------------------------*/
FoamFile
{
    version     2.0;
    format      ascii;
    class       volVectorField;
    location    "515";
    object      U;
}
// * * * * * * * * * * * * * * * * * * * * * * * * * * * * * * * * * * * * * //

dimensions      [0 1 -1 0 0 0 0];


internalField   nonuniform List<vector> 
6400
(
(-9.59469327491e-05 -0.000127383083932 0)
(-0.000257934956661 -9.53512173048e-05 0)
(-0.000375805620284 -7.59291160776e-05 0)
(-0.000504483398984 -6.62162638227e-05 0)
(-0.000597597743575 -4.10751542813e-05 0)
(-0.000664324823557 -2.17148244438e-05 0)
(-0.000698737370574 -1.45436735402e-05 0)
(-0.000726103770191 -2.44553467844e-05 0)
(-0.000807072320112 -3.57528271851e-05 0)
(-0.000887869583042 -3.3499439333e-05 0)
(-0.000920843690897 -2.99037987644e-05 0)
(-0.000994399202955 -3.2080506925e-05 0)
(-0.00105989330256 -2.86881824791e-05 0)
(-0.00111235629194 -2.27587042883e-05 0)
(-0.00115024661793 -2.00308739312e-05 0)
(-0.00119010770497 -2.28804676045e-05 0)
(-0.00124049515643 -2.35937053416e-05 0)
(-0.00128308550481 -2.00777212971e-05 0)
(-0.00131304610544 -1.50419221378e-05 0)
(-0.00134016416285 -1.25693151292e-05 0)
(-0.00137638760488 -1.77783832397e-05 0)
(-0.00142252327272 -2.36336156329e-05 0)
(-0.00147215008389 -2.48457932253e-05 0)
(-0.00151698023317 -2.40261237033e-05 0)
(-0.00155893164198 -2.18153335877e-05 0)
(-0.00159867169597 -1.90797211121e-05 0)
(-0.00163798302693 -1.78370499858e-05 0)
(-0.00167370562607 -1.61118422054e-05 0)
(-0.00170336607705 -1.36407168884e-05 0)
(-0.00172772560991 -1.16846211586e-05 0)
(-0.00174710629356 -1.12406451777e-05 0)
(-0.00176740985181 -1.02286301737e-05 0)
(-0.00178772703885 -8.164771219e-06 0)
(-0.00180376406621 -7.96021361131e-06 0)
(-0.00181832129031 -7.60773740927e-06 0)
(-0.00183832999454 -7.12335865774e-06 0)
(-0.0018549574489 -7.54743645738e-06 0)
(-0.00185800435498 -6.56231093417e-06 0)
(-0.00187136724595 -4.45240011597e-06 0)
(-0.00189055391296 -3.51793979789e-06 0)
(-0.00190133824258 -6.22608092363e-06 0)
(-0.001901614075 -5.77024165996e-06 0)
(-0.00189869937371 1.29841664214e-06 0)
(-0.00189216194235 6.42396784241e-06 0)
(-0.00187886427374 9.03091167241e-06 0)
(-0.0018602405855 1.19579792442e-05 0)
(-0.00183558391028 1.50297681679e-05 0)
(-0.0018035212296 1.88239236406e-05 0)
(-0.00176408590436 2.24859049153e-05 0)
(-0.00171726626952 2.33795751954e-05 0)
(-0.00166698749841 2.16348598513e-05 0)
(-0.0016217849018 2.5180143142e-05 0)
(-0.00155931211173 3.89777590126e-05 0)
(-0.00148478762853 4.72033836134e-05 0)
(-0.00138863378935 5.3984854756e-05 0)
(-0.00125940513057 6.41196729821e-05 0)
(-0.00112419651205 6.42126347403e-05 0)
(-0.00100342855423 6.29502686328e-05 0)
(-0.000880309745356 7.14920628012e-05 0)
(-0.000713535114897 7.67732708661e-05 0)
(-0.00055147979522 7.73651661301e-05 0)
(-0.000378171266458 9.27757595816e-05 0)
(-0.000187070699333 0.000127583776548 0)
(8.35068752318e-05 9.37122050267e-05 0)
(0.000207036482695 4.92791438972e-05 0)
(0.000270449579153 3.02481061729e-05 0)
(0.000312882745833 1.85509711714e-05 0)
(0.000346349244788 1.10389047096e-05 0)
(0.000370921173441 4.91978701976e-06 0)
(0.000376138952516 -1.88597118212e-06 0)
(0.000368079391305 -8.24457704618e-06 0)
(0.000340877790536 -1.35569279781e-05 0)
(0.000303333021001 -1.8543152958e-05 0)
(0.000275416196629 -2.43537768431e-05 0)
(0.000210317306928 -2.15112991547e-05 0)
(0.000185064308172 -2.00841457173e-05 0)
(0.000122810481588 -1.27881608208e-05 0)
(0.000126709520689 -1.80936171769e-05 0)
(5.45619457303e-05 -1.29941047857e-05 0)
(4.05687802972e-05 -2.41918182879e-05 0)
(-3.60708490052e-05 -0.000178544227454 0)
(-0.000153555063605 -0.000199424438478 0)
(-0.000267609813904 -0.000179665103858 0)
(-0.000341074128342 -0.000143685179897 0)
(-0.000493134169883 -0.00014025522671 0)
(-0.000630992366048 -9.90117960482e-05 0)
(-0.000711091858891 -6.26908440958e-05 0)
(-0.000765758695449 -8.03788808078e-05 0)
(-0.000823935662992 -0.000103450485616 0)
(-0.000888989515482 -0.000100720269857 0)
(-0.000950567660041 -9.36545984192e-05 0)
(-0.00100685900058 -9.0905258902e-05 0)
(-0.0010591176574 -8.06193890927e-05 0)
(-0.00110590813915 -6.7605033882e-05 0)
(-0.00115183142778 -6.17275413346e-05 0)
(-0.00119604408899 -7.28869523689e-05 0)
(-0.00124117256713 -7.64668680378e-05 0)
(-0.0012773708702 -5.39537774237e-05 0)
(-0.00127646929165 -3.74716981409e-05 0)
(-0.00131137104053 -3.85425604434e-05 0)
(-0.00135952766425 -5.58178977546e-05 0)
(-0.00141341203834 -7.64788562876e-05 0)
(-0.00147329168689 -7.96242289775e-05 0)
(-0.00152309717819 -7.03105940116e-05 0)
(-0.00155271236694 -6.30852766619e-05 0)
(-0.00159882427955 -5.9382396683e-05 0)
(-0.0016409507065 -5.42628026983e-05 0)
(-0.00167393192337 -4.74584429202e-05 0)
(-0.00170221066546 -4.07648162738e-05 0)
(-0.00172754254863 -3.53942459112e-05 0)
(-0.00174922407203 -3.26864996678e-05 0)
(-0.0017620688571 -2.91104692769e-05 0)
(-0.00178205094866 -2.27301220214e-05 0)
(-0.00179655581643 -2.32027352542e-05 0)
(-0.00180776091493 -2.52787649744e-05 0)
(-0.00183673399969 -2.13505517229e-05 0)
(-0.00184829150213 -2.16019405289e-05 0)
(-0.00185204461147 -2.25170051678e-05 0)
(-0.00187159980644 -1.84485631988e-05 0)
(-0.00190170184805 -1.2018406465e-05 0)
(-0.00191464216694 -2.58847015774e-06 0)
(-0.0018609065566 6.23910587108e-06 0)
(-0.00183226897999 1.17338153324e-05 0)
(-0.00183145195194 1.60925024087e-05 0)
(-0.00182219805408 2.11899967886e-05 0)
(-0.00181295415198 2.80356074801e-05 0)
(-0.00180061425659 3.70422552592e-05 0)
(-0.00177735970562 4.76487051513e-05 0)
(-0.00175254255879 5.93274851152e-05 0)
(-0.001716911185 7.0451086039e-05 0)
(-0.00166070085305 7.90788862844e-05 0)
(-0.00157507753754 8.70200026663e-05 0)
(-0.00149301598748 9.87598109091e-05 0)
(-0.00148457473031 0.00012505140081 0)
(-0.00137781200392 0.000154940305647 0)
(-0.00126631511548 0.000176874880983 0)
(-0.00117640341193 0.000188918695881 0)
(-0.0010530638832 0.000199435720123 0)
(-0.000909892197202 0.000221720665174 0)
(-0.000756445259327 0.000249055291938 0)
(-0.000589378511023 0.000277692602992 0)
(-0.000345726159166 0.000280663703867 0)
(-0.000157504986757 0.000368395084892 0)
(8.64519839669e-05 0.000286913236477 0)
(0.000210111554557 0.000158923792447 0)
(0.000261900839843 8.30728241719e-05 0)
(0.000297501749184 5.2946036517e-05 0)
(0.000346318991319 3.84077579639e-05 0)
(0.00037202893001 1.81820270532e-05 0)
(0.000383202381242 -5.89180794991e-06 0)
(0.000368614639169 -2.9286290865e-05 0)
(0.000336245996313 -4.63787247902e-05 0)
(0.00028934819226 -5.22142339772e-05 0)
(0.000267636228272 -5.98286583822e-05 0)
(0.000231870845434 -6.12753927794e-05 0)
(0.000197472870395 -5.90231949576e-05 0)
(0.000161033001938 -5.17376279741e-05 0)
(0.000126918630309 -5.44784733745e-05 0)
(7.83416655954e-05 -5.85074397343e-05 0)
(3.60918701845e-05 -9.52003180072e-05 0)
(-5.37374351558e-05 -0.000308324765369 0)
(-0.00014842785937 -0.000333971590429 0)
(-0.000229214606088 -0.000308663051864 -9.40389454747e-29)
(-0.000387427925397 -0.000310412878686 8.78093212779e-29)
(-0.00053401120185 -0.000304193220375 7.78604473808e-29)
(-0.000625576795906 -0.00024375659416 -7.1138902453e-29)
(-0.00069027985658 -0.000130596183678 7.16057938799e-29)
(-0.000747381086782 -0.000138132013037 -6.97683774255e-29)
(-0.000808331894651 -0.000167835875136 0)
(-0.00087757838941 -0.000170013135674 0)
(-0.000945149383301 -0.000158630553461 0)
(-0.00100421142688 -0.000144475271987 0)
(-0.00105652257744 -0.000127608207459 0)
(-0.0011019868543 -0.000115105085053 0)
(-0.00114816412092 -0.000107640594946 0)
(-0.00119212596171 -9.48268469167e-05 0)
(-0.00110581157047 -7.00414360379e-05 0)
(-0.00108079547729 -5.50759667973e-05 0)
(-0.00111970788638 -6.56788766406e-05 0)
(-0.00119798233017 -0.00010082491769 0)
(-0.00135027652888 -0.000135957966459 0)
(-0.00143113142157 -0.000142462211468 0)
(-0.00146176080018 -0.000130721842026 0)
(-0.00151183260025 -0.000116936388574 0)
(-0.00156270515776 -0.000107185149246 0)
(-0.00160189614097 -9.96335215539e-05 0)
(-0.00163728083271 -8.90933302246e-05 0)
(-0.00167068178595 -7.77992428183e-05 0)
(-0.00169968035374 -6.76014555841e-05 0)
(-0.00172343199332 -5.94155197817e-05 -1.3612819071e-28)
(-0.0017480311326 -5.21164121238e-05 1.319017263e-28)
(-0.00175468800441 -4.56035296227e-05 0)
(-0.00177148634791 -3.81865895411e-05 0)
(-0.00180217855382 -3.26975034403e-05 0)
(-0.0017847165714 -3.93917455196e-05 0)
(-0.00181452937768 -4.24002226854e-05 0)
(-0.00185495499987 -3.59665531564e-05 0)
(-0.00183954125841 -3.68700753513e-05 0)
(-0.00186412979498 -3.96247556384e-05 0)
(-0.00189966971112 -2.7473402522e-05 0)
(-0.00191520133921 2.17602298618e-07 0)
(-0.00191246635769 2.0862829795e-05 0)
(-0.00190592608431 2.43893163541e-05 0)
(-0.00189804334702 2.67995027577e-05 0)
(-0.00188493514276 3.42536678552e-05 0)
(-0.00186630551765 4.49555757426e-05 0)
(-0.00184232045285 5.92895673045e-05 0)
(-0.00181265961641 7.58431616308e-05 0)
(-0.00177717873668 9.46186801256e-05 0)
(-0.00173517017161 0.000116838167632 0)
(-0.00168581334361 0.000140181985828 0)
(-0.00162809688314 0.000158627902511 0)
(-0.0015604726811 0.000172046696486 0)
(-0.00147160295905 0.000203736157391 0)
(-0.00136507221958 0.000245171560549 0)
(-0.00127647418892 0.000277520583343 0)
(-0.00116797894217 0.000305771848302 0)
(-0.00103350924288 0.000338277756065 0)
(-0.000880219775084 0.00037652641294 0)
(-0.000710667100946 0.000421147348388 0)
(-0.000521736173728 0.000472815980797 0)
(-0.000319914234048 0.000535422848185 0)
(-0.00011494617866 0.000596810856875 0)
(7.26648913388e-05 0.000430574152138 0)
(0.000183427905986 0.000234141774782 0)
(0.000264243294222 0.000144730073083 0)
(0.00032433898808 9.98536878201e-05 0)
(0.000356082818621 6.46806434319e-05 0)
(0.000372560802681 2.62104524374e-05 0)
(0.000372137106177 -1.50339017936e-05 0)
(0.000352248451979 -4.98038047748e-05 0)
(0.000324983850054 -7.07909243786e-05 0)
(0.000306248281845 -8.25331630627e-05 0)
(0.000280309670201 -9.51826508122e-05 0)
(0.000238620731406 -0.000102844007763 0)
(0.0001941754762 -9.95686534542e-05 0)
(0.00015219129637 -9.17303194503e-05 0)
(0.000116583045058 -0.000100422715649 0)
(8.02231290331e-05 -0.000131767467913 0)
(2.07166135839e-05 -0.000131587706252 0)
(-5.39008947975e-05 -0.000458321119704 0)
(-7.16046726524e-05 -0.000312638426967 0)
(-0.000187920077942 -0.000464861584213 0)
(-0.0003362184159 -0.000461582306514 0)
(-0.000463828652537 -0.000390952607962 0)
(-0.00027450886633 -0.000154979764498 0)
(-0.000346072981912 -0.000155422911013 0)
(-0.000633164419497 -0.000271834634692 0)
(-0.000764119318968 -0.000279363749521 0)
(-0.000852051127642 -0.000252495506704 0)
(-0.000932267895606 -0.000230194723097 0)
(-0.000998954182225 -0.000204751191495 0)
(-0.00105471311581 -0.00017849580502 0)
(-0.00109240572651 -0.000142073474534 0)
(-0.0010467703477 -9.49567388417e-05 0)
(-0.0010025226295 -6.38557304804e-05 0)
(-0.0010075200484 -6.18673419224e-05 0)
(-0.00107141220416 -9.92816795618e-05 0)
(-0.00120645596796 -0.000159413673509 0)
(-0.001330599698 -0.000212490896743 0)
(-0.00137458855903 -0.000218420326235 0)
(-0.00142127307444 -0.000198412688341 0)
(-0.00147302227208 -0.000180011230219 0)
(-0.00151860015283 -0.000165515852865 0)
(-0.00155957204469 -0.000150764045526 0)
(-0.00159684704439 -0.000136236410823 0)
(-0.00163088664335 -0.000122450317452 0)
(-0.00166730421765 -0.000108416202334 0)
(-0.00169290860647 -9.46023143364e-05 0)
(-0.00172368331141 -8.25738540044e-05 0)
(-0.00173421311447 -7.16198629103e-05 0)
(-0.00176103356065 -6.01837035186e-05 0)
(-0.0017529772771 -4.77694763726e-05 0)
(-0.00177411293065 -4.66212697113e-05 0)
(-0.00181673064664 -5.46763540355e-05 0)
(-0.00180601404143 -6.30313761233e-05 0)
(-0.00184482015289 -6.22751175789e-05 0)
(-0.00188400849357 -5.93248610476e-05 0)
(-0.00189799590628 -5.7123170674e-05 0)
(-0.00190721207437 -3.93919734308e-05 0)
(-0.00191425504471 -9.24405491337e-06 0)
(-0.00191538637873 1.58287378207e-05 0)
(-0.00191186818411 2.89684780397e-05 0)
(-0.00190432163963 3.85768625415e-05 0)
(-0.00189141352833 5.09553835051e-05 0)
(-0.00187306843787 6.69321960842e-05 1.22029338906e-28)
(-0.00184935784341 8.63461046968e-05 -1.22943569418e-28)
(-0.00181999308511 0.000108643501499 0)
(-0.00178460987934 0.000133843466149 0)
(-0.00174251124485 0.000161913895151 0)
(-0.00169253739224 0.000191214649802 0)
(-0.00163270159477 0.000220446560171 0)
(-0.00156080493609 0.000253997166007 0)
(-0.00147489330736 0.000297887636643 0)
(-0.00137808139657 0.000342973031435 0)
(-0.00127199939275 0.000386766156141 0)
(-0.00114884903849 0.000436615862706 0)
(-0.00100258684384 0.00049195508115 2.4446456507e-28)
(-0.000833263605269 0.000552621267207 -2.8623668254e-28)
(-0.000642654119717 0.000618595070677 0)
(-0.000435589277992 0.000683141570511 0)
(-0.000229270824977 0.000730615335386 0)
(-6.68845020988e-05 0.00071497482782 0)
(7.29655817757e-05 0.000573737166724 0)
(0.000216560750066 0.000369597014967 0)
(0.000289104843089 0.000212426324258 0)
(0.000335882334053 0.000136176505869 0)
(0.00036952518299 8.40385592099e-05 0)
(0.000385464634948 3.04710106732e-05 0)
(0.000391279065901 -2.55807373873e-05 0)
(0.000378285018634 -7.15352296315e-05 0)
(0.000353007508031 -9.98766624185e-05 0)
(0.000314090947164 -0.000121078719416 0)
(0.000254095010852 -0.000133995174832 0)
(0.000207950557235 -0.000142554406114 0)
(0.000165958658284 -0.000146272571664 0)
(0.000120223575715 -0.000137012459762 0)
(7.02150871835e-05 -0.000114965560079 0)
(5.09565656328e-05 -0.000148476098359 0)
(1.71453610007e-05 -0.000172398041546 0)
(-6.78085790063e-06 -0.000461745550569 0)
(-3.76827634071e-05 -0.000380635140585 0)
(-0.000169343142304 -0.000606928620071 0)
(-0.000287670494268 -0.000560099146238 0)
(-0.00031590787894 -0.000372222863554 0)
(-0.000253827900082 -0.000208258206042 0)
(-0.00042833897905 -0.00033429758401 0)
(-0.000634411189653 -0.0004505541123 0)
(-0.000718739161366 -0.000398403018624 0)
(-0.00081880352333 -0.000346467133485 0)
(-0.000906552024109 -0.000315673406013 0)
(-0.000980447758005 -0.00027397906612 0)
(-0.000995290175575 -0.000194005093057 0)
(-0.000926651425242 -0.00011168615684 0)
(-0.000946883192983 -8.1913760789e-05 0)
(-0.00100388174422 -9.40956366051e-05 0)
(-0.00109934657977 -0.000141847134792 0)
(-0.00121386795287 -0.000210679426926 0)
(-0.00129365099705 -0.000258056579714 0)
(-0.00132060320987 -0.000263728728531 0)
(-0.00136737671043 -0.000260180439742 0)
(-0.00142367787687 -0.000250124059304 0)
(-0.00147073452412 -0.000230710407662 0)
(-0.00151480926877 -0.000209428801182 0)
(-0.00155450577187 -0.000189841564486 0)
(-0.00158967142426 -0.00017300751242 0)
(-0.00162894990805 -0.000156197208655 0)
(-0.00165413948321 -0.000138699408197 0)
(-0.00169370127247 -0.000121606671136 0)
(-0.00170311018545 -0.000104077226161 0)
(-0.00174124671603 -8.90713235839e-05 -1.3046720868e-28)
(-0.00171741624746 -7.36766869369e-05 1.23507565611e-28)
(-0.00176235688945 -6.70857485204e-05 0)
(-0.00180097776727 -6.60143312484e-05 0)
(-0.00179828485202 -7.51401290269e-05 0)
(-0.00184620081605 -8.97483117076e-05 0)
(-0.00187253409342 -9.45062045677e-05 0)
(-0.00189139189834 -8.36135761712e-05 0)
(-0.00190388998625 -6.66128058288e-05 0)
(-0.00191238875123 -4.35655474184e-05 0)
(-0.00191891833141 -1.43592341713e-05 0)
(-0.00192166378538 1.26793670651e-05 0)
(-0.00191969736623 3.24516499961e-05 0)
(-0.00191278033477 4.89207787111e-05 0)
(-0.00190041319525 6.69094362502e-05 0)
(-0.00188264177528 8.81383375558e-05 0)
(-0.00185945021044 0.000112873310703 0)
(-0.00183050998318 0.000140987438779 0)
(-0.00179526958942 0.000172595190431 0)
(-0.0017528643926 0.000207751900569 0)
(-0.00170194820699 0.000245970936943 0)
(-0.00164051861156 0.000287459154621 0)
(-0.00156651913587 0.000334572780836 0)
(-0.00147871236125 0.000388593231564 0)
(-0.00137766381028 0.00044652571998 0)
(-0.00126178399412 0.000510065382827 0)
(-0.00112470232663 0.000582939776303 0)
(-0.000961250599489 0.000664051527219 0)
(-0.00077120236732 0.000749775745238 0)
(-0.00056034483498 0.000832071500445 0)
(-0.000344011663896 0.000892862663148 0)
(-0.000149600042713 0.000906122422493 0)
(-1.2157182216e-05 0.000836330802839 0)
(0.000121964550843 0.000716868534445 0)
(0.000271345935871 0.000505507301487 0)
(0.000342874553478 0.000288997527273 0)
(0.000383318818026 0.000174023726411 0)
(0.000404379914861 0.000100533432855 0)
(0.000411252908882 3.32812784438e-05 0)
(0.000412179629103 -3.38725054526e-05 0)
(0.000402028259549 -9.55856389234e-05 0)
(0.000361018734163 -0.000144303048647 0)
(0.000287610602404 -0.000169479668321 0)
(0.000233482061625 -0.000185157184723 0)
(0.000184937146632 -0.000195214302774 0)
(0.0001378821963 -0.000195996404571 0)
(9.24070447108e-05 -0.000168573734418 0)
(5.9398858304e-05 -0.000148640559793 0)
(3.81990011444e-05 -0.000186774413459 0)
(1.00497360701e-05 -0.000194400800597 0)
(1.90853908086e-07 -0.000432969302867 0)
(-4.53743421783e-05 -0.000462415776896 0)
(-0.000170126036178 -0.000693771025041 0)
(-0.000241005913242 -0.00058297775196 0)
(-0.000187008790353 -0.00029508009095 0)
(-0.000256668679647 -0.000300592309612 0)
(-0.000523987253099 -0.000535994069064 0)
(-0.000608094014978 -0.000548423352384 0)
(-0.000686577402832 -0.000493421801074 0)
(-0.000778985576718 -0.000443613663306 0)
(-0.000868119238099 -0.000381505062633 0)
(-0.000825484768883 -0.000264631981489 0)
(-0.000763296335665 -0.000153617231471 0)
(-0.000822032072153 -0.000126590696234 0)
(-0.000895956363279 -0.000144804745487 0)
(-0.00102725526558 -0.000199575047376 0)
(-0.00115659457643 -0.00025934629495 0)
(-0.00123993208008 -0.000289742312968 0)
(-0.00125511105207 -0.000289926939958 0)
(-0.00130964043336 -0.000304554841461 0)
(-0.00137261449908 -0.000314084553063 0)
(-0.00141991881615 -0.000300568108649 0)
(-0.00146450807465 -0.000277393956799 0)
(-0.00150604670144 -0.000253204885424 0)
(-0.00155136320747 -0.000230613640937 0)
(-0.0015867136592 -0.000206737491789 0)
(-0.00160374009156 -0.000187765922235 0)
(-0.00165806853095 -0.000170334482211 0)
(-0.00165789833872 -0.000145336853294 0)
(-0.00171421480176 -0.000122534236704 0)
(-0.0016737426981 -9.8732169343e-05 0)
(-0.00173905952574 -9.47404286615e-05 0)
(-0.00171010424786 -9.09553962893e-05 0)
(-0.00177779223533 -9.72894664798e-05 0)
(-0.00183688572337 -0.000111712569247 0)
(-0.00186478701492 -0.000122849366518 0)
(-0.00188313056459 -0.000115657062009 0)
(-0.00189818044093 -9.83254148871e-05 0)
(-0.00191000440811 -7.62930396979e-05 0)
(-0.00191925081752 -4.9992566424e-05 0)
(-0.00192618261175 -1.98839260076e-05 0)
(-0.0019298146214 9.58356713801e-06 0)
(-0.0019289857898 3.49938426394e-05 0)
(-0.00192296338348 5.79979056437e-05 0)
(-0.00191148780136 8.18969600692e-05 0)
(-0.001894564665 0.000108610675141 0)
(-0.00187214791123 0.000138868008217 0)
(-0.00184380243397 0.000172974600275 0)
(-0.00180878135766 0.000211309063929 0)
(-0.0017660784787 0.000254259670495 0)
(-0.00171426936857 0.000302139523716 0)
(-0.00165140686441 0.000355701835122 0)
(-0.00157544659314 0.000416272020471 0)
(-0.0014846929159 0.00048437373753 0)
(-0.00137744866093 0.000560238236044 0)
(-0.00124990119546 0.000647056597108 0)
(-0.00109611718587 0.000747041072924 0)
(-0.000912823747253 0.00085628645635 0)
(-0.000703503937351 0.000964313315106 0)
(-0.000479553960659 0.00105133954005 0)
(-0.000263410734905 0.00109156304901 0)
(-8.04264161007e-05 0.00105450004288 0)
(5.80889428827e-05 0.000916836924154 0)
(0.000205311081096 0.000872500845839 0)
(0.000317204870421 0.000598593958418 0)
(0.000378369335498 0.000346484075687 0)
(0.000426389628951 0.000203165014791 0)
(0.000450091436584 0.000110566561044 0)
(0.000451755067731 3.18476939861e-05 0)
(0.000455765576141 -5.00572911709e-05 0)
(0.000431483766081 -0.000141090972879 0)
(0.000348118339471 -0.000201114081903 0)
(0.000273688677207 -0.000228289382751 0)
(0.000217190879141 -0.000245510018519 0)
(0.00015870256064 -0.000249712872989 0)
(0.000114495096821 -0.000239698852103 0)
(7.47893732388e-05 -0.000193660105016 0)
(4.85719519564e-05 -0.000175486885916 0)
(2.99425710956e-05 -0.000210965730753 0)
(8.75741613508e-06 -0.000211952538348 0)
(-1.62118254559e-05 -0.000470916379692 0)
(-9.93051423829e-05 -0.000599684875892 0)
(-0.000218307322272 -0.000757519254292 0)
(-0.000250922965448 -0.000706982341786 0)
(-0.000178080196092 -0.000372015894501 0)
(-0.000363566140043 -0.000525096735885 0)
(-0.000533989213926 -0.000653110071103 0)
(-0.000584762103789 -0.000620528022642 0)
(-0.000660524897612 -0.000569130608353 0)
(-0.000714482058835 -0.000514034748727 0)
(-0.000832135341072 -0.000425351114451 3.2714467965e-28)
(-0.000667357287482 -0.000217059956473 -2.02572643711e-28)
(-0.000756806847854 -0.000189503780429 0)
(-0.000806577854439 -0.00019969765606 0)
(-0.000929644287904 -0.000257898364373 0)
(-0.00107800755553 -0.00033451420543 0)
(-0.00116999399872 -0.000353172704327 0)
(-0.0011700327328 -0.000323088046289 0)
(-0.00123527887891 -0.000336206540519 0)
(-0.00131582216225 -0.000366264617132 0)
(-0.00136288824418 -0.000366838896221 0)
(-0.00141204000066 -0.00034844584727 0)
(-0.00145904364009 -0.000323752764453 0)
(-0.00150283444024 -0.00029569156658 0)
(-0.00153500083506 -0.000265061047776 0)
(-0.00155810288549 -0.000235522442885 0)
(-0.00161015663133 -0.000217111974407 0)
(-0.00159778037148 -0.000196544488295 0)
(-0.00167438368982 -0.00017105094988 0)
(-0.00162656696205 -0.000127908381173 0)
(-0.00170398232141 -0.000119275137242 0)
(-0.00167941814021 -0.000119627405887 1.20800355039e-28)
(-0.00174894913769 -0.000125589731009 -1.24132111681e-28)
(-0.0017863531963 -0.000145127265209 0)
(-0.00185228339405 -0.000157708937959 0)
(-0.00187545713221 -0.000149743969785 0)
(-0.00189064624587 -0.00013288350712 0)
(-0.00190474032168 -0.000111524849289 0)
(-0.0019175101323 -8.64982374732e-05 0)
(-0.00192790793832 -5.77611425618e-05 0)
(-0.00193551571146 -2.59209129553e-05 0)
(-0.00193993628201 6.35995150609e-06 0)
(-0.00194010005001 3.67788370813e-05 0)
(-0.00193512834251 6.58488242823e-05 0)
(-0.00192474355284 9.56851405505e-05 0)
(-0.00190892187506 0.000128073297295 0)
(-0.00188749935424 0.000164087802443 0)
(-0.00185989562593 0.000204464776885 0)
(-0.00182523460619 0.000249925450911 0)
(-0.00178245283907 0.000301251476912 0)
(-0.0017301042692 0.000359319546503 0)
(-0.00166620884171 0.000425248846229 0)
(-0.00158842379147 0.000500332367567 0)
(-0.00149403224764 0.000585924618212 0)
(-0.00137938576098 0.00068441711176 0)
(-0.00123925457882 0.000799188533168 0)
(-0.00106849650385 0.000929529312428 0)
(-0.000866539207629 0.00106579255931 0)
(-0.000640917801367 0.00118884393849 0)
(-0.000407003917423 0.00127338161042 0)
(-0.000185457153798 0.00128792815488 0)
(1.42183691804e-06 0.00121686386438 0)
(0.000161289127537 0.00111073169398 0)
(0.000282431925095 0.000961118528917 0)
(0.000376408301183 0.000676699695973 0)
(0.000424247206413 0.000397903122568 0)
(0.000495901067363 0.000247672428031 0)
(0.000532535445179 0.000130140623206 0)
(0.000534148683629 2.48715703075e-05 0)
(0.000515760294941 -9.09419261515e-05 0)
(0.000447990347055 -0.000208166782779 0)
(0.000346030406411 -0.000271416989011 0)
(0.00027037782677 -0.000304583379555 0)
(0.000194275508425 -0.000314488807183 0)
(0.000131099207025 -0.000305579306497 0)
(8.85139753559e-05 -0.000265396408003 0)
(6.16004685137e-05 -0.000224425299211 0)
(3.50202805642e-05 -0.000198602410593 0)
(2.04083778979e-05 -0.000225879253963 0)
(7.4387527229e-06 -0.000231573694406 0)
(-3.28596066767e-05 -0.000548800301275 0)
(-0.000138870178652 -0.000728976349707 0)
(-0.00024255102711 -0.000791218310046 0)
(-0.000163580583932 -0.000490746091464 0)
(-0.000187869148029 -0.000463881599707 0)
(-0.000416619015626 -0.000717902951656 0)
(-0.000495311912116 -0.00072524482974 0)
(-0.000566073341847 -0.000692027685208 0)
(-0.000613982893192 -0.000624120685047 0)
(-0.000691501684989 -0.000564844318452 0)
(-0.00058057791994 -0.000339602354423 0)
(-0.000660150161971 -0.000259288615049 0)
(-0.000738250383592 -0.000255997423342 0)
(-0.000805161068749 -0.000291784955608 0)
(-0.0009838685228 -0.000393138435143 0)
(-0.00109309447704 -0.000431871803634 0)
(-0.00108434840581 -0.000383603858141 0)
(-0.0011421659983 -0.000374294172992 0)
(-0.00124175596012 -0.000411061526169 0)
(-0.00130590069743 -0.0004266548575 0)
(-0.00135034153565 -0.000415806269817 0)
(-0.00139546949922 -0.000395142414834 0)
(-0.00144703636071 -0.000372072209501 0)
(-0.00149040894264 -0.000340137883786 0)
(-0.00153835649834 -0.000297829137091 0)
(-0.00154007707109 -0.00026809462466 0)
(-0.00160812127219 -0.000245083341339 0)
(-0.00160996058627 -0.000214824104549 0)
(-0.00160035579121 -0.000183433710199 0)
(-0.00163696870356 -0.000161576754118 0)
(-0.00172654436524 -0.00015373319635 0)
(-0.00171227970537 -0.000143984131757 0)
(-0.00173168124794 -0.000169746619346 0)
(-0.00183068881197 -0.000197513323851 0)
(-0.00185855557404 -0.000195392810052 0)
(-0.00187994781015 -0.000173677033861 0)
(-0.00189745776618 -0.000149815520913 0)
(-0.00191252214896 -0.000125257906341 0)
(-0.00192632298737 -9.79291377529e-05 0)
(-0.00193801028556 -6.68921815328e-05 0)
(-0.0019466587213 -3.27481977586e-05 0)
(-0.00195192646758 2.65765060171e-06 0)
(-0.00195312115976 3.77247680957e-05 0)
(-0.00194938193694 7.24555440331e-05 0)
(-0.00194030900954 0.000108142066727 1.18190179975e-28)
(-0.00192580271748 0.000146330783062 -1.17922205715e-28)
(-0.0019055598307 0.000188342011918 0)
(-0.0018788732093 0.000235284534905 0)
(-0.0018448190332 0.000288207554144 0)
(-0.00180235897358 0.000348269513214 0)
(-0.00175005247015 0.000416875040227 0)
(-0.00168580296358 0.000495755166411 0)
(-0.0016067789124 0.000587047014468 0)
(-0.00150908790568 0.000693580180337 0)
(-0.00138743052489 0.000818975763446 0)
(-0.00123578479877 0.000965279243494 0)
(-0.00105017529281 0.00112726200392 0)
(-0.000831887997403 0.00128949701012 0)
(-0.000589008079626 0.00142735734601 0)
(-0.000334590328606 0.00151158094136 0)
(-8.96951708412e-05 0.00150650698307 0)
(0.000119695071016 0.00140682982392 0)
(0.000282414903406 0.00124259590805 0)
(0.000380389218888 0.00103225528996 0)
(0.000508492488804 0.000823387977473 0)
(0.00051829584625 0.0004556544695 0)
(0.000577166374148 0.000291488059931 0)
(0.000623042546479 0.000146027683085 0)
(0.000611000473438 -8.36417994458e-07 0)
(0.000564325992346 -0.000157280678968 0)
(0.000468705264034 -0.000292462825852 0)
(0.00035928539641 -0.000365330514833 0)
(0.000259109884122 -0.000399687195072 0)
(0.000161894943187 -0.000394677125702 0)
(9.43283093658e-05 -0.00035643447994 0)
(5.70467504521e-05 -0.000290784215715 0)
(3.87861795014e-05 -0.00024962335181 0)
(1.92704624554e-05 -0.000222886496557 0)
(7.34555642068e-06 -0.000234756706188 0)
(2.77130416451e-06 -0.000246432089338 0)
(-4.56897368423e-05 -0.000646476747939 0)
(-0.000156784256041 -0.000833314937869 0)
(-0.000207126795905 -0.000819037366866 0)
(-0.000157799606065 -0.000538120675842 0)
(-0.000256226591741 -0.000610664964885 0)
(-0.000426348192794 -0.000813695591983 0)
(-0.000460245773616 -0.000792534327469 0)
(-0.000548944421994 -0.000759284703014 0)
(-0.000537211729219 -0.000632744327113 0)
(-0.000694637279181 -0.000634057772685 0)
(-0.00056276801167 -0.000374650228287 0)
(-0.00066568366944 -0.00033457818015 0)
(-0.000729043005199 -0.000336864868978 0)
(-0.000854835532514 -0.000419315812339 0)
(-0.000999933967831 -0.000512987547599 0)
(-0.00107416674821 -0.000494811168996 0)
(-0.00106379360419 -0.00042883182842 0)
(-0.00114564009621 -0.000448660688736 0)
(-0.001230018723 -0.000482886837635 0)
(-0.00128819210895 -0.000483740076775 0)
(-0.00134070141134 -0.000465494572446 0)
(-0.00138124861882 -0.000439226528441 0)
(-0.00142928279587 -0.000414121352186 0)
(-0.00145486313728 -0.000380150625708 0)
(-0.00147926009011 -0.000325379045836 0)
(-0.00155478877597 -0.000298208153265 0)
(-0.00151093977852 -0.000269310386574 0)
(-0.00163826578688 -0.000244080115006 0)
(-0.00158763134897 -0.000212253246135 0)
(-0.00169804546879 -0.000207596779938 0)
(-0.00165005415127 -0.000182048340796 0)
(-0.00175917079339 -0.000187110265626 0)
(-0.00180115939638 -0.000218409202566 1.31132958087e-28)
(-0.0018371205634 -0.000238678681266 -1.32248703818e-28)
(-0.00186285048549 -0.000223123091064 0)
(-0.0018850242886 -0.0001961701296 0)
(-0.00190481831225 -0.000168336078104 0)
(-0.00192156276822 -0.000140547022642 0)
(-0.00193641978766 -0.000110748256019 0)
(-0.00194926243714 -7.74003074489e-05 0)
(-0.00195922808791 -4.06539658532e-05 0)
(-0.00196571133665 -1.88433942746e-06 0)
(-0.00196810959448 3.76387829146e-05 0)
(-0.00196576382332 7.77033687437e-05 0)
(-0.00195825996237 0.000119123612182 0)
(-0.00194529195229 0.00016322002627 0)
(-0.00192639292367 0.000211440873981 0)
(-0.00190083398623 0.00026517885193 0)
(-0.00186775280447 0.000325759875721 0)
(-0.00182619223461 0.000394692086882 0)
(-0.00177477927088 0.000473989613284 0)
(-0.00171135203095 0.000566380499609 0)
(-0.00163260731044 0.000675501281244 0)
(-0.00153351246067 0.000805835889001 0)
(-0.00140736808261 0.000961416005805 0)
(-0.00124748895772 0.00114170123004 0)
(-0.00105023673606 0.00133683019558 0)
(-0.000814713603497 0.00152979703729 0)
(-0.000544948580433 0.00169233439869 0)
(-0.000254087543499 0.00178643922052 0)
(2.36382527846e-05 0.00175655674202 0)
(0.000247385582895 0.00159941495183 0)
(0.000412488345724 0.0013783572639 0)
(0.000534485754753 0.00113452693822 0)
(0.000639288604836 0.000868846290167 0)
(0.000735851387373 0.000553845169131 0)
(0.00068902950385 0.000295718169812 0)
(0.000737069084944 0.000155432704598 0)