/*--------------------------------*- C++ -*----------------------------------*\
| =========                 |                                                 |
| \\      /  F ield         | OpenFOAM: The Open Source CFD Toolbox           |
|  \\    /   O peration     | Version:  v1806                                 |
|   \\  /    A nd           | Web:      www.OpenFOAM.com                      |
|    \\/     M anipulation  |                                                 |
\*---------------------------------------------------------------------------*/
FoamFile
{
    version     2.0;
    format      ascii;
    class       volVectorField;
    location    "926";
    object      U;
}
// * * * * * * * * * * * * * * * * * * * * * * * * * * * * * * * * * * * * * //

dimensions      [0 1 -1 0 0 0 0];


internalField   nonuniform List<vector> 
6400
(
(-0.000120109871453 -0.000155425306967 0)
(-0.000314660077778 -0.000111018949236 0)
(-0.000454106931585 -8.50048841107e-05 0)
(-0.000598501319811 -7.22817552248e-05 0)
(-0.00070553006596 -4.68092657464e-05 0)
(-0.000784344636516 -2.80280225629e-05 0)
(-0.000832240831208 -2.06133862135e-05 0)
(-0.000873285633824 -2.90880841521e-05 0)
(-0.000958427699373 -3.85519228804e-05 0)
(-0.00104048375034 -3.60581774406e-05 0)
(-0.00108512224026 -3.21779898967e-05 0)
(-0.00115758583164 -3.24304757219e-05 0)
(-0.0012230984106 -2.8655343582e-05 0)
(-0.00127599338288 -2.33126210949e-05 0)
(-0.00131688835348 -2.09283619064e-05 0)
(-0.00135832828798 -2.28710836572e-05 0)
(-0.00140649752417 -2.32148309648e-05 0)
(-0.00144878514081 -2.02306735801e-05 0)
(-0.00148223616261 -1.65343517278e-05 0)
(-0.0015150362999 -1.5225169054e-05 0)
(-0.0015545842149 -1.88279510447e-05 0)
(-0.0015988688738 -2.2169808514e-05 0)
(-0.00164271331307 -2.19631898478e-05 0)
(-0.00168149027613 -2.02852527431e-05 0)
(-0.00171685538196 -1.81069538315e-05 0)
(-0.00175023615975 -1.59243455499e-05 0)
(-0.00178237911125 -1.45615769348e-05 0)
(-0.00181112190135 -1.29834019081e-05 0)
(-0.00183521169246 -1.1095635508e-05 0)
(-0.00185516914723 -9.59460794038e-06 0)
(-0.00187150645982 -8.89641353764e-06 0)
(-0.00188752625245 -7.9242832745e-06 0)
(-0.00190324352013 -6.53382452401e-06 0)
(-0.0019162428001 -6.13585212701e-06 0)
(-0.00192820343255 -5.82483731213e-06 0)
(-0.00194222035885 -5.28390643398e-06 0)
(-0.00195271466529 -4.95993601067e-06 0)
(-0.0019562688919 -4.02870265341e-06 0)
(-0.00196394664081 -2.42447810729e-06 0)
(-0.00197331207937 -9.48788001951e-07 0)
(-0.00197543787048 -5.71296522765e-07 0)
(-0.00196934785094 6.5598409941e-07 0)
(-0.0019609114279 3.75523020321e-06 0)
(-0.00195159858605 6.11132923644e-06 0)
(-0.00193919113203 7.53860901119e-06 0)
(-0.00192348901136 9.14030596277e-06 0)
(-0.00190417332995 1.09339008279e-05 0)
(-0.00188065842143 1.30838130522e-05 0)
(-0.00185287880967 1.52710191677e-05 0)
(-0.0018205453612 1.64954836948e-05 0)
(-0.00178498149513 1.67139862067e-05 0)
(-0.00174881587986 1.86347621854e-05 0)
(-0.00170709715831 2.38018911757e-05 0)
(-0.00166031339113 2.77458715771e-05 0)
(-0.00160183891775 3.15265775833e-05 0)
(-0.00152810908938 3.63761547904e-05 0)
(-0.00145100842298 3.77528267037e-05 0)
(-0.00137927041501 3.84226716367e-05 0)
(-0.00130293738555 4.26392337024e-05 0)
(-0.00120794281015 4.65227482578e-05 0)
(-0.00110892935762 4.82432301764e-05 0)
(-0.00100817680433 5.55022590757e-05 0)
(-0.000914729643846 7.10204562211e-05 0)
(-0.000774810404991 8.19241435785e-05 0)
(-0.000579710973361 6.79579116769e-05 0)
(-0.000442466981285 4.92498116839e-05 0)
(-0.000361198168828 4.1222612625e-05 0)
(-0.000296807250981 3.66708270393e-05 0)
(-0.000234740200373 3.41620534782e-05 0)
(-0.000169479015363 3.16942576238e-05 0)
(-0.000109296318969 2.77625061976e-05 0)
(-5.77252689705e-05 2.18719823507e-05 0)
(-2.10329134595e-05 1.58432395124e-05 0)
(4.1493414139e-06 1.04519941078e-05 0)
(1.81697487565e-05 5.00201246198e-06 0)
(2.74529235396e-05 1.88103479075e-06 0)
(2.431988725e-05 1.93499726005e-07 0)
(3.06850959126e-05 -2.43564818169e-06 0)
(1.47004293447e-05 -2.97757978782e-06 0)
(1.14421347184e-05 -6.63795769895e-06 0)
(-4.66116993933e-05 -0.000223907171051 0)
(-0.000195891881921 -0.000244457071431 0)
(-0.000338227485304 -0.000213713090662 0)
(-0.00043268437236 -0.000171032882966 0)
(-0.000608137165095 -0.000163392141293 0)
(-0.000755348338281 -0.000115158668565 0)
(-0.000841819579385 -7.67313446364e-05 0)
(-0.000903576950222 -9.21888850672e-05 0)
(-0.000968722939638 -0.000112190046079 0)
(-0.00103960082802 -0.000108395027362 0)
(-0.00110587377687 -9.94740213228e-05 0)
(-0.00116636126387 -9.35049203792e-05 0)
(-0.001222190863 -8.22224241657e-05 0)
(-0.00127165224937 -6.95742677643e-05 0)
(-0.00131852170627 -6.37063141572e-05 0)
(-0.00136249469952 -7.11918967762e-05 0)
(-0.00140673634594 -7.34838894428e-05 0)
(-0.00144500006697 -5.7312566196e-05 0)
(-0.00145975884862 -4.5216159842e-05 0)
(-0.00149907196741 -4.6630203545e-05 0)
(-0.00154734107753 -5.82226084766e-05 0)
(-0.00159562774794 -6.95597562352e-05 0)
(-0.00164428164869 -6.82779363828e-05 0)
(-0.00168520439225 -5.97035191387e-05 0)
(-0.00171429170284 -5.30516506909e-05 0)
(-0.00175066410358 -4.88308194827e-05 0)
(-0.00178426101825 -4.40771483385e-05 0)
(-0.00181165775279 -3.85440433707e-05 0)
(-0.00183514033412 -3.3265681132e-05 0)
(-0.00185584983241 -2.90059044197e-05 0)
(-0.00187323009743 -2.62787570025e-05 0)
(-0.0018859326801 -2.31365836883e-05 0)
(-0.00190167060962 -1.89064630818e-05 0)
(-0.00191423846028 -1.8189669122e-05 0)
(-0.00192496230339 -1.8522005327e-05 0)
(-0.00194252456125 -1.59472939537e-05 0)
(-0.00195140937205 -1.44197358272e-05 0)
(-0.00195485149049 -1.30475254048e-05 0)
(-0.00196478141596 -9.28684470208e-06 0)
(-0.00197854341083 -3.66622903291e-06 0)
(-0.00198151815614 3.38097040296e-06 0)
(-0.00195827856823 9.58979761546e-06 0)
(-0.00194079961136 1.37227236269e-05 0)
(-0.0019340603315 1.70011202553e-05 0)
(-0.00192341817654 2.06276997772e-05 0)
(-0.00191064428453 2.51169497221e-05 0)
(-0.00189491639875 3.05567584495e-05 0)
(-0.00187385000051 3.66996341194e-05 0)
(-0.00185058640421 4.3270989256e-05 0)
(-0.00182218768975 4.96150061465e-05 0)
(-0.00178457343282 5.50331997254e-05 0)
(-0.0017345496259 6.01574232088e-05 0)
(-0.0016870479285 6.68393903788e-05 0)
(-0.00165962410901 7.84066425462e-05 0)
(-0.00159730041213 9.29548601949e-05 0)
(-0.0015284833825 0.000104597443927 0)
(-0.00146619292278 0.000110999197158 0)
(-0.00139235119242 0.000117448763166 0)
(-0.00130840104176 0.00012888159744 0)
(-0.00121846958554 0.000141891829914 0)
(-0.00111795274339 0.000154560170182 0)
(-0.000992513565403 0.000171364573761 0)
(-0.000896360805911 0.00021237229322 0)
(-0.000751628489052 0.000246023066663 0)
(-0.000573253491093 0.000220222523173 0)
(-0.000416356152984 0.000155992015935 0)
(-0.000324222106007 0.000115255527387 0)
(-0.000272553715522 0.000103589698864 0)
(-0.000212539757092 9.9818280813e-05 0)
(-0.000153556573349 9.68251359998e-05 0)
(-9.41481718228e-05 8.5121117782e-05 0)
(-4.48594219215e-05 6.51986909473e-05 0)
(-9.7256718766e-06 4.33547462683e-05 0)
(1.34935198102e-05 2.89477132907e-05 0)
(2.83182605375e-05 1.64359983384e-05 0)
(3.63482200097e-05 6.84608579613e-06 0)
(3.84430746907e-05 1.49092675602e-07 0)
(3.60343153304e-05 -7.87301536035e-06 0)
(2.43459313676e-05 -1.41409804544e-05 0)
(1.20306540934e-05 -2.80921427538e-05 0)
(-6.64021269772e-05 -0.000385362727692 0)
(-0.000185697411941 -0.000407690821411 0)
(-0.000289370117921 -0.000369531684099 -8.22915979351e-29)
(-0.000470322650079 -0.0003584192405 7.45064783787e-29)
(-0.000632483001998 -0.000341398028189 6.41344801837e-29)
(-0.000742113515587 -0.000271779599305 -5.79105912568e-29)
(-0.000823686237675 -0.000152656429009 5.73951082875e-29)
(-0.00088839949392 -0.000155367965374 -5.4695490299e-29)
(-0.000955282548055 -0.000183738406112 0)
(-0.00103002986329 -0.000182807008922 0)
(-0.00110196453659 -0.00016852120272 0)
(-0.00116540976962 -0.000151401742497 0)
(-0.00122146887393 -0.000132465015326 0)
(-0.00126999596985 -0.000117957319374 0)
(-0.00131885420975 -0.000110076921306 0)
(-0.00136415846057 -0.000100760642698 0)
(-0.00131615715347 -8.29700092672e-05 0)
(-0.00130662548087 -7.1601473821e-05 0)
(-0.00135212286802 -8.0550826509e-05 0)
(-0.00142866102093 -0.000105828838888 0)
(-0.00154567007 -0.000125320083431 0)
(-0.00160786806658 -0.000123818002607 0)
(-0.00163942188191 -0.000111789578111 0)
(-0.00168014177056 -9.89750139376e-05 0)
(-0.00172041130231 -8.92945302045e-05 0)
(-0.00175334002046 -8.16787394478e-05 0)
(-0.00178337468286 -7.28696401686e-05 0)
(-0.0018111568366 -6.37423001177e-05 0)
(-0.00183523554577 -5.5479812859e-05 0)
(-0.0018555236103 -4.86913086621e-05 -9.33639033161e-29)
(-0.00187427216367 -4.28191412104e-05 8.99600184338e-29)
(-0.00188392122601 -3.74753276486e-05 0)
(-0.00189892191227 -3.18627446551e-05 0)
(-0.00191874469543 -2.8042018852e-05 0)
(-0.00191774627567 -2.99915111972e-05 0)
(-0.00193587650536 -2.95823486524e-05 0)
(-0.00195606467987 -2.41520080327e-05 0)
(-0.00195298435193 -2.12609555917e-05 0)
(-0.00196345896377 -1.84061443166e-05 0)
(-0.00197776400116 -8.65500644525e-06 0)
(-0.00198127984838 7.13191420701e-06 0)
(-0.00197447144341 1.95144518618e-05 0)
(-0.00196492458718 2.4504440865e-05 0)
(-0.00195496451658 2.82784594865e-05 0)
(-0.00194227727649 3.41030771357e-05 0)
(-0.00192612078904 4.15016715525e-05 0)
(-0.00190651318313 5.03698282443e-05 0)
(-0.00188332865429 6.01227370462e-05 0)
(-0.00185657068899 7.07067643926e-05 0)
(-0.0018257816391 8.24827023897e-05 0)
(-0.00179029022964 9.44755198067e-05 0)
(-0.00175020752815 0.000104428831309 0)
(-0.00170620186264 0.000113447470067 0)
(-0.00165310073723 0.000130060360947 0)
(-0.00159053572851 0.000151305595695 0)
(-0.00153124643172 0.000168140313063 0)
(-0.00146482384374 0.00018240439899 0)
(-0.00138703324919 0.000198708102715 0)
(-0.00129984524034 0.000218009294958 0)
(-0.00120363929754 0.000240122670947 0)
(-0.00109488103786 0.000266868468303 0)
(-0.000980629717756 0.000305735615354 0)
(-0.000855679539278 0.000371096668182 0)
(-0.000687413589806 0.000405868084336 0)
(-0.000496286423576 0.000336487868794 0)
(-0.000380064031677 0.000255044347006 0)
(-0.000305146560443 0.000202324928884 0)
(-0.000234709318196 0.000172557239905 0)
(-0.000173033328097 0.000161145634503 0)
(-0.000115128174386 0.000150933048411 0)
(-6.14002128347e-05 0.00012933961337 0)
(-1.84003794932e-05 9.95322644007e-05 0)
(1.31764339913e-05 7.32937130926e-05 0)
(3.44460616706e-05 4.93960358827e-05 0)
(4.46959659028e-05 2.71962858388e-05 0)
(4.89946895464e-05 1.10296118728e-05 0)
(4.86692907247e-05 -1.31415389958e-06 0)
(4.32595378498e-05 -1.68541980142e-05 0)
(3.24260113862e-05 -3.7243404817e-05 0)
(9.03234222423e-06 -4.30875843457e-05 0)
(-6.53156306945e-05 -0.000559761589639 0)
(-9.71387711512e-05 -0.000398274424975 0)
(-0.000236197319418 -0.000548167227216 0)
(-0.000402458465569 -0.000529439515492 0)
(-0.000559094785267 -0.000448738142895 0)
(-0.00036360746259 -0.000195280935505 0)
(-0.000463805013522 -0.000194107495195 0)
(-0.000788449905047 -0.000305362104098 0)
(-0.000914075026214 -0.000300065884788 0)
(-0.00100841101118 -0.000269529379528 0)
(-0.00109183260526 -0.000243630763728 0)
(-0.00116250383855 -0.000215134913479 0)
(-0.00122282976663 -0.000186392892784 0)
(-0.00126750493936 -0.000152709952111 0)
(-0.00124968481132 -0.000114472033264 0)
(-0.00122527221034 -8.98986522764e-05 0)
(-0.00123849029804 -8.93186829046e-05 0)
(-0.00130311136623 -0.0001196764503 0)
(-0.00142016517683 -0.000163781825446 0)
(-0.0015153450106 -0.000194664067037 0)
(-0.00155831247049 -0.000192223525969 0)
(-0.00160181817868 -0.000172274117266 0)
(-0.00164590465426 -0.000153904374863 0)
(-0.00168486583434 -0.000139133181422 0)
(-0.00172018226128 -0.000125484031071 0)
(-0.00175232008987 -0.000112862938812 0)
(-0.00178186984557 -0.000101081239621 0)
(-0.00181122018243 -8.92970308971e-05 0)
(-0.00183420348526 -7.79525825789e-05 0)
(-0.0018574575503 -6.80495583902e-05 0)
(-0.001870432335 -5.95136640222e-05 0)
(-0.0018886379766 -5.10551906508e-05 0)
(-0.00189262236786 -4.26916208127e-05 0)
(-0.00191021161104 -4.0109823572e-05 0)
(-0.00193373360421 -4.19942116431e-05 0)
(-0.0019349710129 -4.29960596925e-05 0)
(-0.0019540541543 -3.833958447e-05 0)
(-0.00197101932381 -3.17855290445e-05 0)
(-0.0019769642774 -2.50714945922e-05 0)
(-0.00198042479778 -1.16358893361e-05 0)
(-0.00198104826246 6.9693824933e-06 0)
(-0.00197668037362 2.27737149194e-05 0)
(-0.00196891393452 3.26419971526e-05 0)
(-0.00195884831107 4.03750980122e-05 0)
(-0.00194573525984 4.92847103171e-05 0)
(-0.00192921900722 5.99249784286e-05 7.63251072471e-29)
(-0.00190926149723 7.20644905507e-05 -7.65685881863e-29)
(-0.00188575278521 8.5361116455e-05 0)
(-0.00185858124693 9.97577410009e-05 0)
(-0.00182742450623 0.000115174168615 0)
(-0.00179176717883 0.000130837258046 0)
(-0.00175109320485 0.000146305161268 0)
(-0.00170484159758 0.000163937994539 0)
(-0.00165172433248 0.000186506786136 0)
(-0.00159274984698 0.000210472412103 0)
(-0.00152945049975 0.000233308594102 0)
(-0.00145869857258 0.000257391159922 0)
(-0.00137721540623 0.000284076498118 1.36913511265e-28)
(-0.00128433385273 0.000314111032601 -1.56233174397e-28)
(-0.00117899302264 0.000348881101685 0)
(-0.00105942498371 0.000391863281971 0)
(-0.000926909924681 0.000451725567398 0)
(-0.000778497738314 0.000522090046569 0)
(-0.000629793216227 0.000552365215109 0)
(-0.000492275748439 0.000492741024797 0)
(-0.000342962413931 0.00035299890153 0)
(-0.00025063953748 0.000271675153076 0)
(-0.00018320564936 0.000237777082971 0)
(-0.000123992726247 0.000220090543196 0)
(-7.20000051609e-05 0.000207469798636 0)
(-2.17404507211e-05 0.000181501246687 0)
(2.06821039824e-05 0.000142383247389 0)
(4.63534534067e-05 9.84165731683e-05 0)
(5.3838214768e-05 5.72061206057e-05 0)
(5.79380606991e-05 3.06159909457e-05 0)
(6.06394674372e-05 1.09068290773e-05 0)
(5.55438336022e-05 -8.82214485666e-06 0)
(3.65219345412e-05 -2.47259534593e-05 0)
(2.79580316791e-05 -4.74099922625e-05 0)
(9.78740931115e-06 -6.27063341621e-05 0)
(-1.28815809947e-05 -0.000578271379227 0)
(-5.64025676943e-05 -0.000483307606462 0)
(-0.000209269514196 -0.000704806204758 0)
(-0.000346977241516 -0.000650205116517 0)
(-0.000406789203534 -0.000456132863147 0)
(-0.000341575507862 -0.000265176789461 0)
(-0.000556672834621 -0.000399960540316 0)
(-0.000767622418027 -0.000493182552887 0)
(-0.000866775911013 -0.000428584646675 0)
(-0.000976590666909 -0.000369701083364 0)
(-0.00106971816796 -0.000332477954703 0)
(-0.00114961980384 -0.000288965474152 0)
(-0.00118278677152 -0.000216795435716 0)
(-0.00114005726973 -0.000142532645406 0)
(-0.00116761568416 -0.000115488199843 0)
(-0.00122816203085 -0.000126105728107 0)
(-0.00131644945 -0.000164871930259 0)
(-0.0014111727068 -0.000214296549348 0)
(-0.00147674797234 -0.000243353932489 0)
(-0.00151048797083 -0.000242820396567 0)
(-0.00155548187046 -0.000233286465456 0)
(-0.00160430155113 -0.000217957012245 0)
(-0.00164625481911 -0.000197626136067 0)
(-0.00168495046673 -0.000177420840912 0)
(-0.0017197896927 -0.00015951883545 0)
(-0.001750962402 -0.000144260314145 0)
(-0.00178301071927 -0.000129667396233 0)
(-0.00180752368977 -0.000115040745789 0)
(-0.00183683334988 -0.000100525129354 0)
(-0.00185129534589 -8.6693151519e-05 0)
(-0.00187549383542 -7.49647711597e-05 -8.98023457224e-29)
(-0.0018712760139 -6.44432477944e-05 8.59439968828e-29)
(-0.00189929024101 -5.81944014497e-05 0)
(-0.00192470954432 -5.4821847251e-05 0)
(-0.00193080591018 -5.61393136264e-05 0)
(-0.00195353335064 -5.79586216669e-05 0)
(-0.0019670321904 -5.38307067813e-05 0)
(-0.00197588687703 -4.25713826911e-05 0)
(-0.00198112217017 -2.85415687874e-05 0)
(-0.00198372193565 -1.15786278297e-05 0)
(-0.00198387424488 8.09970854473e-06 0)
(-0.00198050057213 2.62127085525e-05 0)
(-0.0019736420445 4.02209003689e-05 0)
(-0.00196364263484 5.21277907262e-05 0)
(-0.001950302106 6.45826029678e-05 0)
(-0.00193350949067 7.85559566653e-05 0)
(-0.00191322602576 9.40638151746e-05 0)
(-0.00188933474231 0.000110912758993 0)
(-0.00186165812305 0.000129045914765 0)
(-0.001829890386 0.000148387363232 0)
(-0.00179354994307 0.000168653597936 0)
(-0.00175199362667 0.000190078035029 0)
(-0.00170451826469 0.000214157143277 0)
(-0.00165059543441 0.000241777687869 0)
(-0.0015907390545 0.000271370828804 0)
(-0.0015247193504 0.000302576198057 0)
(-0.00144944246727 0.000337143442582 0)
(-0.00136151131727 0.000376308211267 0)
(-0.00125878584954 0.000421123812016 0)
(-0.00113932760652 0.000473589745227 0)
(-0.00100244114535 0.000536220349275 0)
(-0.000852461955408 0.000606164249301 0)
(-0.000698428586493 0.000660892344683 0)
(-0.00057037694396 0.000682749510563 0)
(-0.000450533200041 0.000630112314483 0)
(-0.000316452871793 0.000482898898988 0)
(-0.00021257163117 0.000371708818048 0)
(-0.000131220947445 0.000310701834984 0)
(-6.65489044583e-05 0.000276769947479 0)
(-1.27314019589e-05 0.00025557389539 0)
(3.66570485949e-05 0.000227108799338 0)
(6.86307471502e-05 0.000170144863514 0)
(7.26232028051e-05 0.000102072470626 0)
(7.44110763742e-05 6.03430552825e-05 0)
(7.74633962335e-05 3.24189122836e-05 0)
(7.63771433269e-05 5.40996613416e-06 0)
(6.168385425e-05 -2.08224622218e-05 0)
(4.38148460734e-05 -3.95662221267e-05 0)
(3.22110542829e-05 -6.79846571585e-05 0)
(9.68481604552e-06 -7.98075674702e-05 0)
(-3.24230679388e-06 -0.000550794328818 0)
(-6.35256318797e-05 -0.000583790016116 0)
(-0.000207059780753 -0.000808935883823 0)
(-0.000300881716726 -0.000699619446544 0)
(-0.000250889648845 -0.000378504832329 0)
(-0.000345073713636 -0.000381268723833 0)
(-0.000642486482081 -0.000612895316943 0)
(-0.000732856249428 -0.000605137875725 0)
(-0.000830617711301 -0.00053879570398 0)
(-0.000938509745044 -0.000478021699404 0)
(-0.00103904732925 -0.000410750895916 0)
(-0.0010258582315 -0.000302845682614 0)
(-0.000975575436939 -0.000194690867172 0)
(-0.00104278541006 -0.000166513829493 0)
(-0.00112444706513 -0.000181726757576 0)
(-0.00124952069285 -0.000225310299406 0)
(-0.00135839394608 -0.000265251054735 0)
(-0.00142914788253 -0.000281693971029 0)
(-0.00145689081091 -0.000279744345815 0)
(-0.001507300251 -0.00028364715186 0)
(-0.00156088479325 -0.000280923243979 0)
(-0.00160453200771 -0.000263012845722 0)
(-0.00164519098363 -0.00023932248867 0)
(-0.00168288718007 -0.000215955720727 0)
(-0.00172109804218 -0.000194499952235 0)
(-0.00175247871465 -0.000174090654654 0)
(-0.00177379396316 -0.000157588231081 0)
(-0.00181195722156 -0.000141603632102 0)
(-0.00182389955403 -0.000122142706268 0)
(-0.0018590639036 -0.000103578702997 0)
(-0.00184891890363 -8.71415609056e-05 0)
(-0.00188444387644 -8.12173290961e-05 0)
(-0.00187977879171 -7.64146685285e-05 0)
(-0.00191930520149 -7.54450185533e-05 0)
(-0.00195113613173 -7.64248750663e-05 0)
(-0.00196526432567 -7.47192459503e-05 0)
(-0.00197426268742 -6.44522036552e-05 0)
(-0.00198121558226 -4.92276455508e-05 0)
(-0.00198591356603 -3.17470172771e-05 0)
(-0.00198838865789 -1.21303512904e-05 0)
(-0.00198845674191 9.19186468062e-06 0)
(-0.00198548798292 2.96832474744e-05 0)
(-0.0019791181293 4.7517099742e-05 0)
(-0.0019692557427 6.36301728376e-05 0)
(-0.00195583857532 7.99152359396e-05 0)
(-0.00193884672723 9.74364697016e-05 0)
(-0.00191825533697 0.000116456958066 0)
(-0.00189391564893 0.000136956772539 0)
(-0.00186559060939 0.0001589465398 0)
(-0.0018329685031 0.000182462641548 0)
(-0.00179559892932 0.000207578384124 0)
(-0.00175287191892 0.000234763935736 0)
(-0.0017041670907 0.000264942834845 0)
(-0.00164907508416 0.000298530768765 0)
(-0.00158730161479 0.000335359090779 0)
(-0.00151726710474 0.000376507393409 0)
(-0.00143534633341 0.000424045238523 0)
(-0.00133763303172 0.000479440871562 0)
(-0.00122131648789 0.00054356202933 0)
(-0.00108507229756 0.000616113582436 0)
(-0.000932433773412 0.000692538287423 0)
(-0.00077338682932 0.00075562351395 0)
(-0.000613963915 0.000781243868176 0)
(-0.000504925690023 0.000818643752169 0)
(-0.000370159388501 0.000738605813273 0)
(-0.000250644228663 0.000578970472423 0)
(-0.000157880633125 0.000462543870671 0)
(-7.16772751333e-05 0.000386503594286 0)
(1.29238322015e-06 0.000335831369797 0)
(6.21287452951e-05 0.00031072152032 0)
(0.000105837986896 0.000263629551912 0)
(0.000108001136598 0.00017012773484 0)
(0.000100152718676 0.00010057113806 0)
(0.000101404568596 6.18155211586e-05 0)
(0.000100138549771 2.97187129431e-05 0)
(9.45964141626e-05 -5.63780710241e-06 0)
(7.28007490248e-05 -3.47483835024e-05 0)
(5.50125717251e-05 -5.62225023005e-05 0)
(3.99142737406e-05 -8.96715898845e-05 0)
(1.24739320334e-05 -0.000100829151396 0)
(-2.24189986288e-05 -0.000601031853676 0)
(-0.000123598551706 -0.000743370858756 0)
(-0.000255936950588 -0.00088721029058 0)
(-0.000308861102757 -0.00083696055786 0)
(-0.000243239842257 -0.000481095034853 0)
(-0.000464597608201 -0.000639428931838 0)
(-0.000639672040998 -0.000739577345868 0)
(-0.000707675646212 -0.00069355913809 0)
(-0.000801465409262 -0.000631725279944 0)
(-0.000876492739563 -0.00056887473334 0)
(-0.00100986330521 -0.00047302135454 2.6103728593e-28)
(-0.000869844766656 -0.000271845091059 -1.7759512255e-28)
(-0.000966039480496 -0.000238540467054 0)
(-0.00102807023187 -0.000246257596556 0)
(-0.0011561610261 -0.000293278929578 0)
(-0.0012858299262 -0.000344440926246 0)
(-0.00136565433954 -0.000348045514491 0)
(-0.00138610045303 -0.00032299736816 0)
(-0.00144757412353 -0.000325662093873 0)
(-0.00151390950148 -0.000336694105435 0)
(-0.00155806385078 -0.000328121304785 0)
(-0.00160284221727 -0.000306583064584 0)
(-0.00164549501168 -0.000281016834342 0)
(-0.00168485883267 -0.000254001226475 0)
(-0.00171601436724 -0.000226831584783 0)
(-0.00174244630909 -0.000202000533994 0)
(-0.00178098095223 -0.000183944827744 0)
(-0.00178632940195 -0.000166506966069 0)
(-0.0018340326516 -0.000144570833998 0)
(-0.00182196264993 -0.000115348038357 0)
(-0.00186699298574 -0.000104160270171 0)
(-0.00186212046989 -0.000100538095612 8.55921804287e-29)
(-0.00190187582443 -9.94992617615e-05 -8.52059930371e-29)
(-0.00192831211578 -0.000102874671565 0)
(-0.00196097533686 -0.00010044465731 0)
(-0.00197377401042 -8.86513110824e-05 0)
(-0.00198102826777 -7.28321534611e-05 0)
(-0.0019871537093 -5.47950249194e-05 0)
(-0.00199186417376 -3.48560229516e-05 0)
(-0.00199444579132 -1.29934056793e-05 0)
(-0.0019945091432 1.02706915513e-05 0)
(-0.00199170750391 3.32830822351e-05 0)
(-0.00198558909223 5.47287428518e-05 0)
(-0.00197585614071 7.49553315221e-05 0)
(-0.00196242145371 9.52240808016e-05 0)
(-0.00194527940964 0.000116514553166 0)
(-0.00192436539532 0.000139261463471 0)
(-0.00189947026438 0.000163617169126 0)
(-0.00187031271268 0.000189694185882 0)
(-0.00183659182068 0.000217653920885 0)
(-0.00179791516577 0.000247784951144 0)
(-0.00175375349824 0.000280643812758 0)
(-0.00170352560372 0.000316986438568 0)
(-0.00164658162428 0.000357530821146 0)
(-0.00158172097448 0.000403428778902 0)
(-0.00150620723015 0.000457009573296 0)
(-0.00141567549386 0.000520863825904 0)
(-0.00130585566033 0.000596069213577 0)
(-0.00117491453381 0.000680956591508 0)
(-0.00102557326181 0.000769961663083 0)
(-0.000865307514164 0.000850353915379 0)
(-0.000705720276326 0.000904663141007 0)
(-0.000560704786578 0.000935324754233 0)
(-0.000436253419722 0.000936032179109 0)
(-0.000310498490729 0.00085098760628 0)
(-0.000176355377023 0.00066363150831 0)
(-8.56549823821e-05 0.000557228428631 0)
(2.81179036166e-06 0.000481720606244 0)
(8.45734804441e-05 0.000419677284922 0)
(0.000147794075637 0.000362531926286 0)
(0.000166792865534 0.000266144003084 0)
(0.000146459754218 0.000158111269657 0)
(0.000136500082996 9.62069655096e-05 0)
(0.000130030500761 5.77827424202e-05 0)
(0.000125154282114 2.27781160213e-05 0)
(0.000112244845426 -1.79698012847e-05 0)
(9.50005770339e-05 -5.30132274163e-05 0)
(7.01126111499e-05 -7.69852789439e-05 0)
(4.98456106167e-05 -0.000114519237552 0)
(1.70773513483e-05 -0.000131283452256 0)
(-4.23453874069e-05 -0.00069953477337 0)
(-0.000164790277998 -0.000886504021417 0)
(-0.000279941551473 -0.000937053671336 0)
(-0.00021592302474 -0.000629277029316 0)
(-0.000257291602314 -0.000595987372459 0)
(-0.000509928090581 -0.000840447140366 0)
(-0.000598397202768 -0.000828160872154 0)
(-0.000685769289175 -0.00078155971496 0)
(-0.000757696142673 -0.00070832355244 0)
(-0.000853792523157 -0.000638235199317 0)
(-0.000763836910315 -0.000415286795809 0)
(-0.000858800330626 -0.000326205853009 0)
(-0.00094825280284 -0.000315812626641 0)
(-0.00102888947116 -0.000344725755766 0)
(-0.00120015636904 -0.000419619698893 0)
(-0.00129423320896 -0.000434041627956 0)
(-0.00130769671167 -0.000391519415206 0)
(-0.00136862575671 -0.000376308523283 0)
(-0.00145354032795 -0.000390448096029 0)
(-0.00151084033976 -0.000390416243259 0)
(-0.00155414934923 -0.00037337465483 0)
(-0.0015968092159 -0.000349577692324 0)
(-0.00164176005258 -0.000324062362154 0)
(-0.00168135563875 -0.000293695125484 0)
(-0.00172252972732 -0.000258054077504 0)
(-0.00173661108455 -0.000231928948538 0)
(-0.00178577181438 -0.000210039779259 0)
(-0.00179736500873 -0.000185599782552 0)
(-0.00179932079839 -0.000161452421464 0)
(-0.00182960873057 -0.000141370093853 0)
(-0.00188389744855 -0.000128936623544 0)
(-0.00188438890249 -0.000118984358649 0)
(-0.00190007892267 -0.000126760884479 0)
(-0.0019505044951 -0.000131232100595 0)
(-0.00196819046758 -0.000120770728288 0)
(-0.00197963902248 -0.000101256288232 0)
(-0.00198800735054 -8.08370248402e-05 0)
(-0.0019942758294 -6.02009830192e-05 0)
(-0.00199900617381 -3.81277925796e-05 0)
(-0.00200172691247 -1.4126147188e-05 0)
(-0.00200187625207 1.13154296792e-05 0)
(-0.00199914519822 3.69927438468e-05 0)
(-0.00199316378489 6.1930076366e-05 0)
(-0.00198355667234 8.61721645497e-05 0)
(-0.00197014732403 0.000110516022385 7.43958159174e-29)
(-0.00195287525027 0.000135793680664 -7.40566720512e-29)
(-0.00193159425507 0.000162542220429 0)
(-0.00190601688698 0.000191052581601 0)
(-0.00187582757312 0.000221522652744 0)
(-0.00184075061009 0.000254201020982 0)
(-0.00180045761927 0.000289512163451 0)
(-0.00175449118192 0.000328145474099 0)
(-0.00170223211209 0.000371089994159 0)
(-0.00164264255489 0.000419815179947 0)
(-0.00157366047029 0.000476780703979 0)
(-0.00149161153526 0.000545420644901 0)
(-0.00139164075809 0.00062847060806 0)
(-0.00127008243301 0.000725115207221 0)
(-0.00112795691552 0.000829023930317 0)
(-0.000971021152427 0.000929912176946 0)
(-0.00080645891292 0.00101252582057 0)
(-0.000644411213459 0.00106123547007 0)
(-0.000496774274751 0.00107215958508 0)
(-0.000370134426842 0.00104531288854 0)
(-0.000271838968667 0.00100304415235 0)
(-0.000121131167104 0.000784686232512 0)
(-2.49372334559e-06 0.00064519822885 0)
(9.07147314948e-05 0.00056861834132 0)
(0.000174144871367 0.000488413519319 0)
(0.000230124999506 0.000388098501682 0)
(0.000228485276888 0.000250202900015 0)
(0.000197967472638 0.000138805382334 0)
(0.000174986099991 8.00208465385e-05 0)
(0.000155626316836 4.67786426477e-05 0)
(0.000148043539787 1.51947894221e-05 0)
(0.000137809537769 -2.7676885485e-05 0)
(0.000126277688652 -7.43332407718e-05 0)
(9.41136414285e-05 -0.0001076429938 0)
(6.13509728332e-05 -0.000146876341423 0)
(2.15359464908e-05 -0.000172268204637 0)
(-5.63637862476e-05 -0.000818413430225 0)
(-0.000180811813769 -0.00100024824676 0)
(-0.000246226128491 -0.000983225226225 0)
(-0.000210508173658 -0.000691264254009 0)
(-0.000331336190958 -0.000767120797807 0)
(-0.000512386235987 -0.000946477921952 0)
(-0.000564031127798 -0.000912194133855 0)
(-0.000666319889449 -0.00086598662492 0)
(-0.000682245648277 -0.000742865332613 0)
(-0.000857300791567 -0.000721473853089 0)
(-0.000743800576252 -0.000464902839659 0)
(-0.000858987860143 -0.0004136541102 0)
(-0.000939192709289 -0.000408541432584 0)
(-0.00107560838435 -0.000472778879578 0)
(-0.00120572043709 -0.000530811019855 0)
(-0.00128124116163 -0.000501202549985 0)
(-0.00129617915062 -0.000443481929386 0)
(-0.00137218503381 -0.000444863312082 0)
(-0.00144680985786 -0.000455243732634 0)
(-0.00150272417513 -0.000443962612625 0)
(-0.00155275948568 -0.000420092725348 0)
(-0.00159414554495 -0.000391169705955 0)
(-0.00163734096322 -0.000363405096125 0)
(-0.00166408636595 -0.000332106874149 0)
(-0.00169535552665 -0.000288459171225 0)
(-0.00175030566617 -0.000259549238645 0)
(-0.00173635873432 -0.000235450514831 0)
(-0.00181599570031 -0.000210568655709 0)
(-0.00179955011653 -0.000185517677417 0)
(-0.00186325229092 -0.000173185028134 0)
(-0.00185071757961 -0.000152529575322 0)
(-0.00191253767902 -0.000146509880082 0)
(-0.00193894710011 -0.000153649018006 8.77945705934e-29)
(-0.00195866787753 -0.000154313666618 -8.65153814806e-29)
(-0.00197436507292 -0.000136716311695 0)
(-0.00198644584802 -0.000113076729686 0)
(-0.00199580221442 -8.93535106104e-05 0)
(-0.00200255039166 -6.59715280895e-05 0)
(-0.00200733444141 -4.1630028068e-05 0)
(-0.00201010993167 -1.54777042532e-05 0)
(-0.00201039447151 1.22829714002e-05 0)
(-0.00200778761369 4.07489486366e-05 0)
(-0.0020019200634 6.91266333711e-05 0)
(-0.00199243617728 9.73097778133e-05 0)
(-0.00197910027761 0.000125803725925 0)
(-0.00196171871919 0.000155301394493 0)
(-0.00194001618906 0.000186382120064 0)
(-0.00191362793796 0.000219424731575 0)
(-0.00188220915078 0.000254669866868 0)
(-0.00184549373464 0.000292401625203 0)
(-0.00180320863517 0.000333155643636 0)
(-0.00175495849259 0.000377874628093 0)
(-0.00170005964793 0.000428086034192 0)
(-0.00163711042176 0.000486237953469 0)
(-0.00156343746284 0.000555982284248 0)
(-0.00147490528784 0.000641471271344 0)
(-0.00136675015173 0.000744952426698 0)
(-0.00123651021467 0.00086296518402 0)
(-0.00108760301553 0.000984575273451 0)
(-0.000925221272071 0.00109740780763 0)
(-0.000753264692382 0.0011844122692 0)
(-0.000580666321313 0.00122379288233 0)
(-0.000422220114992 0.00121357210366 0)
(-0.000286859985645 0.00116546098277 0)
(-0.000187055071878 0.00109025723905 0)
(-7.97151568885e-05 0.000962134595174 0)
(6.22080175481e-05 0.000725715392552 0)
(0.000177171772279 0.000661401439332 0)
(0.000269494371759 0.000573933551796 0)