/*--------------------------------*- C++ -*----------------------------------*\
| =========                 |                                                 |
| \\      /  F ield         | OpenFOAM: The Open Source CFD Toolbox           |
|  \\    /   O peration     | Version:  v1806                                 |
|   \\  /    A nd           | Web:      www.OpenFOAM.com                      |
|    \\/     M anipulation  |                                                 |
\*---------------------------------------------------------------------------*/
FoamFile
{
    version     2.0;
    format      ascii;
    class       volVectorField;
    location    "249";
    object      Ua;
}
// * * * * * * * * * * * * * * * * * * * * * * * * * * * * * * * * * * * * * //

dimensions      [0 1 -1 0 0 0 0];


internalField   nonuniform List<vector> 
6400
(
(4.87957155914e-05 6.73240843425e-05 0)
(0.000136590551143 5.40042049087e-05 0)
(0.000201456368272 4.6161064837e-05 0)
(0.000277930886545 4.32516247722e-05 0)
(0.000333044656076 2.7900291477e-05 0)
(0.000371614574152 1.44338958175e-05 0)
(0.000386012513421 9.14380093475e-06 0)
(0.000394514700052 1.6539213165e-05 0)
(0.000446787805325 2.67712072124e-05 0)
(0.000504335123654 2.63955010258e-05 0)
(0.000517726209461 2.33921197364e-05 0)
(0.000571688098592 2.74224999429e-05 0)
(0.000619582015699 2.62742242717e-05 0)
(0.00065890246184 2.1978402444e-05 0)
(0.000685199880616 1.95614792417e-05 0)
(0.000714242276933 2.24528968489e-05 0)
(0.000755073772677 2.37996751146e-05 0)
(0.000789096857398 2.13566117711e-05 0)
(0.000810973072636 1.65521437285e-05 0)
(0.00082824089423 1.33227957462e-05 0)
(0.000853050263383 1.83794568321e-05 0)
(0.000889634350335 2.53109158279e-05 0)
(0.000933484141536 2.82601669112e-05 0)
(0.000974859048373 2.94011516244e-05 0)
(0.00101577719375 2.83053313271e-05 0)
(0.00105497034268 2.6063590125e-05 0)
(0.00109565111462 2.60998948412e-05 0)
(0.00113474518504 2.54557360326e-05 0)
(0.00116843622505 2.34571397411e-05 0)
(0.00119756732998 2.17529929126e-05 0)
(0.00122178331206 2.22019133193e-05 0)
(0.00124968038725 2.20308016318e-05 0)
(0.00127872107011 2.0203929374e-05 0)
(0.00130335800555 2.10483839982e-05 0)
(0.00132628641661 2.09813287038e-05 0)
(0.0013584159415 2.15015147428e-05 0)
(0.00139145041902 2.3904036866e-05 0)
(0.00140163744043 2.28619508225e-05 0)
(0.00143076712301 2.14097530682e-05 0)
(0.00147271172822 2.44499859217e-05 0)
(0.00151481289778 3.698415827e-05 0)
(0.0015518616142 4.06632829258e-05 0)
(0.00158487254987 2.66654998487e-05 0)
(0.00160826548318 1.76137942067e-05 0)
(0.00162099081422 1.39837149112e-05 0)
(0.0016285564003 1.01094839315e-05 0)
(0.00162971619829 6.74241067115e-06 0)
(0.00162239770903 2.35326368134e-06 0)
(0.00160785340702 -8.57866411335e-07 0)
(0.00158883947764 3.04559495632e-06 0)
(0.00157357630761 1.4031613273e-05 0)
(0.00159171708064 1.36876825192e-05 0)
(0.00156866997359 -1.62676536519e-05 0)
(0.00152867508446 -2.79725111512e-05 0)
(0.00146050212838 -3.60406771193e-05 0)
(0.00132698707307 -5.54323291246e-05 0)
(0.00119765140834 -4.77980014222e-05 0)
(0.00111624868571 -3.31965690811e-05 0)
(0.00106180258663 -3.9950186364e-05 0)
(0.000923905046939 -4.49256917649e-05 0)
(0.000827865843587 -3.59913046048e-05 0)
(0.000724064297127 -5.309699203e-05 0)
(0.00064986390854 -9.17949051091e-05 0)
(0.000417296622268 -7.40103902272e-05 0)
(0.000282270142093 -4.76638660021e-05 0)
(0.000205708554686 -3.4021123534e-05 0)
(0.00015084814268 -2.98193713402e-05 0)
(0.000100985949598 -2.81645057856e-05 0)
(4.87482719629e-05 -2.77110337219e-05 0)
(-5.8394352709e-06 -2.66152727977e-05 0)
(-5.79788186871e-05 -2.36679350185e-05 0)
(-0.000100191857068 -1.82694108552e-05 0)
(-0.000127209117225 -1.13402615919e-05 0)
(-0.00014874975197 -3.0494556201e-06 0)
(-0.000138724760339 2.5016114066e-06 0)
(-0.000142266384383 6.5933219617e-06 0)
(-0.000106703924747 5.84679436398e-06 0)
(-0.00012056501608 1.35204210708e-05 0)
(-5.53086193245e-05 1.1975667357e-05 0)
(-4.1902223737e-05 2.49544969928e-05 0)
(1.80259313123e-05 9.13759981812e-05 0)
(7.79832625005e-05 0.000104482850697 0)
(0.000136758540474 9.77349432494e-05 0)
(0.000173422563476 7.80369653078e-05 0)
(0.000257995776007 7.79034710056e-05 0)
(0.000344343335525 5.54257882325e-05 0)
(0.000396816850328 3.22195175546e-05 0)
(0.000431061227841 4.56423005617e-05 0)
(0.000467126032035 6.41246003582e-05 0)
(0.000508532771301 6.31805189777e-05 0)
(0.000548724997452 6.02068972044e-05 0)
(0.000585827720978 6.17396416077e-05 0)
(0.000620622657833 5.6137663756e-05 0)
(0.000652906344351 4.73036092101e-05 0)
(0.000686861242029 4.3431911831e-05 0)
(0.000721129864192 5.50757616397e-05 0)
(0.00075633898621 5.92503437839e-05 0)
(0.00078309012113 3.76503144753e-05 0)
(0.000769318646302 2.23655126484e-05 0)
(0.000792875565083 2.22282642323e-05 0)
(0.000828559587592 3.85111085215e-05 0)
(0.000874843793005 6.2132325348e-05 0)
(0.00093343322891 7.03186794355e-05 0)
(0.000983311662243 6.38048093837e-05 0)
(0.00100625186298 5.86130680759e-05 0)
(0.00105525001109 5.78852087805e-05 0)
(0.0011001723712 5.50488156821e-05 0)
(0.00113504417803 4.96558493419e-05 0)
(0.00116625550934 4.40726360175e-05 0)
(0.00119570876 3.96919657485e-05 0)
(0.00122368164477 3.90205023739e-05 0)
(0.00123865043387 3.72179913674e-05 0)
(0.00126623787357 3.0474749631e-05 0)
(0.00128731644366 3.39634315146e-05 0)
(0.00130283682572 3.89224734387e-05 0)
(0.00135182784112 3.39306934741e-05 0)
(0.00137232999091 3.80895741307e-05 0)
(0.00138528615136 4.36805225077e-05 0)
(0.00142619738565 4.20024042206e-05 0)
(0.00148842723687 4.06389267252e-05 0)
(0.00153627369845 3.48484261196e-05 0)
(0.00143526939694 2.50162972149e-05 0)
(0.00141242820951 2.05583303572e-05 0)
(0.00144065207752 1.87751385954e-05 0)
(0.00145830882898 1.63145251372e-05 0)
(0.00148601061115 1.19414197186e-05 0)
(0.00151746654967 4.52110594627e-06 0)
(0.0015335212322 -5.18290348966e-06 0)
(0.00155708413968 -1.54698591404e-05 0)
(0.00156552481695 -2.33445140335e-05 0)
(0.00153640601721 -2.50258323966e-05 0)
(0.0014543860769 -2.7785359381e-05 0)
(0.00137643205195 -3.59400263765e-05 0)
(0.00152615364451 -6.7428108443e-05 0)
(0.00143444377753 -0.000115167446306 0)
(0.00136065423823 -0.000143351139836 0)
(0.00136792991413 -0.000141250012924 0)
(0.00130088252853 -0.000129727346808 0)
(0.0012102865774 -0.000146892659826 0)
(0.0011172015731 -0.000173613408096 0)
(0.00102145088805 -0.000197762410221 0)
(0.000718615853172 -0.000191185160879 0)
(0.000664574096846 -0.000263660323616 0)
(0.000428034717509 -0.000224502686291 0)
(0.000292538567247 -0.000156573933116 0)
(0.00019963840589 -0.000106329483699 0)
(0.00013874267711 -8.38891700378e-05 0)
(9.21794997153e-05 -8.16158170761e-05 0)
(3.98562428132e-05 -8.27967716472e-05 0)
(-1.42436057512e-05 -8.22615471334e-05 0)
(-6.59422820892e-05 -7.29667435436e-05 0)
(-0.000107005887479 -5.46180028274e-05 0)
(-0.000131017296382 -3.35125882706e-05 0)
(-0.000155570843608 -1.51155560282e-05 0)
(-0.000163875466069 1.55655627378e-06 0)
(-0.000162964531593 1.51699548672e-05 0)
(-0.000150856578378 2.36069598454e-05 0)
(-0.000130730811373 4.05639483791e-05 0)
(-8.56169723429e-05 5.54935992902e-05 0)
(-4.05954968722e-05 0.000100793681588 0)
(2.72921632327e-05 0.000158508847086 0)
(7.62411419377e-05 0.000175373997428 0)
(0.00011671412181 0.000167662290941 8.41729432825e-29)
(0.000207791522589 0.000176604889571 -8.17508418326e-29)
(0.000297059340599 0.00018051797976 -7.56714678508e-29)
(0.000346791841563 0.000145974690409 7.00237706883e-29)
(0.000379852100741 7.59444927559e-05 -7.15224044554e-29)
(0.000415463380097 8.43754536287e-05 7.17722209718e-29)
(0.000454330731911 0.000105322909833 0)
(0.000498917842051 0.000109589799129 0)
(0.000543448123516 0.000104645514671 0)
(0.000582046145347 9.82837349044e-05 0)
(0.000616727914989 8.95524489183e-05 0)
(0.000647870681309 8.40198303074e-05 0)
(0.000679434985214 8.00913068135e-05 0)
(0.000712375425407 6.8484993655e-05 0)
(0.000620295105202 4.46996513108e-05 0)
(0.000596431451155 3.15750007811e-05 0)
(0.000619517464875 3.90584541648e-05 0)
(0.000673184255115 7.02528766474e-05 0)
(0.000810413883158 0.00011113358961 0)
(0.000894709064954 0.0001275084299 0)
(0.000916404661459 0.000120275226615 0)
(0.000966318787915 0.000110967831179 0)
(0.00101947025721 0.000105984584993 0)
(0.00105861017778 0.000102460526284 0)
(0.00109370161874 9.42977424456e-05 0)
(0.00112843700887 8.52244648213e-05 0)
(0.00115994907383 7.71258535032e-05 0)
(0.00118558814024 7.11843179994e-05 1.57384888423e-28)
(0.00121781370057 6.57027858683e-05 -1.53062714757e-28)
(0.00122340589663 6.10249126092e-05 0)
(0.00124265478118 5.55522427171e-05 0)
(0.00129108950957 5.087735184e-05 0)
(0.00125551994079 6.30287816634e-05 0)
(0.00130094102499 7.23166191633e-05 0)
(0.00137672601069 6.83525796982e-05 0)
(0.00134729941809 7.62063353684e-05 0)
(0.00140279513525 9.43281520368e-05 0)
(0.00148392693561 9.08378135757e-05 0)
(0.00153857988481 5.35538198795e-05 0)
(0.00156597083794 2.65972145116e-05 0)
(0.00158943726151 3.3883632665e-05 0)
(0.00160962390137 4.13030159995e-05 0)
(0.00162308914169 4.04128148949e-05 0)
(0.00163142770386 3.53031187181e-05 0)
(0.00163541847181 2.41543987232e-05 0)
(0.00163526518915 1.00976341843e-05 0)
(0.00163119832635 -7.04859812232e-06 0)
(0.00162332797298 -3.05000436333e-05 0)
(0.00161256436084 -5.51696296429e-05 0)
(0.00159684890344 -6.70185721807e-05 0)
(0.00156788807589 -5.74518898129e-05 0)
(0.00150075174106 -9.11595524166e-05 0)
(0.001412496024 -0.000146773375626 0)
(0.00140375955551 -0.000172792968651 0)
(0.00136327472027 -0.000186355801241 0)
(0.00128430082034 -0.000207794354253 0)
(0.00118845667129 -0.000238664087436 0)
(0.00108195349594 -0.000282390787629 0)
(0.000956257319839 -0.000345626041052 0)
(0.000818181981748 -0.000406669207831 0)
(0.000685038587922 -0.000482548043327 0)
(0.000428362170692 -0.000383060077526 0)
(0.000267283788087 -0.000244154837225 0)
(0.000191023449693 -0.00017808957709 0)
(0.0001337910089 -0.00015006377491 0)
(7.78862586098e-05 -0.000138280464731 0)
(2.47773056462e-05 -0.00013611121041 0)
(-2.82035088109e-05 -0.000131514371525 0)
(-7.85474367035e-05 -0.000115091954492 0)
(-0.000121760042088 -8.91866051462e-05 0)
(-0.000160458244226 -6.35886591863e-05 0)
(-0.000186109627456 -3.35817439435e-05 0)
(-0.000190066555446 -9.45698700738e-07 0)
(-0.000182267098308 2.34756267426e-05 0)
(-0.000165727647411 4.31612872607e-05 0)
(-0.000140204062364 7.8572881167e-05 0)
(-0.000102026615646 0.000134200113215 0)
(-2.75186625337e-05 0.000147755761781 0)
(2.67859646373e-05 0.000241086768685 0)
(3.32833182882e-05 0.00015638309191 0)
(9.62073896209e-05 0.000257788964402 0)
(0.000185507351733 0.000266454307327 0)
(0.000252553640885 0.000224392999085 0)
(0.000132872037454 8.0150441007e-05 0)
(0.000164229581678 8.15769148241e-05 0)
(0.00032469102928 0.000161658659681 0)
(0.000421064108038 0.000178908248763 0)
(0.000477498557355 0.000163983530148 0)
(0.000531734263735 0.000152311972076 0)
(0.000575834274691 0.000138389909786 0)
(0.000611538455676 0.000123804704934 0)
(0.000633527566584 9.78782731334e-05 0)
(0.000579850102065 5.90192533123e-05 0)
(0.000539745918334 3.32608117363e-05 0)
(0.00054086744777 3.02761237604e-05 0)
(0.000584482575809 5.96689615116e-05 0)
(0.000688514486402 0.000112569113927 0)
(0.000808581846511 0.000173378498328 0)
(0.000845114412274 0.000188398078586 0)
(0.000883906956381 0.000176948400685 0)
(0.000932485223405 0.000166537581269 0)
(0.000975704344053 0.000158792033904 0)
(0.00101415698598 0.000148758542532 0)
(0.00104964871433 0.000137759866527 0)
(0.0010818841041 0.000127402250814 0)
(0.00112091191864 0.000117026797232 0)
(0.00114504116274 0.000106148796746 0)
(0.00118318619813 9.74594297861e-05 0)
(0.00118945024623 8.79773041895e-05 0)
(0.00122967324361 7.86359317251e-05 0)
(0.00120937204827 6.52094526609e-05 0)
(0.00123260684314 6.87313077892e-05 0)
(0.00130439437076 8.66273465939e-05 0)
(0.00127942859004 0.000104615216231 0)
(0.00134951510284 0.000115322068866 0)
(0.00143416232033 0.0001278229084 0)
(0.00147336259107 0.000143494354742 0)
(0.00150254433604 0.000131791291205 0)
(0.00153351378895 9.59905499546e-05 0)
(0.0015627896174 6.61581045054e-05 0)
(0.00158864698878 5.69860152502e-05 0)
(0.00160957185529 5.4326978641e-05 0)
(0.00162424786605 4.85138938608e-05 0)
(0.00163380911324 3.85102917622e-05 -1.54440249817e-28)
(0.00163905657904 2.41353998461e-05 1.55530501035e-28)
(0.0016401370827 6.27821532656e-06 0)
(0.00163699682737 -1.50095615721e-05 0)
(0.00162938674485 -3.98711296595e-05 0)
(0.00161653880961 -6.52642303452e-05 0)
(0.00159514829473 -8.79169977423e-05 0)
(0.00156018177897 -0.00011356802235 0)
(0.00151092431559 -0.000155069824958 0)
(0.00145861700524 -0.00019293720426 0)
(0.00140741523852 -0.000221204782122 0)
(0.00134356426847 -0.000258245290799 0)
(0.00125769534174 -0.000301722292814 -2.93665626654e-28)
(0.00115104414093 -0.000351440056219 3.32376518627e-28)
(0.00102670841121 -0.000411225589645 0)
(0.000887663734689 -0.000479318812709 0)
(0.000745046190987 -0.000550953210636 0)
(0.000622920163986 -0.0006221225855 0)
(0.000454171931313 -0.000553639319632 0)
(0.000297910560032 -0.000384856504377 0)
(0.000183955115549 -0.000252868283006 0)
(0.000116540101367 -0.000205826837453 0)
(5.88534982944e-05 -0.000193592594234 0)
(3.71378514684e-06 -0.000190183000235 0)
(-5.16453696396e-05 -0.000187118606637 0)
(-0.000109003420567 -0.000170468546482 0)
(-0.000161842136033 -0.00013873291302 0)
(-0.000195093782477 -9.33096853889e-05 0)
(-0.000196492061786 -4.02333014054e-05 0)
(-0.000195162521725 2.27713890179e-06 0)
(-0.000190218800405 3.87628768799e-05 0)
(-0.000165569036295 7.48277597435e-05 0)
(-0.000107325004112 0.000100225596517 0)
(-8.14078029143e-05 0.000163013492663 0)
(-2.76315587959e-05 0.000206135322313 0)
(4.44273913713e-07 0.000234827679881 0)
(1.52339794513e-05 0.000191303225222 0)
(8.9156712724e-05 0.000345090376314 0)
(0.000156876743304 0.000317671296349 0)
(0.000155855466884 0.000196047692966 0)
(0.000119547274616 0.000106321423088 0)
(0.000208932740544 0.000182233980463 0)
(0.00034384802354 0.00027809098666 0)
(0.000393191693109 0.000253879717096 0)
(0.000453790888561 0.000224398047643 0)
(0.000510415239219 0.000209070562407 0)
(0.00055646393993 0.000182690644299 0)
(0.000550749976163 0.000122568442002 0)
(0.000489222053 6.30776432823e-05 0)
(0.000500975682921 4.28270813905e-05 0)
(0.000538656738535 5.22541844482e-05 0)
(0.000608769772344 8.93608720503e-05 0)
(0.000706321945383 0.000152135395346 0)
(0.000782902530267 0.000204628731656 0)
(0.000797102753309 0.000214750606159 0)
(0.000834602505418 0.00022071962849 0)
(0.000886513973701 0.000223214454152 0)
(0.00092837181042 0.000213042010337 0)
(0.000968213985292 0.000198729818102 0)
(0.00100447863718 0.000184747512321 0)
(0.0010363429813 0.000172990389746 0)
(0.00107676864084 0.00016107584761 0)
(0.00109621660642 0.000147100059973 0)
(0.0011434684107 0.000135485133308 0)
(0.0011432820717 0.000120105510174 0)
(0.0011988933572 0.000109524002925 1.49517802404e-28)
(0.00115646909987 9.17797289985e-05 -1.36580632346e-28)
(0.00121841373201 9.07629264444e-05 0)
(0.00127303190891 9.75523999449e-05 0)
(0.00125762427841 0.000115685756554 0)
(0.00134683207324 0.000153947613529 0)
(0.00139917660553 0.000181254162364 0)
(0.0014422318298 0.000182073908911 0)
(0.00147555398355 0.00017281035943 0)
(0.00150391910502 0.000154839691112 0)
(0.00153386075602 0.000126201234586 0)
(0.00156357790446 9.90503625144e-05 0)
(0.0015900608109 8.28364411201e-05 0)
(0.00161162829968 7.23849903408e-05 0)
(0.00162756500174 6.10296605537e-05 0)
(0.00163864286259 4.64262340072e-05 0)
(0.00164536641275 2.79794507469e-05 0)
(0.001647721578 5.83400413374e-06 0)
(0.0016453098549 -2.01688681316e-05 0)
(0.00163737215156 -5.00754701635e-05 0)
(0.00162260308946 -8.27093398078e-05 0)
(0.00159842241931 -0.000117302697725 0)
(0.00156220346527 -0.000156112925163 0)
(0.0015144222409 -0.000201107921355 0)
(0.00145979814582 -0.000245107524385 0)
(0.00139857372715 -0.000289874043467 0)
(0.00132237191904 -0.000344389930369 0)
(0.00122382423316 -0.000408317054521 0)
(0.00110202519041 -0.000477933628349 0)
(0.000962789019019 -0.000550605262625 0)
(0.000817204165596 -0.00062228253246 0)
(0.000682585678871 -0.00068957886309 0)
(0.000574536769514 -0.000736897766003 0)
(0.000461957871585 -0.00069967922847 0)
(0.000309989570194 -0.000523926613916 0)
(0.000192900275029 -0.000359950591966 0)
(0.000111186287028 -0.000287728309758 0)
(4.02031022806e-05 -0.000258767903906 0)
(-2.2524038184e-05 -0.00024767202035 0)
(-8.42509200726e-05 -0.000243951095613 0)
(-0.000150805970475 -0.000229798338101 0)
(-0.000200195103032 -0.000179101269812 0)
(-0.000207902334587 -0.000102373589082 0)
(-0.000213471431806 -4.24888630925e-05 0)
(-0.000217802215652 7.88393761342e-06 0)
(-0.000209241339223 6.20457581072e-05 0)
(-0.000168030160412 0.000108546892595 0)
(-0.000119403153586 0.000143850073246 0)
(-8.66909184697e-05 0.000222167443422 0)
(-2.52388088094e-05 0.000252787093633 0)
(-1.90592491899e-06 0.000216983415921 0)
(2.04240130331e-05 0.000234032642939 0)
(9.13192024996e-05 0.000392126307668 0)
(0.000123992023725 0.000315451650133 0)
(8.78783562924e-05 0.000148220668976 0)
(0.000120095117613 0.000153105284114 0)
(0.000275693816926 0.00030993984989 0)
(0.000333370627277 0.000335713079727 0)
(0.000373500786096 0.000307497932506 0)
(0.000424520134427 0.000282491121251 0)
(0.000476573657427 0.000244508941832 0)
(0.000425790490566 0.000157390472671 0)
(0.000382283838369 8.4735202591e-05 0)
(0.00041693532317 6.9549710906e-05 0)
(0.000462325566723 8.4134728364e-05 0)
(0.000553353563405 0.000128483994012 0)
(0.000660911866171 0.000186635073566 0)
(0.00073679085359 0.000223226995034 0)
(0.000734916415831 0.000223266900096 0)
(0.000779856996946 0.000246025370089 0)
(0.000839296881685 0.000269775944218 0)
(0.00087973790565 0.000267565514887 0)
(0.000918040676301 0.00025380018871 0)
(0.000953524162362 0.000237571766581 0)
(0.000996582561303 0.000223260838964 0)
(0.00102879769988 0.000204186499076 0)
(0.00103464341591 0.000189031422311 0)
(0.0010995829002 0.000179912720147 0)
(0.00108082113819 0.000156159813027 0)
(0.00115769955166 0.000141574787474 0)
(0.00108708812353 0.000114698175279 0)
(0.00118329613608 0.000119761037957 0)
(0.00113142721995 0.000118198338992 0)
(0.00122058944053 0.000138445576225 0)
(0.00131428611349 0.000178932295036 0)
(0.00137008534162 0.000216488965671 0)
(0.00140950365972 0.000224542869518 0)
(0.00144403283803 0.000217102218776 0)
(0.00147505971256 0.000202620014977 0)
(0.00150499388674 0.000182569825726 0)
(0.00153525323589 0.00015650321049 0)
(0.0015650131764 0.000130018915582 0)
(0.00159205545072 0.000108921318489 0)
(0.00161452791157 9.18916280763e-05 0)
(0.00163201251732 7.49492181004e-05 0)
(0.00164479831726 5.56487557359e-05 0)
(0.00165323808997 3.28884255149e-05 0)
(0.00165700605774 6.12287997567e-06 0)
(0.00165525294931 -2.52209693814e-05 0)
(0.00164691106062 -6.15064538823e-05 0)
(0.00163059829028 -0.000102506869331 0)
(0.00160438600068 -0.000147998378944 0)
(0.00156673032543 -0.000198115460407 0)
(0.00151781952595 -0.000251898711914 0)
(0.00145874332027 -0.000307495848208 0)
(0.00138723418005 -0.000369327819898 0)
(0.00129687263642 -0.000443416683202 0)
(0.00118385576249 -0.000527860050452 0)
(0.00105173627931 -0.000615373610707 0)
(0.000906590045915 -0.000695089942367 0)
(0.000765532870962 -0.000761436335797 0)
(0.000644555661335 -0.000800649673441 0)
(0.000502731263922 -0.000765785829346 0)
(0.000469571743041 -0.000855019924551 0)
(0.0002928794012 -0.000633007468274 0)
(0.000183473430647 -0.00044836754513 0)
(0.000101895720588 -0.000370463289513 0)
(1.93841969891e-05 -0.000331363133482 0)
(-5.5756789684e-05 -0.00031184476371 0)
(-0.000130552194476 -0.00031348128074 0)
(-0.000199175390789 -0.00028777340777 0)
(-0.000221504517015 -0.000197326038934 0)
(-0.000229437166751 -0.000112933712224 0)
(-0.000247968147532 -5.02564833131e-05 0)
(-0.000252055929284 1.51754939144e-05 0)
(-0.000240395049011 9.08786944973e-05 0)
(-0.000187803600134 0.000142916691968 0)
(-0.000142233740648 0.00018840101751 0)
(-0.000102997550013 0.000278920290043 0)
(-3.17408073366e-05 0.00030761022391 0)
(6.9055645611e-06 0.000235173447987 0)
(5.1244471646e-05 0.000310288261233 0)
(0.00012218903693 0.000425742229193 0)
(0.000130769084696 0.000389134843524 0)
(8.09956819497e-05 0.000184117135846 0)
(0.000179222983929 0.000278915607669 0)
(0.000292590927428 0.000386015318776 0)
(0.000317776070024 0.000374573699751 0)
(0.00035658264 0.000346691609531 0)
(0.000376574392975 0.000313346541915 0)
(0.000443024596691 0.00026081291866 -3.27388751624e-28)
(0.000323818170957 0.000118769412426 1.79232676734e-28)
(0.000378371642542 0.000105978245454 0)
(0.000405498447602 0.00011477998374 0)
(0.000482322915795 0.000161141307371 0)
(0.000598501367928 0.000235435330123 0)
(0.000679953514154 0.000266002654457 0)
(0.00065991794934 0.000237342418599 0)
(0.000709463802356 0.000258076726567 0)
(0.000785701795506 0.000303521714817 0)
(0.00082578528725 0.000316018154564 0)
(0.000867654460274 0.000308390621939 0)
(0.000907433409191 0.000293779958172 0)
(0.000944940910973 0.000274595264226 0)
(0.000970305534411 0.000250412232076 0)
(0.000981183166197 0.00022537210798 0)
(0.00103929421422 0.000216937258218 0)
(0.00100655665155 0.000198388612271 0)
(0.0011036297782 0.000184508528971 0)
(0.00102337939632 0.00013604950166 0)
(0.00112470074963 0.000140376808993 0)
(0.00108590567362 0.000145497038245 -1.29354765057e-28)
(0.00117909697046 0.000165135756355 1.39399421655e-28)
(0.00122150488016 0.000209022358695 0)
(0.00133553570326 0.000257028725771 0)
(0.00137747974485 0.000267001363564 0)
(0.00141012709614 0.000260895587066 0)
(0.0014421535073 0.000248864760177 0)
(0.00147453708976 0.00023273279187 0)
(0.00150625490853 0.000212165741663 0)
(0.00153711192668 0.000186965692354 0)
(0.00156722246248 0.000160192135869 0)
(0.00159490238388 0.000135475964272 0)
(0.0016185159671 0.000113071903021 0)
(0.00163764110126 9.08895237065e-05 0)
(0.00165240001764 6.68562565001e-05 0)
(0.0016627972051 3.94781589574e-05 0)
(0.0016680995488 7.55408298178e-06 0)
(0.00166711216844 -2.99520903277e-05 0)
(0.00165862680401 -7.37062331079e-05 0)
(0.00164130705141 -0.000123842686176 0)
(0.00161354791505 -0.000180054640302 0)
(0.00157406700231 -0.000241595625226 0)
(0.00152218819058 -0.000307571501443 0)
(0.00145677060254 -0.000378970877461 0)
(0.0013744723616 -0.000460555606308 0)
(0.00127102368178 -0.000555092345066 0)
(0.00114649427469 -0.000657009832829 0)
(0.00100774013452 -0.000754659265951 0)
(0.000867689323258 -0.000834750979335 0)
(0.000739973510269 -0.000883502834938 0)
(0.000634266380883 -0.00090112809019 0)
(0.00054572508187 -0.000928967144088 0)
(0.000480589720845 -0.000946660564326 0)
(0.000319950900964 -0.000749188133058 0)
(0.000168745432368 -0.00052934000155 0)
(8.33459877719e-05 -0.000464140627891 0)
(-1.0568670811e-05 -0.000428394381044 0)
(-0.000100710964202 -0.000404256851628 0)
(-0.000181822148057 -0.00038681394716 0)
(-0.000231609777386 -0.000320362081555 0)
(-0.000245013414979 -0.000214296390393 0)
(-0.000272187191566 -0.000134806611508 0)
(-0.000294828329853 -6.10653949836e-05 0)
(-0.000301822001676 2.48792121118e-05 0)
(-0.00027676212562 0.000116126863648 0)
(-0.000236474636093 0.000188061647407 0)
(-0.000175777112062 0.000240360439851 0)
(-0.000126383935227 0.000340438969115 0)
(-4.31977984804e-05 0.000386615655019 0)
(1.52443537841e-05 0.000274128830077 0)
(7.59387930922e-05 0.000387430258862 0)
(0.000138673932475 0.000437649821973 0)
(7.73268831001e-05 0.000243417394054 0)
(8.39133855465e-05 0.000230142482787 0)
(0.000218065639582 0.000403558524871 0)
(0.000267685151379 0.000424338411735 0)
(0.000305789397011 0.000412520474904 0)
(0.000319931473252 0.000367347605854 0)
(0.000359406264212 0.000336253139886 0)
(0.000276429216451 0.000185341413378 0)
(0.000318847749716 0.000140621110992 0)
(0.000364308610364 0.000143803393212 0)
(0.000400620516667 0.000171612304462 0)
(0.000522344093307 0.000260782683906 0)
(0.000618238537287 0.000313621411042 0)
(0.000593231332871 0.000271996300562 0)
(0.000630152907808 0.000272111733457 0)
(0.00071601824629 0.000325038082765 0)
(0.000773129132154 0.000356476667246 0)
(0.000808232882242 0.000356888870795 0)
(0.000844370418444 0.000346713803718 0)
(0.000890331638158 0.000335485899659 0)
(0.000925704743486 0.00031269529671 0)
(0.000968890663293 0.000277344897127 0)
(0.000954033979167 0.000252624860139 0)
(0.00102695096833 0.000241257577755 0)
(0.00101718269393 0.000215132459759 0)
(0.00100114172337 0.000185118163433 0)
(0.00103407466676 0.00017276566611 0)
(0.00114629136919 0.000182469028403 0)
(0.0011205533858 0.000175878703001 0)
(0.0011401987812 0.000220188101821 0)
(0.00129372678649 0.000295248669712 0)
(0.0013361512994 0.000318941475011 0)
(0.00137341471239 0.000309038795814 0)
(0.00140727102544 0.000295250454667 0)
(0.00144000635693 0.000281156773102 0)
(0.00147375412636 0.000264508871862 0)
(0.00150725380361 0.000243528860544 0)
(0.00153928028321 0.000218129687324 0)
(0.00156993018469 0.000190375224588 0)
(0.00159846615928 0.00016269625228 0)
(0.00162354038293 0.000135849756126 0)
(0.00164457564326 0.000108905152866 -1.4936418739e-28)
(0.00166156520955 8.02151893105e-05 1.48875240998e-28)
(0.00167415212999 4.79407210461e-05 0)
(0.00168121400738 1.03090035402e-05 0)
(0.00168131115813 -3.40833520397e-05 0)
(0.00167318651068 -8.60922653093e-05 0)
(0.00165548418977 -0.000146005843712 0)
(0.00162662376269 -0.000213542832765 0)
(0.0015851374788 -0.000288027623346 0)
(0.00152937551624 -0.000369405978191 0)
(0.00145676028437 -0.000459726068669 0)
(0.00136402391211 -0.000562237063629 0)
(0.00124967195773 -0.000675764901007 0)
(0.00111753293719 -0.000791353485079 0)
(0.000977174462643 -0.000894896358723 0)
(0.000840488203316 -0.000967574589468 0)
(0.000719578376683 -0.000991700094345 0)
(0.000627959977726 -0.000990701188157 0)
(0.000558707969506 -0.000993986288318 0)
(0.000501742185094 -0.00100423575596 0)
(0.000436928287205 -0.000991101852833 0)
(0.000196155637444 -0.000661398618668 0)
(6.14696715243e-05 -0.000567253017742 0)
(-4.79850071767e-05 -0.000526936625189 0)
(-0.000145112369862 -0.000486694267696 0)
(-0.000220066009357 -0.000439076086325 0)
(-0.000259311830933 -0.000347202748998 0)
(-0.000287649883502 -0.000246222648349 0)
(-0.000328768882289 -0.000164589302123 0)
(-0.000354822267344 -7.44032711216e-05 0)
(-0.000362671539142 3.36167106688e-05 0)
(-0.00033578333827 0.000140873641298 0)
(-0.000305499741107 0.000238182101387 0)
(-0.000232086069874 0.000314006697731 0)
(-0.000156137463807 0.000418236793083 0)
(-5.5253265755e-05 0.000492760148757 0)
(2.20591279335e-05 0.000325010328936 0)
(8.94131573112e-05 0.000452574395621 0)
(0.00011337675948 0.000443588578684 0)
(7.30897456471e-05 0.000266424266691 0)
(0.000123571878044 0.000310804337197 0)
(0.000229921413683 0.000463317061735 0)
(0.000242125742399 0.000459279003499 0)
(0.000293792042195 0.000446484377934 0)
(0.000265996806364 0.00035417158643 0)
(0.000357237798503 0.000376203561935 0)
(0.000264083980002 0.000201616289173 0)
(0.000323413740025 0.000183376318583 0)
(0.000356225985328 0.000190063901311 0)
(0.000430478416837 0.000256955443999 0)
(0.000543508854086 0.000354063843821 0)
(0.000598810010369 0.000355354827765 0)
(0.000569345344581 0.000299099415171 0)
(0.000632531912623 0.000332624687351 0)
(0.000705052721753 0.000385859876327 0)
(0.000751129735776 0.000402495062885 0)
(0.000792858357808 0.000397231188965 0)
(0.000821137273069 0.000381608493877 0)
(0.0008616867331 0.000368458462322 0)
(0.000880138228218 0.000341179573739 0)
(0.000886308482123 0.000289793270186 0)
(0.000966894018418 0.000281005700661 0)
(0.000902657249444 0.000252641347688 0)
(0.00105079918238 0.000246609941017 0)
(0.000974624154693 0.000214529654789 0)
(0.00111611737687 0.000231067415851 0)
(0.00103689787367 0.000203860115073 0)
(0.00117749994351 0.000233305192235 0)
(0.00123480438446 0.00030090160417 -1.55529327718e-28)
(0.00129528366989 0.000357094321221 1.62659865102e-28)
(0.00133222356082 0.000360740622347 0)
(0.00136771019598 0.000346778013583 0)
(0.00140358119015 0.00033088953711 0)
(0.00143799026187 0.000315255273603 0)
(0.00147273663357 0.000297928109829 0)
(0.00150749453248 0.00027648337193 0)
(0.00154106671776 0.00025039802589 0)
(0.00157295823926 0.000221252130702 0)
(0.00160267827175 0.000190967928771 0)
(0.00162945635815 0.00016041334396 0)
(0.00165281987644 0.000129202318579 0)
(0.00167237351376 9.59474620516e-05 0)
(0.00168738482632 5.85586546708e-05 0)
(0.00169655495333 1.47961462121e-05 0)
(0.00169834806493 -3.70356572099e-05 0)
(0.00169136530034 -9.79144969389e-05 0)
(0.00167413670978 -0.000168312906279 0)
(0.0016449373922 -0.000248271654286 0)
(0.00160185916338 -0.000337757126038 0)
(0.00154222350771 -0.000437455788168 0)
(0.00146249739143 -0.000548978992768 0)
(0.00136006251626 -0.00067243842465 0)
(0.00123615032914 -0.000802528397809 0)
(0.00109759350148 -0.000928030500091 0)
(0.00095628616851 -0.00103525574136 0)
(0.000822507761115 -0.00110023796649 0)
(0.000709261797584 -0.00109432949699 0)
(0.000627562565546 -0.00105939744975 0)
(0.00056731939739 -0.00104921030912 0)
(0.000513181452181 -0.00105885220695 0)
(0.000475465917184 -0.00106396704444 0)
(0.00031930185905 -0.000926568851605 0)
(6.5798867292e-05 -0.000672802152211 0)
(-9.13718802449e-05 -0.000642965297674 0)
(-0.000190282133694 -0.000580644971836 0)
(-0.000256351904517 -0.000491129567949 0)
(-0.000299494792897 -0.00038578064807 0)
(-0.000348470695704 -0.00029180676595 0)
(-0.000395847404334 -0.000199594433936 0)
(-0.000424492903573 -9.09021828668e-05 0)
(-0.000431995564208 3.55137611933e-05 0)
(-0.000419633525999 0.000163247029887 0)
(-0.000388539070992 0.00029032739142 0)
(-0.000312053775996 0.000412559667003 0)
(-0.000200003297065 0.000531245286193 0)
(-6.81463203997e-05 0.00061890445072 0)
(2.82189517982e-05 0.00039110145073 0)
(0.000102135722324 0.000500694069554 0)
(0.000102491165005 0.000429886511429 0)