/*--------------------------------*- C++ -*----------------------------------*\
| =========                 |                                                 |
| \\      /  F ield         | OpenFOAM: The Open Source CFD Toolbox           |
|  \\    /   O peration     | Version:  v1806                                 |
|   \\  /    A nd           | Web:      www.OpenFOAM.com                      |
|    \\/     M anipulation  |                                                 |
\*---------------------------------------------------------------------------*/
FoamFile
{
    version     2.0;
    format      ascii;
    class       volVectorField;
    location    "99";
    object      U;
}
// * * * * * * * * * * * * * * * * * * * * * * * * * * * * * * * * * * * * * //

dimensions      [0 1 -1 0 0 0 0];


internalField   nonuniform List<vector> 
6400
(
(-7.13885469699e-05 -9.78759344414e-05 0)
(-0.000200235208076 -7.94510086606e-05 0)
(-0.000296020797405 -6.8399750404e-05 0)
(-0.000413434476905 -6.36814478893e-05 0)
(-0.000495302121482 -3.65289662707e-05 0)
(-0.000550219062893 -1.20639112185e-05 0)
(-0.000561835007869 -3.43191730227e-06 0)
(-0.0005642368828 -1.69101920736e-05 0)
(-0.000643264404851 -3.28383541924e-05 0)
(-0.000732742559531 -3.04805466421e-05 0)
(-0.000737819050773 -2.67202154992e-05 0)
(-0.000823400326997 -3.42139462824e-05 0)
(-0.000894359111176 -3.11551754388e-05 0)
(-0.000950357467216 -2.22077726514e-05 0)
(-0.000979781289402 -1.71919858728e-05 0)
(-0.00101394146705 -2.20704938164e-05 0)
(-0.00106997082035 -2.37824599574e-05 0)
(-0.00111170850369 -1.89073859033e-05 0)
(-0.00112969318462 -9.35345070611e-06 0)
(-0.00113592966927 -1.30480379738e-06 0)
(-0.00115107107425 -8.08686990077e-06 0)
(-0.00118520727954 -1.8779833357e-05 0)
(-0.00123355727571 -2.36225915756e-05 0)
(-0.00127897053867 -2.67873197993e-05 0)
(-0.00132594859573 -2.52893428202e-05 0)
(-0.00136879049501 -2.05855108239e-05 0)
(-0.00141449816266 -2.05523410193e-05 0)
(-0.00145780604884 -1.88746528379e-05 0)
(-0.00149048519085 -1.4538306347e-05 0)
(-0.00151450202179 -1.09240178051e-05 0)
(-0.00152870349919 -1.20712509199e-05 0)
(-0.00155078632501 -1.15101112988e-05 0)
(-0.00157248594814 -6.50806548962e-06 0)
(-0.00158343635447 -6.53283623549e-06 0)
(-0.00158777727247 -4.08981729961e-06 0)
(-0.00160527468689 -2.68210073127e-06 0)
(-0.00162661628707 -5.5896386697e-06 0)
(-0.00159948867349 -3.45006615597e-06 0)
(-0.00161066825405 -3.54032138549e-07 0)
(-0.00164038259426 -7.83794374069e-06 0)
(-0.00168626811797 -3.93962326788e-05 0)
(-0.00173976290848 -5.25135712215e-05 0)
(-0.00178398466944 -2.07393189783e-05 0)
(-0.00180299050191 -3.05272330353e-06 0)
(-0.00180243490092 4.0974078906e-06 0)
(-0.00179471852429 1.16484295341e-05 0)
(-0.00177635890192 1.74994576553e-05 0)
(-0.00174461484399 2.39648523704e-05 0)
(-0.0017039177189 2.57943337691e-05 0)
(-0.00166462606169 1.20080512999e-05 0)
(-0.00163670865404 -1.469979529e-05 0)
(-0.00169364992071 -1.4785746797e-05 0)
(-0.00165332344811 4.79639768438e-05 0)
(-0.00158581247155 6.58989594688e-05 0)
(-0.00147560027161 7.31680859196e-05 0)
(-0.00126688083092 9.67516666142e-05 0)
(-0.00108760991493 7.26906217602e-05 0)
(-0.000975468130741 4.56053582276e-05 0)
(-0.000902233006395 5.10738676215e-05 0)
(-0.000733638385894 5.35819463714e-05 0)
(-0.000612163463511 4.68332479946e-05 0)
(-0.000474939545345 7.05085823721e-05 0)
(-0.000313940101108 0.000110180167421 0)
(-7.21052156327e-05 8.39618871431e-05 0)
(6.13693774371e-05 5.61281112412e-05 0)
(0.000148482760804 4.31689606573e-05 0)
(0.000220541322097 3.76494036636e-05 0)
(0.000293576340737 3.56619732544e-05 0)
(0.000371286420655 3.50002333999e-05 0)
(0.000442769407462 3.19830001334e-05 0)
(0.000506694190196 2.54831662241e-05 0)
(0.000542615913461 1.45680090504e-05 0)
(0.000546664811983 -3.88931240878e-07 0)
(0.000554518504878 -1.9884936177e-05 0)
(0.0004678290182 -2.67667497339e-05 0)
(0.000447775758447 -3.26261215404e-05 0)
(0.000318491838647 -2.39084827503e-05 0)
(0.000348143091459 -4.31620889219e-05 0)
(0.000155587794419 -3.53141157572e-05 0)
(0.000117330567001 -7.03298689298e-05 0)
(-2.5291008598e-05 -0.00013147695167 0)
(-0.000109338484755 -0.00015206706016 0)
(-0.000192932446587 -0.000144455801441 0)
(-0.000243530363791 -0.000114739635997 0)
(-0.000368104518474 -0.000114616396204 0)
(-0.000504022810321 -8.0690494578e-05 0)
(-0.000587570640647 -4.25139144995e-05 0)
(-0.00063689006677 -6.40920023834e-05 0)
(-0.00068703034419 -9.50941465392e-05 0)
(-0.000746027290464 -9.23761323229e-05 0)
(-0.000802794069659 -8.78180223201e-05 0)
(-0.000853697368872 -9.25222049125e-05 0)
(-0.000899809896219 -8.21259165406e-05 0)
(-0.000941689332576 -6.49229845428e-05 0)
(-0.000986766479743 -5.61269575123e-05 0)
(-0.00103075997934 -7.5160146548e-05 0)
(-0.00107442862998 -7.98010779262e-05 0)
(-0.00110039527998 -3.57060653994e-05 0)
(-0.00104818879593 -7.26139271785e-06 0)
(-0.00106685549934 -3.87868700002e-06 0)
(-0.00109972497603 -2.90432139574e-05 0)
(-0.00115259090459 -7.06095248721e-05 0)
(-0.001232713183 -8.74703123285e-05 0)
(-0.00129764937337 -7.68776663341e-05 0)
(-0.00130625256233 -6.92111754444e-05 0)
(-0.0013719645735 -6.92619554058e-05 0)
(-0.00142658180399 -6.41174490779e-05 0)
(-0.00146085839278 -5.34827415199e-05 0)
(-0.00148832244521 -4.2238017457e-05 0)
(-0.00151177089699 -3.28870602543e-05 0)
(-0.00153352492954 -3.10681328459e-05 0)
(-0.00152667347795 -2.72864726998e-05 0)
(-0.00154514049553 -1.16408856125e-05 0)
(-0.00154710491644 -1.53810671237e-05 0)
(-0.00153410886854 -2.1090458409e-05 0)
(-0.00158852359603 -5.07671670594e-06 0)
(-0.00157760213428 -1.20084238493e-05 0)
(-0.00156002103342 -2.37607422968e-05 0)
(-0.00159406822533 -2.05597499113e-05 0)
(-0.00166348808199 -2.21204309169e-05 0)
(-0.00171721121504 -2.05338675275e-05 0)
(-0.00144798672941 -1.30976127737e-05 0)
(-0.00139580256645 -1.03268949522e-05 0)
(-0.00141453409412 -8.88479421323e-06 0)
(-0.00142338447866 -6.71893596513e-06 0)
(-0.00145580954732 -2.11020228895e-06 0)
(-0.00150110450687 7.01236753806e-06 0)
(-0.00152377746052 1.86198761139e-05 0)
(-0.00156622936967 2.96368752022e-05 0)
(-0.00158323302068 3.43920955827e-05 0)
(-0.00152924722986 2.53152396098e-05 0)
(-0.00139853961836 2.28377833184e-05 0)
(-0.00127442994341 3.27388009476e-05 0)
(-0.00158144420184 8.660405985e-05 0)
(-0.00143512510241 0.000164470905453 0)
(-0.00135030862992 0.000202442132518 0)
(-0.00139953198011 0.000196487055989 0)
(-0.00129479442954 0.00017193251459 0)
(-0.00116137526197 0.000191608620691 0)
(-0.00102015792382 0.000229089400688 0)
(-0.000858489576246 0.000263952480164 0)
(-0.000503513024115 0.000242426266717 0)
(-0.000354749629933 0.000326812035881 0)
(-9.35980082972e-05 0.00026367858888 0)
(4.5411182066e-05 0.000183745089438 0)
(0.000133195246452 0.000128200457331 0)
(0.000204075370126 0.000108474169671 0)
(0.000290636965135 0.000111089318527 0)
(0.000372339180762 0.000109927644216 0)
(0.000452446276666 0.000100548722164 0)
(0.000512713016182 7.5700495503e-05 0)
(0.000544377467801 3.74379130137e-05 0)
(0.000535728114516 4.66099797798e-07 0)
(0.000556691381816 -3.75602318781e-05 0)
(0.000535214536636 -6.80440706975e-05 0)
(0.00049825396529 -9.02646479912e-05 0)
(0.000438633040267 -9.79902759835e-05 0)
(0.000367086482102 -0.000131475586973 0)
(0.000234947273299 -0.000161819072749 0)
(0.00011179415891 -0.000282631070592 0)
(-4.0229300921e-05 -0.000226244801521 0)
(-0.000108354950262 -0.000255247040282 0)
(-0.000166092627936 -0.000245334673089 -9.68105072897e-29)
(-0.000305044848752 -0.000263410687726 9.63035843023e-29)
(-0.000445260689334 -0.00027423273346 9.18594346667e-29)
(-0.000517529574222 -0.000220233522151 -8.55781875807e-29)
(-0.000560984671824 -0.000105153468052 8.79830397326e-29)
(-0.00061315447756 -0.000118389952329 -9.01368316948e-29)
(-0.000668230202213 -0.00015037895568 0)
(-0.000732875527909 -0.000156722110073 0)
(-0.000797478732186 -0.000148509277084 0)
(-0.000850896900847 -0.0001383749305 0)
(-0.000897435908172 -0.000122793577801 0)
(-0.000937434492501 -0.000111700555249 0)
(-0.00097585229389 -9.92264305539e-05 0)
(-0.00101297838514 -6.95841269897e-05 0)
(-0.000825412194449 -2.87566722893e-05 0)
(-0.000777962480567 -6.59961999477e-06 0)
(-0.000795928775128 -1.4415667893e-05 0)
(-0.000856827008566 -6.04919070648e-05 0)
(-0.00106171214414 -0.000124018399951 0)
(-0.00119328653657 -0.000155270263165 0)
(-0.00119899406647 -0.000145231188023 0)
(-0.00126681160813 -0.000130907439214 0)
(-0.00133988154917 -0.000123871136587 0)
(-0.00138367525432 -0.00011853939416 0)
(-0.00141830886133 -0.000101943185243 0)
(-0.00145207082325 -8.33136846415e-05 0)
(-0.00147935143682 -6.63968289884e-05 0)
(-0.00149320411941 -5.36775201007e-05 -2.17109485795e-28)
(-0.0015236231987 -4.0993771815e-05 2.11947107554e-28)
(-0.00149784429466 -3.1364224883e-05 0)
(-0.00149709657553 -1.7636172792e-05 0)
(-0.00155545888489 1.70183926057e-06 0)
(-0.00143600343655 -1.95987033366e-05 0)
(-0.00147697695443 -2.89031743239e-05 0)
(-0.00158185083837 -1.23357655457e-05 0)
(-0.00146879125129 -3.53756520006e-05 0)
(-0.00153836693791 -7.63302600814e-05 0)
(-0.00165992919117 -7.62789149897e-05 0)
(-0.00174453450713 -8.19365551702e-06 0)
(-0.00177401667082 3.51242837999e-05 0)
(-0.00179439322084 4.91165175062e-06 0)
(-0.00180461607135 -1.53273901732e-05 0)
(-0.00180484805255 -2.03403936476e-05 0)
(-0.00179904799683 -1.94055398077e-05 0)
(-0.0017888355545 -8.60825680429e-06 0)
(-0.00177519396901 5.63101427558e-06 0)
(-0.00175874832116 2.42694265074e-05 0)
(-0.00174137583239 5.43708691896e-05 0)
(-0.00172614488022 8.4995076725e-05 0)
(-0.00170749905238 9.25506044139e-05 0)
(-0.00166186176973 5.74398429978e-05 0)
(-0.00154734891872 0.000108874679674 0)
(-0.00141602968264 0.000191413530914 0)
(-0.00144360120734 0.000223519481172 0)
(-0.00139762837428 0.00024331394102 0)
(-0.00128898834649 0.000278571227999 0)
(-0.00115706265748 0.000322817450029 0)
(-0.00100977336261 0.000383710350702 0)
(-0.000839584877072 0.000463828280287 0)
(-0.000648124015419 0.000542061769204 0)
(-0.000431265229005 0.000617161116618 0)
(-0.00014785897167 0.000447636944632 0)
(9.60808388145e-06 0.000285487894711 0)
(0.00011536078862 0.00022097694108 0)
(0.000208581330808 0.000200937695051 0)
(0.000290963599727 0.000192272317538 0)
(0.000369534285775 0.00018246894377 0)
(0.00044305462109 0.000160772267889 0)
(0.000502475219056 0.000120942711782 0)
(0.000548893844563 7.07377740325e-05 0)
(0.000600305979265 2.24750288278e-05 0)
(0.00062319045288 -4.02443171512e-05 0)
(0.000589673039815 -0.00010643973251 0)
(0.000530437985744 -0.00014812235713 0)
(0.000456974024569 -0.000176144849622 0)
(0.000373881421249 -0.0002490431055 0)
(0.000267938628546 -0.000382755273509 0)
(7.22967861232e-05 -0.000405179213529 0)
(-4.16378236669e-05 -0.000349643225877 0)
(-4.46926297734e-05 -0.000221925115818 0)
(-0.000139392991781 -0.00038266194258 0)
(-0.000281174495113 -0.000403670723171 0)
(-0.000373573612963 -0.000334845726212 0)
(-0.00018364815642 -0.000110175581165 0)
(-0.000224345216625 -0.000110183140047 0)
(-0.00045782328785 -0.000229358224419 0)
(-0.000617576767968 -0.000262963470383 0)
(-0.000700453790477 -0.000237711750022 0)
(-0.000782865439578 -0.000218336686271 0)
(-0.000846005530382 -0.000195087386627 0)
(-0.000893273656308 -0.000167509701695 0)
(-0.000913032373306 -0.000114980858164 0)
(-0.000795585045484 -4.35281415262e-05 0)
(-0.000720508210211 4.73373256926e-07 0)
(-0.00071091965779 8.20946663294e-06 0)
(-0.000761800435025 -3.42553023535e-05 0)
(-0.000904660930282 -0.000109931136826 0)
(-0.00109661658693 -0.000208947470977 0)
(-0.00113524582084 -0.000236057590886 0)
(-0.00117886762679 -0.000218169338125 0)
(-0.00124243447642 -0.000203226828058 0)
(-0.00129473840466 -0.00019295768457 0)
(-0.00133655473594 -0.000175642970393 0)
(-0.00137254290049 -0.000154479610877 0)
(-0.00140066014419 -0.00013351535947 0)
(-0.00144398360225 -0.000111609797908 0)
(-0.00145328739104 -8.89444319815e-05 0)
(-0.00149630862215 -6.94502970324e-05 0)
(-0.00146789811948 -4.95393183558e-05 0)
(-0.00151804440203 -2.72069823783e-05 0)
(-0.00143776004149 -2.7507441845e-07 0)
(-0.00143884042189 3.05364389094e-06 0)
(-0.00153772731564 -1.31918167448e-05 0)
(-0.00143415101054 -4.74399050725e-05 0)
(-0.00152650874381 -6.45643299382e-05 0)
(-0.00166279315609 -9.25161135776e-05 0)
(-0.00170193415075 -0.000137909934209 0)
(-0.00171637654938 -0.00012639780787 0)
(-0.00173827703971 -6.65865751054e-05 0)
(-0.00176477010131 -2.05071495036e-05 0)
(-0.00178643091085 -1.41865608259e-05 0)
(-0.0017985690236 -1.72951046417e-05 0)
(-0.00180143954344 -1.54486290949e-05 0)
(-0.00179809970843 -8.05222093496e-06 2.38848591594e-28)
(-0.00179045784559 5.03166567298e-06 -2.40489133748e-28)
(-0.0017794104016 2.1999396557e-05 0)
(-0.00176530520209 4.29049245458e-05 0)
(-0.0017486140477 6.84628127784e-05 0)
(-0.00172879062699 9.4300191116e-05 0)
(-0.00169993504837 0.000117305263921 0)
(-0.00165198158337 0.000146636665261 0)
(-0.00158810836043 0.000201067954815 0)
(-0.0015270634363 0.000243581053171 0)
(-0.00146770359775 0.000274123559435 0)
(-0.00139037482601 0.000331772589867 0)
(-0.00128270285873 0.00039907385593 4.33493852175e-28)
(-0.00114645743982 0.000469432946248 -4.78521016147e-28)
(-0.00098941274323 0.000548995102775 0)
(-0.000816627874081 0.000635928887559 0)
(-0.000636603897586 0.000725228041841 0)
(-0.000470156963494 0.00079791710752 0)
(-0.000234396226393 0.000667307972334 0)
(-3.24221317165e-05 0.000460350367206 0)
(9.75350925056e-05 0.000326166982814 0)
(0.000194521834156 0.000283547634604 0)
(0.00028821158217 0.000272805892792 0)
(0.000377085454682 0.000259884093036 0)
(0.000469298593094 0.00023684704157 0)
(0.000557584108843 0.000194107143087 0)
(0.000633776253674 0.000132018392686 0)
(0.000664110601682 4.15089761273e-05 0)
(0.00061261297474 -6.42320296197e-05 0)
(0.000566893163147 -0.000151814805142 0)
(0.000516291337226 -0.000224946693971 0)
(0.000423501667156 -0.000282015524061 0)
(0.000264872402608 -0.000302695894833 0)
(0.00019844386865 -0.000450644447961 0)
(6.85705764341e-05 -0.000553507790466 0)
(-9.33002023392e-07 -0.000336889497314 0)
(-1.86957503981e-05 -0.00027169053367 0)
(-0.000134109781098 -0.000524157192789 0)
(-0.000237683346641 -0.000478012546277 0)
(-0.000222329907031 -0.000277829928234 0)
(-0.000165894515829 -0.000144500631037 0)
(-0.000290692198148 -0.000254880328051 0)
(-0.000507642528111 -0.000415574383136 0)
(-0.000580232116028 -0.000377659308454 0)
(-0.000669811946303 -0.000328225269442 0)
(-0.00075300103675 -0.000302544125204 0)
(-0.000816355648871 -0.000253917461545 0)
(-0.000782223754919 -0.00014240640637 0)
(-0.000670424817311 -4.4354263362e-05 0)
(-0.000682597578895 -6.00207854514e-06 0)
(-0.000728329761207 -1.35884627422e-05 0)
(-0.000821765179643 -6.52282797975e-05 0)
(-0.000966124679057 -0.000162096124575 0)
(-0.0010860876145 -0.000249185414466 0)
(-0.00108079373851 -0.00026103247141 0)
(-0.00112331463425 -0.000269615640672 0)
(-0.00119425081159 -0.000276951316474 0)
(-0.00124331250157 -0.00026138661891 0)
(-0.00128831040015 -0.000237132432392 0)
(-0.00132584628645 -0.000212070389209 0)
(-0.0013542118421 -0.000189826532465 0)
(-0.00140104077037 -0.000164456761229 0)
(-0.00139973488709 -0.000135816784052 0)
(-0.00146195769591 -0.000110059495541 0)
(-0.00141890972468 -7.94216976429e-05 0)
(-0.00150143219528 -5.32030032669e-05 -2.04577446788e-28)
(-0.00138195498101 -2.18524857335e-05 1.79179152767e-28)
(-0.00146643848745 -6.62667931562e-06 0)
(-0.00152836405267 -1.85723373775e-06 0)
(-0.00144062633809 -3.02957790107e-05 0)
(-0.00157749606037 -9.4423340578e-05 0)
(-0.00163551524674 -0.000154632427595 0)
(-0.00168230528386 -0.000166071355137 0)
(-0.00170701545274 -0.000156649192007 0)
(-0.00172063843116 -0.000131836883461 0)
(-0.00174064752176 -8.91525713396e-05 0)
(-0.00176445641759 -5.10254814755e-05 0)
(-0.00178426760187 -3.3288007959e-05 0)
(-0.00179656182853 -2.5062803465e-05 0)
(-0.00180109668384 -1.62059081692e-05 0)
(-0.00180007336973 -3.82392148281e-06 0)
(-0.00179483459875 1.26987907966e-05 0)
(-0.0017860001442 3.28919532304e-05 0)
(-0.00177353433646 5.71964453573e-05 0)
(-0.00175688758651 8.63121354154e-05 0)
(-0.00173466842547 0.000119249907369 0)
(-0.00170322865451 0.000155715356634 0)
(-0.00165877894218 0.000198439381638 0)
(-0.00160347076248 0.000249878571387 0)
(-0.00154352143333 0.000299136003499 0)
(-0.0014767948834 0.000354559301647 0)
(-0.00139208565973 0.000432551113702 0)
(-0.0012792014753 0.000525761869467 0)
(-0.00113587963177 0.000620645802533 0)
(-0.000973161339517 0.000713573418102 0)
(-0.000804977661551 0.000806229094531 0)
(-0.000646780317982 0.000901507301702 0)
(-0.000515068919506 0.000965829575053 0)
(-0.000317814336717 0.000896991304739 0)
(-7.96065591394e-05 0.000656056112935 0)
(6.82886552353e-05 0.000470650094779 0)
(0.000185177065304 0.000399937971994 0)
(0.00029356093762 0.000372047529761 0)
(0.000395235091423 0.000351771352585 0)
(0.00050462011957 0.000329565731401 0)
(0.00062524716578 0.000284953960345 0)
(0.00069483656204 0.00017470069336 0)
(0.000654465701025 2.1464622981e-05 0)
(0.000622339090837 -0.000104879436015 0)
(0.000587762648278 -0.000213900360651 0)
(0.000524751265993 -0.00032058342083 0)
(0.000399236460092 -0.000378098597591 0)
(0.000274485157651 -0.000418038840642 0)
(0.000192959387621 -0.000598185518824 0)
(5.59033899693e-05 -0.0006591303939 0)
(2.72522000946e-06 -0.000309635600836 0)
(-2.76646321152e-05 -0.000334128309791 0)
(-0.000139422078693 -0.000596534761054 0)
(-0.000183620013088 -0.000459562057923 0)
(-0.000125674081756 -0.000205158401971 0)
(-0.000168485779373 -0.000210173537332 0)
(-0.00040545709727 -0.00045426945709 0)
(-0.000502616248796 -0.000505798558117 0)
(-0.000556981159925 -0.000455636091527 0)
(-0.000629437189194 -0.000411157381927 0)
(-0.000697913918128 -0.000342354748841 0)
(-0.000592496942702 -0.000194174600859 0)
(-0.000524309114024 -7.9262500721e-05 0)
(-0.000571435795023 -4.77908104367e-05 0)
(-0.000629514953281 -6.01069402191e-05 0)
(-0.000755230817591 -0.000118816526609 0)
(-0.000918407187319 -0.000209161793922 0)
(-0.00103781162409 -0.00026913880989 0)
(-0.00100050747991 -0.000258547669049 0)
(-0.00105774549545 -0.000292243631338 0)
(-0.00114444855567 -0.000334857515372 0)
(-0.00119100008109 -0.000331502108302 0)
(-0.00123355868619 -0.000307887428954 0)
(-0.00126932605181 -0.000279791673885 0)
(-0.00132177577706 -0.000253866761209 0)
(-0.00135121359786 -0.00021595270775 0)
(-0.00132360870662 -0.00018485327548 0)
(-0.00142193044038 -0.000162365118995 0)
(-0.00134090910209 -0.000117342872898 0)
(-0.00146523711923 -8.28571314029e-05 0)
(-0.00129200393057 -3.74608107592e-05 0)
(-0.00144523295948 -3.08293233271e-05 0)
(-0.00130870589435 -2.96384307654e-05 0)
(-0.00142516454291 -4.05990356227e-05 0)
(-0.00155569284255 -9.95610226892e-05 0)
(-0.00162420883641 -0.000176811850964 0)
(-0.00166068996303 -0.000200060527611 0)
(-0.00168713334064 -0.000194260063158 0)
(-0.00170576270692 -0.000175041728713 0)
(-0.00172326643496 -0.000147569994217 0)
(-0.00174325417844 -0.000111655519113 0)
(-0.00176488448149 -7.66695925441e-05 0)
(-0.00178362012109 -5.19376922902e-05 0)
(-0.00179600438808 -3.46474335223e-05 0)
(-0.00180212594933 -1.88938749164e-05 0)
(-0.00180298208787 -1.52481734736e-06 0)
(-0.00179984693941 1.87360306427e-05 0)
(-0.00179284643357 4.25128209819e-05 0)
(-0.00178132831145 7.0891949147e-05 0)
(-0.00176449169225 0.000105011410728 0)
(-0.00174123544426 0.000145256787752 0)
(-0.00170960708057 0.000191808888201 0)
(-0.0016680837291 0.000244579322186 0)
(-0.00161742703041 0.000302193168273 0)
(-0.00155845995501 0.000363321851648 0)
(-0.00148724209945 0.000438372496734 0)
(-0.00139524566244 0.000538173629415 0)
(-0.00127696716854 0.000655566702358 0)
(-0.00113687157084 0.000773919133086 0)
(-0.000978977115761 0.000873886435432 0)
(-0.00082978718556 0.000962611192263 0)
(-0.00070105064157 0.00102679903846 0)
(-0.000510468600197 0.00097084727424 0)
(-0.000423992700111 0.00117637368287 0)
(-0.000137316256132 0.000834763925921 0)
(2.12360032753e-05 0.000606721176942 0)
(0.000159541327892 0.000526852474265 0)
(0.000299213586413 0.000488669819379 0)
(0.000428559907795 0.000462539744302 0)
(0.000576274597839 0.000450558009572 0)
(0.000707256497766 0.000371830036533 0)
(0.000706733726177 0.000179521562157 0)
(0.000677793772418 2.28734983011e-06 0)
(0.000675741413383 -0.000140139321363 0)
(0.000632820117084 -0.000281011422893 0)
(0.000563640346738 -0.000423764947999 0)
(0.000417159166695 -0.00047221841392 0)
(0.000301714426296 -0.000529836629562 0)
(0.000209748860986 -0.000725918989755 0)
(6.46359928034e-05 -0.000772419280575 0)
(-1.05254674007e-05 -0.000335971630962 0)
(-7.62517232881e-05 -0.000450112648969 0)
(-0.000193097157466 -0.00065028215602 0)
(-0.000201612580781 -0.000579289815021 0)
(-0.000116945505034 -0.000252251928634 0)
(-0.000261336896378 -0.000394212895668 0)
(-0.000450804665356 -0.000583118386981 0)
(-0.000484447977149 -0.000562141558907 0)
(-0.000539066235898 -0.000509116390812 0)
(-0.00055384856199 -0.000443474439746 0)
(-0.000650908165154 -0.000351387602133 4.01947167928e-28)
(-0.000450484394344 -0.000129313177175 -2.04232904766e-28)
(-0.00053226155199 -0.000102563252668 0)
(-0.000562353293197 -0.000106419039801 0)
(-0.000664928040942 -0.00016483194582 0)
(-0.000840147284745 -0.00027702408552 0)
(-0.000971436373771 -0.000328375109467 0)
(-0.000902502844916 -0.000269250300759 0)
(-0.000966680132167 -0.000295866617422 0)
(-0.00108411830643 -0.000373401392266 0)
(-0.00113057358578 -0.000394641274462 0)
(-0.00118100082004 -0.000379000892237 0)
(-0.00122535069649 -0.000351903668699 0)
(-0.00126486025485 -0.000317617072591 0)
(-0.00128089969027 -0.000273375437404 0)
(-0.00126621674002 -0.000223790284274 0)
(-0.00134866920698 -0.000203431278373 0)
(-0.00124788336402 -0.000168755665342 0)
(-0.00140597767732 -0.00013238250617 0)
(-0.00122330918896 -5.27278275964e-05 0)
(-0.0013781116389 -4.37613735323e-05 0)
(-0.00127152057368 -5.38388717235e-05 1.64628026857e-28)
(-0.00140260314607 -6.19543524982e-05 -1.8483875291e-28)
(-0.00141916508829 -0.000128997939058 0)
(-0.00160604466589 -0.000210046599527 0)
(-0.00164183235774 -0.000233473968769 0)
(-0.00166442588675 -0.000229794533278 0)
(-0.00168439504052 -0.000215012059363 0)
(-0.00170548951208 -0.000193392294233 0)
(-0.0017259899439 -0.000166077082333 0)
(-0.00174594839731 -0.000133032304483 0)
(-0.00176651725787 -9.90460506505e-05 0)
(-0.00178449311484 -6.97522693725e-05 0)
(-0.00179711232722 -4.55273666362e-05 0)
(-0.00180431787969 -2.35622236179e-05 0)
(-0.00180687019136 -1.29391489749e-06 0)
(-0.00180550845476 2.30297912031e-05 0)
(-0.00179979684815 5.09788009365e-05 0)
(-0.00178876401263 8.42170237125e-05 0)
(-0.00177179863661 0.000124123536358 0)
(-0.00174833578703 0.000171385246497 0)
(-0.00171737184064 0.00022594119632 0)
(-0.00167815837935 0.000286880907152 0)
(-0.00163028952287 0.000353620470921 0)
(-0.00157206905453 0.000429583431755 0)
(-0.00149880637896 0.000525139174812 0)
(-0.00140422509313 0.000646580099511 0)
(-0.00128610166395 0.000783893845412 0)
(-0.00115031296932 0.000913978972819 0)
(-0.00101645333071 0.00101402542685 0)
(-0.000903870901183 0.00107846967406 0)
(-0.000808555563086 0.00113485177348 0)
(-0.000702068028879 0.00125265327338 0)
(-0.000582999013117 0.00134828849911 0)
(-0.000270848352908 0.00103246735279 0)
(-2.71650037487e-05 0.000749820954835 0)
(0.000144677655874 0.000694168376919 0)
(0.00032894903756 0.000662484659144 0)
(0.000501708464025 0.000630455561624 0)
(0.000664816502407 0.000580876618485 0)
(0.000750146623183 0.000416605683288 0)
(0.0007380129081 0.000185444431135 0)
(0.00076065819504 -3.05500611259e-07 0)
(0.000757915913769 -0.000173213959644 0)
(0.000715559547976 -0.000357444814448 0)
(0.000612969419349 -0.000508800989612 0)
(0.000491967052121 -0.000600272905529 0)
(0.0003405547391 -0.000654467736909 0)
(0.000232580353905 -0.000850485560356 0)
(8.05637586027e-05 -0.000926910920473 0)
(-2.30525124119e-05 -0.000393410382886 0)
(-0.000118400720188 -0.000574704710763 0)
(-0.00022410350338 -0.000665046881903 0)
(-0.000116129568454 -0.000342787742995 0)
(-0.000122020830946 -0.000318412956807 0)
(-0.000335342228618 -0.00059688553211 0)
(-0.000417232412776 -0.000640333527441 0)
(-0.000473655866236 -0.000617237504317 0)
(-0.00048404308096 -0.000527237808044 0)
(-0.000534733203795 -0.000465570243661 0)
(-0.00039285315548 -0.000232357413595 0)
(-0.000456887659818 -0.000154370473871 0)
(-0.00051944721363 -0.000151644881496 0)
(-0.000561082469325 -0.000182819309005 0)
(-0.000738342785124 -0.000307818707545 0)
(-0.00089543727032 -0.000394840619425 0)
(-0.000822917860639 -0.000318324777468 0)
(-0.000866260124771 -0.000307094424343 0)
(-0.000996213036191 -0.000391582011108 0)
(-0.00107640307094 -0.000445208872999 0)
(-0.00111208956277 -0.000443111345659 0)
(-0.00115046705558 -0.000422398632864 0)
(-0.00120886642383 -0.000400340644233 0)
(-0.00124357190099 -0.000357497644302 0)
(-0.00129720520101 -0.000289570160216 0)
(-0.00123080986508 -0.000242926368871 0)
(-0.00134166836115 -0.000212594627743 0)
(-0.00128478870966 -0.000164815520675 0)
(-0.00123459788337 -0.000115933760171 0)
(-0.00125997379303 -8.46692980845e-05 0)
(-0.00143111652964 -7.85653782314e-05 0)
(-0.00134368341204 -6.36280419333e-05 0)
(-0.00132962291474 -0.00013123309079 0)
(-0.00157922289903 -0.000244336521516 0)
(-0.00160966519907 -0.000287699121343 0)
(-0.00164013735714 -0.000272583043312 0)
(-0.00166236180556 -0.000253847775651 0)
(-0.00168244469544 -0.000235731181838 0)
(-0.00170531757738 -0.000214128877502 0)
(-0.0017283190091 -0.000186839486546 0)
(-0.00174921282937 -0.00015429965821 0)
(-0.00176894490607 -0.000119801645252 0)
(-0.00178650827787 -8.6977126255e-05 0)
(-0.00179966173203 -5.72217146613e-05 0)
(-0.00180789215865 -2.97209467772e-05 2.31104673976e-28)
(-0.00181186793798 -2.68024370937e-06 -2.30770505075e-28)
(-0.00181180911947 2.6070110328e-05 0)
(-0.00180682046619 5.87921395512e-05 0)
(-0.0017958585228 9.73902423815e-05 0)
(-0.00177873899309 0.000143174639995 0)
(-0.00175538556726 0.000196822591635 0)
(-0.00172534260077 0.000258296729596 0)
(-0.00168817346933 0.000327176557489 0)
(-0.00164274921297 0.000404537679266 0)
(-0.00158613355343 0.000495834920118 0)
(-0.00151389069903 0.000610072854009 0)
(-0.0014222203005 0.000750255043032 0)
(-0.00131096927223 0.000904593760896 0)
(-0.00119005258529 0.00104370802078 0)
(-0.00108195374426 0.00112293975395 0)
(-0.00100063944901 0.00114595226856 0)
(-0.000945291985348 0.00121546978757 0)
(-0.000869970755152 0.00133493291145 0)
(-0.000766654294817 0.0014665542708 0)
(-0.000583756577596 0.00151526344254 0)
(-0.000134213970695 0.000988154202572 0)
(0.000125723564389 0.000903133818152 0)
(0.000361161776417 0.000861238043078 0)
(0.000562334797817 0.000794637616745 0)
(0.000720478909206 0.000680742661151 0)
(0.000792090843299 0.000459974395206 0)
(0.000828371777541 0.0002213694123 0)
(0.0008807117591 1.13519220334e-05 0)
(0.000876227282775 -0.000208581264324 0)
(0.000825464837933 -0.000436641789551 0)
(0.000704885293684 -0.000608700992505 0)
(0.000590454622019 -0.000747682122858 0)
(0.000407267533991 -0.000827084014842 0)
(0.000251537164607 -0.000993638172243 0)
(8.87943989195e-05 -0.00111439310462 0)
(-3.43901413845e-05 -0.00047045121992 0)
(-0.000145124274739 -0.000686738806542 0)
(-0.000185766174919 -0.000668897856183 0)
(-0.000112149431224 -0.00037538114686 0)
(-0.000187618354794 -0.000440304970385 0)
(-0.000367718656149 -0.000702217451962 0)
(-0.000380020381154 -0.000691888372609 0)
(-0.000463001343986 -0.000665841757465 0)
(-0.000398944106056 -0.000495288303856 0)
(-0.000552445941262 -0.000520993911093 0)
(-0.000384769169007 -0.000247825357851 0)
(-0.000476353783115 -0.000214009651009 0)
(-0.000516644187987 -0.000213690619595 0)
(-0.000616734147353 -0.000301205572575 0)
(-0.000796028682029 -0.000452282392765 0)
(-0.000880833246804 -0.00044827800341 0)
(-0.000799019968651 -0.000341012817853 0)
(-0.000890185827776 -0.00038990385726 0)
(-0.000996672215275 -0.00047728818004 0)
(-0.00105250316388 -0.000501952818853 0)
(-0.00110095735996 -0.000488302666509 0)
(-0.00112077716427 -0.000457388193586 0)
(-0.00116722250688 -0.000431178351348 0)
(-0.00117149143731 -0.00038090587638 0)
(-0.00115252725396 -0.000286202873059 0)
(-0.00127754809982 -0.000262342862562 0)
(-0.00112778099061 -0.000217808363817 0)
(-0.00137922414304 -0.000183495162527 0)
(-0.00120022157258 -0.000136000635732 0)
(-0.00143547240466 -0.000143312088934 0)
(-0.00124569846646 -0.000102942229756 0)
(-0.00146829119664 -0.000116533020725 0)
(-0.00151681842089 -0.000223843957318 2.1829489022e-28)
(-0.0015900676559 -0.000321183971222 -2.38258918029e-28)
(-0.00161151834197 -0.000324124352509 0)
(-0.00163545407147 -0.000301632341093 0)
(-0.00166040769662 -0.000278888035834 0)
(-0.001682223642 -0.000258523081686 0)
(-0.00170546620662 -0.000236630972177 0)
(-0.00172940890824 -0.000209257258767 0)
(-0.00175184466293 -0.000176118106449 0)
(-0.00177214370417 -0.000140052523972 0)
(-0.00178972348306 -0.000104051107347 0)
(-0.00180348815706 -6.96985198592e-05 0)
(-0.00181303636858 -3.71284272205e-05 0)
(-0.00181823143624 -5.18906533903e-06 0)
(-0.00181878751363 2.84170104723e-05 0)
(-0.00181385385619 6.63829806104e-05 0)
(-0.00180263004836 0.000110617695602 0)
(-0.00178518764824 0.000162107220855 0)
(-0.00176190790596 0.000221452276057 0)
(-0.00173289496474 0.00028905612724 0)
(-0.00169799151753 0.000365604172464 0)
(-0.00165562969833 0.000453653692298 0)
(-0.00160228189898 0.000558969036594 0)
(-0.00153399905154 0.000688375596671 0)
(-0.00144872297665 0.00084228247913 0)
(-0.00134905425058 0.0010087651727 0)
(-0.00125820948495 0.0011483234535 0)
(-0.00120601592494 0.00119151478225 0)
(-0.00117062153594 0.00117776904588 0)
(-0.00112924043523 0.00126236079874 0)
(-0.00105285502541 0.00142244633928 0)
(-0.000939153924004 0.00159533899097 0)
(-0.000820792490522 0.00171548747985 0)
(-0.000435382114498 0.00149860727143 0)
(6.57903447903e-05 0.00110894148823 0)