/*--------------------------------*- C++ -*----------------------------------*\
| =========                 |                                                 |
| \\      /  F ield         | OpenFOAM: The Open Source CFD Toolbox           |
|  \\    /   O peration     | Version:  v1806                                 |
|   \\  /    A nd           | Web:      www.OpenFOAM.com                      |
|    \\/     M anipulation  |                                                 |
\*---------------------------------------------------------------------------*/
FoamFile
{
    version     2.0;
    format      ascii;
    class       volScalarField;
    location    "837";
    object      pa;
}
// * * * * * * * * * * * * * * * * * * * * * * * * * * * * * * * * * * * * * //

dimensions      [0 2 -2 0 0 0 0];


internalField   nonuniform List<scalar> 
6400
(
-0.122887149649
-0.122887666141
-0.122889128671
-0.122892021768
-0.122896410123
-0.12290236226
-0.122909966564
-0.122919570279
-0.122931598701
-0.12294660948
-0.122966009354
-0.12299078786
-0.123020881874
-0.123056735942
-0.123099325959
-0.123149918489
-0.123209700843
-0.123279418684
-0.12335927806
-0.123448594446
-0.12354662992
-0.123654639844
-0.123775716551
-0.123913258843
-0.124069903852
-0.124246710963
-0.124443590861
-0.12466067968
-0.124898916051
-0.125159691764
-0.125444351497
-0.125753197429
-0.12608461629
-0.126436751383
-0.126809096247
-0.127201111212
-0.12761373694
-0.128050472801
-0.128510976863
-0.128990799925
-0.129490645939
-0.130017741081
-0.130575984238
-0.131160696886
-0.131764703227
-0.132382438021
-0.133009362325
-0.133641596382
-0.134275346839
-0.134907052138
-0.13553341575
-0.13614917272
-0.136745672821
-0.137312360196
-0.137845380315
-0.138345682697
-0.138807167095
-0.139218616501
-0.139574384656
-0.139877657119
-0.140131503949
-0.140335959596
-0.140491025748
-0.140616335673
-0.140748512929
-0.140925394576
-0.141148864404
-0.141373197265
-0.14156165675
-0.141711193004
-0.141831619203
-0.141934170769
-0.142026051738
-0.142105039244
-0.142173297206
-0.142230958343
-0.142277410778
-0.14230716693
-0.142325840825
-0.142333685009
-0.122886457366
-0.122887003695
-0.12288832249
-0.122891114352
-0.122895686151
-0.122901802432
-0.122909366925
-0.122918534625
-0.122930067316
-0.122944861782
-0.122963974538
-0.122988292016
-0.123018109932
-0.123053760128
-0.123095925643
-0.123145720043
-0.123204859641
-0.123274230969
-0.123353842821
-0.123442733007
-0.123539710458
-0.12364665133
-0.123767079582
-0.123904071081
-0.124060216597
-0.124236587354
-0.124432884765
-0.124649462776
-0.124887302066
-0.125147607567
-0.125431567836
-0.125739886693
-0.126071031427
-0.126422559901
-0.126794421206
-0.127186145956
-0.127598397755
-0.12803515515
-0.128496146193
-0.128976444069
-0.129476046764
-0.130003372659
-0.130563279734
-0.131149387624
-0.131754236136
-0.132372991547
-0.133001093365
-0.133634779186
-0.134269993469
-0.134902327229
-0.135528370733
-0.136145081754
-0.13674513201
-0.137314019265
-0.137848841631
-0.138351630913
-0.138812435463
-0.139222079653
-0.13957819411
-0.139881476906
-0.140133557922
-0.140338265498
-0.140496021095
-0.140625459773
-0.1407612846
-0.140939563987
-0.141166034018
-0.141390244816
-0.141577386763
-0.141726395609
-0.141846495821
-0.141949212171
-0.142041835932
-0.142121775917
-0.142188648228
-0.14224369407
-0.142286121296
-0.142314416566
-0.14233229027
-0.142338188852
-0.122884479027
-0.122885332287
-0.122886487168
-0.122888979904
-0.122893283001
-0.12289988615
-0.122907750107
-0.122916324492
-0.122927011471
-0.122941120002
-0.122959603311
-0.12298322641
-0.123012378068
-0.123047345637
-0.12308858642
-0.123136578022
-0.123193879958
-0.123262983807
-0.12334210812
-0.123429655677
-0.123524715658
-0.123629266315
-0.12374825113
-0.123884650472
-0.124039701481
-0.1242145664
-0.124409724203
-0.124625349013
-0.124862156398
-0.125121326641
-0.125404014154
-0.125711198135
-0.126041744848
-0.126391762785
-0.12676181796
-0.127153364134
-0.127565068666
-0.128000900953
-0.128462168131
-0.128944030728
-0.129446767842
-0.129976471183
-0.130536451709
-0.131122640396
-0.131728564444
-0.132348964635
-0.132979338856
-0.1336156012
-0.134253643278
-0.134889345612
-0.135518902252
-0.136137602239
-0.13673753098
-0.137309892036
-0.137851154119
-0.138356507796
-0.138816871853
-0.139226273381
-0.139582598975
-0.139886118102
-0.140138998207
-0.140343561182
-0.140504853685
-0.140643581443
-0.140792688223
-0.140980185443
-0.141200311193
-0.141418125834
-0.141606515956
-0.141758118403
-0.141880619989
-0.141984339365
-0.142073651107
-0.142148792719
-0.142212719429
-0.142264590959
-0.142302692471
-0.142328221043
-0.142343968591
-0.142349515079
-0.122881641867
-0.122882476226
-0.122883400676
-0.122885587572
-0.122889193201
-0.122895421827
-0.122904667831
-0.122912952669
-0.122922503395
-0.122935535977
-0.122953046285
-0.122975734617
-0.123003940095
-0.12303763899
-0.123077227615
-0.123124223581
-0.1231804459
-0.123247181997
-0.123322922509
-0.123406375734
-0.123498959969
-0.123602869532
-0.123720743284
-0.123855374718
-0.124008651299
-0.124181720375
-0.124375148646
-0.124589161276
-0.124824363648
-0.125081792773
-0.12536281872
-0.125668322392
-0.125997233316
-0.126346414582
-0.126713716491
-0.127102589653
-0.127514877745
-0.127950369122
-0.128410513734
-0.128894189348
-0.129401037952
-0.129934211105
-0.130495814562
-0.131083157523
-0.131690931311
-0.132313945934
-0.132947565123
-0.133587519248
-0.134229628867
-0.134869718378
-0.135503502693
-0.136125711569
-0.136729274672
-0.137306935422
-0.13785314313
-0.138361126475
-0.138822822818
-0.139233005749
-0.139589844155
-0.139893824388
-0.140147380265
-0.140355058101
-0.140527634281
-0.140684209445
-0.140845258237
-0.141031012407
-0.141249275866
-0.141467516242
-0.141657991087
-0.141811843918
-0.141933354935
-0.142031311411
-0.142113799226
-0.14218764634
-0.142251187269
-0.142298353856
-0.142329992488
-0.142353267562
-0.142369141224
-0.142375594994
-0.122877230316
-0.12287734876
-0.122878380942
-0.122880434854
-0.122884101051
-0.122889217872
-0.122897146176
-0.12290586811
-0.122915424867
-0.122927762592
-0.122944108608
-0.122965644692
-0.122992567792
-0.12302525854
-0.123064007646
-0.123108892347
-0.123161686524
-0.123223674605
-0.123294981733
-0.123375579666
-0.123466142332
-0.123568112173
-0.123683989919
-0.123816423207
-0.123967267438
-0.124137849312
-0.124328793718
-0.124540513068
-0.124773547132
-0.125028754092
-0.12530734067
-0.125610922727
-0.125938588639
-0.126284270636
-0.126648791769
-0.127035308612
-0.127445522446
-0.127881156357
-0.128342415415
-0.128828460321
-0.129339146025
-0.129876115888
-0.130440439591
-0.131030098987
-0.131640709542
-0.13226733496
-0.132905254545
-0.133550043593
-0.134197425973
-0.134843102012
-0.135482463244
-0.136110029596
-0.136719203163
-0.137303065812
-0.137854757848
-0.138366457616
-0.138830602485
-0.139242536506
-0.139600800452
-0.139906529138
-0.140163632363
-0.140379908971
-0.14056911931
-0.140744385403
-0.140915419846
-0.141103929383
-0.14132016981
-0.141537804917
-0.141730005014
-0.141884130197
-0.142000725329
-0.142091928024
-0.14217416024
-0.142250347987
-0.14230961336
-0.142349793547
-0.142377560682
-0.142401828046
-0.14241586181
-0.142420134658
-0.12286943733
-0.122869292026
-0.122870845473
-0.122872711521
-0.122876230688
-0.122880849744
-0.122887929514
-0.122896133596
-0.122905647154
-0.12291739282
-0.12293226934
-0.122952263362
-0.12297826951
-0.123009879828
-0.123046096934
-0.123087773521
-0.123136612192
-0.123194316897
-0.123261546533
-0.123338540366
-0.123425758787
-0.123524817893
-0.123638006912
-0.123767661657
-0.123915503119
-0.124082694644
-0.124270408564
-0.12447912634
-0.124709378056
-0.124961878168
-0.125237665695
-0.125538082274
-0.125861969571
-0.12620610438
-0.126566732611
-0.126949423743
-0.127358367735
-0.127794484624
-0.128257303905
-0.128746066822
-0.129260623873
-0.129801764294
-0.130369814275
-0.130963009842
-0.131577592152
-0.132208917809
-0.132852252182
-0.133503052966
-0.134156940593
-0.134809491757
-0.135455905951
-0.136090614272
-0.136707137016
-0.137298320459
-0.137856378336
-0.138373018807
-0.138841106374
-0.139256530716
-0.139618442686
-0.139929107887
-0.14019431816
-0.140424160484
-0.140632802485
-0.140823290729
-0.141004835878
-0.141202355887
-0.141422751885
-0.141638843832
-0.141828412485
-0.141977254875
-0.142087103984
-0.142178321448
-0.142266008155
-0.142339236904
-0.142390583402
-0.142423972546
-0.142450405485
-0.142471162405
-0.142480733533
-0.142484268805
-0.122857903841
-0.122858488329
-0.122860853983
-0.122863335959
-0.122865515034
-0.122869711748
-0.122876513522
-0.122884124475
-0.122893124807
-0.122904048869
-0.122918202986
-0.122936100892
-0.12296023089
-0.122989073589
-0.123022075837
-0.123060188791
-0.123105360542
-0.12315922403
-0.123222321986
-0.123294694817
-0.12337771463
-0.123473220282
-0.123582898736
-0.123708854748
-0.123852893903
-0.1240164643
-0.124199523195
-0.124404332618
-0.124631342342
-0.124881103406
-0.12515308206
-0.125448934363
-0.125768773728
-0.126107604432
-0.126465262682
-0.126845612299
-0.127253572221
-0.127690165281
-0.128154673508
-0.128646315497
-0.129164876993
-0.129710620947
-0.130283336036
-0.130881286438
-0.131501079649
-0.132138314943
-0.132788282913
-0.133446362988
-0.134108085185
-0.134768924932
-0.135423959144
-0.136067523473
-0.136693011725
-0.137292857286
-0.137858685262
-0.138382113234
-0.138856508731
-0.139278432395
-0.139647863231
-0.139968144598
-0.140246473353
-0.140493768001
-0.140719485083
-0.140926269186
-0.141126002835
-0.141335746892
-0.141560099294
-0.141771188784
-0.141951925217
-0.14209356028
-0.142203805724
-0.142303158992
-0.142392001853
-0.142456451609
-0.142498222682
-0.142525174052
-0.142547706201
-0.142559752145
-0.142561572695
-0.142562758841
-0.122844671449
-0.122845914968
-0.122848344529
-0.122851478945
-0.122853056187
-0.122857153638
-0.122862871426
-0.122869758826
-0.122878127929
-0.12288704768
-0.122900379251
-0.122916846121
-0.122937972929
-0.122963302453
-0.122992823866
-0.123027025075
-0.12306851441
-0.123118367139
-0.12317657589
-0.123243869513
-0.123322068236
-0.123413098417
-0.123518415008
-0.123640227338
-0.123779892512
-0.123938373944
-0.124117115392
-0.124315371677
-0.124538838696
-0.124785647461
-0.125053373901
-0.125342011267
-0.125656131204
-0.125990258736
-0.126344147019
-0.12672323307
-0.127130699421
-0.127567647614
-0.128033766707
-0.128528383457
-0.1290511664
-0.129602011945
-0.130180314266
-0.130784244029
-0.131410574354
-0.132055062398
-0.132713030509
-0.133379804558
-0.134050833662
-0.134721503685
-0.135386793603
-0.136040920924
-0.136677065884
-0.137287311207
-0.137863045491
-0.138396124994
-0.138880501385
-0.139313298648
-0.13969490752
-0.140029039777
-0.140323099861
-0.140587599171
-0.140831786799
-0.14106255973
-0.141282714056
-0.141506103493
-0.141729623275
-0.141934398525
-0.142107415523
-0.142247535202
-0.142365577692
-0.142471813937
-0.142553797188
-0.142606086503
-0.142636146595
-0.142654466116
-0.142663851162
-0.14266245805
-0.142652655761
-0.142647263994
-0.122830588141
-0.122832067413
-0.122834079008
-0.122835768407
-0.122837613442
-0.122842160217
-0.122846791869
-0.122852598599
-0.122860425235
-0.122868128901
-0.122877993745
-0.122892749829
-0.122911250534
-0.122932723521
-0.122958649545
-0.122989539185
-0.123026343779
-0.123071115131
-0.123124064461
-0.123186114285
-0.123258966926
-0.12334447521
-0.123444033683
-0.123560350097
-0.123696029208
-0.123847975747
-0.124021103831
-0.124215175025
-0.12443152797
-0.124672524314
-0.124935617493
-0.125220457112
-0.125524787262
-0.125852413464
-0.12620387024
-0.126581835839
-0.126988786834
-0.127426003855
-0.127893649047
-0.128391307627
-0.1289185858
-0.129475095543
-0.130059920564
-0.130671083077
-0.13130537765
-0.131958624217
-0.132626156756
-0.133303246738
-0.133985247681
-0.134667442009
-0.135344719763
-0.136011202127
-0.136659938507
-0.137282926692
-0.137871736286
-0.138418692741
-0.138918016091
-0.139366541375
-0.139764242656
-0.140115007599
-0.140426025092
-0.140708706992
-0.140974596477
-0.141229824144
-0.141474438953
-0.141713934145
-0.141943172006
-0.142138412741
-0.142306249749
-0.142450928459
-0.142579974338
-0.14268679692
-0.142756756553
-0.142793068013
-0.142807409272
-0.142808899737
-0.14279590805
-0.142773637592
-0.142748604084
-0.142733455325
-0.122815641247
-0.122817125199
-0.1228190302
-0.12281964106
-0.122821197477
-0.122824730272
-0.122828198048
-0.122832441148
-0.122838120365
-0.122845945166
-0.122852957069
-0.122864476659
-0.12287987964
-0.122897834827
-0.122919462273
-0.122946590274
-0.122978949254
-0.123017938728
-0.123064761582
-0.123120974013
-0.123188186029
-0.123267804132
-0.123360843035
-0.123469301827
-0.123599290176
-0.123746697919
-0.12390970011
-0.124098138455
-0.124307582234
-0.124542960164
-0.124799900557
-0.125077624537
-0.125375624602
-0.125696276767
-0.126044053538
-0.12642045053
-0.126826729834
-0.127264124349
-0.127733215935
-0.128233957006
-0.128766021533
-0.129328817584
-0.129921150592
-0.130540859289
-0.131184674094
-0.131848396639
-0.132527322077
-0.133216630387
-0.133911528347
-0.134607150794
-0.135298300958
-0.135979105796
-0.136642749943
-0.137281629143
-0.137888000227
-0.138454647225
-0.138974679826
-0.139442672479
-0.139858688354
-0.140229904553
-0.140561518278
-0.140864096294
-0.141152195501
-0.141430403629
-0.141699326946
-0.141955973274
-0.142188819057
-0.142393038231
-0.142559141181
-0.142712584879
-0.142852577353
-0.14295556862
-0.143009742854
-0.143023579785
-0.143015031953
-0.142989812958
-0.142945809211
-0.142893186341
-0.142846902147
-0.142819211185
-0.122799416893
-0.122800544137
-0.122802029812
-0.12280226172
-0.12280401023
-0.122805487048
-0.122807365369
-0.122809860083
-0.12281198928
-0.122818113798
-0.122823265822
-0.122831593653
-0.122843535385
-0.122858380806
-0.122875937755
-0.12289783806
-0.122925068534
-0.122958259851
-0.122998588782
-0.123047961992
-0.12310859038
-0.123182154328
-0.123269653501
-0.123369396099
-0.123488548655
-0.123631152402
-0.123787227423
-0.123966017194
-0.124167707215
-0.124391371315
-0.124642691123
-0.124914072683
-0.125205445448
-0.125520433511
-0.125864151066
-0.126238164801
-0.126643319959
-0.127080720861
-0.127551183859
-0.128055025785
-0.128592147458
-0.129161881098
-0.129762772987
-0.130392441185
-0.131047500926
-0.131723685165
-0.132416189689
-0.133120010957
-0.133830099312
-0.134541351522
-0.135248483649
-0.135945810211
-0.136627109966
-0.13728593392
-0.137915917026
-0.138509906012
-0.139056272968
-0.139544388208
-0.13998042312
-0.140384124653
-0.140745829529
-0.141065980926
-0.141372385055
-0.141669334117
-0.141956787954
-0.142227397503
-0.142471714219
-0.142690957894
-0.142865481028
-0.14304064845
-0.143197697692
-0.14329738491
-0.143328950888
-0.143304336807
-0.143260996751
-0.143204139093
-0.143119110641
-0.143021151422
-0.142941123302
-0.142893830162
-0.122781698291
-0.122782137785
-0.122782230495
-0.122782614913
-0.122784181455
-0.12278397593
-0.12278424815
-0.122785067833
-0.122784286221
-0.122786483608
-0.122789127235
-0.122794092545
-0.122802088072
-0.122813529153
-0.122827956496
-0.122844150457
-0.122865123978
-0.122891928862
-0.122925421804
-0.122967185804
-0.123019550546
-0.123085177566
-0.123167549039
-0.123261718078
-0.123368103976
-0.123499928856
-0.123649753831
-0.123816300976
-0.124011062705
-0.124226527962
-0.124465414014
-0.124727520545
-0.125012347648
-0.12532306772
-0.125662752958
-0.126033676914
-0.126437131524
-0.12687427013
-0.127346043671
-0.127853015157
-0.128395412224
-0.128972713941
-0.129583280519
-0.130224450738
-0.130892693609
-0.13158366816
-0.132292411478
-0.133013589951
-0.133741698421
-0.134471226909
-0.135196763578
-0.135913030636
-0.136615042646
-0.137298591943
-0.137959769671
-0.138591413825
-0.139169705872
-0.139673766048
-0.14013080919
-0.140601120508
-0.141011670718
-0.1413313658
-0.14164522943
-0.141954651497
-0.142260109994
-0.142546920417
-0.142803096133
-0.14302061071
-0.143222856505
-0.143422228899
-0.143629726162
-0.143734122447
-0.143732867248
-0.143638351074
-0.143547608376
-0.143466761785
-0.143325802753
-0.143149687024
-0.14301354744
-0.142930870376
-0.122762779702
-0.122762534707
-0.122761019561
-0.122760942125
-0.122760854264
-0.122759630657
-0.122758444284
-0.122757079783
-0.122754244697
-0.122752697749
-0.122751419711
-0.122752314957
-0.122755802011
-0.122762497899
-0.122772863444
-0.12278380873
-0.122798689951
-0.122818735896
-0.122844940651
-0.122878686714
-0.122921809308
-0.122977140001
-0.123050505837
-0.123140383275
-0.123237582221
-0.123354373194
-0.123495924087
-0.123651580881
-0.12383153842
-0.124038140125
-0.124267680805
-0.124520850379
-0.124797598782
-0.12510264944
-0.12543789044
-0.125805278708
-0.126206482973
-0.126642926086
-0.127115890784
-0.127626134648
-0.128174069142
-0.128759488691
-0.129380823151
-0.130035168384
-0.130718798006
-0.131427319278
-0.132155584708
-0.132897732793
-0.133647481554
-0.134398613234
-0.135145416451
-0.135883226623
-0.136608850247
-0.13732149609
-0.138021667987
-0.138708181584
-0.13933150316
-0.139836437731
-0.14030062619
-0.140947205212
-0.141517001048
-0.141734214773
-0.142045107599
-0.142372753774
-0.142711023126
-0.143017916021
-0.143283384205
-0.143403689501
-0.143565619373
-0.143980893964
-0.144387516547
-0.144512850869
-0.144419773288
-0.144078590126
-0.143836728106
-0.143781632817
-0.143570142926
-0.143255126146
-0.143037295619
-0.142888310713
-0.12274323836
-0.122742649366
-0.122740936318
-0.122738724517
-0.122736153784
-0.122733451462
-0.122730476776
-0.122726224971
-0.1227216558
-0.122716212338
-0.122710443491
-0.122706711975
-0.122705206399
-0.122706363714
-0.122710133564
-0.12271566664
-0.122724883919
-0.122738138044
-0.122756614402
-0.122781853056
-0.122815447525
-0.122859588948
-0.122920445668
-0.123002251713
-0.123093792713
-0.123195243295
-0.123323984906
-0.12347134737
-0.123635155027
-0.123827256835
-0.124045456311
-0.124289001104
-0.124559033261
-0.12485788802
-0.125187794138
-0.125550951395
-0.12594941201
-0.126384751188
-0.126858526536
-0.127372046094
-0.127925924301
-0.128520101407
-0.12915324638
-0.129822460784
-0.13052392344
-0.131253260653
-0.132005148055
-0.13277294416
-0.133549110058
-0.134326219156
-0.135097897018
-0.135860087641
-0.136611083214
-0.13735321392
-0.138093431928
-0.138878078166
-0.139602085945
-0.140052475257
-0.14036036423
-0.14142828403
-0.141377596929
-0.141308629118
-0.141363239511
-0.141438516747
-0.1415474001
-0.141672150482
-0.141834306886
-0.142066743533
-0.14230040403
-0.142513091709
-0.142817059004
-0.143036759987
-0.143104779743
-0.143264629037
-0.143951152365
-0.14447469967
-0.144126962835
-0.143316217404
-0.142970788596
-0.142683257234
-0.122723216667
-0.122722395255
-0.122720535519
-0.122715849263
-0.122711015477
-0.122706359037
-0.122701202004
-0.12269418019
-0.122687495145
-0.122677268956
-0.122666566427
-0.122657812823
-0.122650974063
-0.122646433994
-0.122643031355
-0.122641703757
-0.12264420228
-0.122650067962
-0.122660212569
-0.122676214413
-0.122699794946
-0.122732708754
-0.122779336826
-0.122848526468
-0.122933331832
-0.123021903254
-0.123132750835
-0.123270798132
-0.123424619604
-0.123598592583
-0.123802015289
-0.124033949921
-0.124295083897
-0.124586631577
-0.124910344975
-0.125268518108
-0.125663480956
-0.126097290047
-0.126571636754
-0.127088195517
-0.127648214494
-0.128251872668
-0.128897962009
-0.129583735984
-0.130305600013
-0.131059533617
-0.131840152412
-0.13263973668
-0.133448784727
-0.134257899494
-0.135059409727
-0.135849972155
-0.136626522987
-0.137386650481
-0.138137287601
-0.139129008288
-0.14015777764
-0.140092081936
-0.140071701207
-0.140338511465
-0.14068739093
-0.14069727454
-0.140567555322
-0.140353849856
-0.140107790346
-0.13983990936
-0.139601572204
-0.139467251963
-0.139457632921
-0.139569184622
-0.139839989199
-0.140177456184
-0.140538311773
-0.141035083918
-0.141646726345
-0.142207659275
-0.14241007212
-0.142825938585
-0.142923484458
-0.142243183933
-0.122702818172
-0.122701484451
-0.122698287552
-0.122692204432
-0.12268544329
-0.122678702166
-0.122670862375
-0.122660720937
-0.122650639986
-0.122635527852
-0.122619989564
-0.122606011772
-0.12259363903
-0.122583176861
-0.122572333699
-0.122563054343
-0.122557580269
-0.122555026143
-0.12255593877
-0.122561816507
-0.122574390831
-0.122595523212
-0.122628171752
-0.122681306398
-0.122754363973
-0.122834654292
-0.122924951116
-0.123043540513
-0.123187274181
-0.123349183461
-0.123536847662
-0.1237548954
-0.124004802781
-0.124287261645
-0.12460353547
-0.124955628204
-0.125346225488
-0.125777723029
-0.126252261597
-0.126771703429
-0.127337844119
-0.127951511503
-0.128611742957
-0.129315813557
-0.130060579951
-0.130843162599
-0.131658814425
-0.132498375204
-0.133349091894
-0.134198659765
-0.135037279985
-0.135864305979
-0.136667396896
-0.137402989043
-0.137905890671
-0.139386565774
-0.139547507072
-0.139659935143
-0.139702200565
-0.139751100895
-0.139911477147
-0.139806026181
-0.139473685658
-0.138960368229
-0.138338963992
-0.13765250939
-0.136966521928
-0.136353501879
-0.135881786453
-0.13561408121
-0.135579774301
-0.135703188528
-0.135952869358
-0.136443248415
-0.137353531942
-0.138640230602
-0.139860610087
-0.140602347017
-0.140773787349
-0.140673684211
-0.122682817474
-0.12268094305
-0.122676472373
-0.122668698824
-0.122660231885
-0.122651085588
-0.122640070934
-0.122626097549
-0.12261121262
-0.122591690079
-0.122571076648
-0.122551588369
-0.122533443249
-0.122516865275
-0.122497709344
-0.122479842566
-0.122465462912
-0.122453488637
-0.12244409485
-0.122438810501
-0.122439221056
-0.122447328257
-0.122465625511
-0.122501103873
-0.122557603377
-0.12262863168
-0.122702285932
-0.122798398217
-0.122922140455
-0.1230707719
-0.123244327578
-0.123448609455
-0.123685714783
-0.123957308752
-0.124264792821
-0.12460977544
-0.124994862032
-0.125423143191
-0.125897137982
-0.126419108622
-0.126991282161
-0.127615165208
-0.12829046582
-0.129014559341
-0.12978466341
-0.130600122198
-0.131458185145
-0.132347984564
-0.133252181772
-0.134154809823
-0.13504052015
-0.135926980304
-0.136805157564
-0.137547747728
-0.137997807271
-0.1383165346
-0.138706615827
-0.139081547031
-0.139190971131
-0.139097463103
-0.138860238004
-0.138363687054
-0.137666034174
-0.136793674596
-0.135809669824
-0.134766426105
-0.133727090312
-0.132749660353
-0.13189670289
-0.131242257259
-0.130841701587
-0.130656859672
-0.130657363621
-0.130940766905
-0.131760540742
-0.133278699068
-0.135140574452
-0.13662101685
-0.138037576209
-0.140741985809
-0.122664063699
-0.122661574199
-0.122655402408
-0.122646105931
-0.12263609067
-0.122624309513
-0.122609833259
-0.12259207096
-0.122572224857
-0.122547012115
-0.122520546562
-0.122494893439
-0.122470316337
-0.1224467291
-0.122418524315
-0.122391672319
-0.122367642668
-0.12234546759
-0.122324730585
-0.122307213719
-0.122294252137
-0.122287948028
-0.122290717418
-0.122307445035
-0.122343574922
-0.122399277022
-0.122462857692
-0.122538844008
-0.122639687937
-0.12276781883
-0.122923766246
-0.123112214847
-0.12333454693
-0.123593494768
-0.123890763243
-0.124227321419
-0.124605997901
-0.125030070057
-0.125502732863
-0.126026559689
-0.126604271906
-0.12723839876
-0.127929504212
-0.12867527827
-0.129472286503
-0.130322450428
-0.131229700398
-0.132184330008
-0.133159663682
-0.134133356906
-0.135066582353
-0.136043946242
-0.137086276905
-0.137268348989
-0.137431313577
-0.137683335547
-0.138167354856
-0.138434147114
-0.13830476606
-0.137882585564
-0.137187399921
-0.136216396816
-0.13505431927
-0.133739912472
-0.13232846425
-0.130870521163
-0.129424947349
-0.128046459927
-0.126792597595
-0.125731821392
-0.124932160749
-0.124408565057
-0.124130297314
-0.124195444476
-0.124884374013
-0.12645620464
-0.128591119484
-0.130365167781
-0.133300323169
-0.144309720982
-0.122647420334
-0.12264424716
-0.122636388298
-0.122625730365
-0.122613850727
-0.122599147694
-0.12258091358
-0.122559356817
-0.122534062171
-0.12250235838
-0.122469154117
-0.122436460329
-0.122404445169
-0.122371771457
-0.122334497379
-0.122298230605
-0.122263781065
-0.122230279221
-0.122197404873
-0.122166755382
-0.122139281136
-0.12211706237
-0.122102936911
-0.122099671786
-0.122112774251
-0.122147007747
-0.122196768208
-0.122255099542
-0.122333712191
-0.122439995105
-0.122574696913
-0.122743511508
-0.122949020512
-0.123192772814
-0.123477737286
-0.123804391462
-0.124175257533
-0.124594096683
-0.12506455948
-0.125589750157
-0.126172496203
-0.12681613286
-0.127522512901
-0.128290410886
-0.129117151431
-0.130006956265
-0.130968517076
-0.131995023083
-0.133062998207
-0.13414998102
-0.135078538731
-0.136118152058
-0.136444465885
-0.136748251008
-0.137079816689
-0.13740324604
-0.137650983751
-0.13748831183
-0.136897029703
-0.135979922191
-0.134762061612
-0.133280652925
-0.131612375173
-0.129803213361
-0.127903313616
-0.125957384079
-0.124013889947
-0.122116529546
-0.120305524866
-0.118625214493
-0.117138348787
-0.115906425063
-0.114900293764
-0.114197106468
-0.114052798858
-0.114832315949
-0.116396654814
-0.117318680834
-0.117229541134
-0.121967203653
-0.122633731828
-0.122629893406
-0.12262068147
-0.122608515648
-0.122594221353
-0.122576244304
-0.122553860822
-0.122528126676
-0.122496971574
-0.122458329553
-0.122417719454
-0.122377201333
-0.122336812982
-0.122293978818
-0.122246989082
-0.122200265318
-0.122154338657
-0.12210809715
-0.122061942878
-0.122017103054
-0.121973999179
-0.121934389637
-0.12190180867
-0.121877254781
-0.121865677512
-0.121873577317
-0.12190022086
-0.121940542428
-0.121998291496
-0.122081812158
-0.122194170931
-0.122339163073
-0.122523724356
-0.122749745875
-0.123020819439
-0.123336522944
-0.123698227219
-0.124110371689
-0.124577303636
-0.125102862507
-0.125690195987
-0.126342784129
-0.127064188303
-0.1278548331
-0.128713122204
-0.129642574078
-0.1306565963
-0.13176494109
-0.132957705602
-0.134262390326
-0.135004222233
-0.135405701848
-0.135805893909
-0.136437921831
-0.136812558376
-0.13692501072
-0.136712983233
-0.135989617513
-0.134826057461
-0.133316748921
-0.131507093971
-0.12944977413
-0.127202791377
-0.124803665011
-0.122288290408
-0.119687105445
-0.117031873299
-0.114351779396
-0.111672759564
-0.109022798922
-0.106452705211
-0.10402714582
-0.10168906423
-0.0993379179632
-0.0971047686052
-0.0954452630168
-0.0942974931858
-0.0899090306931
-0.0743031737897
-0.0556574848356
-0.122623648195
-0.12261913311
-0.122608726873
-0.122594807015
-0.122577714548
-0.122556105339
-0.122529544515
-0.122499110492
-0.122461503185
-0.122415720437
-0.122367180474
-0.122318211176
-0.122268834572
-0.12221568893
-0.122157462718
-0.122099042308
-0.122040454759
-0.121980113238
-0.121918869918
-0.121858313458
-0.121798079637
-0.121739453057
-0.121686392239
-0.121639156853
-0.121601703292
-0.121580757963
-0.121580159527
-0.121598859685
-0.121637928857
-0.121694512597
-0.121779997419
-0.121899348834
-0.122059348977
-0.122261514721
-0.122513390216
-0.122816949263
-0.123168932907
-0.123573639991
-0.124035621408
-0.124559831012
-0.1251507265
-0.125812117709
-0.126548277713
-0.127359925107
-0.128244236837
-0.129206912028
-0.130269955838
-0.131474812935
-0.132874508175
-0.135170684089
-0.134565264261
-0.134822420699
-0.135499073865
-0.136193756748
-0.136266565773
-0.135942962961
-0.135131748182
-0.133772445325
-0.131965588939
-0.129799616215
-0.127331434923
-0.124614492482
-0.121691223044
-0.118589056375
-0.115332608273
-0.111944063965
-0.10844742159
-0.104865151724
-0.10121319784
-0.0974957897157
-0.0937085639139
-0.0898305457974
-0.0857562594523
-0.0811376376344
-0.0758584026317
-0.0702977270276
-0.06388329064
-0.0497822651798
-0.0120791744514
0.0431027442614
-0.122617863075
-0.122612654219
-0.122601076725
-0.122585094109
-0.122564860301
-0.122539362969
-0.122508689697
-0.122472685281
-0.122428314179
-0.122375547237
-0.122318504068
-0.122260356791
-0.12220124161
-0.122137145415
-0.122066723599
-0.121995437566
-0.121923054697
-0.12184695861
-0.121768855219
-0.12169075147
-0.121611240807
-0.121531642275
-0.121455608432
-0.121384082784
-0.121319396005
-0.121267626535
-0.121236191073
-0.121226538372
-0.12124252794
-0.121274606338
-0.121330116589
-0.121417445
-0.121549187539
-0.121728098617
-0.121955155982
-0.122239466602
-0.12257954019
-0.122975820368
-0.12343277453
-0.123954746309
-0.124547397183
-0.125216780115
-0.125966460343
-0.126794984752
-0.127696722909
-0.128678901081
-0.129762859414
-0.130970417016
-0.132027850051
-0.132968836272
-0.133624956841
-0.133890255943
-0.135258673683
-0.135604739271
-0.135235846583
-0.134319746004
-0.132815448785
-0.13075577881
-0.128249648913
-0.125382619258
-0.122216108901
-0.118802765258
-0.11518228192
-0.111385097557
-0.10743890637
-0.103367749831
-0.0991899511963
-0.0949106490227
-0.0905125314848
-0.0859424634859
-0.0810958610925
-0.0758075081723
-0.0698502256773
-0.0628071023204
-0.054388820726
-0.0447243302701
-0.0320744255562
-0.00688182513801
0.0478755368037
0.11768266035
-0.122617200496
-0.122611287251
-0.122598511135
-0.122580110003
-0.122556290771
-0.122526701478
-0.122491684234
-0.122449318743
-0.122398225163
-0.122338616261
-0.122272518264
-0.122204462662
-0.122134791753
-0.122058890366
-0.121975380634
-0.1218900921
-0.121802544747
-0.121708644708
-0.121612196445
-0.121514752884
-0.121413130244
-0.121310644468
-0.121209385672
-0.121111099927
-0.121017656164
-0.120933547247
-0.120867827358
-0.120824086886
-0.120807590982
-0.120813908322
-0.120841036007
-0.120894317476
-0.120988705602
-0.121136941748
-0.121340204659
-0.121601352257
-0.121924517279
-0.122309315842
-0.122759402251
-0.123279193935
-0.123873619379
-0.124548786488
-0.12530802174
-0.126147499381
-0.127063470852
-0.128073664288
-0.129217125
-0.13054046629
-0.130873778242
-0.130562400506
-0.13107898939
-0.133054577945
-0.134589850703
-0.134472987751
-0.133581069354
-0.13196968502
-0.129721658404
-0.126924769719
-0.123698274319
-0.120130960981
-0.116291633924
-0.112238400671
-0.108017315931
-0.103665112379
-0.0992087907813
-0.0946603540374
-0.0900098571027
-0.085217821109
-0.0802104800028
-0.0748703984681
-0.0690075662227
-0.062319752338
-0.0544245146415