/*--------------------------------*- C++ -*----------------------------------*\
| =========                 |                                                 |
| \\      /  F ield         | OpenFOAM: The Open Source CFD Toolbox           |
|  \\    /   O peration     | Version:  v1806                                 |
|   \\  /    A nd           | Web:      www.OpenFOAM.com                      |
|    \\/     M anipulation  |                                                 |
\*---------------------------------------------------------------------------*/
FoamFile
{
    version     2.0;
    format      ascii;
    class       volScalarField;
    location    "138";
    object      alpha;
}
// * * * * * * * * * * * * * * * * * * * * * * * * * * * * * * * * * * * * * //

dimensions      [0 0 -1 0 0 0 0];


internalField   nonuniform List<scalar> 
6400
(
0.825266798545
1.22710558766
1.87086686103
2.11469023472
2.36602889492
2.66669811042
3.2267281563
3.89217702226
3.96221993485
4.20857515771
5.30974496849
5.72769055295
6.01979031466
6.45782448826
7.18576538989
7.92665923396
8.43163067285
8.93083308335
9.40144623613
9.5928881646
9.4633441962
9.32647392037
9.44071951372
9.89290748068
10.4392804649
10.881492504
11.1227882544
11.3197285165
11.6247994719
12.0469917653
12.5360589497
12.7893947687
12.7564693161
12.6371349063
12.4312267314
11.9872115506
11.7270034871
11.9981681757
11.6978606314
11.0064808722
10.75168629
11.1347392755
11.5837484117
11.790736771
11.8438226123
11.7743786688
11.666357898
11.5933698211
11.5527283967
11.5373840413
11.3534364079
10.4644005151
9.7157963133
8.91551679293
8.67239337486
9.30434353997
9.35688910536
8.16791046595
6.68617294918
6.26982437545
5.51670932665
4.65403904945
3.78549571556
5.55175649779
9.63736055791
14.5832073528
17.5745604588
17.2757208717
15.2518067788
13.5346926309
12.5401151059
12.5875680667
12.9941978664
12.7906797727
14.7370480599
14.142153343
15.9817472951
9.87737903268
12.8693022459
4.81098185337
3.07179021489
2.3687260184
2.88779066537
4.07050810706
3.68255506208
3.20760923699
3.15535068999
3.38176687278
3.7606923958
4.27291502238
4.94545494977
5.61647223375
6.17810781017
6.71385840183
7.2388474116
7.86431861088
8.51836063422
9.21058492574
10.3172628228
10.2741601507
9.83791614878
9.57040456837
9.50708392015
9.86508876699
10.7393964639
11.0166168372
11.1798372938
11.4679474467
11.8198603912
12.2042808128
12.6177133527
13.1230705615
13.1029166079
13.0208795073
12.9366013826
12.1953275554
12.1337808129
12.3983224656
11.8987957407
10.7955543824
10.4448626101
13.0704776255
14.5240714353
14.5564808307
14.4711210505
14.0646103507
13.4802624854
13.0450187436
12.3707926211
11.8433267158
11.891602249
12.6754879422
12.646374643
9.13819649177
9.23415650415
9.0628841659
7.38032239331
6.32803174518
5.52297335032
4.72853447668
4.14521788079
4.96675882053
3.94235006575
5.7048778281
9.6750475664
15.4884831833
19.2083689831
18.0158684646
15.8272531074
13.8404581185
13.0073790315
13.2740339532
14.2293258212
13.5860943146
13.3696232636
12.8010438787
11.5749162159
9.72372358637
8.17162739133
4.25562707493
3.01273810521
2.53391636959
3.01176336487
3.04467704523
3.23296392921
3.50157365283
3.408785779
3.3399765013
3.69566767837
4.25997583963
4.91762091121
5.60780875518
6.22585534353
6.77905866087
7.1752674485
7.73756279143
11.1182359391
13.3062645058
13.4920284326
12.3658613023
9.73123764491
8.96165683281
9.75598379909
10.1793821649
10.4780869327
10.9365317232
11.3290161753
11.6258180103
11.9563596036
12.3829623487
12.7123298552
13.4325211617
13.5039813283
12.8479887725
13.7165293444
13.0232792374
11.9552626089
12.923751844
12.3065351664
11.0677638642
10.6568060328
11.1419096918
11.6898514668
11.9429117846
12.0165381035
11.9870079349
11.8851991182
11.7296198329
11.5190413594
11.2760709018
10.9995876147
10.6109807666
10.0656146157
9.84891619177
9.8255073235
8.50400025531
7.26323578227
6.36635135928
5.61548324147
4.96487845946
4.5137736386
4.04601738257
3.80649486783
6.37759524052
11.6031125741
16.3139137497
18.6261848725
18.7339835332
17.1099420827
15.3683001841
14.5718245824
14.3684777666
13.6308245227
12.9703316496
12.8789685914
12.482230145
11.4664109721
9.83137640754
7.3923034249
7.57228806742
2.75091293264
5.28105476346
3.06790731844
2.9785011789
3.5905369392
11.6616319836
9.96033034987
4.22921892831
3.72670957628
4.29713563955
4.9408024209
5.6315497181
6.22964065263
6.90556002359
9.02754739874
11.4301870529
13.0801424188
13.1195377789
11.1136291068
9.14378741335
9.0656190926
9.24524138971
9.50514711531
9.99596974374
10.5696365993
11.1145493438
11.5743944107
11.8073608896
12.2462038464
12.4631195975
13.2322611411
13.3291351091
14.1886101398
13.8055344042
12.6345586597
13.3393715907
12.4260828759
11.3751911171
11.1420072635
11.0299705144
11.0415362845
11.3374427854
11.7127946285
11.9552120709
12.0592144972
12.0564998712
11.9721006176
11.8253906072
11.6252324384
11.3824424353
11.0951694805
10.7470076522
10.3424542917
9.92660071256
9.3442886883
8.42481385988
7.38132315631
6.49038293382
5.7939344303
5.26505826292
4.89116803528
4.62501983644
4.79899676957
6.83083680236
10.7491920412
16.5621957253
20.1529064698
20.3459878093
18.6566269629
16.2714133343
14.5957272807
13.7107131936
13.7867510856
15.0995985825
14.9780312289
13.6109102473
13.4295653776
16.6949289802
13.0881326242
11.0976132372
5.19718817733
7.25085955799
3.44814708118
3.77285454285
6.0554186494
11.5384636389
7.57665599321
4.26684461887
4.19515506626
4.51494383676
5.09634778727
5.83057765246
7.35911507908
10.1400510002
11.0913082384
11.1897532432
10.6225787826
9.52431311367
8.84121560159
9.21370001448
9.22026923269
9.17049069767
9.54895668885
10.1022225518
10.7308862991
11.3551907962
11.7051658908
12.2918954576
12.3449682729
13.2001241237
13.146484157
14.8199563252
13.9788425981
12.9291132643
13.2531395837
11.9874679314
11.4828886112
11.2700848512
11.2116270014
11.2157415099
11.2817436429
11.4902738172
11.7693072066
11.9907760611
12.1099386031
12.1262819464
12.0568410349
11.9217210642
11.7358092483
11.5076946722
11.2350144071
10.9119756881
10.5357114408
10.0779871778
9.42122731332
8.51052004828
7.52914577767
6.69879921471
6.09505216027
5.69428120842
5.46420874025
5.44636530249
5.99499801879
7.23845361448
10.4853349716
15.9203636182
20.1447671049
21.5361213554
20.3272890351
17.528739231
15.0047473464
14.607903592
16.7699284112
17.575462186
16.4823328742
15.515197072
18.1137475941
21.0975977708
16.3883772903
15.4886203699
9.55582822699
8.65544265223
4.26194160915
5.14599860953
11.7881883556
11.1893572142
5.26784384681
4.66940488898
4.71381168874
4.83736333077
5.44811374415
8.57524517233
12.1694785711
12.4136193463
11.7505435942
10.1264304898
8.82713935838
8.45716287445
9.35805282012
9.25151710767
8.93697177077
9.19041876348
9.69730127097
10.3426589954
10.8402241036
11.4957523823
12.4879826952
12.3091271712
13.5394196371
13.0595337594
15.2848137508
14.2484815208
15.6142981262
13.7140257901
11.9035010863
11.3320782935
11.2737491235
11.3081515082
11.3530834792
11.3974481023
11.4849436576
11.6555168522
11.8758864973
12.0723559564
12.1918858517
12.2191084929
12.1610772123
12.0392777846
11.8740204849
11.6727089628
11.4294869961
11.1324922222
10.7587402054
10.255582419
9.55280060079
8.6715435926
7.77837770312
7.03479442482
6.48951817347
6.1783381395
6.09252631043
6.48544688633
7.98690060562
7.2735044121
11.6491217821
17.4681511178
21.251185768
22.6598570346
21.6917374658
18.2929664188
16.0933027732
17.8588439848
20.0083302412
19.4254197003
18.3692738346
18.3791829651
22.8697779096
24.4166880081
19.3681520297
19.1491957553
11.6021453483
8.1543513974
5.18672281265
4.94968339769
11.6328964524
7.49313509676
5.05631988354
5.12586042776
5.18925966886
5.89525159363
6.17753328598
12.1849778349
12.5971515824
12.4517616554
10.5149181021
8.51650150663
8.07742958109
9.58324115357
9.44122264795
8.7352469626
8.93344146379
9.29472940268
9.79927802458
10.4395601353
11.3483435212
12.33688853
12.4030769442
14.1104601732
13.3242113217
15.7902037883
14.5519608522
16.0140792333
14.4288747013
13.3476814085
11.3491815755
11.0848796879
11.2637649106
11.4227214794
11.5024257003
11.5668950422
11.6719518279
11.8276918574
12.0155094123
12.1903107125
12.3048224619
12.335964954
12.2876572346
12.1840211526
12.0476443231
11.8822793982
11.6744291943
11.4000535144
11.0204669882
10.485043412
9.76854743025
8.93445868395
8.12523528245
7.4490578836
6.9334629841
6.60501039657
6.65222253644
7.18198716231
7.53396225975
8.16181934897
12.5088574929
19.6894400725
22.3820686672
22.8141450176
21.7234872904
19.442826099
19.249411753
21.818061725
22.2098884397
21.3030087777
20.6428376868
22.5085865679
25.1645176187
26.5848992392
21.9255103305
20.7458875432
11.1448799377
7.36561306538
6.19794566224
11.5843293439
11.5642157081
5.78082436626
5.56874464131
5.63148986796
5.87993455222
6.39361050832
12.0222807054
12.8642557267
12.6988553635
11.9289241566
8.79058782604
7.71091146096
9.55833253858
9.8518259418
8.80586657211
8.53676136877
8.98790715682
9.55830951668
10.0388144997
10.779493845
11.3771771292
12.9126954143
12.5543880349
13.9715229462
15.7180182997
15.7577274693
13.9116571608
15.0215684324
14.8402769011
11.793268778
11.1919420402
11.1776301937
11.3559093159
11.5402969402
11.6506406149
11.7346478284
11.8529310664
12.009635648
12.182011263
12.3392817448
12.4453415198
12.4771474716
12.4401034343
12.3609725807
12.2615013798
12.138942726
11.9700637928
11.7178222583
11.3341885088
10.7823559057
10.0761012455
9.29718099232
8.54630598064
7.85972798519
7.22803058393
6.8124677558
6.98374513214
7.62527844742
8.42685238653
9.49901681396
10.6853381585
19.378680332
23.7808043262
23.9493979485
23.4027234316
22.5523208018
23.5332394045
24.9218398789
24.1819922636
23.4186530296
23.5157756585
25.701232329
26.2530789131
26.7812513609
23.8032845922
21.5720597715
10.1625424725
6.86226448717
6.84010439857
12.4636746708
10.1128130434
5.98252243737
6.1237839606
6.28743105815
8.07072806671
6.29373072042
12.7953397629
13.2572924798
12.6611994405
10.2446540436
7.93353626324
7.81972044714
9.70777757935
9.334652509
8.55385998078
8.56240804864
8.9595858718
9.71087577514
10.3669066289
11.731093314
13.0042638324
12.6575392157
15.269588644
13.4235188023
16.1252597664
14.1689123401
16.277699942
13.5691835939
12.4193432587
11.5313648389
11.2901842208
11.3339780222
11.4769668167
11.6553409941
11.7964455217
11.9109699278
12.0431067963
12.2026273681
12.3697424461
12.5157045684
12.6110999204
12.6427046114
12.6218584992
12.5748339689
12.5187966417
12.4444406512
12.3182832599
12.0905305444
11.7087160502
11.1543306845
10.4710547936
9.73725956364
8.98608927154
8.15040110339
7.20263163565
6.61196371697
7.11836992086
8.44334839248
9.79403924828
10.8963500167
11.8535796929
15.3560962699
23.6583436477
25.3232419412
25.5502586673
26.4503521252
27.693025312
27.3724855439
26.2940540901
25.9805089937
26.7964869991
27.7960942647
27.4805061094
26.7532701368
25.6090256504
24.1091625925
9.24073528445
6.93823470396
8.06457938993
12.4361836498
7.34727125697
7.00610569784
6.67404104347
6.9268469846
10.8805354164
9.31641253795
13.6203634342
13.4288461341
12.6047518397
9.10441122132
7.73593991484
9.82539866877
9.99379417107
8.92378849396
8.4707932562
8.75539987449
9.07421497095
9.76693264587
10.2673117262
11.9205931905
14.5436923878
12.4162315661
15.1245951572
16.2224039071
16.3526859359
16.5899955804
14.5083964648
14.3966757106
11.7550103128
11.3546354198
11.4235208383
11.4968386823
11.6100227833
11.7701473754
11.9339104553
12.0886399489
12.2470605694
12.4138089438
12.5779193163
12.7164010767
12.8040585313
12.835368439
12.8335905212
12.8266857088
12.8219271424
12.8006518415
12.7209351935
12.5215763715
12.1476450259
11.6001475488
10.9425729124
10.2227960672
9.35330189461
8.10565963899
6.56350671784
6.02421482547
7.54954179941
9.7227253258
11.4200526445
12.6867939446
13.6961178504
13.8478569122
15.1522857474
27.0031289885
29.880467676
31.250449753
31.3167868487
29.9184563331
28.9134837581
29.0181018103
29.9178122751
29.9842360345
29.5007929712
29.0019489223
29.1790305232
29.2585165086
8.76412696225
7.50054247849
11.8659594543
12.3042659584
6.91213864829
7.67500118749
7.18094126473
8.02055790354
9.96718757578
13.1667108936
14.2749694972
13.5370669181
12.6500321776
8.71002973241
7.78193823834
10.4610471814
9.94929212098
8.75968893948
8.46716092769
8.90713416944
9.58394939372
10.0719351049
10.4569647928
11.4350339206
14.6466590679
15.8257375267
14.1736424872
16.4061619935
14.0213992481
16.6476161901
16.5693069127
14.1762190135
11.5565592353
11.4498851624
11.5936238654
11.6721136859
11.7652131584
11.9040895078
12.068361351
12.2613227587
12.4617306948
12.6442002258
12.8079813461
12.9413054813
13.0235161638
13.0585194209
13.0803128324
13.1176832535
13.1689646626
13.205663331
13.1768135326
13.0100309964
12.6506518419
12.1182926103
11.4780932015
10.6967786589
9.41961169136
7.24103912421
5.33641789102
5.88301590453
8.8896770154
11.7197866853
13.5691962407
14.8174543977
15.5592225368
15.6400551806
15.2560534165
17.2031470278
31.4511508176
36.8752141053
35.7207726759
33.3547058067
32.4011275168
32.6112365359
33.0290029952
32.9717086193
32.9200557414
33.1315407803
33.5064842428
34.077182177
8.69512818609
8.17994160439
13.3962187865
12.6618714518
10.3101259304
8.77447977531
7.86222825941
9.59592972072
8.98542104387
14.0852888472
14.7288461103
13.6913480123
12.4365252139
8.97193734261
8.56441732188
10.9972481909
9.81064017107
8.71708341713
8.56516870856
8.93764303792
9.80160202442
10.4884470275
12.5882723093
11.572328395
13.978638421
16.2003210975
13.6996315115
16.7331197234
17.1588525023
14.9806458037
14.9150845602
12.3006352245
11.9181972825
11.7713142869
11.8069753619
11.8805715201
11.9587665892
12.0761366745
12.2096710305
12.4092363396
12.6689973462
12.9015568193
13.0691784298
13.1919849778
13.2711250845
13.3159206801
13.3658578198
13.4490293159
13.5571235879
13.6534930306
13.6758274671
13.5460569359
13.2177452564
12.7088767736
12.0427869787
10.9446291422
8.56120538377
5.51777317557
4.44182739019
6.87574628334
11.2934415156
14.4492825382
16.2943293273
17.5376801846
18.1881234442
18.0909883674
17.6030521827
16.6699069904
27.427113752
37.8365466444
40.7320477325
37.978487514
37.0355530365
37.1074064963
37.2207458735
36.9791287124
37.3866327644
37.7727363628
37.3866257831
37.4389929965
9.01542863924
8.69740445264
12.9509450525
12.8998730325
12.8136971641
9.60893875541
8.68160813239
12.7807962822
8.96692377565
14.9218333084
15.0711297349
13.8643889829
12.2510480343
9.31293154636
12.0071696384
12.1155903736
9.79515331655
8.81611244448
8.79489222209
9.10029401327
9.76795049555
10.4139738245
14.2203866566
15.2883195502
13.1103012234
16.3093386177
17.0620414811
16.0892328251
17.138718106
17.0464707491
15.5818091092
12.2057599621
12.1173700089
12.0940879209
12.0659093676
12.0984827742
12.1425885042
12.2803579169
12.4316006387
12.584431184
12.847435276
13.1461922185
13.3595931888
13.480499234
13.5526463409
13.6110281304
13.6941380802
13.8226759561
13.9823491933
14.1299061589
14.1968175772
14.1136900207
13.846136856
13.3519610369
12.5173570956
10.5632515817
6.65911350184
3.51014502994
4.13986747601
9.14911098101
14.612753917
17.9469548409
19.7021284306
21.0582210157
21.3744460181
20.4397453941
19.3982731242
18.5588975583
23.603029102
34.9812386211
42.0842687508
43.2906395024
41.4449706529
41.6563428631
41.6026550493
41.7083253207
42.2718605671
42.4237255308
42.0278754643
42.0005824501
9.38920179798
9.20982516426
8.96606015712
13.0846472902
13.1440252532
10.0528882107
9.45027131562
13.5592434393
9.30118660839
15.7432320611
15.3548234697
14.0434781619
12.1982517458
9.42637415587
13.2270276198
12.376728454
9.94139040978
9.06821461367
9.0867541513
9.44694465113
9.85764544903
10.3418031352
14.8784263015
16.232752041
13.2882968327
16.4502884779
17.5728651403
14.8774997366
16.7550215471
16.2373000134
12.8662059072
12.5725513856
12.5311042302
12.4349895598
12.3335108689
12.3850258651
12.4100591698
12.4425409101
12.6280021818
12.8353648294
13.0721721159
13.3815314172
13.647416377
13.7991547275
13.877493013
13.9518137513
14.06776044
14.2328403359
14.4362219221
14.6247447267
14.7059279871
14.6878507371
14.5299956576
14.0489204013
12.7612133698
8.95827632193
3.55395640079
0.545989318267
5.89713093474
13.145254563
19.0806964493
22.4157304152
22.5065311058
21.1440012044
18.1284813049
15.7571040389
14.2921153625
13.1062900981
10.8443522919
13.9257688653
41.7114465503
45.4084375283
46.5992711861
45.7249478464
45.083843859
46.5945622667
47.0983073242
47.1243934488
47.9261743424
48.2830442065
9.92476350227
9.96554057971
13.6483851955
13.5313861136
13.3519809467
10.3895062397
10.361036876
14.122640508
10.0907956042
16.4117772288
15.5956185952
14.2216137938
12.193006723
9.66104458492
13.3725580934
12.2370510262
10.1008314882
9.36091137401
9.37342101057
9.69069672392
10.0846613574
10.4723635174
13.937645146
16.9808878668
17.104456734
15.3957649788
17.7213790562
18.3102490468
14.344253562
13.2208863382
12.6724708604
12.7288475413
12.7486675305
12.7058086442
12.6859497644
12.6544784306
12.6715469675
12.7384681266
12.8167062168
13.0565757908
13.3456718492
13.6566238848
13.9413822924
14.1304033013
14.2449231332
14.3401851157
14.4793204079
14.7004832839
14.9510628859
15.1119995519
15.1587805701
15.2330367047
15.2314762503
14.6497448216
12.2370798893
6.30229981286
0
1.60786881172
9.99507985023
18.612418668
23.3510840879
20.6272023888
13.9657826357
2.9824361258
2.44208506972
4.80454929574
7.41016310939
9.19861996984
10.2493140058
10.3403819846
6.61275227464
30.8988677393
49.7844682154
51.1469278968
48.5815187324
50.0110802102
52.2053612526
53.7333730833
55.8103172678
55.9967977046
10.3866005359
10.5593070812
15.1416231912
13.9020759515
13.0371319913
10.764227677
11.2892948923
14.4928750651
14.5038415177
17.1819619824
15.8508828989
14.4540707118
12.2065633926
10.0514454714
13.5147275489
12.0589167574
10.2928120111
9.67300662665
9.63441099493
9.8864900693
10.2740263696
10.808449089
13.0862015948
17.2024413574
18.4975582774
14.4557262975
17.3065205305
18.1104896967
17.2894933521
14.0503409386
12.8597312109
12.928903884
13.0511764249
13.1140673918
12.928351193
12.9384968462
12.9095047165
12.9962887795
13.0875957693
13.2887412493
13.6208215684
13.9717370598
14.2482408462
14.4431915008
14.6205493634
14.8448494454
15.0835771473
15.3415661503
15.4881596698
15.5681706897
15.665696204
15.7758022216
16.0283113181
15.4467243303
10.2943132329
0.0362330539087
0.0491752545735
6.87557821856
15.7802180911
19.6820662852
12.3585623681
0.080219533368
0.00565471172249
0
0
0
0
0
0
0
0
7.86473967918e-07
0.000265261387498
0.0396774495603
22.9217791651
55.7357280917
57.2813085787
60.1031476508
65.4059524704
64.5018483061
10.7406498751
10.9425195393
17.4487475592
14.1130953906
12.34755761
11.1148762569
11.9180420753
14.1759389603
16.0518227223
18.067829857
16.2315975199
14.7836228343
12.420386281
10.7818364078
13.870118624
12.0552462091
10.5929525416
10.0544755838
9.9365860528
10.1159865152
10.4418142954
10.9525120076
12.6924840118
17.052187783
19.4315376075
18.4085716182
16.5397100924
17.4129346169
16.5928054227
13.1562138379
13.3246285859
13.4676501999
13.7266386228
13.5701406247
13.4055765123
13.2062348113
13.2503691103
13.2458343853
13.3689625627
13.5658458187
13.8706809565
14.2697385509
14.6855667712
14.9114574727
15.1393067972
15.4822724644
15.8673233377
16.1708809358
16.3074339652
16.4434091468
16.6142684421
16.7953014169
16.7578020399
15.9995333672
10.462133175
0
1.0669234484
9.88708512679
7.71181622303
0.0249156251364
0
0
0
0
0
0
0
0
0
0
0
0
0
1.01337161783e-05
0.000100700508682
0.00220757333693
0.107042178469
53.7590903685
69.4154336424
61.150119695
10.9957762966
11.1837033045
19.6296335367
14.2158689231
12.0058323533
11.4615760035
12.7122975892
12.9089952156
17.009372769
18.6839904217
16.6104033093
15.1274410388
12.8596140011
13.0083217526
14.354658387
12.3131979996
11.1123602462
10.669727299
10.3486614787
10.4394291933
10.669539132
11.1133576333
12.5561315296
16.9170508126
19.7761359518
20.0638099582
15.2343098306
15.474503699
13.9860677574
13.2511969985
13.4821780221
14.0227326279
14.2184184331
14.0045262371
13.8234508848
13.9120879959
13.6017909
13.5722424174
13.6446193761
13.7976547536
14.2355125683
14.6888825396
15.1072332154
15.2912878822
15.696367506
17.8555135936
20.7806807181
21.6989521536
19.7907521957
19.6345635637
19.9640738674
20.5535682114
20.9204882469
20.6063006147
19.5472710753
0.00179789121573
1.69579717293
0.0296450280072
0
0
0
0
0
0
0
0
0
0
0
0
0
0
0
0
0
0
0.000156562737884
0.00106021700154
0.195512805243
61.4133838919
11.2568799391
11.4180268039
19.2765213174
13.0526179707
11.8626688357
11.7415790595
13.6027398282
12.4600535908
17.7852146257
19.2851635082
16.9914017584
15.46181913
13.1691205817
15.5877952171
15.0758354027
12.7835296369
11.732397661
11.8168752975
10.9906216116
10.9397888593
11.00817912
11.2828585952
12.5984107961
16.7667497267
19.6054288789
21.1784193325
19.1351691677
17.6348568771
16.0706981513
13.6308680318
13.8282690204
14.9365251278
14.4327343154
14.3740539253
14.8821336267
14.3595915984
14.0797715078
14.0237801736
14.087832255
14.2207139789
14.4396516046
14.9798849096
15.6662725461
17.0087584328
19.0424526529
21.8075429829
23.8123072812
23.7585040773
24.1004240635
25.7844084922
28.2204122829
31.9672627536
33.8326770974
34.2370692054
30.4212823622
29.2519504438
0
0
0
0
0
0
0
0
0
0
0
0
0
0
0
0
0
0
0
0
0
0
0.000481741020552
99.997590562
11.6304023331
11.7831173822
18.6809838866
12.1982931081
11.9529623039
11.9456057777
14.3206289006
12.6647724864
18.3851022569
19.8707983391
17.3815318488
15.8240402138
13.4447905988
16.1441174384
15.7222751426
13.3266160547
12.3314402696
12.5973616639
11.7862638319
11.6755252993
11.5911442098
11.4394360618
12.8283461238
16.7319694472
19.2870856928
21.5436321213
20.4000258199
17.7497996743
14.1116257547
14.1809357073
14.5614302339
15.618328575
15.8383952513
15.8234293653
15.6841601541
14.8451730933
14.5940152105
14.5934833027
14.6341864902
14.7845802775
14.9798201708
15.6098635399
16.9661108278
19.676485812
21.4098862
21.6363762954
22.7464434738
23.8346154792
27.9314876703
32.7149765123
39.665766763
44.5425965834
45.0966489682
45.3142337822
40.9346254447
12.5292181528
0.042056332432
0
0
0
0
0
0
0
0
0
0
0
0
0
0
0
0
0
0
0
0
0
8.09581987375e-05
0.000107115091483
12.2757897873
12.4339282429
17.9841634734
12.1290548107
12.3994791122
12.264224729
13.8893801065
13.3129935325
18.716242888
20.4059680992
17.8112048296
16.246898179
13.8784833327
16.6772208495
16.3334661631
14.023242781
13.0309187722
13.3817863719
12.5376276561
12.5682737459
12.5281728618
11.7934006925
13.2918000381
16.8512634627
19.1293883721
21.6374489054
20.8145995785
17.9373542977
14.2277826432
14.2919587561
15.4574427339
15.1964392782
15.1615517421
15.5509865472
16.6623030529
15.8159234157
15.5006138358
15.1721190945
15.1612420919
15.4499338349
15.7986340448
16.4704975368
19.6020762695
22.490708065
22.4526941101
22.5832354491
24.3119158055
29.7377351109
36.6720479614
42.8148495008
47.6076057364
44.0199049631
34.0499425046
0.709538023683
0.0044519705834
0.00902378358367
0.00138571643433
0
0
0
0
0
0
0
0
0
0
0
0
0
0
0
0
0
0
0
0
0
5.98385806612e-06
2.71709411902e-05
13.3222140098
13.4021604889
17.8670240524
12.8734512342
13.5556497916
12.9682074463
13.7503866804
14.789537237
18.3776712283
20.7137875184
18.3161930795
16.75612672
14.4448233828
17.2854226879
16.9790193559
14.9225374425
13.9748888523
14.3689154411
13.2852747873
13.5851602967
13.8665943461
12.4689766472
13.7537463304
17.1100041225
19.1445416625
21.3876756888
20.9712419379
18.1904387599
17.152426413
15.2540208282
15.9857157744
16.6541305699
17.6086079454
15.9754021713
16.2395593341
17.0154844038
16.3555020543
16.3376684516
16.0795017966
16.1201000076
16.5722599583
19.3432679098
23.7439015998
24.6402615943
23.9636921753
25.6210576724
32.2067263837
41.0236849067
47.0091615491
45.7548695625
36.7277859887
7.39722039452
0.0506142204465
0
0
0
0
0
0
0
0
0
0
0
0
0
0
0
0
0
0
0
0
0
0
0
0
0
0
0
14.8766846412
14.5944448503
18.2595490966
14.8612592752
15.6660931491
14.103568299
14.4335313043
17.0170065538
18.2343136542
21.1384309929
18.967697304
17.3690919741
15.1292107571
17.9258146058
17.6186837544
15.9418240844
15.554850392
15.726211356
14.1123515883
14.7514874434
15.5759147162
13.577927312
13.9961420197
17.4150567457
19.3261537309
21.1028630874
21.1234410014
18.0613288868
18.337704637
17.0125733634
17.2903439345
15.5593340733
16.2456588354
17.6914324892
17.1179070437
17.2921083969
17.2653285382
17.1474871615
17.2676388616
17.2340653672
18.9824161335
24.3001980994
27.2209452608
27.1568347847
27.8189358109
32.9453266118
42.3130793361
48.0427785803
37.1404198348
19.9366913218
11.748594704
0.0565993199654
0
0
0
0
0
0
0
0
0
0
0
0
0
0
0
0
0
0
0
0
0
0
0
0
0
0
0
0
16.5756989341
15.6920309643
18.7551689698
17.6975862106
17.3283194853
15.4993789672
15.2133367599
18.0646056563
16.6417032874
21.4081901416
19.7548931055
18.0794408407
15.9257118762
18.5832817066
18.2097959533
16.7684540424
18.0362472999
17.3883667008
15.0753280071
16.1339764666
16.954113472
15.0616676771
13.7245166592
17.2721897431
19.4059986534
20.8389300091
21.1075881977
18.0088545008
18.5174979013
18.3412458494
18.3895363523
16.1821363653
16.7850944966
16.9390895874
18.0564055993
18.5434713684
18.4674132448
18.2289321868
18.1843592812
19.2351539312
24.2518284498
29.1371310915
30.8385701533
31.436629856
34.2362429355
40.809223526
43.511567776
26.786486721
22.4711243298
17.1690551995
0.0965273571734
0
0
0
0
0
0
0
0
0
0
0
0
0
0
0
0
0
0
0
0
0
0
0
0
0
0
0
0
0
17.2685023669
16.4537697565
19.0076181583
18.5833704841
18.2339204864
16.8680623487
16.2748112439
19.3910772158
17.51542757
21.809312579
20.5454777043
18.8437801732
16.8248132857
19.2779429504
18.8337227101
17.4725101825
18.8890071968
18.3384746149
16.0442951052
17.5558770392
17.5147445355
15.5846806418
14.8976531874
15.0732384693
18.8627977094
20.2418510985
20.8022337657
17.9169586957
18.4612814825
18.7167755229
19.1965657823
18.5004370511
16.3416323584
16.7172305663
18.1461290041
19.356813018
19.7854304491
19.9418922652
19.9102014955
24.0285801361
29.9337104918
33.5288026365
34.6869273526
35.9630097442
39.469699103
37.7611579772
22.0245696479
24.5163041999
21.7632393047
0.258031980492
0
0
0
0
0
0
0
0
0
0
0
0
0
0
0
0
0
0
0
0
0
0
0
0
0
0
0
0
0
0
17.1313828327
16.9759191625
19.1723261927
18.6279215807
18.8198780838
17.9505904072
17.2182613609
20.6840570702
19.2308230552
22.3542243034
21.389420653
19.6434877045
17.8162355983
20.0227677815
19.5365120739
18.3467646519
19.5603100949
19.1722132426
17.1254619774
18.4712578746
16.4390009737
16.1575510714
15.8354419284
16.2864044848
17.2642327964
18.0307961599
19.8571810749
17.7976812286
17.6250399675
18.5799376747
19.5141613608
19.8153503802
18.0283259844
17.3879105368
17.8806546086
19.0083394769
20.413998259
21.7041628299
23.4679170717
29.5218415867
34.6599326391
37.1849347188
37.4893152782
37.6022760785
32.2513812742
23.7957790215
24.5770996593
23.0511269799
0.704962604549
0
0
0
0
0
0
0
0
0
0
0
0
0
0
0
0
0
0
0
0
0
0
0
0
0
0
0
0
0
0
0
17.2660524795
17.3586254128
19.3656784891
17.1299997075
19.0127743434
18.5030302838
17.84761612
21.1303499752
19.9276398503
22.9564137237
22.3012754776
20.4601999423
18.9154939723
20.805458319
20.2899660085
19.3679447882
20.2602448777
20.1198460722
18.3227525784
19.7684082409
17.720797456
17.9866002916
17.0371825153
17.4866072349
19.3754400006
19.964219449
19.433931338
17.648827398
16.8395351011
18.4859125233
19.4829320002
19.9343589337
19.8208916068
18.4195839246
19.8613093455
19.783485225
20.981659001
23.4978500472
27.9296982034
34.4101077222
38.4905124241
39.6621962605
37.1487606888
29.029853653
26.277759534
26.4929312396
27.0335991976
6.01179554934
0
0
0
0
0
0
0
0
0
0
0
0
0
0
0
0
0
0
0
0
0
0
0
0
0
0
0
0
0
0
0
0
17.92718669
18.0036899523
19.5146503478
17.465171034
19.1526893087
18.7430426352
18.2914119955
21.1446395576
20.4388733689
23.3773425849
23.2354599125
21.247746019
20.1238702209
21.588541342
21.0258045377
20.3727113748
20.915016258
21.1698503969
19.5780123974
21.0427340547
19.5022580062
20.2431857875
19.8681394348
18.1238686803
19.8025613522
20.9312217743
21.0427311874
17.5358280877
15.9092160058
18.3730937482
19.5889761924
19.0588990933
19.0559362791
18.6392250671
19.7067736354
20.1208452837
21.7253347869
25.4410393613
32.2912418103
38.9178337196
41.7404315858
40.3039993692
30.1155055774
27.0567954047
27.9246117897
27.5953629065
22.9223285224
0.169875241066
0
0
0
0
0
0
0
0
0
0
0
0
0
0
0
0
0
0
0
0
0
0
0
0
0
0
0
0
0
0
0
0
18.7773664985
20.233591091
19.7758211028
18.4701854338
19.6051700068
19.0387072597
18.7230007406
21.1426775823
20.9314602094
23.4078886951
24.1834259077
21.9814575728
21.1995086134
22.1730737732
21.7513408017
21.0875672948
20.8595319466
22.1464776054
20.9691654204
22.1413509164
21.6425951542
21.4224896463
21.1256364085
20.6590365529
19.5822491914
20.5340021352
21.9629294656
16.4514281606
15.3656152636
17.4001637594
19.5535051903
19.8496271898
20.3641634087
18.5920800103
19.3844120058
20.3619586682
22.0893146587
27.2289191795
36.3465876619
43.0131565518
44.4388030802
36.0060212935
28.9934399114
30.3264288392
30.0375975872
26.0049452852
0.724712619113
0
0
0
0
0
0
0
0
0
0
0
0
0
0
0
0
0
0
0
0
0
0
0
0
0
0
0
0
0
0
0
0
0
19.3967578709
20.8828919231
20.4004968665
19.3632886392
20.259604141
19.5578478311
19.2315332818
21.241341239
21.4347012205
23.1405937023
25.0482558638
22.7461369574
21.789838402
22.6482867569
22.612844705
21.7373225933
20.8070030332
22.8230784
22.5036675999
23.0873265976
22.9033736477
22.956441054
21.0670611641
21.0620120792
20.4862164667
22.3719018817
23.2704565365
19.3140289801
14.9045249666
16.1900259489
18.9110718942
20.1900327045
20.1958971616
19.2176837926
18.8514689305
20.4752723384
22.02950564
28.6368372367
40.0079452606
47.0731222013
43.8279616294
29.9288825968
30.8575192414
32.8444406451
31.6421562681
8.37242797348
0.0281361127664
0
0
0
0
0
0
0
0
0
0
0
0
0
0
0
0
0
0
0
0
0
0
0
0
0
0
0
0
0
0
0
0
0
19.8705432831
21.2052421798
20.9700679474
19.9617211972
20.9260965454
20.263165603
19.8330514618
21.5323967394
22.0159991428
22.454583897
25.6227339469
23.6239589297
22.20829567
22.4012465755
23.540529583