/*--------------------------------*- C++ -*----------------------------------*\
| =========                 |                                                 |
| \\      /  F ield         | OpenFOAM: The Open Source CFD Toolbox           |
|  \\    /   O peration     | Version:  v1806                                 |
|   \\  /    A nd           | Web:      www.OpenFOAM.com                      |
|    \\/     M anipulation  |                                                 |
\*---------------------------------------------------------------------------*/
FoamFile
{
    version     2.0;
    format      ascii;
    class       volScalarField;
    location    "583";
    object      alpha;
}
// * * * * * * * * * * * * * * * * * * * * * * * * * * * * * * * * * * * * * //

dimensions      [0 0 -1 0 0 0 0];


internalField   nonuniform List<scalar> 
6400
(
0.882914223729
1.40267573521
2.21558236723
2.73863718419
3.23957485832
3.74595224552
4.40493003239
5.14603916432
5.5477978915
6.18205077985
7.41219419573
8.24327811475
8.9326571077
9.71587532775
10.6963540143
11.7229286173
12.6271768037
13.4766783361
14.1914716085
14.5955494595
14.7679871216
15.0597273796
15.6826060971
16.6259987288
17.6653226512
18.5942192277
19.347929935
20.0422672345
20.7827488167
21.5842710699
22.3917605819
23.0042394537
23.3450466127
23.5413309701
23.6307522616
23.598604597
23.7406889712
24.1303205626
24.1857112949
24.0067866934
24.2173450555
24.953414346
25.6991928087
26.0944115407
26.19366581
26.089263735
25.8494224252
25.5219399131
25.1198498874
24.6635018362
24.0591604877
23.0679420721
21.7658860049
20.2135384338
18.8861469524
17.8581557232
16.378730043
14.1118848239
11.7165771117
9.8880314555
8.00254200512
6.03973200148
4.04933404675
4.7028017789
8.5417219776
13.4279145132
16.4007445272
16.1051730593
14.1298893539
12.5549218393
11.7395758009
12.0004544694
12.5955907192
12.5128496933
14.6034421611
14.0601996245
15.9543273113
9.85610439739
12.8663412047
4.80913068682
3.14554314209
2.51131536588
3.12306278168
4.37600622203
4.28332505272
4.17901349501
4.39737093436
4.84336629657
5.47934192179
6.29008400708
7.27054036529
8.24828798139
9.10973353461
9.93382637341
10.7726341941
11.7326906803
12.7410145324
13.7063677451
14.7307129025
14.95899177
14.9323899872
15.1893885043
15.7759031433
16.7014909847
17.8809757479
18.7455276046
19.4657096625
20.202225032
20.9602797982
21.730192984
22.5048182662
23.21829177
23.5545843773
23.7473566258
23.8748661925
23.7405281713
23.9382465115
24.3515382321
24.3480385977
24.0113083488
24.1877627294
25.5671399806
26.6672498032
26.9577791987
26.9901293292
26.7887611286
26.4243548194
26.0098706969
25.4145522076
24.7669204271
24.2448949025
23.8693046463
22.814282706
20.4381755939
19.2515796621
17.9599060057
15.7990664235
13.5953777646
11.4815547197
9.39886281768
7.50597468182
6.40729672514
4.45947375984
5.13932366254
8.68710495768
14.480654046
18.2164063129
16.9317871008
14.7769327654
12.8842431335
12.2380092801
12.7153251019
13.8713756899
13.3254187035
13.2072831467
12.7078976189
11.5302001457
9.70415487435
8.16456248798
4.24897580923
3.23148792379
2.83795862763
3.3533854439
3.6346149361
4.1664768416
4.6048688262
4.59595133716
4.74906889205
5.38414133961
6.26742749542
7.25489621521
8.25242031422
9.16080848921
9.98957091649
10.6833470813
11.5513602178
14.1897776178
16.1969209367
16.6162428208
16.0285623465
14.7400241748
14.8428503995
15.9061670894
16.8852921929
17.7968174291
18.7355990114
19.5707052854
20.309953408
21.0470911073
21.8155972203
22.5525002098
23.3655547288
23.7032111098
23.6410265756
24.1268808082
24.0077021703
23.8430563059
24.475988725
24.5123950415
24.2320833341
24.4219738766
25.1475497448
25.8782541404
26.2779650529
26.4021828264
26.3406186568
26.1345905655
25.8047931338
25.3540494361
24.8056232192
24.1615576677
23.3096141465
22.1222261238
20.8808793186
19.6600215024
17.8172693848
15.7049942986
13.5906971997
11.5149828108
9.53622440373
7.79525781008
6.15729690101
5.06467741374
6.5076564702
11.0842227462
15.4888625533
17.6490539863
17.7606820236
16.1951329229
14.5622669364
13.9259083643
13.8827292718
13.2609734552
12.7017833486
12.7080874074
12.3909672974
11.4279883373
9.81445701787
7.38248303407
7.56850102241
3.23758558038
5.50374258473
3.66933233599
3.78928468521
4.48474866307
11.8740730818
10.2629151918
5.31965874424
5.35827534818
6.26740995738
7.27916403166
8.29572455401
9.17965688274
10.0304633436
11.7387043818
13.8417042234
15.5163537939
15.9455558094
14.9203351163
14.1571587098
14.4995552208
15.093027673
15.8768348759
16.8581337298
17.8850635791
18.8602262382
19.7254928608
20.4412934388
21.2027407081
21.8927683679
22.7751278184
23.3561960213
24.0104849575
23.9544976816
23.6491974644
24.1024798222
24.034028243
23.9863385312
24.2103608796
24.4185498709
24.7462081281
25.3177281635
25.9156583475
26.3106166471
26.4742340816
26.4494334479
26.2717315962
25.9630259853
25.5328766237
24.9892872846
24.3176797264
23.460515346
22.3802547456
21.1386958099
19.6791128494
17.8584652326
15.787750703
13.6824559249
11.6577419032
9.80657735107
8.24133319543
7.08307053533
6.79231298365
7.82996083382
10.5524771875
15.9050452908
19.3642846656
19.528462201
17.8727962372
15.5347239911
13.9665362241
13.2252883464
13.4380680167
14.8757740087
14.8319135149
13.5246113944
13.3937808162
16.6865955564
13.088738338
11.1063151902
5.66763643314
7.56938828453
4.42944576481
4.74753642503
6.5863920839
11.7665768887
8.23253505334
5.7752440477
5.88130660049
6.49007045936
7.42460646635
8.45580434189
9.8759941138
12.1671362496
13.2014770348
13.6080854584
13.6572226266
13.5010625982
13.6281676176
14.2084165294
14.6331282646
15.139592966
15.9702296537
16.9637514338
18.0088228816
19.0172772873
19.8493173851
20.7001200548
21.3197778168
22.2177085055
22.8165590773
24.0211462305
23.9390369664
23.5764151617
23.7805673354
23.5942493835
23.7383321243
24.0316405705
24.3459237642
24.6478921568
25.0132418522
25.5048287832
26.0156075243
26.3939041959
26.5825842007
26.5898827272
26.4404086183
26.1558132299
25.748394258
25.2196661886
24.5519041982
23.7101408786
22.6708561253
21.4230549525
19.8933789759
18.0340069526
15.9797841357
13.9340131846
12.0427876071
10.4295182034
9.2249794191
8.58183475358
8.72834280154
9.07696089059
10.8109973762
15.4371749949
19.449989326
20.838679684
19.6785696413
16.9248800591
14.4673234512
14.1780782293
16.4668329282
17.3543233558
16.3289543911
15.4222679759
18.0835164579
21.0988124316
16.4112175173
15.526969885
9.96269341319
9.1284707496
5.51731034707
6.0759873652
12.0493565559
11.5233766855
6.62591429751
6.36983541427
6.50723631011
6.8416864597
7.67461580204
10.2972730482
13.5051385507
13.9576023483
13.6308765862
12.7583783215
12.446919897
12.8338444811
13.7830435147
14.1843368788
14.5233783873
15.2111493927
16.1178459352
17.1459352768
18.1202502138
19.1404237718
20.2381421167
20.8066648021
21.8686802298
22.2673487054
23.7214889781
23.7968483114
24.6122822309
23.8233459894
23.184029693
23.3110188693
23.7247073903
24.1514363036
24.532237711
24.8847784032
25.2703768999
25.7215495484
26.1771231188
26.5365025641
26.7385511179
26.7716861835
26.649319142
26.3918277346
26.0130990689
25.5121234607
24.8704170978
24.057841704
23.040980916
21.7756986572
20.2065682362
18.3542579727
16.3775333967
14.4755949913
12.8031488076
11.4924002692
10.645300752
10.4150020199
10.9848998274
10.1453152824
12.6413032736
17.3624326301
20.7681463931
22.1147758396
21.1970874202
17.8313489655
15.6482266164
17.4735359189
19.6985267824
19.1880169232
18.2032748198
18.2885451122
22.8605665309
24.4460997056
19.4422533178
19.2439045994
12.0814933462
8.98195083444
6.70862777844
6.28998709115
11.9929060264
8.41274759648
6.84618720725
6.96172281899
7.08901060997
7.78197321635
8.27709463556
13.2397557725
13.9352691979
13.986681401
12.6755173044
11.7287064079
12.0423963522
13.3699975585
13.755369907
13.8895423678
14.5393684267
15.3270308923
16.2361774636
17.2620749451
18.4295229948
19.5494034958
20.2652362191
21.6528992883
21.946166258
23.5238931568
23.4517883117
24.5108455203
24.0519807117
23.5839683759
23.0005459738
23.2539549979
23.8027689583
24.313581038
24.7383141841
25.1259977826
25.5304149187
25.9649173435
26.389142452
26.7337871661
26.9436617523
26.9976242766
26.9022723512
26.6770939805
26.3364087814
25.877092004
25.2776417531
24.5030691577
23.50781597
22.2414528707
20.6819780815
18.9023456178
17.0783793431
15.3951311443
13.9721609193
12.8761272879
12.2105797457
12.0124755522
11.8059735116
11.8091062553
14.1833031242
20.0035112624
22.1950957143
22.4717360451
21.3926381573
19.1168831415
18.8519294581
21.4189987452
21.8654993787
21.044200507
20.4718029461
22.4566699512
25.2080239889
26.6703706979
22.0863816409
20.9487803584
11.7964238452
8.63385508214
7.84949554028
12.1557337593
12.0953689536
7.43880057245
7.49638416581
7.64129842334
7.74336659654
8.31173941117
12.9955675215
13.937551924
14.031802553
13.5629917001
11.5127926479
11.3141286125
12.8801201208
13.5139469553
13.3893232973
13.7664451997
14.5836725159
15.5082360376
16.4459599482
17.5284530553
18.5313883271
19.9131205747
20.3650530621
21.6706927937
23.2169571305
23.6618334657
23.1461538285
23.9807833204
24.1351475363
23.0220250376
22.9850229593
23.3990948922
23.951411517
24.4894093048
24.95482008
25.3770779413
25.8018103199
26.2357875847
26.646178638
26.982072662
27.1977033695
27.2702930983
27.2040840031
27.0183042199
26.7265959542
26.3229164715
25.7808944634
25.0579345667
24.1017211253
22.8726482082
21.3884781069
19.7603481419
18.1564905739
16.6977381929
15.4098687455
14.3400032314
13.6555577022
13.3813920147
13.3559753983
13.6908728318
13.7459426527
20.1649771149
24.0216218864
23.946370907
23.3111355986
22.3294823192
23.1285142878
24.4776424911
23.79926881
23.1365047148
23.3717889264
25.7205517834
26.4000980626
26.9828460389
24.1042924266
21.9670145234
11.0722077535
8.55586602854
8.51599173224
13.132588729
11.0702445362
8.05376121501
8.20120643598
8.47611403074
9.67141834735
8.41948036926
13.7690009952
14.4577545205
14.0713660545
12.3325035088
11.1427343113
11.4540672122
12.9626534032
13.2296079516
13.2775112917
13.7929403465
14.5885898037
15.5938994139
16.63550975
18.1262656527
19.3851540042
19.8779244862
21.8018837252
21.5663352634
23.4205961427
23.0863537351
24.3180023433
23.3135468074
22.9882252392
22.9348789034
23.157221864
23.599434206
24.1346553313
24.6805172242
25.1822018492
25.6432258023
26.0926248281
26.5352100785
26.9443095292
27.2786760772
27.5006478274
27.5923083079
27.5598597225
27.4221584954
27.191016288
26.8575699194
26.3906512272
25.7415106211
24.8586788705
23.7241778796
22.3934715145
20.9916446161
19.6293190175
18.2955314837
16.9346221602
15.7491251757
15.1245258708
15.1467173419
15.442888085
15.6322595687
15.4564090918
16.9894482093
24.2192402463
25.8093423453
25.7094566632
26.2645160504
27.2554234052
26.8662005659
25.8508818936
25.6788471579
26.7094318927
27.9286748571
27.7850949438
27.1732606664
26.1550330976
24.7842680985
10.5363411135
8.99240304834
9.67077467886
13.2012893377
9.1117871095
9.07091626269
8.91234798054
9.17759762445
12.2659400943
10.9968617882
14.6038069887
14.7273476745
14.1419767486
11.6455766021
11.1764401793
12.7681440905
13.1975373213
12.9855630856
13.2461795337
13.9489981308
14.7215940114
15.6720371492
16.5742482842
18.2872019442
20.425597469
19.8252853853
21.7536320006
23.0305067176
23.6655340865
24.2696842389
23.5638378506
23.5773287017
22.6959204544
22.8495675102
23.3253011893
23.8209868011
24.3447167394
24.8896107895
25.4200567777
25.923440857
26.4064595582
26.8664761283
27.2824001611
27.621645391
27.8537913534
27.967228273
27.9739496054
27.8940002286
27.7361169998
27.4887282429
27.1184262892
26.5748134081
25.814859647
24.8474639451
23.7540340472
22.6296584615
21.4445792623
20.0126482675
18.4255533263
17.2949825136
17.0898904353
17.6055569266
18.1035017059
18.2174451819
17.8918921428
16.5330660274
16.3776293911
27.5430316866
30.2603555651
31.0975459075
30.8159877214
29.3013769374
28.3630558838
28.6861274822
29.8986100946
30.2714161725
30.0394850043
29.7465398601
30.0864615675
30.2706573957
10.5128906037
9.83037884093
13.0819744893
13.365447636
9.21814153003
9.82883102782
9.61916271331
10.1041858145
11.7735384508
14.4867735544
15.4310266897
14.9954796876
14.3807958335
11.6579922154
11.3341930498
13.2864091666
13.3003995346
12.9628687941
13.2742700199
14.0863336085
15.0865145773
16.0325733865
16.7599488021
17.920873795
20.5984486714
21.7979727172
21.3788456685
23.1581122184
22.5347296925
24.299592058
24.6241417611
23.5282502679
22.6666813044
22.9625594319
23.5241618353
24.0535462304
24.5790416925
25.1233736944
25.6715520802
26.2157010885
26.7425510335
27.230643722
27.6609725188
28.0107242951
28.2578711413
28.3988149798
28.4519001439
28.4385888396
28.3657667258
28.2211236007
27.972666851
27.5747628234
27.0008418078
26.2863946645
25.5086010463
24.6471065676
23.4301354076
21.7095585742
20.1695191216
19.556256105
20.0945407854
21.1298739097
21.7628984464
21.8087858004
21.1774937342
19.5622342071
17.023463272
17.5829898464
31.5981078061
36.6640436887
35.1161976549
32.5128225295
31.6343577864
32.1815265672
33.0614929475
33.4696055605
33.809403842
34.3222525551
34.9262591612
35.5934918058
10.8647803526
10.6998422272
14.7234262038
14.073688486
12.1743797311
11.050580685
10.5509006396
11.5630005917
11.246637865
15.4506417873
16.0811058226
15.3379994573
14.4674634613
12.2762836225
12.0967450807
13.7511763987
13.324866539
13.0481474993
13.3935558729
14.1316979836
15.2350201118
16.4917449082
18.1992737109
18.0592363274
20.1013889362
22.1763410414
21.271681808
23.4230277252
24.2499350109
23.4845404905
23.7130442004
22.8823616175
22.9602793707
23.2914104969
23.7803039254
24.3103403097
24.8430911963
25.3911095816
25.9448015188
26.5157027167
27.0940729572
27.6290799927
28.0829539702
28.4465821376
28.714295124
28.8907708102
28.9984942403
29.0595989348
29.081149341
29.0539179207
28.9525335766
28.746992012
28.4371893561
28.0684812889
27.6402643663
26.8721737717
25.3779405484
23.6990659183
22.814333206
23.1183511656
24.5674907008
26.0015428528
26.7755188893
26.9693199911
26.3737108969
24.5707878336
21.3599516946
16.5827530779
26.3639124265
37.1266586842
39.910086351
36.8702006693
36.0438464209
36.5372105831
37.2784837341
37.7761270045
38.7916007683
39.5686457468
39.5310289621
39.7440729963
11.4661986383
11.3505516343
14.4695024709
14.5625431279
14.5744182454
12.1863834037
11.6146676373
14.4206799472
11.6180478025
16.310687056
16.577238465
15.6908225997
14.5548650113
12.8878910176
14.7032485394
14.807485869
13.5152069026
13.2696662347
13.6462045832
14.2766391136
15.1974004026
16.482647351
19.4836631052
20.4313607557
19.5918465739
22.2462330768
23.1879260747
22.9968624689
24.2188564141
24.5902547783
24.0647028453
22.917094967
23.1666633102
23.6247536556
24.0919255229
24.6000725884
25.125033666
25.6904188477
26.2677449143
26.8468060415
27.4554398632
28.0466318868
28.5459282097
28.9332079199
29.2259841482
29.4462796378
29.6177684404
29.759068542
29.8787241035
29.9758809314
30.0421306058
30.0805430802
30.1231319672
30.1758018329
30.0164945907
29.0120856413
27.4929151548
27.2088640164
27.6674739701
29.1412133659
31.3124603225
32.6057911748
32.4784900725
32.0974129088
30.4141494032
27.7395986932
24.408006117
18.0271050946
17.7452694485
31.6175296624
38.5928028254
39.4623875246
38.0928264245
39.5853077954
41.0590257985
42.864252625
44.4755178878
45.0723775838
45.0527658511
45.2411898702
12.1266536807
12.0513521028
11.7048549942
14.8890939421
15.1081688439
12.9562724984
12.5730778201
15.4061500999
12.2744576187
17.1978376037
17.0243519797
16.0578812769
14.7526518729
13.2018077346
15.8626131646
15.3771040722
13.9493978401
13.6663202937
13.9981148394
14.5911925714
15.2847332833
16.3776079418
19.9987471525
21.5036770009
19.9391739472
22.288130201
23.7115906469
22.489089363
23.8513698064
24.1459581048
23.0708289601
23.2691607223
23.6159064318
24.0092632386
24.435924038
24.9430207897
25.4626611254
26.0007090645
26.6049187597
27.2283450445
27.8584480727
28.4854775741
29.0361423626
29.4653249125
29.7957779385
30.0698395298
30.3127330558
30.5339921517
30.7468953863
30.9645015257
31.2043675559
31.5376972807
32.022395294
32.5291794225
32.3401003116
30.8455026027
30.5007925794
28.1580152131
25.7338419429
24.8470634223
23.013508079
16.9117160291
0.804060877005
0.0820365526647
0.00651008622931
0.00183375994498
0.0215847343081
0.220542685
2.49126251536
6.50694770604
43.5921797064
49.3001222853
48.9740701293
44.306147932
40.8733747123
43.5924179754
48.6944042767
50.4941763502
51.8750291644
52.352059626
12.9670119148
13.0575266235
15.5284145614
15.5315230073
15.5569299948
13.6123355662
13.6144706277
16.2523609735
13.2885748197
17.9663611744
17.451335792
16.4483307423
15.032031356
13.5951454915
16.1455490334
15.5734056838
14.3820018308
14.1211367285
14.3852426765
14.9103609836
15.5412479987
16.4036434266
19.4066979409
22.3188607915
22.4683257753
21.6649960529
23.9276582766
24.7165326334
22.705682024
22.6296191493
23.0119837829
23.5081547217
23.9725535408
24.3970616958
24.8385852376
25.3119667572
25.8313199301
26.3850693841
26.9680124678
27.6248600438
28.3060939999
28.9678919179
29.5571437414
30.0329244222
30.4194856831
30.7618729604
31.0829223053
31.3859011522
31.6737609639
31.9726352858
32.3753009984
33.0440571322
34.0331465237
34.8925942814
34.3053836217
30.7446604644
21.5423330884
0.000272666544047
2.99904922896e-07
5.62214518738e-09
9.5299213703e-11
2.75724270149e-13
7.83548188563e-16
1.35630708389e-20
1.06090742509e-20
2.57563926815e-20
1.73618450486e-19
8.13219128835e-19
3.00403552125e-18
1.90901762813e-17
1.49471818776e-17
1.2967492942e-15
7.38067021851e-13
7.41914847324e-11
5.62988040707e-09
1.29642541712e-06
0.0218229193193
53.2386554872
57.9865097126
59.6147937187
13.7571468259
13.9478805132
17.1446840857
16.20018644
15.6692462391
14.2754775982
14.624895063
16.9662551061
16.9391877142
18.9204618197
17.9394442056
16.9312449026
15.3954259828
14.1338903151
16.4462474998
15.7097000622
14.7993394415
14.5848977787
14.7778093342
15.2221176206
15.8216980279
16.6508382667
18.8905304192
22.582033761
23.8416146681
21.3898337112
23.4597059005
24.7817962718
24.5176235726
23.0818460199
23.1075666777
23.7357369777
24.3360993907
24.8343174099
25.2304062303
25.7105194046
26.2211192199
26.7917731567
27.3919459854
28.055769499
28.7830759062
29.4980607489
30.1182515148
30.6233800087
31.0754916878
31.5368116968
31.9758070766
32.3340387509
32.6006295927
32.9275631578
33.5008506067
34.47889355
35.9367836251
37.0921334413
29.4618638996
0.000403543613772
1.50782055471e-10
6.10594559558e-13
1.76574062432e-14
2.57059467454e-16
2.08855385123e-19
3.48495225012e-22
2.4565588347e-23
0
0
0
0
0
0
0
0
3.41665440958e-27
1.15236679948e-24
1.72369510665e-22
1.00003270107e-19
1.39680025849e-16
7.56403039479e-12
1.14868932819e-07
0.895562199064
61.966987039
14.4037757168
14.6165143486
19.2978939446
16.7177635258
15.531985997
14.8648404749
15.3510213245
17.0199516895
18.5300059017
20.0194359227
18.5847216449
17.5484455973
16.008832551
14.9664957861
16.9536046879
15.9999140277
15.2962104814
15.0988248745
15.2104408008
15.5709118737
16.1005814921
16.8691124591
18.6823709898
22.4595422043
24.8358851787
24.0558076899
22.9462035321
24.1525797669
24.2609843909
23.0645507714
23.5615049216
24.2196437483
24.8678975459
25.3253445573
25.7385043463
26.1455430685
26.668219159
27.2277921653
27.8533685119
28.53772604
29.2860036399
30.0560129672
30.7531438823
31.2887992657
31.7952686719
32.3838566459
32.9542594592
33.331268689
33.5322244315
33.8547687338
34.5402260083
35.6352435529
37.2367383808
29.9368721989
9.98495491257e-07
2.18297851691e-13
7.15921904832e-17
2.89489250423e-18
3.94709878366e-20
1.08240175724e-22
0
0
0
0
0
0
0
0
0
0
0
0
0
4.40235881648e-26
4.37470089375e-25
9.59029222042e-24
4.65020008284e-22
2.58236281092e-18
2.14946482481e-09
4.14344040173e-14
14.9092508849
15.1112936761
21.3590351121
17.1153567948
15.6526210096
15.4141052459
16.1581773907
16.3783792961
19.482314147
20.8071527476
19.2123038119
18.1816055794
16.82277719
16.8591926314
17.6625175209
16.5323531182
15.98931628
15.8099109047
15.7517005644
16.0071586815
16.4327942803
17.1244390149
18.6657375146
22.3238653407
25.2519750125
25.7057231143
22.7176033004
23.0654676879
22.9933903394
23.1877549453
23.8708813475
24.7210867689
25.3708325244
25.8583017294
26.288416076
26.7712739579
27.1808072075
27.7313277076
28.3569159447
29.0434101263
29.8580618277
30.6953904722
31.4403848135
31.9477237958
32.4585518252
33.6683778607
35.2948887785
35.8344700844
35.0063334327
35.0734022208
35.7274566174
36.8145953971
28.4053532464
1.15519318782e-07
1.74102745841e-12
7.81052291714e-24
7.89263016629e-21
1.28785973592e-22
0
0
0
0
0
0
0
0
0
0
0
0
0
0
0
0
0
0
6.80150635096e-25
4.60586776064e-24
8.49360201875e-22
94.5315849065
15.353637501
15.5216371297
21.1934679856
16.5483645386
15.8600132192
15.8905870697
17.0755829662
16.3786755327
20.2878267273
21.5427971003
19.8118905298
18.771531938
17.4551039808
19.089583965
18.6521144385
17.269283228
16.7881108881
16.8849194189
16.5158950891
16.6129617795
16.8648385497
17.4208173199
18.7917035985
22.1754242733
25.1259191358
26.8121433877
25.4491405026
24.4449056437
23.9940348431
23.4556387707
24.1800297444
25.3701855083
25.8232768429
26.3937881155
27.0901601385
27.3807963741
27.7894531167
28.3412989544
28.9800244488
29.6676571008
30.4305916089
31.3194305031
32.2009192865
33.1110831279
34.2036319275
35.7734540465
37.0319391224
36.9815599077
36.8779635847
37.4508250026
38.5085905508
32.421725104
5.25336787144e-07
4.79527580502e-12
6.30253874245e-16
8.56005563177e-18
0
0
0
0
0
0
0
0
0
0
0
0
0
0
0
0
0
0
0
0
0
0
2.09281253962e-24
1.52326118715e-13
15.8685477387
16.0138493961
20.8308755179
16.2232531378
16.161996614
16.2803761816
17.8647701976
16.8490338207
20.9877589684
22.2659539214
20.4106852013
19.3670965039
17.9889311719
19.8440722253
19.5706063325
18.0793789621
17.5756133639
17.7817117576
17.4314106268
17.440773859
17.4989993821
17.7655240942
19.0786026408
22.1579343017
24.8539224204
27.1467478138
26.6584901177
24.9663567114
23.4050768229
23.9730086068
24.7149732483
25.8656618787
26.7050135004
27.3945218083
27.9369085786
28.0962944
28.4817413102
29.0465675397
29.6965456194
30.4134683803
31.1808232433
32.1463406322
33.3627540454
34.9093805987
35.9563870449
36.3410905581
37.0025135852
37.4505459019
39.0676104876
41.231344261
38.7201082994
4.78683973367e-06
6.35600931562e-12
1.09606121934e-15
2.24807800518e-18
5.44302929231e-20
1.82704017572e-22
0
0
0
0
0
0
0
0
0
0
0
0
0
0
0
0
0
0
0
0
0
3.51704186014e-25
4.65336762026e-25
16.6296186838
16.7752142114
20.5046308471
16.5171029272
16.7324201273
16.7711585139
17.874935041
17.5847821803
21.4927865719
22.9550037906
21.046170673
20.0149989089
18.6454046426
20.5344631489
20.4019614217
18.9834387427
18.4257646431
18.6580724653
18.3249301733
18.4156598853
18.4103060395
18.2717235861
19.5599920618
22.3310077488
24.7304203593
27.244973018
27.2110592609
25.6889347391
23.8993613983
24.2108545168
25.3583823185
26.024222638
26.7304541354
27.6339857111
28.8798964875
29.1437922498
29.4407647734
29.8584123019
30.4667388223
31.2595266332
32.137718897
33.2356086186
35.1814174488
36.9393694037
37.1666033373
37.3661507016
38.4799305185
41.3660110264
45.2042839719
43.1351866184
1.36761501996e-06
2.27184866895e-13
9.40144105568e-18
3.08242397876e-21
1.93405574063e-23
3.92017424986e-23
6.01992482766e-24
0
0
0
0
0
0
0
0
0
0
0
0
0
0
0
0
0
0
0
0
0
2.59954885754e-26
1.18037875145e-25
17.7753371747
17.8802326828
20.7994970118
17.4715934196
17.9087386356
17.637315322
18.1903149429
18.9195666467
21.5416598332
23.4737895904
21.7476280931
20.7368525149
19.4115103341
21.3194767124
21.262145763
20.0524061171
19.4639522041
19.6837425964
19.2269369185
19.4901090233
19.6389521549
19.0092734185
20.1111808113
22.695459061
24.7988640147
27.1114847104
27.4645119456
26.335924782
25.9428631103
25.0937500678
25.7874360088
26.8783336554
28.180023994
28.2395668124
29.1232426195
30.1997054786
30.5091594514
31.002859457
31.5008529824
32.1936470614
33.2130598673
35.1582905337
37.8412421106
38.7428263384
38.5520180918
39.7235499071
44.1599441177
50.543123041
48.9654310423
4.91933457264e-08
3.44197336751e-15
3.21355146012e-20
2.19881784433e-22
0
0
0
0
0
0
0
0
0
0
0
0
0
0
0
0
0
0
0
0
0
0
0
0
0
0
0
19.3743822878
19.2453232719
21.6234768465
19.3823204958
19.8859765786
18.9174963413
19.1435000786
20.8501331537
21.7670578759
24.1017249136
22.5687334722
21.5431499305
20.2632008878
22.1426528132
22.1182174054
21.2311582723
20.9853349913
21.0245551649
20.2221258035
20.6631819672
21.1720658125
20.067373704
20.5464035585
23.1471720322
25.0663074467
26.9939456832
27.6528008181
26.5020547647
27.1432750412
26.7037440278
26.8828547959
26.605163634
27.8972932669
29.5121993355
30.102013533
30.9336999019
31.5799696539
32.0980709047
32.7493804734
33.4613377694
34.9769766984
38.1640683809
40.4304698901
40.7889989771
41.5009258115
45.4069112668
53.8024315203
51.8423752968
6.97796935106e-10
3.0716766641e-17
5.36993913652e-20
2.45882666213e-22
0
0
0
0
0
0
0
0
0
0
0
0
0
0
0
0
0
0
0
0
0
0
0
0
0
0
0
0
21.0693105816
20.5326726393
22.5200508317
21.913023456
21.6212213849
20.4051620139
20.1996415834
22.006748599
21.0214713794
24.5949758788
23.4918107123
22.4263151625
21.1914652497
22.9800482584
22.9155374194
22.218965514
23.0933806793
22.6420339161
21.3438290011
21.9621347812
22.5381012452
21.4294112056
20.7235960382
23.1609826127
25.2645361061
26.9166621931
27.7359741455
26.6061408966
27.5483726583
28.0120463677
28.2568570722
27.4058220305
28.1805269911
29.4517657087
31.0552848597
32.1812089247
32.8861723355
33.3678836528
33.9932039624
35.1701059382
38.1168259149
41.5402947436
43.2287935234
44.0912717122
46.6249851052
52.4248677551
49.6197270566
23.7438274322
8.27075549996e-17
1.19736635578e-19
4.19340797006e-22
0
0
0
0
0
0
0
0
0
0
0
0
0
0
0
0
0
0
0
0
0
0
0
0
0
0
0
0
0
21.9260883842
21.4466362462
23.1046538991
22.9906880955
22.7171360921
21.8186571327
21.4206951153
23.4106695425
22.0900855889
25.2233410939
24.426457441
23.3557389926
22.1915553806
23.8496412581
23.7267592019
23.0519952157
24.0860367765
23.7741668985
22.4426765868
23.2479404026
23.3066619001
22.2735370288
21.7807391768
22.0077573825
24.7943608297
26.4526350088
27.5522325189
26.6070468937
27.6474134639
28.5844613235
29.3890957018
29.2627415875
28.5491235299
29.5436691499
31.3278864677
33.0889338269
34.3107048484
35.0590374376
35.6923520182
38.1332787704
42.0090346256
44.9893008023
46.4079260969
48.0967835675
51.940726924
46.1635361193
20.9471662883
4.3693198519e-16
3.93588460294e-19
1.12096031137e-21
0
0
0
0
0
0
0
0
0
0
0
0
0
0
0
0
0
0
0
0
0
0
0
0
0
0
0
0
0
0
22.0579051476
22.036030153
23.4779159704
23.2476308332
23.4295003898
22.9261299003
22.4926196869
24.7931014396
23.8033693985
26.0327741701
25.4219179355
24.3184362664
23.2587813255
24.7666653217
24.6097615025
24.0176860338
24.9190107286
24.7680355974
23.5972904718
24.3027452861
23.1556091155
23.0616596911
22.8530277322
23.1246816032
23.963769336
24.9765554022
26.7549404895
26.443437409
27.2516476413
28.6544137377
29.8852966944
30.6541583686
30.1190121715
30.3737432019
31.562418803
33.2951126965
35.2388459522
36.8290271656
38.3008056205
41.9588415068
45.8325486815
48.2296009575
49.239139073
50.769282949
45.3790587654
25.6518261099
11.539537843
1.36715144484e-18
3.06254712765e-21
0
0
0
0
0
0
0
0
0
0
0
0
0
0
0
0
0
0
0
0
0
0
0
0
0
0
0
0
0
0
0
22.353173978
22.4682781611
23.8111839463
22.4296665583
23.759795131
23.5583510215
23.2298307611
25.4471936162
24.6969974948
26.8647810352
26.4576938523
25.2857548239
24.399924432
25.7184230403
25.5375925868
25.1183385141
25.8426452223
25.8718807272
24.874572508
25.7357915325
24.5311711963
24.7193010541
24.1370633482
24.4416039896
25.7864563426
26.4164919289
26.4330952109
26.215385621
26.8287345438
28.6355227219
29.9297126818
30.951565462
31.5055914953
31.5141312646
32.9518870905
34.0829817827
36.0156896046
38.4973255915
41.5678435794
45.9439974213
49.351946259
50.8286715761
49.7588758258
45.1525539918
37.1646625162
25.8958150662
1.14721261376e-17
2.61168565153e-20
0
0
0
0
0
0
0
0
0
0
0
0
0
0
0
0
0
0
0
0
0
0
0
0
0
0
0
0
0
0
0
0
23.1004523645
23.179678801
24.1699680103
22.8851948261
24.056911215
23.9309378775
23.7637494304
25.7014384211
25.3346479271
27.4953884256
27.472964597
26.1988199127
25.601168336
26.6601406806
26.4301924832
26.1871548427
26.7358709359
27.0604794351
26.1976362041
27.1812614596
26.3252465449
26.796939716
26.5728651344
25.4617920663
26.5691435618
27.5423429078
27.6815598404
26.0999814487
26.3445668081
28.5768509777
30.1150965434
30.6661292446
31.3744478958
31.9083141924
33.3582984903
34.7766968719
36.9222234888
40.2147179043
45.0266593705
49.9737189861
52.6198422129
52.4389561663
48.883162517
42.1059350991
25.9084293689
2.27702034845
1.81992523462e-19
7.37983728823e-22
0
0
0
0
0
0
0
0
0
0
0
0
0
0
0
0
0
0
0
0
0
0
0
0
0
0
0
0
0
0
0
0
24.036666375
25.0373225606
24.6832049785
23.8889240247
24.6341730431
24.3629381037
24.2795007839
25.9264748513
25.9169216722
27.7867474678
28.4552596602
27.0185967331
26.6703426482
27.4422112612
27.2756223374
27.0085241358
27.0922748726
28.1447166084
27.5822632754
28.449047123
28.2843603238
28.1624026059
28.0210360887
27.6475761286
26.9715799445
27.7372093453
28.666165948
25.69644371
25.9096490735
27.9572772933
30.2034788978
31.2612466747
32.1386170097
32.0016995509
33.2963651091
35.0926093804
37.5016476859
41.8225756371
48.4496824333
53.7926856665
55.2575605818
50.5718848894
47.3378793894
42.0213621796
29.7643701492
1.23356183289e-18
3.14834650195e-21
0
0
0
0
0
0
0
0
0
0
0
0
0
0
0
0
0
0
0
0
0
0
0
0
0
0
0
0
0
0
0
0
0
24.7567080597
25.7930944797
25.4268281567
24.8001924377
25.3666038868
24.9668987734
24.8611525803
26.2297630864
26.480395681
27.8199028875
29.3311021846
27.8026342039
27.3373210033
28.0940695773
28.1825692735
27.7559623359
27.3874393061
28.9281912749
28.9941488781
29.5592567303
29.6458364301
29.8058546897
28.6670248579
28.6622650647
28.2200892838
29.3735118623
30.0364564034
27.4863010678
25.5648598676
27.0390936184
29.582641805
31.4859470401
32.4488410455
32.6307653283
33.0516974735
34.9724994259
37.5393317884
43.0822902488
51.6920207398
57.6283254714
56.2100826284
50.0293775264