/*--------------------------------*- C++ -*----------------------------------*\
| =========                 |                                                 |
| \\      /  F ield         | OpenFOAM: The Open Source CFD Toolbox           |
|  \\    /   O peration     | Version:  v1806                                 |
|   \\  /    A nd           | Web:      www.OpenFOAM.com                      |
|    \\/     M anipulation  |                                                 |
\*---------------------------------------------------------------------------*/
FoamFile
{
    version     2.0;
    format      ascii;
    class       volVectorField;
    location    "397";
    object      Ua;
}
// * * * * * * * * * * * * * * * * * * * * * * * * * * * * * * * * * * * * * //

dimensions      [0 1 -1 0 0 0 0];


internalField   nonuniform List<vector> 
6400
(
(5.2544747817e-05 7.2849349466e-05 0)
(0.000145209194322 5.69592763768e-05 0)
(0.000213297481079 4.73971885685e-05 0)
(0.000290567737474 4.34298219858e-05 0)
(0.000347031254399 2.87335119065e-05 0)
(0.00038753598177 1.65857789041e-05 0)
(0.000406945109013 1.19347277925e-05 0)
(0.000421585878076 1.86755502144e-05 0)
(0.000474519490505 2.76925999874e-05 0)
(0.00053051144293 2.72271476803e-05 0)
(0.000550956877911 2.4539710022e-05 0)
(0.000603321008713 2.73820530322e-05 0)
(0.000651164084013 2.61611685184e-05 0)
(0.000691277550471 2.25998350899e-05 0)
(0.000721274624338 2.08718129117e-05 0)
(0.000753759795129 2.3485150103e-05 0)
(0.000795786424505 2.46518125801e-05 0)
(0.000832593240361 2.25950522459e-05 0)
(0.000859946622292 1.89504331479e-05 0)
(0.00088498188682 1.71049120734e-05 0)
(0.00091792481032 2.19640382434e-05 0)
(0.000960811675546 2.7843284437e-05 0)
(0.00100869204947 2.99247512566e-05 0)
(0.00105379625787 3.02194980323e-05 0)
(0.00109764792381 2.89994557337e-05 0)
(0.00114028624518 2.71793139924e-05 0)
(0.0011839184856 2.69791287789e-05 0)
(0.00122591975357 2.63305268218e-05 0)
(0.00126364523669 2.47587899177e-05 0)
(0.00129770425042 2.34972420198e-05 0)
(0.00132804734834 2.37590309361e-05 0)
(0.00136084241074 2.35837148092e-05 0)
(0.00139500199116 2.23980796023e-05 0)
(0.00142634519253 2.32642511372e-05 0)
(0.00145733692124 2.37073081315e-05 0)
(0.00149604241797 2.43891824645e-05 0)
(0.00153429107755 2.61713925123e-05 0)
(0.00155719262565 2.56256298943e-05 0)
(0.00159366228827 2.44743832249e-05 0)
(0.00164003616008 2.57799617964e-05 0)
(0.00168231405108 3.23536981594e-05 0)
(0.00171637477356 3.36719112514e-05 0)
(0.00174758452419 2.48185062343e-05 0)
(0.00177444180416 1.89011924931e-05 0)
(0.00179453484823 1.66814387757e-05 0)
(0.00181089223705 1.42595145347e-05 0)
(0.00182285352673 1.19680273328e-05 0)
(0.00182877785586 8.81538108427e-06 0)
(0.0018292599188 6.1567184261e-06 0)
(0.00182536080115 8.22762466986e-06 0)
(0.00182341376046 1.54476574744e-05 0)
(0.00184088130663 1.5234688024e-05 0)
(0.00183414241404 -4.24583129321e-06 0)
(0.00181767245293 -1.30219084285e-05 0)
(0.00177888447113 -2.00316443742e-05 0)
(0.0016863778013 -3.63534318375e-05 0)
(0.00159157364707 -3.18651662747e-05 0)
(0.00154186229553 -1.91751737619e-05 0)
(0.00152047518166 -2.53661360095e-05 0)
(0.00141557688473 -3.03614868669e-05 0)
(0.00135865334936 -1.35725886784e-05 0)
(0.00128616028363 -2.83287982466e-05 0)
(0.00136264767962 -8.78483608014e-05 0)
(0.00105803552384 -8.74517643243e-05 0)
(0.000853647431434 -5.77538907028e-05 0)
(0.000757268975605 -3.89151745997e-05 0)
(0.000696199815328 -3.64617977388e-05 0)
(0.000646774727933 -3.57722505019e-05 0)
(0.000594391940316 -3.64213796204e-05 0)
(0.00052581801002 -3.7845589364e-05 0)
(0.000454499238857 -3.77190108869e-05 0)
(0.000377826081603 -3.53134630889e-05 0)
(0.000307589098011 -3.31338909331e-05 0)
(0.000257949596358 -3.29050556581e-05 0)
(0.000184625135645 -2.50148964953e-05 0)
(0.000152936621372 -2.08567329065e-05 0)
(9.68978271419e-05 -1.24550539689e-05 0)
(9.57705184301e-05 -1.54970819991e-05 0)
(4.02249103809e-05 -1.01020907564e-05 0)
(2.95865069584e-05 -1.82054480843e-05 0)
(1.97262616704e-05 0.000100175257187 0)
(8.51241621753e-05 0.000113393280619 0)
(0.00014891850893 0.000104248184607 0)
(0.000189739430134 8.34965928645e-05 0)
(0.000278342838657 8.28709454886e-05 0)
(0.000363441835022 5.96632391724e-05 0)
(0.00041458587002 3.78895557207e-05 0)
(0.000450188536674 5.07614499283e-05 0)
(0.00048849109873 6.7495669385e-05 0)
(0.000531819312432 6.67274530197e-05 0)
(0.000573807914422 6.34478780086e-05 0)
(0.000613031126483 6.3696152548e-05 0)
(0.000650374106079 5.85124580221e-05 0)
(0.000685294198964 5.10581996621e-05 0)
(0.00072136177275 4.83075367968e-05 0)
(0.000757867989384 5.85598501065e-05 0)
(0.000795739458841 6.28616237298e-05 0)
(0.000827129669376 4.62746129242e-05 0)
(0.000827438344793 3.40508358688e-05 0)
(0.000857993438242 3.53584987302e-05 0)
(0.000900517927083 5.0262681507e-05 0)
(0.000950677781465 6.95378500987e-05 0)
(0.00100864711963 7.49190701466e-05 0)
(0.00105908137549 6.87967343806e-05 0)
(0.00109038842925 6.39345148449e-05 0)
(0.00113953907351 6.27056177112e-05 0)
(0.00118609609486 6.01718473256e-05 0)
(0.00122516317244 5.58670421726e-05 0)
(0.0012612335859 5.15054093761e-05 0)
(0.00129592109359 4.82256859951e-05 0)
(0.00132888123182 4.76281157908e-05 0)
(0.00135312345604 4.61705905486e-05 0)
(0.00138648832947 4.17020558259e-05 0)
(0.00141580233525 4.48577956486e-05 0)
(0.00144236439311 4.94607053852e-05 0)
(0.00149205767535 4.72568729409e-05 0)
(0.00152318099018 5.0276390775e-05 0)
(0.0015473085831 5.39482262896e-05 0)
(0.00159164876637 5.25151951019e-05 0)
(0.00165180902751 5.00574131293e-05 0)
(0.00169740894782 4.35597381354e-05 0)
(0.00165007659368 3.45022720356e-05 0)
(0.00164323222264 3.0133231045e-05 0)
(0.00167531903855 2.86509768061e-05 0)
(0.00169913931449 2.6754391515e-05 0)
(0.00172823615757 2.33601106114e-05 0)
(0.00175864853847 1.77104603684e-05 0)
(0.00177806852573 1.02407539492e-05 0)
(0.00180180366546 2.27920451177e-06 0)
(0.00181545983298 -4.07493915488e-06 0)
(0.00180351777088 -6.4693420579e-06 0)
(0.00175084525287 -9.26663699509e-06 0)
(0.00170463519493 -1.51663360582e-05 0)
(0.00181595809218 -3.52158396052e-05 0)
(0.00175808696329 -7.2809044213e-05 0)
(0.00170582406309 -9.66765861917e-05 0)
(0.00172123455669 -9.07723655384e-05 0)
(0.00168988402416 -7.74530810245e-05 0)
(0.00164145941953 -8.97369821645e-05 0)
(0.00159721552428 -0.000108411275177 0)
(0.00157433339604 -0.000125342957754 0)
(0.00125637785096 -0.000133781809712 0)
(0.00135074587193 -0.000243245686514 0)
(0.00105980039733 -0.000255817076423 0)
(0.0008662996928 -0.000193275040968 0)
(0.000720837052414 -0.000132135498068 0)
(0.000640573530505 -9.82964369321e-05 0)
(0.000617860007288 -9.17157005466e-05 0)
(0.000569355601837 -9.90472788176e-05 0)
(0.00051271306309 -0.00011060576 0)
(0.000437528925728 -0.000114314698068 0)
(0.00035917596284 -0.00010699691881 0)
(0.00028274367535 -9.00194192029e-05 0)
(0.000241384860182 -8.24500244656e-05 0)
(0.00019554173434 -7.20287266086e-05 0)
(0.000157064649325 -6.14809609485e-05 0)
(0.000121615585958 -4.92582087518e-05 0)
(9.17209485288e-05 -4.57703059472e-05 0)
(5.53026263964e-05 -4.50115979881e-05 0)
(2.48473198096e-05 -6.97495203014e-05 0)
(2.92787869615e-05 0.000173813289902 0)
(8.24022450105e-05 0.000189936878663 0)
(0.000126557493663 0.000179304547497 7.97545331467e-29)
(0.000219721411401 0.000184664938525 -7.58003672696e-29)
(0.000308620451538 0.000184992105734 -6.84596684677e-29)
(0.000361326507793 0.000150327022377 6.291990543e-29)
(0.000398245623818 8.3618337103e-05 -6.37835797295e-29)
(0.000435146873467 9.15412454861e-05 6.29407785799e-29)
(0.000475853299659 0.00011171655341 0)
(0.000521994715914 0.000115163817781 0)
(0.00056782501665 0.000109869058041 0)
(0.000608503277689 0.0001031404091 0)
(0.00064558503645 9.48094509429e-05 0)
(0.00067940129316 8.97058900921e-05 0)
(0.000714504035473 8.77251010679e-05 0)
(0.000750707684323 8.05549363356e-05 0)
(0.000684067007599 6.08073497881e-05 0)
(0.00066830935576 4.95827286392e-05 0)
(0.000699008981536 5.82787656831e-05 0)
(0.000759919925124 8.78484615782e-05 0)
(0.000888292812955 0.000123046591758 0)
(0.00096490204238 0.000134358802325 0)
(0.000995381210156 0.000127056841016 0)
(0.00104549461591 0.000118193593272 0)
(0.00109793197478 0.000113014371283 0)
(0.00114022059524 0.000109451937744 0)
(0.00117975973431 0.000102955863112 0)
(0.00121890571681 9.58305152252e-05 0)
(0.00125543596566 8.95753097186e-05 0)
(0.00128795958629 8.500476306e-05 1.2891708294e-28)
(0.00132397737596 8.1079333679e-05 -1.25114353188e-28)
(0.00134155439426 7.75615621189e-05 0)
(0.00137012127577 7.40377104747e-05 0)
(0.00141815743066 7.26595722865e-05 0)
(0.00141060970066 8.2722308051e-05 0)
(0.0014596958103 9.09214037697e-05 0)
(0.0015270307069 8.89509242372e-05 0)
(0.00152521736695 9.33888394227e-05 0)
(0.00157752288805 0.00010400800136 0)
(0.00164686637495 9.86901099159e-05 0)
(0.00169512511258 7.09325367586e-05 0)
(0.00172343128892 4.99002164079e-05 0)
(0.00174912987696 5.18426961866e-05 0)
(0.00177412538883 5.58911380239e-05 0)
(0.00179453846059 5.44279041472e-05 0)
(0.00181095742036 4.98111533671e-05 0)
(0.00182397979609 4.10438060299e-05 0)
(0.00183367516198 3.01622765146e-05 0)
(0.00184027272662 1.71188539764e-05 0)
(0.00184350100726 -2.50208236189e-07 0)
(0.00184345492238 -1.85156107141e-05 0)
(0.00183942510588 -2.69191674872e-05 0)
(0.00182848553553 -2.06292582719e-05 0)
(0.0017907579101 -4.57253572398e-05 0)
(0.00173342305635 -8.97309424502e-05 0)
(0.00173337082234 -0.000107107028353 0)
(0.00171706741284 -0.000110538630764 0)
(0.00167311365018 -0.000119418845121 0)
(0.00161761551721 -0.000137466679695 0)
(0.00155620710497 -0.000169834271258 0)
(0.0014723523339 -0.000235750953582 0)
(0.00137397803902 -0.000307556553957 0)
(0.00130808437633 -0.000456100502208 0)
(0.000984752750298 -0.000441827281319 0)
(0.000749824159023 -0.000298684223785 0)
(0.000677552640144 -0.000212423039086 0)
(0.000635801694252 -0.000168269593958 0)
(0.000578571214873 -0.000152033499402 0)
(0.000522262332862 -0.000162449936218 0)
(0.000458953491314 -0.000178182215508 0)
(0.000386213912242 -0.000179367583679 0)
(0.000319876579184 -0.000163717282818 0)
(0.000273935021266 -0.000145726695183 0)
(0.000232284769382 -0.000132925229615 0)
(0.000186379300074 -0.000119318331919 0)
(0.000142920250347 -0.000102446600676 0)
(0.000105078398042 -8.55980517437e-05 0)
(7.65163945618e-05 -8.23238852287e-05 0)
(5.10750811062e-05 -9.70490340904e-05 0)
(1.25859721594e-05 -9.27487094183e-05 0)
(2.8333990749e-05 0.00026057198224 0)
(3.76854765679e-05 0.000173475319692 0)
(0.000103133662277 0.000271871969136 0)
(0.000191869182106 0.000275659402425 0)
(0.000264771424535 0.000234488653459 0)
(0.000148434597156 8.98626808175e-05 0)
(0.000185564722401 9.24659826274e-05 0)
(0.000354261410408 0.000173317977868 0)
(0.000443857638265 0.000185510340106 0)
(0.000501348424972 0.000170670900457 0)
(0.000555550338831 0.000158908070642 0)
(0.000601039299662 0.000145247713089 0)
(0.000639516233409 0.000131956859635 0)
(0.000666484277065 0.000110899598198 0)
(0.000631040664989 7.87423736994e-05 0)
(0.000600855022983 5.66404444793e-05 0)
(0.000607861838321 5.53499998311e-05 0)
(0.000657072131524 8.42862874132e-05 0)
(0.000762005529495 0.000134764464519 0)
(0.000869893830062 0.000186092447476 0)
(0.00091073217974 0.000197170248729 0)
(0.00095373196605 0.00018595109409 0)
(0.00100352114717 0.000175399773337 0)
(0.00104915706755 0.000167319142755 0)
(0.00109139357801 0.000158334131332 0)
(0.00113129372648 0.000149271810983 0)
(0.00116907639059 0.000140999929318 0)
(0.00121118308838 0.000132866143178 0)
(0.00124333402881 0.000124437191544 0)
(0.00128383468375 0.000117880821591 0)
(0.00130326483468 0.000110965031424 0)
(0.00134385288588 0.000104511366133 0)
(0.00134462951167 9.53418585683e-05 0)
(0.00137832262261 0.000100257958827 0)
(0.00144336619782 0.000116411507671 0)
(0.00144471580769 0.000130093879432 0)
(0.00150892449956 0.000137230883493 0)
(0.00157919197084 0.000143578534681 0)
(0.00161953099995 0.000150723000629 0)
(0.00165422664479 0.000139193255682 0)
(0.00168896011281 0.00011113667799 0)
(0.00172028596283 8.74322742116e-05 0)
(0.00174863739346 7.8734477205e-05 0)
(0.00177386299135 7.56576689629e-05 0)
(0.00179458201476 7.0536841393e-05 0)
(0.00181131460188 6.22849494779e-05 -1.20108515684e-28)
(0.00182461836135 5.08414516315e-05 1.21010761385e-28)
(0.00183457458866 3.68507920379e-05 0)
(0.00184116734267 2.03518629015e-05 0)
(0.00184411443561 1.29031551263e-06 0)
(0.00184274134421 -1.78886881677e-05 0)
(0.00183490301729 -3.43257437848e-05 0)
(0.00181745608943 -5.2904097179e-05 0)
(0.00178870706739 -8.41141643605e-05 0)
(0.00175738150267 -0.00011331091802 0)
(0.0017294015735 -0.000131740487342 0)
(0.00169359556109 -0.000152050937962 0)
(0.00164095176976 -0.000177237585203 -2.3900693181e-28)
(0.00157087586423 -0.000211388963781 2.76318281514e-28)
(0.00148134000442 -0.000263500715877 0)
(0.00136755778807 -0.000340577796736 0)
(0.00123725187533 -0.000446873298004 0)
(0.00112174631218 -0.000600264508173 0)
(0.000962919614883 -0.000624124829707 0)
(0.000799721836011 -0.00045904999105 0)
(0.000645343279324 -0.000285717367621 0)
(0.000575410888868 -0.000222768828871 0)
(0.000524200023259 -0.000211651549897 0)
(0.000471841663443 -0.00022394967086 0)
(0.000422184437981 -0.000246156441841 0)
(0.000361823177969 -0.000249298943671 0)
(0.000301379671712 -0.000228796477284 0)
(0.000245779677185 -0.000201702352817 0)
(0.000187609277084 -0.000173656201245 0)
(0.000144833436952 -0.000157160631691 0)
(0.000106707077669 -0.000144404637454 0)
(7.0019816935e-05 -0.000121410993709 0)
(3.83398722862e-05 -8.96783720998e-05 0)
(2.71913825342e-05 -0.000104992492594 0)
(8.77339089987e-06 -0.000116769589529 0)
(1.15725973702e-06 0.000257445057562 0)
(1.82898631635e-05 0.000211476742352 0)
(9.33102418589e-05 0.000357606732644 0)
(0.000162300060413 0.000331210308334 0)
(0.00016996646301 0.000214974054381 0)
(0.000133858871252 0.00012049807871 0)
(0.000232000892755 0.000199846553934 0)
(0.000362347899105 0.000286652006594 0)
(0.000413652615379 0.000261054685421 0)
(0.00047616812821 0.000232250605685 0)
(0.000533922596469 0.000216636254579 0)
(0.000582450030936 0.000192838350496 0)
(0.000588216467539 0.000141535862384 0)
(0.000538923088703 8.72414379478e-05 0)
(0.000554354225242 7.04155277264e-05 0)
(0.000596754914864 8.20368833667e-05 0)
(0.000669712168673 0.000119094529744 0)
(0.000763028983126 0.000176263653323 0)
(0.000833691645647 0.00022083718187 0)
(0.000857816107865 0.000230561692475 0)
(0.000899670383332 0.000234928388453 0)
(0.00095200604898 0.000234583060672 0)
(0.000997078238746 0.000224299674334 0)
(0.00104054370715 0.000211250844245 0)
(0.00108122398513 0.000199068907451 0)
(0.00111870708817 0.000189177814832 0)
(0.00116190774552 0.000179780056004 0)
(0.00119138301889 0.000168943901568 0)
(0.00123865252475 0.000159859021827 0)
(0.00125442335645 0.000148146368879 0)
(0.00130572961533 0.000140576185683 1.23132535851e-28)
(0.00128950020775 0.000127632317426 -1.15141653637e-28)
(0.00134862663624 0.000129238665666 0)
(0.00140375652185 0.000137467200142 0)
(0.00141270704494 0.000153094815066 0)
(0.00148833369919 0.000180579006973 0)
(0.0015394462153 0.000196987689562 0)
(0.00158283782348 0.000194345896612 0)
(0.00161975442606 0.00018479798161 0)
(0.00165335202004 0.000168713015316 0)
(0.0016870904881 0.000144698210841 0)
(0.00171937336825 0.000121958705401 0)
(0.00174870237636 0.000107786260007 0)
(0.00177427819186 9.86114831552e-05 0)
(0.00179549692003 8.91001958373e-05 0)
(0.0018127923488 7.72253549692e-05 0)
(0.00182654482767 6.2531922139e-05 0)
(0.00183675336966 4.51310608587e-05 0)
(0.00184314452466 2.49323580422e-05 0)
(0.00184515198154 1.98854432891e-06 0)
(0.00184177667004 -2.26214628104e-05 0)
(0.00183113597355 -4.82243167999e-05 0)
(0.00181128190982 -7.70968539803e-05 0)
(0.00178234424325 -0.000111057555654 0)
(0.00174861398557 -0.000143495887495 0)
(0.00171127164736 -0.000173140660076 0)
(0.00166254718017 -0.0002077506074 0)
(0.0015939777412 -0.00025199316041 0)
(0.00150119988585 -0.000309292859272 0)
(0.00138356016367 -0.000383979813806 0)
(0.00124749428676 -0.000477318223115 0)
(0.00111338047335 -0.000588324554245 0)
(0.000996899687633 -0.000707289240127 0)
(0.000923619480474 -0.000744176126573 0)
(0.000799592506204 -0.000594297727916 0)
(0.000654126178762 -0.000406898973949 0)
(0.000560964138267 -0.000315269580067 0)
(0.000483642721383 -0.000280973791341 0)
(0.000420166321066 -0.000281414623971 0)
(0.00036833665352 -0.000300546830032 0)
(0.000315568795273 -0.000311745585771 0)
(0.000255332253032 -0.000290320042825 0)
(0.000192063193933 -0.000244925130015 0)
(0.000147298263849 -0.000218651336661 0)
(0.000106281615283 -0.000203069316482 0)
(6.87906065349e-05 -0.000183410865113 0)
(4.03202943453e-05 -0.000140530918535 0)
(2.3565395838e-05 -0.000109868207101 0)
(1.27876801624e-05 -0.000126047172106 0)
(2.39613257132e-06 -0.000125188183669 0)
(-1.69338992753e-06 0.00023919947161 0)
(2.30288822762e-05 0.000257197574123 0)
(9.41934875379e-05 0.000406512027882 0)
(0.00013104180923 0.000337575805136 0)
(9.6749331071e-05 0.000166417535147 0)
(0.000133749763521 0.00017219939136 0)
(0.000292165874857 0.000326329237985 0)
(0.000346582249347 0.00034526131636 0)
(0.000391025950738 0.000318000926231 0)
(0.000445871695356 0.000293648886819 0)
(0.00050187076511 0.000258404092231 0)
(0.000466617846727 0.000179974464807 0)
(0.000426373797684 0.000109882803212 0)
(0.000464423496491 9.78290715553e-05 0)
(0.000514947772315 0.000115665226696 0)
(0.000608973412671 0.000160777339338 0)
(0.000710961676341 0.00021297717641 0)
(0.000781484274681 0.000244052934467 0)
(0.000793786578849 0.000247561568045 0)
(0.000841365359245 0.000267394794616 0)
(0.000899034339252 0.000285189780594 0)
(0.000943039064188 0.000281798904646 0)
(0.000985425501132 0.00026898716371 0)
(0.00102594409147 0.000254390627879 0)
(0.00107152412281 0.000241578619962 0)
(0.0011090767477 0.000226348134937 0)
(0.00112887730089 0.000214739108949 0)
(0.00118904571282 0.000207503073487 0)
(0.00119238192894 0.000189198154162 0)
(0.00125948574284 0.000177781751695 0)
(0.00122361050233 0.000157379778538 0)
(0.00130556174099 0.000163425327225 0)
(0.0012836974958 0.000163463681556 0)
(0.00136766319477 0.000183356945621 0)
(0.00145084126868 0.000214305446587 0)
(0.00150348278432 0.000238713672944 0)
(0.00154473965481 0.00024136563303 0)
(0.00158265857419 0.000232705495459 0)
(0.00161810649595 0.000219041866157 0)
(0.00165237271049 0.000200975888758 0)
(0.00168616706381 0.000178213625423 0)
(0.00171871177821 0.00015534866445 0)
(0.00174860396842 0.00013706995632 0)
(0.00177470128792 0.000122490879149 0)
(0.00179666341563 0.000108364689395 0)
(0.00181469358901 9.26273376066e-05 0)
(0.0018290548745 7.43926677305e-05 0)
(0.00183953356782 5.32571078844e-05 0)
(0.00184553037226 2.88304379896e-05 0)
(0.00184625011657 9.22693787598e-07 0)
(0.00184061428198 -3.01945119959e-05 0)
(0.00182711804307 -6.44028627125e-05 0)
(0.00180456109396 -0.000102123057697 0)
(0.00177319641091 -0.000142516766572 0)
(0.00173431764482 -0.000183148048619 0)
(0.00168592419024 -0.00022664533948 0)
(0.00162078105665 -0.000280058614135 0)
(0.00153215387839 -0.000347487053004 0)
(0.0014191250551 -0.000429162806379 0)
(0.00128529960668 -0.000520814854739 0)
(0.00114630832269 -0.000617681967068 0)
(0.00102199866119 -0.000708068395534 0)
(0.0008657384256 -0.000744214900316 0)
(0.000890160804106 -0.000861827741078 0)
(0.000715872018229 -0.000685882980429 0)
(0.000593666956088 -0.000494421932081 0)
(0.000519037492752 -0.000404992543972 0)
(0.000438704885531 -0.000356864666089 0)
(0.000366005439393 -0.000340613833039 0)
(0.000315202451725 -0.0003631901772 0)
(0.000262479719429 -0.000378481749674 0)
(0.000198923614296 -0.000333608669054 0)
(0.000149298940113 -0.000288850580648 0)
(0.000106863565236 -0.00026687427337 0)
(6.43455143055e-05 -0.000244000508298 0)
(3.54170748594e-05 -0.000211112928743 0)
(1.75629925152e-05 -0.000152223047338 0)
(6.75071069446e-06 -0.000122646337468 0)
(4.81859254258e-07 -0.000133503975593 0)
(-5.94413258755e-07 -0.000127047000279 0)
(7.60565878125e-06 0.000259119874923 0)
(5.40435188239e-05 0.000336003379035 0)
(0.000122867870939 0.000440943482677 0)
(0.000134569166599 0.000410656207628 0)
(8.92479881806e-05 0.000208230844243 0)
(0.000193121204484 0.000304812444056 0)
(0.000300375182666 0.000398757797507 0)
(0.000328602119599 0.000386893994513 0)
(0.000370998600055 0.00036171344881 0)
(0.000399335908989 0.000332554077828 0)
(0.000468605407751 0.000283623022881 -2.91756777729e-28)
(0.000360732695186 0.000146344030429 1.70981211132e-28)
(0.000416852601327 0.000135624873621 0)
(0.000449743069783 0.000147877728392 0)
(0.000532382472974 0.000196645987337 0)
(0.000643992089659 0.000264610100795 0)
(0.00071890320576 0.000289226223378 0)
(0.000716557216838 0.000268241282992 0)
(0.000769215480316 0.000287580110126 0)
(0.000840482697007 0.000324149307457 0)
(0.000883966807354 0.000333483508109 0)
(0.0009290076191 0.000326377658904 0)
(0.000972925742142 0.000313298563416 0)
(0.00101508842048 0.000296390958935 0)
(0.00104780506046 0.000276100221767 0)
(0.00107120879684 0.000256589991587 0)
(0.00112708489155 0.000249529340819 0)
(0.0011186678977 0.00023550948156 0)
(0.00120235639402 0.000224498825738 0)
(0.00115766618875 0.000186178474912 0)
(0.00124667421459 0.000191144118985 0)
(0.00123210392178 0.000196119083801 -1.11233136987e-28)
(0.00131702385979 0.000215942720934 1.16489225536e-28)
(0.00136904678283 0.000251023565314 0)
(0.00146254668497 0.000284274575426 0)
(0.00150703158508 0.000288622368489 0)
(0.00154364907382 0.000280907200315 0)
(0.00157994488239 0.000268762554816 0)
(0.00161620409567 0.00025343406344 0)
(0.00165152863103 0.00023446093287 0)
(0.00168564839341 0.000211810073984 0)
(0.00171844614857 0.000188156470835 0)
(0.00174876775121 0.000166577855875 0)
(0.00177549105679 0.000147341302928 0)
(0.00179827925506 0.000128696344169 0)
(0.00181721910492 0.000108898620495 0)
(0.00183231258522 8.67453335073e-05 0)
(0.0018430331964 6.13296982592e-05 0)
(0.00184850209336 3.19023116849e-05 0)
(0.00184778606287 -1.99269394103e-06 0)
(0.00183981810583 -4.04314114047e-05 0)
(0.00182333442165 -8.32585312317e-05 0)
(0.00179736882218 -0.000130026461626 0)
(0.00176151822964 -0.00017989448357 0)
(0.00171482396677 -0.000233313658165 0)
(0.00165351181584 -0.000294852078624 0)
(0.00157137195667 -0.000370160526235 0)
(0.00146523334792 -0.0004600106409 0)
(0.00133969262746 -0.000558616862914 0)
(0.00120795734814 -0.000656266241518 0)
(0.00108328362017 -0.000742501660409 0)
(0.000974707701198 -0.000811446437512 0)
(0.000890778607362 -0.000878203098452 0)
(0.00084495930975 -0.000939291721639 0)
(0.000695933731955 -0.000795736877696 0)
(0.00052264547033 -0.000563706296199 0)
(0.00046873908345 -0.000486290464291 0)
(0.000397620403934 -0.00044348382767 0)
(0.000323323275249 -0.000422209788152 0)
(0.000263219723259 -0.000433183733851 0)
(0.000208383757331 -0.000424734781843 0)
(0.000155074449171 -0.000373090506345 0)
(0.000109765428143 -0.000341542347534 0)
(6.11435270812e-05 -0.00031379818582 0)
(2.23920109838e-05 -0.000278976963096 0)
(2.74715260744e-06 -0.000220527471579 0)
(-6.80426637294e-06 -0.000166557289643 0)
(-1.43282254397e-05 -0.00012987539246 0)
(-1.43064700555e-05 -0.000130860737728 0)
(-4.81710303958e-06 -0.000124768377319 0)
(1.65343197175e-05 0.000301069342399 0)
(7.73329204214e-05 0.000411846355941 0)
(0.000137033466033 0.0004558901184 0)
(8.26874024078e-05 0.000270907254904 0)
(9.24231217648e-05 0.000258421141671 0)
(0.000225452777626 0.000424793411589 0)
(0.000273661774823 0.000439429018443 0)
(0.000313500698688 0.00042753381298 0)
(0.0003347710395 0.00039018849931 0)
(0.000379054585187 0.000362194507314 0)
(0.000305625633416 0.000215037043411 0)
(0.000350299202206 0.000173006633505 0)
(0.000399486568204 0.000178303836612 0)
(0.000442718842195 0.00020948214495 0)
(0.000565065467442 0.000296323268565 0)
(0.000651988632157 0.000340177492509 0)
(0.000643512106032 0.000306381644039 0)
(0.000686124661321 0.000308827984623 0)
(0.000767792739243 0.000353200035626 0)
(0.000824585913949 0.000378063522332 0)
(0.000864786271066 0.000377987932345 0)
(0.00090587057939 0.000369123758836 0)
(0.000954053345271 0.000358818659283 0)
(0.000995000305164 0.000339392763098 0)
(0.00104086846719 0.000310743427909 0)
(0.00104506682065 0.000291150953956 0)
(0.00111331777896 0.000282776474297 0)
(0.00112082469959 0.000261838100735 0)
(0.00111929531523 0.000237235375969 0)
(0.0011600417753 0.000228285149924 0)
(0.0012592140931 0.00023862094259 0)
(0.00125540731247 0.000235310030145 0)
(0.00128827681646 0.000272266382175 0)
(0.00141387859961 0.000328308323266 0)
(0.00146086296222 0.000343383243194 0)
(0.00150168143598 0.00033305092745 0)
(0.00153981433585 0.000319335575148 0)
(0.00157680658177 0.000305211212522 0)
(0.00161399908679 0.000288944063112 0)
(0.00165048321172 0.000269133886638 0)
(0.00168533523648 0.000245816867903 0)
(0.00171846312841 0.000220844484537 0)
(0.0017492749928 0.000196369425133 0)
(0.00177680018562 0.000173065802485 0)
(0.00180059275806 0.000150117128433 -1.16105114439e-28)
(0.00182060643624 0.000126131633744 1.15784111395e-28)
(0.00183653953343 9.96452070072e-05 0)
(0.00184753231046 6.93045075292e-05 0)
(0.00185247354444 3.40579571864e-05 0)
(0.00185034189233 -6.72603605621e-06 0)
(0.00184004632543 -5.32675088895e-05 0)
(0.00182037062555 -0.000105401703087 0)
(0.00179022769586 -0.000162696492961 0)
(0.00174831523385 -0.000225232614868 0)
(0.00169211424359 -0.00029527840215 0)
(0.00161735044088 -0.000377384497048 0)
(0.00152041450207 -0.000474171541687 0)
(0.00140330106494 -0.000581419009775 0)
(0.00127597267165 -0.000688791321604 0)
(0.0011510629302 -0.000783081686028 0)
(0.00103605117292 -0.000852004014055 0)
(0.000941492434548 -0.000900286331792 0)
(0.000871535014085 -0.000944345330498 0)
(0.000815634306957 -0.00099172185744 0)
(0.00080049258429 -0.0010150174077 0)
(0.000525980979723 -0.000689747986527 0)
(0.00040774256683 -0.000564419549508 0)
(0.000336542435502 -0.000517020947304 0)
(0.000263847639674 -0.000487887063171 0)
(0.000209148728019 -0.000483220756712 0)
(0.00016413353752 -0.000461182319864 0)
(0.000116697975702 -0.000423272392568 0)
(6.3397259913e-05 -0.000397227222751 0)
(1.14905441547e-05 -0.000359527752443 0)
(-2.23536647799e-05 -0.00030397987226 0)
(-3.56601016977e-05 -0.000230074144655 0)
(-4.23882610987e-05 -0.000175967603069 0)
(-4.23566450166e-05 -0.000133490188653 0)
(-3.36718776946e-05 -0.000118786769872 0)
(-1.23036805776e-05 -0.000111192373675 0)
(2.33056177063e-05 0.000354425957747 0)
(8.81330511653e-05 0.000473124206348 0)
(0.000112019125895 0.000466084138626 0)
(7.76217130751e-05 0.000296187127186 0)
(0.000130755927439 0.000342160928392 0)
(0.000231525567003 0.000481003685231 0)
(0.000247557762583 0.000476710671186 0)
(0.000298690556845 0.000464529210646 0)
(0.00028233541055 0.000385125209311 0)
(0.000370274501976 0.000405818289703 0)
(0.000288842561632 0.000236395259852 0)
(0.000349424565725 0.000219258279361 0)
(0.000387730707238 0.000229324800928 0)
(0.000467892435475 0.000298406851534 0)
(0.000574103262118 0.000385233096389 0)
(0.000628440157084 0.000386061994658 0)
(0.000617025319661 0.000341047704506 0)
(0.000680564639432 0.000370415964218 0)
(0.000750961767263 0.000414121858917 0)
(0.000800578688516 0.000427480899574 0)
(0.000846369262497 0.000422798782438 0)
(0.000882482706105 0.000409688194715 0)
(0.000927079442881 0.000398127291833 0)
(0.000953991928495 0.000375436492958 0)
(0.000973992518657 0.000334486980827 0)
(0.00104764509552 0.000326367139276 0)
(0.00101216919104 0.000303468237312 0)
(0.00113741490094 0.000300361703761 0)
(0.00109488664162 0.000273993466234 0)
(0.00121374651543 0.000288561278258 0)
(0.00117176084745 0.000267540717793 0)
(0.00129303553768 0.000295732666735 0)
(0.00135355507922 0.000348024932236 -1.25547093885e-28)
(0.0014116684042 0.000388362136922 1.28356299129e-28)
(0.00145466062486 0.000388841255892 0)
(0.00149509559628 0.000374894523617 0)
(0.00153506031048 0.000358998090205 0)
(0.00157349901994 0.000343100850926 0)
(0.00161153323438 0.000325684599647 0)
(0.00164893152232 0.000304925225833 0)
(0.00168480126427 0.000280517416896 0)
(0.00171870357712 0.000253863276249 0)
(0.00175020768572 0.000226682680465 0)
(0.00177870048675 0.000199762794829 0)
(0.00180378352339 0.000172748345399 0)
(0.00182510616055 0.000144455510913 0)
(0.00184202195741 0.000113211550481 0)
(0.00185343635711 7.72980997896e-05 0)
(0.00185807438066 3.54252541971e-05 0)
(0.00185475775508 -1.31377534425e-05 0)
(0.00184229219059 -6.87254073221e-05 0)
(0.00181938388648 -0.000131391621134 0)
(0.00178461243437 -0.000201269417799 0)
(0.00173579941634 -0.00027951031022 0)
(0.00166944372747 -0.000368857562938 0)
(0.00158209806983 -0.000471884265376 0)
(0.0014738889569 -0.00058636867263 0)
(0.00135223217583 -0.000704251675463 0)
(0.00122927313054 -0.00081613796752 0)
(0.00110978476565 -0.000907887344127 0)
(0.000995646043145 -0.000959123967349 0)
(0.000899132052068 -0.0009784687366 0)
(0.000830887230164 -0.001000005486 0)
(0.000783743151128 -0.00103238337285 0)
(0.000777242545121 -0.00106687726759 0)
(0.000659997606969 -0.000948191237139 0)
(0.000382695727796 -0.000655964108957 0)
(0.000270308759093 -0.000595811377281 0)
(0.000212090536031 -0.000556686689162 0)
(0.000167855467148 -0.000526154933226 0)
(0.000127858502072 -0.000500629011032 0)
(7.62779198801e-05 -0.00048376001146 0)
(1.23376432568e-05 -0.000458056887625 0)
(-4.33197086119e-05 -0.000403916330921 0)
(-7.54611516136e-05 -0.000323357629269 0)
(-8.79970954873e-05 -0.000240955761912 0)
(-9.03849012583e-05 -0.000176726647533 0)
(-7.97823035487e-05 -0.000126475181897 0)
(-5.55150060668e-05 -9.51830219132e-05 0)
(-2.01754997783e-05 -7.90358172834e-05 0)
(2.86559864775e-05 0.000421074333087 0)
(9.80665041372e-05 0.000517592639649 0)
(0.000100821361776 0.000457925592092 0)
(7.76952099847e-05 0.0003173724611 0)
(0.000169065535795 0.000463763408712 0)