/*--------------------------------*- C++ -*----------------------------------*\
| =========                 |                                                 |
| \\      /  F ield         | OpenFOAM: The Open Source CFD Toolbox           |
|  \\    /   O peration     | Version:  v1806                                 |
|   \\  /    A nd           | Web:      www.OpenFOAM.com                      |
|    \\/     M anipulation  |                                                 |
\*---------------------------------------------------------------------------*/
FoamFile
{
    version     2.0;
    format      ascii;
    class       volScalarField;
    location    "332";
    object      p;
}
// * * * * * * * * * * * * * * * * * * * * * * * * * * * * * * * * * * * * * //

dimensions      [0 2 -2 0 0 0 0];


internalField   nonuniform List<scalar> 
6400
(
0.154107326981
0.154109558288
0.15411586197
0.15412794467
0.15414533047
0.154167793696
0.154195407104
0.15422924228
0.154269468477
0.154316365332
0.154375170082
0.15444857536
0.154533388275
0.154629684284
0.154739296024
0.154864316632
0.155005481152
0.155162206558
0.155332966663
0.155513126817
0.155696633159
0.155883524753
0.15607940815
0.156290778256
0.156522122282
0.156773283591
0.157040830314
0.157322371383
0.157617793081
0.157927945041
0.158253544629
0.158593112576
0.158940926709
0.159291346315
0.159642417459
0.159990634781
0.160335233098
0.160683804017
0.161035543761
0.161379882535
0.161718247148
0.162065722385
0.162430479597
0.16280474151
0.163179558262
0.163549685025
0.163911157193
0.164261668417
0.164599285493
0.16492248115
0.165230525162
0.16551940923
0.165783361545
0.166014130956
0.166212057137
0.166385661709
0.166532819787
0.166645460287
0.166723156742
0.166773710896
0.166802334042
0.16681211715
0.166809153291
0.166791655579
0.166749040633
0.166662356251
0.166529033812
0.166374139484
0.16622436622
0.166087938194
0.165962394575
0.165841810697
0.16572225603
0.165609809533
0.165503897552
0.16540811532
0.165325304949
0.165269443723
0.165232741886
0.165217157058
0.154103968171
0.154106305154
0.154111904055
0.154123724791
0.154142551396
0.154166439339
0.154194550058
0.15422687334
0.154265347025
0.154312254721
0.15437075737
0.154442974685
0.154528048851
0.15462535903
0.154735324112
0.154859096264
0.154999645224
0.155157141717
0.155329585111
0.155510979642
0.155692749323
0.155877365401
0.156072348801
0.156283255958
0.156514884736
0.156766923169
0.157034668577
0.15731676114
0.157613234411
0.157924249534
0.158249787425
0.158589715614
0.15893877945
0.159289313706
0.159640739915
0.159989275434
0.160333407444
0.160682364119
0.161035064793
0.161379184746
0.161714253498
0.162060795692
0.162430372563
0.162808001076
0.163184240833
0.163555889194
0.163918714048
0.164270895734
0.164609859424
0.164932312939
0.165237758931
0.165527611624
0.16579907235
0.166032044371
0.166231171166
0.166408436277
0.166553416654
0.16666213798
0.166738927713
0.166788600139
0.166815592858
0.166825376945
0.166821376213
0.166803262054
0.166760662153
0.166674639315
0.16653885468
0.166380994901
0.166228618823
0.166089412794
0.165961234682
0.165837634894
0.165713903759
0.165595979285
0.16548806607
0.165392270628
0.165313275408
0.165257268514
0.165220667444
0.165208193548
0.154094698813
0.154098651831
0.154103536212
0.154114349057
0.154132606881
0.154159625033
0.154190632047
0.154222035072
0.154258331711
0.154304034209
0.154361861635
0.154433468129
0.154518704499
0.15461672861
0.1547269001
0.154847423617
0.154986034778
0.155149783303
0.155325973139
0.155506412568
0.15568398605
0.155862480188
0.156055702527
0.156269113694
0.156501437553
0.156752907571
0.157021961721
0.157306067802
0.157604224859
0.157916684882
0.158243090627
0.158584051284
0.158935815027
0.159285789925
0.159635586208
0.159986817902
0.160330469433
0.160677242188
0.161030616166
0.161377185563
0.161718946731
0.162069970109
0.162436979581
0.162812813979
0.163189501584
0.163562329434
0.163927608747
0.164282655678
0.164624857521
0.164951817455
0.165262131608
0.165553836688
0.165821331646
0.166057791261
0.166266404203
0.166445223033
0.16658754918
0.166694646894
0.166770115333
0.166818173889
0.166843873214
0.166852532595
0.166846663981
0.166828832019
0.166785251425
0.166695469641
0.166559974943
0.166400272342
0.166240499153
0.166093143253
0.165956947465
0.165825452043
0.165697255996
0.165576546105
0.165465162332
0.165367695975
0.165289923735
0.165233754931
0.165198059757
0.165184827996
0.154082029464
0.154085967667
0.154089738603
0.154099642222
0.154115684935
0.154142569837
0.154183131986
0.154214478172
0.154247910406
0.154291479446
0.15434825708
0.154419531514
0.154505181361
0.154602940673
0.154713461902
0.154839956826
0.154984229549
0.155145790496
0.155314514195
0.155483070578
0.155655399738
0.155837234892
0.156032706057
0.156246251038
0.15647958449
0.156732618106
0.157003765563
0.157290247905
0.157590891949
0.157905225598
0.158234105777
0.158576793153
0.158930118663
0.15928498082
0.15963149788
0.159978060308
0.160326130508
0.160671789371
0.161019730953
0.161368891948
0.161718865569
0.162076011677
0.162444527495
0.16282084064
0.163199010279
0.163574284795
0.163942889929
0.164301829842
0.16464843034
0.164980257047
0.165295128163
0.165590198985
0.165861132308
0.166103880469
0.166317046999
0.166496702103
0.166639245193
0.166745808635
0.166820052467
0.166866511923
0.166890244785
0.166895928634
0.166887722404
0.166869472483
0.166826200011
0.166737447466
0.166597128145
0.166428323965
0.166256446347
0.166096756471
0.16595115168
0.165813998793
0.165681018533
0.165550052986
0.165427682497
0.165327114266
0.1652508766
0.1651895409
0.16514663518
0.165128825988
0.154062384106
0.154062756188
0.154067437809
0.154077585663
0.154095448722
0.154120709581
0.154157227826
0.154192416757
0.154228415182
0.154272776333
0.154328867482
0.154400085147
0.154486730821
0.154590398396
0.15470929691
0.154837572891
0.154976469248
0.155125777155
0.155283203556
0.15544860621
0.155622259845
0.155805035619
0.156001569811
0.156216455389
0.156451246442
0.156706276269
0.156979584762
0.157269130444
0.157572821284
0.157890632764
0.158221811825
0.15856909996
0.158928113583
0.159279239175
0.159624794538
0.159968844431
0.160311424378
0.160657433785
0.161007747863
0.161361284201
0.161718050588
0.162081193681
0.1624530406
0.16283160475
0.16321249811
0.163591319156
0.163964264262
0.164328176624
0.164680319084
0.165018165748
0.16533913264
0.165640072269
0.165917125177
0.16616651361
0.16638472786
0.166567245281
0.166711325105
0.166818404828
0.166892383338
0.16693797196
0.166960107899
0.166963409707
0.166952079803
0.166930888793
0.166883258262
0.166792709528
0.166648989034
0.166469991474
0.166281915003
0.166105847655
0.165948613174
0.165801918233
0.16565290777
0.165502155903
0.165368621168
0.165262587066
0.165176716818
0.165097833023
0.165047301244
0.165028776818
0.154025650369
0.154025150873
0.154033673681
0.154044027417
0.154063708373
0.15409101716
0.154124521313
0.154160568962
0.154200204361
0.15424651611
0.154301417512
0.154373590664
0.154469388664
0.154581569608
0.154700524753
0.154823715253
0.154953408091
0.155093944904
0.155247295408
0.155411158303
0.15558257285
0.15576491991
0.155962827243
0.15617971426
0.156416609843
0.156673166659
0.156949801858
0.157242470114
0.157550640528
0.157872267621
0.158209098995
0.15855929972
0.158917656594
0.159274333998
0.159614391713
0.159950474867
0.160291907589
0.160640264462
0.160994449972
0.161353200634
0.161716436729
0.162085771935
0.162462355205
0.162844810858
0.163229769322
0.163613284438
0.163991642838
0.164361651528
0.164720576989
0.165065864868
0.165394764707
0.165703986772
0.165989621432
0.166247315621
0.16647225126
0.166659672559
0.166807426328
0.166917165412
0.166992779485
0.167038893748
0.167060175929
0.16706154538
0.167047030046
0.167017794366
0.166964965851
0.166865872521
0.166713036584
0.16652267377
0.166317327388
0.16612292329
0.165949394698
0.165780905671
0.165603173702
0.165431067084
0.165283500875
0.165162943982
0.165054326821
0.164957823674
0.164900144747
0.164875180949
0.153969321626
0.153973335677
0.153988323383
0.154004016658
0.154020516288
0.154047842976
0.154083391669
0.154120733319
0.154163191291
0.154211811109
0.154270618628
0.15434609218
0.15444978813
0.154562263755
0.154677462145
0.154793015319
0.154916458326
0.1550553966
0.15520794741
0.155366814912
0.155535201777
0.155718003359
0.155917136189
0.156135291618
0.156374426217
0.156635781683
0.15691350144
0.15721057328
0.157523736293
0.157853787469
0.158195736978
0.158546349464
0.158906019023
0.159255744502
0.159592866995
0.159926745843
0.16026928848
0.160621060525
0.160979924194
0.161344324201
0.161714081369
0.162089995184
0.162472449782
0.162860239244
0.163250597868
0.163639993721
0.164024893325
0.164402204165
0.164769305167
0.165123716993
0.165462652398
0.165782669803
0.166079489948
0.166347966255
0.16658242685
0.166778030191
0.16693288967
0.167048507464
0.167128207782
0.167175857144
0.167195799459
0.167193557947
0.167173377174
0.167133122081
0.1670771518
0.166968011563
0.166797304173
0.166589883653
0.166366098235
0.166149477846
0.165947074975
0.165742149793
0.165531058577
0.165335303534
0.165165159111
0.165016462018
0.164877151114
0.164765509705
0.164701316956
0.164669794559
0.153903259493
0.153911494015
0.153929143507
0.153952692164
0.153970952171
0.153998808227
0.154033333609
0.154072613069
0.154118781763
0.154165545446
0.154231597725
0.154319006433
0.154421372579
0.154531532009
0.154640161713
0.154748668707
0.154871693695
0.155012361206
0.155160305803
0.155314357863
0.155480592502
0.155663574743
0.155864026799
0.156084952197
0.156327546682
0.1565919874
0.156874932068
0.157171423699
0.157493912756
0.157835632847
0.158178524326
0.158525421672
0.158883280335
0.159228074328
0.159560874567
0.159897985475
0.160244186311
0.160600013188
0.160963920917
0.161334365958
0.161710949843
0.162093970812
0.162483316596
0.162877737112
0.163274782342
0.163671255829
0.164063877372
0.164449785648
0.164826592367
0.165191997909
0.165543274965
0.165876843369
0.166187965111
0.166470766156
0.16671897368
0.166927593202
0.167094464571
0.167220062957
0.167305940043
0.167354412109
0.167370100302
0.16735998995
0.167328335107
0.167277056641
0.167211227398
0.167103027038
0.16691398783
0.166680144366
0.166428952048
0.166178565441
0.165933870965
0.165684697218
0.165438809871
0.165211075808
0.165004841657
0.164814979675
0.164647374382
0.164521331907
0.16445230489
0.164420115961
0.153831074771
0.153842052176
0.153860162882
0.153879677811
0.153903726409
0.153939033497
0.153973176469
0.154013593467
0.154066077749
0.154117489258
0.154181136151
0.154276865941
0.154381933421
0.15448717855
0.1545902099
0.154698450554
0.154821185803
0.154959511106
0.15510322374
0.155254766204
0.155419511845
0.155601538473
0.155801711588
0.156024250918
0.156275856521
0.156541786145
0.156830422591
0.157136644236
0.157460874649
0.15780305556
0.158152695727
0.15850709377
0.158849544372
0.159187034128
0.159523235883
0.159865269209
0.160216239588
0.160576803776
0.160946156572
0.16132306563
0.161706960063
0.162097737097
0.16249492966
0.162897174066
0.163302143667
0.163706893046
0.164108459385
0.16450433283
0.16489246572
0.165270851091
0.165636951311
0.165987163628
0.166316442644
0.166618397156
0.166886323285
0.167114718052
0.167300074633
0.167440077899
0.167532502676
0.167578397736
0.167585862475
0.1675664028
0.167524078637
0.167457580012
0.167366699126
0.167249767669
0.167064321995
0.166797323532
0.166505857484
0.166208069819
0.165909457969
0.165612831265
0.165327521137
0.165054597882
0.164794377082
0.164555494609
0.164361511001
0.164224096533
0.164149160218
0.164117929406
0.153751787487
0.15376481755
0.153786001977
0.153805039123
0.153830637214
0.153866624946
0.153901983968
0.153942450517
0.153993882517
0.154059640358
0.154127903563
0.154223650484
0.154329513561
0.154430623743
0.154528205346
0.154639189077
0.154765671629
0.154898956965
0.155037557647
0.155187125141
0.15535182172
0.155533937592
0.155734249076
0.15595534527
0.156214104108
0.156489636328
0.156773623345
0.15708955622
0.157419655224
0.157767469965
0.158119767034
0.158470502413
0.158810387434
0.159142200626
0.159480992356
0.159828533901
0.160185080203
0.160551111254
0.160926398226
0.161310194476
0.161701949643
0.162101236092
0.162507239847
0.162918433826
0.163332525403
0.163746761263
0.164158523876
0.16456575196
0.164966848776
0.16536022067
0.165743711192
0.16611399662
0.16646608791
0.166793533257
0.167089304254
0.167346670185
0.167558646246
0.167716674206
0.167812310237
0.167850157142
0.167847879825
0.167823160681
0.167773567167
0.167688320611
0.167562793288
0.167402850695
0.167208957358
0.166946516988
0.166596233444
0.166232815241
0.165874282937
0.165530737554
0.165199384372
0.164862753247
0.164523867955
0.164225566259
0.16400221463
0.163853096754
0.163766781702
0.163730018622
0.15366204279
0.153674671366
0.153697498381
0.153721133294
0.153753785937
0.153784412763
0.153819846932
0.153862168387
0.153906614223
0.153979220292
0.154059674613
0.15415591074
0.154261934196
0.154362546225
0.154459047631
0.154570339579
0.154698393657
0.154828474621
0.154963337485
0.155110098495
0.155274488317
0.15545839328
0.155663661226
0.155884826066
0.156137758222
0.156429035972
0.15672247421
0.157037986501
0.157369793762
0.157710087471
0.158071781825
0.158424204452
0.158759620229
0.159091696661
0.159434518603
0.159787723358
0.160150376322
0.160522623586
0.160904464136
0.161295597991
0.161695755939
0.162104341586
0.162520154828
0.162941416412
0.163365803465
0.163790738742
0.164213973691
0.164633937619
0.16504954404
0.165459761351
0.165863102293
0.166256983904
0.166637252474
0.166998174858
0.167332677559
0.167631376316
0.167879024051
0.168055565486
0.168149104027
0.168176111243
0.168166870884
0.168147474729
0.168100198537
0.167996331418
0.167826835327
0.167599735771
0.167337493546
0.167054669411
0.166696133687
0.166253002873
0.165829122979
0.165442042629
0.165064276953
0.164638779439
0.164175761758
0.163791304001
0.16353209466
0.163369890377
0.163270362543
0.163222790012
0.153559402319
0.153569270524
0.153586478041
0.153617139146
0.153659290119
0.153689202569
0.153725077725
0.153772109747
0.15381506339
0.153884094937
0.153973853844
0.15407269871
0.15417796696
0.154279561595
0.154381848637
0.154495046967
0.154621333019
0.154748153391
0.154880647939
0.155024733283
0.155186002225
0.155367808967
0.15558256478
0.155816424535
0.156063870215
0.156355543265
0.156658425672
0.156970248129
0.157315222063
0.157662186056
0.158013835843
0.158358681499
0.158693996007
0.15903401552
0.159383003262
0.15974233478
0.160111660205
0.160490918029
0.160880126159
0.161279174344
0.16168822764
0.162106885644
0.162533569364
0.162966047287
0.163401902512
0.163838762565
0.164274760084
0.164708773336
0.165140228335
0.165568760436
0.165993872473
0.166414484287
0.16682852182
0.167232594469
0.167620074839
0.167975624942
0.16826600917
0.168462134418
0.168554854943
0.168572992004
0.168559025974
0.168566458287
0.168545973674
0.168428578781
0.16820054441
0.167880492557
0.167505342671
0.167128680379
0.166719836655
0.166237168493
0.165765617171
0.165353905585
0.164956725357
0.164407049714
0.163709079664
0.163183685765
0.162895679549
0.162742104945
0.162644912731
0.162592151702
0.153443537911
0.153450768552
0.153459697771
0.153494428208
0.153536750505
0.153573030281
0.153612091397
0.153664372797
0.15371337799
0.153780859994
0.153874428046
0.153974716845
0.154078550492
0.154177655211
0.15428756028
0.154409303137
0.154533612304
0.154657604002
0.154788734923
0.154931576352
0.155089513905
0.155265326425
0.155479418797
0.155735593002
0.155990178199
0.156268894818
0.156585929509
0.156904825243
0.157239952392
0.157592265675
0.157945037517
0.158286250742
0.158622080055
0.158968738159
0.159325151193
0.159691649832
0.160068318312
0.160455241393
0.16085279735
0.161260806059
0.161679444297
0.162108801053
0.162547329727
0.162992249565
0.163440815683
0.16389085969
0.164340912455
0.164790204863
0.16523849056
0.165686065087
0.166133727014
0.166582804571
0.167035416735
0.167493236376
0.167950974621
0.168380607368
0.168717530406
0.168948186014
0.169058565588
0.169073391803
0.169030325712
0.169110929062
0.169184422866
0.169075599184
0.168763546129
0.168296289363
0.167741494027
0.167185156318
0.166648737013
0.166113760742
0.165647798394
0.1652783857
0.16497807176
0.164266963458
0.163027610748
0.162261693488
0.162017854247
0.161956086393
0.161887444137
0.161829483842
0.15331540128
0.153323793081
0.153337550545
0.153361873769
0.153398954732
0.15343933992
0.153482541989
0.153537239978
0.153596590142
0.153665241085
0.153761353694
0.153862714479
0.153966153441
0.154063804561
0.154174394315
0.15430400521
0.154430630908
0.154555072294
0.154686197534
0.154828948851
0.154985515545
0.155156683068
0.155365987662
0.155633279297
0.155903857888
0.156180329376
0.156502260646
0.156830014974
0.157160428598
0.157510901658
0.157855222146
0.158194466657
0.158540335567
0.158895558359
0.159260086063
0.159634655515
0.160019853591
0.160415359174
0.160821767806
0.161239725327
0.161669237449
0.162110258766
0.162561516419
0.163020009525
0.163482588619
0.163947170672
0.164412651607
0.164878336045
0.165343962853
0.165810200012
0.166279139745
0.166755565431
0.167248349721
0.167769004274
0.168314820011
0.168834397938
0.169219459569
0.169563183737
0.169767581118
0.169778509678
0.169573753749
0.169887246023
0.170184408234
0.170018178267
0.169494791115
0.168818804847
0.168056351933
0.16724498457
0.166494340551
0.16587822684
0.16532371866
0.165073408524
0.165380020348
0.164443696007
0.161977296157
0.160798330127
0.160836987462
0.161057007813
0.161006627056
0.160897607894
0.153171494233
0.153180933081
0.153203676963
0.153218623325
0.153249426645
0.153290909135
0.153337429894
0.153396045056
0.153468022865
0.153537091106
0.153634314101
0.153736884278
0.15384110487
0.153940360809
0.154051833768
0.154184439661
0.154313522055
0.154440185812
0.154572590528
0.15471570775
0.154872186039
0.15504231489
0.155243699492
0.155507265585
0.155803120706
0.156088340897
0.156397998985
0.156744354206
0.157084662088
0.157415704992
0.15775235142
0.15809545557
0.158449127326
0.158813156417
0.159186882114
0.15957064774
0.15996499093
0.160370349553
0.160786929025
0.161215522852
0.161656999074
0.162111122465
0.162576368254
0.16304958779
0.163527432462
0.164007974618
0.164490342918
0.164973627859
0.165456724149
0.165939690852
0.166425694239
0.166923514493
0.167450367736
0.168034514608
0.168675907632
0.169313920573
0.169789574813
0.170536324914
0.171004352051
0.170790789742
0.169272295104
0.169266461128
0.169632547924
0.169564851225
0.169083844033
0.168421460144
0.167697670719
0.166982727476
0.166325720921
0.165780937206
0.165512098632
0.165868431634
0.167279752336
0.167030187813
0.159344416874
0.157344556326
0.158924837975
0.160181501232
0.160043520977
0.159739249102
0.153008750658
0.153017367521
0.153038168188
0.153055005984
0.153083255059
0.153126149137
0.153174267972
0.15323240248
0.153316415293
0.153394030406
0.15349180953
0.153596276799
0.153702684873
0.153806043233
0.153920027987
0.154053452682
0.154184133561
0.154313622381
0.154448043071
0.15459201401
0.154748475312
0.154919112468
0.15511576987
0.155371691122
0.155682719783
0.155985224713
0.156287020808
0.156626656948
0.156978140031
0.157313654825
0.157644964621
0.157989039759
0.15834899817
0.15872193304
0.159105293015
0.159498708466
0.159903191343
0.160319147307
0.160747205027
0.161187890527
0.161642427416
0.162111097742
0.162592047044
0.163081474647
0.16357572401
0.164073588942
0.16457497301
0.165077791771
0.165577792669
0.166073428013
0.166569455569
0.167076354328
0.167615795935
0.168240363141
0.168951432004
0.169821167814
0.169945406629
0.170193844714
0.17052176463
0.170476124679
0.169966232787
0.169498177004
0.169457565669
0.169234657587
0.168720048158
0.168049620579
0.167320297465
0.166583952142
0.16589140972
0.165284668045
0.164843948637
0.164608255077
0.164283315481
0.161711170222
0.158990143519
0.159523384588
0.161334900698
0.161333791054
0.159258655685
0.15798349644
0.152829293905
0.152836978521
0.15285823562
0.152875112235
0.152903331896
0.152946502315
0.152995731832
0.153050586234
0.153135779838
0.153227428341
0.153330472888
0.153438323457
0.153548468544
0.153659538986
0.15377650696
0.153910518316
0.154042696203
0.154175592299
0.154312529992
0.154457902545
0.15461465075
0.154785172891
0.154978759764
0.155225835884
0.155536616449
0.155866838187
0.156177619753
0.156504278705
0.156849966311
0.157185866659
0.157519048645
0.15787023279
0.158238235258
0.158620296738
0.159013922593
0.159418222885
0.159833586928
0.160261211124
0.160701747338
0.161156073893
0.161625194531
0.162109738157
0.162608367417
0.163116474712
0.163629025594
0.164145615151
0.164667932174
0.165192203596
0.165708465265
0.166212506928
0.16671047879
0.167209088579
0.167710593758
0.168269788558
0.168897764959
0.169402242715
0.169850057435
0.170028253798
0.170162478155
0.17006486474
0.169647620968
0.169158430552
0.168837797487
0.168457074065
0.167894060201
0.167192756112
0.16642016177
0.165623251586
0.16484359381
0.164100317373
0.163391617483
0.162678075184
0.161784131762
0.160294137845
0.158994951295
0.158824634817
0.159197388142
0.160123896225
0.158456835694
0.158045402287
0.152635304049
0.152641469687
0.152658512933
0.152677625772
0.152710185528
0.152753485137
0.152805207461
0.152858705126
0.15294250171
0.153042443587
0.153150187877
0.153260947917
0.153373409067
0.153494936473
0.153618225146
0.153752800031
0.153887054074
0.154024853407
0.154165197154
0.154312642772
0.154470203872
0.154640341797
0.154831527369
0.155071443367
0.155377742843
0.155725207014
0.156055810602
0.156377955334
0.156711446764
0.157042595021
0.157379967213
0.157737927987
0.158114230828
0.158505378578
0.158909923917
0.159326833552
0.159755038215
0.160195228612
0.160649747312
0.161119025623
0.161604432766
0.16210732139
0.162626330092
0.163155828098
0.163687723758
0.164224280331
0.164775074335
0.165330768194
0.16586116561
0.166366114177
0.166859231036
0.167336837969
0.16773368875
0.168118375372
0.168581859746
0.169052201104
0.169444976943
0.16959330103
0.169602321234
0.169437511066
0.169063811059
0.168584273601
0.168107408726
0.167574659108
0.166915051676
0.166135623117
0.165276734451
0.164373788536
0.163452747968
0.162530226443
0.161563077861
0.160513281292
0.159346340142
0.15796573537
0.156575452507
0.155772560514
0.155585774396
0.156046861219
0.155919872279
0.157373842615
0.152429406442
0.152434337992
0.152446249804
0.152468125356
0.152504420341
0.15254744769
0.152600894045
0.152657295052
0.152737280348
0.152841316202
0.152951974976
0.153064589863
0.153177065312
0.153303806199
0.15343894518
0.153576664481
0.153713654065
0.153857138341
0.154003432821
0.154154520297
0.154314174534
0.154483797215
0.154673106216
0.154906993944
0.155203769836
0.155549151199
0.155901466389
0.156234553973
0.156564723192
0.156893274889
0.157229432471
0.157592369465
0.157976919018
0.158375106448
0.158792060228
0.159223021635
0.159664097736
0.160118786336
0.160589225395
0.1610762276
0.161580207056
0.16210280113
0.162644083187
0.163201095564
0.163768685309
0.164345547991
0.164929658078
0.165499110428
0.166033260538
0.166546168754
0.167045163767
0.16753438364
0.167774771856
0.167971451389
0.168289382174
0.168706183822
0.168958832299
0.169011472053
0.168912647588
0.168658425003
0.168238008827
0.167695205115
0.16708468223
0.166400067352
0.165609794138
0.164710685104
0.163722752938
0.162667691218
0.161560331143
0.16041000342
0.15916204899
0.157755767226
0.156187120137
0.154432723284
0.152611302622
0.15107074859
0.149905964148
0.149203232982
0.149108458362
0.150671344365
0.152212397466
0.152216958936
0.152227216911
0.152252550191
0.152288556453
0.152329407404
0.152380343032
0.152441581728
0.152517581101
0.152623296611
0.152736121792
0.152850529122
0.152964126457
0.15309117997
0.153236231768
0.15338047
0.153521960833
0.153670230313
0.153823174584
0.153980364017
0.154144788531
0.154314701938
0.154502402757
0.154731969017
0.155019573181
0.15535823389
0.155719440525
0.15606637627
0.156392894022
0.156719573808
0.157063080093
0.157428605596
0.157819247993
0.158228222144
0.158658368424
0.159103214318
0.159558682147
0.16002948719
0.160517608737
0.161024306051
0.161550100821
0.162096805036
0.162668878643
0.163271044865
0.163893829641
0.164512572582
0.16511854194
0.165701755198
0.16625732365
0.166802395623
0.167369020003
0.168164296484
0.167878964892
0.167886321351
0.168099721115
0.168295202803
0.168358178501
0.16827677284
0.168055852561
0.167689671292
0.167176464082
0.166537091548
0.165799209314
0.164967443475
0.164029849831
0.162982125784
0.16183152177
0.160586893257
0.159250845346
0.157814964386
0.156253443309
0.154460164594
0.152378734172
0.150014341075
0.147385070584
0.144562931288
0.141505540356
0.138237425019
0.135159478631
0.138248386095
0.151981651616
0.151986260411
0.151996972146
0.152026699755
0.152061768225
0.152099935637
0.152146195274
0.152210486219
0.152281111556
0.152386891722
0.152501942803
0.152618321
0.152734128511
0.152863061027
0.153013340683
0.153164296893
0.153311898895
0.153465399038
0.153623516111
0.153787287637
0.153959087942
0.154131348719
0.154317439399
0.154543887015
0.154823722703
0.155153978969
0.15551636282
0.155871434935
0.156207865364
0.156534133292
0.156882786719
0.157254361226
0.157647085111
0.15805876049
0.158498604315
0.158961974871
0.159436050574
0.159925534624
0.16043256861
0.16096054239
0.161511909359
0.162089357996
0.162707015088
0.163372168878
0.164048938542
0.16470621127
0.165348259635
0.165986809024
0.166595820043
0.16715992703
0.167703659729
0.167862295749
0.168017785405
0.16782221301
0.167768507914
0.167751510373
0.167641293671
0.16740730025
0.167043387882
0.166543256552
0.165905804578
0.165140614835
0.164261074596
0.163271616583
0.162167264945
0.160943004319
0.159597333166
0.158127973766
0.156526301812
0.154772791775
0.152838245257
0.150602015596
0.147920525812
0.144740810924
0.140941357042
0.136248264484
0.13000204542
0.120639026537
0.103233969519
0.0606444222821
0.15173135154
0.151735898131
0.151748862503
0.151783767429
0.151818531182
0.151854726312
0.151898579549
0.151962698031
0.152027600924
0.152131270389
0.152248322112
0.152366656912
0.152484772316
0.15261562539
0.152769084879
0.152926135575
0.153081942515
0.15324141997
0.153403754624
0.153573263592
0.153753795169
0.153931428268
0.154115739712
0.154339414747
0.154613540663
0.154934404177
0.155291459244
0.1556438784
0.155993874712
0.156334688082
0.156684579779
0.157055818504
0.157456479115
0.157879814958
0.15832101389
0.15879505021
0.159289957505
0.159800745487
0.160331447138
0.160883337918
0.16146165221
0.162081703324
0.162767339262
0.163501414318
0.16422928725
0.164944515134
0.165684568867
0.166486571869
0.167204138591
0.167619037249
0.167659196028
0.167706164291
0.167665990819
0.167463920316
0.167276395794
0.167078517419
0.16679370059
0.166393511653
0.165870331875
0.165218250006
0.164434639896
0.163522460229
0.162486730767
0.161328433336
0.160042798602
0.158622256737
0.157057993146
0.155337532651
0.153440343026
0.15133288163
0.148962296764
0.146251102699
0.142976940524
0.138906556761
0.133820078168
0.127203044339
0.117957608391
0.103861185753
0.0802614183902
0.0413406289776
0.151453371052
0.151457865966
0.151473009542
0.151512999536
0.151547186815
0.151584714982
0.15162791343
0.151689562043
0.15175180472
0.151854701471
0.15197387506
0.152094046624
0.152214311074
0.152346548782
0.152501358838
0.152662173013
0.15282810355
0.152995013188
0.153161783536
0.153336287357
0.153524776489
0.15371196885
0.15389581484
0.154115391855
0.154385765191
0.154698573214
0.1550483316
0.155394879193
0.15574503218
0.156104572492
0.156471188975
0.156845503262
0.157236932704
0.15766587798
0.158123633406
0.158607411146
0.159118874105
0.159651305601
0.160206457546
0.160786459084
0.161401613003
0.162084385753
0.162848765285
0.163646360674
0.164445096888
0.165282241111
0.166228637903
0.167429637927
0.167726069709
0.167663724508
0.167542416896
0.16742758447
0.167257177574
0.166984005759
0.166651562972
0.166268323662
0.165800965536
0.16522624528
0.164534296295
0.16371868427
0.162775077469
0.16170191381
0.160498426793
0.159161318941
0.1576830152
0.156051954671
0.15425255222
0.152263137941
0.150052148532
0.147573129881
0.144757973037
0.141510259324
0.137645488589
0.132808968985
0.126618979245
0.118548337393
0.107575666997
0.091968862057
0.0686421243744
0.036805833509
0.151140891791
0.151147284052
0.151163196917
0.151202372424
0.151239403242
0.15128348485
0.15132980912
0.151391747621
0.151458285601
0.1515563209
0.151676937942
0.151798891929
0.151921287707
0.152054598264
0.152209503808
0.152370379282
0.152542371206
0.152720069271
0.152894067278
0.153074789336
0.153269105239
0.153468732793
0.153660412754
0.153871616849
0.154138300652
0.154445099257
0.154787471915
0.155129136048
0.155473908861
0.155841844978
0.156226020649
0.156616267248
0.157009112822
0.157431711743
0.157892646321
0.158391303435
0.158921227703
0.15947660869
0.160055666667
0.160666938698
0.161337841387
0.162100684358
0.162938204313
0.163808102191
0.164718901507
0.165745243771
0.166873852997
0.167602931093
0.167696485036
0.167501552797
0.167278143028
0.167041019249
0.166734889262
0.166333557247
0.165850636381
0.16529414675
0.164649259401
0.163899792728
0.163036223837
0.162051907141
0.160941191843
0.159699259114
0.158320938335
0.156798687829
0.155121028508
0.153271745876
0.151228896496
0.148962622014
0.146431534706
0.143577658929
0.140319481289
0.136541941786
0.132085277263
0.126638613094
0.119694175798
0.110653944729
0.0987397750032
0.0826964206112
0.0602825816489
0.0321836504422
0.15079854873
0.150808393963
0.150824187711
0.150856640143
0.150899668867
0.150950583489
0.151002777138
0.151069236393
0.151145468788
0.15123764528
0.151356821101
0.151479809977
0.151604389044
0.151738945168
0.151894146834
0.152055532247
0.152227813222
0.152414674598
0.152598807379
0.152788143504
0.152988230095
0.153199751419
0.153409042262
0.153622695085
0.153875796713
0.154175415219
0.154510519572
0.154847928074
0.155185753472
0.155552986922
0.155945380365
0.156357116568
0.156763324607
0.157182449629
0.157639513804
0.158142483504
0.158687749041