/*--------------------------------*- C++ -*----------------------------------*\
| =========                 |                                                 |
| \\      /  F ield         | OpenFOAM: The Open Source CFD Toolbox           |
|  \\    /   O peration     | Version:  v1806                                 |
|   \\  /    A nd           | Web:      www.OpenFOAM.com                      |
|    \\/     M anipulation  |                                                 |
\*---------------------------------------------------------------------------*/
FoamFile
{
    version     2.0;
    format      ascii;
    class       volVectorField;
    location    "847";
    object      Ua;
}
// * * * * * * * * * * * * * * * * * * * * * * * * * * * * * * * * * * * * * //

dimensions      [0 1 -1 0 0 0 0];


internalField   nonuniform List<vector> 
6400
(
(2.24885328538e-05 2.89459556363e-05 0)
(6.01296066108e-05 2.14691728904e-05 0)
(8.74071478743e-05 1.72818044247e-05 0)
(0.000116570105584 1.56771338287e-05 0)
(0.00013939834772 1.14871602286e-05 0)
(0.000157570716242 8.40612611103e-06 0)
(0.000170770037848 7.62650380334e-06 0)
(0.000183943283549 1.01928908167e-05 0)
(0.00020850267813 1.3324922581e-05 0)
(0.000234276708439 1.36711335029e-05 0)
(0.00025207864779 1.32484232308e-05 0)
(0.000278003480857 1.42719853735e-05 0)
(0.000304234650262 1.4474198506e-05 0)
(0.000329317154473 1.42009970736e-05 0)
(0.000353165713422 1.45457108703e-05 0)
(0.000379011793302 1.60593497441e-05 0)
(0.000408536857668 1.70168009084e-05 0)
(0.000437870591199 1.70138225902e-05 0)
(0.000466021706799 1.68253246727e-05 0)
(0.000495821925909 1.74957124339e-05 0)
(0.000530267404559 1.99928613544e-05 0)
(0.000568609308123 2.22981302815e-05 0)
(0.000608376155106 2.30440719202e-05 0)
(0.000647323696971 2.30954521939e-05 0)
(0.000685963090312 2.28983228289e-05 0)
(0.000725009907335 2.27386818887e-05 0)
(0.000765095322933 2.30138440952e-05 0)
(0.000805331946533 2.32045635938e-05 0)
(0.000844981289811 2.31460649085e-05 0)
(0.000884089155825 2.31693486249e-05 0)
(0.000922655790906 2.35300613374e-05 0)
(0.00096232490126 2.37783143082e-05 0)
(0.0010032900382 2.38744660573e-05 0)
(0.00104433662587 2.45673967094e-05 0)
(0.00108620509759 2.51657727269e-05 0)
(0.0011307784405 2.56016451861e-05 0)
(0.00117440180782 2.59840024678e-05 0)
(0.00121375692571 2.56487601706e-05 0)
(0.00125630173348 2.49622273829e-05 0)
(0.00130110319748 2.449044009e-05 0)
(0.00134170072148 2.46250917258e-05 0)
(0.00137621851702 2.37498021337e-05 0)
(0.0014084086409 2.12101004023e-05 0)
(0.00143970706965 1.93387720017e-05 0)
(0.00146870110212 1.83173142395e-05 0)
(0.00149536935723 1.72106597484e-05 0)
(0.00151948798399 1.59673413112e-05 0)
(0.00154052780844 1.44169161671e-05 0)
(0.00155846940924 1.28377008653e-05 0)
(0.00157312320806 1.22402805239e-05 0)
(0.00158581271639 1.28217119752e-05 0)
(0.00159946070239 1.19470900399e-05 0)
(0.00160879596784 7.6552702951e-06 0)
(0.00161550894482 4.88494437065e-06 0)
(0.00161276501398 2.16642574109e-06 0)
(0.00159473897405 -2.11036549293e-06 0)
(0.00157550097966 -1.58184186145e-06 0)
(0.00156875837953 1.32413402427e-06 0)
(0.00156488673775 2.61273775635e-07 0)
(0.00154275172718 -5.5985925546e-07 0)
(0.00152451937754 3.78405249196e-06 0)
(0.00151381513669 2.04956586569e-06 0)
(0.00155398289905 -1.28915166527e-05 0)
(0.00153177356516 -3.99471935399e-05 0)
(0.00133137403085 -4.7811119172e-05 0)
(0.001182304243 -3.88182791817e-05 0)
(0.00110781324474 -4.04735125786e-05 0)
(0.00105339484496 -4.1856537245e-05 0)
(0.000995190820382 -4.49064293204e-05 0)
(0.000905401450441 -4.99129439377e-05 0)
(0.000806387339146 -5.31400773188e-05 0)
(0.000688271739975 -5.29110407742e-05 0)
(0.00057412123314 -5.29136500251e-05 0)
(0.000496760565192 -5.63428491657e-05 0)
(0.000361675530359 -4.40703470315e-05 0)
(0.000309555792452 -3.7923824368e-05 0)
(0.000199647569133 -2.29849604648e-05 0)
(0.000203607031192 -3.06786392705e-05 0)
(8.61757783166e-05 -2.10699693888e-05 0)
(6.41572437564e-05 -3.85730538668e-05 0)
(8.74779457342e-06 4.09650981373e-05 0)
(3.72422652281e-05 4.54338876286e-05 0)
(6.45040625411e-05 4.07337646903e-05 0)
(8.30611001656e-05 3.35735797561e-05 0)
(0.000118289353064 3.36519238208e-05 0)
(0.000149581947415 2.60965861587e-05 0)
(0.000170482722298 2.08713268022e-05 0)
(0.000188625083313 2.69070819842e-05 0)
(0.000209102694297 3.3432205742e-05 0)
(0.000231910529422 3.45458560631e-05 0)
(0.000254867612343 3.45146693709e-05 0)
(0.000277799121765 3.54489172314e-05 0)
(0.00030125472781 3.54851555052e-05 0)
(0.000325100998661 3.52999406872e-05 0)
(0.000350520049885 3.67667555935e-05 0)
(0.000377479138506 4.17979432283e-05 0)
(0.000406047647195 4.52818942642e-05 0)
(0.000434008469422 4.31059048257e-05 0)
(0.000455709134192 4.16608713117e-05 0)
(0.00048750576888 4.48475941153e-05 0)
(0.000525131236526 5.16096505061e-05 0)
(0.000565087190122 5.82288770009e-05 0)
(0.00060663922645 5.99828389745e-05 0)
(0.000646360557985 5.84977910097e-05 0)
(0.000682191922133 5.7498653315e-05 0)
(0.000722593702473 5.78949503642e-05 0)
(0.000763418182282 5.8200488897e-05 0)
(0.000803031806387 5.80377669353e-05 0)
(0.000842403551403 5.7797366248e-05 0)
(0.000881967247217 5.78412927974e-05 0)
(0.000921291471116 5.84578789445e-05 0)
(0.000959222699023 5.87536385214e-05 0)
(0.00100024132228 5.86115275661e-05 0)
(0.0010412329142 6.05448036957e-05 0)
(0.0010825464741 6.28100837184e-05 0)
(0.0011296019943 6.29734307886e-05 0)
(0.00117229437448 6.31935018034e-05 0)
(0.00121178926572 6.30125376028e-05 0)
(0.00125610631855 6.13728636888e-05 0)
(0.00130423642547 5.86050036321e-05 0)
(0.00134558427127 5.40066258282e-05 0)
(0.00136609386819 4.85880225165e-05 0)
(0.00139049478634 4.48683639565e-05 0)
(0.0014236787173 4.25066432392e-05 0)
(0.00145395408106 4.00591859351e-05 0)
(0.00148303690239 3.70364038708e-05 0)
(0.00151033320671 3.32733675621e-05 0)
(0.00153357595579 2.88796173716e-05 0)
(0.00155581706346 2.42305102023e-05 0)
(0.00157434066648 1.98704917725e-05 0)
(0.00158504843532 1.63462128209e-05 0)
(0.00158401459612 1.30290925989e-05 0)
(0.00158647148898 9.14845637285e-06 0)
(0.00161554726623 1.87958745371e-06 0)
(0.00160840086477 -1.03168943974e-05 0)
(0.00159666185151 -1.89847188043e-05 0)
(0.00159840983841 -1.88350446807e-05 0)
(0.0015922548799 -1.6954838267e-05 0)
(0.00158036664755 -2.05169872846e-05 0)
(0.00156960385509 -2.44916306258e-05 0)
(0.00155577955471 -2.59830983591e-05 0)
(0.00150477208537 -3.19078028131e-05 0)
(0.00154180128082 -7.33023111085e-05 0)
(0.00149604585768 -0.000149910696862 0)
(0.00132599985772 -0.000182595417636 0)
(0.00112063705392 -0.000149583107562 0)
(0.00101465364442 -0.000114455637078 0)
(0.00100676093533 -0.000108623101778 0)
(0.000954502791246 -0.000125797992276 0)
(0.000887464363656 -0.000152935287565 0)
(0.000779622856298 -0.000169607008949 0)
(0.000657812675292 -0.000167392703943 0)
(0.000530422932834 -0.000145308205139 0)
(0.000469767684037 -0.000139334729819 0)
(0.00039228041571 -0.000126524159507 0)
(0.00032503354115 -0.000112019495431 0)
(0.000258958711806 -9.28243746967e-05 0)
(0.000200643151124 -9.18505552885e-05 0)
(0.00012239602446 -9.45533675294e-05 0)
(5.62525105337e-05 -0.000151694943988 0)
(1.16896087202e-05 7.05724203913e-05 0)
(3.41748070801e-05 7.5324012445e-05 0)
(5.36161883009e-05 7.03647690601e-05 7.07465576241e-29)
(8.85255386927e-05 7.0694791801e-05 -6.43056610089e-29)
(0.000121176412135 7.01567705058e-05 -5.5540503658e-29)
(0.000143706738381 5.98256110326e-05 5.0236201787e-29)
(0.000162036856919 4.20079363981e-05 -4.98763502224e-29)
(0.00018047848336 4.71742274111e-05 4.76693588657e-29)
(0.000201538325807 5.60793994322e-05 0)
(0.000224945577099 5.89243633465e-05 0)
(0.000248811838521 5.8995950482e-05 0)
(0.000271987587768 5.88199196062e-05 0)
(0.000295035450673 5.88578452296e-05 0)
(0.000318363363782 6.04375654398e-05 0)
(0.000344039111201 6.43981198943e-05 0)
(0.000371296425561 6.75363550716e-05 0)
(0.000371838274547 6.39753384041e-05 0)
(0.000383728219419 6.25468066962e-05 0)
(0.000414526975987 6.9411762812e-05 0)
(0.000458331685427 8.3437118756e-05 0)
(0.000520078467131 9.78317741278e-05 0)
(0.000565012534663 0.000102318124951 0)
(0.000599326560718 0.000100706958516 0)
(0.000638549699708 9.88774518769e-05 0)
(0.000679220704187 9.84762754689e-05 0)
(0.0007182219915 9.88822512073e-05 0)
(0.000757403997327 9.88998782745e-05 0)
(0.000797235905788 9.87493621211e-05 0)
(0.00083702171273 9.87553120558e-05 0)
(0.000876535640309 9.90705762648e-05 8.09141625965e-29)
(0.000916857491363 9.95434536385e-05 -7.80318034925e-29)
(0.000953415111783 9.9790343814e-05 0)
(0.000994131659017 0.000100616164785 0)
(0.00103987538706 0.000102781521873 0)
(0.00107445414467 0.000106760060564 0)
(0.00112218873918 0.000109694473012 0)
(0.00117280828825 0.000108756416169 0)
(0.00120807775816 0.000107617413731 0)
(0.0012533162103 0.000107379916779 0)
(0.00130214773977 0.000102550740319 0)
(0.00134368928363 9.17542482182e-05 0)
(0.00137766524798 8.19583750499e-05 0)
(0.00140948847442 7.77058969718e-05 0)
(0.00144087696722 7.49523714724e-05 0)
(0.0014701254197 7.09711581931e-05 0)
(0.00149678472052 6.59088953534e-05 0)
(0.00152094353664 5.970956671e-05 0)
(0.00154256452971 5.28329644783e-05 0)
(0.00156172398085 4.53187230454e-05 0)
(0.00157808760344 3.67414557856e-05 0)
(0.0015911568983 2.80496462164e-05 0)
(0.00160122675114 2.20314853353e-05 0)
(0.00160928678786 1.84617669703e-05 0)
(0.0016098209 7.22105611286e-06 0)
(0.00160241550213 -9.09081219452e-06 0)
(0.00160364112417 -1.80310611336e-05 0)
(0.00160225620552 -2.12983852248e-05 0)
(0.0015936414305 -2.47249573622e-05 0)
(0.00158117637093 -2.96723547533e-05 0)
(0.00156652570765 -3.62321640508e-05 0)
(0.00154381586827 -4.75550245907e-05 0)
(0.00152495293787 -7.02833651121e-05 0)
(0.00150060626471 -0.000155405214408 0)
(0.00137119937699 -0.00027273395398 0)
(0.00115006303396 -0.00028135215474 0)
(0.00105398108173 -0.000233280350213 0)
(0.00101478711641 -0.000190439645754 0)
(0.000948167525991 -0.000177961297885 0)
(0.00087904519182 -0.000205633287939 0)
(0.000795408949201 -0.00024481691017 0)
(0.000690973766534 -0.000262209105654 0)
(0.000593557425891 -0.000249915635968 0)
(0.000531023044559 -0.000230622866087 0)
(0.000469129295744 -0.000221020169136 0)
(0.000388991924881 -0.000209343316858 0)
(0.000308680546999 -0.000187231689337 0)
(0.000235890754464 -0.000162767371183 0)
(0.000177828630531 -0.000167666359646 0)
(0.000121994847149 -0.000211514018862 0)
(3.08209698864e-05 -0.000206436973021 0)
(1.06248527504e-05 0.000101401398164 0)
(1.687093801e-05 7.22401623908e-05 0)
(4.1653858323e-05 0.000103250515264 0)
(7.2816493293e-05 0.000103277619675 0)
(0.000103210651557 9.1942540648e-05 0)
(6.6786341445e-05 4.2956457955e-05 0)
(8.62565405583e-05 4.76926929435e-05 0)
(0.000153702883338 8.22846311497e-05 0)
(0.000186348317659 8.73264667918e-05 0)
(0.000212934801944 8.49449077137e-05 0)
(0.000238770604277 8.36978334487e-05 0)
(0.000262975491558 8.22231429278e-05 0)
(0.000286280727953 8.21546821248e-05 0)
(0.000307707525771 8.20807282259e-05 0)
(0.000314653193523 7.82783399107e-05 0)
(0.000321072630329 7.53274865815e-05 0)
(0.000339622805774 7.85415694157e-05 0)
(0.00037541843155 9.31051329386e-05 0)
(0.000430691022481 0.000116299916538 0)
(0.000482623300463 0.000136349975708 0)
(0.000517953419802 0.000142441958305 0)
(0.000554611835597 0.000141232207019 0)
(0.000593498580994 0.000139614978215 0)
(0.000632074650982 0.000138602384585 0)
(0.000670577193087 0.000137860740895 0)
(0.00070920005965 0.000137629741335 0)
(0.00074825488855 0.000137902166814 0)
(0.000788974317537 0.000138324844413 0)
(0.000828349687592 0.000138412759795 0)
(0.000869714207688 0.000139010077447 0)
(0.000907227846012 0.000139189441198 0)
(0.000949046826341 0.000139755207276 0)
(0.000983834962723 0.000139604521041 0)
(0.00102847063129 0.000144202814834 0)
(0.00107951715079 0.000151241746828 0)
(0.00111740645498 0.000154786077427 0)
(0.00116769646943 0.000155055681696 0)
(0.00121769769906 0.000153495064892 0)
(0.0012605382044 0.000150886574534 0)
(0.00130169761145 0.000143162442468 0)
(0.00134109057486 0.000130508374953 0)
(0.00137710468844 0.000118417306908 0)
(0.00141066335284 0.000110414744446 0)
(0.00144240417115 0.000104505657032 0)
(0.0014717195378 9.81335284812e-05 0)
(0.00149841950636 9.06737538508e-05 -6.5739355169e-29)
(0.00152257261912 8.21639668516e-05 6.59850643963e-29)
(0.00154417135678 7.28213076778e-05 0)
(0.00156320419394 6.2680986436e-05 0)
(0.0015794887907 5.17917623414e-05 0)
(0.00159270812091 4.09887809589e-05 0)
(0.00160254766002 3.11506485535e-05 0)
(0.00160861326019 2.04109790575e-05 0)
(0.00160983339628 5.68572571554e-06 0)
(0.00160809234345 -9.15078245503e-06 0)
(0.0016063141323 -1.98368497361e-05 0)
(0.00160205962856 -2.83008678554e-05 0)
(0.00159246348591 -3.65231135261e-05 -1.20576848075e-28)
(0.00157755649712 -4.58437299475e-05 1.38234611062e-28)
(0.00155625405679 -5.88441454669e-05 0)
(0.00152440059264 -8.24272318043e-05 0)
(0.00147803358135 -0.000140351368435 0)
(0.00138928344023 -0.000265852730759 0)
(0.00127580824316 -0.000395931180793 0)
(0.00118433562096 -0.000411692409854 0)
(0.00101337863411 -0.000306421982161 0)
(0.000923247740673 -0.000250247223688 0)
(0.000866940322419 -0.000250268327759 0)
(0.000804924257996 -0.000284597983744 0)
(0.000747097665516 -0.000337203978572 0)
(0.00066873470812 -0.00036116203722 0)
(0.000585192639673 -0.000344816879146 0)
(0.000499657919117 -0.000318178094248 0)
(0.000394690792764 -0.000289688387424 0)
(0.000318145024428 -0.000277115495108 0)
(0.000248026040994 -0.000267163975848 0)
(0.000173963957061 -0.000236344390941 0)
(9.94199964422e-05 -0.000186434332715 0)
(7.23682331449e-05 -0.000232885656418 0)
(2.42384460364e-05 -0.000267160078796 0)
(9.3288762452e-07 0.000102364211708 0)
(8.5997808584e-06 8.65021435282e-05 0)
(3.43255224163e-05 0.000130714738022 0)
(5.88191771936e-05 0.000124582047558 0)
(6.80826540121e-05 9.21928990067e-05 0)
(5.79993994732e-05 5.87168926024e-05 0)
(9.99736903433e-05 9.27535544581e-05 0)
(0.000145035922567 0.000122917988978 0)
(0.000168441254539 0.000118140633111 0)
(0.000196474203879 0.000112630620945 0)
(0.00022373677791 0.000110852046653 0)
(0.00024888202234 0.000108048932797 0)
(0.000263771870071 9.99554437414e-05 0)
(0.000261987165069 8.80973037109e-05 0)
(0.000279945575162 8.98437432922e-05 0)
(0.000310597285643 0.000101136449772 0)
(0.000352809052537 0.000119863065658 0)
(0.000400078588234 0.000143477987154 0)
(0.000440062594432 0.000162175288041 0)
(0.000470231078669 0.000170716508196 0)
(0.000505637105867 0.000176630418657 0)
(0.000544418615379 0.000179577314322 0)
(0.000582337468372 0.000178892618537 0)
(0.000620530183736 0.00017735876126 0)
(0.000658770946248 0.0001764340615 0)
(0.000697090127328 0.000176671658246 0)
(0.000737483749814 0.000177668687917 0)
(0.000776083566042 0.000178011340141 0)
(0.000818813176716 0.000178890366591 0)
(0.000855822389138 0.000178520528174 0)
(0.000899938583663 0.000179794178232 7.76323277956e-29)
(0.000929875356674 0.00017858898512 -7.42461730199e-29)
(0.00097920087766 0.00018339922878 0)
(0.00102970618956 0.000190092648049 0)
(0.00107074283533 0.000196405330352 0)
(0.00112399946543 0.000203149861767 0)
(0.00117188422031 0.000204245250734 0)
(0.0012166973572 0.000199344288442 0)
(0.00125930479685 0.000192008010681 0)
(0.00130035740709 0.000182040807442 0)
(0.00133991460827 0.000168896172873 0)
(0.00137713666586 0.000155457285501 0)
(0.00141188466515 0.000144458300788 0)
(0.00144420605675 0.000135259394873 0)
(0.00147384725045 0.000126066590201 0)
(0.00150076351751 0.00011603681472 0)
(0.00152501857809 0.000105037368225 0)
(0.00154661364127 9.31518999726e-05 0)
(0.00156549402125 8.04097355105e-05 0)
(0.00158150970158 6.69115295881e-05 0)
(0.00159439306618 5.31037540872e-05 0)
(0.00160374092591 3.91582050646e-05 0)
(0.00160909858295 2.3989045683e-05 0)
(0.00161036443122 6.88430909462e-06 0)
(0.00160901715981 -9.71911836937e-06 0)
(0.00160612532014 -2.3966975849e-05 0)
(0.00159945395494 -3.73534836149e-05 0)
(0.00158599823144 -5.1932507428e-05 0)
(0.00156352911431 -7.01933235379e-05 0)
(0.00152834875247 -9.76672119791e-05 0)
(0.00147448216543 -0.000146329380135 0)
(0.00139605615739 -0.000235139758054 0)
(0.00128395678672 -0.000364092396791 0)
(0.00121198170425 -0.000478270104815 0)
(0.00116310904617 -0.000508313015306 0)
(0.0010243828521 -0.000427761752075 0)
(0.000906895478096 -0.000357660611056 0)
(0.000812361558788 -0.000334527842009 0)
(0.00073358362564 -0.000355328909986 0)
(0.000672573829959 -0.000404403723918 0)
(0.000610868460519 -0.000444656447403 0)
(0.000524632575658 -0.000437973649778 0)
(0.000411835085846 -0.000390955026804 0)
(0.00033357721937 -0.000370091163844 0)
(0.000260352242431 -0.000362342380546 0)
(0.000188359697885 -0.000345761974109 0)
(0.000122422169893 -0.000281617047645 0)
(7.70065359454e-05 -0.000236148705588 0)
(4.7600112172e-05 -0.000288545065437 0)
(1.1537187434e-05 -0.000295232453435 0)
(-5.46479879406e-07 9.55625906777e-05 0)
(8.8876097007e-06 0.00010263547792 0)
(3.13989767148e-05 0.000147085140595 0)
(4.59476576138e-05 0.000131939193532 0)
(3.73218307255e-05 7.50843982763e-05 0)
(5.42346761384e-05 8.08138789566e-05 0)
(0.00011035687506 0.000137041078946 0)
(0.000130546585747 0.000145862733097 0)
(0.000151446138304 0.000143081646871 0)
(0.000176971847806 0.00014089925953 0)
(0.000203982270974 0.000134856781862 0)
(0.000206466516009 0.000116063768612 0)
(0.000201146647195 9.69252905926e-05 0)
(0.000224735950519 0.000102410306656 0)
(0.000257054504663 0.000119481543067 0)
(0.000305520081457 0.000144605068636 0)
(0.000353779628457 0.000167037906749 0)
(0.000392388540596 0.000182256041414 0)
(0.000418845108077 0.000191018414988 0)
(0.000454585054985 0.000203852756456 0)
(0.000493570693818 0.000214266904098 0)
(0.000530350355637 0.000217437436569 0)
(0.000567507587485 0.000217066830785 0)
(0.000605150116502 0.000215890962865 0)
(0.00064464229118 0.000215678808646 0)
(0.000683080180443 0.000215559776926 0)
(0.000718970024602 0.000216648326083 0)
(0.000764316745195 0.000219383590327 0)
(0.000798638953269 0.000217882349215 0)
(0.000846350176162 0.000219158521929 0)
(0.000872514906161 0.000216685580074 0)
(0.000925608845629 0.0002233260395 0)
(0.000957661348164 0.000226961903677 0)
(0.0010171701717 0.000238352177277 0)
(0.00107561005679 0.000249000516835 0)
(0.00112460285994 0.000253314922015 0)
(0.00117010476545 0.000250223618189 0)
(0.00121430335059 0.000243054535716 0)
(0.00125728110369 0.000233702195954 0)
(0.00129901559116 0.000222056292644 0)
(0.0013392495661 0.00020791611723 0)
(0.00137744226117 0.000192975160263 0)
(0.00141319526083 0.000179215748963 0)
(0.00144624536302 0.000166727186456 0)
(0.00147641684641 0.000154450228741 0)
(0.00150369169757 0.000141608367208 0)
(0.00152812748526 0.00012792694359 0)
(0.0015497003536 0.000113356389744 0)
(0.00156831434492 9.7873020558e-05 0)
(0.0015838318682 8.15237111606e-05 0)
(0.00159603607357 6.44670427453e-05 0)
(0.00160460021938 4.66486073834e-05 0)
(0.00160926327697 2.7650211298e-05 0)
(0.00161022202404 7.69957458537e-06 0)
(0.00160819872868 -1.18613701756e-05 0)
(0.00160276692565 -3.0885730372e-05 0)
(0.0015910429159 -5.14426318067e-05 0)
(0.00156920567342 -7.64855303746e-05 0)
(0.00153335812433 -0.00011022454844 0)
(0.00147853822044 -0.000159470733602 0)
(0.00140172409328 -0.000233436702894 0)
(0.00130492167471 -0.00033486057911 0)
(0.00118093972217 -0.000438686186817 0)
(0.00115923442928 -0.000558431622583 0)
(0.00105790242374 -0.000578954521741 0)
(0.000934911930781 -0.000511613143285 0)
(0.00084741219996 -0.000459235537767 0)
(0.000753875099277 -0.000426723758865 0)
(0.000663631524229 -0.000427326011992 0)
(0.000608601720489 -0.000482967320071 0)
(0.000545603970594 -0.000539562531677 0)
(0.000438150470536 -0.000507653587276 0)
(0.000350137816845 -0.00046698332224 0)
(0.000278949336191 -0.000455829123557 0)
(0.000200433643174 -0.000440844114451 0)
(0.0001407650907 -0.00040798595011 0)
(8.82458557089e-05 -0.000315164284135 0)
(5.30030404147e-05 -0.000273388467202 0)
(2.90652237813e-05 -0.000318625057887 0)
(7.67371369087e-06 -0.000313394812907 0)
(2.46944118862e-06 0.000102103080042 0)
(1.75398708454e-05 0.000128056510879 0)
(3.68200020836e-05 0.000157065946993 0)
(4.05347820798e-05 0.000154670604127 0)
(3.13910591655e-05 9.39941685615e-05 0)
(6.85296412605e-05 0.000131029236392 0)
(0.000102286928299 0.000160503509437 0)
(0.000115607970639 0.000163173638366 0)
(0.000134261180875 0.000163356428294 0)
(0.000152578372954 0.000161915583514 0)
(0.000180446142755 0.000154856676307 -2.26775823848e-28)
(0.000157143781632 0.000111631496423 1.52477602526e-28)
(0.000183307266364 0.000117297929139 0)
(0.000207897845412 0.000133043921832 0)
(0.000251837796163 0.000163334780559 0)
(0.000302119515763 0.00019413632403 0)
(0.000340142669773 0.000207723478134 0)
(0.000361681879815 0.000209491356896 0)
(0.000398030297801 0.000224222866478 0)
(0.000439694879049 0.000242341084252 0)
(0.000475509652811 0.000251143132635 0)
(0.000512323078274 0.000254524700294 0)
(0.000550038394112 0.000255378475197 0)
(0.000588168910877 0.000254492645781 0)
(0.000624674276429 0.00025287154526 0)
(0.000660672275314 0.000252897555475 0)
(0.000704643856845 0.000256572737862 0)
(0.000735571159663 0.000257457663252 0)
(0.000787196119028 0.000260166093528 0)
(0.000810713047686 0.000253076829029 0)
(0.00086677831528 0.000260615198355 0)
(0.000899648667815 0.000266189863668 -7.35999125688e-29)
(0.000958239722842 0.000279157110936 7.35444151852e-29)
(0.00101246826491 0.000293480992361 0)
(0.00107255785285 0.000303376493728 0)
(0.00112094852012 0.000302189486078 0)
(0.00116606895668 0.00029570753046 0)
(0.00121075814201 0.000286927856738 0)
(0.00125482599865 0.000276230515132 0)
(0.00129768099303 0.000263209316668 0)
(0.00133888997625 0.000247799801796 0)
(0.00137809255548 0.000231147792314 0)
(0.00141483612159 0.000214732046126 0)
(0.00144872573326 0.000198998012807 0)
(0.00147955864906 0.000183460983635 0)
(0.00150729547677 0.000167539218456 0)
(0.00153193360638 0.000150896074137 0)
(0.0015533873519 0.000133366808199 0)
(0.00157152993238 0.000114864980415 0)
(0.00158625770079 9.53733449489e-05 0)
(0.00159744414044 7.49088543282e-05 0)
(0.00160490409818 5.34004029184e-05 0)
(0.00160852348654 3.07718846076e-05 0)
(0.00160834704302 7.27487019473e-06 0)
(0.00160409346184 -1.69440260356e-05 0)
(0.00159389126205 -4.32394818204e-05 0)
(0.00157385903069 -7.46142110289e-05 0)
(0.00153960842209 -0.000114742462444 0)
(0.0014879274345 -0.000167688367812 0)
(0.00141840790362 -0.00023745305117 0)
(0.00133374681774 -0.000325080023434 0)
(0.00124104815971 -0.000424913490322 0)
(0.00116260464109 -0.000529142591711 0)
(0.00109697244852 -0.00063772867619 0)
(0.0010030481224 -0.000671513398731 0)
(0.000840324139482 -0.000580157768222 0)
(0.000783731607309 -0.000544252771133 0)
(0.000710337688906 -0.000526200870504 0)
(0.000622664165921 -0.00052721820482 0)
(0.000550883253729 -0.000576325559535 0)
(0.000471927170042 -0.000610722429216 0)
(0.000376947233489 -0.000573992662073 0)
(0.000302950387901 -0.000556731316981 0)
(0.000219321777506 -0.000540051935822 0)
(0.000146316067538 -0.000512455969438 0)
(9.56539300362e-05 -0.00043740823935 0)
(5.93026492948e-05 -0.000359552590983 0)
(2.28411578938e-05 -0.000304187398721 0)
(6.39556713084e-06 -0.000331471758303 0)
(2.26953513349e-06 -0.000329919345774 0)
(5.265452354e-06 0.000115700240131 0)
(2.25693821676e-05 0.000149038761512 0)
(3.7497899135e-05 0.000161583749708 0)
(2.43847797585e-05 0.000112177668759 0)
(2.92775953771e-05 0.000112380212968 0)
(6.90945088039e-05 0.000167330654395 0)
(8.58257129557e-05 0.000175436136522 0)
(0.000100742208798 0.000178945418784 0)
(0.000112471138941 0.000179403755571 0)
(0.00013253770266 0.000180207197489 0)
(0.000119540835273 0.000133590904105 0)
(0.000138419421087 0.000130100944623 0)
(0.000164296487345 0.000142875295669 0)
(0.000193188031883 0.000167079345595 0)
(0.000246542995053 0.000211297830519 0)
(0.00028596125491 0.00023276461715 0)
(0.000303920610688 0.00023044040449 0)
(0.000335942063747 0.000241688099025 0)
(0.000379819600246 0.000264833751053 0)
(0.000418332235155 0.000280192540328 0)
(0.000453431539577 0.000287196772061 0)
(0.000489501784731 0.000290988121714 0)
(0.000528163780169 0.000293826442808 0)
(0.000566169642148 0.000293386773646 0)
(0.000605681305558 0.00029118718974 0)
(0.000637527656976 0.00029168911655 0)
(0.00068543153142 0.000297613084345 0)
(0.000720083344481 0.000297027694902 0)
(0.000751238086333 0.000294079190543 0)
(0.000796910630004 0.000298271991276 0)
(0.000858129440625 0.000310267004515 0)
(0.000895112980456 0.000314874878356 0)
(0.000943567883558 0.000331017232852 0)
(0.00101377521948 0.000351719585733 0)
(0.00106550776282 0.000356208677812 0)
(0.00111347620985 0.000350582889804 0)
(0.00116032719702 0.000341991454543 0)
(0.00120646821005 0.000331987109779 0)
(0.00125194635754 0.000320105257907 0)
(0.00129622515225 0.000305719337088 0)
(0.00133873067862 0.000288791952776 0)
(0.00137910426563 0.000270196447069 0)
(0.00141694733381 0.000251105815406 0)
(0.00145181967308 0.000232123937888 0)
(0.00148344588497 0.00021316331775 -6.38580094983e-29)
(0.00151171378269 0.000193861364215 6.35846819287e-29)
(0.00153651718296 0.000173879246427 0)
(0.00155768379018 0.000152988623367 0)
(0.00157506756204 0.000131080003194 0)
(0.00158862665697 0.000108126421381 0)
(0.00159835237525 8.40960975178e-05 0)
(0.00160420419669 5.88934157003e-05 0)
(0.00160609794086 3.23723197603e-05 0)
(0.00160363415048 4.16469061035e-06 0)
(0.00159533351928 -2.69886886023e-05 0)
(0.00157785405014 -6.38461700559e-05 0)
(0.00154672420829 -0.000109636595056 0)
(0.00149928076156 -0.000166642381165 0)
(0.0014370818368 -0.00023630624745 0)
(0.00136342508045 -0.000319326691079 0)
(0.00128158279127 -0.000410580555792 0)
(0.00120083178079 -0.000504412520826 0)
(0.0011307295981 -0.000602927819774 0)
(0.00105776508859 -0.000705841317698 0)
(0.00103808116598 -0.000806954755017 0)
(0.00083435549545 -0.00069723568712 0)
(0.00070482058896 -0.000620622554711 0)
(0.000636227150449 -0.000605966948128 0)
(0.000551189478834 -0.000607404279825 0)
(0.000482493362153 -0.000646979799122 0)
(0.000412929278042 -0.000669551186217 0)
(0.000332989091656 -0.000656027347874 0)
(0.000248073008289 -0.000650298807519 0)
(0.00015809423531 -0.000623536214129 0)
(9.21303820051e-05 -0.000568156585587 0)
(4.7984226179e-05 -0.00047165675338 0)
(1.4291685508e-05 -0.000400777866646 0)
(-1.65330943977e-05 -0.000337271177044 0)
(-2.59826285736e-05 -0.000331009897304 0)
(-1.04339457098e-05 -0.000330382734881 0)
(6.57334701644e-06 0.000131153236113 0)
(2.23687889582e-05 0.000163202287192 0)
(2.65344971119e-05 0.000164974582347 0)
(1.95284359904e-05 0.000120423821187 0)
(3.58333683461e-05 0.000139543335051 0)
(6.23580061874e-05 0.000182198036028 0)
(6.98354157735e-05 0.000188399038843 0)
(8.59693918974e-05 0.000192514769875 0)
(8.8038756197e-05 0.000181290198413 0)
(0.000111238146086 0.000202072807599 0)
(9.96529416117e-05 0.000149012882469 0)
(0.000123207975433 0.000152763938494 0)
(0.000146087959679 0.000170293961671 0)
(0.000185089601554 0.000211365855032 0)
(0.000229233571946 0.000251041692889 0)
(0.00025894287969 0.000262811970905 0)
(0.000276047635969 0.000260398610725 0)
(0.000313459376467 0.000280313432387 0)
(0.000354775477521 0.000303746790555 0)
(0.000391966186682 0.000317147544655 0)
(0.000428554270444 0.000323951202766 0)
(0.000463939333531 0.000327410837969 0)
(0.00050204617626 0.000330990590826 0)
(0.000536389738026 0.0003300115903 0)
(0.000570637428264 0.00032554348668 0)
(0.000618164280767 0.00033201304418 0)
(0.000641781800911 0.000331240129076 0)
(0.000704602005114 0.000341580262266 0)
(0.000729389845948 0.000338739246689 0)
(0.000793279802151 0.000351961477417 0)
(0.000822095994161 0.00035137876188 0)
(0.000891615866767 0.00037092052088 0)
(0.000948898176261 0.000392176175775 -7.57265974105e-29)
(0.00100378539477 0.000406108916946 7.48289631721e-29)
(0.00105496531093 0.000406504016516 0)
(0.00110444937753 0.000399619644495 0)
(0.00115333793239 0.000390014796888 0)
(0.00120139965066 0.00037882802769 0)
(0.00124859131538 0.000365660237384 0)
(0.00129453650649 0.000349819806652 0)
(0.00133866002529 0.000331172303116 0)
(0.00138050720824 0.000310408106323 0)
(0.00141966294189 0.000288532783133 0)
(0.00145569796014 0.000266222016788 0)
(0.00148827741228 0.00024363067364 0)
(0.0015171428675 0.000220571831898 0)
(0.00154203165487 0.000196753090153 0)
(0.00156267912209 0.000171956906932 0)
(0.00157893147818 0.000146128676839 0)
(0.00159081679991 0.000119305327758 0)
(0.00159846660379 9.14493315589e-05 0)
(0.00160198743663 6.23240049472e-05 0)
(0.00160125155943 3.12848805237e-05 0)
(0.00159524482216 -3.17447847536e-06 0)
(0.00158119224126 -4.39484535753e-05 0)
(0.00155437477557 -9.46767700317e-05 0)
(0.00151098934417 -0.000156380226695 0)
(0.00145390050035 -0.000226978881243 0)
(0.00139073271107 -0.000307319184559 0)
(0.00131889471271 -0.000401353029256 0)
(0.00123453727165 -0.000495060798494 0)
(0.00115148447611 -0.000578497802658 0)
(0.00108504359307 -0.000664247095256 0)
(0.001034840757 -0.00075763106787 0)
(0.00101019131495 -0.000863766946003 0)
(0.000944756343503 -0.00089839679918 0)
(0.000679959861027 -0.000725016626067 0)
(0.000559139797463 -0.000690403662726 0)
(0.000493919944949 -0.000691720704733 0)
(0.000434926298257 -0.000709697745336 0)
(0.000371397669471 -0.00073179113241 0)
(0.000290618692823 -0.000752924381452 0)
(0.000187914226547 -0.000752014508323 0)
(9.25353838281e-05 -0.000704140145532 0)
(2.86805226351e-05 -0.000613210980522 0)
(-1.57264277361e-05 -0.000516158040601 0)
(-5.26463820158e-05 -0.000434326045453 0)
(-7.27081857768e-05 -0.000362615954807 0)
(-6.42489604335e-05 -0.000317395933937 0)
(-2.57377898407e-05 -0.000295428634932 0)
(6.93897729414e-06 0.000147841719478 0)
(2.18197058449e-05 0.000171110444421 0)
(1.97486147963e-05 0.000162045605977 0)
(1.57351766828e-05 0.000127300008963 0)
(3.7237952443e-05 0.000174066705202 0)