/*--------------------------------*- C++ -*----------------------------------*\
| =========                 |                                                 |
| \\      /  F ield         | OpenFOAM: The Open Source CFD Toolbox           |
|  \\    /   O peration     | Version:  v1806                                 |
|   \\  /    A nd           | Web:      www.OpenFOAM.com                      |
|    \\/     M anipulation  |                                                 |
\*---------------------------------------------------------------------------*/
FoamFile
{
    version     2.0;
    format      ascii;
    class       volScalarField;
    location    "145";
    object      alpha;
}
// * * * * * * * * * * * * * * * * * * * * * * * * * * * * * * * * * * * * * //

dimensions      [0 0 -1 0 0 0 0];


internalField   nonuniform List<scalar> 
6400
(
0.825789662628
1.22875000597
1.87413345036
2.12083674619
2.37470993844
2.67740311025
3.23803370828
3.90373834045
3.97720767746
4.22789679465
5.32961947554
5.75225351961
6.0487308699
6.49051864556
7.22075469886
7.96436239446
8.47370148073
8.97647707771
9.44900907101
9.64159300981
9.51406848105
9.3809087641
9.5001869987
9.95730712898
10.5088620574
10.9561030051
11.2029135516
11.4053103663
11.7149191633
12.1408435627
12.6326766366
12.8896733876
12.8605817093
12.7440445439
12.5403496513
12.100383284
11.8446978077
12.114665484
11.8177560792
11.13260418
10.8855355132
11.2765372182
11.7324283606
11.9433150021
11.9974684292
11.9278960084
11.8181143325
11.7412903911
11.6952984267
11.6742194391
11.4859371777
10.602607085
9.84790802779
9.0376777787
8.77912940546
9.38548090434
9.41767530441
8.21677921871
6.72707360443
6.29642257904
5.53404829755
4.66327904631
3.78717784852
5.54797111703
9.6329625124
14.5791579035
17.5710858669
17.2730518827
15.2503274195
13.5347955787
12.5419323145
12.5907845326
12.9981395146
12.7951961996
14.7405065358
14.1454802161
15.9834892081
9.87951952723
12.8697513582
4.81130979972
3.07243839008
2.36999244271
2.88988913428
4.07314983003
3.68793407963
3.21688365105
3.16760754822
3.39627289227
3.77778909098
4.29305208168
4.96875450232
5.64289876915
6.20750142215
6.74608628933
7.27430532892
7.90326240916
8.56092052452
9.25545366102
10.3589187977
10.3177531244
9.8848679169
9.62254709751
9.56678877919
9.93129037014
10.8074012134
11.0916044147
11.2611841554
11.5538495913
11.9097346969
12.2978450871
12.7148500871
13.2208367783
13.2040823596
13.123883175
13.039937203
12.3066955105
12.2461534766
12.5104706589
12.0170970857
10.9251514965
10.583617629
13.1784863595
14.6260196935
14.6621011521
14.5787118219
14.1768726408
13.5986265298
13.1663527135
12.4974099836
11.9717378344
12.012523742
12.7786861186
12.7340610547
9.26007450581
9.3368772967
9.15329907138
7.47279152047
6.40651122502
5.58568731973
4.77680234295
4.17926535879
4.97921823342
3.9488534069
5.70387871841
9.67177543
15.4852573075
19.2056837585
18.0137560267
15.8262985454
13.8410158961
13.0095327698
13.2774180274
14.2332050028
13.5907351468
13.3742462256
12.8053007163
11.5783812867
9.7263828545
8.17305843268
4.25722010186
3.01465881814
2.53667986394
3.0149179641
3.05043000362
3.24251988764
3.51266965691
3.42032540052
3.35380218605
3.71236203386
4.27999084054
4.94109626815
5.63440502878
6.25533463499
6.81123665857
7.21023260643
7.77538427909
11.1445237682
13.3298984222
13.5170945604
12.3953489813
9.77609699275
9.01782018375
9.81349137837
10.2432747342
10.549353854
11.0128714433
11.4096821667
11.7108750651
12.0453119471
12.4746117436
12.8083772371
13.5271356608
13.5999254631
12.951847803
13.8092497173
13.1224120728
12.0683669271
13.02608974
12.4188487657
11.1968738074
10.7976772867
11.2878501868
11.8398449152
12.0958006403
12.1706789176
12.1412804306
12.0386950198
11.8815673025
11.6687760645
11.4231598666
11.1439888465
10.7517351925
10.198807507
9.96644423879
9.92605936758
8.60510030708
7.35685165303
6.44608815432
5.68030223026
5.01567775361
4.55196060687
4.07362038302
3.82599380909
6.38308677274
11.6028105507
16.312118113
18.6243295606
18.7328811148
17.1099294206
15.3695818857
14.5744180984
14.3722816177
13.6359631845
12.9763092473
12.8847382398
12.4873051038
11.4705559679
9.83491464938
7.39613190143
7.57527032814
2.75537484515
5.28292894524
3.07379672025
2.98693553799
3.59942803536
11.663335585
9.96266949213
4.23881575973
3.74275363135
4.31665619153
4.96432186878
5.65844572842
6.25926813408
6.93629461523
9.0514314072
11.45005133
13.0997024661
13.1422797919
11.1460884514
9.19145810885
9.1174731885
9.30102745668
9.56675471315
10.062841525
10.6410216499
11.1900552232
11.653489313
11.8916220398
12.3325399229
12.5548903696
13.3224223557
13.4255697011
14.2778918264
13.8965583833
12.7382302374
13.4339250315
12.5329850737
11.5000838903
11.2740972328
11.1658435936
11.1816603359
11.4823724499
11.8620836732
12.1076150684
12.2132407603
12.211029276
12.1262669071
11.9784391058
11.7764632372
11.5312060056
11.2406957435
10.8876640147
10.4755120366
10.0501373239
9.45852887932
8.53010881015
7.47647626172
6.57299200568
5.86272548448
5.32077158089
4.93583208164
4.66166186136
4.83031920932
6.84714356498
10.7534568402
16.5624663049
20.1526535846
20.3463203706
18.6579657436
16.2740338537
14.599899974
13.7165214146
13.7933714927
15.1055136516
14.9835942927
13.6162027933
13.4340231124
16.6977810574
13.0924535548
11.1031776139
5.20130290264
7.25357082998
3.45835896089
3.7828398863
6.06003560215
11.5402670258
7.58217815799
4.28206967417
4.21214074919
4.53471229579
5.11978143612
5.8567530062
7.38235538849
10.1570145845
11.1088350813
11.2098607023
10.6485033931
9.56074826402
8.88791772335
9.26108336652
9.27173061213
9.22841457946
9.61149314578
10.1690998344
10.8016682723
11.4292717144
11.7843705927
12.3719331139
12.4319568067
13.2839709998
13.2395895732
14.9018236812
14.0706434134
13.0294274264
13.3463030811
12.0981853005
11.6033356488
11.3981868429
11.3446545117
11.3522401092
11.4223136542
11.6354405992
11.9186829942
12.1433191804
12.2643936649
12.2816353945
12.2122524451
12.076420239
11.8890134557
11.6585432732
11.3824451656
11.0544251406
10.6712407368
10.2051762791
9.53956044059
8.6197108014
7.62833318673
6.7865911598
6.17056642055
5.75836876446
5.51923296045
5.49554272793
6.03911375361
7.26901218975
10.4973841843
15.9240420191
20.1466901009
21.5384001632
20.3305658558
17.5334848588
15.0114473329
14.6155107154
16.7764066616
17.5816487515
16.4886100457
15.5214654965
18.1189649586
21.1020552027
16.3955103041
15.4965970877
9.55931801538
8.65953658086
4.27501177892
5.15478569305
11.7903254928
11.1920522314
5.28107467784
4.68718787423
4.73209940541
4.85744866587
5.4698622753
8.58978419154
12.180057445
12.4259614913
11.7656586384
10.1486090739
8.86047563336
8.49993965071
9.39891759981
9.2977545948
8.99131991858
9.249181028
9.75984357028
10.4085449176
10.91112619
11.5696884497
12.5600814028
12.391180252
13.6145271699
13.1474337114
15.3564736998
14.336383506
15.6897331401
13.8033262415
12.0099715591
11.4495132492
11.3978610442
11.4373534636
11.4863343238
11.5345386127
11.6261422398
11.8010996126
12.0255776608
12.2252816279
12.3470301153
12.3755336036
12.3179908381
12.1958835965
12.0294175671
11.8258874485
11.5793000303
11.2775655358
10.8976109621
10.3870714102
9.67610783225
8.78608811546
7.88362457738
7.13045010127
6.57598646678
6.25567277411
6.1622772364
6.54754574215
8.03253913941
7.32529540961
11.6706895191
17.4765810393
21.2563017106
22.6648613451
21.6978495414
18.3013127302
16.1031411854
17.8668063351
20.0151989668
19.4327596859
18.3769020814
18.3874282614
22.876706977
24.4234180957
19.3786757571
19.1604089403
11.6062539197
8.16185165642
5.20266051208
4.96295064389
11.6357750635
7.501280629
5.0751969374
5.14509888558
5.20864698353
5.91339253776
6.19732279774
12.1932130585
12.6080303953
12.4640377786
10.5326727076
8.54580756363
8.11625927431
9.61713964156
9.48041489721
8.78515501186
8.98817195418
9.35373820948
9.8620409843
10.5057145012
11.4158305779
12.4031416371
12.4773589737
14.1761348763
13.4050975438
15.8539555399
14.6314164434
16.0844410417
14.5138200314
13.4377160471
11.4629386577
11.205475706
11.3888846834
11.5520066135
11.6359921341
11.7046702363
11.8138753209
11.9739045721
12.1657662664
12.3438991
12.4608963269
12.493713439
12.4463272573
12.3427669918
12.205467932
12.0381078425
11.8271516342
11.5484940738
11.1634681927
10.6215981698
9.8978747744
9.05615713149
8.23944508627
7.55647074769
7.03475468891
6.69999333181
6.73888640394
7.25938006761
7.60762746377
8.23053341043
12.5425825866
19.7037581477
22.3924718133
22.8242055802
21.7348165858
19.4557829138
19.2608276994
21.8265507158
22.2184127242
21.312197654
20.6529564118
22.5191998199
25.175189056
26.5949452216
21.9402095505
20.7625065126
11.1505085515
7.37779675937
6.21501977726
11.5891186811
11.5685257181
5.79736676466
5.5890306328
5.65260152776
5.89819731091
6.4118055711
12.0300487671
12.8728360051
12.7096755453
11.9420113443
8.81456982831
7.7461120212
9.58787423838
9.88411567263
8.84925716385
8.58804516137
9.04253862424
9.61599831128
10.1012795005
10.8445484445
11.4460105408
12.9758395156
12.6276893853
14.0399826313
15.7817824626
15.8245007267
13.9962815425
15.0986493809
14.9186815652
11.9023446513
11.307941325
11.2987131541
11.4812217384
11.6697290739
11.7845748327
11.8731170998
11.9956985501
12.1566236894
12.3330292075
12.4937811546
12.6026082924
12.6364807916
12.6007737592
12.522083925
12.4219971372
12.2977627446
12.1262010271
11.8703088312
11.4821473987
10.9250321672
10.2129721693
9.42833830107
8.67277667499
7.9831574135
7.34930258705
6.92837295263
7.08743591974
7.71898773298
8.51464793222
9.58200986496
10.7558285972
19.403512035
23.7991577877
23.9666723412
23.4199338319
22.5685859857
23.5457981233
24.932257203
24.1931112236
23.4307101102
23.5294805249
25.7158285108
26.2693851934
26.7972858946
23.8237862856
21.59692171
10.1705587979
6.87940402541
6.85690091214
12.4692860602
10.1211357915
6.00425329573
6.14546600711
6.31034764298
8.08538599736
6.3143179138
12.8031136794
13.2672432009
12.6727294469
10.2622542188
7.9643089259
7.855429004
9.736375119
9.37031448643
8.59973479494
8.61375918346
9.01472025413
9.76728136848
10.42684322
11.7906250158
13.0605411775
12.7245682274
15.3238296536
13.5000480597
16.1858345421
14.2525665163
16.343949136
13.6588656985
12.518826908
11.6434453031
11.4070873113
11.455045499
11.6024703268
11.7851444585
11.9308193069
12.0500235029
12.1866737872
12.3505160301
12.5217109086
12.6713286483
12.769830248
12.8038982918
12.7847579519
12.7385121617
12.6822092414
12.6065931805
12.4783197226
12.247744522
11.8625836378
11.3044840283
10.6174037547
9.88047462795
9.12796845034
8.29343237792
7.34798434662
6.75296241384
7.24185929493
8.55327505746
9.89854153693
10.996820272
11.9443622404
15.4105584507
23.6850651057
25.3515123032
25.5751372863
26.4699400621
27.707918687
27.3862934928
26.3087138657
25.9965579686
26.8147236908
27.8168509406
27.5042166324
26.7792993595
25.6392226985
24.1444507077
9.25259014633
6.95976328665
8.07997919931
12.4424719375
7.36424536824
7.0270395255
6.69734301227
6.94978779781
10.8927370068
9.33147425272
13.6282136081
13.4396890503
12.6173740726
9.12706859891
7.77022997771
9.85143279704
10.0217690998
8.96178716106
8.51765088161
8.80630979768
9.12969379166
9.82360513984
10.3277352995
11.9798135722
14.5937990614
12.4862857197
15.180297043
16.2790060734
16.4139863496
16.6539769267
14.5901428717
14.4752066679
11.8608876495
11.4670022557
11.5400566594
11.6179886194
11.735844772
11.9005149918
12.0688893005
12.2282942502
12.3913546658
12.5626152089
12.7309837043
12.8733485311
12.9644553679
12.9986677272
12.9989813529
12.993155002
12.9884762435
12.9664353755
12.8853136744
12.6841976816
12.3084894346
11.759369656
11.1005184293
10.3804711885
9.51278605555
8.26969254455
6.73831029312
6.19867866166
7.69397063585
9.85535166994
11.5502280531
12.8108116337
13.8061004404
13.9412753506
15.2231072087
27.0350718388
29.9112538404
31.2738432903
31.3355654746
29.9364923674
28.9323709198
29.0392165224
29.9422904129
30.0132831908
29.5347073855
29.0410518189
29.2227577775
29.3055550771
8.78083333417
7.52519342323
11.8767928919
12.3133737175
6.93571851109
7.69644540975
7.20645431283
8.04055996187
9.98365840153
13.1780999145
14.2845365259
13.5494182428
12.664480552
8.73780725136
7.817599618
10.4855566063
9.97929169114
8.79987372371
8.51463266625
8.95804759163
9.6370889645
10.1299284268
10.5174147319
11.4955313992
14.6981921707
15.8753089827
14.2380175621
16.4619684493
14.1006129929
16.7109250207
16.6354892014
14.2567772204
11.6654458338
11.5614413673
11.7096046844
11.793154393
11.8912059201
12.0348889461
12.2040091617
12.4016270674
12.6066918527
12.7939261711
12.9622413735
13.0997342816
13.1857821382
13.2241347043
13.2484082836
13.2871718698
13.3388881102
13.3753454996
13.345905346
13.1786948451
12.8195670897
12.2882335275
11.6496620841
10.8702672853
9.59579446173
7.43049364331
5.55212929033
6.08443479396
9.05622998434
11.8855036639
13.7366161315
14.9791057088
15.7042320794
15.761270559
15.3529628807
17.2767287261
31.4847366263
36.9015595734
35.7438424129
33.3766309608
32.4240160262
32.6382261099
33.0623933082
33.0120678518
32.968027529
33.187818442
33.5699885651
34.1436294109
8.71659389369
8.20641608088
13.4080917477
12.6745862392
10.3275438267
8.79690864668
7.89055395683
9.61401731098
9.00691898061
14.0970081535
14.740319732
13.7054757188
12.453971785
9.00458485339
8.59934696551
11.0206333032
9.84262097886
8.75918191424
8.61297797583
8.98884805484
9.85358696595
10.5475459557
12.6385440469
11.6330419448
14.0321195552
16.2505233962
13.7698256064
16.7884935226
17.2174467363
15.0561831946
14.990590431
12.4035323595
12.0249441233
11.8825188208
11.9226833751
12.0011615299
12.0845634475
12.2070739939
12.3460563811
12.5505730775
12.814753247
13.051986101
13.2245535269
13.3520071634
13.4354262299
13.484029976
13.5368530173
13.6217598522
13.730650447
13.827286959
13.8499311462
13.7213100136
13.3956493948
12.8910334808
12.2294074494
11.1330923851
8.75833995546
5.74506547434
4.67895609196
7.09119298271
11.4957248126
14.6659853598
16.5171109349
17.7591346864
18.3900535492
18.2612425955
17.7332903622
16.7640232389
27.4660301056
37.8658479509
40.7572901296
38.0024520156
37.0606034766
37.1406219133
37.2659247567
37.0354081611
37.4541504912
37.8530412288
37.4805293732
37.5391632486
9.03999073439
8.72487436022
12.9643329021
12.9150083911
12.8298313727
9.63491056277
8.71261854807
12.79503832
8.99294736571
14.9335908116
15.0840121971
13.8801580488
12.271205527
9.34906395559
12.0308312246
12.1382375569
9.82962083639
8.85995795422
8.84297611001
9.15113707663
9.81979547121
10.4737377906
14.2664313199
15.3308350239
13.1685945732
16.3590768225
17.1120800872
16.1468153827
17.1967770479
17.107587615
15.651855091
12.3103935513
12.222850835
12.2045272402
12.1814348608
12.2190052089
12.2685863201
12.4111334425
12.567718516
12.7265458747
12.9944330006
13.2976045232
13.5159299346
13.64201554
13.7190793996
13.7818019072
13.868225401
13.9988539126
14.1596718761
14.3079821038
14.3761144114
14.2958061313
14.0334612286
13.547439134
12.7193223476
10.7634338273
6.87508160476
3.74101933336
4.35642348874
9.40383070475
14.8814002936
18.2420594661
20.0010968181
21.3658022798
21.6343696923
20.6438115181
19.5422504769
18.6339503185
23.6333881987
35.0126644083
42.1104369411
43.3118463571
41.470020518
41.6991537519
41.669489621
41.789001493
42.3668002917
42.5380740603
42.1635041342
42.1474468951
9.41704612928
9.23922527725
8.9934260088
13.1008284122
13.1620574703
10.0827210745
9.48314249829
13.5754868643
9.33089995076
15.7554057264
15.3691602004
14.0609555165
12.220937557
9.46470310868
13.2498068624
12.4029673226
9.97959362694
9.11393506905
9.13548574264
9.49705666322
9.90946593713
10.4007325809
14.9224414285
16.2778430934
13.3496644674
16.4987126899
17.6236432915
14.9450670611
16.812592302
16.3026226384
12.9656863958
12.6762618525
12.636816041
12.5452851102
12.4492656786
12.5049444565
12.5353945131
12.574065455
12.7643906943
12.9772929684
13.2198730493
13.5341010762
13.8048878876
13.9620733717
14.0460150916
14.1254024333
14.2452292622
14.4128422295
14.6175299025
14.8069425625
14.890400961
14.8764173176
14.7259345561
14.2569781569
12.97316907
9.16037716939
3.7502707617
1.03603551294
6.21229074861
13.5078652871
19.4512554552
22.8123674945
22.8404709316
21.3731000225
18.3593683402
16.0715460795
14.6324122061
13.3558059835
10.9719760653
13.9548836913
41.722274403
45.413745006
46.5867579683
45.7749636891
45.1944559986
46.7171405871
47.2307387515
47.2870092746
48.1223975987
48.4936405016
9.95618219474
9.99780561739
13.6650534984
13.5493626025
13.3724283599
10.4232530119
10.3949868817
14.1419368472
10.1230400722
16.42464609
15.6116011369
14.2410658752
12.2187244525
9.70105603406
13.3964937376
12.2670648202
10.1424665516
9.40850197752
9.4231472122
9.74160644138
10.1368424408
10.5293175408
13.985795007
17.0272430133
17.1488362751
15.4495784285
17.7735613913
18.362439464
14.4195870635
13.3094559091
12.7734601391
12.8326897514
12.8559962652
12.8170383577
12.800910126
12.7744227359
12.7967884582
12.8690324397
12.9537261229
13.198845058
13.4934885616
13.8098957811
14.0999474714
14.2947241139
14.415439694
14.5168712342
14.660862202
14.884367275
15.1355733234
15.2978455637
15.3479461107
15.4263010128
15.4328357462
14.8685567023
12.4558150926
6.44109295263
0
2.0513608494
10.4848799743
19.1137693271
23.7374269613
20.7931342688
13.8797021137
1.49327190993
1.16804171838
2.83573669631
6.74323871059
9.25471008719
10.7026927474
11.2385240865
7.22916315213
30.9345397751
49.7916804432
51.0172788409
48.6764643884
50.1549989448
52.2558975641
53.9481367248
56.09334002
56.2805118028
10.421901765
10.5949563539
15.1595264498
13.9231375429
13.0622810806
10.8014794427
11.3235583589
14.5160019914
14.5262855462
17.1965633166
15.8690198746
14.4759638153
12.2362773737
10.0929695363
13.5401170963
12.0925372484
10.3372158306
9.72219419943
9.68548840199
9.93860477158
10.3272341642
10.8637078933
13.1388896192
17.2492040105
18.5424215499
14.5191919083
17.3572512397
18.1663295074
17.3484565247
14.1313174956
12.9579283028
13.0320874126
13.1582355929
13.2239370442
13.0443098769
13.0583232949
13.0351787861
13.1268766908
13.2243135684
13.4313220778
13.7687395833
14.12531074
14.4079681803
14.6092507087
14.7931332332
15.0234985015
15.2672595344
15.5271374487
15.6750039761
15.7564249281
15.8549555107
15.9674112431
16.2221456066
15.6525635377
10.4233772394
0.0173301573621
0.594400661684
7.36341942883
16.3582553087
19.7891392322
11.0567480142
0.0383687541294
0.00270463108726
0
0
0
0
0
0
0
0
3.76168060786e-07
0.00012687369933
0.0189776011246
11.0101964316
54.9422544458
57.4536890383
59.9709911384
65.7650512803
64.7764912114
10.7793353875
10.9813819207
17.4647342791
14.1373316836
12.3792148083
11.154841799
11.9528014464
14.2029860277
16.0747243984
18.0846747526
16.2523796531
14.8084912965
12.4550464268
10.8241807227
13.8968811748
12.0922910713
10.6397245032
10.1049242073
9.98892969337
10.1692652452
10.4961355344
11.0085610629
12.7476918313
17.0988021983
19.4774712942
18.4548589623
16.5929840932
17.4685728
16.6571572497
13.253131478
13.4221320992
13.5692087549
13.8294479228
13.6790226452
13.5199401643
13.326910038
13.3748715188
13.3767524521
13.5053705919
13.7082705957
14.0191494095
14.4237025085
14.8439747284
15.0762054727
15.3113760188
15.6615052902
16.0505856925
16.353699959
16.4887105972
16.6220444605
16.7885901581
16.9590560792
16.9005622172
16.0888463432
10.451505619
0
2.108739096
9.94099986168
4.34569118556
0.0119170662643
0
0
0
0
0
0
0
0
0
0
0
0
0
4.84692503356e-06
4.81647411312e-05
0.00105587548358
0.0511979421309
49.8753325289
69.7558549863
59.0742206257
11.037372512
11.2254666943
19.6442583872
14.2432510238
12.043228337
11.5037145032
12.7464542791
12.9434304747
17.0318763119
18.7025264435
16.6336874238
15.1553402915
12.8990135425
13.0453593448
14.3837811761
12.3534441631
11.1611711868
10.7208880419
10.4022200007
10.4937255231
10.7247741887
11.17034428
12.6128160269
16.9633732085
19.8229887225
20.1107070115
15.3030419953
15.5412861812
14.0711661571
13.3471984558
13.5812357228
14.1218273398
14.3198670282
14.1137355248
13.9383823631
14.0280835997
13.7263939608
13.702902675
13.7812962577
13.940657454
14.3823498155
14.8412215249
15.265015445
15.4549254829
15.8612795323
17.9995470613
20.9022597622
21.8140007439
19.9214149407
19.7624526999
20.0815678267
20.6400607645
20.9448168612
20.4370504924
19.3735982803
0.000859925795021
0.868965668823
0.0141791249963
0
0
0
0
0
0
0
0
0
0
0
0
0
0
0
0
0
0
7.48834721853e-05
0.000507098505164
0.0935131686578
60.9561652854
11.3005706042
11.4617516992
19.2927700716
13.0871393443
11.9044948423
11.7858328383
13.6367394988
12.500048353
17.8076957778
19.304983203
17.0168945117
15.4923884759
13.2123619769
15.6201017905
15.1081245764
12.8269034007
11.7832010752
11.8661226605
11.0453552212
10.9949752324
11.0640512495
11.3411601977
12.6558631317
16.8126971499
19.6523838248
21.2253650826
19.1875955128
17.6901283293
16.1375423966
13.7241164036
13.9254321226
15.0297741706
14.5374750836
14.4844892752
14.9892828812
14.476021683
14.2036466821
14.1536788008
14.2234789497
14.3620497269
14.5875984975
15.1315022262
15.8195221522
17.1500917162
19.1639973195
21.9113860418
23.9091183994
23.8584130537
24.1954151784
25.8644749561
28.278437716
31.9800215928
33.7752257833
33.7722954255
29.4696162407
28.774999429
0
0
0
0
0
0
0
0
0
0
0
0
0
0
0
0
0
0
0
0
0
0
0.000230415236733
99.9988475733
11.6757413593
11.8282830514
18.6994348607
12.2397681866
11.997243225
11.9918381346
14.35517065
12.7079936606
18.4083664282
19.8919386134
17.4091855624
15.8571185218
13.4910080603
16.1784967256
15.7578035681
13.3732240309
12.3842557
12.6476277187
11.8421557407
11.7314426057
11.6469697395
11.4999168463
12.8859625333
16.7776700382
19.334186117
21.5898321129
20.4515760964
17.8095611378
14.1996141777
14.2731356574
14.6536765772
15.7067618361
15.9321955705
15.9237988586
15.7905138463
14.9634493433
14.7178268
14.721660593
14.768170888
14.9236984333
15.1246157782
15.7566506154
17.1061456908
19.792745205
21.514949498
21.7458195354
22.8548828404
23.9415319973
28.0148543443
32.7791840488
39.7048479506
44.5371319794
45.0709356066
45.1554907754
38.9823808285
5.99268620189
0.0201154134276
0
0
0
0
0
0
0
0
0
0
0
0
0
0
0
0
0
0
0
0
0
3.87220554857e-05
5.12328161997e-05
12.3224805575
12.4804099467
18.0064991584
12.1755957124
12.4449763522
12.3123431776
13.9294936394
13.3569091681
18.7411657252
20.4286535763
17.8410804548
16.2824990996
13.9273400511
16.7131907391
16.3715588125
14.0723422386
13.0852269158
13.4326144787
12.5949263457
12.6247700451
12.5828858689
11.8553594089
13.3488255001
16.8971485658
19.176486617
21.6834617678
20.86749616
18.0044021042
14.3207253591
14.3842337302
15.5442610786
15.293779716
15.2656755724
15.6579874332
16.7664175848
15.9334903751
15.6218258505
15.3005946773
15.294447047
15.586153095
15.9387751748
16.6127121104
19.7175645263
22.5881364529
22.5540919356
22.6883719847
24.4143565299
29.8198860061
36.7372882733
42.8730101186
47.6541104808
44.0900795037
33.6161769504
0.33936983716
0.00212936372893
0.00431604771434
0.000662783874819
0
0
0
0
0
0
0
0
0
0
0
0
0
0
0
0
0
0
0
0
0
2.86206076307e-06
1.29957769414e-05
13.3700958146
13.4504518861
17.8941390068
12.9229766145
13.6010362172
13.0182804667
13.7967069517
14.8309950689
18.4068421536
20.7386892272
18.3482734146
16.794190814
14.4960507531
17.3232947091
17.0196297199
14.973717585
14.0299414099
14.4196081407
13.3441532614
13.641835273
13.9192037169
12.5309456526
13.811224531
17.1566944644
19.1917960641
21.4346614297
21.0247348824
18.2625969084
17.2297314512
15.3430763364
16.0691998923
16.7399202129
17.694901167
16.0832018749
16.351862857
17.1269894352
16.4772788816
16.4612861272
16.2095280952
16.254668815
16.7102061761
19.4583007394
23.8312320817
24.726618952
24.0557700857
25.7088421542
32.2759246594
41.0802531187
47.0632931796
45.825815815
36.7738111241
3.53806758331
0.0242086247355
0
0
0
0
0
0
0
0
0
0
0
0
0
0
0
0
0
0
0
0
0
0
0
0
0
0
0
14.9250489419
14.645160308
18.2920995645
14.9095521076
15.7095129797
14.1555433995
14.4835537507
17.0542647754
18.2677387763
21.1655795208
19.0017476746
17.4094583589
15.1823742959
17.965684525
17.6617956629
15.9949813647
15.6085691755
15.7761691709
14.1730211468
14.8075326345
15.6257896949
13.6383037761
14.0555146561
17.4630914803
19.3738878001
21.1512756994
21.1767589673
18.1362798594
18.4143151116
17.0982671331
17.3693219544
15.6566353373
16.3481773698
17.7904966202
17.2293825429
17.4078649358
17.3855177147
17.2712654403
17.3932661698
17.364866894
19.0989824044
24.3812447183
27.2927378587
27.231348685
27.8923384072
33.0067002219
42.363537164
48.0957792774
37.2245458733
20.0613143744
5.91221513614
0.0270712792816
0
0
0
0
0
0
0
0
0
0
0
0
0
0
0
0
0
0
0
0
0
0
0
0
0
0
0
0
16.6239349896
15.7454446812
18.7929442969
17.7416035659
17.3729282072
15.5526001498
15.2673594325
18.1031867937
16.6858348048
21.4377317665
19.7905437569
18.1219206778
15.9803512997
18.625156921
18.2552187865
16.8233933461
18.0844930109
17.4375652521
15.1377475745
16.1881745802
17.0036052503
15.1198209552
13.789759014
17.3212663184
19.4547537797
20.8889813543
21.1614536482
18.0847318296
18.5957638095
18.4250841883
18.4718329685
16.2802148851
16.879315538
17.046841082
18.165533212
18.6556139929
18.5849683114
18.350405547
18.3094140645
19.3525361819
24.3320619678
29.198560949
30.8977000317
31.4959358718
34.2913437391
40.8585850377
43.566265689
26.9384200668
22.6170287524
12.8948591385
0.0461687357012
0
0
0
0
0
0
0
0
0
0
0
0
0
0
0
0
0
0
0
0
0
0
0
0
0
0
0
0
0
17.319020976
16.5093238549
19.0497838613
18.6301725535
18.2813199484
16.9219460769
16.3312189632
19.4308286359
17.5621920321
21.8413153543
20.5828218293
18.8883333706
16.8805506
19.3218471152
18.8812889454
17.5286505515
18.9388082118
18.3900489174
16.1081021971
17.6076331761
17.5665531724
15.6473442738
14.960490636
15.1352399849
18.9113843885
20.2929601678
20.8570064572
17.992889844
18.5402398838
18.8019710691
19.2822914561
18.5891707076
16.4468850472
16.8263713173
18.2537644983
19.4663487504
19.9003000124
20.0578755948
20.0273647195
24.1131262647
29.9919012338
33.5785845508
34.7358501082
36.0121997484
39.5200009847
37.8255432023
22.2251711737
24.7020747455
20.3114237906
0.12341589637
0
0
0
0
0
0
0
0
0
0
0
0
0
0
0
0
0
0
0
0
0
0
0
0
0
0
0
0
0
0
17.1858113405
17.032374311
19.2173132418
18.677553041
18.8691346668
18.0048917526
17.2766723222
20.725226669
19.2778043102
22.389483507
21.4286711456
19.6901809598
17.8728034923
20.068762195
19.5862406376
18.4037372304
19.611949781
19.2258003726
17.1899488447
18.5246451332
16.5034257563
16.2227257903
15.8999140356
16.3465543351
17.3215527231
18.0901309034
19.9129442543
17.8718336813
17.7091794821
18.6667003028
19.6005936346
19.9040170499
18.1292666162
17.4962280238
17.9923914254
19.1214960959
20.5277810417
21.8143411275
23.5641644463
29.5846396892
34.7077146827
37.2279762303
37.5333280199
37.6527334347
32.3316475569
23.9693330907
24.7660571487
22.5998809046
0.337181428372
0
0
0
0
0
0
0
0
0
0
0
0
0
0
0
0
0
0
0
0
0
0
0
0
0
0
0
0
0
0
0
17.3230302645
17.415811916
19.4127098335
17.1898348803
19.0639813038
18.5585781718
17.9077496083
21.1744251136
19.977583224
22.9947423802
22.3422462176
20.5089882993
18.9725331158
20.8536189677
20.341871915
19.4256851546
20.3147014819
20.1754343677
18.3880754218
19.8236986554
17.7862513603
18.0487400078
17.1019922448
17.5476046747
19.4287495792
20.016851658
19.4900680558
17.7206411826
16.9278353323
18.5721742493
19.568376535
20.0230406384
19.9132535494
18.5265796704
19.9601434677
19.8919555873
21.0923537134
23.5991750035
28.0065922365
34.4621109255
38.5331663602
39.7026843896
37.197073003
29.1170610412
26.3996212645
26.6336403293
26.8040290998
2.87542317468
0
0
0
0
0
0
0
0
0
0
0
0
0
0
0
0
0
0
0
0
0
0
0
0
0
0
0
0
0
0
0
0
17.9859286298
18.0622414845
19.5650095887
17.5271062951
19.2062651586
18.8007032686
18.3530902068
21.1921679253
20.4907958337
23.4185927274
23.2777471446
21.2984100536
20.1808340414
21.638888445
21.0797583772
20.4310523536
20.972553438
21.2272595771
19.6439539861
21.1002416657
19.5675147032
20.3026953181
19.9275481032
18.1893526672
19.8593088711
20.9854949854
21.0943265478
17.6063743044
16.0032412406
18.4583300229
19.6739881461
19.153877549
19.1548060418
18.7448566859
19.8100998797
20.2300908515
21.8322676132
25.5327755638
32.355222266
38.9637050921
41.7804172662
40.3473505282
30.196879601
27.1632980312
28.0257197645
27.618294183
18.4636458129
0.0812508011886
0
0
0
0
0
0
0
0
0
0
0
0
0
0
0
0
0
0
0
0
0
0
0
0
0
0
0
0
0
0
0
0
18.8380734584
20.2870841288
19.8304829871
18.5326897724
19.6610075387
19.0987586369
18.7862906457
21.1936822573
20.9849296031
23.4528437483
24.2265653094
22.0335702323
21.256551791
22.2263659821
21.8070515106
21.1472347798
20.922623381
22.2053019554
21.0347604577
22.2009427725
21.7050290573
21.4840144133
21.1874782249
20.7199097407
19.6465613579
20.5951241417
22.0154861782
16.5311321428
15.4594140552
17.4886520245
19.6388256926
19.939779939
20.4523129033
18.696028594
19.4870322341
20.46697124
22.1926014479
27.3123768068
36.4018119126
43.0548939858
44.4765952859
36.0667554771
29.0941182378
30.4221981478
30.1439094154
25.219211885
0.346627799113
0
0
0
0
0
0
0
0
0
0
0
0
0
0
0
0
0
0
0
0
0
0
0
0
0
0
0
0
0
0
0
0
0
19.4597368347
20.9386800016
20.4576943952
19.4267958832
20.3172752745
19.6197598976
19.2964734406
21.295759795
21.489389824
23.1899637082
25.0920668911
22.7989577253
21.8482169645
22.7044569893
22.6696210755
21.7985306178
20.8749561448
22.8831509911
22.5674152926
23.1490126411
22.9670992665
23.0195905909
21.1382161563
21.1308164724
20.5547165919
22.4299926775
23.3243450989
19.378801414
14.9985881788
16.2808354479
18.9946405269
20.2772000057
20.2894266657
19.3191999193
18.9541608055
20.5723530249
22.1282143377
28.7131925261
40.0571210045
47.1115182255
43.8720781208
30.0223325533
30.9491793831
32.92648806
31.4325762399
4.00450634519
0.0134574155142
0
0
0
0
0
0
0
0
0
0
0
0
0
0
0
0
0
0
0
0
0
0
0
0
0
0
0
0
0
0
0
0
0
19.9352786806
21.2632000019
21.0292997377
20.0269161345
20.9852885256
20.3261956783
19.899548027
21.5899625253
22.0715304855
22.5094865043
25.6676513333
23.6767655278
22.2680216719
22.4621712701
23.5977502244
22.6405767345
21.3516501564
23.4480360344