/*--------------------------------*- C++ -*----------------------------------*\
| =========                 |                                                 |
| \\      /  F ield         | OpenFOAM: The Open Source CFD Toolbox           |
|  \\    /   O peration     | Version:  v1806                                 |
|   \\  /    A nd           | Web:      www.OpenFOAM.com                      |
|    \\/     M anipulation  |                                                 |
\*---------------------------------------------------------------------------*/
FoamFile
{
    version     2.0;
    format      ascii;
    class       volScalarField;
    location    "991";
    object      pa;
}
// * * * * * * * * * * * * * * * * * * * * * * * * * * * * * * * * * * * * * //

dimensions      [0 2 -2 0 0 0 0];


internalField   nonuniform List<scalar> 
6400
(
-0.118852089203
-0.118852802013
-0.118854836388
-0.11885888104
-0.118865046854
-0.118873426002
-0.11888411057
-0.118897525701
-0.118914235198
-0.118934998771
-0.118961610254
-0.118995303761
-0.119035988841
-0.119084169984
-0.119141005931
-0.119208022905
-0.119286670388
-0.119377864748
-0.11948181614
-0.119597697603
-0.119724725219
-0.119864518375
-0.120020854101
-0.12019780743
-0.120398480673
-0.120624140777
-0.120874740675
-0.121150469816
-0.121452402594
-0.121782112467
-0.122141085069
-0.122529610195
-0.122945870592
-0.123387756037
-0.123854594386
-0.124345844436
-0.124862548903
-0.125408186236
-0.125982174585
-0.126579729647
-0.127201273749
-0.127853771601
-0.128540696517
-0.12925667009
-0.129993518221
-0.13074466598
-0.13150467814
-0.132268802415
-0.133032400605
-0.133791089495
-0.134540732666
-0.13527530158
-0.135985374513
-0.136659938314
-0.137294416309
-0.137888660226
-0.138436057505
-0.138925621418
-0.139351993772
-0.139717990067
-0.140026672586
-0.140278435935
-0.140475302218
-0.140636198602
-0.140797113255
-0.140995520494
-0.141237582024
-0.141479081185
-0.141682309976
-0.14184399066
-0.141974521834
-0.142086037853
-0.142186422226
-0.14227320944
-0.142348722044
-0.142412900696
-0.142464908663
-0.142498355257
-0.142519422505
-0.142528282245
-0.118851071748
-0.118851826849
-0.1188536661
-0.118857572978
-0.118863988823
-0.118872597964
-0.118883249354
-0.118896117495
-0.118912206022
-0.118932709316
-0.118958990617
-0.118992153223
-0.119032538299
-0.119080506519
-0.119136859024
-0.119202944139
-0.119280830418
-0.119371619481
-0.119475274408
-0.119590627129
-0.119716423128
-0.119854983109
-0.120010569909
-0.120186899634
-0.12038699864
-0.120612137909
-0.120862076
-0.121137228084
-0.121438714927
-0.121767908627
-0.12212615178
-0.122514142647
-0.122930143883
-0.123371451533
-0.12383784245
-0.124328883478
-0.124845360522
-0.125391184321
-0.125965871779
-0.126564193167
-0.127185915625
-0.127839039422
-0.128527861312
-0.129245467254
-0.129983447395
-0.13073590284
-0.13149739479
-0.132263254722
-0.133028599905
-0.133788265533
-0.134538014278
-0.135273753385
-0.135987146906
-0.13666388199
-0.137300170712
-0.137896642135
-0.138443436737
-0.138931361984
-0.139357810314
-0.139723557343
-0.140030560128
-0.140282193598
-0.140481021314
-0.140645468468
-0.14080950866
-0.141009423165
-0.141254342681
-0.14149576537
-0.141697786503
-0.141859082637
-0.141989488099
-0.142101418147
-0.14220289663
-0.14229106322
-0.142365314662
-0.142426813213
-0.14247447505
-0.142506420006
-0.142526663234
-0.142533346904
-0.118848156873
-0.118849360375
-0.118850986205
-0.118854499104
-0.118860576399
-0.118869895285
-0.118880999825
-0.118893127983
-0.118908151765
-0.118927822936
-0.118953372907
-0.118985751348
-0.119025405756
-0.119072631718
-0.119127935119
-0.119191935832
-0.119267710933
-0.119358181369
-0.119461259806
-0.119575000838
-0.119698524239
-0.119834363362
-0.119988315661
-0.120163927939
-0.120362769511
-0.12058621542
-0.120834851869
-0.121108926482
-0.121409275657
-0.121737245788
-0.1220941492
-0.122480999174
-0.122896426408
-0.1233362947
-0.123800995379
-0.124291999055
-0.124808228813
-0.125353538778
-0.125928935133
-0.12652934842
-0.127154736672
-0.127810853253
-0.12850050927
-0.129218930899
-0.129958683327
-0.130713487576
-0.131477909125
-0.132246970633
-0.133015710225
-0.133779201266
-0.134532812449
-0.135270949868
-0.135984891714
-0.136665251811
-0.137307621355
-0.137906609998
-0.138453012441
-0.138940495128
-0.139366743754
-0.139732137649
-0.140038972339
-0.140289934947
-0.14049136529
-0.140663742112
-0.140839836485
-0.141048630384
-0.141287625631
-0.141522735201
-0.141726194671
-0.141890485639
-0.142023860837
-0.142137475984
-0.142236042334
-0.142319615177
-0.142391148731
-0.142449534204
-0.142492691672
-0.142521780864
-0.142539763006
-0.14254610839
-0.118843922339
-0.118845119045
-0.118846455721
-0.118849587855
-0.118854753426
-0.118863651285
-0.118876752962
-0.1188885946
-0.118902164223
-0.118920521816
-0.118944935303
-0.118976265095
-0.11901489138
-0.119060717974
-0.119114166973
-0.119177046955
-0.119251600483
-0.119339304683
-0.119438362975
-0.119547351026
-0.119668030787
-0.119803089187
-0.119955741806
-0.120129328346
-0.120326122527
-0.120547502044
-0.120794163474
-0.121066421034
-0.121365000191
-0.121691094068
-0.122046238213
-0.122431372001
-0.122845225818
-0.123284311264
-0.12374642426
-0.12423508392
-0.124752261723
-0.125297821631
-0.125872889891
-0.126475943337
-0.127106305341
-0.127766814471
-0.12845909045
-0.129179689031
-0.129922328415
-0.130680792696
-0.131449479071
-0.132223198412
-0.132996895861
-0.133765557907
-0.134524069133
-0.135266302125
-0.135984359347
-0.136670252043
-0.137317693357
-0.137919383677
-0.138466942941
-0.138954781151
-0.139380858876
-0.139745711881
-0.140051956705
-0.140304630273
-0.140515420669
-0.140703927484
-0.140891104138
-0.141098715921
-0.141335515671
-0.141570952351
-0.141776816567
-0.14194395857
-0.142076988107
-0.142185328995
-0.142277497325
-0.142360624599
-0.142432604457
-0.142486395593
-0.142522778212
-0.142549734709
-0.142568142871
-0.142575618047
-0.118837300834
-0.118837501541
-0.118839052251
-0.118842080113
-0.11884744876
-0.118854984859
-0.118866490121
-0.118879017661
-0.118892754097
-0.11891035334
-0.11893342654
-0.118963467538
-0.119000719092
-0.119045545732
-0.11909818481
-0.119158660953
-0.119229118581
-0.119311171026
-0.119405024891
-0.119510692126
-0.119629034304
-0.11976185715
-0.119912202632
-0.120083249967
-0.120277244279
-0.120495763985
-0.120739594747
-0.121009272139
-0.121305456321
-0.121629148501
-0.12198171103
-0.122364868282
-0.122777478752
-0.123213223362
-0.123672754422
-0.124159453985
-0.124675218395
-0.125221696174
-0.12579882231
-0.126405351737
-0.127040767471
-0.127706361607
-0.12840269491
-0.129126980121
-0.129873855083
-0.130637342821
-0.131411715214
-0.132191590069
-0.132971779244
-0.133747112085
-0.134512127798
-0.135260491662
-0.1359847707
-0.136677273905
-0.137330439767
-0.137935896657
-0.138485634294
-0.138974568838
-0.139400972538
-0.139765968641
-0.140073740809
-0.140332847258
-0.140558143114
-0.140763830217
-0.140960818162
-0.14117097442
-0.141405279784
-0.141639694975
-0.141847471094
-0.142015535914
-0.142144398815
-0.142246854818
-0.142340246395
-0.142427440375
-0.142495933726
-0.142542864083
-0.142575638716
-0.142604329717
-0.142621040341
-0.142626173096
-0.118825617813
-0.118825487735
-0.118827873831
-0.118830766632
-0.118836139295
-0.118843245141
-0.118853754171
-0.118865768632
-0.11887969399
-0.118896753585
-0.118918173553
-0.118946521504
-0.118983014598
-0.119026910512
-0.119076680875
-0.119133324362
-0.119199011802
-0.119275964384
-0.119365050281
-0.119466537229
-0.119581008522
-0.119710469009
-0.119857705801
-0.120025536719
-0.120216060562
-0.120430704154
-0.120670849274
-0.120937134558
-0.121230252685
-0.121551020949
-0.12190062625
-0.122280491014
-0.122689344204
-0.123123626207
-0.123579599337
-0.124063012653
-0.124578284783
-0.125126251764
-0.125706135041
-0.126316767459
-0.126957597565
-0.127629007284
-0.12833077402
-0.129060348274
-0.129812987358
-0.130582983463
-0.131364549494
-0.1321521344
-0.132940398333
-0.133724002432
-0.134497263157
-0.135253747875
-0.135986144498
-0.13668652384
-0.137346395355
-0.137956843204
-0.13851013425
-0.139001583553
-0.139429957767
-0.139797512239
-0.140110663585
-0.140380813677
-0.140623234879
-0.14084293894
-0.141049898934
-0.141268438035
-0.141506296902
-0.141738592123
-0.141943625314
-0.142106979303
-0.14223029639
-0.142334856445
-0.14243652136
-0.142522754084
-0.14258426271
-0.142624909924
-0.14265720804
-0.142682717939
-0.142694792062
-0.142699302924
-0.118808250316
-0.11880925323
-0.11881293658
-0.11881690951
-0.118820674429
-0.118827461608
-0.118837784053
-0.118849319481
-0.118862879407
-0.118879193972
-0.118899986569
-0.118926230219
-0.118960943089
-0.119001725605
-0.11904774987
-0.119100110577
-0.11916143107
-0.119233912684
-0.119318194971
-0.119414282885
-0.119523859154
-0.119649184369
-0.119792354008
-0.119955916665
-0.120142066712
-0.120352511868
-0.120587411099
-0.120849265017
-0.121138787053
-0.121456581117
-0.121802186496
-0.122177269693
-0.122582021726
-0.123011180503
-0.123464547382
-0.123946312808
-0.124461554047
-0.125011204948
-0.125594224983
-0.126209414844
-0.126856125576
-0.127534155471
-0.128242695015
-0.128979197778
-0.129739270764
-0.130517417519
-0.131307823239
-0.132104795737
-0.132902841005
-0.133696462087
-0.134479812395
-0.135246350909
-0.135988647777
-0.136698374588
-0.137366441669
-0.137983747276
-0.138542858724
-0.139039515829
-0.139473144714
-0.139847188795
-0.140170132147
-0.14045478564
-0.140712154464
-0.140946844475
-0.141170367528
-0.141400498194
-0.141641538829
-0.14186789106
-0.142063391553
-0.142220022902
-0.142346046967
-0.142462517041
-0.142569229446
-0.142649274616
-0.142702710183
-0.142737903158
-0.142767092697
-0.142783492997
-0.142787209965
-0.142789259105
-0.118788083002
-0.11879013656
-0.118794047794
-0.118799233233
-0.11880255178
-0.118809443041
-0.118818566216
-0.118829512816
-0.118842639981
-0.118856754319
-0.118877015545
-0.118902249529
-0.118933629438
-0.118970405357
-0.119012313601
-0.119060042736
-0.119117131321
-0.119185030171
-0.119263594246
-0.119353719042
-0.119457674058
-0.119577779744
-0.119715867654
-0.119874595018
-0.120055678128
-0.120260340656
-0.12049019487
-0.120744849062
-0.12103031595
-0.121344922282
-0.121685934218
-0.122053606563
-0.122452483362
-0.122877107159
-0.123327231265
-0.123808566002
-0.124324456773
-0.124875885127
-0.12546222033
-0.126082366518
-0.126735523888
-0.127421065906
-0.128137732807
-0.128882848045
-0.129652155271
-0.130440273949
-0.131241358719
-0.132049586896
-0.132859302758
-0.133664845103
-0.134460215998
-0.135238734744
-0.135992774376
-0.1367136961
-0.137392197224
-0.138019344055
-0.138588045032
-0.139094239782
-0.139537505067
-0.139921560837
-0.140256124099
-0.140554721842
-0.140828269155
-0.141084774454
-0.14132732501
-0.141569336821
-0.141808257355
-0.142026597513
-0.142212753143
-0.142368135997
-0.142505670308
-0.142634820809
-0.142740272113
-0.14281239568
-0.142856474545
-0.142883946185
-0.142899467539
-0.142901196368
-0.142891999408
-0.142886736039
-0.118766315794
-0.118768810596
-0.118772311301
-0.118775784007
-0.118779840238
-0.118787677704
-0.118795744721
-0.118805675697
-0.11881865409
-0.118831747645
-0.118848277419
-0.118872035424
-0.118900686157
-0.118933033557
-0.118970687298
-0.119014635076
-0.119066476717
-0.11912852197
-0.11920091853
-0.119284901957
-0.119382623441
-0.119496312087
-0.119627708454
-0.119780058806
-0.119956402852
-0.12015366067
-0.120377033504
-0.120626768917
-0.120904442229
-0.121212661609
-0.121548751365
-0.121912355579
-0.122301322657
-0.122719567125
-0.123167904003
-0.123649145874
-0.124165856647
-0.124719203432
-0.125309042773
-0.125934533752
-0.126594782369
-0.127288821266
-0.128015019082
-0.128770501901
-0.129550992842
-0.130351121514
-0.131164979977
-0.131986598145
-0.132810121411
-0.133629686779
-0.134439127331
-0.135231630942
-0.13599946397
-0.136734000146
-0.137426250935
-0.138067840996
-0.138651708945
-0.139172934359
-0.13963005937
-0.140025642704
-0.140371196764
-0.140683853463
-0.140976226484
-0.141255096207
-0.141520654262
-0.141776474064
-0.142018282286
-0.142224523952
-0.142401423957
-0.142559653669
-0.142714048231
-0.142853124743
-0.142955921099
-0.143019581638
-0.143051287998
-0.143060856143
-0.143051530619
-0.14302966514
-0.143003339874
-0.142987052579
-0.118742800186
-0.11874541328
-0.118749033477
-0.118751339277
-0.118755319817
-0.118762135788
-0.118769150279
-0.118777475337
-0.118788285291
-0.118802318729
-0.118816092571
-0.118836425094
-0.118861783817
-0.118890159153
-0.118922834607
-0.11896263854
-0.119009578483
-0.119064934126
-0.119130163657
-0.119207314916
-0.11929843084
-0.119405270186
-0.119529078123
-0.119672372694
-0.119842087042
-0.120033918027
-0.120246072047
-0.120489166082
-0.120759179418
-0.121061007651
-0.121390520602
-0.121746650463
-0.122129139268
-0.122540647389
-0.122986004083
-0.123466845389
-0.123984425436
-0.124539848735
-0.125133410071
-0.125764635046
-0.126432666897
-0.127136280607
-0.127873502242
-0.128641214579
-0.129435021849
-0.130249472523
-0.131078534941
-0.13191603514
-0.1327558419
-0.133591806533
-0.134417558783
-0.135226219621
-0.136010218987
-0.136761511286
-0.137472179966
-0.1381348235
-0.138741145615
-0.13928304214
-0.139758042867
-0.140165962472
-0.14052127196
-0.14084814613
-0.141159239222
-0.141459273444
-0.141747831934
-0.142020317232
-0.142263658334
-0.142472888508
-0.142636895617
-0.142795374631
-0.142971408175
-0.143122994147
-0.143226982138
-0.143282304617
-0.143295318406
-0.143271243224
-0.143225954949
-0.143169027669
-0.143118717697
-0.143088433327
-0.11871677678
-0.118718967241
-0.11872231467
-0.118724539413
-0.118729213763
-0.11873366655
-0.118739098858
-0.118745749684
-0.11875251837
-0.11876525641
-0.118777785195
-0.118794782723
-0.118816450117
-0.118841462767
-0.118869612362
-0.118903698603
-0.118944933991
-0.11899360752
-0.119051274572
-0.119120433674
-0.119203820401
-0.119303572046
-0.119420844807
-0.119554071141
-0.119711420837
-0.119897449347
-0.120101653182
-0.120333828345
-0.120594943032
-0.120884138655
-0.121207365442
-0.121556889331
-0.121932560348
-0.12233869331
-0.122780775238
-0.123260510249
-0.123778697691
-0.124336290884
-0.124933824702
-0.125571185353
-0.126247711117
-0.126962047695
-0.127711896488
-0.128493851115
-0.129303335644
-0.130134759777
-0.130981898679
-0.131838266504
-0.13269730877
-0.133552455985
-0.134397064588
-0.135224307117
-0.136027191084
-0.136799080153
-0.137534188558
-0.138226797417
-0.138864121342
-0.139431480806
-0.139932996409
-0.140358117799
-0.140718975319
-0.141056795275
-0.141382489587
-0.141700335345
-0.142007760795
-0.142296058213
-0.142551006234
-0.14276896711
-0.142912536734
-0.143060686832
-0.14328098061
-0.143460386938
-0.143573363723
-0.143619260835
-0.143602784453
-0.143522939544
-0.143429128523
-0.143319246257
-0.143231363404
-0.143179358135
-0.118687744915
-0.118689034982
-0.118690626776
-0.118693565841
-0.118698665504
-0.118701488349
-0.118705368988
-0.118710666399
-0.11871435483
-0.118722854295
-0.118733322578
-0.118746978987
-0.118764442121
-0.118785847859
-0.118810789518
-0.118838769558
-0.118873017499
-0.118914363994
-0.118964124829
-0.119024418908
-0.119098128995
-0.119188565209
-0.119299756808
-0.11942636934
-0.119569116972
-0.11974271721
-0.119939362474
-0.120157834656
-0.120410754817
-0.12069074822
-0.121000534198
-0.121340189345
-0.121709260881
-0.122111552818
-0.122550504141
-0.123028546295
-0.123546956445
-0.124106729276
-0.124708526825
-0.125352474903
-0.126038202265
-0.126764440138
-0.12752863438
-0.128327028038
-0.129154828066
-0.130006297596
-0.130874959274
-0.13175385382
-0.132635775695
-0.133513500034
-0.134379990119
-0.135228572784
-0.136053275211
-0.136849843251
-0.137615953672
-0.138350232234
-0.139028518033
-0.139623870068
-0.140179027684
-0.140633637765
-0.140984662814
-0.141321145287
-0.141651938855
-0.141984027748
-0.142312956518
-0.142629774424
-0.142901052588
-0.143159601251
-0.143259420184
-0.1433048104
-0.143641211858
-0.143879283067
-0.144017302916
-0.144053066096
-0.143994643258
-0.143819431693
-0.143670357706
-0.143469778117
-0.1433211699
-0.143230422252
-0.11865600071
-0.118656434606
-0.118655897617
-0.118658674429
-0.118662209021
-0.118664480066
-0.118667126389
-0.118670622384
-0.118672624728
-0.118677221747
-0.118683883061
-0.118693429474
-0.118706102827
-0.118722338671
-0.118743233907
-0.118765909445
-0.118793359678
-0.118826974499
-0.118868360367
-0.118919353869
-0.118982260352
-0.119060594675
-0.119161329136
-0.119282854629
-0.11941485246
-0.119571076894
-0.119757923185
-0.11996399677
-0.120200218119
-0.120469952429
-0.120769425865
-0.121099323006
-0.121460199396
-0.121857277215
-0.122292794624
-0.122768861225
-0.123287169211
-0.123848999885
-0.124455331786
-0.125106472341
-0.125802205591
-0.126541507511
-0.127321806974
-0.128139025674
-0.128988108153
-0.129863202895
-0.130757563986
-0.131663565457
-0.132573000045
-0.133477639407
-0.134369800322
-0.135242993718
-0.13609239405
-0.136916548182
-0.137717289812
-0.138511229635
-0.139248945622
-0.139863444491
-0.140554152719
-0.141155425685
-0.141394819255
-0.141704282463
-0.142034632304
-0.142387334408
-0.142736755303
-0.143018213843
-0.143352320825
-0.143160798969
-0.143123408249
-0.14334765274
-0.144235501651
-0.144624624534
-0.144771302339
-0.144763476768
-0.144653441008
-0.144153100262
-0.14395713394
-0.14359161067
-0.143359057379
-0.143195519476
-0.118622194395
-0.118622398694
-0.118621980316
-0.118621995024
-0.118622725403
-0.118623830313
-0.118624994958
-0.118625826398
-0.118626746923
-0.118627543895
-0.118629809078
-0.118634676717
-0.11864214216
-0.118652411559
-0.118666389815
-0.118683507626
-0.118704768598
-0.118730767209
-0.118763360946
-0.118804555399
-0.118856351461
-0.118921508665
-0.119007700957
-0.119119865652
-0.119244857398
-0.119383411543
-0.119555319473
-0.119751382397
-0.119969412135
-0.120222676769
-0.120509306607
-0.120828732682
-0.121182785443
-0.12157415382
-0.122005413885
-0.12247897723
-0.122996946778
-0.123560776024
-0.124171714759
-0.124830581034
-0.125537327112
-0.126291012423
-0.127089202019
-0.127927724157
-0.128801362928
-0.129704247361
-0.1306294082
-0.131568323434
-0.13251130946
-0.133448608989
-0.134371499482
-0.135273635963
-0.136150298795
-0.137000289822
-0.137823911272
-0.138720731766
-0.139569617429
-0.140058890622
-0.141136823326
-0.14111971541
-0.141097479378
-0.14114531147
-0.141202965801
-0.141278304138
-0.141374715422
-0.141548766368
-0.141894985266
-0.142442481052
-0.142525703508
-0.142393927434
-0.14265395194
-0.143059741684
-0.143446781357
-0.143662018981
-0.143748564003
-0.144132394763
-0.144544260821
-0.143635558233
-0.14330137846
-0.142982487964
-0.118586186156
-0.118586281085
-0.118586346448
-0.118583343215
-0.118581442884
-0.118580688586
-0.118579935469
-0.118578317585
-0.118577939961
-0.118574074975
-0.118571479752
-0.118571307169
-0.118573303522
-0.118577602479
-0.118583994753
-0.118593818218
-0.118607789641
-0.118625633901
-0.11864884967
-0.11867947621
-0.118719650393
-0.118771598733
-0.11884106713
-0.118938381702
-0.119055430652
-0.119178973281
-0.119329811598
-0.119514562116
-0.119720759756
-0.119953320977
-0.120223109683
-0.120529946935
-0.12087486252
-0.121259408567
-0.121685665096
-0.122156167361
-0.122673346766
-0.123239152796
-0.123854969436
-0.124521945863
-0.125240599369
-0.12601015521
-0.126828194724
-0.127690577249
-0.128592234993
-0.129527641048
-0.130489790122
-0.131469039131
-0.132453564342
-0.133431314504
-0.1343920393
-0.135330316161
-0.136238308584
-0.13710542575
-0.137890664565
-0.139014846372
-0.140192299217
-0.140123409678
-0.140272958554
-0.140624240719
-0.14066610769
-0.140565269893
-0.140374520579
-0.140141110074
-0.139878694276
-0.139655929822
-0.13958497568
-0.13972167059
-0.139723154672
-0.13966157863
-0.139857070294
-0.140283585142
-0.140854549214
-0.141434932276
-0.141945399059
-0.142319133705
-0.14261637749
-0.143110996525
-0.143295146365
-0.14254255748
-0.118547777761
-0.118547369748
-0.118546125849
-0.118541907384
-0.118538000942
-0.118535297131
-0.118532052106
-0.11852740857
-0.118524461804
-0.11851637561
-0.118509046685
-0.118503707467
-0.118500143275
-0.118498399792
-0.118497025165
-0.118498324937
-0.118503621244
-0.118512215238
-0.118525100965
-0.118544189303
-0.11857163568
-0.118609770233
-0.118662622297
-0.118740977293
-0.118844428522
-0.118957753587
-0.119084649976
-0.119246588389
-0.119440359011
-0.119658697426
-0.119910432617
-0.120201831781
-0.120534941891
-0.120910773586
-0.121330849168
-0.121797413478
-0.122313280345
-0.122880772373
-0.123501692459
-0.124177341843
-0.124908705974
-0.125695548807
-0.126535566108
-0.127424504678
-0.128357657862
-0.129330642276
-0.13033719591
-0.131366332598
-0.132402880936
-0.133431513636
-0.13443975352
-0.13542703764
-0.136376109242
-0.137230947124
-0.137598279505
-0.139297494287
-0.139469269365
-0.139630458336
-0.139854082453
-0.140086067937
-0.140072991647
-0.139838519022
-0.13943271721
-0.138913289291
-0.138313427717
-0.137699912362
-0.137151176499
-0.136692122041
-0.136256638925
-0.135917413377
-0.135818782227
-0.135987737996
-0.136413865537
-0.137031981527
-0.137783271364
-0.138693728122
-0.139806546236
-0.140745616485
-0.140999755811
-0.140920363146
-0.118507856229
-0.118506900072
-0.118504548725
-0.118498788771
-0.118493322769
-0.118488349752
-0.118482152824
-0.118473641843
-0.118466181067
-0.118454671315
-0.118442704758
-0.118432055843
-0.118422825602
-0.118415079227
-0.118405147875
-0.118397281151
-0.11839290901
-0.118391181232
-0.118392574497
-0.118398975135
-0.118412376922
-0.118435264313
-0.118470992153
-0.118528323619
-0.118612220491
-0.118714419382
-0.118821838488
-0.11895701231
-0.119127174638
-0.119329389606
-0.11956467111
-0.119840517775
-0.120159929095
-0.120525062135
-0.120937610958
-0.121399421377
-0.12191323738
-0.122482072987
-0.123108096102
-0.123792928428
-0.124537881631
-0.125343275917
-0.126207300309
-0.127125617433
-0.128093767431
-0.129109557376
-0.130168927427
-0.13125957564
-0.132361869063
-0.133456055288
-0.134523238937
-0.135591252768
-0.136666313659
-0.137733761281
-0.137794457221
-0.137989127882
-0.138544319409
-0.139073251914
-0.139379665266
-0.139333828038
-0.139002498987
-0.138440299462
-0.13769309366
-0.136808008689
-0.135831142011
-0.134828177604
-0.133854948834
-0.132930669188
-0.132074643761
-0.131381365734
-0.130967025839
-0.130856382713
-0.131041218651
-0.131507085562
-0.132300849372
-0.13355247459
-0.135168212899
-0.136610434661
-0.138106661146
-0.14095419703
-0.118467436209
-0.118465804169
-0.118461576603
-0.118454690912
-0.118448152998
-0.118440769441
-0.118431508286
-0.118419342854
-0.118407053477
-0.118390586311
-0.118373249107
-0.118356685369
-0.11834111535
-0.118326695708
-0.118307695181
-0.118290286587
-0.118275510061
-0.118262675127
-0.118251487391
-0.118244019294
-0.118241997597
-0.118248010602
-0.118265221006
-0.118300115858
-0.118359700149
-0.11844373306
-0.118538378114
-0.118649265367
-0.118791846183
-0.118969619697
-0.119184342861
-0.119442167175
-0.119745598783
-0.120098015634
-0.120501608423
-0.120957624504
-0.121468952036
-0.122038806914
-0.122670018391
-0.123364415665
-0.124123661113
-0.124948900338
-0.125838974667
-0.126789576864
-0.127795553473
-0.128857401168
-0.129977765423
-0.131145644451
-0.132332865157
-0.133511742067
-0.134630129303
-0.135787590782
-0.137008631028
-0.137252950322
-0.137443282123
-0.137590380219
-0.138117892911
-0.138507984347
-0.138502123716
-0.138063420262
-0.13730104132
-0.1362955682
-0.135107587639
-0.13378364364
-0.132375261457
-0.130944578625
-0.129542387039
-0.128197723905
-0.126946912649
-0.125871196315
-0.125076093078
-0.124621989506
-0.124481970492
-0.124680604388
-0.125372050664
-0.126769755928
-0.128668304751
-0.130294389437
-0.133284259211
-0.144600270895
-0.118427627243
-0.118425278254
-0.118419111995
-0.118411327409
-0.118403402319
-0.118393381713
-0.11838079873
-0.118365301907
-0.118347660229
-0.118325279513
-0.118301657795
-0.118278322686
-0.118255342963
-0.118232031797
-0.118204240189
-0.118177022616
-0.118151123008
-0.118126065619
-0.118101519269
-0.118079217944
-0.118060490109
-0.118047877601
-0.118044937167
-0.118055833532
-0.118087635407
-0.11814569607
-0.118223136372
-0.118312606566
-0.118428119952
-0.118579268503
-0.118768614655
-0.119003741961
-0.119288533431
-0.119625353966
-0.120017923513
-0.12046697284
-0.120974951277
-0.121545626132
-0.122182237897
-0.122887000666
-0.123661494858
-0.124507426499
-0.125424646687
-0.126409655747
-0.12745789731
-0.128572209071
-0.129759944843
-0.131013712527
-0.132311026317
-0.133624524085
-0.134732528742
-0.135912616811
-0.136252631992
-0.136624708256
-0.1371205085
-0.137453275349
-0.137731394991
-0.137641152777
-0.137096234791
-0.136144152645
-0.134878838051
-0.133373107988
-0.131690004395
-0.129877351239
-0.12798519335
-0.126065179672
-0.124159496602
-0.122296539508
-0.120504741931
-0.118836371361
-0.117378710727
-0.116216288523
-0.11531868152
-0.114710536706
-0.114559799773
-0.115181704975
-0.116481500043
-0.117140877456
-0.117000288077
-0.122268013078
-0.118389353272
-0.11838639818
-0.118378927287
-0.118370098259
-0.118360016655
-0.118346936664
-0.118330448725
-0.118311433434
-0.118288142522
-0.118259398797
-0.118228908542
-0.118198135742
-0.118166969836
-0.118133528247
-0.118096263103
-0.118058423742
-0.118020463538
-0.11798174513
-0.11794264856
-0.117904417661
-0.117867768658
-0.117834818824
-0.117809861658
-0.117795141231
-0.117796970618
-0.117822994131
-0.117872382928
-0.117939425551
-0.118028848679
-0.118151674579
-0.118313788515
-0.118521045492
-0.11878213243
-0.11910029123
-0.119480121492
-0.119921432141
-0.120425430338
-0.120996515587
-0.121638549478
-0.122354308922
-0.123145424381
-0.124013472119
-0.124959679027
-0.125981973153
-0.127076225428
-0.128243967649
-0.129497663387
-0.130847147641
-0.132290863463
-0.133870615595
-0.134754218852
-0.135132471206
-0.135546029537
-0.136338402164
-0.136854915261
-0.13700115284
-0.136848172271
-0.136174418005
-0.135019873926
-0.133477305255
-0.131638763744
-0.129566950105
-0.12731463649
-0.124920214911
-0.122420210403
-0.119847203965
-0.117227560647
-0.114581578496
-0.111929946509
-0.10930750372
-0.106781146288
-0.104427915436
-0.102187270178
-0.0999202327909
-0.0976913977244
-0.0959031108137
-0.094498692858
-0.0897994518461
-0.0739801302803
-0.055529409195
-0.11835301538
-0.118349506281
-0.118341080826
-0.11833103107
-0.118318453372
-0.11830199832
-0.118281512001
-0.118258457095
-0.118228980754
-0.118193726245
-0.118156022992
-0.118117367623
-0.118077623616
-0.1180341028
-0.11798576194
-0.117936163043
-0.117885087553
-0.11783137417
-0.117775819761
-0.117720011076
-0.117663814451
-0.117608657585
-0.117559292884
-0.117517151767
-0.117487292348
-0.117477802031
-0.117493324878
-0.117532809755
-0.117597847631
-0.117687509111
-0.117816629995
-0.117993042958
-0.118225795236
-0.118518208593
-0.118879447186
-0.119312125321
-0.11981258317
-0.120384692924
-0.121032455924
-0.121759575066
-0.122568648469
-0.123461222768
-0.124439078925
-0.125499893645
-0.126636733205
-0.127852707496
-0.129169817043
-0.130627477878
-0.132307929953
-0.135023151224
-0.134281866599
-0.134511505976
-0.135279719614
-0.136165398655
-0.136340956175
-0.136047886974
-0.135291606445
-0.133962746371
-0.132153220599
-0.129964621436
-0.127482940796
-0.124761897213
-0.121841866405
-0.118750082709
-0.115511487176
-0.112148163516
-0.108680568929
-0.105127191885
-0.101503567093
-0.0978208581114
-0.0940857818739
-0.090283126899
-0.0862995570721
-0.0817594307282
-0.076499601653
-0.0708561767054
-0.0642615934919
-0.0499420834587
-0.0119803409874
0.0436125241255
-0.118318705407
-0.118314645113
-0.118305467853
-0.118294016254
-0.118278760254
-0.11825883222
-0.118234659682
-0.118206708571
-0.118170881291
-0.118129297652
-0.118084016027
-0.118036985942
-0.117988147003
-0.117934139099
-0.117873879475
-0.117811484277
-0.117746360469
-0.117676102172
-0.117602270167
-0.117526898025
-0.117448818952
-0.117369233323
-0.117292489819
-0.117220765256
-0.11715726121
-0.117109332239
-0.117085840867
-0.117088973189
-0.117124012652
-0.117182443632
-0.117274224591
-0.117411505275
-0.11761082577
-0.117877352282
-0.11821365853
-0.118630415152
-0.119126059827
-0.119699987714
-0.120355705631
-0.121095983142
-0.121924257469
-0.122844091046
-0.123856542235
-0.124954926281
-0.126128312414
-0.127382857258
-0.128741669247
-0.130204679858
-0.131385334756
-0.132575175169
-0.133262898285
-0.133550299953
-0.135117197061
-0.135638129787
-0.135352237571
-0.134466136237
-0.132999019653
-0.13095252826
-0.128440840884
-0.125561797773
-0.12239216581
-0.118981902706
-0.115369579461
-0.111584773106
-0.107655541793
-0.103605935102
-0.0994531415616
-0.0952014548663
-0.09083483479
-0.0863048957014
-0.0815131282778
-0.0762958668958
-0.0704172020829
-0.0634391572137
-0.0550416327261
-0.0453300386771
-0.0325808421284
-0.00727422560068
0.0476933488845
0.117956108594
-0.118286405596
-0.118281805089
-0.118271891357
-0.118258819929
-0.118240578167
-0.118217356463
-0.11818955899
-0.118156067484
-0.118114361558
-0.118066870744
-0.118013748083
-0.117957904275
-0.117899442988
-0.11783436678
-0.117761511118
-0.117685341357
-0.117605073076
-0.117516435307
-0.117422908859
-0.117326110752
-0.117223090974
-0.117116891182
-0.117010017125
-0.116905463787
-0.116806038321
-0.116717202637
-0.116649820432
-0.116608834365
-0.116601967316
-0.116626366398
-0.116681774683
-0.116776520489
-0.116930575076
-0.117161815011
-0.117473820968
-0.117870816129
-0.118357397092
-0.118932081755
-0.119596821968
-0.120353882878
-0.121205556321
-0.122155895643
-0.123203575868
-0.124336434321
-0.125545852797
-0.126853867478
-0.128322508776
-0.129959787164
-0.130381591587
-0.130005430155
-0.130553740712
-0.13272017193
-0.134512846292
-0.134551113881
-0.133733690662
-0.132151991696
-0.129928074483
-0.127135238813
-0.123904143844
-0.120332307739
-0.116495466165
-0.11244863323
-0.1082371289
-0.103896887357
-0.0994554614787
-0.0949252349937
-0.0902963181113
-0.0855294030406
-0.0805518775995
-0.0752490152629
-0.0694337897947
-0.0628039966789