/*--------------------------------*- C++ -*----------------------------------*\
| =========                 |                                                 |
| \\      /  F ield         | OpenFOAM: The Open Source CFD Toolbox           |
|  \\    /   O peration     | Version:  v1806                                 |
|   \\  /    A nd           | Web:      www.OpenFOAM.com                      |
|    \\/     M anipulation  |                                                 |
\*---------------------------------------------------------------------------*/
FoamFile
{
    version     2.0;
    format      ascii;
    class       volScalarField;
    location    "312";
    object      alpha;
}
// * * * * * * * * * * * * * * * * * * * * * * * * * * * * * * * * * * * * * //

dimensions      [0 0 -1 0 0 0 0];


internalField   nonuniform List<scalar> 
6400
(
0.844578424959
1.28717483524
1.98969339842
2.33496020694
2.67596172006
3.04888876401
3.63567545639
4.31695893439
4.50719398577
4.90003519185
6.03122459685
6.60625568137
7.0463877793
7.61116162425
8.42231170388
9.25949142483
9.91056183841
10.5319736703
11.0750629587
11.3184137283
11.2720374378
11.2713835965
11.5597625605
12.1806685452
12.8997478816
13.5101981065
13.9318698116
14.3040604058
14.7560197893
15.2998717341
15.8820072448
16.2498509538
16.3359129504
16.3059430912
16.1751643883
15.8580190646
15.7284881047
15.9859095292
15.790355965
15.2790513994
15.2132802124
15.7641206654
16.3558088881
16.6396444048
16.698792072
16.6019161245
16.424382354
16.2287247835
16.0232890715
15.8214823161
15.4775200057
14.6280496872
13.6694381858
12.5638172516
11.8771271055
11.8182622224
11.2805594711
9.7088555114
7.9309463807
7.05228239109
5.96376189536
4.80670588448
3.62456420487
5.24853677932
9.34941378684
14.3239056357
17.343641067
17.0776905224
15.0993721552
13.4445243176
12.5159711056
12.6209727751
13.0632666882
12.8846096492
14.815118867
14.2204545393
16.0238220085
9.92965871645
12.880393481
4.81911853207
3.09590642229
2.41580595289
2.96574491199
4.16981014471
3.88247536801
3.54388704465
3.59337008434
3.89839889101
4.36841087082
4.9871158945
5.76987186071
6.54999703423
7.21636502695
7.85201824526
8.4881570484
9.23265053337
10.0113365735
10.7893992843
11.8168210505
11.8502558026
11.5408342425
11.4538422967
11.6356565833
12.2036874501
13.1574950509
13.6552157732
14.021470463
14.4604308675
14.9443141429
15.4512207654
15.9792318676
16.5206463437
16.6094883875
16.593577261
16.5383277136
16.0258135732
16.012823317
16.283897418
15.9609450314
15.167046588
15.0392363056
16.9361903869
18.204314628
18.3333237541
18.2867587486
17.9790545551
17.5169104969
17.1152100116
16.5193194392
15.9778394732
15.7910221433
16.0741352078
15.6048903745
12.7876215441
12.3499946451
11.7768229353
10.0071698439
8.52218080278
7.23643563555
5.98947053901
4.95578226151
5.21055048612
3.92920318484
5.49686377009
9.42163139288
15.2668272952
19.0192474133
17.8431185866
15.6970740301
13.7655500147
12.9953540968
13.314541717
14.3002995671
13.6847250034
13.4751217508
12.9019502308
11.6589296537
9.78901343961
8.20709924827
4.29535190609
3.08436054471
2.63576445329
3.12732299804
3.25130403288
3.5695260789
3.89519458527
3.82394790646
3.8349649742
4.29075399308
4.97039810875
5.74774321403
6.5471603461
7.26677933444
7.91514306994
8.41163854431
9.07659959641
12.1066249328
14.2084677519
14.455354407
13.4979630894
11.3806233629
10.9645731896
11.8246351345
12.4545953061
12.9863609418
13.6123730486
14.1520187418
14.5960918209
15.0576622939
15.5822528803
16.0490544913
16.7488097019
16.878331121
16.4495604362
17.0429231182
16.5493616552
15.864103005
16.5764417542
16.2276314858
15.4190929352
15.2825896752
15.8713135796
16.4963458458
16.8024678182
16.8853372017
16.8324407744
16.6804068172
16.4502520526
16.1432854098
15.7856946579
15.382415624
14.8341571134
14.0382003031
13.3886795742
12.8841398138
11.4512604182
9.92012514716
8.58503380937
7.37037512017
6.28071093851
5.44024453493
4.65350629103
4.17236568558
6.40196428517
11.4819688324
16.1504106863
18.4626503035
18.6024222702
17.0201698671
15.3276198281
14.58302021
14.4268443158
13.7340067816
13.102814778
13.0130036487
12.6037880151
11.5677201913
9.9187763515
7.487369758
7.64690751132
2.91491600704
5.35196623107
3.27875834438
3.27333732401
3.90737814385
11.7272998892
10.0517604054
4.58815675001
4.29967901213
4.99201975479
5.77230997629
6.58045766109
7.27679946745
8.00106592465
9.91787308662
12.1882932086
13.832656332
13.9934677954
12.334506472
10.8533275111
10.9188314109
11.2365769791
11.687635611
12.352893095
13.0806485666
13.7678982626
14.3556858337
14.7568073671
15.2807599794
15.6660537757
16.4171092798
16.6962553636
17.3810871205
17.0731201977
16.2590316291
16.7464820479
16.1808462819
15.5878605395
15.5324238011
15.5218559951
15.6431765231
16.0477761601
16.5133521074
16.8131224616
16.933827055
16.9154905757
16.7893391157
16.577070281
16.2887105694
15.9354070318
15.5109823684
14.9783102631
14.3189968722
13.5943657736
12.6980788504
11.4664465312
10.073927444
8.77366466008
7.64365651781
6.71297842494
6.01047490634
5.51732649228
5.54564001653
7.1850780507
10.7592490716
16.4722949506
20.0554767466
20.271900666
18.6186357791
16.2754207958
14.6523488223
13.8230598434
13.9308603344
15.2346934577
15.1091287232
13.738499433
13.5390874635
16.7661105016
13.1964036454
11.2370773877
5.35095205157
7.35301080684
3.80477957519
4.12394790256
6.2284582164
11.6083363825
7.78608681795
4.8046716927
4.79504560898
5.21542364716
5.92489358388
6.76013090625
8.21193229922
10.7856367968
11.7588353289
11.954511409
11.5983835139
10.8568642514
10.4998719871
10.9155536936
11.0640617393
11.2231013862
11.7583384169
12.4611808591
13.2268124846
13.9709106603
14.4894497946
15.1301420292
15.3965772271
16.1947798228
16.4075081675
17.7862734574
17.2424016303
16.4476897668
16.611792544
15.8208126911
15.5748686718
15.5592860137
15.630370712
15.7276058133
15.896614483
16.2122889044
16.5814507965
16.8620259621
17.0043166282
17.0136797575
16.9116143503
16.7198357688
16.4528347891
16.1169525534
15.7039648522
15.1951604927
14.5788577917
13.838419728
12.8779766972
11.6488327797
10.3211993129
9.11240150319
8.12480261488
7.3857633175
6.90133037563
6.72097238333
7.12069222326
7.99805474193
10.7328158748
15.9311745163
20.1151645791
21.5292210188
20.3577566412
17.6049781904
15.1390387389
14.7741909662
16.9160160829
17.7189560177
16.6314159029
15.6670106856
18.2429029385
21.2094997265
16.5677453023
15.6893730749
9.68701982502
8.80886522711
4.71841003985
5.46512949112
11.8698537138
11.2930080186
5.7429214382
5.28820011431
5.35674527558
5.54885509613
6.22786530337
9.12811602585
12.5803633002
12.8908631515
12.3333528265
10.9669252285
10.0453059619
9.97777082024
10.8466011431
10.9227134045
10.8648989038
11.26891981
11.9087569512
12.676022731
13.3413499769
14.1087736861
15.0793754761
15.2016362957
16.269574932
16.1628357914
17.9474804067
17.3872408323
18.4156782659
16.9476573121
15.6269428843
15.3429869479
15.4608148501
15.6317824883
15.7863790974
15.9314346067
16.1218139956
16.3956992278
16.7054684622
16.9634216752
17.1133765358
17.1425120232
17.0617224997
16.8926345144
16.6532270554
16.3480660381
15.9670484323
15.4916009367
14.8958076604
14.1333305837
13.1434309879
11.9537261943
10.7358717863
9.66760964467
8.82780776664
8.25697035379
7.96624117303
8.14561051721
9.23451248751
8.58624163343
12.1954222223
17.6369151296
21.3255743021
22.7429618584
21.8170262111
18.4831140197
16.3235174707
18.0428610319
20.1673310921
19.5987016224
18.5519248219
18.5807997419
23.0428834951
24.5865512531
19.6335132764
19.4321430457
11.7566663188
8.43097352853
5.74223462007
5.42304453374
11.7439043846
7.79650907327
5.7117768861
5.79487240262
5.87106424026
6.54970975238
6.89862659011
12.506739919
13.0155970591
12.9264892077
11.1951515834
9.59334604777
9.45877177526
10.8365339989
10.8804191375
10.5135441266
10.8729327092
11.3817161158
12.0202944646
12.7843778188
13.7566403051
14.7393018314
15.0571557795
16.5418818545
16.2139956563
18.1987051034
17.4424880057
18.6517266415
17.5161488546
16.6189570258
15.2591891002
15.1830883718
15.4860248896
15.7600591809
15.954703283
16.1282085228
16.3366275577
16.5935547756
16.869983082
17.1091707837
17.2607796887
17.3032722901
17.2425202402
17.1010098014
16.8981635904
16.6358629306
16.2988495532
15.8602391399
15.2805556403
14.5120855274
13.5355933155
12.4263411613
11.3461756317
10.4270978489
9.70759678985
9.19472797449
9.01486233918
9.26856843683
9.45657239683
9.89116749845
13.3859726049
20.0468804559
22.6232179549
23.0541847807
22.0098657431
19.7764958517
19.5359338111
22.0232946649
22.4147261009
21.52393207
20.8878930253
22.7711381872
25.4322678723
26.8386464468
22.2961956788
21.1646831321
11.3560752086
7.80527947754
6.79626290671
11.7659764521
11.7297192332
6.36925314553
6.27363459356
6.36533702744
6.53377006349
7.05423560676
12.3230536984
13.1966098355
13.1154607882
12.4353591379
9.68639632056
8.96702861393
10.6546444258
11.054306415
10.3715116122
10.3544484954
10.9256591672
11.6090884882
12.2515856404
13.0946690761
13.8271116068
15.2242639719
15.1866286324
16.4867061096
18.100149626
18.2561881526
16.9590044664
17.8679068494
17.7535613962
15.5687475973
15.1647422351
15.2964793436
15.5963153031
15.8953252052
16.1256037506
16.3262391584
16.5511237322
16.8073086171
17.0681804993
17.293739688
17.4439483548
17.4966608653
17.4574066933
17.3499604875
17.1931129512
16.9842094386
16.7007386045
16.3055282253
15.7513905004
15.0037059951
14.0829024097
13.0890660857
12.1510651714
11.325813734
10.5896994049
10.0124429706
9.85624988868
10.1507794969
10.6867114203
11.5452523741
12.3826181971
20.018240828
24.2626140296
24.4146447757
23.8763692916
22.998882071
23.8678281991
25.1899593264
24.4611354951
23.7140689645
23.8511033192
26.0633177046
26.6599463702
27.1835033951
24.3177124058
22.1941539831
10.4614018269
7.46817132932
7.43617959999
12.6764551154
10.4246833124
6.73911547603
6.87974024575
7.08555772301
8.6100166303
7.03545945119
13.0964478892
13.6375754992
13.104073187
10.9139754007
9.04303433045
9.09191212747
10.7759248556
10.6426883137
10.1908997
10.3833459012
10.9150075844
11.7295780782
12.5128906444
13.8863684031
15.0913497019
15.0838232732
17.3268349226
16.1692752003
18.4158501189
17.1584334469
18.7798319001
16.7863008246
15.9365053134
15.3892739695
15.2962298752
15.4662642242
15.7376288202
16.0358902707
16.2985873846
16.5330981449
16.776721144
17.0378892906
17.2946313864
17.5131284764
17.6608913202
17.7231389824
17.709552758
17.6437603114
17.5415094145
17.3954600298
17.175499381
16.8349073129
16.3246926349
15.6298281404
14.8021913113
13.941322239
13.1082256324
12.2470398371
11.296261424
10.5521394125
10.5651763205
11.3697311218
12.4078509126
13.3003155259
13.9650074754
16.6800426688
24.3795453682
26.1202419314
26.2677404052
27.0192376954
28.1205362749
27.7568844417
26.6809665783
26.3808543386
27.2420911086
28.3038802669
28.0617001864
27.3946114234
26.3559177338
24.979791268
9.6769113433
7.68841871937
8.62104683371
12.6767533485
7.96018770874
7.74565621696
7.4872537989
7.73521817582
11.3358220448
9.87560584351
13.9245328105
13.8422416768
13.089204764
9.94813063343
8.95202590941
10.7957429894
11.0423149972
10.3059678406
10.1361235864
10.5636575563
11.0419233218
11.7979469892
12.4331757224
14.0695061062
16.4299243327
14.9369942051
17.2312223981
18.368099988
18.6643635583
19.0030269122
17.4786804948
17.3158933433
15.4516572967
15.2397341629
15.4366539773
15.6483079627
15.8969619099
16.1838505939
16.4704918219
16.7448473106
17.0174165234
17.2900551936
17.5477822493
17.7640408168
17.9122069531
17.9847437696
18.0002074747
17.983803678
17.9450963886
17.8706973919
17.7248667571
17.454004272
17.0114724423
16.4035044935
15.7002765263
14.9654196044
14.12867336
12.9737730194
11.61356672
10.9029696319
11.5584444083
13.0970971577
14.512561752
15.5498766895
16.2312247356
16.0315065877
16.9367988555
27.9268072134
30.8054028402
31.9765231345
31.9080299653
30.4729299623
29.4468490409
29.5520757593
30.5009805922
30.6687819868
30.3049861093
29.9383876789
30.2340764803
30.3963209765
9.36905309897
8.35634783687
12.2684167585
12.647390078
7.74285575736
8.43834055981
8.06948839606
8.74293065175
10.5744077119
13.5949569321
14.6406383519
14.0054842934
13.2014640325
9.72144999866
9.04395899056
11.3828551866
11.0628316947
10.2083395915
10.1507484955
10.7147021016
11.4859719352
12.1395326378
12.627143329
13.6349780795
16.5767589883
17.715170861
16.5510280336
18.5309328725
16.8834337633
19.0482136177
19.0795821174
17.1648470451
15.333579829
15.3314237143
15.610789426
15.8405076728
16.077664622
16.3512678008
16.6449986751
16.9568746148
17.2709453572
17.5645768943
17.8281432636
18.0456278596
18.1971239622
18.283860674
18.3329227985
18.3707133425
18.4014687886
18.406424424
18.3456203867
18.1617499388
17.8154660469
17.332563612
16.7765124709
16.1041697251
14.9795223763
13.1870531874
11.6945605706
11.6252300439
13.3637724592
15.6281244805
17.3038147623
18.4046810105
18.867050955
18.5323535489
17.6984252518
19.2632575708
32.5174181825
37.7634609348
36.540135357
34.1367900212
33.1217344865
33.2940441818
33.7697301024
33.855603613
33.9979057624
34.4238137838
34.9840838026
35.6360419208
9.46180262759
9.10194708404
13.8367437329
13.1325194608
10.9467027885
9.57660681285
8.84642018602
10.260633302
9.76543950229
14.5269186643
15.163431795
14.2246424715
13.0956282332
10.1369603463
9.80990980446
11.885570878
10.9908669283
10.224602639
10.2603038867
10.7553475978
11.6723899445
12.5862825391
14.4507929063
13.7822581244
15.9818547171
18.1064608422
16.2555823179
18.8441350444
19.3902544126
17.7657457919
17.7355527585
15.9056581197
15.6522298868
15.6561813136
15.8366245406
16.0598763949
16.2904383699
16.5524225308
16.8315329341
17.1578118886
17.5247196998
17.864940999
18.1410036394
18.358420479
18.516365585
18.6230895027
18.710306874
18.804237547
18.9056866802
18.9929257767
19.0233474417
18.9444515242
18.7333779334
18.4180859885
17.9946133401
17.1428393919
15.2454766928
13.0025706723
12.0787196922
13.2359769047
16.3234338182
19.0761331015
20.9049341774
22.2238010663
22.6790637333
22.1282593737
20.9379393798
19.3760788165
28.7974757963
38.959274687
41.8001706658
39.0845654656
38.0051062097
37.9171146682
38.0559556088
38.0449296815
38.7799070716
39.5098016053
39.4577473347
39.68102401
9.88849076899
9.66027640444
13.451113036
13.4583578975
13.4075909472
10.5296642421
9.75824461256
13.3157599727
9.89960310593
15.3673863919
15.5578348027
14.4585058044
13.0076123893
10.5904469283
12.893496572
12.9790875302
11.0585405696
10.3782236731
10.5007838652
10.910564651
11.6376525381
12.5389377484
15.9452303609
16.921017825
15.2735831555
18.2046099013
18.9888704777
18.2876566983
19.3619704034
19.3955507655
18.2466641683
15.867025499
15.8406721825
15.9775048015
16.1125205604
16.3005050487
16.5066345365
16.7825886522
17.0783800842
17.3842145314
17.7656801453
18.1642606671
18.4835132713
18.7096612903
18.8737136331
19.0049840606
19.1348946389
19.2837424794
19.4493113892
19.6098815775
19.7280713494
19.7734772278
19.7463843496
19.6287315848
19.2180732198
17.7024683167
14.814359139
12.7841138103
13.2621429994
16.4193858702
20.6621801026
23.5779062597
25.5116496188
27.3083849475
27.2467922952
25.8547689645
24.0202707068
21.8165203937
25.3018260529
36.3745584608
43.5912889504
44.9337427837
42.8563886113
42.5760358218
42.4176892823
42.8650614078
44.0047593912
44.7117897818
44.7930920908
45.0697299745
10.3733550238
10.241061801
9.94114462514
13.6858660072
13.8080396132
11.1025788734
10.5946250154
14.1671900488
10.3592793187
16.2070150576
15.8960576527
14.7013075648
13.0453705881
10.7800879232
14.0860159028
13.3624189124
11.3258752738
10.6914624584
10.816992436
11.2404407795
11.7287375053
12.4493434737
16.5433690311
17.9407875785
15.5444686065
18.3096129733
19.5209166989
17.3963083894
18.979637095
18.7356729355
16.3728215601
16.2223951491
16.2758762025
16.3352105094
16.4095625923
16.5998315428
16.7889429523
16.9971732447
17.3177784941
17.6681249627
18.0454286854
18.4647039444
18.8329533291
19.0924999832
19.2749842792
19.4357399917
19.609274932
19.8035912334
20.0182075175
20.2316284257
20.4095494062
20.5954391676
20.8088036413
20.9041902855
20.180197041
17.1987348899
13.8641657951
13.737187941
17.3758923273
22.6221399738
26.7883867583
27.3331705124
25.2742221402
22.6896721891
18.9382315409
16.7415130614
16.6449899555
16.7129647277
15.6255416529
16.8556595592
42.2379091139
46.2544697341
47.3052103046
44.622920753
43.6254228045
46.8254577954
49.2053788121
50.1367983671
51.376698801
52.1601951046
11.0288931893
11.0940879961
14.270840904
14.1993420668
14.1025003583
11.5680291523
11.548239858
14.8371527653
11.2355904556
16.904710599
16.1989310072
14.9525862889
13.1466758388
11.0743291949
14.2771826199
13.3533078668
11.5982863077
11.0487885372
11.1418350713
11.5145703709
11.9702463666
12.5283691493
15.7460582123
18.7292661662
18.8152516348
17.440454698
19.7130987575
20.327269047
17.1343054161
16.4200543868
16.2395252663
16.4112017308
16.5601131317
16.657441333
16.7727243488
16.9027851618
17.0833519326
17.3090224253
17.564247507
17.9418168407
18.3662063852
18.8008022769
19.1947278307
19.4930968051
19.7179114119
19.9179806578
20.131975368
20.3747973777
20.6174937917
20.811706832
20.9935061338
21.3214954393
21.8079552009
22.0188410077
20.1974939056
15.6063281291
14.4935295255
16.9680048493
20.8085020628
23.8152103971
20.6355349755
0.693034632373
0.00196945314431
3.40908611621e-08
2.66659727463e-08
6.47388498794e-08
4.36391032753e-07
2.0440312334e-06
7.55066157933e-06
4.79832743555e-05
3.75698326881e-05
0.00325938724909
1.85513595477
42.0698594686
49.1549429935
47.843034934
52.1545554109
56.472455485
59.2439523667
59.8999180832
11.6208488498
11.8031245941
15.8085301341
14.6795165409
13.9502319137
12.0583922042
12.4965447139
15.3392703051
15.3300450614
17.7386873114
16.5340763462
15.2740161957
13.2968378708
11.5194814744
14.4744514912
13.2989530797
11.882546337
11.4190213964
11.4532301607
11.7556696114
12.1977452967
12.8204559449
15.0435014491
18.9705223427
20.2188158265
16.8081082461
19.2674325255
20.2484130271
19.5708447708
17.049823083
16.3688657348
16.6171837178
16.8839775589
17.0643364104
17.0763568791
17.2236844907
17.3745817909
17.6128452278
17.8768642806
18.2341926566
18.69739821
19.1748705808
19.5779068461
19.8903911683
20.1751135947
20.4914762506
20.8015347107
21.0632097298
21.1982791733
21.2924910066
21.4727558393
21.8389375437
22.5924757749
22.6421790398
17.9071967466
13.8729118472
11.8834924162
1.5347331444
0.0443819981382
0.000646120537117
5.24959282582e-07
8.75944870649e-10
6.17457559319e-11
0
0
0
0
0
0
0
0
8.58778166829e-15
2.89648096922e-12
4.33251814908e-10
2.51358828504e-07
0.000351086595721
19.0122364675
61.2338345292
55.7800011768
64.165473601
12.0897026556
12.2968018814
18.0524745837
15.0035243396
13.4797854272
12.5015098515
13.1512854372
15.160463588
16.8941983066
18.7038046523
17.0101065555
15.7095207714
13.6743286917
12.2836347788
14.8821419526
13.4119603419
12.2625042361
11.8492569399
11.8042205849
12.0303751146
12.4088955091
12.995352459
14.7333695577
18.8259529223
21.1889824973
20.2097562528
18.6021045514
19.5661312076
19.0609428831
16.6042721973
16.828652981
17.1300447815
17.4743056699
17.5253578685
17.5494203687
17.5559653138
17.7372390547
17.9244271222
18.2093734973
18.5694669559
19.0248559598
19.5477647935
20.0493832049
20.3881336399
20.7232400699
21.1603014271
21.5927363352
21.8515726246
21.8831584543
21.8861089617
21.9694089866
22.1367887766
22.3176831944
21.3381921167
14.2952755807
0.548692979812
0.000179947406826
7.2763299413e-06
9.92105683332e-08
2.7206234094e-10
0
0
0
0
0
0
0
0
0
0
0
0
0
1.10653556987e-13
1.09958373414e-12
2.41052579076e-11
1.16883062312e-09
6.49078465366e-06
71.5067174321
0.104145626862
12.4436707657
12.6371884424
20.1870735172
15.2172404799
13.3273714539
12.9246778082
13.9364196567
14.1424589515
17.8429998346
19.3815234774
17.4791789131
16.1610169192
14.2690005138
14.3517948584
15.4505901553
13.7787234487
12.851415318
12.4965428419
12.2639139268
12.3951009516
12.6749714627
13.1932940295
14.6491492958
18.6887440286
21.5688976699
21.8801336545
17.7884342561
17.9989453315
17.0888562775
16.7012716013
17.0568931888
17.6479025607
17.9603289877
17.9991774101
18.0195923661
18.188198741
18.1422763554
18.3039293147
18.5587835741
18.8912100102
19.4323815823
20.0107119905
20.5354669117
20.8274952078
21.2245255404
22.8261356685
25.0845934783
25.7404851917
24.1310596653
23.7361580526
23.6422509022
23.4667878149
22.6683153283
20.4283340188
4.37608312079
1.96317969238e-11
1.98381739946e-08
3.2370432902e-10
0
0
0
0
0
0
0
0
0
0
0
0
0
0
0
0
0
0
1.70956276391e-12
1.15768766693e-11
2.13487204061e-09
73.0256490218
12.7770449711
12.9399303524
19.896416742
14.2942130153
13.3294826477
13.2795580264
14.8288847902
13.8775605148
18.623263726
20.0302692543
17.9400414178
16.5905534089
14.7081430162
16.7804951819
16.2793720814
14.3552603135
13.541241626
13.5968975785
12.9514658224
12.9330056922
13.0446936359
13.4125891501
14.7236847437
18.5345654093
21.4118232578
22.9983326268
21.1720017921
19.8030534884
18.6437114839
17.0200007228
17.3757284447
18.4213431588
18.290484651
18.4380115414
18.9152404761
18.6946848264
18.6547168714
18.7984682155
19.0482966899
19.3593113473
19.7625793067
20.3938806243
21.1077495571
22.1478998034
23.6518606634
25.837997141
27.4957929204
27.3605788202
27.3498809188
28.2950461107
29.6116620913
31.3264990653
30.8102465939
12.0529549425
0.0015841469516
2.15157519672e-05
0
0
0
0
0
0
0
0
0
0
0
0
0
0
0
0
0
0
0
0
0
0
5.26029706503e-12
0.382872627162
13.2074211904
13.3554700794
19.3828206085
13.6651257963
13.5039656837
13.5543666045
15.5699760291
14.1904068107
19.2553130431
20.6649157179
18.4078765564
17.0415972117
15.0858902684
17.4115677759
17.0360854396
15.0073869804
14.2127810876
14.418698581
13.7921146075
13.7011348
13.6384133283
13.645906866
14.9695080368
18.5007062302
21.1084402492
23.3488160767
22.4147154487
20.0817179372
17.3341375385
17.5562188207
18.0001905442
18.9961034102
19.4172571937
19.6406961553
19.726068813
19.2755648404
19.2269803942
19.3948695537
19.632402845
19.9573187206
20.3364945937
21.041201312
22.2487651624
24.3244382367
25.7081335927
25.9831202212
26.8836790848
27.7237679698
30.8705065593
34.5299351529
39.6350050658
42.9003325361
15.9758681274
0.0027549565506
5.65055775838e-06
1.36810872781e-07
4.59227660963e-10
0
0
0
0
0
0
0
0
0
0
0
0
0
0
0
0
0
0
0
0
0
8.84010613671e-13
1.16962678558e-12
13.900143983
14.0518422094
18.8247106306
13.7562827005
13.9965639639
13.9398716682
15.3226360975
14.8678995634
19.648340591
21.256493029
18.9163395143
17.552547391
15.6096369962
18.0032721565
17.7357770576
15.789151497
14.9689708786
15.2318854233
14.597480708
14.6220154325
14.5522440871
14.0573207885
15.4270914916
18.6349913606
20.9600790497
23.4443642597
22.885214346
20.509948851
17.6210952283
17.7093614581
18.7657469616
18.8607577986
19.076409295
19.6050180526
20.6747096162
20.2692770158
20.1248632181
20.0543602148
20.2316759869
20.6524369421
21.1542849124
21.9502776646
24.4045055837
26.7437182138
26.7942634898
26.9427649698
28.4836174612
33.1618003724
39.3037965648
44.2515639523
46.6020270906
0.571030546655
2.36305793548e-05
7.74769144473e-09
4.86126088383e-11
9.85338185363e-11
1.51311177199e-11
0
0
0
0
0
0
0
0
0
0
0
0
0
0
0
0
0
0
0
0
0
6.53398188651e-14
2.9668891811e-13
14.9881439974
15.0798321852
18.8717082102
14.5953217498
15.1559145604
14.7107466576
15.3817606543
16.2739540042
19.4585967058
21.6436092298
19.4985359541
18.1469137005
16.2571367642
18.6796358071
18.4682108274
16.7594856825
15.9460855845
16.2252163128
15.4046491098
15.6553927601
15.8335014082
14.7469882015
15.9152376566
18.9293802006
20.9900962738
23.2378515847
23.0752440894
20.9376808715
20.1031723278
18.6118991341
19.2263184634
20.0069778997
21.0227783863
20.0979338297
20.5516175307
21.358475009
21.0600483309
21.1623698457
21.1558258155
21.3931750115
22.0188686924
24.2578363802
27.8257852757
28.6992242786
28.1886354349
29.674930048
35.6023829525
43.9181506074
49.6838115396
44.1258507069
0.00865142102327
8.0772811678e-08
5.52674204406e-10
0
0
0
0
0
0
0
0
0
0
0
0
0
0
0
0
0
0
0
0
0
0
0
0
0
0
0
16.5617572108
16.3500738931
19.4450430006
16.5485088412
17.2075687407
15.9093478585
16.1838324802
18.370384443
19.4617340078
22.147211981
20.2183585092
18.8388761155
17.0091864733
19.3912156709
19.1948038876
17.8463982064
17.4930865902
17.5674888512
16.2979708718
16.8138552506
17.4616515839
15.8201012584
16.2305853283
19.2878387144
21.1982474308
23.0139639793
23.2350919244
20.924306239
21.2868869985
20.2930514851
20.4205054358
19.2973511144
20.1812790891
21.5864793064
21.4593602198
21.8299827976
22.0066999711
22.0699371705
22.317132847
22.5263670248
24.014188498
28.2716646897
30.9056496313
30.9622191102
31.614423605
36.3515063072
45.2776694043
51.0870036995
32.3416895147
7.72067800388e-05
1.34973747263e-07
6.18027579124e-10
0
0
0
0
0
0
0
0
0
0
0
0
0
0
0
0
0
0
0
0
0
0
0
0
0
0
0
0
18.2598295758
17.5341983877
20.1125218537
19.2523676601
18.907327866
17.3475404051
17.0897973902
19.46415706
18.2235986059
22.5024552471
21.0612739493
19.6214156865
17.8587563079
20.1199116683
19.8676131079
18.7374069652
19.8067692101
19.2095849026
17.3254256449
18.1491857103
18.8335134715
17.2441271029
16.1549909255
19.1956543445
21.3219999639
22.8192656972
23.2530589444
20.9279422554
21.5520799536
21.5969674911
21.647925035
19.9889288847
20.5433276746
21.151653155
22.3809739147
23.0440764816
23.2155508763
23.1878726532
23.3387073966
24.305097028
28.2419740522
32.5095010841
34.1766077543
34.8272769349
37.5485920335
43.9071963766
46.5963371613
19.949208598
0.000207885943238
3.00958762806e-07
1.05401564735e-09
0
0
0
0
0
0
0
0
0
0
0
0
0
0
0
0
0
0
0
0
0
0
0
0
0
0
0
0
0
19.027404659
18.3659602957
20.509265389
20.2270235004
19.9020139138
18.7397903648
18.2273980034
20.8291375331
19.1839848249
22.9915418442
21.9110182152
20.45623941
18.7988933386
20.8858543045
20.5672473005
19.4895688865
20.7165340744
20.2405111008
18.3482641028
19.5035427924
19.4800814153
17.9170661725
17.2678571412
17.4408824662
20.7923910639
22.2727006627
22.9946574985
20.8656368027
21.551275323
22.0504501715
22.598726508
22.0613614445
20.4839054381
21.0443587745
22.5115038982
23.8594585824
24.5403854677
24.8334374766
24.9801245375
28.1723812651
33.2007008928
36.5519616921
37.7584821393
39.1374054376
42.6887306479
41.3725988999
20.6315183236
0.001098231206
9.89286992179e-07
2.81754057005e-09
0
0
0
0
0
0
0
0
0
0
0
0
0
0
0
0
0
0
0
0
0
0
0
0
0
0
0
0
0
0
19.0147026408
18.9205532684
20.7672687511
20.365774811
20.5485264218
19.8380578825
19.2346671129
22.167784826
20.9060348149
23.6472883064
22.8201399695
21.3278176593
19.8222640087
21.703204511
21.3454374756
20.3986426676
21.4545224955
21.1446669303
19.460444429
20.4794332149
18.8169713968
18.5831180431
18.2684887992
18.6067788792
19.5092089192
20.3630180054
22.1045348088
20.7169600103
20.9118250635
21.9998084368
22.9828955017
23.4085673658
22.0907490209
21.7581532969
22.4530731132
23.7267409212
25.2510982889
26.5395008139
28.0138434699
32.9625940724
37.612973582
40.058879644
40.5428252935
40.9766666444
36.8816433587
26.4316958239
0.00744868926856
3.43634348351e-06
7.6977308584e-09
0
0
0
0
0
0
0
0
0
0
0
0
0
0
0
0
0
0
0
0
0
0
0
0
0
0
0
0
0
0
0
19.2299338499
19.3301524586
21.027725974
19.1839566624
20.8062032742
20.4319086982
19.9193182292
22.709356059
21.6974145067
24.3516030821
23.7894815315
22.2140290708
20.9411779938
22.5598004701
22.174008191
21.4515594113
22.2509436552
22.1617070139
20.6925329229
21.8415360662
20.1402969785
20.3284098146
19.4972805567
19.848966929
21.4932080127
22.079612493
21.7148442563
20.5197565069
20.2906074445
21.9292470629
22.9682205774
23.5872450345
23.6642493274
22.8151487372
24.0967709668
24.4506332335
25.8466166682
28.1980522672
31.9106730175
37.5223017493
41.3477070723
42.575526658
40.5436077148
34.4237524075
30.3262950988
0.281873900246
2.88352589201e-05
6.56448779211e-08
0
0
0
0
0
0
0
0
0
0
0
0
0
0
0
0
0
0
0
0
0
0
0
0
0
0
0
0
0
0
0
0
19.9439811983
20.017338165
21.2812244581
19.5844820135
21.0229537133
20.7394777207
20.4124976405
22.8355576174
22.2725629666
24.8688384001
24.7665830245
23.0630859286
22.1506316755
23.4159695801
22.9799058459
22.4824169487
23.0101750337
23.2746112826
21.9759866101
23.1929292542
21.9246109049
22.506576998
22.1568927935
20.6480099616
22.0561983724
23.1132837469
23.17467669
20.3940493642
19.5704977273
21.8270024219
23.1047745695
22.9798529303
23.1850921762
23.0825065952
24.1790474998
24.9157577308
26.600209421
29.9671225035
35.8868880774
41.8714183079
44.5884434123
43.4186511635
35.2386186125
32.6591279818
23.409433271
0.000327858985505
4.57439316183e-07
1.85492659723e-09
0
0
0
0
0
0
0
0
0
0
0
0
0
0
0
0
0
0
0
0
0
0
0
0
0
0
0
0
0
0
0
0
20.8516147393
22.0909053569
21.6734831161
20.6050340968
21.5451294347
21.1093103854
20.894247052
22.9443114709
22.8146823162
25.0203077021
25.7408190024
23.8438485276
23.2308905279
24.0957889386
23.764207489
23.245367584
23.1378656594
24.3012198804
23.36370157
24.3661195636
23.9825653816
23.7634913451
23.5022047092
23.0356625317
22.1049002848
22.9670783131
24.134810185
19.6329411785
19.0629885199
21.0063998763
23.1225299449
23.668483068
24.212012789
23.0781380487
23.9446215404
25.1385423463
26.9926581264
31.608805698
39.6898381422
45.8825487612
47.2445372486
40.12550525
35.3390106075
32.2204811334
0.0247298845808
3.10056518023e-06
7.91338810828e-09
0
0
0
0
0
0
0
0
0
0
0
0
0
0
0
0
0
0
0
0
0
0
0
0
0
0
0
0
0
0
0
0
0
21.5374991993
22.8081632075
22.3729205116
21.5261841262
22.2537337017
21.6843228049
21.4525611787
23.149184891
23.3566321521
24.8951556386
26.6249315756
24.6302667304
23.865116791
24.6619747979
24.6589244788
23.9465921415
23.2445000166
25.0249066945
24.8453007657
25.3862766023
25.2913156433
25.3539010587
23.7588764353
23.7118328878
23.1609875466
24.71460342
25.4903205468
22.0124326041
18.6531329009
19.9215956917
22.4754580465
23.9573212944
24.2878230201
23.7071163423
23.5307125429
25.0996559145
26.9229053996
32.8918491197
43.1888860365
49.8490873787
47.0083197346
35.7282338646
35.624399252
26.2743123585
0.00010630576713
9.14214410173e-08
3.07227960859e-10
0
0
0
0
0
0
0
0
0
0
0
0
0
0
0
0
0
0
0
0
0
0
0
0
0
0
0
0
0
0
0
0
0