/*--------------------------------*- C++ -*----------------------------------*\
| =========                 |                                                 |
| \\      /  F ield         | OpenFOAM: The Open Source CFD Toolbox           |
|  \\    /   O peration     | Version:  v1806                                 |
|   \\  /    A nd           | Web:      www.OpenFOAM.com                      |
|    \\/     M anipulation  |                                                 |
\*---------------------------------------------------------------------------*/
FoamFile
{
    version     2.0;
    format      ascii;
    class       volScalarField;
    location    "247";
    object      pa;
}
// * * * * * * * * * * * * * * * * * * * * * * * * * * * * * * * * * * * * * //

dimensions      [0 2 -2 0 0 0 0];


internalField   nonuniform List<scalar> 
6400
(
-0.128652806361
-0.128654123565
-0.128657783877
-0.128664741099
-0.128674649393
-0.128687350128
-0.128702923079
-0.128722098858
-0.128744952138
-0.128771505929
-0.128805059763
-0.128847388138
-0.12889642524
-0.128952344843
-0.129016509534
-0.12909044702
-0.129174712733
-0.12926898768
-0.129372584299
-0.129482722172
-0.129595349138
-0.129710385433
-0.129831543706
-0.129963338663
-0.130109172163
-0.130269188074
-0.130441140785
-0.130623581999
-0.13081681319
-0.131021896807
-0.131239857099
-0.131470060704
-0.131708388434
-0.131950751321
-0.132196146851
-0.132441677608
-0.132686518354
-0.132937768447
-0.133194974421
-0.133448400145
-0.133699321983
-0.133962274762
-0.134245433587
-0.134541862304
-0.13484397602
-0.135147438198
-0.135448833374
-0.135746446445
-0.136038891011
-0.13632520395
-0.136605443561
-0.136875309139
-0.137128858194
-0.137356614082
-0.137559571766
-0.13774886278
-0.137921684867
-0.138065882821
-0.138177729294
-0.138265909751
-0.138335421919
-0.138387879734
-0.138423906048
-0.138451113375
-0.138481870679
-0.138519213245
-0.138557167375
-0.138585959872
-0.138601359031
-0.138605151018
-0.138599895028
-0.138587282662
-0.138568440213
-0.138545892597
-0.138520587198
-0.138494754296
-0.138470102162
-0.138452324567
-0.13843998803
-0.138434655598
-0.128650893981
-0.128652279106
-0.128655507687
-0.128662321277
-0.128673139995
-0.128686761083
-0.128702648051
-0.128720868687
-0.128742618726
-0.12876920789
-0.128802552054
-0.128844045226
-0.128893192536
-0.128949723671
-0.129014065683
-0.129087073498
-0.129170852473
-0.129265531759
-0.129370178005
-0.12948118179
-0.12959257629
-0.129705969545
-0.129826432103
-0.129957715379
-0.130103580161
-0.130264142159
-0.130436056309
-0.130618709228
-0.130812549684
-0.131018095138
-0.131235698547
-0.131465892355
-0.131705030112
-0.131947203078
-0.132192795714
-0.132438492346
-0.132682702157
-0.132934207442
-0.133192195702
-0.133445093958
-0.133691940046
-0.133953046533
-0.134240957883
-0.134540695454
-0.134844143654
-0.135149091082
-0.135451739466
-0.135750890637
-0.136044377449
-0.136329062592
-0.136605138238
-0.136875272804
-0.137138279003
-0.137368784011
-0.137572994431
-0.137767183778
-0.137936814683
-0.138075355353
-0.138186793187
-0.138274596273
-0.138341152648
-0.138394434104
-0.138432670917
-0.138461145439
-0.138493038221
-0.138531347284
-0.138570070079
-0.138597987698
-0.138611882819
-0.138614223512
-0.138607485924
-0.138593262438
-0.138572372309
-0.138547096576
-0.138519843567
-0.138492568655
-0.138467901666
-0.138449060304
-0.138436221426
-0.138431661734
-0.128645591951
-0.128647905432
-0.128650661849
-0.128656871388
-0.128667344919
-0.128682746337
-0.128700297385
-0.128717929508
-0.128738320392
-0.128764111574
-0.128796939085
-0.128837870692
-0.128886902874
-0.128943643475
-0.129007892308
-0.129078429571
-0.129160488285
-0.129259243311
-0.1293662077
-0.129476434969
-0.129584946197
-0.129693790795
-0.129812572246
-0.129945423477
-0.130091401589
-0.130251008612
-0.130423449698
-0.130607166039
-0.130801778896
-0.131007907629
-0.131225622881
-0.131455961234
-0.131696848748
-0.131937900417
-0.132181369332
-0.132429407159
-0.132672790393
-0.132921632309
-0.133179969525
-0.133434854547
-0.133687906117
-0.133952788558
-0.134236936044
-0.134534046153
-0.134837216937
-0.135142613946
-0.135447125237
-0.13574856987
-0.136044789325
-0.136333733584
-0.136614463609
-0.13688556279
-0.137141805744
-0.13737591872
-0.137591927421
-0.137787712473
-0.137953888707
-0.138091052091
-0.138202177952
-0.138290179653
-0.138358844426
-0.138412353709
-0.138450534357
-0.138482901292
-0.138519375891
-0.138560049903
-0.138597151988
-0.138622494282
-0.138633975824
-0.138633579447
-0.138623673237
-0.138605479253
-0.138580413903
-0.138551098182
-0.138520151851
-0.138489979136
-0.138463395838
-0.138442588727
-0.138428941022
-0.138423592944
-0.12863844083
-0.128640714306
-0.128642759466
-0.128648428586
-0.128657558306
-0.128672712986
-0.128695713515
-0.128713233356
-0.128731962887
-0.128756379051
-0.128788416576
-0.128828914206
-0.128877890812
-0.128934027278
-0.128998019306
-0.129072202444
-0.12915769101
-0.129254606414
-0.129356568969
-0.12945846464
-0.129562815695
-0.129673550996
-0.129793451542
-0.129925775505
-0.130071896478
-0.130232034897
-0.130405382611
-0.130590190291
-0.130785949853
-0.130992696732
-0.131211549076
-0.1314424375
-0.131683466364
-0.131928157071
-0.132168127339
-0.13241107281
-0.132658373246
-0.132905638559
-0.133157684015
-0.133413998421
-0.133674136395
-0.133944228238
-0.134228918523
-0.134525564267
-0.134829269479
-0.135136136328
-0.135443013352
-0.135747413211
-0.136047095372
-0.13634000367
-0.136624365883
-0.136897811365
-0.137156434517
-0.13739624984
-0.137616214526
-0.137812018403
-0.137978437454
-0.13811575421
-0.138227029733
-0.138315758114
-0.138385736958
-0.13844037438
-0.138482902954
-0.138523062255
-0.138563412513
-0.138603531741
-0.138639575126
-0.138662445953
-0.138669914406
-0.138664694355
-0.138649448225
-0.138625378572
-0.138594204423
-0.138558155499
-0.138520261457
-0.138485363278
-0.138455715805
-0.138429913456
-0.138411394796
-0.138403432459
-0.128627376729
-0.128627526996
-0.128630066331
-0.128635791754
-0.128645810972
-0.128659757632
-0.128680183694
-0.128699980116
-0.128720100454
-0.128744857794
-0.128776282792
-0.128816462036
-0.128865581501
-0.128924950631
-0.128993786779
-0.129068645252
-0.12915050526
-0.129239214409
-0.129333156466
-0.129432314914
-0.12953698563
-0.129647710739
-0.129767667315
-0.129900196316
-0.130046541997
-0.130207306155
-0.130381345937
-0.130567492674
-0.13076455183
-0.130972898933
-0.131192439135
-0.131425814716
-0.131670821911
-0.131910998496
-0.132149400185
-0.13238940447
-0.132630652197
-0.132877353248
-0.133130475428
-0.133389558754
-0.133654845018
-0.133929468443
-0.134216169232
-0.134513824979
-0.134819027916
-0.135128214114
-0.135438216525
-0.135746376886
-0.136050372563
-0.136348042978
-0.136637182451
-0.13691508211
-0.137178343192
-0.137423522281
-0.137647345297
-0.137844942623
-0.138012622161
-0.13815111158
-0.138263713461
-0.138354271272
-0.138426679775
-0.138484766715
-0.138533741365
-0.138581521085
-0.138623273602
-0.138664298443
-0.138700398864
-0.138720641659
-0.138722499033
-0.138709712309
-0.138686067947
-0.138653359168
-0.138612874564
-0.138566429356
-0.138519448223
-0.138476981873
-0.138438482824
-0.138401302031
-0.138376039219
-0.138365925131
-0.128606521522
-0.128606161102
-0.12861091078
-0.128616585886
-0.128627374266
-0.128642318797
-0.128660901728
-0.128681099296
-0.128703106643
-0.128728801825
-0.128759169845
-0.128799487745
-0.128853658331
-0.128917557839
-0.128985882757
-0.12905723743
-0.129132964523
-0.129215498545
-0.12930609336
-0.129403542915
-0.12950594903
-0.129615560763
-0.129735607286
-0.129868637734
-0.130015520753
-0.130176227928
-0.130351560053
-0.130538870713
-0.130737960328
-0.130947849425
-0.131170171233
-0.131404615626
-0.131647415816
-0.131891671774
-0.132124269924
-0.132356252325
-0.132595176901
-0.132842542184
-0.133097728456
-0.133360073292
-0.133629839762
-0.133908813881
-0.134198580875
-0.134498562334
-0.134806307966
-0.135118687902
-0.13543262217
-0.135745396239
-0.136054655437
-0.136358172857
-0.13665352989
-0.136937828246
-0.1372076132
-0.137458972216
-0.137687430481
-0.137888202242
-0.138058719455
-0.138200173274
-0.138315881279
-0.138409768887
-0.138485923867
-0.138549288161
-0.138607573044
-0.138659225153
-0.13870347833
-0.138746949291
-0.138784263121
-0.138801581357
-0.138795723694
-0.138771788532
-0.138736196057
-0.138691335382
-0.138637297998
-0.138576971492
-0.138517230766
-0.138461545513
-0.138406965315
-0.138354841597
-0.138320790335
-0.138305097313
-0.128574559546
-0.12857678439
-0.12858526442
-0.128593845546
-0.128602469278
-0.128617242584
-0.128637004172
-0.128657598664
-0.128680970883
-0.128707664389
-0.128740070843
-0.128781436049
-0.128839541475
-0.12890305548
-0.128968556715
-0.129034752884
-0.129106003175
-0.129186734407
-0.129276060032
-0.129369388905
-0.12946891292
-0.129577950779
-0.129697823417
-0.129830575384
-0.12997772356
-0.130140695576
-0.130315163376
-0.130504296615
-0.130705576838
-0.130920058067
-0.131144395186
-0.131377629938
-0.131620075631
-0.131857069726
-0.132086385659
-0.132314976805
-0.13255319417
-0.132801837416
-0.133059446553
-0.133325095466
-0.133599026957
-0.133882353384
-0.134175940677
-0.134479338787
-0.134790653645
-0.135107144968
-0.135425896081
-0.135744257669
-0.136059928533
-0.136370676457
-0.13667394692
-0.136966588015
-0.137244717094
-0.137503699141
-0.137738419844
-0.137944455431
-0.138120071483
-0.138266705566
-0.138387407868
-0.138485754036
-0.13856650875
-0.138636722667
-0.138701613961
-0.138756792494
-0.138813549251
-0.138861252207
-0.138897528119
-0.138908559147
-0.138891900302
-0.138853889504
-0.138802973473
-0.138741848115
-0.138669461393
-0.138591019217
-0.138512743661
-0.138435465127
-0.138357414343
-0.138287310505
-0.138241338347
-0.138218119175
-0.128537276638
-0.128541896157
-0.128551893297
-0.128564855669
-0.128574191553
-0.128589110682
-0.128608067768
-0.128629386923
-0.12865459644
-0.128679606022
-0.128715673581
-0.128763253105
-0.128819810202
-0.128881226086
-0.128942166746
-0.129003363134
-0.129073484767
-0.129154414471
-0.129239861451
-0.129329152703
-0.129426191567
-0.129534317838
-0.129653970462
-0.129787454284
-0.129935618875
-0.130098821161
-0.130275842426
-0.130461906655
-0.130668551525
-0.130889724676
-0.131113456352
-0.131340950418
-0.131580572403
-0.131812068938
-0.132036180529
-0.132265797085
-0.132505161831
-0.132755252878
-0.133015225217
-0.133284171132
-0.133562179631
-0.133849978479
-0.134148000601
-0.134455740517
-0.134771590742
-0.13509312756
-0.135417663282
-0.135742728536
-0.136066161753
-0.136385772539
-0.136698884091
-0.137002000995
-0.137290630387
-0.13755940169
-0.137802860285
-0.138016986767
-0.138200532431
-0.138354625683
-0.138481282557
-0.138583411854
-0.138667262112
-0.13874184354
-0.138812347017
-0.13888020071
-0.138948709833
-0.139010128874
-0.139045616689
-0.139047389888
-0.139016871655
-0.13896172476
-0.138891558876
-0.138808407642
-0.138712264191
-0.138609682976
-0.138504623473
-0.138396478113
-0.138289245531
-0.138196207569
-0.138134350826
-0.138103244022
-0.128496792059
-0.128502976672
-0.128513124096
-0.128523352207
-0.128535912044
-0.128555158389
-0.128573425961
-0.128594996374
-0.128623350536
-0.128650586221
-0.128684022756
-0.128735802717
-0.128793186855
-0.128850919877
-0.128907878256
-0.128968237526
-0.129036799164
-0.129115162549
-0.129196940022
-0.129283565966
-0.129378430865
-0.129484542935
-0.129602566002
-0.129735550867
-0.129888780623
-0.13005076459
-0.130229936584
-0.130421544909
-0.130626602326
-0.130846214792
-0.131072723993
-0.131304801537
-0.131529318009
-0.131753240475
-0.13197803695
-0.132209545836
-0.132450617634
-0.132702349605
-0.1329646166
-0.133236834548
-0.133518973375
-0.133811450433
-0.134114421814
-0.134427296551
-0.134748586919
-0.135076110462
-0.135407476138
-0.135740503765
-0.136073244567
-0.13640358907
-0.136728746813
-0.137044836458
-0.137346688836
-0.137628248404
-0.137883808789
-0.138109554141
-0.138304051631
-0.13846709385
-0.138598600634
-0.138701453043
-0.138786078455
-0.138866266624
-0.13894779932
-0.139029453417
-0.139108408482
-0.139188102756
-0.139238957648
-0.139227838277
-0.139180008716
-0.139104116321
-0.139008322428
-0.138895414816
-0.13876909979
-0.138634734207
-0.138493077558
-0.138345100411
-0.138201279583
-0.138077721091
-0.137992075485
-0.137949125617
-0.12845265132
-0.128460048504
-0.128471753187
-0.128481502315
-0.128494750751
-0.128514152261
-0.12853259482
-0.128553769761
-0.128580560434
-0.128615737014
-0.128650839487
-0.128701660271
-0.128758671721
-0.128813123021
-0.128865949648
-0.128926892265
-0.128996561211
-0.129070508219
-0.12914786179
-0.12923203084
-0.129325684596
-0.12943031522
-0.129546764213
-0.129676570061
-0.12983272857
-0.130000002174
-0.130172043618
-0.13036908752
-0.130575341369
-0.130797646042
-0.131023615347
-0.131250933844
-0.131471536319
-0.131688278384
-0.13191268134
-0.132146110503
-0.132389127192
-0.13264269368
-0.132907217109
-0.13318261823
-0.133468945282
-0.133766362878
-0.134074762029
-0.134393453811
-0.134721021985
-0.135055488703
-0.135394795573
-0.135737156196
-0.136080922028
-0.136424109364
-0.136763855185
-0.137095906548
-0.137414447029
-0.137712752942
-0.13798475771
-0.138226256966
-0.138434403357
-0.138605602505
-0.138737015128
-0.138836173166
-0.138923006992
-0.139015406815
-0.139113986674
-0.139211154828
-0.139302960226
-0.139388127116
-0.13945072148
-0.13946280213
-0.139394235178
-0.139290089001
-0.139159859545
-0.139008370111
-0.138843622756
-0.138668763381
-0.138480685154
-0.13828273389
-0.138089212596
-0.137919330121
-0.137792092711
-0.137724176644
-0.128403068676
-0.128410266219
-0.128422593005
-0.128434845222
-0.128452064235
-0.128467737775
-0.128485660288
-0.128507313731
-0.12852911927
-0.128567292113
-0.128608539316
-0.128658801009
-0.128715017835
-0.128768320062
-0.12881956451
-0.128878969062
-0.128948263567
-0.129018948876
-0.129092627963
-0.129173578575
-0.129265726177
-0.129370046453
-0.129488335037
-0.129615739472
-0.129764565227
-0.129941051559
-0.130116963063
-0.130310576842
-0.130516032192
-0.130728201703
-0.13095940608
-0.131185155243
-0.131401016402
-0.131615461022
-0.131840235564
-0.132075284231
-0.132320254128
-0.132575843696
-0.132842664073
-0.133121106247
-0.133411584052
-0.133714169566
-0.134028441567
-0.134353559304
-0.134688166102
-0.135030513335
-0.135378932452
-0.135732093446
-0.136088728468
-0.136447080631
-0.136804301372
-0.137155891486
-0.137495473727
-0.137815685141
-0.138109667117
-0.138371562887
-0.138594101245
-0.138767054966
-0.138890782674
-0.138986565495
-0.13908403808
-0.139199439843
-0.139322172714
-0.139436959173
-0.13953851548
-0.139622373724
-0.139683597254
-0.139719253582
-0.139668938821
-0.139537451167
-0.139358348896
-0.139154542393
-0.138940269441
-0.138716743834
-0.138472678784
-0.138210374874
-0.137943941585
-0.137697274534
-0.137497526904
-0.13738304974
-0.128346800074
-0.128352388343
-0.128361141176
-0.128377206041
-0.128399643661
-0.128414213132
-0.128431843604
-0.128455403736
-0.128475586835
-0.128510539974
-0.128556143811
-0.128606874607
-0.128661614483
-0.128714520348
-0.128768305004
-0.128826952561
-0.128893455113
-0.128960674617
-0.129031365448
-0.129108982993
-0.129197383434
-0.129298573715
-0.129421583916
-0.129555706848
-0.129697068415
-0.129870466675
-0.130051299198
-0.130237800297
-0.130450694069
-0.130664788223
-0.130884990181
-0.131102182418
-0.131315352751
-0.131533332285
-0.131759810031
-0.131996435147
-0.132243382683
-0.132501208347
-0.132770543394
-0.133051941759
-0.133346354916
-0.133654194769
-0.133974754732
-0.13430684368
-0.134649155236
-0.135000271389
-0.13535898014
-0.135724452911
-0.136095873329
-0.136471842252
-0.136849744316
-0.137225030049
-0.137591118418
-0.137940019762
-0.138263081256
-0.138549280643
-0.138780556755
-0.138943862208
-0.139057644288
-0.139159487771
-0.139283348466
-0.13943595586
-0.139591954394
-0.139726219533
-0.139836079078
-0.139920107872
-0.13997474105
-0.140002972817
-0.139984699563
-0.139854707932
-0.139625327786
-0.139343981711
-0.139063876246
-0.138788777948
-0.138479253088
-0.138132162502
-0.137756007617
-0.137388087638
-0.13707016962
-0.13687789573
-0.128283741566
-0.128287709155
-0.128291397018
-0.128309547723
-0.128331387265
-0.128349138207
-0.128368135064
-0.128393706195
-0.128416643167
-0.128449594588
-0.128496082252
-0.128546385998
-0.128599045379
-0.128649215806
-0.128706015969
-0.128767832777
-0.128831513037
-0.128895474755
-0.128963616237
-0.129038656404
-0.12912289668
-0.129218111598
-0.129337921024
-0.129484879654
-0.129628186817
-0.12978884063
-0.129976569703
-0.130163839107
-0.130365392538
-0.130581017429
-0.130798665159
-0.131011588288
-0.131221675823
-0.131441483803
-0.131670241117
-0.131908839748
-0.13215781737
-0.132417842364
-0.13268999307
-0.132974727279
-0.133272980301
-0.133585832009
-0.133912820353
-0.134252354204
-0.134602968002
-0.134963639891
-0.135333750997
-0.135712995863
-0.136101051843
-0.136497097413
-0.13689898667
-0.137302714095
-0.137702121811
-0.138088680651
-0.138449390685
-0.138759690372
-0.138985245899
-0.139127246823
-0.139239159051
-0.139371498956
-0.139543663539
-0.139749829175
-0.139952809529
-0.14011022955
-0.140223688478
-0.140300255872
-0.140339279667
-0.140348417971
-0.140338489481
-0.140230061577
-0.139957900165
-0.139575490941
-0.13920806864
-0.138902864887
-0.138524719985
-0.138068850305
-0.137526702769
-0.136976860915
-0.136456277382
-0.136119628851
-0.128214549818
-0.128219062969
-0.1282255126
-0.128237155961
-0.128255335276
-0.128274891901
-0.128295651276
-0.128321561503
-0.128349740834
-0.128381988058
-0.128428427123
-0.128477908129
-0.128528852618
-0.128576708009
-0.128631527535
-0.128696340455
-0.128759881481
-0.12882237166
-0.128888555626
-0.128961474712
-0.129042660097
-0.129132593005
-0.129245986134
-0.129397132566
-0.129549411303
-0.129703676901
-0.129890692568
-0.130081799041
-0.130274519608
-0.130484805959
-0.130693926539
-0.130902608535
-0.131116891824
-0.131339512785
-0.131570670787
-0.131811465476
-0.132062969488
-0.132325431875
-0.132600071178
-0.132888306379
-0.133190861345
-0.133508713863
-0.133841939342
-0.134189023206
-0.134548348636
-0.134919243276
-0.135301718228
-0.135695982865
-0.136102227767
-0.136520424349
-0.136949494001
-0.137386755105
-0.137827814595
-0.138264003309
-0.138672157897
-0.138995950715
-0.13918756189
-0.139304824108
-0.139452724587
-0.139663224867
-0.139897708175
-0.14017117768
-0.14045936082
-0.140627499254
-0.140702268198
-0.140765665874
-0.140805646264
-0.140812441405
-0.140781081136
-0.140689341326
-0.140548118791
-0.139931807838
-0.139323358849
-0.139066082415
-0.138628494678
-0.138050709135
-0.137267056092
-0.136467206703
-0.135562119619
-0.134910994046
-0.128137462289
-0.128142465643
-0.128153799597
-0.128159478923
-0.128173553711
-0.128193214173
-0.128215186805
-0.128242398447
-0.128276964017
-0.128307740013
-0.128353169543
-0.128401791761
-0.128451572359
-0.128498830213
-0.128551974292
-0.128616546466
-0.128679657811
-0.128741400599
-0.128806108144
-0.128876860121
-0.128955516441
-0.129042294223
-0.129147391422
-0.12929270952
-0.129458378754
-0.129613980731
-0.129788583661
-0.12998951058
-0.130186127998
-0.130378526077
-0.13057887749
-0.130785628238
-0.131001538092
-0.131226520779
-0.131460278672
-0.131703631387
-0.131957519346
-0.13222292695
-0.132500563753
-0.132791985049
-0.133098897293
-0.133422083654
-0.133761520956
-0.134115917704
-0.134483922302
-0.134865405587
-0.135260936412
-0.13567106642
-0.136096355746
-0.136537865442
-0.136996393473
-0.137472436335
-0.137964875861
-0.138466453163
-0.138930822574
-0.13923482619
-0.13936989931
-0.139496951245
-0.13977629731
-0.140191327289
-0.140424294157
-0.140698563631
-0.140604795128
-0.140465479928
-0.140342744351
-0.140221577127
-0.140074359383
-0.139936005724
-0.139818223423
-0.139591672008
-0.139122064587
-0.138763803105
-0.139213611134
-0.139778335068
-0.139276232822
-0.13852487253
-0.137046750741
-0.135913987397
-0.134229977775
-0.13289121793
-0.12805092644
-0.128055310919
-0.128064910544
-0.128071287762
-0.128083417864
-0.128103368686
-0.128125448958
-0.128151444977
-0.128191550511
-0.128225316253
-0.12826958179
-0.128317719131
-0.128367098722
-0.128415122031
-0.12846748383
-0.128530283096
-0.128592163793
-0.128653223377
-0.128716596734
-0.128785200871
-0.12886101078
-0.1289452362
-0.129044419328
-0.129180885622
-0.129351569174
-0.1295158912
-0.12967908281
-0.129869983646
-0.130071911082
-0.130263960728
-0.130456854499
-0.130660038322
-0.130876030303
-0.131102828566
-0.131338973881
-0.131584575838
-0.131841053868
-0.132109208382
-0.132390264549
-0.132685298343
-0.132996412197
-0.133325024466
-0.133670910445
-0.134032351091
-0.134408234992
-0.134799902659
-0.135209021736
-0.135635669312
-0.136079236581
-0.136542426918
-0.137031336258
-0.137550845887
-0.138104027504
-0.138692671352
-0.139203136259
-0.139450943348
-0.139598310012
-0.139752687095
-0.140256527286
-0.140096739965
-0.139796378524
-0.139596693535
-0.139471131214
-0.139123908832
-0.138542467271
-0.137831719654
-0.13708440566
-0.136418925629
-0.135931619449
-0.135595882038
-0.135288015406
-0.135053852375
-0.135019008292
-0.135460083714
-0.135661775908
-0.135615871991
-0.136359833971
-0.136109652524
-0.132363304179
-0.128838428211
-0.127956408084
-0.127960126501
-0.12796944362
-0.127975265793
-0.127986901529
-0.128006357891
-0.128028087785
-0.128051107674
-0.128090185331
-0.128130387081
-0.1281760494
-0.128224482804
-0.128274290427
-0.128325052756
-0.12837653087
-0.128437275758
-0.128497652696
-0.128558144478
-0.128620175452
-0.12868666347
-0.128759496484
-0.128840352896
-0.128934547803
-0.129061308731
-0.12922681028
-0.129405003539
-0.129567695975
-0.12974461649
-0.129936903201
-0.130126645094
-0.130316963528
-0.130521095343
-0.130738091228
-0.130966561749
-0.131205329749
-0.131453809944
-0.131712734213
-0.131983873028
-0.13226829417
-0.132567362842
-0.132882934982
-0.133216678313
-0.133568989333
-0.133937614368
-0.134320667365
-0.134721670414
-0.135144285669
-0.135586367554
-0.136043980019
-0.136524107768
-0.137041518413
-0.137608002185
-0.138224427609
-0.138902490678
-0.139436888545
-0.139740014092
-0.139625161697
-0.13939014075
-0.139211363793
-0.138934631705
-0.138289092927
-0.137433358019
-0.136476731499
-0.135347421722
-0.13399878874
-0.13250725313
-0.130990764771
-0.129594621181
-0.128441815498
-0.127552732053
-0.126801767937
-0.126243055189
-0.126246035682
-0.12712403432
-0.128518883622
-0.129965970556
-0.130758119924
-0.130556601374
-0.129650083834
-0.12804878753
-0.127855278353
-0.127858029509
-0.127864468877
-0.127870881683
-0.127884511717
-0.127903240556
-0.127925259867
-0.127946483961
-0.127983321987
-0.128026318453
-0.128072808213
-0.128121090376
-0.128170362491
-0.128224916543
-0.128277167333
-0.128335840434
-0.128394863507
-0.12845549435
-0.128516377782
-0.128580850224
-0.1286507021
-0.128727654504
-0.12881682541
-0.128934672535
-0.129091973931
-0.129275279571
-0.12944789451
-0.129616711859
-0.129795636737
-0.129976848766
-0.130164291283
-0.130368066316
-0.130585312715
-0.130815147308
-0.131056737021
-0.131308716112
-0.131571332628
-0.131845685151
-0.132134052542
-0.132437310575
-0.13275745108
-0.133097008024
-0.133456215636
-0.133832237462
-0.134219427184
-0.134623389782
-0.135057249983
-0.135517489037
-0.135984349987
-0.136468331001
-0.137004638593
-0.137613815427
-0.138278752215
-0.138985137891
-0.139737119438
-0.139470501389
-0.139017683837
-0.138432345755
-0.137660541939
-0.136750187721
-0.135497204202
-0.133912661441
-0.132091007189
-0.130106157371
-0.128001087285
-0.125834470072
-0.123684198269
-0.121645177366
-0.119789221121
-0.118136793119
-0.116664784939
-0.115375773696
-0.114588229106
-0.114725731515
-0.115934883876
-0.118070938282
-0.120578858199
-0.12246915997
-0.123187914921
-0.125289081721
-0.127749097927
-0.127751024259
-0.12775419325
-0.12776158065
-0.127776783345
-0.127794433826
-0.127816214761
-0.127838095299
-0.127871200534
-0.127914454276
-0.127960555929
-0.128007861403
-0.128055101675
-0.128109604151
-0.128165925079
-0.128223916305
-0.128281730339
-0.128342517428
-0.128403552881
-0.128466690708
-0.128533999677
-0.128606497815
-0.128690515873
-0.128799725167
-0.128945414049
-0.129121240419
-0.129303191666
-0.129472712649
-0.129643500167
-0.129818132116
-0.129999375251
-0.130200511454
-0.130418133552
-0.130647076592
-0.130891579319
-0.131147564518
-0.131413595207
-0.131692295444
-0.131985645659
-0.132294796097
-0.132620446868
-0.132965286552
-0.133330670516
-0.133715221271
-0.134114463773
-0.134529275019
-0.134966623294
-0.135416247689
-0.135869948952
-0.136341125805
-0.136878331706
-0.13753554495
-0.138218551176
-0.139073917926
-0.13889571035
-0.138377814298
-0.137597284491
-0.136536749908
-0.135126804127
-0.133411099395
-0.131339222696
-0.128972027263
-0.126395050415
-0.123706645009
-0.120984402964
-0.11828825897
-0.115671030807
-0.113176519896
-0.110813100332
-0.108568154374
-0.106468004226
-0.104508151501
-0.102858931921
-0.101860477715
-0.10184456715
-0.103055378738
-0.105097271477
-0.106526834082
-0.109888183423
-0.128346780823
-0.127638427539
-0.127639979199
-0.127641864771
-0.127650767121
-0.127665162237
-0.12768062312
-0.127699755372
-0.127723316601
-0.127752472964
-0.127794535579
-0.127839659945
-0.127885738628
-0.127931334123
-0.12798294731
-0.128042167288
-0.128100968887
-0.128158213392
-0.128218120341
-0.128279415213
-0.128342322256
-0.128408295913
-0.12847638334
-0.128554850746
-0.128655916777
-0.128789685726
-0.128954105083
-0.129133549971
-0.129306038452
-0.129469159163
-0.129637506967
-0.129817895848
-0.130012987426
-0.130228503892
-0.130458925913
-0.130707137776
-0.130967556203
-0.131237673248
-0.131521326704
-0.131820473597
-0.132136536216
-0.13246996639
-0.132822504968
-0.133198766076
-0.133600790157
-0.134021375666
-0.13444588553
-0.134874890684
-0.135304572143
-0.135728788475
-0.136144565711
-0.136638232913
-0.137358860506
-0.137988208489
-0.13767907142
-0.137052646184
-0.136216318561
-0.135080299921
-0.133391153222
-0.13127999779
-0.128793735997
-0.125984042365
-0.122959465867
-0.119813112088
-0.116628218369
-0.113457548634
-0.110326946834
-0.107243004732
-0.104192375678
-0.101131025892
-0.0980119985661
-0.0948623219037
-0.0917929076711
-0.0888224222887
-0.0860634546046
-0.0837564663585
-0.0822470307471
-0.0812709667567
-0.0780607033827
-0.0681267651993
-0.0554502914304
-0.127522026163
-0.127523405815
-0.127525221427
-0.127536192501
-0.127549254105
-0.127562179824
-0.127577581479
-0.127601682796
-0.127625967538
-0.127665976699
-0.127710034507
-0.127754839788
-0.127799257851
-0.12784905113
-0.127908079881
-0.127967444745
-0.128024688409
-0.128083613154
-0.128143698549
-0.128206199574
-0.128271777329
-0.128336190993
-0.128408317798
-0.128501531261
-0.128623931879
-0.128775602707
-0.128948217611
-0.129120003727
-0.12928612674
-0.129445451734
-0.129621508795
-0.129813498917
-0.130023172712
-0.130247053966
-0.130494888404
-0.130763519845
-0.131040624346
-0.131331243639
-0.131636674763
-0.131960088184
-0.132303648118
-0.132668816446
-0.133064177946
-0.133493139404
-0.133933321275
-0.134367014252
-0.134797522892
-0.135223343487
-0.135624373376
-0.135900648217
-0.136175950402
-0.13760751852
-0.136245636688
-0.135033455801
-0.134300619713
-0.133177450165
-0.131426563172
-0.129064563249
-0.126276413356
-0.123133430614
-0.119735254165
-0.116186207432
-0.112561085236
-0.108905828932
-0.105230747928
-0.101522520228
-0.0977561595086
-0.0938979694211
-0.0898996346607
-0.0857140206451
-0.081345026844
-0.0768569429434
-0.0721587338792
-0.0670513599324
-0.0615388401172
-0.0558630918416
-0.0492536215331
-0.0358867778449
-0.00391409135643
0.0384850964813
-0.127397034697
-0.127398172255
-0.127400912457
-0.12741431577
-0.127426220299
-0.12743695804
-0.127449998351
-0.127472431635
-0.127491622629
-0.127528620866
-0.127571364033
-0.127614706989
-0.12765781648
-0.127705677418
-0.127763145199
-0.127822421218
-0.127880539895
-0.127938339732
-0.127996177375
-0.128057291146
-0.128122387332
-0.128184239288
-0.128249062578
-0.128334332024
-0.128446223356
-0.128584226658
-0.128745741205
-0.128908538864
-0.129077350037
-0.129238590498
-0.129406642047
-0.129589266375
-0.129796443294
-0.130022597494
-0.130262579475
-0.130530963416
-0.130816509625
-0.131115725226
-0.131431508914
-0.131764329716
-0.132118466698
-0.132503309358
-0.132930048243
-0.133389147533
-0.133847320781
-0.13429996369
-0.134766363969
-0.135235617485
-0.135639336361
-0.135634910455
-0.135974987648
-0.134931273653
-0.133540783098
-0.132448605257
-0.131224070817
-0.129410014391
-0.126914060174
-0.123876043461
-0.120458342012
-0.116753476006
-0.112864804623
-0.108870618599
-0.104818345594
-0.100726501559
-0.0965879414572
-0.0923809252053
-0.0880757967013
-0.0836324373431
-0.0789900165595
-0.0740644814577
-0.0687602414454
-0.0629776906091
-0.0565674133446
-0.0491515453776
-0.0405397436756
-0.0307858528587
-0.018084033072
0.00602100917776
0.0549205351595
0.113175623355
-0.127259425846
-0.127260349253
-0.127263971933
-0.127279532276
-0.12728995886
-0.127300309822
-0.1273118696
-0.127330960143
-0.127346806945
-0.127381751798
-0.127423131178
-0.127464756188
-0.127506258833
-0.12755168627
-0.127606368425
-0.127663979433
-0.127723603244
-0.127780334458
-0.127835707001
-0.127894512132
-0.127957541255
-0.12801856182
-0.128076267687
-0.128152414225
-0.128254631811
-0.128379440594
-0.128527648197
-0.128678128118
-0.128837234293
-0.129003785994
-0.129174049958
-0.129349335723
-0.129540495942
-0.129762512196
-0.130007866794
-0.130274329798
-0.130564170839
-0.130871108629
-0.131197111404
-0.131543186224
-0.131914941346
-0.132328345556
-0.132791816818
-0.133277662968
-0.133765759324
-0.134274180943
-0.134848361039
-0.1354592582
-0.136275934052
-0.135088510078
-0.133696744725
-0.132246213118
-0.130976165437
-0.129605199122
-0.127665483463
-0.125036930637
-0.121793029828
-0.11811065085
-0.114135675798
-0.109966036606
-0.105689339808
-0.101359727832
-0.0970045797985
-0.0926271696577
-0.0882109757396
-0.0837229568842
-0.0791121480467
-0.0743045346014
-0.0691976148765