/*--------------------------------*- C++ -*----------------------------------*\
| =========                 |                                                 |
| \\      /  F ield         | OpenFOAM: The Open Source CFD Toolbox           |
|  \\    /   O peration     | Version:  v1806                                 |
|   \\  /    A nd           | Web:      www.OpenFOAM.com                      |
|    \\/     M anipulation  |                                                 |
\*---------------------------------------------------------------------------*/
FoamFile
{
    version     2.0;
    format      ascii;
    class       volVectorField;
    location    "238";
    object      Ua;
}
// * * * * * * * * * * * * * * * * * * * * * * * * * * * * * * * * * * * * * //

dimensions      [0 1 -1 0 0 0 0];


internalField   nonuniform List<vector> 
6400
(
(4.86190556146e-05 6.72790470181e-05 0)
(0.000136258165367 5.40808038878e-05 0)
(0.000201059083063 4.63070686336e-05 0)
(0.000277691747909 4.34616694537e-05 0)
(0.000332871823124 2.8000689063e-05 0)
(0.000371414039213 1.43728790167e-05 0)
(0.000385464162853 9.01008730086e-06 0)
(0.000393537949292 1.64754923003e-05 0)
(0.000445938418348 2.68287142215e-05 0)
(0.000503835988122 2.64543973473e-05 0)
(0.000516716844822 2.34075356782e-05 0)
(0.000571025175169 2.75474211327e-05 0)
(0.000619117318816 2.64013728848e-05 0)
(0.000658552743845 2.20300272264e-05 0)
(0.000684672626641 1.95460381765e-05 0)
(0.00071357288512 2.24719005686e-05 0)
(0.000754502097992 2.3841058296e-05 0)
(0.000788474761756 2.13635725263e-05 0)
(0.000810047553085 1.64482118881e-05 0)
(0.000826813264001 1.30881772881e-05 0)
(0.000851106171013 1.81686983267e-05 0)
(0.000887353095921 2.52022346088e-05 0)
(0.000931083890313 2.82309346227e-05 0)
(0.000972365149838 2.94558166387e-05 0)
(0.0010132774273 2.83730138353e-05 0)
(0.00105241902233 2.60895212565e-05 0)
(0.00109311621856 2.61550858874e-05 0)
(0.001132250713 2.55183421848e-05 0)
(0.0011658784695 2.34811820173e-05 0)
(0.00119486843575 2.17382745826e-05 0)
(0.00121883205041 2.22169201921e-05 0)
(0.0012466376105 2.20584782858e-05 0)
(0.00127559275211 2.01748495712e-05 0)
(0.00130000999029 2.10326601106e-05 0)
(0.00132260542951 2.09205433708e-05 0)
(0.00135459283914 2.14357926246e-05 0)
(0.00138768346884 2.39151856235e-05 0)
(0.00139708552493 2.28228526438e-05 0)
(0.00142607637779 2.13472283309e-05 0)
(0.00146824030717 2.46033116968e-05 0)
(0.00151115258375 3.78637127805e-05 0)
(0.00154942403936 4.18704391786e-05 0)
(0.00158350957503 2.7288892492e-05 0)
(0.00160741708774 1.79061407934e-05 0)
(0.00162028216438 1.41419124253e-05 0)
(0.0016278897732 1.012989019e-05 0)
(0.00162891972994 6.66816670092e-06 0)
(0.00162124707956 2.17068140431e-06 0)
(0.00160621655033 -1.05380377324e-06 0)
(0.00158682219412 3.15274408252e-06 0)
(0.00157148608962 1.47176688932e-05 0)
(0.00159151570239 1.45006041625e-05 0)
(0.00156833167126 -1.66827799997e-05 0)
(0.00152763308882 -2.86313914892e-05 0)
(0.001458201296 -3.6721744046e-05 0)
(0.00132180204982 -5.64735760575e-05 0)
(0.00119065242444 -4.822685593e-05 0)
(0.0011088954506 -3.28703374659e-05 0)
(0.00105542566822 -3.92546367007e-05 0)
(0.000917983559558 -4.3890295407e-05 0)
(0.000824163676613 -3.43799970545e-05 0)
(0.000723449720914 -5.08947029218e-05 0)
(0.000653758287968 -8.87535205951e-05 0)
(0.000426882378827 -7.16073742194e-05 0)
(0.000295158741291 -4.61653770229e-05 0)
(0.000220646841765 -3.28906297827e-05 0)
(0.000167615162579 -2.89030593725e-05 0)
(0.000119744076801 -2.73080678892e-05 0)
(6.97133023162e-05 -2.68427685048e-05 0)
(1.70887507665e-05 -2.58063966058e-05 0)
(-3.31881871348e-05 -2.30196911473e-05 0)
(-7.44537257257e-05 -1.79358477552e-05 0)
(-0.000101568096629 -1.15202689891e-05 0)
(-0.000122788585124 -4.0139279712e-06 0)
(-0.000116549660121 1.29457617931e-06 0)
(-0.000120801842952 5.11252103241e-06 0)
(-9.11562970357e-05 4.75680208542e-06 0)
(-0.000103458515789 1.14474489673e-05 0)
(-4.75451435874e-05 1.02554248056e-05 0)
(-3.60520359285e-05 2.14607111064e-05 0)
(1.79299577454e-05 9.12198938487e-05 0)
(7.76095046257e-05 0.000104401019205 0)
(0.00013617229158 9.77881789921e-05 0)
(0.000172661534434 7.80499589294e-05 0)
(0.00025715196275 7.79454106657e-05 0)
(0.000343808083194 5.5465664817e-05 0)
(0.00039654433378 3.21070702031e-05 0)
(0.000430823766418 4.56275435219e-05 0)
(0.000466871202463 6.42923332336e-05 0)
(0.000508294337231 6.33061759058e-05 0)
(0.000548504196039 6.03268041834e-05 0)
(0.000585586680864 6.1959719827e-05 0)
(0.000620315588277 5.63011990617e-05 0)
(0.000652524011021 4.73255321039e-05 0)
(0.000686464354918 4.33506622879e-05 0)
(0.000720713907816 5.51481091984e-05 0)
(0.000755866330206 5.93308333804e-05 0)
(0.000782372799969 3.72457013165e-05 0)
(0.000767434511393 2.16723729363e-05 0)
(0.000790582916487 2.14209371394e-05 0)
(0.000825880711487 3.78532741957e-05 0)
(0.000872062783394 6.19039660566e-05 0)
(0.00093100143307 7.03693049953e-05 0)
(0.00098111797727 6.38128026015e-05 0)
(0.00100347522618 5.85885605696e-05 0)
(0.00105277341025 5.7929163454e-05 0)
(0.0010978532132 5.50839679586e-05 0)
(0.0011326251557 4.96005298713e-05 0)
(0.00116368250511 4.39136665843e-05 0)
(0.00119295602662 3.94435490268e-05 0)
(0.00122079954167 3.87950569422e-05 0)
(0.0012351909657 3.69926726867e-05 0)
(0.00126261532246 3.00501873177e-05 0)
(0.00128330425995 3.36275147781e-05 0)
(0.00129815383393 3.86813544255e-05 0)
(0.00134765237483 3.34342708028e-05 0)
(0.00136757715169 3.77554248067e-05 0)
(0.00137993566657 4.35930042922e-05 0)
(0.00142112495667 4.19388444043e-05 0)
(0.00148429468292 4.07828282444e-05 0)
(0.00153322628351 3.51631688116e-05 0)
(0.00142669089588 2.5238224353e-05 0)
(0.00140295526147 2.07968689544e-05 0)
(0.00143152468471 1.90555075359e-05 0)
(0.00144940890595 1.66202213295e-05 0)
(0.00147793678609 1.22430637286e-05 0)
(0.0015106027332 4.74176991198e-06 0)
(0.00152746848264 -5.09275066051e-06 0)
(0.00155234113431 -1.54912439033e-05 0)
(0.00156161973163 -2.33575506995e-05 0)
(0.00153193124764 -2.4751964343e-05 0)
(0.00144792737209 -2.73645271051e-05 0)
(0.00136788553408 -3.55653764159e-05 0)
(0.0015248924562 -6.78480815912e-05 0)
(0.00143123877201 -0.000116725556254 0)
(0.00135718517282 -0.000145175503407 0)
(0.00136716887837 -0.000142415994917 0)
(0.00130002939215 -0.000129609113065 0)
(0.00120938454734 -0.00014597124187 0)
(0.00111685395746 -0.000171803346924 0)
(0.00102223058868 -0.000194483510939 0)
(0.000718958655193 -0.000186332707805 0)
(0.000669515231689 -0.00025593177445 0)
(0.000437271209775 -0.000217433028261 0)
(0.000305079849985 -0.000151888887894 0)
(0.000213674705455 -0.000103251304685 0)
(0.000154268405009 -8.11776779561e-05 0)
(0.000110419389382 -7.86421451491e-05 0)
(6.04219679107e-05 -7.97524213625e-05 0)
(8.69323997027e-06 -7.93984217057e-05 0)
(-4.13181870813e-05 -7.07584105237e-05 0)
(-8.15528534144e-05 -5.35528259903e-05 0)
(-0.00010611757724 -3.36079856803e-05 0)
(-0.000129632608184 -1.6612501826e-05 0)
(-0.000138640605205 -1.18952206935e-06 0)
(-0.000139086844778 1.1378941112e-05 0)
(-0.000129466197988 1.9307910158e-05 0)
(-0.000112578998436 3.44128400855e-05 0)
(-7.38400784941e-05 4.75813484294e-05 0)
(-3.50849672449e-05 8.683601242e-05 0)
(2.72146252927e-05 0.000158214258992 0)
(7.5930637704e-05 0.000175235646157 0)
(0.000116219119793 0.000167700568794 8.43119536203e-29)
(0.000207433771644 0.000176898418479 -8.202244285e-29)
(0.000297024127521 0.000181048503576 -7.60738994991e-29)
(0.000346640024562 0.00014639137996 7.04313647064e-29)
(0.000379441171923 7.60042679015e-05 -7.1976138182e-29)
(0.000415092183792 8.45289978218e-05 7.23261052488e-29)
(0.000454005779811 0.000105546422897 0)
(0.000498658147186 0.000109834440211 0)
(0.000543261725754 0.000104860528928 0)
(0.000581841846087 9.84839966103e-05 0)
(0.000616465126949 8.96851792637e-05 0)
(0.00064752281165 8.41042596057e-05 0)
(0.000678933482793 8.00130766011e-05 0)
(0.00071174796137 6.80082580815e-05 0)
(0.000617371619158 4.38201000411e-05 0)
(0.000592925951731 3.05073544792e-05 0)
(0.000615539911593 3.79061174118e-05 0)
(0.00066881494172 6.93018804857e-05 0)
(0.000807133202517 0.000110761296698 0)
(0.000892483606447 0.000127654948175 0)
(0.000913537217432 0.000120416163461 0)
(0.000963713221557 0.000111067041756 0)
(0.00101723980992 0.00010612177976 0)
(0.00105636087883 0.000102625384412 0)
(0.00109130474843 9.43179815609e-05 0)
(0.00112591204914 8.50761764153e-05 0)
(0.00115724854409 7.68236058281e-05 0)
(0.00118252275769 7.07806710835e-05 1.59523616171e-28)
(0.0012147417037 6.51853472957e-05 -1.5517277942e-28)
(0.00121946592488 6.04352088796e-05 0)
(0.00123816102218 5.48362766824e-05 0)
(0.0012871403173 4.9899088212e-05 0)
(0.00124908541343 6.23391638364e-05 0)
(0.00129462915996 7.1818928265e-05 0)
(0.00137192554079 6.77069976457e-05 0)
(0.00134005908518 7.59711532364e-05 0)
(0.00139656269301 9.50250475221e-05 0)
(0.00147976895963 9.1910158468e-05 0)
(0.00153601845955 5.36546836817e-05 0)
(0.00156413626909 2.60821035022e-05 0)
(0.00158820585469 3.40989867361e-05 0)
(0.00160875165987 4.20290302047e-05 0)
(0.00162240323261 4.13657203634e-05 0)
(0.00163086295562 3.63839064031e-05 0)
(0.00163493333444 2.51653761857e-05 0)
(0.00163484190265 1.09682438683e-05 0)
(0.00163082713777 -6.40713054001e-06 0)
(0.00162305031911 -3.03134718405e-05 0)
(0.00161252457653 -5.54410005533e-05 0)
(0.0015970708648 -6.72834729079e-05 0)
(0.0015678124776 -5.66992149888e-05 0)
(0.00149903613627 -9.0998343722e-05 0)
(0.00140903970979 -0.000147641658417 0)
(0.00140215361464 -0.000173570695831 0)
(0.0013622737749 -0.000186575820057 0)
(0.00128314798454 -0.000207360708208 0)
(0.00118739723384 -0.000237202996057 0)
(0.00108157691019 -0.000279549471576 0)
(0.000957250851205 -0.000341025550992 0)
(0.000821529418956 -0.000399161313027 0)
(0.000691671399403 -0.000471594394371 0)
(0.000436253627845 -0.000373003650577 0)
(0.000277613074878 -0.000237393288367 0)
(0.000204047788636 -0.0001727898587 0)
(0.000149381533108 -0.00014502270786 0)
(9.54851014222e-05 -0.000133214185607 0)
(4.43740713735e-05 -0.000131174183075 0)
(-6.63317390629e-06 -0.000127033023813 0)
(-5.52777721626e-05 -0.000111548862612 0)
(-9.68631872821e-05 -8.69151644663e-05 0)
(-0.000133294217723 -6.26403025004e-05 0)
(-0.000157610357299 -3.48251370971e-05 0)
(-0.000162512576116 -4.91448622212e-06 0)
(-0.000156816787283 1.75200800387e-05 0)
(-0.000143209611223 3.55447537151e-05 0)
(-0.000121433975192 6.69017139686e-05 0)
(-8.84926915417e-05 0.000115503605977 0)
(-2.39135961906e-05 0.00012750850256 0)
(2.67245127573e-05 0.00024088156842 0)
(3.30027820063e-05 0.000155969095143 0)
(9.58646217515e-05 0.000258084354848 0)
(0.000185545225582 0.000267135865337 0)
(0.000252328213776 0.000224769695761 0)
(0.000132087630758 7.98984746426e-05 0)
(0.000163103344114 8.1310512324e-05 0)
(0.00032331724405 0.000161784753768 0)
(0.000420560299494 0.000179502369065 0)
(0.000477109377151 0.000164445927076 0)
(0.000531550673335 0.00015268619458 0)
(0.000575695793635 0.000138661600441 0)
(0.000611296333824 0.000123912633789 0)
(0.000632953567826 9.75194518608e-05 0)
(0.000577672765184 5.80171077205e-05 0)
(0.000536796827582 3.19051210827e-05 0)
(0.000537544252594 2.87638686623e-05 0)
(0.000580888050278 5.82488334608e-05 0)
(0.000685106286176 0.000111448472897 0)
(0.000806620249216 0.000173220978414 0)
(0.000842996334991 0.000188646774007 0)
(0.000881633238461 0.000177183960459 0)
(0.000930368633264 0.000166798752715 0)
(0.000973625585716 0.000159099502127 0)
(0.00101197472308 0.000148974624616 0)
(0.00104730667759 0.00013780212673 0)
(0.00107927101106 0.000127265377295 0)
(0.0011183108933 0.000116706584436 0)
(0.00114192982222 0.000105622089468 0)
(0.0011802033097 9.67743011483e-05 0)
(0.00118543583234 8.70810719267e-05 0)
(0.00122604341036 7.75253968119e-05 0)
(0.001203950232 6.37428696407e-05 0)
(0.00122654921918 6.72339968022e-05 0)
(0.00129958136214 8.54253780846e-05 0)
(0.00127232720552 0.000103943773562 0)
(0.00134359278095 0.000115137275935 0)
(0.00143053267465 0.000128470658055 0)
(0.00147033282393 0.000145266536453 0)
(0.00149960795996 0.000133714432366 0)
(0.00153089063033 9.71769584341e-05 0)
(0.00156073026237 6.67533916578e-05 0)
(0.001587151081 5.76584500283e-05 0)
(0.00160848796863 5.52218021649e-05 0)
(0.00162343963875 4.95463426833e-05 0)
(0.00163321128534 3.95925176054e-05 -1.57383633615e-28)
(0.00163863768346 2.51621078823e-05 1.58485400386e-28)
(0.00163988043967 7.16986696041e-06 0)
(0.00163688673553 -1.43312837426e-05 0)
(0.00162941648873 -3.94965315951e-05 0)
(0.00161669878384 -6.51958963152e-05 0)
(0.0015953083763 -8.80720032381e-05 0)
(0.0015599919057 -0.000113938749064 0)
(0.00151016532948 -0.000155938493221 0)
(0.00145751693968 -0.000193853676401 0)
(0.00140619719834 -0.000221688064637 0)
(0.00134222277513 -0.000258418767324 0)
(0.00125622247877 -0.000301170104558 -2.98145620721e-28)
(0.00114969796304 -0.000349435943408 3.36915403894e-28)
(0.00102612628265 -0.000407069364813 0)
(0.000888682651783 -0.00047243106608 0)
(0.000748460687602 -0.000541050192745 0)
(0.000628709865679 -0.000610230436924 0)
(0.000460956543868 -0.000541328915484 0)
(0.000307823234805 -0.000374545156281 0)
(0.000196174111891 -0.000245076887633 0)
(0.000130871641039 -0.000198855843627 0)
(7.54010183916e-05 -0.000186648720557 0)
(2.24590784922e-05 -0.000183280187969 0)
(-3.023205626e-05 -0.000180436285684 0)
(-8.46941636569e-05 -0.000164397793516 0)
(-0.000134563503505 -0.000133880991061 0)
(-0.000166143710519 -9.10632193328e-05 0)
(-0.000168940764972 -4.18456367478e-05 0)
(-0.000168737922407 -2.99099690563e-06 0)
(-0.000165175338731 3.00075252356e-05 0)
(-0.000144160574989 6.26216105902e-05 0)
(-9.34834431598e-05 8.58148674976e-05 0)
(-7.09207788796e-05 0.000140629819616 0)
(-2.4107521171e-05 0.000178242285575 0)
(3.51716726846e-07 0.000234371921237 0)
(1.50006709931e-05 0.000190824521217 0)
(8.90476109619e-05 0.000345951086137 0)
(0.000156902768763 0.000318299018953 0)
(0.000155154867525 0.000195717985956 0)
(0.000118770580896 0.000105945074931 0)
(0.000207786815788 0.000181916056542 0)
(0.000343494472469 0.000278939043063 0)
(0.000392841937349 0.000254752776353 0)
(0.000453466125051 0.000225066263412 0)
(0.000510184040452 0.000209645450548 0)
(0.000556160504427 0.000182919285898 0)
(0.00054945683663 0.00012188731736 0)
(0.000486885857597 6.18348112355e-05 0)
(0.000498451570266 4.12858525558e-05 0)
(0.000535923096704 5.05658523181e-05 0)
(0.000606026249559 8.77339272392e-05 0)
(0.000704222982903 0.000151087980117 0)
(0.00078165609858 0.000204404199453 0)
(0.000795112477108 0.000214581586362 0)
(0.000832442918669 0.000220735577013 0)
(0.000884593777719 0.000223541645754 0)
(0.000926398717399 0.000213387911992 0)
(0.000966143929823 0.000198953856358 0)
(0.00100223433251 0.000184803700345 0)
(0.0010338063532 0.000172886181073 0)
(0.00107425545046 0.000160762980525 0)
(0.00109296139968 0.000146511276147 0)
(0.00114056418224 0.000134710473687 0)
(0.00113903588258 0.000119010904779 0)
(0.00119549238681 0.00010822402922 1.51477095853e-28)
(0.00115073284642 9.00556395116e-05 -1.38053106429e-28)
(0.00121339078894 8.89055173907e-05 0)
(0.0012684487233 9.57011456219e-05 0)
(0.00125093546743 0.000114201910101 0)
(0.00134217509076 0.000153763462609 0)
(0.00139527549154 0.000182432083113 0)
(0.00143894485876 0.00018380612127 0)
(0.00147252330625 0.000174748479302 0)
(0.00150098324979 0.000156755781479 0)
(0.00153122096012 0.000127783454874 0)
(0.00156142382099 0.000100305023628 0)
(0.00158841404615 8.40477210167e-05 0)
(0.00161041352457 7.36807965352e-05 0)
(0.00162669706997 6.239105517e-05 0)
(0.00163807960334 4.77932711626e-05 0)
(0.00164508606115 2.9272198312e-05 0)
(0.00164770720073 6.97281994482e-06 0)
(0.00164553321715 -1.92739948799e-05 0)
(0.00163778318148 -4.95246633782e-05 0)
(0.00162311748438 -8.25729560843e-05 0)
(0.00159887801518 -0.000117605523392 0)
(0.00156236297768 -0.000156838538012 0)
(0.00151412495819 -0.000202202428446 0)
(0.00145905468658 -0.000246238412332 0)
(0.00139743318838 -0.000290749106972 0)
(0.00132086359433 -0.000344816704079 0)
(0.00122205518595 -0.000407717329378 0)
(0.00110032322323 -0.000475340774308 0)
(0.000961850662464 -0.000545086337232 0)
(0.000817859060014 -0.000613371490656 0)
(0.000685469150153 -0.000677700485778 0)
(0.000579357476601 -0.000723709484127 0)
(0.000468593730917 -0.000685186486862 0)
(0.000319272340618 -0.00051012432149 0)
(0.000204617004741 -0.00034940667395 0)
(0.000124969460105 -0.000278523878765 0)
(5.59720183841e-05 -0.00024972271284 0)
(-4.55437611525e-06 -0.000238459827615 0)
(-6.32399289977e-05 -0.000234410604962 0)
(-0.000125727504721 -0.000220371226616 0)
(-0.000172117717558 -0.000172068938186 0)
(-0.000180390958721 -0.000100070707539 0)
(-0.000186044537523 -4.47331594224e-05 0)
(-0.00019044702279 1.12473170132e-06 0)
(-0.000183290075095 4.99392359855e-05 0)
(-0.000147122109604 9.21161544455e-05 0)
(-0.000104450896426 0.000123826308698 0)
(-7.58713828193e-05 0.000192181430305 0)
(-2.21232084994e-05 0.000219012935362 0)
(-1.95454247307e-06 0.000216471137597 0)
(2.02597482437e-05 0.000233529272817 0)
(9.13541453346e-05 0.000393079016516 0)
(0.000123764343718 0.000315430436513 0)
(8.74055119694e-05 0.000147722103858 0)
(0.000119367044844 0.000152567648568 0)
(0.000275240780009 0.00031027335215 0)
(0.000333441438153 0.000336749850562 0)
(0.000373334659782 0.000308347583502 0)
(0.000424193995523 0.000283173483988 0)
(0.000476052697786 0.000244760507761 0)
(0.000423898110975 0.000156596674736 0)
(0.000380097343843 8.35312453908e-05 0)
(0.000414607846291 6.80973554126e-05 0)
(0.000459772829076 8.24861790122e-05 0)
(0.000550816878196 0.00012687943477 0)
(0.000659150344554 0.000185640788013 0)
(0.000735813841535 0.000222810894406 0)
(0.000732757466736 0.000222519226786 0)
(0.000777686106267 0.000245606523008 0)
(0.000837582613403 0.000269998315693 0)
(0.000877928336862 0.000267921508676 0)
(0.000916079605511 0.000254062705145 0)
(0.000951312498203 0.000237671977343 0)
(0.000994390806404 0.000223234977435 0)
(0.00102633872691 0.000203802344895 0)
(0.00103102711061 0.000188321243483 0)
(0.0010967847227 0.000179097041943 0)
(0.00107604004939 0.000154836029046 0)
(0.00115427769157 0.000140051745447 0)
(0.00108048726445 0.000112595337091 0)
(0.00117850462862 0.000117684333291 0)
(0.00112403148144 0.000116081239532 0)
(0.00121410441581 0.000136539473117 0)
(0.00130941231701 0.000178240153846 0)
(0.00136615668621 0.000217405052335 0)
(0.00140595801183 0.000226230001264 0)
(0.00144070823339 0.000219112462894 0)
(0.0014718634593 0.00020473990562 0)
(0.00150197480344 0.000184689928985 0)
(0.00153254105572 0.000158481467301 0)
(0.00156274006708 0.000131816801255 0)
(0.00159026855819 0.000110645834202 0)
(0.00161319632219 9.36239297691e-05 0)
(0.00163110034977 7.6696694941e-05 0)
(0.00164428360551 5.73748593558e-05 0)
(0.0016531163113 3.4528149631e-05 0)
(0.00165726460434 7.58854430586e-06 0)
(0.00165584994369 -2.40444220347e-05 0)
(0.00164776841386 -6.07542308801e-05 0)
(0.00163159596337 -0.000102303999229 0)
(0.00160534706273 -0.000148423526391 0)
(0.00156743668141 -0.000199152025581 0)
(0.00151807998652 -0.000253394867234 0)
(0.00145842572514 -0.000309137563463 0)
(0.00138625326146 -0.000370790160052 0)
(0.00129521624229 -0.000444276615357 0)
(0.00118171269335 -0.000527322127041 0)
(0.00104962396524 -0.00061232242261 0)
(0.000905105835187 -0.000688418940002 0)
(0.000765506677892 -0.000750856868113 0)
(0.000646571213126 -0.000786938502659 0)
(0.000505438608953 -0.00075001121515 0)
(0.000476720073556 -0.000838480334226 0)
(0.000300688430081 -0.000616938206261 0)
(0.00019351463206 -0.000435695641731 0)
(0.000114254105857 -0.000359272192452 0)
(3.4060225891e-05 -0.000320185952917 0)
(-3.8544739239e-05 -0.00030000826755 0)
(-0.000109370161352 -0.000300307641668 0)
(-0.000173592552431 -0.000274948565035 0)
(-0.000194803039311 -0.000189023964408 0)
(-0.000202173118361 -0.000109925335237 0)
(-0.000218816077413 -5.21173150115e-05 0)
(-0.00022246314978 7.36330010693e-06 0)
(-0.000211820587138 7.5456483649e-05 0)
(-0.000165022143733 0.000122580483483 0)
(-0.000124776940504 0.000162933108476 0)
(-9.03062213581e-05 0.000241949386242 0)
(-2.7838224798e-05 0.000267029146403 0)
(6.8687295412e-06 0.000234618777268 0)
(5.1199773097e-05 0.000309945277698 0)
(0.000122548353282 0.000426786239184 0)
(0.00013076424791 0.000389542062153 0)
(8.05369163556e-05 0.000183377553127 0)
(0.000178633356628 0.00027841496478 0)
(0.00029293174962 0.000387031220879 0)
(0.000317975253498 0.000375593653775 0)
(0.000356597865513 0.000347377765943 0)
(0.000375965667332 0.000313507228328 0)
(0.000442309357056 0.000260508864159 -3.29455288093e-28)
(0.000321979934546 0.000117558004441 1.7942233418e-28)
(0.000376562565584 0.000104585996418 0)
(0.000403375135988 0.0001131576114 0)
(0.000479972822483 0.000159466115722 0)
(0.000596847510227 0.000234461906115 0)
(0.000679189809164 0.000265631856851 0)
(0.00065762870373 0.000236192751124 0)
(0.00070710278052 0.000257106780594 0)
(0.000784103449629 0.000303500032081 0)
(0.000824109130343 0.000316342920731 0)
(0.000865909571198 0.000308673342151 0)
(0.000905521217055 0.000293910845521 0)
(0.000942808824808 0.00027449871583 0)
(0.000967681508978 0.000249933344908 0)
(0.000977548145345 0.000224368490869 0)
(0.00103617808045 0.000215870737948 0)
(0.00100128245607 0.00019691079093 0)
(0.00109998617723 0.000182856578129 0)
(0.00101652927933 0.000133468320539 0)
(0.00111936980869 0.00013785517561 0)
(0.00107856346293 0.000143099965853 -1.3051332796e-28)
(0.00117293532997 0.000162896197712 1.41003191771e-28)
(0.00121474933949 0.000207892089537 0)
(0.00133153029297 0.000257762261234 0)
(0.00137373217718 0.000268565275025 0)
(0.00140648062454 0.000262822104296 0)
(0.00143859426644 0.00025100821924 0)
(0.00147114493933 0.000235022491091 0)
(0.00150309869336 0.000214538029719 0)
(0.00153426901486 0.000189324604551 0)
(0.0015648045148 0.000162481501798 0)
(0.00159296769726 0.000137714735413 0)
(0.00161706882931 0.000115296426372 0)
(0.00163668106613 9.31100550709e-05 0)
(0.00165193608542 6.90488854001e-05 0)
(0.0016628457641 4.15814716644e-05 0)
(0.00166865608202 9.46254688603e-06 0)
(0.00166813207149 -2.83894444831e-05 0)
(0.00166002393761 -7.26691088108e-05 0)
(0.00164294787542 -0.000123507537387 0)
(0.00161523727636 -0.000180544809522 0)
(0.00157555618367 -0.000242919959174 0)
(0.00152319886468 -0.000309576477287 0)
(0.00145703168809 -0.000381353423149 0)
(0.00137376295244 -0.000462876421499 0)
(0.00126927938825 -0.000556678441857 0)
(0.0011439376488 -0.000656786607066 0)
(0.00100489163982 -0.000751312422352 0)
(0.000865392202815 -0.000827087837411 0)
(0.000739239098764 -0.000871062135865 0)
(0.000635840380205 -0.000885132747652 0)
(0.000550017085387 -0.00091142168823 0)
(0.000487196563101 -0.000928717277028 0)
(0.000326640025468 -0.000731342939548 0)
(0.000177073831448 -0.000514768026858 0)
(9.44985635996e-05 -0.000450428234956 0)
(3.34567473015e-06 -0.000414196213351 0)
(-8.37128974879e-05 -0.000388744514126 0)
(-0.000160881333144 -0.00036987950405 0)
(-0.000207406795827 -0.000305065148693 0)
(-0.00021923786381 -0.000203995810968 0)
(-0.000243073709353 -0.000129463365419 0)
(-0.000262729555473 -6.14635323275e-05 0)
(-0.000268077001222 1.65323551874e-05 0)
(-0.000244696200916 9.86780222282e-05 0)
(-0.000208187640353 0.000162787537568 0)
(-0.000154319707002 0.00020880193941 0)
(-0.000110767110712 0.000296020224233 0)
(-3.7829684012e-05 0.00033619339811 0)
(1.52006451281e-05 0.000273538057673 0)
(7.6109544118e-05 0.000387547990354 0)
(0.000139296145317 0.000438505599742 0)
(7.71129757874e-05 0.000242674052661 0)
(8.34555283866e-05 0.000229287329391 0)
(0.000218122999879 0.000403987374043 0)
(0.000268089895505 0.000425371698431 0)
(0.00030618005907 0.00041352247047 0)
(0.000319753299977 0.000367523704748 0)
(0.000358936165088 0.000336043184901 0)
(0.000275036369603 0.000184222466914 0)
(0.000317370764961 0.000139181772252 0)
(0.0003626968404 0.000142211693362 0)
(0.000398625743059 0.000169840609375 0)
(0.000520605204576 0.000259459758998 0)
(0.000617617258275 0.000313218545853 0)
(0.000591200028311 0.000270764871512 0)
(0.000627792941745 0.000270677280494 0)
(0.000714314765771 0.00032451762114 0)
(0.000771735277696 0.000356671942118 0)
(0.000806573054907 0.000357147432063 0)
(0.000842454563696 0.000346840562865 0)
(0.000888444244339 0.000335527849793 0)
(0.000923488797092 0.000312394208134 0)
(0.000966650038727 0.000276394978998 0)
(0.000950126481025 0.000251184272964 0)
(0.00102378909413 0.000239619625247 0)
(0.00101255383851 0.00021303810639 0)
(0.000995392447893 0.000182557963401 0)
(0.00102784512671 0.000169978285702 0)
(0.00114167269641 0.000179797844484 0)
(0.0011141149869 0.00017300736021 0)
(0.00113280073847 0.000218203036261 0)
(0.00128969789177 0.000295602159999 0)
(0.00133214365048 0.000320488772928 0)
(0.00136949433556 0.000310858219328 0)
(0.00140337735216 0.000297277290527 0)
(0.00143617689501 0.000283422543821 0)
(0.00147011613502 0.000267002564207 0)
(0.00150389499632 0.000246190371684 0)
(0.00153625564422 0.000220872982056 0)
(0.00156732298063 0.000193137928102 0)
(0.00159635112468 0.000165458528951 0)
(0.00162195508296 0.000138616507685 0)
(0.00164354884023 0.000111681588961 -1.522214353e-28)
(0.00166113754017 8.29828693732e-05 1.51722200274e-28)
(0.00167436431772 5.06333017765e-05 0)
(0.00168207866453 1.2795726518e-05 0)
(0.00168279768519 -3.19916266547e-05 0)
(0.00167522428156 -8.4624366773e-05 0)
(0.00165794651968 -0.000145397454902 0)
(0.00162930087488 -0.000213990639963 0)
(0.00158771985215 -0.000289615135653 0)
(0.00153146188807 -0.00037205119276 0)
(0.00145788150025 -0.000463113300132 0)
(0.00136377553081 -0.000565784699019 0)
(0.00124787883157 -0.000678487340002 0)
(0.00111438017266 -0.000791887391677 0)
(0.000973294002652 -0.000891653516087 0)
(0.000836966192151 -0.000958831459159 0)
(0.000717891557551 -0.000976618521269 0)
(0.00062953107252 -0.000971559432522 0)
(0.000563324463944 -0.000973822155347 0)
(0.000508050965239 -0.000985148098056 0)
(0.000444694734365 -0.000972121523561 0)
(0.000203289987198 -0.000644755043589 0)
(7.11795063835e-05 -0.000551305696734 0)
(-3.55957847318e-05 -0.000509950080307 0)
(-0.000129881549807 -0.000468115053506 0)
(-0.000201305988893 -0.000419143460553 0)
(-0.00023712299199 -0.000328868093106 0)
(-0.00026129289735 -0.000231746611009 0)
(-0.000296710248128 -0.000155148961406 0)
(-0.000318363359802 -7.21100257816e-05 0)
(-0.000323387158986 2.58712300408e-05 0)
(-0.000297423243 0.000122068775704 0)
(-0.000269064167422 0.000207982090266 0)
(-0.000203474998208 0.000273955316357 0)
(-0.000136458451647 0.000364363728344 0)
(-4.82584247217e-05 0.000428972626525 0)
(2.20432793736e-05 0.000324469228674 0)
(8.98448249816e-05 0.000453318787291 0)
(0.000113848574421 0.00044414940999 0)
(7.29332464626e-05 0.000265621034755 0)
(0.00012337386106 0.000310055057703 0)
(0.000230538929737 0.000464338170391 0)
(0.000242472959259 0.000460317767463 0)
(0.000294349016114 0.000447413736418 0)
(0.000265527589473 0.000353650533932 0)
(0.000357208157818 0.000375973313071 0)
(0.000262949094178 0.000200233629471 0)
(0.000322340855482 0.000181835705379 0)
(0.000354860185496 0.000188294289581 0)
(0.000428860802605 0.000255219476847 0)
(0.000542808351195 0.000353476196382 0)
(0.000598429464829 0.000354834122947 0)
(0.00056740053884 0.000297420469301 0)
(0.000630784157721 0.000331388661588 0)
(0.000703783869467 0.000385643282095 0)
(0.000749768164971 0.000402652115532 0)
(0.000791332022338 0.000397338776076 0)
(0.000819056750598 0.000381449989882 0)
(0.000859440561711 0.000368142023552 0)
(0.000877273206554 0.000340379010461 0)
(0.000882306324992 0.000287972736397 0)
(0.000963820665782 0.000279200856083 0)
(0.000897056172327 0.000250332495771 0)
(0.0010476805483 0.00024415124847 0)
(0.000968490724535 0.000211576653903 0)
(0.00111249726853 0.000228454261259 0)
(0.00102993929153 0.000200738992412 0)
(0.00117277644661 0.000230529254706 0)
(0.00123015712887 0.000299958391585 -1.57831280167e-28)
(0.00129140519518 0.000358092614799 1.65433030007e-28)
(0.00132812192072 0.000362345823325 0)
(0.00136350928112 0.000348627960358 0)
(0.00139940161276 0.000332990612871 0)
(0.00143387381548 0.000317655232357 0)
(0.00146880150211 0.00030064097645 0)
(0.00150384642162 0.000279453153513 0)
(0.00153777933502 0.000253535936 0)
(0.00157010512366 0.000224490659412 0)
(0.00160033430535 0.000194273195044 0)
(0.00162768579484 0.000163774425693 0)
(0.00165168664175 0.000132618340551 0)
(0.00167194380273 9.94003264768e-05 0)
(0.0016877225587 6.19746956761e-05 0)
(0.00169770312489 1.80234233587e-05 0)
(0.00170031747485 -3.42225105316e-05 0)
(0.00169412999142 -9.57917766507e-05 0)
(0.00167760890751 -0.000167195181872 0)
(0.00164891116507 -0.000248469888372 0)
(0.00160596627566 -0.000339523246954 0)
(0.00154587334205 -0.000440845561496 0)
(0.00146493546677 -0.000553731062185 0)
(0.00136054679257 -0.000677753840663 0)
(0.00123423479919 -0.00080707362134 0)
(0.00109339267831 -0.000929957087757 0)
(0.000950718462817 -0.00103235820961 0)
(0.000817438321987 -0.00109005756735 0)
(0.000706875428994 -0.00107574341535 0)
(0.00062933065051 -0.00103631006414 0)
(0.000572736532441 -0.00102637595687 0)
(0.000520436859577 -0.00103873139538 0)
(0.000483097586412 -0.00104550919277 0)
(0.000326238757129 -0.000907755723005 0)
(7.3315438111e-05 -0.000655389544664 0)
(-8.128562209e-05 -0.00062361831268 0)
(-0.000177821089649 -0.000558959944903 0)
(-0.00024075011633 -0.000467698170734 0)
(-0.000279182115973 -0.000362483144393 0)
(-0.000320579394266 -0.000270276643493 0)
(-0.000359845429334 -0.000184301121577 0)
(-0.000382595307964 -8.44546489811e-05 0)
(-0.000386144196877 3.01929552123e-05 0)
(-0.000371938413645 0.000144385647148 0)
(-0.000341675769913 0.000255799356544 0)
(-0.000272642313289 0.000361428155938 0)
(-0.000173901298269 0.000463349523121 0)
(-5.91352545234e-05 0.000538723639348 0)
(2.82861236327e-05 0.000390815024995 0)
(0.000102840856957 0.000501978444034 0)
(0.000102934385233 0.000429945584402 0)