/*--------------------------------*- C++ -*----------------------------------*\
| =========                 |                                                 |
| \\      /  F ield         | OpenFOAM: The Open Source CFD Toolbox           |
|  \\    /   O peration     | Version:  v1806                                 |
|   \\  /    A nd           | Web:      www.OpenFOAM.com                      |
|    \\/     M anipulation  |                                                 |
\*---------------------------------------------------------------------------*/
FoamFile
{
    version     2.0;
    format      ascii;
    class       volScalarField;
    location    "43";
    object      alpha;
}
// * * * * * * * * * * * * * * * * * * * * * * * * * * * * * * * * * * * * * //

dimensions      [0 0 -1 0 0 0 0];


internalField   nonuniform List<scalar> 
6400
(
0.784996729468
1.0983737171
1.61266033412
1.60717330866
1.64042391818
1.77214753446
2.330517631
3.02724990719
2.81492875181
2.63414519871
3.78463180125
3.72310587332
3.57788162549
3.62102205868
4.18492896763
4.71116811085
4.75482197733
4.90176453058
5.25718997943
5.48422473702
5.35457020632
5.05313688073
4.82819389155
4.93245394096
5.03227789866
5.09109904261
4.86891602109
4.54906367728
4.47997371809
4.64411031238
5.08144111467
5.05740703819
4.80699664945
4.7290013932
4.76258133299
4.44165347736
4.11417974822
5.33870447766
5.14839049083
4.5164111718
3.88911802084
3.4709767548
3.24357081468
3.17714985213
3.26405850395
3.29751801064
3.50549473002
3.95057963517
4.51927441206
4.87469837414
5.18313826453
2.84550106168
2.66084164908
2.28783302327
3.23280879336
5.83683720572
7.09296368082
6.47759741986
5.17363609877
5.20406221666
4.59966593288
3.83765498154
2.94104750195
5.07869678199
9.30104910364
14.319663947
17.3564854045
17.0938652023
15.1039853539
13.4208499689
12.451102205
12.516280049
12.9347473132
12.7351763223
14.698445864
14.1066227342
15.9633517989
9.85490772468
12.8646101272
4.80772569285
3.02305948492
2.27336652925
2.7300407969
3.87879286558
3.28456659585
2.47211925448
2.12728064765
2.14765752689
2.29679929134
2.53553762098
2.91763763512
3.30143448484
3.61395334634
3.91343969464
4.13031192228
4.42241366355
4.76657311826
5.33889098777
7.09329325095
6.95334785899
6.37320722628
5.74676094209
4.93041799796
4.56584923201
5.64690464829
5.10875176574
4.59201209496
4.55458266394
4.66391937649
4.90205144955
5.08476722695
6.05660634237
5.91372202307
6.08103637449
6.56064344761
5.10513942175
5.70284934723
6.4674470748
5.78070600597
4.13075891188
3.25941945371
9.35260639876
11.1438714363
11.1371890912
10.9990550672
10.3714455687
9.43338247426
8.7618729691
7.65760967578
6.87237692176
7.39478328811
9.12130632587
9.86556654674
2.9319886606
4.01680232809
4.56508301685
0.613493440689
0.295313445317
0.279762985498
0.257619758572
0.422663972625
3.94149213928
2.71830244221
5.12502432306
9.27498678687
15.220285307
19.0048787057
17.8342341864
15.6762271227
13.7166098735
12.9103343329
13.1979060383
14.1698729355
13.5283282188
13.3176395884
12.7553108803
11.5383206384
9.69593118373
8.15700247561
4.24054559618
2.8697665527
2.32300425114
2.76470972117
2.5686695584
2.38726353562
2.54605000177
2.46329639097
2.18661554937
2.27966467353
2.53517015983
2.86515140142
3.27739959488
3.650399467
3.9813464068
4.18319747298
4.55446339815
9.35525933413
11.7701871294
11.9091199461
10.5385922501
6.67340757563
4.58585806443
5.56582676269
5.32116469394
4.71718095523
4.68996545324
4.83264809264
4.86586609523
4.9939449916
5.53648309791
5.46229912468
6.89177787616
7.22418210438
5.64919542574
8.63991305616
7.72246148067
5.36195882675
8.18610409086
7.02699412799
4.36687765932
1.44277983521
0.64130234736
0.197012963435
0
0
0
0
0
0
0
0
0.281200443509
1.31939876119
3.44730616748
4.86243375213
2.44886327756
0.515989243146
0.402096197392
0.398588554388
0.495005083113
0.671712209286
0.891072649494
1.49265765775
5.59215904877
11.1969634966
16.0201849064
18.3861233768
18.5417343337
16.951321265
15.2375848474
14.4678742511
14.2840550756
13.5520559399
12.8947611506
12.8128494068
12.4269314389
11.4223541359
9.79465456253
7.35418383665
7.54313524978
2.40907712175
5.14716068794
2.57510866183
2.20814351039
2.83741814603
11.5457968416
9.80773952393
3.53943163014
2.36385373608
2.62730518896
2.87684327151
3.26611781164
3.67091545058
4.37642704022
7.35899775359
10.1110264379
11.8063790398
11.6598974375
8.9812310511
5.47653616423
5.02811303146
4.91342841664
4.53001496931
4.45997802596
4.69606807154
4.9941976827
5.38148847934
5.12755816905
5.84296901365
5.40353761089
7.06638772754
6.27212573137
8.56855425473
8.39534424906
5.88957691007
8.38294923277
6.66212657704
3.33039644135
1.70704518747
1.27999559115
0
0
0
0
0
0
0
0
0
0
0
0
0
0
0
0.0402064124095
0.306859842157
0.747298668055
1.14989831923
1.37344208714
1.49007627499
1.61196952352
2.12762367653
5.49861889942
10.105231445
16.210341533
19.8959423545
20.1352915963
18.4758739876
16.1076167173
14.4521407617
13.5865592369
13.6818499157
15.0205808267
14.9112874575
13.5514159423
13.3818128595
16.6656408347
13.0446419568
11.0421347933
4.89477464801
7.05577360558
2.51284982188
2.88692314539
5.71939894572
11.4174426489
7.18986792484
2.92132460634
2.66334970187
2.77461744043
3.04657248622
3.62678367022
5.65223731218
8.99823143194
9.89962217173
9.82146972891
8.84574542058
6.87199925568
4.99887573402
5.57638285922
5.25389439516
4.42614891671
4.35638228707
4.57320227512
4.96921333861
5.50910411753
5.35422624766
6.44686367034
5.56625374547
7.5509732099
6.09300853049
9.68315905568
7.77177749118
5.72246828881
7.91830841742
4.80120506515
3.45014981527
2.06105982498
0.512384223809
0
0
0
0
0
0
0
0
0
0
0
0
0
0
0
0
0
0.265768048005
0.609218178628
1.18622825643
1.66497429395
1.92588183037
2.12408959597
2.73876957694
5.1022268051
9.53451869063
15.4004105785
19.7934927189
21.2718525179
20.1049483674
17.3194264763
14.8026440973
14.4394637151
16.6563672076
17.4854491904
16.4016579034
15.4420593508
18.0574912293
21.0513053407
16.3157521213
15.4074107567
9.30233913523
8.35645507104
3.06571305533
4.44782536407
11.6393249731
11.0064357427
4.18687421382
2.97798389284
3.04284072104
3.07355197217
3.6774313501
7.60198619123
11.4830228336
11.5974961391
10.7472708026
8.62206898749
6.35874674521
4.88293862862
6.35892004865
5.79496835388
4.46074311887
4.27983374729
4.49533428851
5.00377647401
5.01937834221
5.57419183028
7.40103262252
5.85599264309
8.68154553647
6.40078946283
11.0293303733
8.10706190047
11.2386899022
8.23779242239
4.84583982465
2.91719652352
2.21713690153
0
0
0
0
0
0
0
0
0
0
0
0
0
0
0
0
0
0
0.0569244563858
0.285953930267
0.428051441389
0.454814025583
1.41725729849
1.94958150014
2.66673419873
5.58249048676
3.73208195335
10.4257158339
16.8046395196
20.7804628564
22.3083079195
21.3995422775
17.9950460816
15.8041506805
17.6634162135
19.8738296951
19.3079398101
18.2640641767
18.2806330623
22.7936243179
24.3452279738
19.2580466028
19.0320412031
11.3031045351
7.57971917789
3.71203103209
3.83487027127
11.438282638
6.8954249153
3.27271155013
3.28920795809
3.43690558493
4.43941603965
4.66171398477
11.6531070043
11.8615609093
11.6354059069
9.3339921213
6.3730491961
4.81224951789
7.17800644148
6.64523875583
4.68210392463
4.3249006867
4.30930089089
4.58340741564
5.06807536167
6.13623995161
7.69509967208
6.82973807319
9.98986343868
7.38073112881
11.99772547
9.17665963102
11.8683371636
8.89515847374
8.19141707
2.98861931289
2.1418455144
0
0
0
0
0
0
0
0
0
0
0
0
0
0
0
0
0
0
0
0
0
0
0
0
0.906256643284
2.08845796754
2.36349975349
3.14308545747
10.6722663102
18.8813782278
21.7368053645
22.2955591152
21.275168422
19.006976302
18.8924694829
21.586609231
22.0260029977
21.141397155
20.4958741829
22.3782685157
25.0431952288
26.4742399567
21.766507255
20.566580067
10.7320810968
6.36385376825
4.64536246606
11.2443955572
11.2718326333
4.37910262212
3.64746683396
3.6260623298
4.36239727503
4.97032963034
11.5056550277
12.2887404739
11.9640862058
11.0645555471
7.11507997409
4.78754863295
7.45062941016
7.60075357652
5.46356769965
4.17053276668
4.35287234328
4.7835832153
4.79337777657
5.56356840876
5.83675808231
8.55987383106
7.00131012806
9.36312354692
11.6026900995
11.530600586
7.68878864728
9.96386884653
10.3246700632
3.59631650656
2.56897285966
0
0
0
0
0
0
0
0
0
0
0
0
0
0
0
0
0
0
0
0
0
0
0
0
0
0
0
1.36212794099
2.29523377928
5.33850918737
18.0455836725
22.8558650897
23.2065409169
22.7693224369
21.9875712628
23.1067474968
24.6140250571
23.9188003873
23.1891082085
23.3084513558
25.5139833887
26.0579057583
26.5966656028
23.57227957
21.2930389484
9.56562211735
5.34257201287
5.3740318817
12.0650143367
9.50537971337
3.95637088863
4.09023702087
4.14322958739
6.96105658148
4.62609820189
12.2749442935
12.561616987
11.8698326682
9.04843467338
5.49419937377
4.79895497174
7.69354722703
6.69794750552
4.77090300038
4.16237059686
4.25315845668
5.19532039539
5.61570709636
7.29395552295
9.2085168227
7.61401229265
11.8893694993
7.28255889309
12.2790134329
7.38099948912
12.1228974791
6.55687007254
5.25998196241
2.5494085066
0
0
0
0
0
0
0
0
0
0
0
0
0
0
0
0
0
0
0
0
0
0
0
0
0
0
0
0
0
0.6151481826
0.711192357713
11.5282714169
22.3512663386
24.2252065548
24.6413379269
25.7291624772
27.1528674927
26.9332535579
25.9131312736
25.6539320957
26.5065717248
27.5132028783
27.1802574247
26.4379267201
25.2523587544
23.6941569005
8.32757765023
4.90946834549
6.80202240429
12.0017916044
5.96492122011
5.16791118626
4.48799564805
4.88687853742
9.98920946605
8.19565138338
13.0909495093
12.6654202506
11.7409903318
7.48553858296
4.7901099087
7.96011055797
8.02935568995
6.02662606046
4.47093708263
4.38442998371
4.29807547713
5.22336693294
5.37782421675
7.410197138
11.2275271679
6.7667741229
11.5006067923
12.5097242681
12.3253654393
12.4954204947
8.35164882123
9.52915439767
3.63395285353
0
0
0
0
0
0
0
0
0
0
0
0
0
0
0
0
0
0
0
0
0
0
0
0
0
0
0
0
0
0
0
0.358085722825
0.399195860587
9.81071913097
25.6094826124
28.7608516345
30.3332539449
30.579502834
29.2824748777
28.3703678484
28.5581726966
29.504819999
29.5623836588
29.0465648421
28.5035340164
28.6356172883
28.6790309099
7.41339471205
5.1345188421
11.047536442
11.6441237285
4.80733793261
5.83909095491
4.74659604078
6.39449568711
8.72089473752
12.3372776329
13.6021235291
12.6536505254
11.6548876189
6.56347899792
4.65442866226
8.7418666132
7.75982174367
5.5536525
4.31667687782
4.45532147168
5.24133685996
5.17938468885
5.48079173749
6.7367144402
11.0613507358
12.5381166694
9.36200114321
12.7488974493
7.544207889
12.5251370147
12.2862650234
9.44791215519
0.881664619595
0
0
0
0
0
0
0
0
0
0
0
0
0
0
0
0
0
0
0
0
0
0
0
0
0
0
0
0
0
0
0
0
0
0.609756930843
11.9536395514
29.9852102712
35.7380179088
34.6994864795
32.4515127557
31.647383763
31.9706929267
32.4326485699
32.3526083123
32.2424129029
32.3772679193
32.6794268488
33.2246399507
6.87279936606
5.66858804329
12.4981318997
11.6877378567
8.94684229953
6.88742251149
5.13241868914
8.20717018816
7.26694744252
13.2303201668
13.8979276217
12.6656847607
11.2093322175
6.22726930403
5.58654217887
9.39580490125
7.43268032376
5.21918452931
4.32534088641
4.40496506413
5.63352865253
5.26805046362
8.96978762044
6.64883425709
10.1026090632
12.761283348
7.9616219461
12.9755921331
13.1931647692
9.11380605017
10.0205799518
3.94498327449
0
0
0
0
0
0
0
0
0
0
0
0
0
0
0
0
0
0
0
0
0
0
0
0
0
0
0
0
0
0
0
0
0
0
0
1.60354300644
24.5186945963
36.0905020081
39.3615658205
36.7246696702
36.0285283126
36.2282208876
36.3825175245
36.0793370501
36.3794089972
36.6446657553
36.1119694636
36.1085744005
6.88778790082
6.16042863033
11.9628406969
11.733669015
11.569791163
7.33706314945
5.68047442886
11.7540220127
6.79050773741
14.0732240027
14.1270742628
12.7127579831
10.8113350849
6.13995759613
10.3014121475
10.5666357074
7.18110391042
5.03639584529
4.48944317264
4.63489996629
5.58858112436
5.13173741657
10.9594766048
12.4017495903
8.6256577169
12.8467374409
13.6212871562
12.0260636589
13.2181643769
12.9791748661
11.5593133326
0
0
0
0
0
0
0
0
0
0
0
0
0
0
0
0
0
0
0
0
0
0
0
0
0
0
0
0
0
0
0
0
0
0
0
0
0.0806662196396
19.2008627661
32.834890911
39.9082658324
41.6436072692
40.0571676309
40.3888246878
40.3760291093
40.3932742772
40.7646801211
40.7430719408
40.1222257336
39.9987878442
6.92121176118
6.49972432982
6.63365904664
11.8737193795
11.7611754155
7.35070866013
6.30149157956
12.37681698
6.74826289605
14.8773677003
14.299814975
12.7629374363
10.5509631389
6.02518774511
11.6033194633
10.4871540424
6.90065292098
5.00732076831
4.70163259496
5.13191286222
5.60555233476
5.16742441105
11.7895143176
12.9762422297
8.19791680097
12.9780640839
13.939100887
9.3839178843
12.681673534
12.0558800191
4.79459095582
0
0
0
0
0
0
0
0
0
0
0
0
0
0
0
0
0
0
0
0
0
0
0
0
0
0
0
0
0
0
0
0
0
0
0
0
0
1.72416215769
11.5220734175
40.5234703273
42.8900609924
45.1008035573
43.8851355396
43.121164198
44.6007516104
44.7855738826
44.5983158741
45.0815872885
45.353662604
7.07724619119
6.96086108015
12.4230239618
12.1956889637
11.7714094602
7.20962227653
7.17343550454
12.6607322145
7.27364612747
15.5133917364
14.4197107954
12.7901925091
10.2759446445
6.06615050257
11.6689662657
9.99470825688
6.64356566376
5.05789226316
4.90284417701
5.26890690787
5.72246431713
5.60503245514
10.4264665882
13.496187484
13.9182030386
11.2605346927
13.79495041
14.5070731206
7.65147936965
5.87607997609
0
0
0
0
0
0
0
0
0
0
0
0
0
0
0
0
0.727517092529
1.03554254019
1.298021933
0.857812509038
0.0773449879153
0
0
0
0
0
0
0
0
0
0
0
0
0
0
0
0
0
0
0
5.45719638892
35.4026469207
48.6768821177
48.6399673122
46.2999913135
48.2384193878
49.0978284828
50.1133099909
51.5906640948
51.8620651074
7.12233773751
7.22026896107
13.8183017827
12.3094522236
11.0263493664
7.1503630816
8.18725907902
12.6673214673
12.7560435963
16.1473320568
14.5129996033
12.8275291335
9.89401412735
6.28012555328
11.6966180273
9.45724972335
6.46643611804
5.18310781323
5.01495897672
5.31954456515
5.75764131859
6.19932993926
8.95785468511
13.5855340874
15.1501735836
8.85342671102
13.5123235136
13.8950506913
13.2501272552
8.48003128506
0
0
0
0
0
0
0
0
0
0
0
0
0.322961436976
1.98182559984
1.91563306415
2.56163636993
2.37530655963
2.95290681469
2.43745705412
1.66011692686
1.27112989489
0.734831588265
0.280756046302
0
0
0
0
0
0
0
0
0
0
0
0
0
0
0
0
0
0
0.0174842076384
5.89706127175
41.0066028962
53.0437195165
53.3357804502
53.6600553942
57.5637578026
59.1753568168
59.3504921586
7.13121396764
7.29679415934
16.3181299211
12.2627310913
9.68340713731
7.19667610469
8.87402500205
12.0084764175
14.2478715699
16.8282781201
14.6698291312
12.9017158983
9.54281762216
6.93103055557
11.9462881482
9.09307516302
6.42336053607
5.43676079032
5.17929387673
5.40650636096
5.78371929999
6.19657958469
8.15252129148
13.446967499
15.8542397514
14.9022156819
12.3514158866
13.0846724146
12.2383438288
2.68539184278
0
0
0
0
0
0
0
0
0
0
0
2.79678309898
3.09333000691
3.22938754402
3.04064301817
2.77508928745
3.20933562668
3.59701469811
3.18225949506
3.00277844223
1.83684860019
1.88245828253
2.33184385206
1.98035269586
0.763128309477
0
0
0
0
0
0
0
0
0
0
0
0
0
0
0
0
0
0
0.225283995449
2.23868643453
33.6018762075
59.229353301
60.1870577895
63.9106678906
63.4809663904
7.08817454563
7.25301806682
18.625796042
12.1028794289
8.70812789023
7.34329795502
9.85191926292
9.99687105998
15.2690527032
17.3006656591
14.8377481622
12.9849642449
9.4083544206
9.91746587363
12.2095423487
9.00191056131
6.62660136945
6.01252474641
5.4542769532
5.60255709642
5.89821566894
6.19698186494
7.7349336589
13.2838726586
15.9410552671
16.377387605
8.48174702753
9.45020330386
6.16634649719
0
0
0
0
0
0
0
0
0
0
1.76984196642
3.74924569071
3.80297210072
4.27464336077
3.92693508674
4.86847296883
10.3000861467
14.8005392489
15.694980971
11.1883230499
9.43050124964
8.08761158427
7.17074423481
6.40047845303
5.293955973
2.94367996748
0.523853832914
0
0
0
0
0
0
0
0
0
0
0
0
0
0
0
0
0
0
0
0
3.48056709981
21.8355081271
64.7744337519
62.0330589531
7.14861813932
7.31032605231
18.1723353145
10.2481924887
8.04805096932
7.44720918955
10.8304427625
8.93388352993
16.0828453059
17.799129414
15.0344879401
13.0900737562
9.28751406429
13.0269696623
12.5894555314
9.11029519955
6.96762576693
7.56346311758
5.93456387338
5.98855558437
6.18034487703
6.14060554357
7.62569163295
13.1508787943
15.7636579688
17.4357849408
14.9673806677
13.4159208902
11.4279773876
0
0
0
0
0
0
0
0
0
2.98748985405
3.60491396077
4.06112825616
4.53490668126
5.63468317289
8.90331091386
12.1316834768
15.6940931651
17.7624540957
16.5966239331
15.6319273116
16.4612016201
17.5750376383
20.7909680214
21.0106631695
19.347404794
16.2741940237
9.15716341353
0
0
0
0
0
0
0
0
0
0
0
0
0
0
0
0
0
0
0
0
0
0
10.7096488566
76.9791129299
7.36556105747
7.54557806849
17.4240220882
8.60425813895
7.89872402171
7.50194912439
11.5343798306
8.78566000354
16.6518389108
18.2841234207
15.2418637631
13.2273105019
9.23112074856
13.3929195823
12.8843325719
9.24859330954
7.32708192239
8.23707382617
6.55939116301
6.61862890386
6.81125279296
5.88967211091
7.82467215996
13.1105091279
15.3699005241
17.8068670795
16.1890835589
13.1488599245
6.92414419219
0
0
0
0
0
0
0
0
3.99643420124
4.173286712
4.92736304123
5.00009683357
5.88975761726
8.17300707164
12.5018726551
14.1308505725
13.2573950928
14.2949921814
13.9497793366
18.3283838892
22.4946206627
29.2132106714
31.8828636901
30.1868476491
28.1962530869
27.0999627512
27.6233939259
6.84506210278
0
0
0
0
0
0
0
0
0
0
0
0
0
0
0
0
0
0
0
0
0
1.79979250998
2.38128988001
7.89388920995
8.07144406048
16.4217180657
7.88003434247
8.29701207063
7.67362724811
10.4978954086
9.42016644771
16.8672486087
18.6971968176
15.4754048575
13.4107122046
9.35208684559
13.7840332939
13.2175212096
9.61888335632
7.86948024106
9.01180042057
7.12630922079
7.43996973206
7.92536449219
5.97720623239
8.40087251623
13.1690593616
15.1289671593
17.7818584961
16.1647616093
12.4077086852
0.650446771186
0
0
0
0
0
0
0
4.7480344589
4.25655449145
4.8687804888
5.61209975651
5.90190191406
6.20074567186
12.0450412259
15.4275551929
14.1874799427
13.3601394494
14.3548181528
20.3693858718
27.0952341544
33.0999446255
36.5747592685
34.4703134217
27.4953755105
21.6851663587
9.963597319
0
0
0
0
0
0
0
0
0
0
0
0
0
0
0
0
0
0
0
0
0
0
0
0.133027946473
0.604040816198
8.84463835198
8.82751163674
15.8758748331
8.22302613099
9.5648097094
8.18968292027
9.57599384017
11.282999311
16.1565045631
18.8189431322
15.7759872248
13.6737295029
9.63979323327
14.2147046602
13.5893315187
10.2302134728
8.77689609439
10.0726027351
7.66497185851
8.46994437384
9.52669128849
6.69751750833
8.79690705473
13.3111087744
15.0743969453
17.3447101826
16.2258341642
11.8052312198
0
0
0
0
0
0
0
6.81613016937
4.61802882485
6.14218373192
5.55454986807
5.54026927127
5.55865902229
11.4070212915
17.1624365782
17.2486844984
15.0863145441
16.1229111204
23.693958981
32.2427748167
37.9457755863
37.9406631563
34.2295954948
16.8325093913
7.87243755791
0
0
0
0
0
0
0
0
0
0
0
0
0
0
0
0
0
0
0
0
0
0
0
0
0
0
0
10.395115879
9.71389800382
15.7233177314
10.4376598484
11.9542135362
9.12528951909
9.7892951057
14.0319350974
15.617115342
19.0422407604
16.2383501065
14.0475075033
10.1109083753
14.6689735415
13.965946405
10.9793989777
10.6324258559
11.5522596761
8.25763650106
9.79428513986
11.5397371596
8.14486223458
8.75854241389
13.4448337732
15.1819399981
16.8641502727
16.41355549
11.4745492243
0
0
0
0
0
0
3.23899535623
4.70675276653
4.98769065942
5.60154178643
6.4616464597
5.821636998
10.2116796149
18.0349341549
20.6776849508
19.560704742
19.0890700623
24.3197815484
34.1716359324
39.4990466704
32.1394434398
25.3831719254
6.05738375504
2.07263576294
0
0
0
0
0
0
0
0
0
0
0
0
0
0
0
0
0
0
0
0
0
0
0
0
0
0
0
0
12.1675136495
10.4818603305
15.6777100285
13.8449385432
13.4627690461
10.4198179359
10.0190916692
14.9686117436
12.8977981746
19.1136883768
16.8728318324
14.5338855077
10.7667756741
15.1380568391
14.3277432851
11.6195451634
13.8905854949
13.281496517
8.9948356454
11.4858309032
12.9139310817
9.97310360326
7.38484934404
13.2135243067
15.0958533484
16.3737683478
16.3098497378
11.3525639688
0
0
0
0
0
0
4.99403098127
6.7162327286
6.15014015439
6.32283825192
6.04779748493
9.30253673927
17.9211390988
23.2124573287
24.2779362197
23.9277294017
25.9346160686
32.7145690366
37.0954243729
24.9025878601
0.213017576383
0.948300998011
0
0
0
0
0
0
0
0
0
0
0
0
0
0
0
0
0
0
0
0
0
0
0
0
0
0
0
0
0
0
12.6208593136
11.0232355592
15.480900025
14.3927288137
14.038003317
11.7647138371
10.7807837707
16.1771920221
13.4878445321
19.3180507772
17.5113550491
15.0781792624
11.5839934447
15.6357868054
14.7352077207
12.251530737
14.5758329882
13.9025476957
9.79940727889
13.2699823851
13.1913551945
9.67253672424
9.04921154761
9.08423477016
14.5775701191
15.5344522222
15.7996908236
11.316797211
0
0
0
0
0
0
7.21050455651
7.80626153555
7.11393529135
8.28990535639
8.58655666468
17.2253085707
24.2709542161
27.5701112112
27.8489732325
28.0585845418
30.840773292
32.5492900196
16.6542755555
0
0
0
0
0
0
0
0
0
0
0
0
0
0
0
0
0
0
0
0
0
0
0
0
0
0
0
0
0
0
0
0
0
12.0229505086
11.5339609581
15.3767145184
14.175546063
14.4324220155
12.8581675586
11.4796420766
17.3193026818
15.1878984062
19.5573392816
18.1753100799
15.6477013166
12.5323680744
16.1699635087
15.2117159217
13.0859622587
15.0502160254
14.4673891551
10.8058934042
13.9715710133
10.1911108862
9.84651082387
9.64413949894
10.5945032572
11.6851935894
11.9377522032
14.4814773851
11.4522860757
0
0
0
0
0
0
4.156353343
5.27629750697
7.35038139168
10.4703380907
14.6915809979
23.6589176092
28.8943232586
30.7996570144
29.8873804672
28.5401967946
25.2107339444
3.64236744139
0.0112784354523
0
0
0
0
0
0
0
0
0
0
0
0
0
0
0
0
0
0
0
0
0
0
0
0
0
0
0
0
0
0
0
0
0
11.8650778484
11.9404991486
15.3875790977
11.2830907214
14.4601824732
13.3128496883
11.9213470536
17.4694895798
15.5467640125
19.8550723495
18.9189342723
16.2366789268
13.6343631716
16.7249955276
15.7319437842
14.0698044984
15.4085786272
15.1464600064
11.9179859381
14.9701161708
11.3382087299
12.2626182219
10.9145295609
11.8024614795
14.4561267392
14.9099357331
13.770209795
11.6142407482
0
0
0
0
0
0
10.5948039957
7.86867746364
8.19182822704
13.3612857849
20.5994225799
28.5544048736
32.2565474869
32.5085382203
28.1077338149
18.6181105516
0.735768625297
0
0
0
0
0
0
0
0
0
0
0
0
0
0
0
0
0
0
0
0
0
0
0
0
0
0
0
0
0
0
0
0
0
0
0
12.3092666135
12.4572643018
15.1671161555
11.3827039567
14.3784987787
13.3374561312
12.2118115946
17.1210733912
15.8536818211
19.9848025046
19.7227097308
16.8232190052
14.9121968666
17.267055655
16.2484924952
15.0661733135
15.6845966499
15.9533160206
13.149585146
15.9373512427
13.2359644949
14.8933753422
14.5327895783
11.7827992021
14.5065859749
15.584368733
15.9107409569
11.605530963
0
0
0
0
0
0
8.11009259524
5.46414662309
8.69622958429
15.9301918179
25.4993588661
32.7913170269
34.8999764689
32.1777056873
17.7811638606
0.758107643446
0.342017544061
0
0
0
0
0
0
0
0
0
0
0
0
0
0
0
0
0
0
0
0
0
0
0
0
0
0
0
0
0
0
0
0
0
0
0
12.8953231841
15.4465984202
14.886416355
12.3419037359
14.576736151
13.3620126382
12.4790283404
16.7379870271
16.1957214216
19.6329458695
20.5850450344
17.410516017
16.028991483
17.5007038897
16.7822727631
15.6717612185
14.9014923521
16.7587715562
14.6667598713
16.7750348093
15.8620956775
15.8510705508
15.404516698
14.9931509088
13.0692990254
13.8810086484
16.5247836169
8.49806291169
0
0
0
0
0
0
7.20920958293
5.6856306184
8.92658028145
18.0251778889
29.7100038638
36.4850258557
37.2355210246
26.3851587916
0.898808814216
0.594541676594
0.132671142543
0
0
0
0
0
0
0
0
0
0
0
0
0
0
0
0
0
0
0
0
0
0
0
0
0
0
0
0
0
0
0
0
0
0
0
13.223751832
15.8178230671
15.1910366732
13.13478046
15.0182606727
13.6762828685
12.8104342603
16.4426719384
16.5923722545
18.8895787158
21.3812103442
18.1149506187
16.4983687372
17.6178118953
17.5177921554
16.1533311232
14.1897352353
17.3405906682
16.532767285
17.453090726
16.9345030904
17.0850680815
13.8615253753
14.1567457423
13.2865464848
16.3743556581
17.2830565202
13.7178597798
0
0
0
0
0
0
0
8.10365565803
7.81152171025
19.364042093
33.1967122107
40.0055793746
36.5267084385
3.86753643432
0.726381779526
0.439134112916
0
0
0
0
0
0
0
0
0
0
0
0
0
0
0
0
0
0
0
0
0
0
0
0
0
0
0
0
0
0
0
0
0
0
0
0
13.4942684261
15.9119737766
15.5066265986
13.5342528235
15.5099097669
14.2751705733
13.2372845191
16.3427533553
17.1165032058
17.5942928771
21.8477516393
19.0093331746
16.8055196795
16.7891377149
18.3925446086
16.8700390122
14.3686090494
17.8513093032
17.2205559501
17.9019039141
17.7307642976
17.8370514493
17.6053668005
17.6376706731
16.9589514246
15.707304361
17.8657150417
14.6945443676
2.23667800173
0
0
0
0
0
0
1.78389462811
7.31742598489
18.7798423261
36.134926016
43.103643847
31.0251074164
0.427938006306
0.459245345253
0.270549720604
0
0
0
0
0
0
0
0
0
0
0
0
0
0
0
0
0
0
0
0
0
0
0
0
0
0
0
0
0
0
0
0
0
0
0
0
13.8305429895
15.9486792689
15.809634658
13.7621439976
15.9722245813
15.1401600877
13.7051033412
16.4157821219
17.8458027187
15.754658109
21.9622793883
20.0245160442
17.3837838455
15.0246972193
19.1823765708
17.6846643652
15.212006209
18.52418331
17.6465755381
17.7156417264
18.6851377444
16.0398148406
18.6979298971
19.0592179514
18.5419395816
18.4133894015
18.6361506543
16.7122992051
9.86945987671
0
0
0
0
0
0
0
3.84193316638
14.3858898787
40.3053280745
43.9900047521
12.5325638288
0
0.103127084263
0
0
0
0
0
0
0
0
0
0
0
0
0
0
0
0
0
0
0
0
0
0
0
0
0
0
0
0
0
0
0
0
0
0
0
0
0
14.1907788888
15.9651680809
15.3598970474
13.9760158235
16.3725213112
16.0043884408
14.1089158991
15.6059925002
18.9011323632
16.8449250911
21.7589357843
21.0314082486
18.2109053828
15.5929874691
19.8289305108
18.4597116611
16.588362076
19.3630070563
18.3820449695
16.2836440336
19.7331258458
17.9252248744
19.7387207276
19.6318510235
19.4772938882
19.6733011431
19.8832714121
18.7029357966
16.7132059407
3.7362484261
0
0
0
0
0
0
0
0.473748726623
39.7700117062
38.0234053415
2.53393259923
0
0
0
0
0
0
0
0
0
0
0
0
0
0
0
0
0
0
0
0
0
0
0
0
0
0
0
0
0
0
0
0
0
0
0
0
0
0
0
14.4839457133
15.9403951822
14.6780881851
14.5077740004
16.7754741026
16.3441412773
14.5527310101
14.5623007957
19.17273039
17.9985304038
20.8392832964
22.0137386821
19.1197396376
17.1645952195
20.2875950532
19.1985566644
18.3232181702
19.8728627643
19.4650746565
17.5748863063
20.550424854
19.708439508
20.485232093
19.5598647949
21.1334641429
20.787666409
21.4019129469
21.5734437323
21.2001726231
17.6271472306
0.44959861147
0
0
0
0
0
0
0
13.037570866
30.1984509731
4.83909219088
0
0
0
0
0
0
0
0
0
0
0
0
0
0
0
0
0
0
0
0
0
0
0
0
0
0
0
0
0
0
0
0
0
0
0
0
0
0
0
14.7647879829
14.9980587918
15.2910371044
16.3798964191
17.2361437517
16.6789636613
15.2034861802
14.7184672809
18.5643759228
18.7585265849
19.8461233093
22.8430398948
20.0925993234
18.5286482167
20.4001027798
20.0939462869
18.8668063302
20.0257410355
20.6629838722
19.5500685833
21.1454077101
20.8168755466
21.0148653508
21.6242830557
22.0968244474
19.97892836
22.1251854433
22.5499931014
22.7834426598
23.4502764146
18.8372357661
0.697284361755
0
0
0
0
0
0
1.62536068824
0
0
0
0
0
0
0
0
0
0
0
0
0
0
0
0
0
0
0
0
0
0
0
0
0
0
0
0
0
0
0
0
0
0
0
0
0
0
0
0
0
15.0566193789
15.0427787284
18.0783685616
17.8232404626
17.5821270829
16.9712561237
16.0125804966
15.2826214758
18.2679176066
19.6732209799
18.146354378
22.9554231529
21.2560731253
19.0017670535
19.447482378
21.2191638497
19.4302052124
18.1319763135
21.5860130029
20.4131384096
21.4516548187
22.2162519863
19.695727307
23.125825158
22.98495071
23.3728065073
23.6879572977
23.6113198597
24.238588911
24.5707251256
24.3120455101
21.155347739
14.6892751664
0
0
0
0
0
0
0
0
0
0
0
0
0
0
0
0
0
0
0
0
0
0
0
0
0
0
0
0
0
0
0
0
0
0
0
0
0
0
0
0
0
0
0
0
0
0
0.0530957215173
15.2651971508
15.5427721399
16.0048086674
17.8386694292
17.6551056427
17.2162813794
16.8674792095
15.7514555739
18.1568091911
20.3149035594
18.6469852041
22.0863415678
22.663935265
19.8789799687
17.9014355767
21.9443774136
20.5233675376
18.8963435785
22.0025904507
21.2538939838
19.8436250322
23.7570103433
22.1205215296
23.552124812
23.1992197143
24.9244646385
24.7310273197
24.7699495151
25.4445189773
26.0109180086
25.0175661728
27.0343290413
24.3301546492
20.864136537
18.8805406861
18.3647058178
17.600541288
13.8688175683
0
0
0
0
0
0
0
0
0
0
0
0
0
0
0
0
0
0
0
0
0
0
0
0
0
0
0
0
0
0
0
0
0
0
0
0
0
0
0
0
0
0.133027946473
15.4174280318
15.8111993504
15.7628600308
17.7087285021
18.0793987094
17.5927096011
17.3879100044
16.0684054363
17.129273342
20.3903163568
19.4657256416
20.6792835225
23.9389837309
21.2877494007
19.6217665472
22.130777438
21.8595794718
20.4001082067
22.1258494483
22.7468697618
21.589527442
24.1960032189
23.6308510754
24.0852254826
25.2422267591
25.5630012768
26.0693869915
26.7491843391
26.7588167902
27.766375688
26.5510971895
28.5850472183
28.3179469779
28.9640622592
25.9270209271
25.4926252483
25.4247102571
28.0670944833
26.7507521177
0
0
0
0
0
0
0
0
0
0
0
0
0
0
0
0
0
0
0
0
0
0
0
0
0
0
0
0
0
0
0
0
0
0
0
0
0
0
0
0.133027946473
0.133027946473
15.6437346712
16.0138061148
17.0760642391
18.8931893218
18.9375100114
18.0768303904
17.6607712585
16.409265729
16.4749472072
19.7109180811
20.4876253788
18.480352897
23.3415147451
22.9643130816
20.5007940064
20.7884898875
23.1602750623
21.3523102948
20.4677605766
23.5905058158
22.7097872964
24.3976491171
25.3564662011
23.1988980897
26.1076637122
24.9499627198
28.1057867598
27.5302853027
27.3213353263
29.0856164058
29.5299166606
29.7812957731
29.4146279455
29.8102891486
29.7503255455
28.7288364008
29.6218051062
32.3667753984
31.1748340111
0
0
0
0
0
0
0
0
0
0
0
0
0
0
0
0
0
0
0
0
0
0
0
0
0
0
0
0
0
0
0
0
0
0
0
0
0
0
0.0649259332688
0.133027946473
0.133027946473
15.9447248572
16.1623223609
18.4450339097
20.3268078703
19.2230786299
18.4171920724
17.9268703315
16.8992839716
16.4348155632
19.1338586965
21.0064694332
19.9837395713
21.5756074681
24.8735582699
21.9664726376
20.4137293571
23.8456503442
22.9294115556
21.5992700632
24.136781017
24.1256546546
23.4298753735
26.494479748
25.4083286884
26.8405673217
27.5361936979
28.2655229983
28.0261693274
28.9464314784
29.2075822965
29.7773795575
30.0232725717
30.0658755162
30.9658774501
31.4583528126
31.8531291617
32.3004317008
33.9810269801
34.1630258162
0
0
0
0
0
0
0
0
0
0
0
0
0
0
0
0
0
0
0
0
0
0
0
0
0
0
0
0
0
0
0
0
0
0
0
0
0
0.0808288713998
0.133027946473
2.13279740201
2.25049702179
16.3453928786
16.4463331191