/*--------------------------------*- C++ -*----------------------------------*\
| =========                 |                                                 |
| \\      /  F ield         | OpenFOAM: The Open Source CFD Toolbox           |
|  \\    /   O peration     | Version:  v1806                                 |
|   \\  /    A nd           | Web:      www.OpenFOAM.com                      |
|    \\/     M anipulation  |                                                 |
\*---------------------------------------------------------------------------*/
FoamFile
{
    version     2.0;
    format      ascii;
    class       surfaceScalarField;
    location    "43";
    object      phia;
}
// * * * * * * * * * * * * * * * * * * * * * * * * * * * * * * * * * * * * * //

dimensions      [0 3 -1 0 0 0 0];
oriented        oriented;


internalField   nonuniform List<scalar> 
12640
(
8.6600830157e-07
-5.34627766516e-07
1.68313026861e-06
-5.36346214723e-07
2.47363273196e-06
-5.62260046613e-07
3.20136210109e-06
-5.18066239082e-07
3.69875924209e-06
-2.85359937628e-07
3.83727606573e-06
8.03685367504e-08
3.71848072239e-06
3.15012890222e-07
3.83323796917e-06
6.41158462436e-08
4.28890700366e-06
-2.74752165979e-07
4.68676294051e-06
-2.30859133425e-07
5.05018284521e-06
-2.34774951504e-07
5.66133137293e-06
-4.88760532948e-07
6.2316637681e-06
-4.54193707394e-07
6.55618587125e-06
-2.14555295532e-07
6.6915016262e-06
-3.27361424822e-08
6.96461107607e-06
-1.63914282799e-07
7.31301253184e-06
-2.36901543172e-07
7.46071653951e-06
-3.32299298085e-08
7.31039999437e-06
2.47556734884e-07
6.85658312222e-06
5.39223552456e-07
6.42355699427e-06
5.13165711235e-07
6.18125519245e-06
3.28144910927e-07
6.06961461294e-06
1.94033044925e-07
6.11889861416e-06
2.95354475654e-08
6.21370936709e-06
-2.11019387924e-08
6.23097103033e-06
6.21590338938e-08
6.32027960952e-06
-2.81227149877e-09
6.4034127832e-06
1.3832405199e-08
6.361117607e-06
1.3870138799e-07
6.15887495906e-06
2.99806944955e-07
5.97641697705e-06
2.70529599347e-07
5.81111231849e-06
2.47765217539e-07
5.3913760378e-06
5.25898372481e-07
4.82369695199e-06
6.74736244995e-07
4.1905288234e-06
7.37152714066e-07
3.40337490343e-06
9.37888285265e-07
2.58539041315e-06
9.69307322303e-07
1.89592562665e-06
7.98677529612e-07
1.27455489773e-06
7.21016199901e-07
6.14405163088e-07
7.46445191705e-07
1.33703959752e-07
5.52279633786e-07
-2.69788302706e-09
2.04706424664e-07
-9.63149108004e-08
1.69608259676e-07
-6.16111707038e-09
-3.23595928754e-09
3.46057909274e-07
-2.55572224874e-07
7.0596317404e-07
-2.58513782025e-07
9.43318664247e-07
-1.3540971798e-07
9.45496708262e-07
7.70485733159e-08
7.12410740432e-07
3.04356637589e-07
2.86958778161e-07
4.89433608919e-07
-1.94364618063e-07
5.6480909333e-07
-7.07859572844e-07
6.46515548857e-07
-9.48029680585e-07
4.17839443198e-07
-1.37331304896e-06
6.22033045746e-07
-1.50604748368e-06
2.48312958795e-07
-1.03527283559e-06
-4.19070769825e-07
-6.80090857827e-07
-2.4426103437e-07
-7.16398899973e-07
1.85889493277e-07
-8.26230192721e-07
2.8536427691e-07
-1.03244213829e-06
4.10539567378e-07
-1.64321751419e-06
7.9700205869e-07
-2.1335027324e-06
6.08608124499e-07
-2.28811126624e-06
2.92841736237e-07
-2.35410266471e-06
1.53971023043e-07
-2.33114974264e-06
2.67922708662e-08
-2.29778768186e-06
4.23209875949e-10
-2.24362876455e-06
-2.59745750251e-08
-2.17711681828e-06
-3.60963507469e-08
-2.09737853928e-06
-4.43860698356e-08
-1.99495339885e-06
-6.03135756684e-08
-1.87107553717e-06
-7.79561292355e-08
-1.72787236046e-06
-9.69021581289e-08
-1.55708886896e-06
-1.21976200716e-07
-1.33627018276e-06
-1.68999417437e-07
-1.11823117225e-06
-1.66032885796e-07
-9.08431535175e-07
-1.61693344623e-07
-7.44321714491e-07
-1.14174482895e-07
-5.42307856226e-07
-1.5625675907e-07
-2.96159121529e-07
-1.36088086063e-07
-2.39618979472e-07
4.15538459586e-07
-7.98673295249e-07
9.20795819964e-07
-8.54814756333e-07
1.3764651582e-06
-8.71043712005e-07
1.89927710325e-06
-9.09129619156e-07
2.82597624609e-06
-1.04713868328e-06
3.80307124762e-06
-7.02038040328e-07
4.42581887244e-06
-8.98398515794e-08
4.79198577783e-06
-8.54455515064e-08
5.10961335806e-06
-3.90220941846e-07
5.53831874678e-06
-4.85519569497e-07
5.98752933706e-06
-5.30199971015e-07
6.25069468509e-06
-6.21550367703e-07
6.46623742958e-06
-5.45403109753e-07
6.73817868009e-06
-3.65454162629e-07
7.0176951272e-06
-1.83066184549e-07
7.25443831901e-06
-2.7705337185e-07
7.26788885949e-06
-1.35755105183e-07
6.63603916383e-06
6.83455343274e-07
6.00367617134e-06
9.46090340134e-07
5.68652595181e-06
9.18432145848e-07
5.50959801507e-06
7.59608815901e-07
5.73184380844e-06
1.78834952056e-07
6.15780193162e-06
-1.5028868525e-07
6.15807661991e-06
1.04410432741e-07
6.16671818098e-06
4.73662413222e-08
6.52568367981e-06
-2.15932357369e-07
6.7059454149e-06
-8.36067862129e-08
6.61924913756e-06
1.97637681963e-07
6.41735993932e-06
4.45177966497e-07
6.14039353184e-06
6.72556244547e-07
5.65179892407e-06
8.50126969015e-07
5.14424687768e-06
8.52674925567e-07
4.57745520231e-06
1.18069803466e-06
3.82458635456e-06
1.52555400821e-06
3.4331282974e-06
1.2440672577e-06
2.84248366369e-06
1.64489775301e-06
2.0386036872e-06
1.88525305706e-06
1.55247004174e-06
1.36614106682e-06
1.08936405783e-06
1.23193994536e-06
4.72729870182e-07
1.42187055519e-06
1.41892295568e-07
9.52964672564e-07
2.14575168916e-07
2.14355073124e-07
2.54189885301e-07
2.45731096952e-07
3.17482064973e-07
9.84668117715e-08
5.81394740168e-07
-3.58159480708e-07
8.33841296258e-07
-3.40134419609e-07
1.05176629674e-06
-1.88885541621e-07
1.16992594816e-06
1.34694132592e-07
1.05758182101e-06
5.93413213904e-07
6.1022407931e-07
1.1423399486e-06
-2.70220456159e-09
1.41959560382e-06
-2.70045525819e-07
1.11577644312e-06
-6.46874830079e-07
9.43741073643e-07
-1.38454596206e-06
1.4954566277e-06
-2.24147240682e-06
1.18721900066e-06
-3.9713257047e-06
1.45212267439e-06
-7.02412993847e-06
3.1763792038e-06
-8.6105821749e-06
2.2635210301e-06
-8.52797994665e-06
7.38574803075e-07
-7.07618547575e-06
-4.98252582618e-07
-4.45051054273e-06
-1.41400246225e-06
-2.78185873155e-06
-8.63242066189e-07
-2.53293484638e-06
2.35185172117e-07
-2.45217115513e-06
1.68083998437e-07
-2.31711731417e-06
-5.53398073325e-08
-2.18013824518e-06
-1.04538884114e-07
-2.12617251837e-06
-5.11812745536e-08
-2.10964570065e-06
-2.27493348301e-08
-2.06041688982e-06
-5.77288020069e-08
-1.96521760348e-06
-1.15726796596e-07
-1.82488309592e-06
-1.74951887941e-07
-1.656343749e-06
-2.21616793992e-07
-1.50217151343e-06
-2.2900402777e-07
-1.37763141306e-06
-2.41545187319e-07
-1.22923878005e-06
-2.5947376897e-07
-1.07070212442e-06
-2.64910506564e-07
-8.70760059107e-07
-2.53972360769e-07
-6.52096822165e-07
-2.96550044629e-07
-3.45746798831e-07
-3.71244391658e-07
-4.882264815e-07
5.35487396148e-07
-1.1481241614e-06
8.03613855766e-07
-9.67402350114e-07
1.54244943504e-06
-1.44664385624e-06
2.57583108313e-06
-1.75521196804e-06
3.50021677611e-06
-1.78027652943e-06
3.94318498007e-06
-9.9045731247e-07
4.14261188591e-06
-1.31873725735e-07
4.51027258545e-06
-2.69684877253e-07
4.9745820934e-06
-6.6740595067e-07
5.48119131037e-06
-8.24847559526e-07
5.93815391422e-06
-8.38022915541e-07
6.26018510506e-06
-7.99710173404e-07
6.49244341515e-06
-6.34995190112e-07
6.69147997464e-06
-4.26101048562e-07
6.59432217394e-06
4.04202780538e-08
5.45975588396e-06
9.57972577284e-07
4.14907193305e-06
1.22580961844e-06
3.74058432489e-06
1.13318818026e-06
3.73350054682e-06
9.95708863547e-07
4.26794150366e-06
4.36796294603e-07
5.24929816422e-06
-1.51054361684e-07
5.64221414726e-06
-1.30486282164e-07
5.68024465693e-06
-1.13868287962e-07
6.19749881527e-06
-3.30389316357e-07
6.68959956385e-06
-3.59259125831e-07
6.75861081226e-06
-1.89835233575e-07
6.61828141258e-06
1.49303252813e-07
6.41488214759e-06
5.02393698671e-07
6.08449740004e-06
8.71156172926e-07
5.72931316201e-06
1.12012360846e-06
5.29418619042e-06
1.38541529625e-06
4.64478377515e-06
1.57672954629e-06
4.37086005354e-06
1.55483015444e-06
3.59776061329e-06
2.40496949054e-06
2.5786264662e-06
2.33915545317e-06
2.35334966287e-06
1.95983980397e-06
1.82458366117e-06
2.48023268681e-06
1.10854418538e-06
2.1047824062e-06
8.40703191954e-07
1.53891419649e-06
1.65166650429e-06
6.90523745566e-07
8.19797897689e-06
-5.35347404142e-06
2.46373370893e-05
-1.58764718123e-05
4.53819370644e-05
-2.00059194396e-05
6.1040927039e-05
-1.50094856707e-05
6.81725654867e-05
-6.95928363713e-06
6.96571248553e-05
-1.31236527377e-06
6.62861198653e-05
3.70119484689e-06
5.88959349919e-05
8.04986293296e-06
4.84413191628e-05
1.16070999491e-05
3.60041859023e-05
1.4213631398e-05
2.27596688202e-05
1.53180073769e-05
1.13214039757e-05
1.30461604439e-05
3.45064496799e-06
9.1022178054e-06
-4.894884386e-07
5.64276151641e-06
-3.13144238462e-06
4.04167539842e-06
-6.59032913023e-06
5.23194548961e-06
-8.29272174896e-06
5.34417078577e-06
-8.51510487952e-06
2.95837589992e-06
-7.97031891325e-06
6.48641276813e-07
-7.11289537587e-06
-9.11055299073e-07
-6.39009276671e-06
-1.75186992121e-06
-5.07144547466e-06
-1.83776869728e-06
-3.26586380294e-06
-1.31882070738e-06
-2.37643391507e-06
-6.36480870648e-07
-2.1307111515e-06
-2.50792501886e-07
-2.11625925128e-06
-8.45187448376e-08
-2.08725089191e-06
-5.18995930326e-08
-2.01744822644e-06
-6.4061030657e-08
-1.92785357884e-06
-1.16213452381e-07
-1.81605386397e-06
-1.9236667018e-07
-1.70874916648e-06
-2.44157593582e-07
-1.6381984629e-06
-2.49285384614e-07
-1.56766280884e-06
-2.51338120001e-07
-1.44576930107e-06
-3.10195363405e-07
-1.26290900845e-06
-3.86339691507e-07
-1.05823858155e-06
-4.09923256575e-07
-8.61308899999e-07
-3.93567815854e-07
-6.71409620762e-07
-4.35967325419e-07
-2.70179176276e-07
-6.35609770538e-07
-7.44128472029e-07
3.68356851886e-07
-1.38823602513e-06
4.98182999708e-07
-9.90705157528e-07
1.52863359963e-06
-2.29193640715e-06
2.24243583786e-06
-2.27189318104e-06
1.90446374515e-06
-1.31828504166e-06
1.3316360163e-06
-3.72294390763e-07
1.91296175549e-06
-6.43485009498e-07
3.31053436021e-06
-1.52655318251e-06
4.492518031e-06
-1.68091979944e-06
5.23843506467e-06
-1.41070720468e-06
5.84424396212e-06
-1.28430483399e-06
6.24106937548e-06
-1.03967975732e-06
6.17972421846e-06
-4.31207503875e-07
5.32067612099e-06
5.47235908829e-07
4.18925550055e-06
1.24599030576e-06
3.75826799656e-06
1.43590938076e-06
3.70791376668e-06
1.31582958953e-06
4.02650453062e-06
8.59083102846e-07
4.98273793143e-06
9.95523928623e-08
5.75152298479e-06
-2.53367832123e-07
5.87847025625e-06
-1.96144884336e-07
6.13628457855e-06
-3.03849560034e-07
6.56634894184e-06
-4.52285622339e-07
6.7516401931e-06
-4.23604307881e-07
6.72963765697e-06
-2.38997944247e-07
6.55199376056e-06
7.74401147449e-08
6.41064376417e-06
3.88482396597e-07
6.16396418796e-06
8.39216067113e-07
5.90759296689e-06
1.21774684841e-06
5.51782930833e-06
1.6058115114e-06
5.09320855022e-06
1.88846091296e-06
4.71710148971e-06
2.05234770725e-06
3.85175880572e-06
2.498914821e-06
3.50573901053e-06
2.83369644239e-06
2.93114351399e-06
2.99724314825e-06
1.97037973274e-06
2.95646340976e-06
1.78965506764e-06
2.68805709839e-06
2.64805992911e-06
1.29602232481e-06
8.92193373033e-06
-4.63873953605e-06
3.05458947616e-05
-2.06786904774e-05
6.11454154116e-05
-3.54969693664e-05
7.8312954498e-05
-3.26054395335e-05
8.7675525244e-05
-2.89596723489e-05
9.37424834565e-05
-2.06964532451e-05
9.68218124215e-05
-9.66772250496e-06
9.56313576805e-05
2.47372834828e-07
9.0153872574e-05
9.55576982668e-06
8.11094442591e-05
1.74823315846e-05
6.95998914357e-05
2.35182992534e-05
5.68358030461e-05
2.73899575713e-05
4.37088212893e-05
2.88561379563e-05
2.95314315594e-05
2.76250808406e-05
1.51490341152e-05
2.3901138576e-05
2.20256609518e-06
1.90584576667e-05
-7.17625842643e-06
1.39734042651e-05
-1.00434050878e-05
8.70117000929e-06
-7.9367557486e-06
3.72956297612e-06
-5.77142024689e-06
1.17241122222e-06
-4.55894467786e-06
-2.48389665327e-07
-4.12233596539e-06
-1.07353948442e-06
-3.9603043513e-06
-1.63741580292e-06
-3.65176738607e-06
-1.8789487597e-06
-2.98425947665e-06
-1.81609580612e-06
-2.3687009345e-06
-1.14207285481e-06
-2.13765629088e-06
-4.22213433397e-07
-2.00905477516e-06
-1.79174342424e-07
-1.94316362224e-06
-9.18192978343e-08
-1.89922559799e-06
-8.38293482921e-08
-1.85465497433e-06
-1.35275176484e-07
-1.80342924998e-06
-2.14013006555e-07
-1.74604080017e-06
-2.64432785878e-07
-1.66204094701e-06
-2.90224308217e-07
-1.50619483612e-06
-3.61229046736e-07
-1.31216333347e-06
-4.57252686287e-07
-1.12307358893e-06
-5.24728643731e-07
-9.03227258336e-07
-5.76971584862e-07
-6.54231410344e-07
-5.92008822792e-07
-4.37431168252e-07
-5.90181716285e-07
-2.28528045148e-07
-8.32726255838e-07
-9.14297023414e-07
8.9952992615e-08
-1.39215812873e-06
4.64974534519e-07
-1.27340623606e-06
1.3631881376e-06
-3.01057660474e-06
1.5934945121e-06
-2.35417585109e-06
1.28748840831e-06
-9.4305236938e-07
1.46356331017e-06
-5.03537670424e-07
2.4408059524e-06
-1.53096237082e-06
3.59882511309e-06
-2.53575492313e-06
4.34409372909e-06
-2.26985323631e-06
4.95743754515e-06
-1.86422580942e-06
5.39245216744e-06
-1.55667115149e-06
5.17927273134e-06
-6.99070382972e-07
4.35717861518e-06
4.79975836492e-07
3.91997767636e-06
1.04625450905e-06
3.9683566e-06
1.24413789489e-06
4.24590711863e-06
1.20359624272e-06
4.84839078826e-06
7.68730698176e-07
5.75950593653e-06
1.97175605906e-08
6.05873240619e-06
-1.19135986968e-07
5.82001158124e-06
6.07030027921e-08
6.03072773767e-06
-3.20833620699e-07
6.44153856146e-06
-6.19981802911e-07
6.66624224155e-06
-5.78617598716e-07
6.6626255544e-06
-3.18021213168e-07
6.53135517986e-06
-1.26511306574e-08
6.49611957918e-06
2.12792001979e-07
6.19656125164e-06
7.70806780723e-07
5.95823964771e-06
1.1654965513e-06
5.65511002046e-06
1.61306290442e-06
5.3066656005e-06
2.03640871113e-06
4.95507171897e-06
2.3288732399e-06
4.50122513388e-06
2.58239535505e-06
4.62244533879e-06
2.45423715526e-06
3.88088146403e-06
3.64795717872e-06
3.15025721598e-06
3.74904240915e-06
2.25218633491e-06
3.88177601331e-06
2.99553180795e-06
1.98900685114e-06
1.69407190012e-05
-1.25213632634e-05
4.78387434446e-05
-3.52621114695e-05
7.59619842708e-05
-4.84307207667e-05
8.93767181827e-05
-4.85452059136e-05
9.75643058599e-05
-4.04473634887e-05
0.000100304243356
-3.13833891191e-05
9.90909811568e-05
-1.91887981349e-05
9.54541335056e-05
-5.74807065908e-06
8.92740267117e-05
6.70834943294e-06
8.14704350896e-05
1.7648289061e-05
7.30775940369e-05
2.61751373838e-05
6.48238238543e-05
3.20702368218e-05
5.68500565142e-05
3.56520090987e-05
4.89303974335e-05
3.70512980554e-05
4.0323677632e-05
3.6502005241e-05
3.04007207126e-05
3.4111786311e-05
1.97632774854e-05
3.0018066971e-05
9.86501923586e-06
2.42633986988e-05
2.2918653261e-06
1.67055230444e-05
-2.09614627936e-06
8.52391992127e-06
-3.97907078496e-06
3.40371060938e-06
-4.22620385636e-06
3.09355682636e-07
-3.79994975133e-06
-1.23227835071e-06
-3.39548500688e-06
-1.8136468663e-06
-3.21079261234e-06
-1.8817317415e-06
-2.98776424525e-06
-1.86243594974e-06
-2.27363968779e-06
-1.7327537343e-06
-2.13977237499e-06
-4.97311172905e-07
-2.00972780743e-06
-2.70312224147e-07
-1.89332229334e-06
-1.84503241688e-07
-1.81475654069e-06
-1.44300337537e-07
-1.76949454347e-06
-1.61293220561e-07
-1.74159097589e-06
-2.15812292186e-07
-1.68679992451e-06
-2.85262808895e-07
-1.5536879662e-06
-3.85209294068e-07
-1.37977345806e-06
-4.97093599703e-07
-1.20770254041e-06
-5.88310143588e-07
-1.01366113043e-06
-6.7214707435e-07
-7.82841477581e-07
-7.58462961506e-07
-5.91202157933e-07
-7.4650154496e-07
-4.09445275352e-07
-7.57112827636e-07
-1.61428925445e-07
-9.84747856933e-07
-1.07917008007e-06
6.37194606847e-08
-1.41153796143e-06
6.08278163806e-07
-1.73015359441e-06
1.05394360141e-06
-3.30764337972e-06
1.11102723467e-06
-2.30484182308e-06
1.04060677524e-06
-8.28875602459e-07
1.78009799873e-06
-1.18042979146e-06
3.03808448913e-06
-2.66593735114e-06
3.71220352973e-06
-3.06827101214e-06
4.15531871525e-06
-2.56235120229e-06
4.33437030842e-06
-1.88900397129e-06
3.95063729008e-06
-1.04531382908e-06
3.320975902e-06
-2.91587708651e-10
3.22543711819e-06
6.24338534303e-07
3.47986316872e-06
8.32570952094e-07
3.89702819763e-06
8.69333554298e-07
4.66908644701e-06
4.8676556671e-07
5.72175469684e-06
-2.06619515127e-07
5.92187668685e-06
-9.84774712937e-08
5.54716190724e-06
3.25608393999e-07
5.86288097988e-06
-1.70979064868e-07
6.33532567466e-06
-6.95955759919e-07
6.50759269274e-06
-6.87848149588e-07
6.52578709676e-06
-4.93628194963e-07
6.59112962794e-06
-2.8482924715e-07
6.60786627745e-06
7.47830047116e-08
6.10713847454e-06
7.95896108615e-07
5.87093940731e-06
1.09015361235e-06
5.59475619784e-06
1.52506348537e-06
5.29576687314e-06
1.98579994702e-06
4.8980479554e-06
2.51155684989e-06
4.41214542548e-06
2.88545612899e-06
4.09013592611e-06
2.9647396149e-06
3.52610143469e-06
3.07444329487e-06
3.83971612939e-06
3.34586814241e-06
3.29037638965e-06
4.3143675955e-06
5.78995394195e-06
1.41725427621e-06
2.81103894286e-05
-2.01881916147e-05
6.38019165653e-05
-4.78739582591e-05
8.46106951655e-05
-5.57330684653e-05
9.59480658606e-05
-5.94433552661e-05
0.000100476659131
-5.27697297969e-05
0.000102220724716
-4.19122391734e-05
0.000100239096842
-2.91464635482e-05
9.54240254956e-05
-1.41369982627e-05
8.89861097207e-05
9.16217390984e-07
8.16791079781e-05
1.42402897242e-05
7.46186704333e-05
2.49362722922e-05
6.85855651747e-05
3.24413723691e-05
6.38357591486e-05
3.70537657936e-05
5.9919860058e-05
3.97895360754e-05
5.63499711092e-05
4.08288515093e-05
5.25194263196e-05
4.0534665466e-05
4.77359136604e-05
3.91050478679e-05
4.14356382206e-05
3.65521572111e-05
3.33348561519e-05
3.26207722885e-05
2.34706739618e-05
2.68439402363e-05
1.2748687496e-05
1.95125602527e-05
3.92516477227e-06
1.25415346263e-05
-1.31338444497e-06
5.90349697472e-06
-3.97216230464e-06
1.71432293577e-06
-3.51035598557e-06
-2.06562380275e-06
-2.847461651e-06
-2.36363990846e-06
-2.55722160037e-06
-2.00958264754e-06
-2.22797635746e-06
-1.8981858105e-06
-1.91757003478e-06
-7.23195513672e-07
-1.84630863693e-06
-3.02529883939e-07
-1.77966136394e-06
-2.28915507221e-07
-1.72805784141e-06
-1.81402089213e-07
-1.70876542214e-06
-1.66618111628e-07
-1.68642638216e-06
-2.18991575647e-07
-1.58638159871e-06
-3.58276664302e-07
-1.44014334785e-06
-5.01664040112e-07
-1.29320753972e-06
-6.11520350056e-07
-1.13441828296e-06
-7.10100038264e-07
-9.45205296375e-07
-8.19908373188e-07
-7.55321830029e-07
-9.11642029521e-07
-5.69961786735e-07
-9.00098842865e-07
-3.68155490157e-07
-9.01815500089e-07
-1.92616484742e-07
-1.17327263342e-06
-1.22156787886e-06
2.17850291281e-07
-1.57727215453e-06
1.00954297595e-06
-2.4351929402e-06
1.42753727854e-06
-3.58481933464e-06
1.23062939787e-06
-2.01454350919e-06
1.34351835079e-06
-8.94453921178e-07
2.46436084549e-06
-2.20974183539e-06
3.32427760245e-06
-3.39510096787e-06
3.68750320091e-06
-3.28819841782e-06
3.67656018008e-06
-2.41866800329e-06
3.75967334639e-06
-1.84639396696e-06
3.511829388e-06
-7.05356235368e-07
3.1796264856e-06
3.7970123118e-07
3.3508234045e-06
4.9456978228e-07
3.65166825588e-06
5.68445830991e-07
4.27522902897e-06
2.94675651823e-07
5.32867436421e-06
-4.84206689857e-07
5.56686853976e-06
-3.60348063533e-07
5.19829395128e-06
3.34929631099e-07
5.56434214368e-06
3.56724219924e-08
6.11461618823e-06
-6.22403838172e-07
6.44408476364e-06
-9.18049046817e-07
6.55838829186e-06
-6.96133520511e-07
6.53316216496e-06
-3.65295455111e-07
6.28107046809e-06
7.02045978873e-08
5.80667991063e-06
6.3811681558e-07
5.69479084156e-06
9.80382118269e-07
5.1743261551e-06
1.68700263609e-06
5.10617633576e-06
1.65357757802e-06
4.80998084537e-06
2.35177717191e-06
4.57743455998e-06
2.7970231208e-06
3.98225470659e-06
3.5423563587e-06
3.92478296966e-06
3.08400257493e-06
3.58901463083e-06
3.42282259011e-06
3.17338586278e-06
3.77896228179e-06
6.3148804875e-06
1.20455642793e-06
3.19497370222e-05
-2.40870737407e-05
6.89255681367e-05
-5.68589064707e-05
8.7865527289e-05
-6.64987250065e-05
9.80812440109e-05
-6.56470588966e-05
0.000101666676854
-6.27531157597e-05
0.000101832099718
-5.26837801206e-05
9.97661124788e-05
-3.96174953482e-05
9.51639090732e-05
-2.4333425153e-05
8.91379605733e-05
-7.91551968147e-06
8.28879931079e-05
7.35397611026e-06
7.73680013348e-05
1.9942126189e-05
7.32806019809e-05
2.92074202797e-05
7.07309807515e-05
3.51784211032e-05
6.93710632107e-05
3.85989275148e-05
6.86068128294e-05
4.07251940408e-05
6.79648622287e-05
4.16319040795e-05
6.69166579856e-05
4.17383056872e-05
6.48841060689e-05
4.12962559246e-05
6.12389287151e-05
4.03646922744e-05
5.53119009909e-05
3.87258298776e-05
4.63313630574e-05
3.60072975277e-05
3.41368118512e-05
3.19053626472e-05
2.07704598884e-05
2.61431368606e-05
8.45977939642e-06
1.85172716599e-05
8.4098739264e-07
9.65303617708e-06
-3.51409914001e-06
2.56065045416e-06
-4.80305539761e-06
-8.39603699352e-07
-4.04342304125e-06
-2.52573845699e-06
-2.6679392444e-06
-3.02656269222e-06
-1.6822331112e-06
-1.62284989825e-06
-1.67416729426e-06
-2.75089157992e-07
-1.70376029328e-06
-1.78243880609e-07
-1.71127036634e-06
-1.63889008708e-07
-1.69011921596e-06
-1.79909567903e-07
-1.61328360819e-06
-2.83172763073e-07
-1.49331956153e-06
-4.59996254656e-07
-1.3748278278e-06
-5.97760588217e-07
-1.2475008194e-06
-7.11634437482e-07
-1.09744260072e-06
-8.27185834291e-07
-9.25328312195e-07
-9.57861233038e-07
-7.7373500056e-07
-1.02853215365e-06
-5.74422803198e-07
-1.06827071606e-06
-3.83020265367e-07
-1.09176728336e-06
-1.82356448977e-07
-1.27900250677e-06
-1.41518299393e-06
3.70267015954e-07
-1.89628523836e-06
1.26787194064e-06
-3.23653028222e-06
1.28871956659e-06
-3.51445061379e-06
8.51140087468e-07
-1.53273408915e-06
1.55674995824e-06
-1.54090117121e-06
2.74368317186e-06
-3.28295455688e-06
3.19640146086e-06
-3.71716292278e-06
3.52010247117e-06
-3.48311465221e-06
3.22095313581e-06
-2.00212749843e-06
2.99189441753e-06
-1.5171595663e-06
2.80554656004e-06
-4.69998438142e-07
3.17611295332e-06
5.00073091482e-08
3.45017577941e-06
2.55604851718e-07
3.90879868657e-06
1.5401322028e-07
4.78964200958e-06
-5.10365133022e-07
5.11408456631e-06
-7.18067074866e-07
4.91106065368e-06
-9.12783738502e-08
5.25897869862e-06
5.62963487153e-08
5.85879991789e-06
-4.72283011306e-07
6.21533462864e-06
-8.68588152675e-07
6.29903193579e-06
-8.92510991688e-07
6.39752113889e-06
-6.93409965087e-07
6.4972216633e-06
-3.5926456815e-07
6.60214235818e-06
6.23800730179e-08
6.22988314335e-06
1.08703837853e-06
5.81673140271e-06
1.47042814127e-06
5.73509717144e-06
1.83359157565e-06
4.7748565417e-06
2.67933987206e-06
4.81334200411e-06
2.35596038639e-06
4.77815917592e-06
2.89548383122e-06
5.05177785894e-06
3.33643989551e-06
3.8942398434e-06
4.26663329108e-06
3.50135273466e-06
3.84647907424e-06
5.46270156368e-06
1.84405732007e-06
3.19792557794e-05
-2.51912485638e-05
7.04256218605e-05
-6.22501670119e-05
8.90803366476e-05
-7.52210082121e-05
9.6762370739e-05
-7.38989752276e-05
0.000100505439099
-6.91332290931e-05
0.000100390871875
-6.24058414793e-05
9.81882773331e-05
-5.02711806022e-05
9.41386450573e-05
-3.53738037679e-05
8.86684946202e-05
-1.86860100449e-05
8.30389229096e-05
-2.11901862746e-06
7.83257971898e-05
1.22254117292e-05
7.51802372813e-05
2.32393864007e-05
7.37444501996e-05
3.07958550905e-05
7.36654982959e-05
3.54075367736e-05
7.43778199432e-05
3.80392184056e-05
7.51770149547e-05
4.00683569948e-05
7.5501054548e-05
4.14401564276e-05
7.50402065439e-05
4.23261385968e-05
7.35385163811e-05
4.29241528405e-05
7.07694014173e-05
4.32638903493e-05
6.64631187935e-05
4.31671749823e-05
6.02049087907e-05
4.2404257756e-05
5.1423734518e-05
4.08318077967e-05
3.97707548351e-05
3.79577560484e-05
2.56391368787e-05
3.28307755813e-05
1.05081778396e-05
2.49948053556e-05
-1.59141618572e-06
1.49140825906e-05
-6.41484975366e-06
4.31623237795e-06
-7.05111530312e-06
-1.56729575729e-06
-5.06606798244e-06
-4.76437601195e-06
-2.03296255409e-06
-4.4588863101e-06
-1.6192163322e-06
-6.39830940273e-07
-1.61948398313e-06
-1.50995920564e-07
-1.63456398057e-06
-1.27337182039e-07
-1.60442551647e-06
-2.06262726556e-07
-1.52809178949e-06
-3.54141075799e-07
-1.43962814804e-06
-5.38236051119e-07
-1.34340098192e-06
-6.77030695343e-07
-1.22865074436e-06
-8.02579082755e-07
-1.09501554757e-06
-9.33422679836e-07
-9.56972041268e-07
-1.06464138438e-06
-8.11247960795e-07
-1.14488493488e-06
-6.22046658953e-07
-1.23124107933e-06
-3.66846841849e-07
-1.28399725739e-06
-2.05475111586e-07
-1.46676574465e-06
-1.56657565702e-06
5.29483132955e-07
-2.36118528036e-06
1.38234157004e-06
-3.98827079073e-06
1.11799512076e-06
-3.16560328711e-06
1.10358063692e-06
-1.47410726684e-06
2.11011772826e-06
-2.46987764996e-06
2.67430094453e-06
-3.73311558392e-06
3.04022419433e-06
-3.95658792439e-06
3.20242120213e-06
-3.52874096206e-06
3.22363213519e-06
-1.93978864878e-06
3.26980258744e-06
-1.47186906256e-06
3.12121743044e-06
-2.8132011772e-07
3.37237633624e-06
-1.640887388e-07
3.7219890214e-06
-5.61032204287e-08
4.35149009199e-06
-4.20489282013e-07
5.28133302882e-06
-1.34466070552e-06
5.42925294182e-06
-7.762929652e-07
5.26132462348e-06
1.42699702077e-07
5.58101050444e-06
-1.86748490406e-07
6.0152343063e-06
-8.0438319173e-07
6.24716482907e-06
-9.85824749503e-07
6.1774769587e-06
-7.13949512663e-07
5.94667397853e-06
-3.61011102609e-07
5.6799804788e-06
1.00524761663e-08
5.47927060445e-06
3.38762722349e-07
5.72317749041e-06
9.14965748545e-07
5.30682597806e-06
1.95774600872e-06
5.73261229498e-06
1.46232760962e-06
5.89789974398e-06
2.57683587721e-06
5.77958130701e-06
2.53191039116e-06
5.43112471695e-06
3.30745664874e-06
5.40459783799e-06
3.39414921025e-06
5.57702835287e-06
4.12538470529e-06
5.15553901544e-06
4.27338194374e-06
2.92773338431e-05
-2.21609816662e-05
6.89453774483e-05
-6.4595963237e-05
8.89672148359e-05
-8.19972371066e-05
9.55141031032e-05
-8.15014684384e-05
9.78469228967e-05
-7.59889521987e-05
9.8404558259e-05
-6.94710937744e-05
9.67149793959e-05
-6.05193686582e-05
9.3733223796e-05
-4.71082078467e-05
8.97525192186e-05
-3.12278843782e-05
8.56831119469e-05
-1.44630980169e-05
8.26937377499e-05
1.01455966994e-06
8.14824678706e-05
1.35681926577e-05
8.21228277105e-05
2.27306692894e-05
8.41039838273e-05
2.8938043911e-05
8.65818572617e-05
3.30647230502e-05
8.87093134074e-05
3.60470284058e-05
8.98993176446e-05
3.90083509211e-05
8.97417884993e-05
4.17196973979e-05
8.81352918981e-05
4.4047379854e-05
8.51044328083e-05
4.60656286959e-05
8.0785793155e-05
4.76907977196e-05
7.53646238486e-05
4.86971847509e-05
6.90391395808e-05
4.88418081598e-05
6.17938174803e-05
4.81916018087e-05
5.29857586796e-05
4.68864133101e-05
4.17447584999e-05
4.4194803997e-05
2.77785491574e-05
3.90911134749e-05
1.1924226129e-05
3.09288825756e-05
-3.33502775372e-06
1.98100201462e-05
-1.20256042629e-05
7.42518984133e-06
-1.3845299882e-05
-2.56978472744e-06
-8.53857045796e-06
-9.31909358252e-06
-1.90061399519e-06
-7.04296255303e-06
-1.58712430095e-06
-4.05501486613e-07
-1.61642656764e-06
-7.84620936186e-08
-1.57423211903e-06
-2.27450228268e-07
-1.49680721243e-06
-4.25226611834e-07
-1.41963298401e-06
-6.07060779332e-07
-1.33333539631e-06
-7.49705977609e-07
-1.23056069144e-06
-8.85647300934e-07
-1.11485993614e-06
-1.02237307778e-06
-1.00102928311e-06
-1.14944249636e-06
-8.48935494972e-07
-1.26499024625e-06
-6.53701050504e-07
-1.39028108838e-06
-4.20416650525e-07
-1.5208669974e-06
-1.65625003507e-07
-1.61852729594e-06
-1.74574011187e-06
7.30871690069e-07
-3.02325721819e-06
1.49926278802e-06
-4.66312969878e-06
1.12215228626e-06
-2.72753236624e-06
1.40270079283e-06
-1.6992310812e-06
2.33863111729e-06
-3.3111666422e-06
2.35304466686e-06
-3.63829643577e-06
2.78982617825e-06
-4.28052484252e-06
2.58385109536e-06
-3.22793866414e-06
2.73421794109e-06
-2.02765730611e-06
2.80460989627e-06
-1.4906768237e-06
3.1051845375e-06
-5.44256128123e-07
3.45862912374e-06
-4.84415469954e-07
3.88274518573e-06
-4.38386351236e-07
4.57635828438e-06
-1.03687955948e-06
4.87099754795e-06
-1.54371419119e-06
4.7632055162e-06
-6.04381044591e-07
5.15080699603e-06
-1.78756165755e-07
5.61569994347e-06
-5.64509381652e-07
5.98595627886e-06
-1.06497737266e-06
6.28867631397e-06
-1.1777189892e-06
6.35844481484e-06
-6.66749630349e-07
6.34439102656e-06
-2.35627994353e-07
6.15499030116e-06
2.99772095965e-07
5.70848591469e-06
8.67796987675e-07
6.08581471465e-06
6.01115884668e-07
6.04691959256e-06
2.05743532725e-06
4.90511311927e-06
2.66793462493e-06
5.02619345522e-06
2.50525697106e-06
4.39301333952e-06
3.22377556216e-06
5.1395991286e-06
2.59778235652e-06
4.95844689579e-06
3.59203173524e-06
5.5349279305e-06
3.54357775557e-06
2.41543619182e-05
-1.42658407224e-05
6.23950113193e-05
-6.01598757756e-05
8.75762562024e-05
-8.95122787038e-05
9.42466880798e-05
-8.8409532515e-05
9.55564680092e-05
-8.25760139281e-05
9.56926031126e-05
-7.59110021719e-05
9.51187947753e-05
-6.87061554929e-05
9.33608618315e-05
-5.858939967e-05
9.113229286e-05
-4.4718901428e-05
8.90621194901e-05
-2.90165561084e-05
8.81727634814e-05
-1.34400636365e-05
8.92485572209e-05
5.87082065132e-08
9.2406271746e-05
1.05287875316e-05
9.70599856787e-05
1.81882728099e-05
0.000102169915064
2.39446246245e-05
0.000106557956234
2.88004412071e-05
0.000109272300916
3.34678339514e-05
0.000109915532468
3.85004497768e-05
0.000108408680173
4.33594580121e-05
0.000104761909356
4.78163250927e-05
9.92485854457e-05
5.16933055983e-05
9.22643487784e-05
5.47793048444e-05
8.43875117169e-05
5.6673952045e-05
7.64401472766e-05
5.68871419128e-05
6.9011120295e-05
5.57231919558e-05
6.15516111781e-05
5.44520982348e-05
5.30188359876e-05
5.28361549302e-05
4.27748842804e-05
4.94460941033e-05
3.01640871201e-05
4.36612359935e-05
1.53843648681e-05
3.473505916e-05
3.04127283665e-07
2.269974477e-05
-1.06077517881e-05
8.65825580863e-06
-1.54249379799e-05
-4.02900768582e-06
-9.59685521643e-06
-1.23222281858e-05
-2.4153955751e-06
-7.3580446622e-06
-1.61944829172e-06
-8.05516231502e-07
-1.55754595579e-06
-2.70512581019e-07
-1.48748516207e-06
-4.832890737e-07
-1.40808553757e-06
-6.75665098801e-07
-1.3266844487e-06
-8.19766256756e-07
-1.24168559842e-06
-9.54899807479e-07
-1.15021990393e-06
-1.092844433e-06
-1.04193059001e-06
-1.22920977709e-06
-8.88728574754e-07
-1.3870064567e-06
-6.96549892767e-07
-1.5563497199e-06
-4.35435128058e-07
-1.71048134511e-06
-2.16000632526e-07
-1.86973001508e-06