/*--------------------------------*- C++ -*----------------------------------*\
| =========                 |                                                 |
| \\      /  F ield         | OpenFOAM: The Open Source CFD Toolbox           |
|  \\    /   O peration     | Version:  v1806                                 |
|   \\  /    A nd           | Web:      www.OpenFOAM.com                      |
|    \\/     M anipulation  |                                                 |
\*---------------------------------------------------------------------------*/
FoamFile
{
    version     2.0;
    format      ascii;
    class       volScalarField;
    location    "271";
    object      alphak;
}
// * * * * * * * * * * * * * * * * * * * * * * * * * * * * * * * * * * * * * //

dimensions      [0 0 -1 0 0 0 0];


internalField   nonuniform List<scalar> 
6400
(
0.839423785104
1.27131921555
1.95843201861
2.27764066646
2.59553328432
2.94967738873
3.52851734424
4.20440706652
4.36382970021
4.72005119923
5.84152877713
6.37752783587
6.78060653917
7.31361699674
8.10282380041
8.91495252656
9.52956773393
10.119916295
10.6432301543
10.8709137021
10.8007750993
10.7638241297
11.0075803158
11.5855120605
12.2612986919
12.8293978572
13.2062880217
13.5353452348
13.950699368
14.4638117551
15.0216143178
15.3610131144
15.4175742803
15.3644886198
15.2132022541
14.8640439952
14.7030765305
14.9582174941
14.7359577299
14.1818679806
14.0763203881
14.5964514479
15.1623135487
15.4318182672
15.4908264175
15.4011745584
15.2397076267
15.0713908825
14.9028431959
14.7444871524
14.4402279515
13.5964808778
12.6894378481
11.6553060999
11.0709210526
11.1686390459
10.772357252
9.2984917594
7.60256715468
6.84724270691
5.85615002327
4.78870587295
3.71686706244
5.38650252999
9.48236797086
14.4502750815
17.4646662077
17.1931063336
15.2055559493
13.5337296844
12.5856760607
12.66939574
13.093858124
12.9036292916
14.8227706055
14.2236434626
16.0241389248
9.92896247993
12.8801139734
4.81889357086
3.08939868356
2.40316516628
2.94486983844
4.14302071946
3.82902339621
3.45558978707
3.47952835077
3.76440418426
4.21093428591
4.80228428047
5.5568161791
6.30897189641
6.94828734925
7.55813289019
8.16599467212
8.880349521
9.62728049356
10.3823016346
11.4239936242
11.435978594
11.0922012516
10.9588858082
11.0808729568
11.597542923
12.5278703848
12.9724433209
13.2892068674
13.6901693577
14.1405265266
14.616181817
15.1153894058
15.6442952284
15.7054908381
15.6709236967
15.6041299595
15.0390755695
15.0099789467
15.2754586026
14.9110738847
14.048090166
13.8740688162
15.9087687805
17.2184842282
17.3258142517
17.2715821
16.9454884745
16.4621150866
16.0587041562
15.4538485281
14.922917358
14.7910296376
15.1867998403
14.8172577019
11.8780752605
11.5619319456
11.0900399343
9.3595864691
7.98172756307
6.81679869494
5.68822400409
4.77707188662
5.17351358166
3.98652701055
5.60940665954
9.54612755082
15.37808029
19.1212900543
17.9485561569
15.7947867611
13.8505949489
13.0606859348
13.3593492673
14.3268474403
13.7016632289
13.4835583239
12.9048535326
11.6586283523
9.78752366404
8.20602395003
4.2941304961
3.0650232205
2.6085281375
3.09659568128
3.19724526274
3.48275934845
3.79328619047
3.71553788619
3.70613377786
4.13623642634
4.78642607478
5.53330416673
6.30467749639
6.99808573101
7.62184440297
8.09209337726
8.73019273575
11.8401136058
13.962459343
14.1914710358
13.1881350646
10.9423195411
10.4426411203
11.2824181219
11.8619103392
12.3376183555
12.9217784685
13.4238382084
13.830541594
14.2586020509
14.7566844943
15.1898213256
15.8890996574
16.0008327419
15.5200363765
16.1648305429
15.6225653059
14.8533877487
15.6118992054
15.2043157836
14.3056118571
14.1148942415
14.6847581949
15.2962479474
15.5925936231
15.6749114688
15.6288381613
15.4898182474
15.2785364698
14.9958498492
14.6676720584
14.2983249005
13.7923098142
13.0564493786
12.5039149458
12.1107843306
10.7206720429
9.26807809623
8.04406404067
6.94877750533
5.97591193211
5.24184673347
4.54635201676
4.13910246646
6.44427176329
11.5568511576
16.241470969
18.5599799373
18.6936762392
17.1018784622
15.3961869846
14.6349565671
14.4630025357
13.7583383713
13.1175796372
13.0200393283
12.6051563345
11.5658982166
9.91596847937
7.48370354324
7.64373778482
2.87111234256
5.33261298029
3.22350660605
3.19751139118
3.82492463232
11.7092352416
10.0263894242
4.49172457966
4.1505913259
4.81165685122
5.55751505481
6.33568330958
7.00636117181
7.71651631905
9.67935871259
11.9817298494
13.6264024484
13.7541347989
12.0052094796
10.4066203015
10.4354374707
10.7174118123
11.121260683
11.7430469437
12.4315490498
13.0821758856
13.6363022116
13.9957300841
14.495233688
14.8399370699
15.5887679531
15.8259190023
16.5424515569
16.2118136735
15.3179425545
15.8438921054
15.2004605783
14.5125960896
14.4194041358
14.3850073412
14.4817461973
14.8645390724
15.3130403033
15.6024788685
15.721572657
15.7088897377
15.5944551911
15.3995993387
15.1341917359
14.809535327
14.420623047
13.9345864234
13.3374057414
12.6881718839
11.8708634394
10.7198816106
9.41897576582
8.22597934577
7.21034943394
6.38782902144
5.77517696283
5.34460029444
5.41022716888
7.14086249013
10.8054197056
16.5423126105
20.1296419959
20.3432773923
18.6828033451
16.3316040032
14.6960756412
13.8523882447
13.9485287748
15.2441638804
15.1133155852
13.7385490904
13.5363614826
16.7632567178
13.1910989688
11.2296720943
5.30936494997
7.32519314632
3.71289242463
4.03313030875
6.181704254
11.5890294981
7.72909587255
4.66549863035
4.63991911499
5.03403556337
5.71075976114
6.51928045697
7.98604069244
10.6101711228
11.577239269
11.7466469251
11.3350901505
10.5043289542
10.0694046206
10.4704535147
10.5824639156
10.690600982
11.1861257613
11.8507129751
12.5808357506
13.2931114568
13.7697040757
14.3920730939
14.6079145751
15.4115387376
15.5642429169
17.0016264748
16.3886712649
15.5339107262
15.723517198
14.8301465155
14.5275303048
14.4692776132
14.5111986668
14.5866444832
14.7328628057
15.0264361587
15.3780132541
15.6479710775
15.7876361874
15.8012526167
15.7094136596
15.5335559599
15.2883163572
14.9806297531
14.6037169383
14.1417654248
13.5851166897
12.9152521775
12.0320685621
10.8861105568
9.65112611407
8.5445295545
7.66048564293
7.01261529128
6.59607595535
6.45845812805
6.89237054102
7.85806441818
10.7221810741
15.9791111155
20.1735944736
21.581990598
20.4017618455
17.6405268146
15.1644591839
14.7905432299
16.9268813642
17.7255019467
16.6335993177
15.6653652895
18.2383345411
21.2036426624
16.5569706727
15.6763802213
9.65136062609
8.76725618459
4.60077542024
5.3806242612
11.8474387578
11.2644743645
5.61848182864
5.12962855926
5.19091429611
5.36452038279
6.02437390779
8.97790759681
12.4670450985
12.7596539412
12.1734412977
10.7391267539
9.72327023716
9.58301381447
10.4538317817
10.4839369188
10.3646760227
10.7304948427
11.3358917272
12.0708479757
12.6941552078
13.431608706
14.4003052639
14.4526371461
15.5483880622
15.3575871808
17.2330220095
16.5652630466
17.6624765048
16.0915459728
14.660919255
14.3150648078
14.3939873437
14.5340449865
14.6633133841
14.7854887937
14.9533658337
15.2057579145
15.4979262059
15.7448424214
15.8909376322
15.9228135612
15.8505646813
15.6957769696
15.4769211015
15.199257369
14.8538130868
14.4237432236
13.8841007643
13.1876566569
12.272137781
11.1645271338
10.035688691
9.05829226255
8.30145165605
7.80030994318
7.56167262902
7.79062803029
8.96465060221
8.3277614202
12.1069022791
17.6405818726
21.3558326662
22.7720999987
21.8362186001
18.4917977041
16.3264422657
18.0487721688
20.1735071601
19.6010967668
18.5506937755
18.5748782491
23.0337068182
24.5750663145
19.6139470502
19.4102144574
11.7146565425
8.35683763604
5.59929755906
5.29928564157
11.7132295998
7.71485082286
5.54394898189
5.62341345621
5.69508431821
6.37789642006
6.70830890933
12.4176017278
12.9009347579
12.7959465586
11.0093888358
9.30762051589
9.10004380487
10.5025793174
10.4987184543
10.0510348468
10.3701110033
10.8413040512
11.4449366265
12.1762591127
13.1291791716
14.1068097988
14.3647353943
15.8925612071
15.4595338059
17.546473845
16.6779342532
17.9395260497
16.6981729179
15.7515742421
14.2552305162
14.1363702825
14.4107966819
14.658131594
14.8266109905
14.9758340986
15.1618593891
15.3978075665
15.6568336345
15.8845305414
16.0311531398
16.0747631115
16.020765996
15.8919058829
15.7082170042
15.4720583527
15.1687865236
14.7724678115
14.2442252268
13.5362421404
12.6286319398
11.5947848715
10.5920971328
9.74518970875
9.08659888367
8.62474728121
8.49859883835
8.81543938323
9.05090273641
9.54242663267
13.220672767
20.0006100981
22.6131554585
23.0487964221
21.9952209942
19.7532964128
19.5213329501
22.0209192866
22.4128835391
21.5190589459
20.8794294575
22.7568511186
25.4126089291
26.8175789986
22.2637079381
21.1268100583
11.2987596443
7.68928166743
6.64170135981
11.7163240093
11.6841160938
6.21589396422
6.09293461664
6.17725276383
6.36285371984
6.87999285022
12.2400996878
13.1050465167
13.0012049532
12.296033967
9.44605262069
8.64019469913
10.361724337
10.7323815881
9.96111220819
9.88336111015
10.42311685
11.0764455256
11.6781759504
12.4929734313
13.1904082353
14.6122829803
14.498318847
15.8189492764
17.4602571646
17.5842081077
16.1589999873
17.10755341
16.9713150935
14.5971566967
14.1470375993
14.244609424
14.515740227
14.7881139278
14.9914186237
15.1664717879
15.3685371219
15.6042506425
15.8479124071
16.0614128652
16.2054739071
16.2576833546
16.2234273859
16.1269450292
15.9875289523
15.802557276
15.5495711279
15.191759416
14.6822360644
13.9865130399
13.1242612158
12.1920869729
11.3122479851
10.5353160448
9.83823000849
9.30569933115
9.22142681054
9.5988829594
10.2082183646
11.1310807188
12.0661404974
19.9128874123
24.1976798276
24.3591415761
23.8195345447
22.9473676784
23.8379250029
25.1730476887
24.4441360738
23.6963423269
23.8291206577
26.0345043585
26.622298358
27.1440264191
24.2657201897
22.1299953444
10.3806775268
7.31063999855
7.28079776526
12.6182859235
10.3402101697
6.54474053953
6.68537833233
6.88065048134
8.46620990989
6.8408878012
13.0133659309
13.5337082077
12.9827615398
10.7320672025
8.75232753412
8.76126918757
10.4893834113
10.2960884246
9.76490585248
9.91138435181
10.4081538832
11.2032477614
11.9532512834
13.320183147
14.5346212649
14.4466844093
16.7695185146
15.452022421
17.7962631118
16.3784304604
18.102661301
15.9435230613
15.0218952286
14.4000716886
14.2706094218
14.4099351576
14.6510210475
14.9215393231
15.1570313082
15.3654593104
15.5855264477
15.826041158
16.0655998716
16.2714754129
16.411778359
16.4719186353
16.461747967
16.4052309137
16.3182221963
16.1929162683
15.9985996521
15.6881607216
15.2123341635
14.5559552522
13.7697251088
12.948996533
12.1487394614
11.3104918737
10.3787580651
9.67834847452
9.79539247203
10.7228792727
11.8524007936
12.8190429873
13.5767401749
16.4603502899
24.2666408384
25.9967163062
26.1610852937
26.9399852098
28.0675772239
27.7127245852
26.6384761347
26.3415329631
27.1997345852
28.2521001554
27.9984856199
27.3229152833
26.271052969
24.879728726
9.5602029816
7.49531620774
8.47410293521
12.6106108507
7.79858156268
7.55364689685
7.27792637584
7.52592356731
11.2130839506
9.72563054685
13.8405635751
13.7294695222
12.9565399127
9.7220941076
8.63685884786
10.5356551564
10.7603939605
9.9418125358
9.70394483047
10.0945742317
10.5321149602
11.2682905915
11.868397789
13.5046154734
15.9217949843
14.2783667451
16.6622126698
17.7873780697
18.0406062786
18.3513541206
16.6953482919
16.534272322
14.4983357352
14.2417688307
14.4073517442
14.5858803391
14.8027058934
15.0604387209
15.3196663447
15.5681702635
15.8168975141
16.0683318793
16.3084078925
16.511361976
16.6508427634
16.7195918329
16.7368572127
16.7281017699
16.7021557837
16.6443389007
16.5174993623
16.2665234248
15.8433608359
15.2535683807
14.5662952689
13.8423674803
13.0091318363
11.8482257518
10.474699877
9.81885281618
10.6487460432
12.3460241657
13.8548003231
14.9804504132
15.7682700695
15.6781132818
16.6749535789
27.7812003516
30.6584564151
31.864176884
31.8173643878
30.3841498548
29.3624253153
29.4788701083
30.4296144474
30.5859639742
30.2058531604
29.8224642712
30.1028565722
30.254158339
9.20901778362
8.13660222406
12.1599691307
12.5540495306
7.52757045592
8.23904645551
7.84104520913
8.55256032949
10.4121299305
13.4789243823
14.5405650006
13.8780990831
13.0509824797
9.45453016806
8.71738750247
11.1342677729
10.7653528709
9.82893231568
9.71448500084
10.2460139693
10.9904034217
11.602362826
12.061120976
13.0567232057
16.0589909163
17.2026135447
15.9197052109
17.9547318039
16.1336814964
18.3984391513
18.3994188944
16.3660172415
14.3632520793
14.3316031373
14.5781871775
14.7720240785
14.9754559632
15.2181766802
15.4831841919
15.7694970524
16.0601182461
16.3318780165
16.5769508971
16.7802890002
16.9218499458
17.0032305448
17.0525587885
17.0963006482
17.1370899937
17.1537067789
17.1034596659
16.9256324704
16.5776768493
16.0841843584
15.5090674576
14.8116569536
13.6522985886
11.7891461894
10.2534012915
10.3190018648
12.3339160879
14.7612337889
16.5029039853
17.6883853226
18.262079015
18.0596435943
17.355854164
18.9874608488
32.3566734793
37.6225287138
36.397050496
33.9788780917
32.9672529305
33.1692638966
33.6590704497
33.7336095668
33.8497598962
34.2508683576
34.7882197368
35.4307672802
9.26088475128
8.86460333271
13.7181071309
13.0060407392
10.7773065967
9.36645287124
8.59374457012
10.0832428459
9.55929386134
14.4070457195
15.045187059
14.080024922
12.9169930829
9.83356042522
9.48591767177
11.6444423081
10.6768401413
9.83153461406
9.82118544581
10.2842134723
11.1833788189
12.0429960064
13.9549850869
13.2016326779
15.4453859369
17.5909417791
15.5838060378
18.2717305219
18.7854460546
17.0266892413
16.9801467187
14.9762867109
14.6887631165
14.6543427343
14.7989034339
14.9861225588
15.1810553094
15.4100176529
15.6571503095
15.9563826832
16.3013594001
16.6207897946
16.8771594077
17.0789008911
17.2256217914
17.3256080774
17.4116823355
17.5099164773
17.618646082
17.712292127
17.7432090292
17.6527431325
17.4125051446
17.048061996
16.5601816355
15.6343696376
13.6133514207
11.208518486
10.260382844
11.7183579265
15.1942488335
18.0765027279
19.8940406359
21.2778763422
21.858191708
21.4738312185
20.4751558864
19.0832042116
28.6444292021
38.79714747
41.6071753752
38.8159079791
37.7242525501
37.7136890398
37.9056749955
37.8830606003
38.5682278498
39.2642958234
39.1730144229
39.3778000937
9.66045041792
9.41122607378
13.3157997537
13.30860617
13.248662865
10.2898731154
9.48196153203
13.1707035616
9.65520231593
15.2459394126
15.4256019515
14.297557519
12.8034442339
10.2598225418
12.6548475854
12.7440105652
10.7239308171
9.97230041337
10.0587911759
10.4405860529
11.1484107264
11.9883997522
15.4828305819
16.4765203133
14.6986211452
17.6913661415
18.4637726986
17.6922281179
18.7578259969
18.7555552064
17.5247814661
14.924271582
14.8760395146
14.9735163639
15.0684345484
15.2187916063
15.3869675431
15.6307824193
15.8946101013
16.1683267493
16.5258276217
16.9055549153
17.206174659
17.4152390015
17.5662514228
17.689407363
17.8170338511
17.9688889564
18.139520776
18.3014785575
18.4092586807
18.4225802975
18.3327461159
18.1166580138
17.5846616196
15.9118667625
12.7351918612
10.3835449151
10.8696275939
14.6707455177
19.4360277001
22.3919340663
24.0971068503
26.0306776613
26.1694420498
24.9703938625
23.3481322711
21.4609484663
25.2151322856
36.2399870439
43.3619841356
44.4500001505
42.328832059
42.2416829992
42.2337257427
42.6792958589
43.7117887488
44.378660939
44.4045156766
44.6498762385
10.1172696766
9.97411816408
9.6861679849
13.5238869457
13.6303268272
10.8306130364
10.3004181567
14.002771036
10.0832618089
16.080128384
15.7490480568
14.5232053576
12.8175472242
10.4300045787
13.8536425479
13.0967335645
10.962006229
10.2706910547
10.3685889544
10.7734010643
11.2389032826
11.9015984097
16.0945597479
17.4800662091
14.9489866718
17.8043937365
18.9917107833
16.7257856157
18.3729174765
18.0581717774
15.4681740561
15.2802279919
15.3052400062
15.3251316283
15.3563327439
15.5115402671
15.6617365993
15.8301489162
16.1202695553
16.440340142
16.7895434621
17.1883514899
17.5392965395
17.7821055408
17.9501529372
18.1011690958
18.2712566941
18.4677874365
18.6870796875
18.8993724492
19.0560726625
19.1890566171
19.3023394959
19.2447176493
18.3361427056
14.9985463116
10.9284302093
10.2255196816
13.9944756226
20.4993955043
25.7795052756
27.0832772202
25.1390926371
22.9270969083
19.7591216172
17.8069718435
17.4109224463
16.97208253
15.523765527
16.9708770997
42.4027627856
46.4798832405
46.8077464375
44.3579174633
44.2367268516
47.1266243031
48.8262717972
49.6956133395
50.8801916395
51.6319952547
10.7426855822
10.8024968367
14.1024710441
14.0193664422
13.902057046
11.2642392842
11.2420189685
14.6453352626
10.9375368359
16.7693646707
16.0350598971
14.7548864226
12.8914191722
10.7088191544
14.0321552691
13.0545460636
11.2068135403
10.6117085092
10.6832493273
11.039524284
11.476591601
11.9910561669
15.2614602674
18.2593930866
18.3494059273
16.8896472783
19.174294068
19.7772948109
16.3952538755
15.5846251548
15.3194971914
15.458371831
15.5727310885
15.633264104
15.7128810324
15.8030388192
15.9443897943
16.1328289036
16.3491400759
16.6972092103
17.0945775084
17.5063395259
17.8822626317
18.1646718302
18.3752475
18.5634836568
18.7719864515
19.0194206337
19.2716477793
19.4645295072
19.6176603582
19.877372671
20.2270581119
20.2355232962
18.1468347668
12.557117041
10.5178739237
13.8158585226
19.7260551279
24.736472832
24.6443149226
14.7761858431
0.14804807535
2.56268416269e-06
2.00453915536e-06
4.86656011732e-06
3.28044628459e-05
0.000153654272474
0.000567599649512
0.0036070070709
0.00282420601718
0.245015226913
37.7682589175
51.2502516296
48.120340951
49.0310386692
52.8380683946
56.2658861539
58.7427080661
59.2894394763
11.3020338526
11.4823012295
15.6284132849
14.4709997588
13.7082156283
11.7258984381
12.1834872377
15.1138493536
15.1092311681
17.5862932454
16.3487688097
15.0527788205
13.0071123589
11.1395561186
14.2145255405
12.9690064722
11.4683076867
10.9668034594
10.9813963796
11.2687358739
11.6942581512
12.2919860718
14.523293873
18.4951518464
19.751819456
16.1855432682
18.7335903412
19.669553193
18.9490334607
16.254628309
15.458109817
15.6598216291
15.8882404315
16.0354465777
15.9990792863
16.1106153917
16.2187095233
16.4206542007
16.6460123914
16.9698377803
17.4067557775
17.8612612684
18.2436907512
18.5396888925
18.8124116508
19.1209451083
19.4273640538
19.6981256633
19.8461243687
19.946833792
20.1120011029
20.4075993558
21.0045316296
20.8784150382
15.41476753
10.1286085808
10.9293382016
12.2882101884
3.33629130682
0.0485702857368
3.94623307734e-05
6.58466806316e-08
4.64156273693e-09
0
0
0
0
0
0
0
0
6.45562221773e-13
2.17734772731e-10
3.25684810143e-08
1.88951897078e-05
0.0263919428232
52.854354791
61.8944311596
57.551811745
64.1900224128
11.7418518323
11.9478039396
17.8878433641
14.7654954124
13.1828468371
12.1455189935
12.8298881563
14.8992999002
16.6690875143
18.5308332518
16.7997361037
15.4606930204
13.3443058057
11.8940883575
14.6080090497
13.0527569469
11.8284124407
11.383899731
11.3193254415
11.531355601
11.8938897398
12.4587782446
14.1931007512
18.3475812824
20.7135172402
19.7177405333
18.0413511718
18.9803088862
18.3930530288
15.7137523883
15.9172378948
16.1759279825
16.4919568254
16.490921712
16.4672956906
16.4235643994
16.5690068155
16.7116947746
16.9593022369
17.2840957583
17.7092328005
18.2097169424
18.6986436969
19.0227654135
19.348512841
19.7804947633
20.2138375486
20.489562968
20.5541166836
20.5988583196
20.714751863
20.8728087869
20.8957845046
19.7437065314
11.6418767527
6.01922588263
0.0135270378591
0.000546977543759
7.45787415078e-06
2.04515177565e-08
0
0
0
0
0
0
0
0
0
0
0
0
0
8.31806849016e-12
8.26581002937e-11
1.81204465278e-09
8.78635395125e-08
0.000487926396351
77.5852397926
0.327530066522
12.0707797336
12.2629356293
20.0340575824
14.9503963683
12.9836443374
12.548783636
13.6151329679
13.8189651087
17.6190879942
19.192210853
17.2450562375
15.8842292506
13.9009015275
13.9977856424
15.1547135002
13.392256749
12.3998669463
12.021873335
11.7661509741
11.8847823429
12.1493762733
12.6468365327
14.0959064039
18.2098073154
21.0844544973
21.3857519062
17.1131419797
17.3238799605
16.2774770526
15.8063226285
16.1269055382
16.6973332867
16.9746876798
16.9521699988
16.9213014781
17.0628602187
16.955333123
17.0711911839
17.2836453993
17.5764917046
18.0954806526
18.6513088655
19.1603424627
19.4382427747
19.8447047354
21.5627308375
23.9698819098
24.6914950996
23.0313248846
22.7100511362
22.7665504826
22.8316431492
22.04383418
19.3482932146
17.0482961653
1.47576486327e-09
1.49127867644e-06
2.43335582938e-08
0
0
0
0
0
0
0
0
0
0
0
0
0
0
0
0
0
0
1.28511550335e-10
8.70258992661e-10
1.60482973482e-07
54.0263690893
12.3856303155
12.5479986363
19.7261684394
13.9672121828
12.9499326478
12.8841282026
14.5055921783
13.5085376712
18.3971554344
19.8281501439
17.6848657197
16.2889777544
14.3076495849
16.4622476502
15.9564889093
13.9421961022
13.0718547909
13.1307166619
12.4414376321
12.4122024618
12.5099167573
12.8531272517
14.1616483277
18.0552580845
20.9225311759
22.50308099
20.6175647332
19.2095798397
17.9477010542
16.1356780167
16.4478979908
17.4971731046
17.2771183309
17.3712961789
17.8429375217
17.5499116612
17.4520995737
17.5470035633
17.7523060218
18.0218601406
18.3858942003
18.9998024533
19.7122156208
20.8151604669
22.4322218765
24.7557564287
26.5075557741
26.403508989
26.4817140604
27.6182323187
29.3706663159
32.1229929279
31.2712254415
27.1524907361
0.119083771012
0.00161738586046
0
0
0
0
0
0
0
0
0
0
0
0
0
0
0
0
0
0
0
0
0
0
3.95427968671e-10
28.7813679241
12.801374573
12.9504156298
19.1904716375
13.2832657756
13.1029205124
13.1403709143
15.2398213322
13.7943058171
19.0199764853
20.4495921813
18.1322976807
16.7169978169
14.6595318018
17.0737398541
16.6855161493
14.5671626537
13.7245484616
13.9410491938
13.2699552252
13.1710744314
13.0989834713
13.0671810759
14.4019821313
18.0197349738
20.6140264033
22.8557587218
21.8648207154
19.4465858666
16.4912324165
16.6729904618
17.0912504092
18.0902900138
18.4584653276
18.6204725865
18.6470329483
18.1039469327
18.0028789436
18.1262472286
18.3155654228
18.5981056774
18.935093649
19.6231303721
20.8611783131
23.0719845214
24.541630018
24.8217826431
25.7886403086
26.6925972465
30.0452431723
33.9651281379
39.8573489794
44.0209564227
39.3898151904
0.207096074445
0.000424764713596
1.02843707964e-05
3.45211418456e-08
0
0
0
0
0
0
0
0
0
0
0
0
0
0
0
0
0
0
0
0
0
6.64530000732e-11
8.79233887758e-11
13.4817968876
13.6349879332
18.5960285338
13.3359313283
13.5829458527
13.5084036828
14.9470769768
14.4632624203
19.3963207077
21.0261488235
18.6202545504
17.2053134584
15.1605380208
17.649842247
17.3627410234
15.3275157991
14.4655187357
14.7453712498
14.0608944543
14.0836094233
14.0161189081
13.4633598412
14.8587366996
18.1489495025
20.4620039779
22.9498649224
22.3202981392
19.8176630897
16.7371123568
16.8111961806
17.881431865
17.8894637535
18.0398834726
18.5272803861
19.5967530492
19.0862340952
18.8922792039
18.7571995801
18.8848093772
19.2695898103
19.7333885415
20.498770669
23.0904863332
25.5601958223
25.6065824783
25.774856572
27.3784180624
32.2223729162
38.4997211385
43.4999972015
47.7725829678
27.6491400848
0.00177636203379
5.82410812927e-07
3.65431551243e-09
7.40700139699e-09
1.13743902098e-09
0
0
0
0
0
0
0
0
0
0
0
0
0
0
0
0
0
0
0
0
0
4.91173626275e-12
2.23027511118e-11
14.558913191
14.6480286637
18.6012180027
14.152122983
14.7401195648
14.2622192423
14.9584423397
15.8845634232
19.1682145961
21.3924614069
19.1825223253
17.7779500529
15.787447074
18.3084074143
18.0731363913
16.2799656726
15.4329686898
15.7352595222
14.8523250398
15.1111966804
15.3091021857
14.1473956567
15.3387221462
18.4332456503
20.4869107782
22.7312794346
22.5002606392
20.2032177542
19.3134045743
17.7214484581
18.3520055091
19.0992340949
20.0917173749
18.998553017
19.3996286392
20.1885620298
19.8002591709
19.8637458274
19.7915688398
19.9758814676
20.5554881115
22.8934261836
26.6513598298
27.5407781706
27.012093534
28.5692326286
34.6834207812
43.1389680489
48.7953419409
46.2239102141
0.650346130468
6.07186789089e-06
4.15457217118e-08
0
0
0
0
0
0
0
0
0
0
0
0
0
0
0
0
0
0
0
0
0
0
0
0
0
0
0
16.1270571982
15.8991780266
19.1295599969
16.11256542
16.8049910655
15.4449514875
15.7316449783
18.011671991
19.1340368899
21.8755772632
19.8847866976
18.4498301612
16.5220897711
19.0014684144
18.7775690759
17.3498591321
16.9859733155
17.0795000853
15.7283691039
16.2693433892
16.955332184
15.226409748
15.6348510836
18.7773676489
20.6869365008
22.4905889992
22.6562910957
20.1589512924
20.494760749
19.4166980524
19.5671156551
18.2990578609
19.1307112691
20.5321134152
20.2930087106
20.6070585025
20.7254591807
20.7349526941
20.9406231657
21.0830194409
22.6051265055
27.0970254477
29.8040643413
29.8391886904
30.5137053969
35.3820643591
44.4820409479
50.3567992802
37.2044534963
0.00580380153839
1.01462700765e-05
4.64584769975e-08
0
0
0
0
0
0
0
0
0
0
0
0
0
0
0
0
0
0
0
0
0
0
0
0
0
0
0
0
17.8245320968
17.0621731121
19.7546150001
18.8473631821
18.4956253564
16.8722811666
16.6073626447
19.0934611562
17.8083432926
22.208420204
20.7133217576
19.2140586157
17.3577043266
19.7116957545
19.4293245933
18.2240820998
19.3381418929
18.7255376101
16.7390118549
17.6136822585
18.3277022791
16.6625664247
15.5119334229
18.6701906488
20.7985250397
22.2769073176
22.6638424128
20.1457302508
20.7355721087
20.7216678825
20.762508906
18.9691371416
19.5202798467
20.0193729881
21.2100361366
21.8180234098
21.9187382862
21.8269455614
21.9183395
22.8796970056
27.0461186899
31.4628054851
33.1357261623
33.7738363902
36.5252051138
42.9768691031
45.8018516939
27.6465593447
0.0156272383924
2.26237246222e-05
7.92326481239e-08
0
0
0
0
0
0
0
0
0
0
0
0
0
0
0
0
0
0
0
0
0
0
0
0
0
0
0
0
0
18.5735883642
17.8765558948
20.1157224567
19.800454488
19.4686931764
18.258206991
17.7264528124
20.4487991759
18.7472700641
22.6744964614
21.5477713321
20.0310603235
18.2867747019
20.4592803766
20.1094398064
18.9629262639
20.2329318344
19.7363206891
17.7473647849
18.9820286839
18.9518663032
17.2993419596
16.6360953773
16.8061876627
20.2623269293
21.7158178186
22.3917767911
20.072617266
20.7173191918
21.1525919213
21.6760041117
21.0903307657
19.3695214625
19.8759265488
21.3181556704
22.6198406266
23.2273916462
23.4696287697
23.5519769603
26.9336969895
32.170204039
35.5750035952
36.7553355748
38.0921586929
41.6428486964
40.2870107142
24.7848466526
0.082556427812
7.43668543647e-05
2.11800651273e-07
0
0
0
0
0
0
0
0
0
0
0
0
0
0
0
0
0
0
0
0
0
0
0
0
0
0
0
0
0
0
18.5307761746
18.422484948
20.3505301369
19.9156522121
20.10020245
19.3520542324
18.7181980058
21.7762625362
20.4675895088
23.3022105504
22.4403140412
20.8846054577
19.3013292234
21.2581192438
20.8683454018
19.862071574
20.9535018903
20.6225535463
18.850442942
19.94205543
18.1899052389
17.941285109
17.6202875997
17.9811334011
18.8992984241
19.7294684564
21.4852387898
19.9269636065
20.0285739761
21.0775311563
22.0389695586
22.4260796228
20.986695017
20.5701325177
21.2018445889
22.4229540687
23.9009307737
25.1676692678
26.6796936434
31.8844326258
36.6498960887
39.0983827122
39.5052681574
39.8246151108
35.414799558
27.1972421698
0.559934169177
0.000258317411838
5.78655167016e-07
0
0
0
0
0
0
0
0
0
0
0
0
0
0
0
0
0
0
0
0
0
0
0
0
0
0
0
0
0
0
0
18.7265947411
18.8248093459
20.5943265229
18.6592581402
20.3416480224
19.9354661609
19.38929573
22.2943405773
21.236087139
23.9810948705
23.395231576
21.7535286101
20.4145245004
22.0960626298
21.6778405268
20.9059846344
21.7256944776
21.6220218236
20.0727619109
21.2880284481
19.5019173167
19.7039675791
18.8400371094
19.2110532096
20.9129164859
21.4971252235
21.0843743278
19.7372627395
19.365922858
20.9965370398
22.0139385908
22.5829914446
22.6022325705
21.6121675151
22.9097649127
23.1430019487
24.4698428552
26.8329458837
30.6954416655
36.5181730359
40.3945590019
41.5808564051
39.380330794
32.5859601538
30.329246169
16.9451256678
0.00216760911407
4.93466821533e-06
0
0
0
0
0
0
0
0
0
0
0
0
0
0
0
0
0
0
0
0
0
0
0
0
0
0
0
0
0
0
0
0
19.4282571983
19.5019037218
20.8227817079
19.0441206538
20.5395261264
20.2265638947
19.8703906552
22.3931733785
21.7955888921
24.4744938228
24.3617305014
22.5873864577
21.6229172378
22.9340453042
22.4660302744
21.929244095
22.4588885035
22.719018739
21.3479575671
22.6201182856
21.2840077565
21.8996555614
21.5396068153
19.9693406907
21.4397645867
22.5130213162
22.579734116
19.6104263595
18.5948890037
20.8862472127
22.1381792545
21.9065267105
22.0485615882
21.8563626091
22.9257543792
23.5644462146
25.2010709021
28.6201723804
34.7561617894
40.8996837804
43.6245037815
42.3556043522
33.5730140785
31.4617783633
27.8733856466
0.0246458728559
3.43867080799e-05
1.39438865773e-07
0
0
0
0
0
0
0
0
0
0
0
0
0
0
0
0
0
0
0
0
0
0
0
0
0
0
0
0
0
0
0
0
20.3228026075
21.6120438185
21.1844042698
20.0611614829
21.0451848321
20.5787357026
20.3400891957
22.4752058639
22.3256200716
24.5962935839
25.3296787879
23.356574227
22.7015285413
23.5907243634
23.2356549886
22.679563475
22.5419006273
23.7327781078
22.7350367438
23.774290011
23.3599578431
23.136074352
22.8626698579
22.3913482727
21.4212896273
22.3031674257
23.5295214356
18.7713063776
18.0735390365
20.0247908469
22.1388038874
22.6121026407
23.1310550176
21.8302655143
22.6567855563
23.7744742582
25.5650964773
30.2759846676
38.6140664528
44.9229001446
46.2757981493
38.7143213582
33.0826981084
32.9933005734
1.85899919803
0.000233076226646
5.94866591427e-07
0
0
0
0
0
0
0
0
0
0
0
0
0
0
0
0
0
0
0
0
0
0
0
0
0
0
0
0
0
0
0
0
0
20.9935221264
22.3137015841
21.8667485159
20.9760553077
21.7413336513
21.140722939
20.8867542716
22.6548696533
22.8581767664
24.4366274133
26.2094033649
24.1377572103
23.3248816357
24.135154745
24.1223781665
23.3679392469
22.6099157214
24.443905558
24.227972296
24.7756135508
24.6561856351
24.7123940844
23.0425869465
23.0005941921
22.4390462468
24.070656684
24.8736367762
21.2626496374
17.6466782751
18.9051024654
21.4861910603
22.9081833074
23.1451269616
22.4501199475
22.2021251041
23.7556354056
25.4781961674
31.571613225
42.1492862009
48.9146159522
45.9330537655
33.8883976201
34.836921772
31.125022321
0.00799123567257
6.87234851332e-06
2.3094993872e-08
0
0
0
0
0
0
0
0
0
0
0
0
0
0
0
0
0
0
0
0
0
0
0
0
0
0
0
0
0
0
0
0
0
21.506341596
22.6858344602