/*--------------------------------*- C++ -*----------------------------------*\
| =========                 |                                                 |
| \\      /  F ield         | OpenFOAM: The Open Source CFD Toolbox           |
|  \\    /   O peration     | Version:  v1806                                 |
|   \\  /    A nd           | Web:      www.OpenFOAM.com                      |
|    \\/     M anipulation  |                                                 |
\*---------------------------------------------------------------------------*/
FoamFile
{
    version     2.0;
    format      ascii;
    class       surfaceScalarField;
    location    "977";
    object      phia;
}
// * * * * * * * * * * * * * * * * * * * * * * * * * * * * * * * * * * * * * //

dimensions      [0 3 -1 0 0 0 0];
oriented        oriented;


internalField   nonuniform List<scalar> 
12640
(
6.15896011673e-08
-6.13880458011e-08
1.15789288832e-07
-5.40199644704e-08
1.62168968693e-07
-4.6243375066e-08
2.01504300773e-07
-3.92185883326e-08
2.3249270053e-07
-3.08887960491e-08
2.55147470125e-07
-2.25683122462e-08
2.74725559407e-07
-1.94996228919e-08
3.01474323119e-07
-2.66764104855e-08
3.3563010044e-07
-3.40855218334e-08
3.69787339758e-07
-3.40918003519e-08
4.03090031815e-07
-3.32413989196e-08
4.38037165123e-07
-3.48887376829e-08
4.72589972857e-07
-3.44952408497e-08
5.05980231187e-07
-3.33341182905e-08
5.40216783647e-07
-3.41805147294e-08
5.7840373276e-07
-3.81338894876e-08
6.18872897289e-07
-4.04142220223e-08
6.58550623245e-07
-3.96216727645e-08
6.97291617769e-07
-3.86780962743e-08
7.37940697544e-07
-4.05811860931e-08
7.84618091925e-07
-4.66033622198e-08
8.36569812655e-07
-5.187659219e-08
8.89825409741e-07
-5.31774458796e-08
9.42540107877e-07
-5.26379810686e-08
9.94397876785e-07
-5.17784788834e-08
1.04580861103e-06
-5.13322512369e-08
1.09750622505e-06
-5.16151230569e-08
1.14917979229e-06
-5.15917913624e-08
1.20040910071e-06
-5.11434211118e-08
1.25142665326e-06
-5.09328908549e-08
1.30294612006e-06
-5.14306875704e-08
1.3545668045e-06
-5.15331611443e-08
1.4059085807e-06
-5.12503761465e-08
1.45832240647e-06
-5.23223534212e-08
1.51166524192e-06
-5.32456714141e-08
1.56514920583e-06
-5.33878536247e-08
1.61858111338e-06
-5.33317027462e-08
1.67072008607e-06
-5.20399560801e-08
1.72056203698e-06
-4.97393436634e-08
1.76802635629e-06
-4.73638627013e-08
1.81378832749e-06
-4.56598737745e-08
1.8562135732e-06
-4.2327282538e-08
1.8931526998e-06
-3.68399080794e-08
1.9259296038e-06
-3.26791135373e-08
1.95585142216e-06
-2.98205871299e-08
1.9826072138e-06
-2.66545023422e-08
2.00580645094e-06
-2.30937252025e-08
2.0248183042e-06
-1.89050616508e-08
2.03955165459e-06
-1.46216247502e-08
2.05159167317e-06
-1.19252480455e-08
2.06291445934e-06
-1.1201123293e-08
2.07123564053e-06
-8.1932131318e-09
2.07134164335e-06
3.25547742072e-11
2.064657341e-06
6.83568462249e-09
2.05073381251e-06
1.4089906734e-08
2.02819504901e-06
2.27228528016e-08
2.00542291233e-06
2.29819931646e-08
1.9859138139e-06
1.97533804712e-08
1.96303255145e-06
2.31672668754e-08
1.93733986303e-06
2.60305441937e-08
1.91615048115e-06
2.15961598939e-08
1.89068235306e-06
2.59713154598e-08
1.83741925374e-06
5.3873194966e-08
1.73608940308e-06
1.01958050615e-07
1.61831621544e-06
1.18272223894e-07
1.52084210931e-06
9.7846339239e-08
1.42754049793e-06
9.36307745307e-08
1.33107873272e-06
9.68185069674e-08
1.22538351491e-06
1.06103474884e-07
1.1038237966e-06
1.22018933585e-07
9.72188950983e-07
1.32112105626e-07
8.40079699029e-07
1.32563044499e-07
7.11726693273e-07
1.28778411644e-07
5.73808167944e-07
1.38322366695e-07
4.54305306748e-07
1.19866615368e-07
3.49892936053e-07
1.04748407034e-07
2.75492150805e-07
7.47559760836e-08
1.92033004763e-07
8.3826812714e-08
1.16513303176e-07
7.59718468375e-08
1.16922857598e-07
3.32509407132e-08
-9.44948772481e-08
7.66898103565e-08
-9.73205251068e-08
1.18639761005e-07
-8.80744867552e-08
1.60905237027e-07
-8.13869003685e-08
2.11168007783e-07
-8.10617754254e-08
2.49704836149e-07
-6.10183402704e-08
2.76064140996e-07
-4.5779486086e-08
3.0436624631e-07
-5.48984953752e-08
3.36045034204e-07
-6.5692303481e-08
3.70164265952e-07
-6.81410392102e-08
4.04357450544e-07
-6.7372610291e-08
4.36579075778e-07
-6.7048318375e-08
4.68625733159e-07
-6.64863658444e-08
5.01771938844e-07
-6.64230892052e-08
5.36734365782e-07
-6.9091752644e-08
5.75715691951e-07
-7.70580545942e-08
6.15145800891e-07
-7.97918272458e-08
6.50030131058e-07
-7.44439759576e-08
6.85970880187e-07
-7.45574502682e-08
7.28889327179e-07
-8.34261367265e-08
7.78902159375e-07
-9.65432959582e-08
8.33643232401e-07
-1.06535580459e-07
8.88094225934e-07
-1.07553214824e-07
9.39612280238e-07
-1.04072949893e-07
9.90665023467e-07
-1.02755024094e-07
1.0430248441e-06
-1.03606742674e-07
1.09500791025e-06
-1.03519019056e-07
1.14635600627e-06
-1.02850911495e-07
1.19769294389e-06
-1.02397782326e-07
1.24913145727e-06
-1.02279410592e-07
1.3004083778e-06
-1.02622559528e-07
1.35150152912e-06
-1.02532625589e-07
1.40235979597e-06
-1.02019878112e-07
1.45473253712e-06
-1.0459638964e-07
1.50936637387e-06
-1.07786468777e-07
1.56344875801e-06
-1.07366468511e-07
1.61667971381e-06
-1.06464581351e-07
1.67008982387e-06
-1.05344866088e-07
1.72279967969e-06
-1.0234977885e-07
1.77166481431e-06
-9.61225290775e-08
1.81102356113e-06
-8.49196769932e-08
1.84336217801e-06
-7.45635365758e-08
1.87665101155e-06
-7.00325896775e-08
1.91082920453e-06
-6.67556010213e-08
1.94304431944e-06
-6.19370909107e-08
1.97257224482e-06
-5.60778131979e-08
1.99859150234e-06
-4.90096545687e-08
2.02108860617e-06
-4.12926753399e-08
2.0396486622e-06
-3.30711876379e-08
2.05164585597e-06
-2.38051426091e-08
2.05492427173e-06
-1.43591111974e-08
2.05487712027e-06
-8.01735675257e-09
2.06057444583e-06
-5.52651294997e-09
2.06198171314e-06
5.58089632552e-09
2.05139769383e-06
2.48411188339e-08
2.03870872807e-06
3.5599515221e-08
2.02393228202e-06
3.79741687784e-08
2.00347802658e-06
4.04575939673e-08
1.98163348364e-06
4.53059373235e-08
1.95728829775e-06
5.07223433645e-08
1.92097164287e-06
5.83303834826e-08
1.87997960948e-06
6.74722566949e-08
1.81973044421e-06
1.14732734991e-07
1.71560595521e-06
2.06684416136e-07
1.57312439549e-06
2.61228039607e-07
1.42966185744e-06
2.41662452014e-07
1.34056501498e-06
1.83052216314e-07
1.27652932046e-06
1.61205794713e-07
1.1918989943e-06
1.91137969818e-07
1.07588327726e-06
2.38482184217e-07
9.36289658749e-07
2.72160431659e-07
7.92343993742e-07
2.76935600047e-07
6.71031603596e-07
2.50499879078e-07
5.79038357726e-07
2.30728396816e-07
4.87630535705e-07
2.11673693872e-07
4.01684310671e-07
1.91096656402e-07
3.10642236568e-07
1.66203292365e-07
2.28561654817e-07
1.66358967747e-07
1.19944229174e-07
1.85187541631e-07
2.37228188025e-07
4.04434381832e-08
-1.34859074049e-07
6.27814357418e-08
-1.19547094807e-07
1.10503294001e-07
-1.35686897573e-07
1.64308746076e-07
-1.35094738148e-07
2.14582389302e-07
-1.31251092511e-07
2.42650597007e-07
-8.90146094595e-08
2.61212181202e-07
-6.42640960308e-08
2.91903805661e-07
-8.55087376702e-08
3.26901859496e-07
-1.00613366321e-07
3.62019034334e-07
-1.03188682126e-07
3.96544853997e-07
-1.01834443288e-07
4.29141095067e-07
-9.95877848406e-08
4.60922055295e-07
-9.8214560768e-08
4.94392269344e-07
-9.9842933447e-08
5.27371267234e-07
-1.02018547267e-07
5.49035364935e-07
-9.86704697345e-08
5.63338786069e-07
-9.40406286632e-08
5.91228460329e-07
-1.02277176876e-07
6.40296514085e-07
-1.23560607012e-07
7.06608134749e-07
-1.49667639641e-07
7.73933056942e-07
-1.63791573373e-07
8.29384436858e-07
-1.61910976171e-07
8.79945780991e-07
-1.58035391243e-07
9.3248416222e-07
-1.56533884271e-07
9.85310448429e-07
-1.55500040305e-07
1.03674397691e-06
-1.54960100021e-07
1.08798383241e-06
-1.54674067317e-07
1.13962122232e-06
-1.54404360048e-07
1.19131540167e-06
-1.5400361558e-07
1.24321039767e-06
-1.54087605622e-07
1.29440644034e-06
-1.53728026629e-07
1.34569679692e-06
-1.5373277861e-07
1.39802017556e-06
-1.54249247779e-07
1.448981704e-06
-1.55463097574e-07
1.50239782291e-06
-1.61101378135e-07
1.56019665415e-06
-1.65064833565e-07
1.61496516478e-06
-1.61128841142e-07
1.66731318516e-06
-1.57590214905e-07
1.72070654251e-06
-1.55637738518e-07
1.7712312715e-06
-1.4654439038e-07
1.81707802292e-06
-1.30662385e-07
1.85858720537e-06
-1.15971802855e-07
1.89543557225e-06
-1.06778801691e-07
1.92861988566e-06
-9.98393077172e-08
1.95876186686e-06
-9.19758979887e-08
1.98555355307e-06
-8.27661354927e-08
2.00901137374e-06
-7.23605753353e-08
2.02894632523e-06
-6.11188919464e-08
2.04508707659e-06
-4.90986074041e-08
2.05766747346e-06
-3.62688274393e-08
2.06715512371e-06
-2.37240250055e-08
2.07226294433e-06
-1.2995581749e-08
2.06877625241e-06
-1.90024944083e-09
2.0595786223e-06
1.49303890964e-08
2.05166481699e-06
3.29235279029e-08
2.04206893537e-06
4.53856901831e-08
2.02589925355e-06
5.43629972465e-08
2.00411781902e-06
6.24933860081e-08
1.97902931413e-06
7.06917016393e-08
1.95053593349e-06
7.95677660065e-08
1.9175445214e-06
9.17438476904e-08
1.85967429651e-06
1.25853006222e-07
1.7436841033e-06
2.31291302683e-07
1.57653499271e-06
3.74367071504e-07
1.43989999723e-06
3.98296693262e-07
1.37274218545e-06
3.09172277371e-07
1.296897936e-06
2.59220714267e-07
1.19828480703e-06
2.60155909778e-07
1.08852093512e-06
3.01271259613e-07
9.65140452187e-07
3.62264629114e-07
8.45808190412e-07
3.91908017704e-07
7.52884738438e-07
3.70282212127e-07
6.70660729047e-07
3.33153482439e-07
5.83249208559e-07
3.1855619298e-07
4.78665956587e-07
3.16656514411e-07
3.72618575252e-07
2.97544595442e-07
2.82442387888e-07
2.56798688915e-07
2.14361522311e-07
2.34861908553e-07
9.26478187576e-08
3.07401126244e-07
3.30100718791e-07
2.80226267362e-08
-1.62769130045e-07
3.93293703212e-08
-1.30779428549e-07
9.04965559393e-08
-1.86761521994e-07
1.34564749951e-07
-1.79076898361e-07
1.43481521444e-07
-1.40100145274e-07
1.33531359835e-07
-7.9023735555e-08
1.83371221288e-07
-1.14045942622e-07
2.57187756317e-07
-1.5924379797e-07
3.08267547328e-07
-1.51616745242e-07
3.47685418511e-07
-1.42537856527e-07
3.84391409391e-07
-1.38481353999e-07
4.18588897301e-07
-1.33733856305e-07
4.48881451946e-07
-1.2845947397e-07
4.67656363253e-07
-1.1857174226e-07
4.77472971754e-07
-1.11787644406e-07
4.95619215278e-07
-1.16764187987e-07
5.35230742061e-07
-1.33596186286e-07
5.95265870211e-07
-1.62250181719e-07
6.63049357496e-07
-1.91277437009e-07
7.20361644148e-07
-2.0690904505e-07
7.68304454086e-07
-2.11662018296e-07
8.18753139246e-07
-2.12283696486e-07
8.71193754823e-07
-2.1039980348e-07
9.22875457288e-07
-2.08136935615e-07
9.74185714361e-07
-2.0673182022e-07
1.02548464443e-06
-2.06177319904e-07
1.07739898607e-06
-2.06506259907e-07
1.1295311916e-06
-2.06450410371e-07
1.18193192085e-06
-2.06317968291e-07
1.23375632114e-06
-2.05822980441e-07
1.28627734678e-06
-2.06159822224e-07
1.33723670308e-06
-2.04600581763e-07
1.38771224184e-06
-2.0463017913e-07
1.44465120454e-06
-2.12301930146e-07
1.50167517006e-06
-2.18024002201e-07
1.55766068379e-06
-2.20945568775e-07
1.61781161697e-06
-2.21174829713e-07
1.67529179695e-06
-2.14964098054e-07
1.72552288418e-06
-2.05764104175e-07
1.77194335198e-06
-1.92859036181e-07
1.81700749474e-06
-1.75622226633e-07
1.85960005532e-06
-1.58460066227e-07
1.89785671557e-06
-1.44933072229e-07
1.93178043737e-06
-1.33659914559e-07
1.96203027451e-06
-1.22122738889e-07
1.98879131452e-06
-1.09421972326e-07
2.01209858718e-06
-9.55610504725e-08
2.03184793712e-06
-8.07578675003e-08
2.04795703529e-06
-6.50943790609e-08
2.06052615768e-06
-4.87201740328e-08
2.06925755203e-06
-3.23329655099e-08
2.07271435035e-06
-1.63230889635e-08
2.06994762681e-06
1.0052879267e-09
2.06369778383e-06
2.1332398547e-08
2.05534081525e-06
4.14495986306e-08
2.04270876004e-06
5.82110466993e-08
2.02449566488e-06
7.27975998272e-08
2.00052431541e-06
8.67223442977e-08
1.97049002291e-06
1.01027017139e-07
1.93176938351e-06
1.18642556316e-07
1.87425074515e-06
1.49683012783e-07
1.77950628298e-06
2.21077999401e-07
1.65647894692e-06
3.54827714125e-07
1.53946351808e-06
4.91874489661e-07
1.41175832111e-06
5.26431809241e-07
1.2871375479e-06
4.34142257977e-07
1.18773160609e-06
3.58939410344e-07
1.10143004439e-06
3.46772745313e-07
1.01785891097e-06
3.85184385433e-07
9.27743931518e-07
4.52762903965e-07
8.273494795e-07
4.92724927334e-07
7.22018579566e-07
4.7604587685e-07
6.09518754153e-07
4.46049173261e-07
4.96122080266e-07
4.32308787422e-07
3.90593765646e-07
4.22542433842e-07
2.817283535e-07
4.06783336356e-07
1.86701821004e-07
3.52140166162e-07
1.25455918766e-07
2.96388526975e-07
6.46447437224e-08
3.68527771187e-07
3.94920596097e-07
5.66211159187e-09
-1.6840224528e-07
3.2914472493e-08
-1.57978238393e-07
7.25864783139e-08
-2.26365133884e-07
1.05396351444e-07
-2.11827902862e-07
1.03704698962e-07
-1.38360048611e-07
1.33466225e-07
-1.08739458472e-07
1.94053956572e-07
-1.74567431176e-07
2.39902962066e-07
-2.0502178026e-07
2.82829425941e-07
-1.94472644576e-07
3.24764461641e-07
-1.84411985767e-07
3.65457546649e-07
-1.79123192252e-07
3.94408137663e-07
-1.62639153931e-07
4.05024481362e-07
-1.39035007689e-07
4.15852856587e-07
-1.29356157198e-07
4.4642277954e-07
-1.42306266524e-07
4.96609996735e-07
-1.66894682646e-07
5.58095926066e-07
-1.95020553864e-07
6.16234167668e-07
-2.20324149111e-07
6.62364235878e-07
-2.37341598336e-07
7.0547103662e-07
-2.49948284775e-07
7.53874772868e-07
-2.59994768714e-07
8.050960305e-07
-2.63431741086e-07
8.56701410087e-07
-2.61929683074e-07
9.07964521196e-07
-2.59323808686e-07
9.59180622248e-07
-2.57869256911e-07
1.01109852089e-06
-2.58015494747e-07
1.06303783082e-06
-2.58361845928e-07
1.11603248396e-06
-2.59360183951e-07
1.16826082527e-06
-2.58459543365e-07
1.22079618541e-06
-2.58270333285e-07
1.27127474463e-06
-2.56548028116e-07
1.32523146967e-06
-2.58463653356e-07
1.38438828556e-06
-2.63688754906e-07
1.44135782592e-06
-2.69168892621e-07
1.50112855923e-06
-2.77688440279e-07
1.56336409677e-06
-2.83074073146e-07
1.62117081318e-06
-2.78874013013e-07
1.67510776513e-06
-2.68794331821e-07
1.72537392615e-06
-2.55923078019e-07
1.77276335301e-06
-2.40141922206e-07
1.8184434829e-06
-2.21195866758e-07
1.86171828227e-06
-2.01629734581e-07
1.90098445275e-06
-1.84094569483e-07
1.93575859393e-06
-1.68330164749e-07
1.96642977762e-06
-1.5268928684e-07
1.99332167278e-06
-1.36208238197e-07
2.01655421589e-06
-1.18685429209e-07
2.0361063893e-06
-1.00199465167e-07
2.05193976648e-06
-8.08139110883e-08
2.06399517597e-06
-6.06584497118e-08
2.07182000818e-06
-4.00364060747e-08
2.07450621355e-06
-1.88814047404e-08
2.07196367337e-06
3.6852106917e-09
2.06565891738e-06
2.77877476631e-08
2.05586172017e-06
5.14176085057e-08
2.04084806423e-06
7.34176369896e-08
2.01884303005e-06
9.50269122204e-08
1.98799946332e-06
1.17825814439e-07
1.94528956583e-06
1.44039367091e-07
1.88474302884e-06
1.79541962289e-07
1.79710728132e-06
2.37720943963e-07
1.68342784791e-06
3.35200184931e-07
1.57438326754e-06
4.64326277311e-07
1.48256307015e-06
5.84150562917e-07
1.39129049271e-06
6.1812940778e-07
1.27130798306e-06
5.54477173892e-07
1.13756399211e-06
4.92993143354e-07
1.02234928679e-06
4.62286373154e-07
9.30708550875e-07
4.77142282274e-07
8.4542473978e-07
5.38411767617e-07
7.44835933941e-07
5.93722198014e-07
6.34562195117e-07
5.867019237e-07
5.25977349649e-07
5.54960647119e-07
4.16812628995e-07
5.41787560939e-07
3.07210629104e-07
5.32470748826e-07
2.07091152444e-07
5.07217138533e-07
1.47406935168e-07
4.12082906199e-07
9.11260706681e-08
3.52886081983e-07
3.58223277593e-08
4.2411270926e-07
4.3086629316e-07
2.10540967542e-09
-1.70450507358e-07
3.72860352959e-08
-1.93113428312e-07
5.85771349382e-08
-2.47606016252e-07
7.4404269282e-08
-2.27605254084e-07
7.51073775474e-08
-1.39027746339e-07
1.36457217026e-07
-1.70038625929e-07
1.92292873463e-07
-2.30340112159e-07
2.22287517359e-07
-2.34951745052e-07
2.58246007492e-07
-2.30374973418e-07
2.95562471391e-07
-2.21675968874e-07
3.23172713235e-07
-2.06688013952e-07
3.24884796948e-07
-1.64315857571e-07
3.36586517061e-07
-1.50698459023e-07
3.72594079972e-07
-1.65317860215e-07
4.26779732724e-07
-1.96438027485e-07
4.92672091269e-07
-2.3272675622e-07
5.53067914095e-07
-2.55354492074e-07
5.9800219426e-07
-2.65197308398e-07
6.39229950743e-07
-2.78506913605e-07
6.87401382945e-07
-2.98053949306e-07
7.37336287038e-07
-3.09860907853e-07
7.86938682932e-07
-3.12962802832e-07
8.37592676203e-07
-3.12510353905e-07
8.89347469124e-07
-3.11002752339e-07
9.41039864311e-07
-3.09484326927e-07
9.91119335459e-07
-3.0801480342e-07
1.04431478204e-06
-3.11475315209e-07
1.09713126637e-06
-3.12092208185e-07
1.15053895949e-06
-3.11779933923e-07
1.19995419074e-06
-3.07596310827e-07
1.25289856404e-06
-3.09400241417e-07
1.30952448349e-06
-3.14993158514e-07
1.36811459211e-06
-3.22177376079e-07
1.43622482365e-06
-3.3717222417e-07
1.50374000161e-06
-3.45093744834e-07
1.56436405198e-06
-3.43588060051e-07
1.62058242533e-06
-3.34983088881e-07
1.67417288079e-06
-3.22275760148e-07
1.72526825172e-06
-3.06909717804e-07
1.77398913291e-06
-2.8875399466e-07
1.82066044119e-06
-2.67758933684e-07
1.86470883089e-06
-2.45570719647e-07
1.90489740981e-06
-2.24177004282e-07
1.94057988024e-06
-2.0390704307e-07
1.9718630265e-06
-1.83866737859e-07
1.99902258236e-06
-1.63260710075e-07
2.02221702197e-06
-1.41771150887e-07
2.04146923871e-06
-1.19340787198e-07
2.05674346328e-06
-9.59752228845e-08
2.06792820016e-06
-7.172802771e-08
2.07467591962e-06
-4.6665148179e-08
2.07654342276e-06
-2.06241635096e-08
2.07362797195e-06
6.73554758708e-09
2.0663952604e-06
3.51712071048e-08
2.05407409296e-06
6.39077784769e-08
2.0343197207e-06
9.33675014187e-08
2.00412779572e-06
1.25443544369e-07
1.95980042271e-06
1.6241247973e-07
1.89657202191e-06
2.07568213458e-07
1.80990508553e-06
2.66551397768e-07
1.69949853465e-06
3.48508777083e-07
1.57920733709e-06
4.55892236431e-07
1.48084266325e-06
5.63106103358e-07
1.38354130016e-06
6.81880101671e-07
1.27350894298e-06
7.28541450691e-07
1.17149392136e-06
6.56822859005e-07
1.05396034396e-06
6.10822623737e-07
9.38958544825e-07
5.77579487254e-07
8.46090178616e-07
5.70318252325e-07
7.57260287412e-07
6.27594052622e-07
6.54380856478e-07
6.9696376502e-07
5.58191126647e-07
6.83206054523e-07
4.51626970946e-07
6.61810022713e-07
3.39508791679e-07
6.54195046797e-07
2.34310386663e-07
6.37965265978e-07
1.63918513089e-07
5.77878202153e-07
1.07902226558e-07
4.68307619459e-07
5.80482453736e-08
4.02957556549e-07
2.49453682566e-08
4.57429110049e-07
4.55942117092e-07
1.34004767407e-08
-1.83834812666e-07
5.06982144245e-08
-2.3037469901e-07
6.69729660646e-08
-2.63844317893e-07
5.79268697507e-08
-2.18521831769e-07
8.34617579269e-08
-1.6452343947e-07
1.4589107674e-07
-2.32413902116e-07
1.76233664489e-07
-2.60625010791e-07
2.01861543479e-07
-2.60530564685e-07
2.29003681833e-07
-2.57465930309e-07
2.65784989148e-07
-2.5841757076e-07
2.71592903851e-07
-2.12460784533e-07
2.78465265164e-07
-1.71155251778e-07
3.12189712247e-07
-1.84382234879e-07
3.57615909832e-07
-2.10694684754e-07
4.20322745546e-07
-2.59088506134e-07
4.815040195e-07
-2.93850297289e-07
5.25202754083e-07
-2.98996469018e-07
5.64906594294e-07
-3.04843347681e-07
6.14816748512e-07
-3.28355712134e-07
6.66013776735e-07
-3.49186721251e-07
7.1488418189e-07
-3.58664755629e-07
7.64411013958e-07
-3.62420565279e-07
8.15482783115e-07
-3.63509543274e-07
8.65871787271e-07
-3.61317615147e-07
9.15654220509e-07
-3.59190503056e-07
9.6686874347e-07
-3.59149916495e-07
1.01849004743e-06
-3.63013984299e-07
1.07258625039e-06
-3.66103078853e-07
1.12413428593e-06
-3.63240558443e-07
1.1751577405e-06
-3.5852913323e-07
1.23419565118e-06
-3.68341686584e-07
1.29592578213e-06
-3.76623015733e-07
1.36430324149e-06
-3.90448725088e-07
1.43336392905e-06
-4.06121990061e-07
1.50060862353e-06
-4.12225683347e-07
1.56145732221e-06
-4.04324090536e-07
1.61819679386e-06
-3.91610402738e-07
1.67278569212e-06
-3.76752959835e-07
1.72536890551e-06
-3.59381435532e-07
1.77568838913e-06
-3.3896237843e-07
1.82363523153e-06
-3.1559540228e-07
1.86868027801e-06
-2.90506614445e-07
1.90985619783e-06
-2.65244938974e-07
1.94649384022e-06
-2.40437504907e-07
1.97848799226e-06
-2.15753483073e-07
2.00598275565e-06
-1.90647489193e-07
2.02909336844e-06
-1.64772731138e-07
2.04784447896e-06
-1.37982189555e-07
2.06222243054e-06
-1.10242887914e-07
2.0721774922e-06
-8.15713169688e-08
2.07756332775e-06
-5.1936913305e-08
2.07821906058e-06
-2.11584678692e-08
2.07407910062e-06
1.10075292542e-08
2.06463259561e-06
4.47649437319e-08
2.04786234186e-06
8.0848669952e-08
2.02007504078e-06
1.21346345124e-07
1.97678150987e-06
1.6895778826e-07
1.91376939031e-06
2.25680890535e-07
1.82884732714e-06
2.92783805491e-07
1.72561715838e-06
3.70110626073e-07
1.61594089209e-06
4.58541470093e-07
1.51601035608e-06
5.56199491042e-07
1.41599696358e-06
6.63512844921e-07
1.31108985269e-06
7.87165555565e-07
1.17557274493e-06
8.64432901594e-07
1.06550141656e-06
7.67198694622e-07
9.7736793506e-07
6.99247120438e-07
8.77090364117e-07
6.78142643629e-07
7.74767201816e-07
6.72943232322e-07
6.7569629106e-07
7.26985083258e-07
5.90059893971e-07
7.82906666715e-07
4.98317763655e-07
7.75219881678e-07
3.82572037693e-07
7.77821336674e-07
2.67511239138e-07
7.69525509735e-07
1.73506259252e-07
7.32231436008e-07
1.2368866779e-07
6.27926016308e-07
6.45593377054e-08
5.27646942553e-07
1.86207609944e-08
4.49073352281e-07
9.47240040553e-09
4.66819820025e-07
4.65511082437e-07
2.33859817353e-08
-2.07168172777e-07
5.23812023746e-08
-2.59335245388e-07
6.02260313512e-08
-2.71652592797e-07
4.14243357424e-08
-1.99692377199e-07
8.66218286584e-08
-2.09682847019e-07
1.32260116365e-07
-2.78001957669e-07
1.56054715534e-07
-2.84375741453e-07
1.81258659547e-07
-2.85690296354e-07
1.937150254e-07
-2.69889945864e-07
2.15001665745e-07
-2.79667318431e-07
2.14952585926e-07
-2.12384439413e-07
2.50296739982e-07
-2.06464175833e-07
2.89062390731e-07
-2.23105822973e-07
3.44731971631e-07
-2.6631567341e-07
4.05269499095e-07
-3.19571957391e-07
4.49103580416e-07
-3.37630746228e-07
4.85402841888e-07
-3.35243502603e-07
5.34854795842e-07
-3.54239802058e-07
5.88505224253e-07
-3.81946607867e-07
6.38058440395e-07
-3.98677945839e-07
6.86384960587e-07
-4.0692660094e-07
7.35639813797e-07
-4.11606987614e-07
7.87779969109e-07
-4.15579765946e-07
8.4001446993e-07
-4.13480154301e-07
8.88180481424e-07
-4.07280058749e-07
9.42286596006e-07
-4.13177041004e-07
9.93459499688e-07
-4.14104179556e-07
1.04342537543e-06
-4.15982946836e-07
1.09510739128e-06
-4.14833521593e-07
1.16205900721e-06
-4.2538558066e-07
1.22407664349e-06
-4.30259059266e-07
1.2856331247e-06
-4.38073169556e-07
1.3568524121e-06
-4.61557078142e-07
1.42997168329e-06
-4.79126438299e-07
1.49465690529e-06
-4.76794631025e-07
1.55563784584e-06
-4.65188844306e-07
1.61438713717e-06
-4.50243898953e-07
1.67106707352e-06
-4.33317693721e-07
1.72563195164e-06
-4.13831570245e-07
1.77783492348e-06
-3.91051317294e-07
1.82736859679e-06
-3.65016066378e-07
1.87369962777e-06
-3.36726085946e-07
1.91604101191e-06
-3.07476217744e-07
1.95373784754e-06
-2.78025097764e-07
1.98651753967e-06
-2.48424451289e-07
2.01435317091e-06
-2.18374593358e-07
2.03725399547e-06
-1.87565650849e-07
2.05521487258e-06
-1.55836478937e-07
2.06827057615e-06
-1.23192836548e-07
2.07650512582e-06
-8.97011455641e-08
2.07999210412e-06
-5.53142397031e-08
2.07870257056e-06
-1.97539781966e-08
2.07223153611e-06
1.76072199928e-08
2.05903597592e-06
5.81141883369e-08
2.03560179228e-06
1.04441298333e-07
1.99665284106e-06
1.60488969912e-07
1.9373060166e-06
2.28518249845e-07
1.85591993128e-06
3.07307134713e-07
1.7550692291e-06
3.93910680342e-07
1.64620836644e-06
4.79283783746e-07
1.5441673759e-06
5.6092200455e-07
1.45253154723e-06
6.48185633953e-07
1.3674027811e-06
7.48992920179e-07
1.29503307629e-06
8.59903944583e-07
1.17822620863e-06
9.81577811084e-07
9.95024825292e-07
9.5070228573e-07
8.70108588642e-07
8.24442591006e-07
7.69402812642e-07
7.79129118656e-07
6.76704063864e-07
7.65923965581e-07
6.08294708489e-07
7.9566807466e-07
5.44917284349e-07
8.4654340885e-07
4.42581339077e-07
8.77805362885e-07
3.16545563355e-07
9.04109467962e-07
1.98476238681e-07
8.87848249122e-07
1.16700293393e-07
8.14248012098e-07
6.00508468297e-08
6.84794594275e-07
7.09910609948e-09
5.80794549303e-07
-3.27535362956e-08
4.89141809691e-07
-2.30650545903e-08
4.57303927657e-07
4.42581392664e-07
2.76282438241e-08
-2.34784038282e-07
4.5984946169e-08
-2.77662752672e-07
4.2898649131e-08
-2.68544135529e-07
4.7508717921e-08
-2.04275685204e-07
9.3905916294e-08
-2.56044527198e-07
1.12924585611e-07
-2.96982425117e-07
1.33726908532e-07
-3.05143785668e-07
1.57490019576e-07
-3.09423604384e-07
1.6651761693e-07
-2.78886515112e-07
1.80585025719e-07
-2.9370747013e-07
1.96193754699e-07
-2.2796400166e-07
2.28617243131e-07
-2.38854110612e-07
2.69519289495e-07
-2.63965435498e-07
3.28090668849e-07
-3.2483851292e-07
3.7900592208e-07
-3.70439597007e-07
4.12518244621e-07
-3.7109602248e-07
4.52163506505e-07
-3.74839428143e-07
5.03385271613e-07
-4.05407718417e-07
5.55212228412e-07
-4.33716313514e-07
6.05000189697e-07
-4.48405061602e-07
6.54070405276e-07
-4.55932082419e-07
7.02108814568e-07
-4.59579885172e-07
7.5125284947e-07
-4.64656792794e-07
8.02431987007e-07
-4.6458834316e-07
8.50876070489e-07
-4.55650640392e-07
9.03311421834e-07
-4.65532786934e-07
9.58985817737e-07
-4.696951711e-07
1.01775338608e-06
-4.74662903072e-07
1.07876952949e-06
-4.7575811077e-07
1.1391620949e-06
-4.85679365246e-07
1.20415078704e-06
-4.95141606434e-07
1.28129599243e-06
-5.15105558801e-07
1.35444941462e-06
-5.34593026754e-07
1.42098054291e-06
-5.45537976829e-07
1.48542057737e-06
-5.4111465654e-07
1.54840671851e-06
-5.2805467104e-07
1.6097193322e-06
-5.11436480365e-07
1.66897220769e-06
-4.92451033758e-07
1.72593742742e-06
-4.70678244901e-07
1.78036932362e-06
-4.45365855907e-07
1.83186958619e-06
-4.16400631283e-07
1.87985712375e-06
-3.84599752611e-07
1.92362907807e-06
-3.51135901569e-07
1.96255305957e-06
-3.16838310869e-07
1.99621037206e-06
-2.81972480193e-07
2.02436273784e-06
-2.46419666788e-07
2.0468628094e-06
-2.09961616447e-07
2.06365090758e-06
-1.72523413343e-07
2.07481775544e-06
-1.34262500471e-07
2.08061855701e-06
-9.54017239487e-08
2.08134741083e-06
-5.59426381045e-08
2.07706695952e-06
-1.53591339629e-08
2.06701933189e-06
2.77929607666e-08
2.04866914743e-06
7.66003782938e-08
2.01708677168e-06
1.36203758374e-07
1.96555088629e-06
2.12198801204e-07
1.89069569265e-06
3.03556937631e-07
1.7954498879e-06
4.02783031896e-07
1.68145631237e-06
5.08166729058e-07
1.56421270753e-06
5.96822220339e-07
1.46349483494e-06
6.61945836789e-07
1.38107874581e-06
7.30917910984e-07
1.31733029081e-06
8.13054331706e-07
1.26493584862e-06
9.12603537745e-07
1.21248338471e-06
1.03433665521e-06
1.02845652632e-06
1.13505780499e-06
7.80342660167e-07
1.07285382931e-06
6.63000313064e-07
8.9673881053e-07
5.99402765715e-07
8.29772257778e-07
5.70897336221e-07
8.24421503328e-07
5.12530192954e-07
9.05149130675e-07
3.95983603777e-07
9.94596015872e-07
2.54866132243e-07
1.04548013315e-06
1.26808003788e-07
1.01615268987e-06
3.60696214133e-08
9.05216864711e-07
-3.37075028724e-08
7.54793086854e-07
-8.00391011811e-08
6.27341582087e-07
-9.72802278565e-08
5.06553898821e-07
-6.34463651798e-08
4.23717476186e-07
3.79206197187e-07
2.85637289102e-08
-2.63297111859e-07
4.37803914771e-08
-2.92847951235e-07
3.23820876021e-08
-2.57120026447e-07
5.03144101585e-08
-2.22185677856e-07
8.60437007168e-08
-2.91744423299e-07
9.37445882154e-08
-3.04658036588e-07
1.09205243156e-07
-3.20575226288e-07
1.22559709387e-07
-3.22756473273e-07
1.4211116417e-07
-2.98415657215e-07
1.40514991683e-07
-2.92086119422e-07
1.68551828689e-07
-2.55974910606e-07
2.04801704506e-07
-2.75069277528e-07
2.45990518162e-07
-3.05117124493e-07
2.96957920942e-07
-3.75763804088e-07
3.36116086064e-07
-4.09554606243e-07
3.64458878637e-07
-3.99397227322e-07
4.11138298059e-07
-4.21472462827e-07
4.64183732765e-07
-4.58401723617e-07
5.15301242588e-07
-4.84778417375e-07
5.66308101254e-07
-4.99353182118e-07
6.17544499403e-07
-5.07108529994e-07
6.67416905017e-07
-5.09388792289e-07
7.13496352161e-07
-5.10667819162e-07
7.62559329702e-07
-5.13581956446e-07
8.16876843625e-07
-5.09894669678e-07
8.6728049976e-07
-5.15855803424e-07
9.20534222033e-07
-5.22865331953e-07
9.73236569444e-07
-5.27277365584e-07
1.04169539349e-06
-5.44120279634e-07
1.11270970451e-06
-5.56590711689e-07
1.18748972852e-06
-5.69809846552e-07
1.26219782824e-06
-5.89694662188e-07
1.33962263113e-06
-6.11893979399e-07
1.40909060958e-06
-6.14881516411e-07
1.47493924203e-06
-6.06838125796e-07
1.54012957573e-06
-5.93119476217e-07
1.60427713908e-06
-5.75458566404e-07
1.66649046839e-06
-5.5453993231e-07
1.72626887275e-06
-5.30333617384e-07
1.78330740923e-06
-5.02283346551e-07
1.83717147159e-06
-4.70145848214e-07
1.88723462091e-06
-4.34546341636e-07
1.93279362437e-06
-3.96580800916e-07
1.97319268689e-06
-3.57125984287e-07
2.00787044808e-06
-3.16542082107e-07
2.03634295975e-06
-2.74788672863e-07
2.05822930329e-06
-2.31749186294e-07
2.07336140673e-06
-1.87563829108e-07
2.08188796464e-06
-1.42696666294e-07
2.08424588854e-06
-9.76726286039e-08
2.08099984868e-06
-5.25946513861e-08
2.0723834555e-06
-6.62516125136e-09
2.05753107683e-06
4.27844379017e-08
2.03340370631e-06
1.00895464837e-07
1.99413886272e-06
1.75608257253e-07
1.9313573046e-06
2.7512703568e-07
1.8445808492e-06
3.90561636038e-07
1.74131864056e-06
5.06187356446e-07
1.60443453037e-06
6.45298843635e-07
1.46021334575e-06
7.41387426946e-07
1.35572340616e-06
7.66805555675e-07
1.28522440177e-06
8.01764454886e-07
1.24300970612e-06
8.55586260525e-07
1.21772906007e-06
9.38185686098e-07
1.20369551388e-06
1.0486789837e-06
1.13991070036e-06
1.19915538613e-06
8.6259327707e-07
1.35047159998e-06
5.51800573122e-07
1.20778478321e-06
5.06850559032e-07
8.74952124036e-07
5.52229944059e-07
7.79280775709e-07
5.00504987173e-07
9.57112542439e-07
3.65510957973e-07
1.12983157883e-06
1.99345662297e-07
1.21188228341e-06
4.5355668117e-08
1.17036757686e-06
-8.07228591925e-08
1.03151563404e-06
-1.54213480601e-07
8.28484356555e-07
-1.91779858217e-07
6.65111199031e-07
-1.68921872526e-07
4.83914420939e-07
-9.98324782502e-08
3.54746324139e-07
2.79502100787e-07
2.34500880053e-08
-2.86745474881e-07
3.56291642922e-08
-3.05015073224e-07
2.90159019261e-08
-2.50494007267e-07
5.40424041714e-08