/*--------------------------------*- C++ -*----------------------------------*\
| =========                 |                                                 |
| \\      /  F ield         | OpenFOAM: The Open Source CFD Toolbox           |
|  \\    /   O peration     | Version:  v1806                                 |
|   \\  /    A nd           | Web:      www.OpenFOAM.com                      |
|    \\/     M anipulation  |                                                 |
\*---------------------------------------------------------------------------*/
FoamFile
{
    version     2.0;
    format      ascii;
    class       volVectorField;
    location    "977";
    object      Ua;
}
// * * * * * * * * * * * * * * * * * * * * * * * * * * * * * * * * * * * * * //

dimensions      [0 1 -1 0 0 0 0];


internalField   nonuniform List<vector> 
6400
(
(2.8421943404e-05 3.73313608506e-05 0)
(7.57648620295e-05 2.73716838489e-05 0)
(0.000110048396208 2.177111158e-05 0)
(0.000146092173241 1.95104015445e-05 0)
(0.00017418849803 1.42132739034e-05 0)
(0.000196388378064 1.03107641859e-05 0)
(0.000212378264029 9.18795075194e-06 0)
(0.000228071025031 1.20575810804e-05 0)
(0.000256501492187 1.55221524868e-05 0)
(0.000285962111243 1.57411666631e-05 0)
(0.000306489272655 1.51414092937e-05 0)
(0.000335628769893 1.6079801347e-05 0)
(0.000364833561413 1.61074637218e-05 0)
(0.000392454505521 1.56382970716e-05 0)
(0.00041854230077 1.5902364233e-05 0)
(0.000446628069884 1.74361759615e-05 0)
(0.000478501950766 1.839735337e-05 0)
(0.000510110444707 1.83198125492e-05 0)
(0.000540464949945 1.80879547334e-05 0)
(0.000572596074142 1.8780419192e-05 0)
(0.000609468712444 2.13043550922e-05 0)
(0.000650113644458 2.35571332069e-05 0)
(0.000691987522174 2.4204937538e-05 0)
(0.000732916776382 2.4141929753e-05 0)
(0.000773447338933 2.38680959468e-05 0)
(0.000814350606418 2.36456066683e-05 0)
(0.000856184903169 2.38375561349e-05 0)
(0.000898039347937 2.39338631358e-05 0)
(0.00093919757992 2.37988784259e-05 0)
(0.000979690409653 2.37362849192e-05 0)
(0.00101953199948 2.39854205972e-05 0)
(0.00106025726285 2.41057302364e-05 0)
(0.00110205378725 2.40787852592e-05 0)
(0.00114373036986 2.45813071152e-05 0)
(0.00118595976121 2.50025031691e-05 0)
(0.00123033967167 2.52101229605e-05 0)
(0.00127334048005 2.53222772408e-05 0)
(0.00131215848776 2.47914027901e-05 0)
(0.00135343576394 2.3898657925e-05 0)
(0.00139618526329 2.31044686581e-05 0)
(0.00143432139538 2.27758552061e-05 0)
(0.00146620850241 2.16267522029e-05 0)
(0.00149551137846 1.91607673872e-05 0)
(0.00152370781732 1.72676601409e-05 0)
(0.00154944096337 1.60911722482e-05 0)
(0.00157254135088 1.48236686743e-05 0)
(0.00159279309624 1.34212839012e-05 0)
(0.00160974744193 1.17453267136e-05 0)
(0.00162337457386 1.00398299028e-05 0)
(0.00163346670674 9.12944707041e-06 0)
(0.00164107762545 9.17660359284e-06 0)
(0.00164854616962 8.04860585591e-06 0)
(0.0016522094419 4.27586512306e-06 0)
(0.00165307208214 1.61792512988e-06 0)
(0.00164506420368 -9.96486896343e-07 0)
(0.00162412631235 -4.66279862375e-06 0)
(0.0016020457922 -4.54748629584e-06 0)
(0.00158934544028 -2.66109758663e-06 0)
(0.00157759677911 -3.73549065635e-06 0)
(0.00155185078726 -4.52350630201e-06 0)
(0.00152813539055 -1.72081675657e-06 0)
(0.00151297483063 -3.10408520998e-06 0)
(0.00152990519462 -1.3876451494e-05 0)
(0.00151229677882 -3.39658382449e-05 0)
(0.0013598620875 -4.17436667147e-05 0)
(0.00121212349506 -3.5995518548e-05 0)
(0.00113595262966 -3.80716129224e-05 0)
(0.00108391344268 -3.96803937348e-05 0)
(0.00102905939259 -4.28644198318e-05 0)
(0.000942880097904 -4.82187149958e-05 0)
(0.000846416357479 -5.21868614003e-05 0)
(0.000728229774336 -5.2933234986e-05 0)
(0.000611377784762 -5.40018349366e-05 0)
(0.000532244980528 -5.86158710075e-05 0)
(0.000389357509377 -4.63574846164e-05 0)
(0.000334866972028 -4.02294365778e-05 0)
(0.000216597749958 -2.44750199165e-05 0)
(0.000221696075329 -3.30107455635e-05 0)
(9.39138644487e-05 -2.28651625877e-05 0)
(7.00243797575e-05 -4.1867048184e-05 0)
(1.11406876028e-05 5.34034936562e-05 0)
(4.73972214995e-05 5.8703816125e-05 0)
(8.20532707932e-05 5.21411624591e-05 0)
(0.000105801761907 4.27039035396e-05 0)
(0.000149521104228 4.21932752211e-05 0)
(0.000187465214888 3.2129191153e-05 0)
(0.000212353413937 2.51295570117e-05 0)
(0.000233530465918 3.17536963328e-05 0)
(0.000257244579573 3.89960982465e-05 0)
(0.000283492794205 3.98987968451e-05 0)
(0.000309677230851 3.94296105801e-05 0)
(0.000335586446117 4.00033718051e-05 0)
(0.000361812580468 3.95621349449e-05 0)
(0.000388170082981 3.89128827542e-05 0)
(0.000415953372643 4.01727303932e-05 0)
(0.000445122727681 4.53483872793e-05 0)
(0.000475926514653 4.88983761096e-05 0)
(0.000506129669414 4.6484451603e-05 0)
(0.000530041360855 4.49408615632e-05 0)
(0.000564355800893 4.82770591023e-05 0)
(0.00060450991619 5.51871674284e-05 0)
(0.00064667578029 6.17171572186e-05 0)
(0.000690196387252 6.32162612687e-05 0)
(0.000731830993398 6.15369235128e-05 0)
(0.000769740973242 6.04162067514e-05 0)
(0.000811918966074 6.06483519376e-05 0)
(0.000854471435105 6.07861848227e-05 0)
(0.000895779392581 6.04612996769e-05 0)
(0.000936725417758 6.00480315316e-05 0)
(0.000977706175858 5.98953257077e-05 0)
(0.00101827110129 6.02532767499e-05 0)
(0.00105748233649 6.02711823901e-05 0)
(0.00109940381304 5.98559671214e-05 0)
(0.00114111029256 6.12985596778e-05 0)
(0.00118292246452 6.30069995612e-05 0)
(0.00122950384486 6.27019908518e-05 0)
(0.001271792522 6.22821630757e-05 0)
(0.00131071985617 6.14378047988e-05 0)
(0.00135352655583 5.91953266992e-05 0)
(0.00139917622614 5.57661268976e-05 0)
(0.00143798560395 5.0694820335e-05 0)
(0.00145850186751 4.50779039491e-05 0)
(0.00148144910688 4.09906233048e-05 0)
(0.0015113424537 3.80625340559e-05 0)
(0.00153824138286 3.50386547984e-05 0)
(0.00156331370749 3.14725241344e-05 0)
(0.00158608681263 2.72460717249e-05 0)
(0.00160476952868 2.24790583862e-05 0)
(0.0016218239616 1.74835546915e-05 0)
(0.00163507064307 1.27384171579e-05 0)
(0.0016410790507 8.73388627782e-06 0)
(0.00163686837345 5.00281929103e-06 0)
(0.0016353208369 7.36238864196e-07 0)
(0.00165311320836 -6.50381735864e-06 0)
(0.0016416042938 -1.74622241501e-05 0)
(0.00162528181372 -2.54053957862e-05 0)
(0.00161863545467 -2.63051212808e-05 0)
(0.00160554144065 -2.57825872758e-05 0)
(0.00158733417585 -2.91909039591e-05 0)
(0.00156927385556 -3.26303397318e-05 0)
(0.00154770199771 -3.3756855866e-05 0)
(0.00150608744796 -3.83824919621e-05 0)
(0.00152064962337 -6.81271960445e-05 0)
(0.00148455967923 -0.000126521403218 0)
(0.00134969628215 -0.00016058938638 0)
(0.00115412377869 -0.000139299371207 0)
(0.00104644466259 -0.000108825639873 0)
(0.00103942867671 -0.000103473089668 0)
(0.000990026904747 -0.000120733907927 0)
(0.000925737870979 -0.000148677229082 0)
(0.000819802287976 -0.000167830619886 0)
(0.000697370448334 -0.000168755227144 0)
(0.000566265943348 -0.000148744399611 0)
(0.000504748087584 -0.000144745289906 0)
(0.000423828922803 -0.000133000234362 0)
(0.000352811983674 -0.000118882424941 0)
(0.00028216820776 -9.9172353055e-05 0)
(0.000219331493022 -9.90942445379e-05 0)
(0.000133912467551 -0.000102621755133 0)
(6.16897624499e-05 -0.000165305881181 0)
(1.50405373879e-05 9.18766563806e-05 0)
(4.36678588021e-05 9.73430059375e-05 0)
(6.83729488903e-05 9.02908110826e-05 6.78653459651e-29)
(0.000112166228961 8.94097452135e-05 -6.12853359524e-29)
(0.000152652539691 8.75292672591e-05 -5.2610605568e-29)
(0.000180659924947 7.36655437156e-05 4.74497324591e-29)
(0.000203108100609 5.04369547703e-05 -4.69307591165e-29)
(0.0002247276169 5.546564887e-05 4.46393140978e-29)
(0.00024909422001 6.54988236217e-05 0)
(0.000276101927157 6.81752475061e-05 0)
(0.00030340018383 6.75398054677e-05 0)
(0.000329685513736 6.6561137192e-05 0)
(0.00035554285594 6.57590763599e-05 0)
(0.00038137227101 6.67027973881e-05 0)
(0.000409545938472 7.0333445896e-05 0)
(0.000439144938109 7.32785087627e-05 0)
(0.000440698448361 6.9712056355e-05 0)
(0.000454053613937 6.83135511028e-05 0)
(0.000487739369481 7.55910621867e-05 0)
(0.000534943995654 9.00626202183e-05 0)
(0.000599427743385 0.000104098241493 0)
(0.000646355267095 0.000108087059165 0)
(0.000682849364997 0.000106193905097 0)
(0.000724032664789 0.000104073679033 0)
(0.000766572688618 0.000103384225227 0)
(0.00080748758912 0.000103544671409 0)
(0.000848552324658 0.000103323492826 0)
(0.00089014986926 0.000102897922918 0)
(0.000931578578637 0.000102582147493 0)
(0.000972632317257 0.00010254393136 7.33339500723e-29)
(0.00101419481738 0.000102614279129 -7.06259141552e-29)
(0.00105223317063 0.000102449359093 0)
(0.00109407549929 0.000102705307861 0)
(0.00114014474581 0.000104135682026 0)
(0.00117617726833 0.000107205906202 0)
(0.00122346750861 0.0001090034433 0)
(0.00127269154593 0.000107077610248 0)
(0.0013081965394 0.000104929088051 0)
(0.00135167393824 0.000103278422694 0)
(0.00139779361519 9.73794889437e-05 0)
(0.00143682661903 8.63101478407e-05 0)
(0.00146844227377 7.62148781242e-05 0)
(0.00149755361235 7.09547334315e-05 0)
(0.00152586010637 6.7043104269e-05 0)
(0.00155179237828 6.20332725053e-05 0)
(0.00157483893931 5.60282490932e-05 0)
(0.00159505231862 4.90269298647e-05 0)
(0.00161239691406 4.14449676396e-05 0)
(0.00162694325112 3.33307865364e-05 0)
(0.001638378046 2.43751961089e-05 0)
(0.00164621977776 1.54025802268e-05 0)
(0.00165079914113 8.66611222724e-06 0)
(0.00165311832042 3.68918861221e-06 0)
(0.00164862846365 -7.52265163865e-06 0)
(0.00163680452422 -2.27170267494e-05 0)
(0.0016305075918 -3.19452100592e-05 0)
(0.00162154200271 -3.63488600445e-05 0)
(0.00160621311979 -4.05571591207e-05 0)
(0.001587215198 -4.55674259123e-05 0)
(0.00156599055642 -5.10445852492e-05 0)
(0.00153921393031 -5.87818732539e-05 0)
(0.00151702469004 -7.56360012892e-05 0)
(0.00148954861389 -0.00013903911678 0)
(0.00138637208491 -0.000235599726255 0)
(0.00119265469993 -0.000255816564957 0)
(0.00109036539601 -0.000219780886561 0)
(0.00104833967523 -0.000181446206133 0)
(0.000983111568642 -0.000170351255425 0)
(0.00091551969002 -0.000198487399366 0)
(0.000833435927767 -0.00023925571476 0)
(0.000729871853478 -0.000259977949724 0)
(0.000632428173811 -0.000251403647023 0)
(0.00057048371099 -0.000235073824447 0)
(0.000507565400343 -0.000228905007796 0)
(0.000423053505641 -0.000220119608051 0)
(0.000337287329206 -0.000198890009096 0)
(0.000258927996731 -0.000174232101742 0)
(0.000195857856315 -0.000181296740375 0)
(0.000134713598315 -0.000230718742202 0)
(3.41614598e-05 -0.000225685462349 0)
(1.36684100655e-05 0.000131648308653 0)
(2.20442399673e-05 9.4584354806e-05 0)
(5.34701564121e-05 0.000132335820127 0)
(9.26959251468e-05 0.000130767302896 0)
(0.000131343889761 0.000115220684371 0)
(8.6733563018e-05 5.41647359392e-05 0)
(0.000111813066064 5.89573756617e-05 0)
(0.00019419089934 9.82003589989e-05 0)
(0.000232083846016 0.000102342037854 0)
(0.000263160595972 9.84511653487e-05 0)
(0.000292879383024 9.59505169346e-05 0)
(0.000320495320804 9.31843444423e-05 0)
(0.000346819182442 9.18481528997e-05 0)
(0.000370804610356 9.05716863034e-05 0)
(0.000379056513921 8.59243079081e-05 0)
(0.000386379668697 8.26821587836e-05 0)
(0.000406634299386 8.62343631136e-05 0)
(0.000445507230618 0.00010176401008 0)
(0.000504533556118 0.000125657122702 0)
(0.000558929988368 0.000145489595749 0)
(0.000596593909238 0.000151155228932 0)
(0.000635604349009 0.000149393594736 0)
(0.000676639789906 0.000147272513414 0)
(0.000717293940932 0.000145865963847 0)
(0.000757862484561 0.000144813501153 0)
(0.00079851861811 0.000144298647228 0)
(0.000839569769769 0.000144250164042 0)
(0.00088210116096 0.000144258937363 0)
(0.000923320204384 0.00014391538947 0)
(0.000966156532976 0.000143976269584 0)
(0.0010053849714 0.000143688266001 0)
(0.00104824754937 0.000143618517421 0)
(0.00108496291773 0.000142932373476 0)
(0.00113045856937 0.000146359520181 0)
(0.00118100964594 0.000151739278809 0)
(0.00121979354666 0.000153838229824 0)
(0.00126881159989 0.000152494893081 0)
(0.00131695020211 0.000149241455353 0)
(0.00135841486832 0.000144935191201 0)
(0.00139799285973 0.000135984514365 0)
(0.00143535465507 0.000122641896971 0)
(0.00146895645537 0.000109870742784 0)
(0.00149973342288 0.000100763339333 0)
(0.00152837701807 9.35109788191e-05 0)
(0.00155433628925 8.58040880266e-05 0)
(0.00157737751023 7.70767561359e-05 -5.88402773332e-29)
(0.0015975331135 6.74042250584e-05 5.90132458979e-29)
(0.00161479159191 5.70101855544e-05 0)
(0.00162914419261 4.59509366463e-05 0)
(0.00164042405991 3.42995740218e-05 0)
(0.00164834811759 2.27931076185e-05 0)
(0.00165270138698 1.21266844342e-05 0)
(0.00165321322195 6.09697468436e-07 0)
(0.00164891396753 -1.4300940886e-05 0)
(0.0016412253699 -2.93475477091e-05 0)
(0.00163259801877 -4.08908445531e-05 0)
(0.00162113900779 -5.02747019245e-05 0)
(0.00160459537144 -5.89606924696e-05 -1.05685704002e-28)
(0.00158329580557 -6.76809573467e-05 1.20298939923e-28)
(0.00155699930368 -7.78770482149e-05 0)
(0.00152361846231 -9.47785456571e-05 0)
(0.00148031588222 -0.000138279377107 0)
(0.00140182550837 -0.000237352926347 0)
(0.00129601580169 -0.000349239465514 0)
(0.00121084397276 -0.000374943903352 0)
(0.00105084611105 -0.000292329572855 0)
(0.000957929867068 -0.000241124943808 0)
(0.000902016202101 -0.000241396323617 0)
(0.000841362929329 -0.00027590838247 0)
(0.000785623320681 -0.000329650790683 0)
(0.000709977765516 -0.000356916006567 0)
(0.00062859845752 -0.000345333333422 0)
(0.000542031923522 -0.000324343163728 0)
(0.000430883260469 -0.000301068499371 0)
(0.000349232419856 -0.000292332474143 0)
(0.000273941398309 -0.000284810026739 0)
(0.000193338754575 -0.000254214393698 0)
(0.000110809179724 -0.000202337800524 0)
(8.07474770401e-05 -0.000254634295917 0)
(2.71546811609e-05 -0.000293076128202 0)
(1.47329175019e-06 0.000134237567334 0)
(1.1728467245e-05 0.000113641334785 0)
(4.47808470594e-05 0.000167632959426 0)
(7.61805875412e-05 0.000158718939148 0)
(8.94318981778e-05 0.000117292334124 0)
(7.66613208012e-05 7.40606531907e-05 0)
(0.000129659644338 0.000114567477355 0)
(0.000183682976519 0.000147657052509 0)
(0.000212031358218 0.000139518766633 0)
(0.000245270201562 0.000131081530892 0)
(0.000276892597761 0.000127381079826 0)
(0.000305920338273 0.000122683949835 0)
(0.000323468456914 0.000112063031195 0)
(0.000321924645401 9.79550330323e-05 0)
(0.000341952729614 9.89998523711e-05 0)
(0.000375626417111 0.000110835916218 0)
(0.000421196978194 0.000130723131213 0)
(0.000471347819683 0.000155212281621 0)
(0.000513587167128 0.000174080065603 0)
(0.0005461288071 0.000182473560869 0)
(0.000583938820231 0.000187860482775 0)
(0.000624997391106 0.000190114903815 0)
(0.00066517413312 0.00018886506631 0)
(0.000705582738984 0.000186875667706 0)
(0.000746001937944 0.000185573481725 0)
(0.000786476694018 0.000185452659205 0)
(0.000828885244141 0.000186008144834 0)
(0.000869649037659 0.000185920033241 0)
(0.000914079303484 0.000186129045888 0)
(0.000953238121187 0.00018523526665 0)
(0.000998484190357 0.000185696723851 7.03942895499e-29)
(0.00103091385476 0.000184114787706 -6.73953688621e-29)
(0.00108089447246 0.00018761996946 0)
(0.00113183698939 0.000192629161296 0)
(0.00117398637749 0.00019720254502 0)
(0.0012260253286 0.000201476354405 0)
(0.00127302805345 0.000200357173541 0)
(0.00131687115863 0.000193720450735 0)
(0.00135831227224 0.000184745128374 0)
(0.00139788006664 0.00017324911898 0)
(0.00143549102629 0.000158834032466 0)
(0.00147031860624 0.000144195586121 0)
(0.00150228032126 0.000131792461378 0)
(0.00153148777657 0.000121006226487 0)
(0.00155772275283 0.00011018029019 0)
(0.00158091299926 9.85525403637e-05 0)
(0.00160109511759 8.60388087655e-05 0)
(0.00161826613599 7.27566340033e-05 0)
(0.00163238403175 5.87664056245e-05 0)
(0.00164332582589 4.41873357088e-05 0)
(0.0016508699526 2.94135464516e-05 0)
(0.00165469675041 1.45436817753e-05 0)
(0.00165442805529 -1.44139719449e-06 0)
(0.00164992415329 -1.91665536628e-05 0)
(0.00164234497515 -3.65613693282e-05 0)
(0.00163253786188 -5.19483608443e-05 0)
(0.00161865709205 -6.62510284999e-05 0)
(0.00159841040491 -8.06824166926e-05 0)
(0.0015705292012 -9.65684901212e-05 0)
(0.00153296309417 -0.000117657381836 0)
(0.00148176667865 -0.000154040708338 0)
(0.00141042272843 -0.000223832856455 0)
(0.00130696767771 -0.000330660978613 0)
(0.00123193176376 -0.000430283803946 0)
(0.00118277296787 -0.000466277081872 0)
(0.00105496157534 -0.000406647835915 0)
(0.000938532971441 -0.0003450963738 0)
(0.000845548098886 -0.000323587144876 0)
(0.000768878850501 -0.000344375351711 0)
(0.000711269567275 -0.000393863604732 0)
(0.000654439613387 -0.000437270449236 0)
(0.000570312579401 -0.000438596590787 0)
(0.000452188456774 -0.000400568334654 0)
(0.000369160251827 -0.000386565208481 0)
(0.000290659525069 -0.000383920975082 0)
(0.000212235425669 -0.000370511427388 0)
(0.00013868475737 -0.000304703550997 0)
(8.74303074699e-05 -0.000257551830373 0)
(5.43927445115e-05 -0.000316690502336 0)
(1.34034778081e-05 -0.000324897535945 0)
(-4.64762917801e-07 0.00012642681441 0)
(1.23407383961e-05 0.000135244422877 0)
(4.18328076159e-05 0.000189567265547 0)
(6.14108957665e-05 0.000169589398847 0)
(5.08474834178e-05 9.6795049488e-05 0)
(7.29355876807e-05 0.000102577970543 0)
(0.000142959101595 0.000168756379106 0)
(0.000167306186534 0.000176362698873 0)
(0.000193214753648 0.000170175606031 0)
(0.000224055681981 0.000164796729339 0)
(0.000256011202965 0.000155619900729 0)
(0.000259847392414 0.000133003975816 0)
(0.000253707185208 0.000109832202109 0)
(0.000280850308022 0.000114341968712 0)
(0.000317166182107 0.00013210258195 0)
(0.000370377673018 0.000158385793071 0)
(0.000422025234424 0.000181344761483 0)
(0.000463206298516 0.000196587248079 0)
(0.00049205713039 0.000205474372464 0)
(0.000530168328619 0.00021803394995 0)
(0.000571394085923 0.000227846591444 0)
(0.000610510573079 0.000230404425226 0)
(0.00065001262194 0.000229458143775 0)
(0.000689995087308 0.000227784554267 0)
(0.000731741807445 0.000227057744796 0)
(0.000772468306868 0.000226545553164 0)
(0.000810841833474 0.000227264234671 0)
(0.000857984597568 0.000229244021024 0)
(0.000895039262532 0.000227315934453 0)
(0.000944078366425 0.000227561661984 0)
(0.00097352644911 0.000224793235893 0)
(0.00102696304222 0.00022994574103 0)
(0.00106178473826 0.000232620587522 0)
(0.00112115149063 0.000241495122233 0)
(0.00117882602537 0.000249153648496 0)
(0.00122731981532 0.000250842896804 0)
(0.00127234612072 0.000245620912373 0)
(0.00131584376457 0.000236481532821 0)
(0.00135779572253 0.000225178546666 0)
(0.00139810058872 0.000211622000634 0)
(0.00143644615015 0.000195709075529 0)
(0.00147228695215 0.000179074986895 0)
(0.00150526749563 0.000163544683727 0)
(0.00153518611051 0.000149165716181 0)
(0.0015618942351 0.000134939118359 0)
(0.00158536330212 0.000120155749097 0)
(0.00160563280682 0.000104601791876 0)
(0.00162268328004 8.82825709142e-05 0)
(0.00163644552919 7.12250760672e-05 0)
(0.00164682179594 5.35024573674e-05 0)
(0.00165364766064 3.52524402234e-05 0)
(0.00165666184034 1.63707159336e-05 0)
(0.00165563419738 -3.60292374414e-06 0)
(0.00165067504484 -2.45558563874e-05 0)
(0.00164228971349 -4.53671179096e-05 0)
(0.00162998695611 -6.57629298293e-05 0)
(0.00161128155962 -8.69979691737e-05 0)
(0.00158318391835 -0.000110679791388 0)
(0.00154307280747 -0.000139214496073 0)
(0.00148787491137 -0.000177576107778 0)
(0.00141524811391 -0.000235044800499 0)
(0.00132388377838 -0.00031750293161 0)
(0.00120864637725 -0.000406934464915 0)
(0.00117524111516 -0.000509601471828 0)
(0.00108118565278 -0.000537814181627 0)
(0.000962889786813 -0.000488653050771 0)
(0.000875019588127 -0.00044355521506 0)
(0.000783970648114 -0.000412939720407 0)
(0.000697175604183 -0.000412795428846 0)
(0.000648268201646 -0.000467146043287 0)
(0.00059199335715 -0.000528568422653 0)
(0.000483649577499 -0.000509585565944 0)
(0.000391499092112 -0.000480332379992 0)
(0.000316382213384 -0.00047817573489 0)
(0.00023069688635 -0.000469805533932 0)
(0.000163712730454 -0.000440248530319 0)
(0.0001029799271 -0.000343194626964 0)
(6.24291241672e-05 -0.000299667084032 0)
(3.48452080949e-05 -0.000351234071147 0)
(9.382605222e-06 -0.000346277252258 0)
(3.60446221909e-06 0.000135841502133 0)
(2.40551286044e-05 0.000168890246787 0)
(4.96937588397e-05 0.000203806306834 0)
(5.62533573583e-05 0.00019899247187 0)
(4.45136030146e-05 0.000121574567004 0)
(9.27610486016e-05 0.000165879697903 0)
(0.00013423566834 0.00019841194229 0)
(0.000151145619867 0.000198499442204 0)
(0.000174570700016 0.000195453191692 0)
(0.000196995380747 0.000190967231804 0)
(0.000231451758991 0.000179450864354 -2.13076766758e-28)
(0.000204073521151 0.000128605594873 1.46084295903e-28)
(0.000234822073839 0.000132780934024 0)
(0.000262775312482 0.00014902706842 0)
(0.000312150471922 0.000180696290195 0)
(0.000366601779814 0.000212069694007 0)
(0.000407547590546 0.000225187658676 0)
(0.000431597811846 0.000226761725813 0)
(0.000470706144547 0.000241194973499 0)
(0.000514691787028 0.000258809806854 0)
(0.000552772345355 0.000267157994937 0)
(0.000591982251175 0.000269967489015 0)
(0.000632131043343 0.000270240747069 0)
(0.000672703752309 0.000268836389759 0)
(0.000711709766863 0.000266818585109 0)
(0.000750422750187 0.000266457850156 0)
(0.000796510584578 0.00026944037833 0)
(0.000830445418811 0.000270010507369 0)
(0.000883581968509 0.000271564123156 0)
(0.000911046857579 0.000264445430267 0)
(0.000967946023706 0.000270254021707 0)
(0.00100351114413 0.000274783783089 -6.70144985453e-29)
(0.00106242395604 0.0002853108449 6.65674023644e-29)
(0.00111735183229 0.00029659974389 0)
(0.00117656962688 0.000303026906041 0)
(0.00122496327571 0.000299324840994 0)
(0.00126991844885 0.000290626383734 0)
(0.00131407537958 0.000279575455473 0)
(0.00135719720508 0.000266529242877 0)
(0.00139867329296 0.00025115991829 0)
(0.00143804844992 0.000233491674377 0)
(0.00147494254892 0.000214660682566 0)
(0.00150893172863 0.000196057978557 0)
(0.00153967108394 0.000178074578573 0)
(0.00156698237428 0.000160237302949 0)
(0.00159082520163 0.000142012359385 0)
(0.00161119338359 0.00012312965593 0)
(0.00162802047703 0.000103501850794 0)
(0.00164122121027 8.31129631806e-05 0)
(0.00165074355703 6.19860520565e-05 0)
(0.00165651979485 4.01284771853e-05 0)
(0.00165842386622 1.74053822658e-05 0)
(0.00165635707895 -6.38401142235e-06 0)
(0.00165028650117 -3.11776615264e-05 0)
(0.00163980032381 -5.69492182471e-05 0)
(0.00162301617371 -8.47238605999e-05 0)
(0.00159634183504 -0.00011641941199 0)
(0.00155600972721 -0.000153921551934 0)
(0.00149964267735 -0.00019920581335 0)
(0.00142799077361 -0.000254524149935 0)
(0.00134432054581 -0.000323322838547 0)
(0.00125377542932 -0.000405074862198 0)
(0.00117575155328 -0.000494127366516 0)
(0.00110685183976 -0.000589402003924 0)
(0.001018063964 -0.000627753896238 0)
(0.000865229412722 -0.00055726729027 0)
(0.00080705789361 -0.000526200269317 0)
(0.000736262876697 -0.000507895378803 0)
(0.000653927298853 -0.000505604345882 0)
(0.000591074535715 -0.00055245733447 0)
(0.000519855897218 -0.000596287965214 0)
(0.000425070934563 -0.000576294521408 0)
(0.000349980995986 -0.000573923227196 0)
(0.000260473491616 -0.00056976062098 0)
(0.000177961871028 -0.000550921466173 0)
(0.000117337922929 -0.000475995169377 0)
(7.35549834106e-05 -0.000394493229418 0)
(3.05317926175e-05 -0.00033538378577 0)
(1.05874049868e-05 -0.00036728223928 0)
(3.76204901286e-06 -0.000366464121566 0)
(7.39347842832e-06 0.000154869555478 0)
(3.0984985114e-05 0.000196987453973 0)
(5.15249135368e-05 0.000211364614302 0)
(3.59161404578e-05 0.000147658859441 0)
(4.3179655571e-05 0.000146149062485 0)
(9.49112989593e-05 0.000211444653984 0)
(0.000115812015574 0.000218159931272 0)
(0.00013517456065 0.000219017659742 0)
(0.000150873402961 0.000215936020494 0)
(0.00017591021868 0.000213262977228 0)
(0.000160434713176 0.000157761890355 0)
(0.000184209940739 0.00015022566795 0)
(0.000214439376764 0.000162479530659 0)
(0.00024734377808 0.000187773493247 0)
(0.000307010774868 0.000233381644803 0)
(0.000349571894196 0.00025425732828 0)
(0.000369717588218 0.00025126238587 0)
(0.00040486468193 0.000261857406314 0)
(0.000451664633209 0.000284338645929 0)
(0.00049256994079 0.00029914557725 0)
(0.000530042817238 0.000305693005073 0)
(0.000568555084289 0.000308990360537 0)
(0.000609650780537 0.00031125285909 0)
(0.000650234589911 0.00031033406105 0)
(0.000692450303402 0.000307648191674 0)
(0.000727212171191 0.000307868446249 0)
(0.000777501468142 0.000312914943619 0)
(0.000815045861931 0.000311983360867 0)
(0.000849170424365 0.000308807697932 0)
(0.000897397921108 0.000311755296386 0)
(0.000959769358832 0.000321426396936 0)
(0.000999487056983 0.000324828566807 0)
(0.0010493860339 0.000338342321745 0)
(0.0011185867928 0.000354550871024 0)
(0.00117093667718 0.000355880997916 0)
(0.00121930788803 0.000347744588766 0)
(0.00126617832587 0.000336628831694 0)
(0.00131192156676 0.000323954777461 0)
(0.00135654179904 0.000309286274519 0)
(0.00139949872431 0.000292090569303 0)
(0.00144021781181 0.000272418819721 0)
(0.00147832258188 0.000251156204565 0)
(0.00151342384369 0.000229427488024 0)
(0.00154511987593 0.000207787923457 0)
(0.00157316045553 0.000186138372435 -5.71853409748e-29)
(0.00159744036914 0.000164148016093 5.69187131692e-29)
(0.0016178656479 0.000141551271133 0)
(0.00163430026532 0.000118216894971 0)
(0.00164665328989 9.41259446671e-05 0)
(0.00165494538715 6.93050237712e-05 0)
(0.00165924078421 4.37198452494e-05 0)
(0.00165957339214 1.71964930684e-05 0)
(0.00165589975858 -1.05827075401e-05 0)
(0.00164780389597 -4.0203601421e-05 0)
(0.00163374569526 -7.30296192133e-05 0)
(0.0016102660706 -0.000111504905303 0)
(0.00157267259546 -0.000157785202429 0)
(0.00151792363671 -0.00021229208915 0)
(0.00144694112225 -0.00027403394375 0)
(0.0013653885127 -0.000339464503741 0)
(0.00128106386808 -0.000408238889311 0)
(0.00120152279591 -0.000483644944285 0)
(0.00113191686867 -0.000567665048891 0)
(0.0010590008065 -0.000658844825618 0)
(0.00103132970497 -0.000750423035528 0)
(0.000849402961925 -0.000668715293895 0)
(0.000722818587295 -0.000601116057555 0)
(0.000654995376887 -0.000584356447997 0)
(0.000575792725224 -0.000577564753843 0)
(0.000520575563135 -0.000611720011832 0)
(0.000464144502224 -0.000648122241459 0)
(0.00038987486361 -0.000656117259047 0)
(0.000305302195361 -0.000671826460712 0)
(0.000206099431612 -0.000663922519937 0)
(0.000125580177808 -0.00061920506423 0)
(6.80408695924e-05 -0.000518689404941 0)
(2.62375024643e-05 -0.000443513577587 0)
(-1.16050757059e-05 -0.000374509550488 0)
(-2.46934260728e-05 -0.000369117408498 0)
(-1.00731985745e-05 -0.000369547438364 0)
(9.3663620532e-06 0.000176683248901 0)
(3.15381233882e-05 0.000216805543268 0)
(3.90676853296e-05 0.000217600932695 0)
(3.08234636427e-05 0.000159371787086 0)
(5.33203669395e-05 0.000182085113562 0)
(8.81706094655e-05 0.000231604712225 0)
(9.83643140108e-05 0.000235662124182 0)
(0.000119525010122 0.000237123832528 0)
(0.000123181004532 0.000220739724555 0)
(0.000154697970001 0.000239316086035 0)
(0.00013919156931 0.000176092540195 0)
(0.000168247747535 0.000177328677456 0)
(0.000195147642982 0.000194564767409 0)
(0.000239989703872 0.000237348793223 0)
(0.000288455781207 0.000277359798829 0)
(0.000321534651407 0.000287666596125 0)
(0.000340956955856 0.000284131262718 0)
(0.000381418058307 0.000303317893379 0)
(0.000425450947078 0.000326016299391 0)
(0.000465239966629 0.000338774404419 0)
(0.000504397386104 0.000344999907158 0)
(0.00054235638799 0.000347983469909 0)
(0.00058297495528 0.000351064418858 0)
(0.0006197987684 0.000349941099033 0)
(0.000657406532703 0.00034530362417 0)
(0.000707526065588 0.000350697477878 0)
(0.000734500412599 0.000350161238568 0)
(0.0007993044492 0.000358825350875 0)
(0.000827921381902 0.000355954951124 0)
(0.000893014214205 0.00036695792729 0)
(0.000925964601813 0.00036584298844 0)
(0.000996149104178 0.000381912538113 0)
(0.00105443697507 0.000399381646314 -6.82793471985e-29)
(0.00111000053248 0.000409600083365 6.7179559948e-29)
(0.00116221718674 0.000406898418411 0)
(0.00121242191701 0.000397114128443 0)
(0.00126153630901 0.000384530768242 0)
(0.00130935156515 0.000370218801109 0)
(0.00135579927185 0.000353794865989 0)
(0.00140049694635 0.000334657226541 0)
(0.00144287579071 0.000312763283185 0)
(0.00148247678186 0.000288829156154 0)
(0.00151888950094 0.000263834291623 0)
(0.0015517102068 0.000238415711286 0)
(0.00158062723236 0.00021270966688 0)
(0.0016054025748 0.000186555459914 0)
(0.00162580337913 0.00015974059786 0)
(0.00164161371605 0.000132161605886 0)
(0.00165274423251 0.000103872802571 0)
(0.00165929880199 7.4982320343e-05 0)
(0.0016615023068 4.54704411865e-05 0)
(0.00165957740413 1.50252817992e-05 0)
(0.00165351256703 -1.71605698819e-05 0)
(0.00164240757182 -5.28460292785e-05 0)
(0.00162352426948 -9.51785659441e-05 0)
(0.00159170677952 -0.000148006948747 0)
(0.00154179761545 -0.000211984850259 0)
(0.00147430541934 -0.000283415061765 0)
(0.00139331212237 -0.000359711784506 0)
(0.00130361075692 -0.00042988349575 0)
(0.00121606078783 -0.000490839355988 0)
(0.00113945572671 -0.000554621466835 0)
(0.00107758926919 -0.000627362080635 0)
(0.00102900955096 -0.00071174002894 0)
(0.000998319648686 -0.000809302197283 0)
(0.000934897740128 -0.000851224643116 0)
(0.000689343600653 -0.00070626664933 0)
(0.000566271918964 -0.000668673699582 0)
(0.000504840903822 -0.000649390423229 0)
(0.000469374064632 -0.000652106127772 0)
(0.000431777643237 -0.000695461288228 0)
(0.000365105967091 -0.000747167122781 0)
(0.000262978629956 -0.000779939917681 0)
(0.000151986749981 -0.000761471900138 0)
(6.26328222806e-05 -0.000683440994612 0)
(-6.64247973128e-07 -0.000574517435868 0)
(-4.6853655129e-05 -0.000485088304947 0)
(-7.30860310927e-05 -0.00040588887457 0)
(-6.68523861914e-05 -0.000356948189346 0)
(-2.69996543865e-05 -0.000333636792392 0)
(1.0034194789e-05 0.000200602322829 0)
(3.16799050973e-05 0.000229439541106 0)
(3.17028462659e-05 0.000216490632354 0)
(2.73352492775e-05 0.000170069406376 0)
(5.78900857411e-05 0.000226921140572 0)