/*--------------------------------*- C++ -*----------------------------------*\
| =========                 |                                                 |
| \\      /  F ield         | OpenFOAM: The Open Source CFD Toolbox           |
|  \\    /   O peration     | Version:  v1806                                 |
|   \\  /    A nd           | Web:      www.OpenFOAM.com                      |
|    \\/     M anipulation  |                                                 |
\*---------------------------------------------------------------------------*/
FoamFile
{
    version     2.0;
    format      ascii;
    class       volVectorField;
    location    "941";
    object      Ua;
}
// * * * * * * * * * * * * * * * * * * * * * * * * * * * * * * * * * * * * * //

dimensions      [0 1 -1 0 0 0 0];


internalField   nonuniform List<vector> 
6400
(
(2.58725846408e-05 3.3686859171e-05 0)
(6.8967721062e-05 2.47759247275e-05 0)
(0.00010012514779 1.97596555501e-05 0)
(0.000133089190936 1.77744376047e-05 0)
(0.00015883203097 1.29876874688e-05 0)
(0.000179219756197 9.47027363912e-06 0)
(0.000193970145872 8.49905294366e-06 0)
(0.000208542034368 1.12004452693e-05 0)
(0.000235136570107 1.44738520304e-05 0)
(0.000262790425593 1.47414634414e-05 0)
(0.000282033326815 1.42192743619e-05 0)
(0.000309568127333 1.51706718728e-05 0)
(0.000337282605412 1.52667449308e-05 0)
(0.000363610109522 1.4890911165e-05 0)
(0.000388560197695 1.51925120646e-05 0)
(0.00041548339719 1.67043153199e-05 0)
(0.000446094104199 1.7657540525e-05 0)
(0.000476501823707 1.7622855767e-05 0)
(0.000505753703026 1.74265542279e-05 0)
(0.000536760854134 1.81210078974e-05 0)
(0.000572420992196 2.05990972886e-05 0)
(0.000611828142855 2.28384157584e-05 0)
(0.000652510033554 2.35174873303e-05 0)
(0.000692328436705 2.35082268633e-05 0)
(0.000731813765705 2.32805256282e-05 0)
(0.000771713280146 2.31057184433e-05 0)
(0.000812597084481 2.33383922604e-05 0)
(0.000853578347833 2.34856403183e-05 0)
(0.000893948533372 2.33978498119e-05 0)
(0.000933740068392 2.33866323434e-05 0)
(0.000972961716232 2.36822505585e-05 0)
(0.00101315029744 2.38609346498e-05 0)
(0.00105449935796 2.38928721811e-05 0)
(0.00109583266234 2.44651401004e-05 0)
(0.00113782557836 2.49480140891e-05 0)
(0.0011821217299 2.52366185367e-05 0)
(0.00122520366356 2.54336881501e-05 0)
(0.00126417165186 2.49787754938e-05 0)
(0.0013057785383 2.41657913902e-05 0)
(0.00134907090028 2.34807865742e-05 0)
(0.00138793243531 2.32769377816e-05 0)
(0.0014206692863 2.22177268094e-05 0)
(0.00145092434761 1.97725052109e-05 0)
(0.00148015557059 1.79176549475e-05 0)
(0.00150700466837 1.67968475091e-05 0)
(0.00153133450733 1.55905120565e-05 0)
(0.00155292824472 1.42454004678e-05 0)
(0.00157132123574 1.26248453077e-05 0)
(0.00158648620561 1.09713833467e-05 0)
(0.00159822116791 1.0151477069e-05 0)
(0.00160763430434 1.03288197134e-05 0)
(0.00161718032218 9.28733294294e-06 0)
(0.00162288160583 5.45604522503e-06 0)
(0.00162590642797 2.82679515812e-06 0)
(0.00162005203884 2.42480667872e-07 0)
(0.00160089523011 -3.48893059884e-06 0)
(0.0015806851774 -3.23343570985e-06 0)
(0.00157062492294 -1.06897219919e-06 0)
(0.00156205065188 -2.06504071461e-06 0)
(0.00153873602779 -2.78997177106e-06 0)
(0.00151791611575 3.95384719565e-07 0)
(0.00150567325651 -9.5145036915e-07 0)
(0.00152946856159 -1.24265617418e-05 0)
(0.00151376491014 -3.40044232327e-05 0)
(0.00135239288066 -4.21934466673e-05 0)
(0.00120502287827 -3.60034482881e-05 0)
(0.00113032721914 -3.81066758331e-05 0)
(0.00107868066825 -3.96991907589e-05 0)
(0.00102401386 -4.2858557527e-05 0)
(0.000937840837552 -4.81704345302e-05 0)
(0.000841535828827 -5.20582830085e-05 0)
(0.00072376695519 -5.27362576091e-05 0)
(0.000607584517378 -5.37496837164e-05 0)
(0.000528941466084 -5.83039186812e-05 0)
(0.000386962436764 -4.61127569989e-05 0)
(0.000332808133037 -4.00255383932e-05 0)
(0.000215304337234 -2.43714180624e-05 0)
(0.000220384279824 -3.28695240932e-05 0)
(9.33896163435e-05 -2.27639032325e-05 0)
(6.96354937766e-05 -4.17198624357e-05 0)
(1.01146699955e-05 4.79516545036e-05 0)
(4.30182935397e-05 5.29011099438e-05 0)
(7.44364005436e-05 4.70957402974e-05 0)
(9.58928843495e-05 3.86511299427e-05 0)
(0.000135822555858 3.83832726411e-05 0)
(0.000170738245124 2.94603939207e-05 0)
(0.000193812404736 2.32540124646e-05 0)
(0.000213587236396 2.95271563572e-05 0)
(0.000235759780294 3.6371547764e-05 0)
(0.000260350056063 3.73494657795e-05 0)
(0.000284962519122 3.70550344729e-05 0)
(0.000309415808574 3.77540932947e-05 0)
(0.000334278075843 3.75159462527e-05 0)
(0.00035937824367 3.70810650685e-05 0)
(0.000385943036148 3.84305967397e-05 0)
(0.000413934390105 4.34755076659e-05 0)
(0.000443539730365 4.69620594691e-05 0)
(0.000472589620358 4.47429064411e-05 0)
(0.00049555108886 4.33249493371e-05 0)
(0.000528633361252 4.65988215575e-05 0)
(0.000567466472584 5.33567584358e-05 0)
(0.000608379994908 5.98028870213e-05 0)
(0.000650704381188 6.13891792053e-05 0)
(0.000691227225685 5.98565208499e-05 0)
(0.000728095669251 5.88468933564e-05 0)
(0.000769262140365 5.91778666924e-05 0)
(0.000810853817011 5.94239628177e-05 0)
(0.000851278339564 5.92176782557e-05 0)
(0.00089142245628 5.8927156288e-05 0)
(0.00093168549931 5.88971098236e-05 0)
(0.000971627042209 5.93806677686e-05 0)
(0.00101027267278 5.95370683087e-05 0)
(0.0010517271045 5.92746528568e-05 0)
(0.00109307345239 6.0889067072e-05 0)
(0.00113462662921 6.27763813645e-05 0)
(0.00118116113318 6.26605771398e-05 0)
(0.00122349364716 6.24582783335e-05 0)
(0.00126258157188 6.1832677741e-05 0)
(0.0013057596596 5.98164355059e-05 0)
(0.00135202196739 5.66422466468e-05 0)
(0.00139157090645 5.17869929968e-05 0)
(0.00141246010785 4.63026717943e-05 0)
(0.00143609975815 4.23627334627e-05 0)
(0.00146705950308 3.96191997476e-05 0)
(0.00149509395295 3.67819312914e-05 0)
(0.00152148066952 3.33988335497e-05 0)
(0.00154572395717 2.93414419066e-05 0)
(0.00156593856759 2.47262371589e-05 0)
(0.00158469994318 1.98789918187e-05 0)
(0.00159972694003 1.52907566307e-05 0)
(0.00160746417754 1.14599956628e-05 0)
(0.00160473778635 7.89285824252e-06 0)
(0.00160489286001 3.80782271044e-06 0)
(0.00162593741967 -3.29173627027e-06 0)
(0.00161639996796 -1.43486832202e-05 0)
(0.00160219875148 -2.22839353245e-05 0)
(0.00159857469248 -2.28003063041e-05 0)
(0.00158834971919 -2.18228883372e-05 0)
(0.00157302757412 -2.50880012393e-05 0)
(0.00155819942942 -2.8481045235e-05 0)
(0.00154001573142 -2.95411361423e-05 0)
(0.00149852782109 -3.43090577811e-05 0)
(0.00151982791512 -6.62425364353e-05 0)
(0.00148424521888 -0.000128760006018 0)
(0.00134316064991 -0.000163415101131 0)
(0.00114591733042 -0.000140207393095 0)
(0.00103961572561 -0.000108904846452 0)
(0.00103355377708 -0.000103440158448 0)
(0.00098449444427 -0.000120722278588 0)
(0.000920579072969 -0.000148620782807 0)
(0.00081492321421 -0.00016752073694 0)
(0.000693019240187 -0.000168180279419 0)
(0.000562684225354 -0.000148099355489 0)
(0.000501568601907 -0.000144058270447 0)
(0.000421163799764 -0.000132354990066 0)
(0.000350599225188 -0.000118320089671 0)
(0.000280414823239 -9.87418988655e-05 0)
(0.000217982800635 -9.86720136717e-05 0)
(0.000133132565345 -0.000102200263633 0)
(6.1355465664e-05 -0.000164614574113 0)
(1.35599208706e-05 8.2566630099e-05 0)
(3.95508829442e-05 8.76928430146e-05 0)
(6.20142632079e-05 8.14684120521e-05 6.88143823458e-29)
(0.000101824456169 8.10335172217e-05 -6.22596157019e-29)
(0.000138736511717 7.96588696524e-05 -5.35402261904e-29)
(0.000164322362966 6.7375833638e-05 4.83288983146e-29)
(0.000185023226492 4.66349128365e-05 -4.78533459612e-29)
(0.000205191343683 5.16180643715e-05 4.55783450555e-29)
(0.000227952849632 6.10448542496e-05 0)
(0.000253218632116 6.37394712563e-05 0)
(0.000278849222632 6.33866198419e-05 0)
(0.000303616822189 6.27390852203e-05 0)
(0.000328089439142 6.22980506937e-05 0)
(0.000352664584164 6.3498964697e-05 0)
(0.000379582701843 6.72369598437e-05 0)
(0.00040796491134 7.02678525846e-05 0)
(0.000409371661947 6.68580683507e-05 0)
(0.000422178844532 6.55523321955e-05 0)
(0.000454481475526 7.26176093851e-05 0)
(0.000499902425625 8.67013143531e-05 0)
(0.000562436020695 0.000100621741852 0)
(0.000608042217901 0.000104754990487 0)
(0.000643418616274 0.000103071250582 0)
(0.000683475763833 0.000101171355194 0)
(0.000724927059659 0.000100676052229 0)
(0.000764816719705 0.000101000470673 0)
(0.000804904569767 0.000100961860078 0)
(0.000845590265044 0.000100734593993 0)
(0.000886187587111 0.000100630263118 0)
(0.000926489951384 0.000100800621234 7.54549810601e-29)
(0.000967410407224 0.000101091956195 -7.26928504246e-29)
(0.00100485400499 0.000101146630014 0)
(0.00104617836665 0.000101673145459 0)
(0.00109191610543 0.000103400514432 0)
(0.00112755705992 0.000106753195149 0)
(0.00117479015539 0.000108912973648 0)
(0.00122420183333 0.000107367333109 0)
(0.00125973353263 0.000105567721559 0)
(0.00130364100916 0.000104360657092 0)
(0.00135042597284 9.88825892807e-05 0)
(0.00139019170099 8.80947115976e-05 0)
(0.0014226110864 7.82369013624e-05 0)
(0.00145265659695 7.33026249645e-05 0)
(0.0014820122018 6.97327166829e-05 0)
(0.00150908822837 6.50496386227e-05 0)
(0.00153338958642 5.93560437992e-05 0)
(0.00155497467199 5.26429636587e-05 0)
(0.0015738062332 4.53276911379e-05 0)
(0.00158995498537 3.74634264044e-05 0)
(0.00160310571074 2.87166261654e-05 0)
(0.00161277829304 1.99411615667e-05 0)
(0.00161930039823 1.3496355384e-05 0)
(0.00162367996848 8.97840570067e-06 0)
(0.00162119181457 -2.01772092532e-06 0)
(0.00161134930226 -1.71806218404e-05 0)
(0.00160778437505 -2.60679252683e-05 0)
(0.00160171210924 -2.99318207724e-05 0)
(0.00158926419991 -3.36564366553e-05 0)
(0.00157327600679 -3.83407343281e-05 0)
(0.00155521654158 -4.37666033598e-05 0)
(0.00153118147906 -5.19847772731e-05 0)
(0.00151172199715 -6.97900080032e-05 0)
(0.00148691079024 -0.000137579165188 0)
(0.0013799218038 -0.000239305486129 0)
(0.00118098826745 -0.000258265340123 0)
(0.0010813401103 -0.000220297537687 0)
(0.00104122010668 -0.000181215592244 0)
(0.00097663924331 -0.00016993117139 0)
(0.000909630320501 -0.000198080911467 0)
(0.000828112118798 -0.000238748028559 0)
(0.000725135659415 -0.00025920660303 0)
(0.000628312361323 -0.000250431235846 0)
(0.000566804728689 -0.000234060193519 0)
(0.000504299756127 -0.000227851243074 0)
(0.00042033933173 -0.000219070161254 0)
(0.000335125980917 -0.00019796197446 0)
(0.000257271411848 -0.000173474650406 0)
(0.000194617537379 -0.0001805111949 0)
(0.000133852822955 -0.000229648157281 0)
(3.39511928623e-05 -0.000224660691506 0)
(1.23489593193e-05 0.000118404630507 0)
(1.98646862005e-05 8.48080545827e-05 0)
(4.84361556109e-05 0.000119418064061 0)
(8.40551438428e-05 0.000118454027621 0)
(0.000119045079189 0.000104776279871 0)
(7.80936114129e-05 4.9192169773e-05 0)
(0.000100793838065 5.39216865813e-05 0)
(0.000176573008296 9.08226627435e-05 0)
(0.000211909341838 9.52116132401e-05 0)
(0.000240822143943 9.19602225668e-05 0)
(0.000268645757025 8.99899058351e-05 0)
(0.000294590227962 8.7791782519e-05 0)
(0.000319441740365 8.699688548e-05 0)
(0.000342200665719 8.62667404966e-05 0)
(0.000350021052618 8.21272839894e-05 0)
(0.000357068657704 7.91552873464e-05 0)
(0.000376520682541 8.26031343462e-05 0)
(0.000413791372273 9.75588230243e-05 0)
(0.00047060187856 0.000120799973388 0)
(0.000523293138187 0.000140354679013 0)
(0.000559704069979 0.000146143993251 0)
(0.000597452688197 0.000144726119203 0)
(0.000637272800741 0.00014293045399 0)
(0.00067677630119 0.000141795846851 0)
(0.000716237418011 0.000140990372418 0)
(0.000755834477753 0.00014071233773 0)
(0.000795873375931 0.000140907931277 0)
(0.000837455685974 0.000141193415189 0)
(0.000877791938823 0.000141137478614 0)
(0.000919855739893 0.000141508619393 0)
(0.000958367985372 0.000141507782238 0)
(0.00100065899023 0.000141774247433 0)
(0.00103674544977 0.000141407584988 0)
(0.00108179770089 0.000145259487582 0)
(0.00113221755415 0.000151143102695 0)
(0.00117076180208 0.000153701364373 0)
(0.00121994863534 0.000152915011306 0)
(0.00126845344561 0.000150250191075 0)
(0.00131030004085 0.000146523581532 0)
(0.00135036991702 0.000138096690572 0)
(0.00138838572586 0.000125184859598 0)
(0.00142279761587 0.000112797326666 0)
(0.00145452497834 0.00010410213168 0)
(0.00148423553078 9.72880434637e-05 0)
(0.00151136451621 9.0017800453e-05 0)
(0.00153568623162 8.17171485737e-05 -6.06240363782e-29)
(0.00155723855026 7.24505981764e-05 6.08123194694e-29)
(0.00157600879705 6.24400939508e-05 0)
(0.00159198660587 5.17394283333e-05 0)
(0.00160500272136 4.04210763954e-05 0)
(0.00161477080294 2.92445798811e-05 0)
(0.00162106223236 1.89538808471e-05 0)
(0.00162359440675 7.84618366056e-06 0)
(0.0016213959096 -6.71450069799e-06 0)
(0.00161600236249 -2.13536477884e-05 0)
(0.00160999343247 -3.23065375817e-05 0)
(0.0016014015259 -4.1029277488e-05 0)
(0.00158787507826 -4.91234972897e-05 -1.09316119502e-28)
(0.0015696859394 -5.74916898494e-05 1.24643736878e-28)
(0.00154637335259 -6.78650512809e-05 0)
(0.00151533607634 -8.58377237308e-05 0)
(0.00147340320886 -0.00013219457169 0)
(0.00139435277122 -0.000237156889128 0)
(0.00128812375508 -0.000353808591869 0)
(0.00120310133798 -0.000378455012823 0)
(0.00104162908817 -0.000291834623257 0)
(0.000950416863973 -0.000240025414446 0)
(0.000895454004683 -0.000240397706067 0)
(0.000835518320567 -0.000274964234582 0)
(0.00078048684954 -0.000328668532811 0)
(0.000705415617639 -0.000355740623632 0)
(0.000624507149267 -0.000343964384704 0)
(0.000538508064982 -0.000322895616499 0)
(0.000428127340174 -0.000299650753821 0)
(0.000347011239752 -0.000290935678783 0)
(0.000272192379529 -0.000283471049446 0)
(0.000192098548423 -0.00025306786647 0)
(0.000110103075176 -0.000201445707608 0)
(8.02368640362e-05 -0.000253454832106 0)
(2.70012235566e-05 -0.000291663065983 0)
(1.28780708691e-06 0.000120299734534 0)
(1.04494832412e-05 0.000101732412189 0)
(4.03213404331e-05 0.000151183561807 0)
(6.86589094795e-05 0.000143449208599 0)
(8.02732421149e-05 0.000106171445384 0)
(6.8682545607e-05 6.72578366863e-05 0)
(0.00011684578324 0.000104696181246 0)
(0.000166769776827 0.000136116297759 0)
(0.000192890245656 0.000129399700771 0)
(0.000223695836753 0.000122225499672 0)
(0.000253208616557 0.000119333557347 0)
(0.000280369905544 0.000115484923842 0)
(0.00029674813623 0.000106103245233 0)
(0.000295277446352 9.32024076372e-05 0)
(0.000314344932006 9.45955863789e-05 0)
(0.000346493869464 0.000106111145697 0)
(0.00039018125678 0.000125278173899 0)
(0.000438511851076 0.000149029650525 0)
(0.000479334754683 0.000167538584165 0)
(0.000510691963993 0.000175949650262 0)
(0.000547214832378 0.000181545983887 0)
(0.000586977524674 0.000184124178106 0)
(0.000625914905359 0.000183235630235 0)
(0.000665126037557 0.00018159317582 0)
(0.000704399033217 0.000180606005622 0)
(0.000743777644348 0.00018077628695 0)
(0.000785131520007 0.000181646978883 0)
(0.000824884948156 0.000181884712129 0)
(0.000868394228967 0.000182493106724 0)
(0.0009066771293 0.000181969873902 0)
(0.000951236482922 0.000182863113509 7.24159106254e-29)
(0.000982924123706 0.000181603733395 -6.93118743755e-29)
(0.00103236991005 0.00018562952703 0)
(0.00108289355773 0.00019123533126 0)
(0.00112466750874 0.000196375966212 0)
(0.00117679104588 0.000201391094384 0)
(0.00122391890332 0.000201006035794 0)
(0.00126798779426 0.000195049987185 0)
(0.00130977661443 0.00018674870978 0)
(0.00134983264885 0.000175914914092 0)
(0.00138809611253 0.000162108651007 0)
(0.00142373955487 0.00014802345419 0)
(0.00145666454894 0.000136161951884 0)
(0.00148696112886 0.000125923564246 0)
(0.00151439784271 0.000115646915842 0)
(0.00153890377335 0.000104559147115 0)
(0.00156051749835 9.25668258369e-05 0)
(0.00157923393812 7.97796319451e-05 0)
(0.00159500625552 6.62556542848e-05 0)
(0.00160770546922 5.21152777562e-05 0)
(0.00161710323245 3.7772585257e-05 0)
(0.00162287092242 2.33565233137e-05 0)
(0.00162462924267 7.85945603865e-06 0)
(0.00162226559483 -9.34049335789e-06 0)
(0.00161703870022 -2.6090678354e-05 0)
(0.00160988339614 -4.06596058987e-05 0)
(0.00159893261197 -5.40992619864e-05 0)
(0.00158179368079 -6.78319994638e-05 0)
(0.00155699814407 -8.35226603434e-05 0)
(0.00152206720635 -0.000105421920031 0)
(0.00147242736175 -0.000144132866233 0)
(0.00140143695801 -0.000218097564699 0)
(0.00129745860142 -0.000330310007353 0)
(0.00122437884715 -0.00043385447772 0)
(0.00117683456076 -0.000469574263912 0)
(0.00104757579972 -0.000406550934835 0)
(0.000931848153849 -0.000343748785786 0)
(0.000839502768316 -0.000322084304314 0)
(0.000763448979084 -0.000342886206397 0)
(0.000706469422992 -0.000392353788238 0)
(0.000650200628669 -0.000435633042696 0)
(0.00056662894564 -0.00043671527672 0)
(0.000449309313057 -0.00039867254751 0)
(0.000366845605713 -0.00038469711581 0)
(0.000288829908685 -0.000382074796249 0)
(0.000210879403481 -0.000368745757777 0)
(0.000137793408454 -0.000303283567797 0)
(8.68758820931e-05 -0.000256374143216 0)
(5.40400693779e-05 -0.000315171999567 0)
(1.33187915521e-05 -0.000323321728202 0)
(-4.43280509635e-07 0.000112925505755 0)
(1.09206636546e-05 0.000120934585614 0)
(3.73775733461e-05 0.00017066965832 0)
(5.48051991741e-05 0.000152880541154 0)
(4.51121648562e-05 8.72194580605e-05 0)
(6.4975577589e-05 9.29121610036e-05 0)
(0.000128805883613 0.000154285073254 0)
(0.000151269485931 0.000162207042734 0)
(0.000174966746664 0.000157442002541 0)
(0.000203398383117 0.000153383010531 0)
(0.000233029342548 0.000145589912711 0)
(0.000236360478262 0.000124900771875 0)
(0.000230682259388 0.000103735112892 0)
(0.000256181316211 0.000108637073923 0)
(0.000290568522629 0.000125938998727 0)
(0.00034125003887 0.000151405688765 0)
(0.000390827167386 0.000173798755574 0)
(0.000430454904045 0.00018883539289 0)
(0.000458155708886 0.000197665930396 0)
(0.000494936543087 0.000210212797945 0)
(0.000534825594321 0.000220179150244 0)
(0.000572655043102 0.000223068964704 0)
(0.00061089024752 0.000222522047281 0)
(0.000649635306436 0.00022124116322 0)
(0.000690170597207 0.000220904623394 0)
(0.000729745601915 0.000220754980765 0)
(0.000767021699162 0.00022180296817 0)
(0.000813102449872 0.000224219220552 0)
(0.00084911385088 0.000222701793794 0)
(0.000897274397131 0.000223514367411 0)
(0.000925794853888 0.000221129098207 0)
(0.000978650767494 0.000226864413726 0)
(0.00101269117686 0.000229993883396 0)
(0.00107164806415 0.000239686568798 0)
(0.00112917424811 0.00024826701193 0)
(0.00117764804809 0.000250811553748 0)
(0.00122274131666 0.000246406153062 0)
(0.0012664265057 0.000238084218188 0)
(0.00130871027192 0.000227601939962 0)
(0.00134950659859 0.000214860388806 0)
(0.00138851115378 0.000199723087811 0)
(0.00142517807513 0.000183809595668 0)
(0.00145913999611 0.000168964775723 0)
(0.00149017614756 0.000155259265478 0)
(0.00151812501556 0.000141700042322 0)
(0.00154295358748 0.000127573381717 0)
(0.00156469947188 0.000112654863885 0)
(0.00158333765197 9.69402082094e-05 0)
(0.00159878961634 8.04500849695e-05 0)
(0.00161094713536 6.32606206066e-05 0)
(0.00161963628934 4.55269963049e-05 0)
(0.00162458936439 2.71765476182e-05 0)
(0.00162558317668 7.78756578224e-06 0)
(0.00162277364504 -1.24751600776e-05 0)
(0.00161674637391 -3.24081432219e-05 0)
(0.0016070955646 -5.17454869399e-05 0)
(0.00159133467484 -7.18911557647e-05 0)
(0.00156637694589 -9.48147562002e-05 0)
(0.00152936358143 -0.000123461205284 0)
(0.00147663601551 -0.000163531693639 0)
(0.00140532320443 -0.000224522437138 0)
(0.00131451872645 -0.000311625506723 0)
(0.00119865550612 -0.000405133375323 0)
(0.00116914476018 -0.000512068860584 0)
(0.0010746216811 -0.000539843824967 0)
(0.000956108292105 -0.000488061627032 0)
(0.000869217791647 -0.000442052702008 0)
(0.000778616278466 -0.000411096434474 0)
(0.000692316695027 -0.000410847861928 0)
(0.000643948851055 -0.000465135394426 0)
(0.000588263143716 -0.000526380673685 0)
(0.000480617368608 -0.000507208966337 0)
(0.000389108754397 -0.0004780032024 0)
(0.000314454845392 -0.000475869606287 0)
(0.000229266244307 -0.000467555243417 0)
(0.000162668410102 -0.000438129699217 0)
(0.000102323572746 -0.000341577069891 0)
(6.2018201344e-05 -0.00029828665165 0)
(3.46079541304e-05 -0.000349541459436 0)
(9.33273603469e-06 -0.000344592170604 0)
(3.14187435698e-06 0.00012111410462 0)
(2.12534072853e-05 0.000150975993297 0)
(4.41154870076e-05 0.000183072335743 0)
(4.96288896039e-05 0.000179337002538 0)
(3.90410153498e-05 0.000109420911597 0)
(8.24176730413e-05 0.000150308241591 0)
(0.000120378224813 0.000181103457212 0)
(0.000135746305313 0.000182179751413 0)
(0.000157074144738 0.000180455518078 0)
(0.000177664536882 0.00017721761844 0)
(0.00020916259233 0.000167677611799 -2.17350089374e-28)
(0.000183756733755 0.000120656906915 1.48188204815e-28)
(0.000212360658993 0.000125401006133 0)
(0.000238734451934 0.00014129213903 0)
(0.000285404911381 0.00017199868744 0)
(0.000337439507337 0.000202633278599 0)
(0.000376664187701 0.000215779083571 0)
(0.000399579957498 0.000217591722745 0)
(0.000437164439401 0.000232004360413 0)
(0.000479676806248 0.000249584379979 0)
(0.000516465569973 0.000258109240721 0)
(0.000554345613561 0.000261275174626 0)
(0.000593170954156 0.000261966034807 0)
(0.000632443678831 0.000260998814618 0)
(0.000670211148898 0.00025940789884 0)
(0.000707690034482 0.000259459573822 0)
(0.000752592608541 0.000262877409428 0)
(0.000785429351838 0.000263806861827 0)
(0.00083748018328 0.000265993920694 0)
(0.000863813733373 0.000259337758427 0)
(0.000919872540591 0.000265857737813 0)
(0.000954619034897 0.000270871583971 -6.88628954257e-29)
(0.00101294216105 0.000282224685994 6.85073688491e-29)
(0.00106735545919 0.000294456249996 0)
(0.00112642767563 0.000302002859599 0)
(0.00117468891597 0.000299281236348 0)
(0.00121965563633 0.00029152190232 0)
(0.00126397792096 0.000281434312626 0)
(0.00130742880445 0.000269373136395 0)
(0.00134940413903 0.000254985533752 0)
(0.00138945082286 0.000238262701002 0)
(0.00142718922251 0.000220321408147 0)
(0.00146218587369 0.000202560105309 0)
(0.00149407941329 0.000185388625378 0)
(0.00152267830444 0.000168345904768 0)
(0.00154793382438 0.000150897729428 0)
(0.00156983292184 0.000132764498535 0)
(0.00158829843861 0.000113845647467 0)
(0.00160323054368 9.41161877504e-05 0)
(0.00161456167314 7.36013944491e-05 0)
(0.00162221035207 5.2327938702e-05 0)
(0.00162604174083 3.02015762121e-05 0)
(0.00162596880844 7.08332868734e-06 0)
(0.00162199450111 -1.68722886439e-05 0)
(0.00161379697836 -4.15665508634e-05 0)
(0.00159957159973 -6.80123659835e-05 0)
(0.00157579938213 -9.83452764662e-05 0)
(0.00153873785998 -0.000134901947926 0)
(0.00148591791516 -0.000180401868679 0)
(0.00141757083432 -0.000238212217719 0)
(0.00133612421855 -0.0003115827571 0)
(0.00124683826288 -0.000398298473038 0)
(0.00117002119342 -0.000491739597711 0)
(0.00110277781317 -0.000590918373062 0)
(0.00101371896215 -0.000629563818727 0)
(0.000859305981914 -0.000555983107112 0)
(0.00080227618695 -0.000524377646699 0)
(0.00073180075196 -0.000505862609212 0)
(0.000649760511862 -0.000503319948831 0)
(0.000587389737976 -0.000549965988798 0)
(0.000516724318175 -0.000593560388128 0)
(0.000422559195203 -0.00057350716524 0)
(0.000347954508715 -0.000571149785469 0)
(0.000258943418015 -0.00056705454187 0)
(0.00017688038628 -0.000548294282937 0)
(0.00011659761056 -0.000473722061601 0)
(7.3067477862e-05 -0.000392624330566 0)
(3.03170402271e-05 -0.00033384327566 0)
(1.04947974399e-05 -0.000365518355648 0)
(3.72571550492e-06 -0.00036467768365 0)
(6.50252598507e-06 0.000137809811283 0)
(2.73684167593e-05 0.000175950937583 0)
(4.5461618033e-05 0.000189366966508 0)
(3.11041294872e-05 0.000132090107612 0)
(3.74198390807e-05 0.000131264734273 0)
(8.39134319625e-05 0.000191621111747 0)
(0.00010294925534 0.00019871109696 0)
(0.00012036473313 0.000200578438801 0)
(0.000134416782602 0.000198977598792 0)
(0.000157216035182 0.000197692569252 0)
(0.000142887552671 0.00014655670216 0)
(0.000164510082652 0.000140774805758 0)
(0.000192699746658 0.000153109763874 0)
(0.000223678301801 0.000177676918432 0)
(0.000280080672378 0.000222023132405 0)
(0.000320769429309 0.00024281174365 0)
(0.000339905586187 0.000240329565133 0)
(0.000373441777836 0.000251140724916 0)
(0.000418463861425 0.000273557834272 0)
(0.000457920983041 0.000288447959635 0)
(0.00049405604347 0.000295252038503 0)
(0.000531221722957 0.000298904698792 0)
(0.000570950945602 0.000301580506953 0)
(0.000610172940887 0.000301123860487 0)
(0.000650986648583 0.000298976423094 0)
(0.000684541048237 0.00029960084633 0)
(0.000733458580184 0.000305176737594 0)
(0.000769839160432 0.000304702629793 0)
(0.00080288648639 0.000301983439435 0)
(0.000849922010076 0.00030561797841 0)
(0.000911260834671 0.000316196095408 0)
(0.000950070973382 0.000320233640762 0)
(0.00099929762114 0.000334566733927 0)
(0.00106816622134 0.000352116946766 0)
(0.00112012948176 0.000354626466342 0)
(0.00116827793475 0.000347601998059 0)
(0.00121511088006 0.000337601441283 0)
(0.00126099881477 0.00032606619764 0)
(0.00130594689715 0.000312559402399 0)
(0.00134941469008 0.000296522867295 0)
(0.00139082566789 0.000277973383097 0)
(0.00142980232181 0.000257775338441 0)
(0.00146594803114 0.000237053369253 0)
(0.00149884609817 0.000216376197166 0)
(0.00152823184837 0.000195657425861 -5.89205131804e-29)
(0.00155398846359 0.000174568831086 5.86495624026e-29)
(0.00157600972044 0.00015283478531 0)
(0.0015941430619 0.000130307872714 0)
(0.0016082771191 0.000106956667639 0)
(0.00161841145999 8.28085194047e-05 0)
(0.00162458874841 5.78504334391e-05 0)
(0.00162682735574 3.1957010996e-05 0)
(0.00162507632892 4.89785650348e-06 0)
(0.00161895818909 -2.38037585775e-05 0)
(0.00160698192101 -5.53793433087e-05 0)
(0.00158583256992 -9.22352363953e-05 0)
(0.00155106363936 -0.000136651080474 0)
(0.00149997135315 -0.000189518200107 0)
(0.00143402855911 -0.000250748722668 0)
(0.00135795114765 -0.00031939518861 0)
(0.00127705126389 -0.000394547309183 0)
(0.00119887829046 -0.000475692860977 0)
(0.0011301087243 -0.000564534948963 0)
(0.00105768594831 -0.000659568639961 0)
(0.00103242900198 -0.000754206728034 0)
(0.000846093351785 -0.000668070514078 0)
(0.000719232576861 -0.000599187670541 0)
(0.000651594213797 -0.000582231835476 0)
(0.000572465860322 -0.000575014881356 0)
(0.000517596052107 -0.000608828203779 0)
(0.000461557473535 -0.000645034666476 0)
(0.000387724180595 -0.000652967348777 0)
(0.000303611954152 -0.00066865282188 0)
(0.00020491336073 -0.000660833504123 0)
(0.000124833929401 -0.000616254332448 0)
(6.76141674901e-05 -0.000516257085193 0)
(2.60248701386e-05 -0.000441421843968 0)
(-1.159222901e-05 -0.000372790472242 0)
(-2.45744101945e-05 -0.000367373214411 0)
(-1.00084378856e-05 -0.000367753500115 0)
(8.17559730304e-06 0.000156896799446 0)
(2.76060422006e-05 0.000193320677815 0)
(3.38073782908e-05 0.000194472544214 0)
(2.61826319563e-05 0.000142296848374 0)
(4.60078532981e-05 0.000163310066251 0)
(7.72089769053e-05 0.000209405188045 0)
(8.6288154581e-05 0.000214205958835 0)
(0.000105205981794 0.000216669790648 0)
(0.000108264631997 0.000202597925064 0)
(0.000136265841523 0.000221788864508 0)
(0.000122396226503 0.000163512684624 0)
(0.000148934198353 0.00016575784348 0)
(0.000173978092872 0.000182935211226 0)
(0.000215991035953 0.000224436788072 0)
(0.000262035640582 0.000263630436549 0)
(0.000293345755007 0.000274466178106 0)
(0.000311722162115 0.00027166397882 0)
(0.000350446747456 0.000290900717054 0)
(0.000392806439764 0.000313578146606 0)
(0.000431082593729 0.000326539666478 0)
(0.000468773785188 0.000333107985125 0)
(0.000505334545944 0.000336488157699 0)
(0.000544551634361 0.000339986366728 0)
(0.000580113375996 0.000339253037723 0)
(0.00061621807241 0.000335161275999 0)
(0.000664815276902 0.000341181379713 0)
(0.000690693573714 0.000340934808945 0)
(0.000753919588171 0.000350395354206 0)
(0.000781376734646 0.000347968446465 0)
(0.000845257617754 0.000359849759239 0)
(0.000876998670319 0.000359323986302 0)
(0.000946203085871 0.000376590216255 0)
(0.00100379986526 0.000395224176285 -7.03350673865e-29)
(0.001058865815 0.000406681843224 6.92772182382e-29)
(0.00111059637726 0.000405278896824 0)
(0.0011604926369 0.00039680859988 0)
(0.00120951589618 0.000385549449626 0)
(0.00125744983197 0.000372576611574 0)
(0.00130422187828 0.000357508476421 0)
(0.00134944506469 0.000339720983156 0)
(0.0013925451062 0.000319137862283 0)
(0.00143305831932 0.00029645267805 0)
(0.001470566234 0.000272639966235 0)
(0.00150465095477 0.000248345012368 0)
(0.00153498517997 0.000223715155528 0)
(0.00156131486605 0.00019859200256 0)
(0.00158338919843 0.000172751976509 0)
(0.00160097023385 0.00014607207872 0)
(0.00161394344627 0.000118589992956 0)
(0.00162238427017 9.04110669404e-05 0)
(0.00162648631641 6.15339797312e-05 0)
(0.00162643465182 3.17009856327e-05 0)
(0.00162219602911 1.98062918468e-07 0)
(0.00161283813109 -3.45827263145e-05 0)
(0.0015956721038 -7.55906352219e-05 0)
(0.00156573665525 -0.000126434953589 0)
(0.0015184260873 -0.000187593948231 0)
(0.00145523603837 -0.000255658857477 0)
(0.00138226941836 -0.000328864322763 0)
(0.00130215752618 -0.000403648981812 0)
(0.00121878174297 -0.000475562936221 0)
(0.00114175414811 -0.000546429611074 0)
(0.00107914038033 -0.000624328691281 0)
(0.00103027938485 -0.000711947808195 0)
(0.00100125182499 -0.000812386604056 0)
(0.000937935078754 -0.000854167152085 0)
(0.000687541743851 -0.000704493297118 0)
(0.000563964943542 -0.000666915045291 0)
(0.000502423626612 -0.000646798055145 0)
(0.000467132638375 -0.00064893266085 0)
(0.000429666680399 -0.000692276763863 0)
(0.000363150918259 -0.000743774681187 0)
(0.000261459119101 -0.000776396556841 0)
(0.00015099266734 -0.000757992528702 0)
(6.22360296525e-05 -0.000680106244884 0)
(-6.55124547047e-07 -0.000571902179096 0)
(-4.66543963804e-05 -0.000482821009958 0)
(-7.27097894939e-05 -0.000404025832276 0)
(-6.64816129309e-05 -0.000355286202161 0)
(-2.68462185512e-05 -0.000332079761415 0)
(8.73005129433e-06 0.000177701477901 0)
(2.74855372315e-05 0.0002039486959 0)
(2.67904035814e-05 0.000192704341553 0)
(2.2645582131e-05 0.000151407269134 0)
(4.93304166843e-05 0.000203567894981 0)