/*--------------------------------*- C++ -*----------------------------------*\
| =========                 |                                                 |
| \\      /  F ield         | OpenFOAM: The Open Source CFD Toolbox           |
|  \\    /   O peration     | Version:  v1806                                 |
|   \\  /    A nd           | Web:      www.OpenFOAM.com                      |
|    \\/     M anipulation  |                                                 |
\*---------------------------------------------------------------------------*/
FoamFile
{
    version     2.0;
    format      ascii;
    class       surfaceScalarField;
    location    "890";
    object      phia;
}
// * * * * * * * * * * * * * * * * * * * * * * * * * * * * * * * * * * * * * //

dimensions      [0 3 -1 0 0 0 0];
oriented        oriented;


internalField   nonuniform List<scalar> 
12640
(
4.56920492696e-08
-4.51545756664e-08
8.61774213715e-08
-4.05382701176e-08
1.21242705007e-07
-3.5238599065e-08
1.51043552448e-07
-3.01829851069e-08
1.74943703209e-07
-2.41812531677e-08
1.92921080195e-07
-1.78376247029e-08
2.08906938098e-07
-1.57682152802e-08
2.31091084652e-07
-2.1991436568e-08
2.59616128212e-07
-2.84465120242e-08
2.88452492869e-07
-2.88242107855e-08
3.16900713171e-07
-2.85548780653e-08
3.47195647921e-07
-3.03896984869e-08
3.77655491762e-07
-3.0577587805e-08
4.07619903595e-07
-3.0029889001e-08
4.38704191035e-07
-3.1135562084e-08
4.73599848174e-07
-3.48166478839e-08
5.10691269021e-07
-3.70315784014e-08
5.47290225133e-07
-3.65124749747e-08
5.83177666564e-07
-3.59427891497e-08
6.20968094843e-07
-3.78891783861e-08
6.64499086697e-07
-4.36969279464e-08
7.13194698315e-07
-4.88076502253e-08
7.63364540779e-07
-5.02981121254e-08
8.13318188472e-07
-5.00047330788e-08
8.6267048936e-07
-4.94191494423e-08
9.11841317414e-07
-4.91669624368e-08
9.61514774557e-07
-4.96917395916e-08
1.01143868966e-06
-4.98712269752e-08
1.06115390881e-06
-4.96902908919e-08
1.11092239359e-06
-4.96792280378e-08
1.161414368e-06
-5.04385917536e-08
1.21229527115e-06
-5.07661223838e-08
1.26316437686e-06
-5.07768342958e-08
1.31544268493e-06
-5.2145902311e-08
1.36892535261e-06
-5.3409083e-08
1.42293736677e-06
-5.38896195734e-08
1.4772963571e-06
-5.42894036622e-08
1.53074301183e-06
-5.33515233612e-08
1.58228938359e-06
-5.14967055392e-08
1.63203694775e-06
-4.96438469092e-08
1.68072906031e-06
-4.86184272817e-08
1.72651776193e-06
-4.56655910095e-08
1.76690971738e-06
-4.03070475267e-08
1.80336735898e-06
-3.63406729122e-08
1.83727621346e-06
-3.38368690382e-08
1.86835970658e-06
-3.09793704256e-08
1.8961844635e-06
-2.77660925478e-08
1.92010358451e-06
-2.38343469054e-08
1.93998232164e-06
-1.98431785982e-08
1.95760717894e-06
-1.75713067362e-08
1.97511774885e-06
-1.75225733644e-08
1.9899322357e-06
-1.48195380025e-08
1.99602453736e-06
-6.15459558782e-09
1.99521666287e-06
7.41051318589e-10
1.98689365011e-06
8.18622848162e-09
1.96922368933e-06
1.75103842239e-08
1.95175743832e-06
1.71910951716e-08
1.93859547494e-06
1.28020791095e-08
1.92171286542e-06
1.63691960748e-08
1.90154633774e-06
1.94929266778e-08
1.88701034375e-06
1.36403141937e-08
1.86720774095e-06
1.87654383339e-08
1.8133079474e-06
5.28697772723e-08
1.70278572221e-06
1.09897523991e-07
1.57703651486e-06
1.25351981719e-07
1.47687085532e-06
9.99966117974e-08
1.38188737516e-06
9.48412780363e-08
1.28402330363e-06
9.77325976437e-08
1.17727676446e-06
1.06624634314e-07
1.0554472053e-06
1.21778433333e-07
9.24940208574e-07
1.30479752432e-07
7.95452223418e-07
1.29452546721e-07
6.71149858231e-07
1.24338670324e-07
5.3911789708e-07
1.32111381947e-07
4.25541292807e-07
1.1370247328e-07
3.26811792484e-07
9.87575528494e-08
2.56612466143e-07
7.02014013535e-08
1.78387099966e-07
7.81535605905e-08
1.08260617312e-07
7.08304759673e-08
1.0829970109e-07
2.46466009654e-08
-7.06189287585e-08
5.66544557449e-08
-7.29311055372e-08
8.78530706803e-08
-6.6934718283e-08
1.19799670249e-07
-6.25587745862e-08
1.58419005297e-07
-6.28648149195e-08
1.88468489279e-07
-4.79618620933e-08
2.09837010372e-07
-3.69723174857e-08
2.33343772466e-07
-4.5491867427e-08
2.59885272891e-07
-5.49512977299e-08
2.88575846565e-07
-5.76734942132e-08
3.17779186493e-07
-5.78270392291e-08
3.45669974982e-07
-5.84859606802e-08
3.73982417547e-07
-5.89226695274e-08
4.036788071e-07
-5.97759077994e-08
4.35513705564e-07
-6.28030774862e-08
4.71119933545e-07
-7.03798433371e-08
5.07243987354e-07
-7.30016081612e-08
5.39324258249e-07
-6.86811329764e-08
5.72639170875e-07
-6.93015845769e-08
6.12394777488e-07
-7.78740161854e-08
6.59079083184e-07
-9.04999514453e-08
7.10378135547e-07
-1.00331095853e-07
7.61753118571e-07
-1.01711130271e-07
8.10493843656e-07
-9.88892539336e-08
8.59116409811e-07
-9.80172197722e-08
9.09140073415e-07
-9.92761651912e-08
9.59112868342e-07
-9.95878537822e-08
1.00862133969e-06
-9.94163995059e-08
1.0584561372e-06
-9.94077525499e-08
1.10855229231e-06
-9.97705222462e-08
1.15881219587e-06
-1.00544357378e-07
1.20905678939e-06
-1.00957875726e-07
1.25941605091e-06
-1.00963930865e-07
1.31155739955e-06
-1.04232053459e-07
1.36639679131e-06
-1.08069128609e-07
1.42092335997e-06
-1.08382062935e-07
1.47510179398e-06
-1.08324990771e-07
1.52985649277e-06
-1.08079544418e-07
1.58448753536e-06
-1.05984999725e-07
1.6356146774e-06
-1.0073287222e-07
1.67723643174e-06
-9.00741887997e-08
1.71181052487e-06
-8.0173141249e-08
1.7481275034e-06
-7.64553266387e-08
1.78596542087e-06
-7.41173541286e-08
1.822392373e-06
-7.0110855381e-08
1.85654038964e-06
-6.50750723059e-08
1.88760825699e-06
-5.86954806914e-08
1.91544318331e-06
-5.162890131e-08
1.93966899006e-06
-4.39560420206e-08
1.95720837358e-06
-3.50985198596e-08
1.96565535051e-06
-2.58989535189e-08
1.97090537372e-06
-2.01023143093e-08
1.9836209468e-06
-1.88658335571e-08
1.99232656179e-06
-8.06700753013e-09
1.98813672857e-06
1.22880687634e-08
1.98240875782e-06
2.30202803033e-08
1.97500233756e-06
2.43553091996e-08
1.9613734317e-06
2.60191148178e-08
1.94650138048e-06
3.07370525418e-08
1.92861548571e-06
3.66338416197e-08
1.89507593141e-06
4.63936685863e-08
1.85577134713e-06
5.71318473812e-08
1.79375792645e-06
1.14035391218e-07
1.68179040027e-06
2.21139305442e-07
1.53207285208e-06
2.74822511626e-07
1.38409053044e-06
2.47811415797e-07
1.2936490291e-06
1.85198276141e-07
1.22870091567e-06
1.62567858275e-07
1.14340036805e-06
1.91855022912e-07
1.02758539316e-06
2.37487916946e-07
8.89791848002e-07
2.68201623119e-07
7.49328317912e-07
2.69863316673e-07
6.3176373953e-07
2.41897162479e-07
5.43026276661e-07
2.20865890851e-07
4.55787137108e-07
2.0098130254e-07
3.74342810055e-07
1.80231224225e-07
2.88730838196e-07
1.55876856047e-07
2.12016065062e-07
1.55110428559e-07
1.10847979007e-07
1.71903782778e-07
2.19932353467e-07
3.00047812114e-08
-9.99502213807e-08
4.57986021807e-08
-8.90651176844e-08
8.14894980814e-08
-1.03048866571e-07
1.22431966077e-07
-1.03686496835e-07
1.60843090223e-07
-1.01330990552e-07
1.81920333367e-07
-6.91212718665e-08
1.96680136086e-07
-5.19648032129e-08
2.22168252819e-07
-7.1251756451e-08
2.51263874784e-07
-8.43352767363e-08
2.80711185706e-07
-8.73573560605e-08
3.10036559114e-07
-8.73934930836e-08
3.38212252923e-07
-8.67273664078e-08
3.66246614773e-07
-8.68873311271e-08
3.962375321e-07
-8.95896200381e-08
4.26114052765e-07
-9.252400602e-08
4.46294162908e-07
-9.04340624732e-08
4.60026011786e-07
-8.67833379922e-08
4.85781541035e-07
-9.45362963928e-08
5.30567287465e-07
-1.14293781639e-07
5.91484427603e-07
-1.38977046192e-07
6.53963879811e-07
-1.53170016777e-07
7.05947072958e-07
-1.52417692054e-07
7.53612905855e-07
-1.49500534345e-07
8.03392031647e-07
-1.48711086208e-07
8.53644134429e-07
-1.48333084985e-07
9.02767996197e-07
-1.4839055255e-07
9.51898842425e-07
-1.4873600259e-07
1.00167550217e-06
-1.49138731155e-07
1.05173719373e-06
-1.49438856726e-07
1.102283763e-06
-1.50214481033e-07
1.15234446333e-06
-1.50525037258e-07
1.20274658956e-06
-1.51237011188e-07
1.25445492275e-06
-1.52563630101e-07
1.30506667737e-06
-1.54704178262e-07
1.35852419762e-06
-1.61458015437e-07
1.41691003111e-06
-1.66658108134e-07
1.47256320721e-06
-1.63911572864e-07
1.52625032222e-06
-1.61667231474e-07
1.58166241758e-06
-1.61330381007e-07
1.63465820545e-06
-1.53603654163e-07
1.68332967805e-06
-1.38646646602e-07
1.72805576323e-06
-1.24760221053e-07
1.76833927737e-06
-1.16638471273e-07
1.80524982434e-06
-1.10892699728e-07
1.83946143497e-06
-1.04223448683e-07
1.87067918435e-06
-9.61635603276e-08
1.89891462217e-06
-8.68398890339e-08
1.92398103084e-06
-7.65823819856e-08
1.94554407363e-06
-6.54481233649e-08
1.96387604858e-06
-5.33445631353e-08
1.97946539388e-06
-4.14511943986e-08
1.99089387182e-06
-3.14965424799e-08
1.99328228498e-06
-2.12768062979e-08
1.98988751474e-06
-4.71468785623e-09
1.9888921326e-06
1.31576217089e-08
1.98687271254e-06
2.48584072416e-08
1.97802650349e-06
3.29062827094e-08
1.96326175398e-06
4.03887764954e-08
1.94487119766e-06
4.85773568307e-08
1.92215293404e-06
5.87018190546e-08
1.89368413821e-06
7.40800645344e-08
1.83466284813e-06
1.15327809827e-07
1.70827807123e-06
2.39669858716e-07
1.53013487091e-06
3.98813421423e-07
1.38982541427e-06
4.14817892516e-07
1.32458375466e-06
3.12910351614e-07
1.24894810117e-06
2.60742007052e-07
1.15042980137e-06
2.61006957991e-07
1.0412670309e-06
3.00906170995e-07
9.19103262839e-07
3.59522128916e-07
8.0123281821e-07
3.85926486082e-07
7.09349935986e-07
3.6164611074e-07
6.28737814236e-07
3.22455917115e-07
5.44728603932e-07
3.04902381965e-07
4.45685831793e-07
3.00102885616e-07
3.45900697745e-07
2.80113643097e-07
2.61343857807e-07
2.40465137911e-07
1.97740911668e-07
2.18675997715e-07
8.56415901377e-08
2.85149122903e-07
3.05399124655e-07
1.98916154476e-08
-1.20850414915e-07
2.77706108268e-08
-9.7242635484e-08
6.58589615613e-08
-1.41389633685e-07
9.8999776332e-08
-1.36879669773e-07
1.05240750702e-07
-1.07681423781e-07
9.74443146661e-08
-6.1494942921e-08
1.35486409364e-07
-9.04348429611e-08
1.93141856061e-07
-1.29535058062e-07
2.34407560107e-07
-1.26056400758e-07
2.6715046419e-07
-1.20458330381e-07
2.98223912836e-07
-1.1860064253e-07
3.27595656991e-07
-1.16025368756e-07
3.54103956002e-07
-1.13208673895e-07
3.71176168823e-07
-1.06439862738e-07
3.81005930252e-07
-1.02232328703e-07
3.9814476977e-07
-1.07649287345e-07
4.3418444424e-07
-1.22986791432e-07
4.8857199958e-07
-1.49152391857e-07
5.5059847004e-07
-1.7651711882e-07
6.03697003475e-07
-1.92246194036e-07
6.4836042916e-07
-1.97956531155e-07
6.95534712713e-07
-1.99722914139e-07
7.44884894157e-07
-1.98929199869e-07
7.93737927383e-07
-1.9763934247e-07
8.42460086943e-07
-1.97074672475e-07
8.91351487499e-07
-1.97305553649e-07
9.41078488404e-07
-1.98434369487e-07
9.91216756659e-07
-1.99260198508e-07
1.04191857636e-06
-2.00070866985e-07
1.0922707485e-06
-2.00491164293e-07
1.14360103901e-06
-2.01739719262e-07
1.19351454177e-06
-2.01033136344e-07
1.2431733393e-06
-2.02108951288e-07
1.2998513923e-06
-2.11301172907e-07
1.3569982212e-06
-2.18503609201e-07
1.41347752273e-06
-2.23068683914e-07
1.47485948859e-06
-2.2520517401e-07
1.53402450597e-06
-2.20752909504e-07
1.58607044752e-06
-2.13262068654e-07
1.63458971972e-06
-2.02023841878e-07
1.68229290179e-06
-1.86227736151e-07
1.72802280107e-06
-1.70382550231e-07
1.76977137758e-06
-1.58252955764e-07
1.80748849871e-06
-1.48489349031e-07
1.84189021706e-06
-1.38484512992e-07
1.8731541922e-06
-1.27305523441e-07
1.90134320194e-06
-1.1489499306e-07
1.92631931895e-06
-1.01449508107e-07
1.94799038061e-06
-8.70056598363e-08
1.96642900112e-06
-7.16987984281e-08
1.98131675996e-06
-5.62566840945e-08
1.99104677436e-06
-4.11786861796e-08
1.99451940398e-06
-2.4725239703e-08
1.99482290403e-06
-5.06079073683e-09
1.99358255638e-06
1.42954197032e-08
1.98833481137e-06
2.99075868516e-08
1.97759020378e-06
4.33611760444e-08
1.96084727905e-06
5.67210250032e-08
1.93714787359e-06
7.17621089011e-08
1.90268181755e-06
9.25569645016e-08
1.84542738156e-06
1.30704572179e-07
1.74486294741e-06
2.15235248259e-07
1.6161013012e-06
3.67784311167e-07
1.49704730732e-06
5.17297801447e-07
1.36593269268e-06
5.45629174587e-07
1.23980660477e-06
4.38927588951e-07
1.14080716641e-06
3.59690377743e-07
1.054841179e-06
3.46900191116e-07
9.71344639054e-07
3.84263198974e-07
8.80982752819e-07
4.49674447599e-07
7.80394634774e-07
4.86344870632e-07
6.76448308433e-07
4.65481835077e-07
5.68256936305e-07
4.30636095124e-07
4.60826077258e-07
4.12373836984e-07
3.61513130601e-07
3.99482699218e-07
2.59731889047e-07
3.81981037238e-07
1.71603054e-07
3.28774830415e-07
1.15257828621e-07
2.75456801107e-07
5.91016156629e-08
3.40952182784e-07
3.65098606211e-07
3.22421041804e-09
-1.23575369513e-07
2.27212663116e-08
-1.1691398143e-07
5.18709071735e-08
-1.70576469806e-07
7.57309730395e-08
-1.60574066804e-07
7.32243257053e-08
-1.05325059512e-07
9.57621950542e-08
-8.44716159436e-08
1.42886428556e-07
-1.38231424618e-07
1.7842948281e-07
-1.65628040876e-07
2.1223482023e-07
-1.60384148019e-07
2.4647304456e-07
-1.5495511638e-07
2.80535042967e-07
-1.5261909917e-07
3.04886602305e-07
-1.40239349898e-07
3.14472116865e-07
-1.22594670641e-07
3.2485253195e-07
-1.16781153536e-07
3.52349380224e-07
-1.29886512308e-07
3.97320545484e-07
-1.52854528892e-07
4.52931015741e-07
-1.78856606573e-07
5.06275646525e-07
-2.02719818922e-07
5.48996846031e-07
-2.19409737198e-07
5.8901408812e-07
-2.32391792124e-07
6.34097574979e-07
-2.43159630886e-07
6.81988679467e-07
-2.47708472695e-07
7.30444078586e-07
-2.47467660045e-07
7.7880084802e-07
-2.46038263108e-07
8.2734346765e-07
-2.45647183611e-07
8.76778267068e-07
-2.46729053208e-07
9.26380410924e-07
-2.48037160669e-07
9.7728165159e-07
-2.50116991509e-07
1.02762421769e-06
-2.50340334662e-07
1.07863138799e-06
-2.51390349542e-07
1.12772810559e-06
-2.5072710297e-07
1.18059675223e-06
-2.53801315274e-07
1.23895054554e-06
-2.6037786478e-07
1.29548650777e-06
-2.6775987193e-07
1.35546237444e-06
-2.78418014845e-07
1.41855668119e-06
-2.86081779686e-07
1.47742503881e-06
-2.83986165383e-07
1.53272730627e-06
-2.75946209758e-07
1.58470126124e-06
-2.65130947227e-07
1.63419289645e-06
-2.51397110985e-07
1.68246240542e-06
-2.3438316526e-07
1.72883273337e-06
-2.16622929331e-07
1.7716025677e-06
-2.00893226374e-07
1.81024909536e-06
-1.86988786154e-07
1.84515917945e-06
-1.73249089791e-07
1.87667378206e-06
-1.58664389702e-07
1.90490886141e-06
-1.42984592787e-07
1.92983572519e-06
-1.26229540432e-07
1.95137841854e-06
-1.08417434152e-07
1.96944942992e-06
-8.96417017466e-08
1.98353010178e-06
-7.02287297085e-08
1.99261318803e-06
-5.01713909609e-08
1.9965691321e-06
-2.86375726664e-08
1.99706963266e-06
-5.57441848045e-09
1.99451224192e-06
1.67567899219e-08
1.98707049157e-06
3.71632060229e-08
1.97272300653e-06
5.74234215089e-08
1.94899970928e-06
8.00620004287e-08
1.9116575157e-06
1.0863383844e-07
1.85303745866e-06
1.506676282e-07
1.76282206312e-06
2.20355085686e-07
1.64432641597e-06
3.33138470303e-07
1.53412293354e-06
4.77422123573e-07
1.44263451303e-06
6.08360920504e-07
1.35037726803e-06
6.37628425002e-07
1.22805263623e-06
5.61133817512e-07
1.0933368166e-06
4.94361990909e-07
9.77981507004e-07
4.62156568257e-07
8.85705508888e-07
4.76390676624e-07
7.99016940822e-07
5.3621414697e-07
6.97826966667e-07
5.87390207829e-07
5.90291895901e-07
5.72960694059e-07
4.86669285095e-07
5.34245825757e-07
3.83567083032e-07
5.15489406113e-07
2.81237234282e-07
5.01895288813e-07
1.88778676533e-07
4.74606190679e-07
1.34200444056e-07
3.83451040782e-07
8.25432005033e-08
3.26990118729e-07
3.2500002388e-08
3.91997083556e-07
3.97371119902e-07
3.87054855755e-10
-1.24803712957e-07
2.56217306806e-08
-1.4234906902e-07
4.0542475624e-08
-1.85465642818e-07
5.13978605445e-08
-1.71593302577e-07
5.11127324227e-08
-1.05287655501e-07
9.71792734085e-08
-1.31068593151e-07
1.39830363606e-07
-1.81477596359e-07
1.62490604514e-07
-1.88898639187e-07
1.90402770363e-07
-1.88614351704e-07
2.20283610887e-07
-1.8492765141e-07
2.43103181911e-07
-1.75397859323e-07
2.44800595216e-07
-1.41771916071e-07
2.55420475187e-07
-1.33249211405e-07
2.86517865825e-07
-1.48095277306e-07
3.33898226448e-07
-1.77591718403e-07
3.9245673569e-07
-2.11763919701e-07
4.4700117912e-07
-2.33671457797e-07
4.88073227478e-07
-2.43959929193e-07
5.26223039193e-07
-2.57686330952e-07
5.71071147957e-07
-2.7735345548e-07
6.17618303231e-07
-2.89803793393e-07
6.63946645667e-07
-2.94121707338e-07
7.1144156341e-07
-2.9502338129e-07
7.60168140736e-07
-2.94814238649e-07
8.09048805838e-07
-2.94541400466e-07
8.56542560789e-07
-2.94225300257e-07
9.07342218662e-07
-2.98802301638e-07
9.57805943607e-07
-3.00524261462e-07
1.00920713501e-06
-3.01666137265e-07
1.05674222664e-06
-2.98830580119e-07
1.10825243043e-06
-3.02135927326e-07
1.16361527034e-06
-3.09079937755e-07
1.22124969643e-06
-3.17950354744e-07
1.2890866354e-06
-3.35544495564e-07
1.35703330852e-06
-3.46300194502e-07
1.41832068265e-06
-3.47283938722e-07
1.47544393835e-06
-3.41003009642e-07
1.53028311375e-06
-3.30670928316e-07
1.58303339228e-06
-3.17758188062e-07
1.63384100996e-06
-3.02083330106e-07
1.68307885312e-06
-2.83493920149e-07
1.73019052414e-06
-2.63602300279e-07
1.77390196273e-06
-2.44455895774e-07
1.81352369696e-06
-2.26450966446e-07
1.84915359607e-06
-2.08706565871e-07
1.88106618859e-06
-1.90402396795e-07
1.90942109535e-06
-1.71160751933e-07
1.93421918815e-06
-1.50853303115e-07
1.95538692295e-06
-1.29412530154e-07
1.97275643517e-06
-1.06846946069e-07
1.98590837193e-06
-8.32254390653e-08
1.99431782579e-06
-5.84548729913e-08
1.99807798764e-06
-3.23182586736e-08
1.99777583114e-06
-5.26537364539e-09
1.99274665203e-06
2.16991473648e-08
1.98062495432e-06
4.91193549402e-08
1.9581422186e-06
7.96488886775e-08
1.92083717149e-06
1.17032183322e-07
1.86253635281e-06
1.66539876401e-07
1.77707503167e-06
2.35685343208e-07
1.66434139073e-06
3.32622039021e-07
1.54092415854e-06
4.56080833152e-07
1.44263037596e-06
5.75225564997e-07
1.34536077974e-06
7.0515323002e-07
1.23377510621e-06
7.48925437132e-07
1.1316041779e-06
6.63262899682e-07
1.01339890756e-06
6.12475598499e-07
8.97575032211e-07
5.77951485575e-07
8.02608846009e-07
5.71296297981e-07
7.11053309742e-07
6.27638966821e-07
6.07960162218e-07
6.90371561616e-07
5.14376981885e-07
6.66466865078e-07
4.12452904425e-07
6.36128193141e-07
3.07210732994e-07
6.20735874271e-07
2.10505093965e-07
5.9865456695e-07
1.46967740325e-07
5.38198006572e-07
9.65323669746e-08
4.34032286427e-07
5.16076152959e-08
3.72435360548e-07
2.18270890767e-08
4.21296679534e-07
4.19774165432e-07
8.76699572843e-09
-1.33250328777e-07
3.52042047806e-08
-1.68847404886e-07
4.56049529912e-08
-1.95721623912e-07
3.68873193843e-08
-1.62975534543e-07
5.53340368913e-08
-1.2416997222e-07
1.02542772817e-07
-1.78886255814e-07
1.24993368793e-07
-2.04545568088e-07
1.44012302816e-07
-2.08254712699e-07
1.64707982741e-07
-2.09596285547e-07
1.93795151795e-07
-2.13986615078e-07
1.97567445294e-07
-1.79068759612e-07
2.03925319137e-07
-1.48184175602e-07
2.32575734752e-07
-1.62145339609e-07
2.71491769558e-07
-1.8742304691e-07
3.26450711716e-07
-2.3298387503e-07
3.8090055248e-07
-2.66522647426e-07
4.2003242339e-07
-2.73003735861e-07
4.56163511776e-07
-2.80250192052e-07
5.02288179942e-07
-3.03951049423e-07
5.49889042095e-07
-3.25062894734e-07
5.95393134621e-07
-3.35393607786e-07
6.41586682956e-07
-3.4037785144e-07
6.89383153574e-07
-3.42887791617e-07
7.36687548518e-07
-3.42150159737e-07
7.83569873439e-07
-3.41422666739e-07
8.31998964975e-07
-3.42645168877e-07
8.81150118884e-07
-3.47921613744e-07
9.32785750075e-07
-3.52109699394e-07
9.81925656519e-07
-3.50727118275e-07
1.03082509301e-06
-3.476426822e-07
1.08836821447e-06
-3.59608576071e-07
1.14869539776e-06
-3.69342616319e-07
1.21619967724e-06
-3.85407820226e-07
1.28503533741e-06
-4.0432761163e-07
1.35245911827e-06
-4.13646313318e-07
1.4137301799e-06
-4.08453935124e-07
1.47124427384e-06
-3.98402766303e-07
1.527013569e-06
-3.86315534039e-07
1.58121202867e-06
-3.71828810337e-07
1.63360112269e-06
-3.54339502802e-07
1.68409826729e-06
-3.33853032036e-07
1.73219769847e-06
-3.11550463454e-07
1.77691743715e-06
-2.89010668438e-07
1.81756347639e-06
-2.66914898918e-07
1.85401360975e-06
-2.44963518324e-07
1.8864096796e-06
-2.22593713321e-07
1.91485749055e-06
-1.99398113793e-07
1.93935704097e-06
-1.75136557196e-07
1.95984333697e-06
-1.49681359533e-07
1.9761942037e-06
-1.2298106339e-07
1.98816411099e-06
-9.49961781329e-08
1.99549788447e-06
-6.56215716095e-08
1.99809099592e-06
-3.48060159819e-08
1.99549234689e-06
-2.65143426012e-09
1.9858344338e-06
3.13053759658e-08
1.96555978964e-06
6.92614804456e-08
1.93021524343e-06
1.1481291218e-07
1.87519523468e-06
1.71788293798e-07
1.79735063197e-06
2.44056324497e-07
1.69795343038e-06
3.34687161078e-07
1.58862414398e-06
4.41518880241e-07
1.48855081627e-06
5.5565116623e-07
1.38729388999e-06
6.75946273422e-07
1.28136357241e-06
8.10656876594e-07
1.14092942978e-06
8.89237087629e-07
1.02911028437e-06
7.74928675272e-07
9.40559717801e-07
7.01096938766e-07
8.39028719694e-07
6.79532973063e-07
7.33054730398e-07
6.77222224529e-07
6.30095852846e-07
7.30513073321e-07
5.42929518453e-07
7.77419390406e-07
4.52109756279e-07
7.57181276982e-07
3.41069779603e-07
7.47084552952e-07
2.34536655565e-07
7.27216524117e-07
1.51004562783e-07
6.8218772497e-07
1.07989410827e-07
5.81332238582e-07
5.55356819958e-08
4.86604953553e-07
1.44062365966e-08
4.13365441645e-07
7.60437432936e-09
4.29192599506e-07
4.2709473143e-07
1.55003040827e-08
-1.49681356355e-07
3.57959528474e-08
-1.89285990266e-07
3.98656533361e-08
-2.00083214219e-07
2.40283201361e-08
-1.47391712851e-07
5.6337537946e-08
-1.56930225101e-07
8.9797726373e-08
-2.12940937847e-07
1.06759046169e-07
-2.21878774666e-07
1.24942878403e-07
-2.26742797637e-07
1.33512222741e-07
-2.18144973869e-07
1.50979830765e-07
-2.31558130582e-07
1.49604922178e-07
-1.77754978294e-07
1.78100083137e-07
-1.76953513781e-07
2.10355225977e-07
-1.94821963752e-07
2.5803745968e-07
-2.35560985163e-07
3.10934693751e-07
-2.86296133666e-07
3.49816448881e-07
-3.05696198244e-07
3.82123914851e-07
-3.05496487873e-07
4.27074851997e-07
-3.25362424109e-07
4.76464220766e-07
-3.53478089653e-07
5.22350928398e-07
-3.71049894457e-07
5.67319276525e-07
-3.80438654743e-07
6.13241230068e-07
-3.86388073905e-07
6.62001475561e-07
-3.91691807132e-07
7.10844711313e-07
-3.90993277694e-07
7.55897583353e-07
-3.86494113896e-07
8.07201557714e-07
-3.93924589188e-07
8.55406125292e-07
-3.96088052499e-07
9.03168954357e-07
-3.99817387436e-07
9.52189463088e-07
-3.99685749943e-07
1.01693367765e-06
-4.12331509086e-07
1.07671127112e-06
-4.19327430437e-07
1.13696745578e-06
-4.29563661578e-07
1.20747799851e-06
-4.55871907956e-07
1.28026277088e-06
-4.77047017649e-07
1.34468870517e-06
-4.77983633157e-07
1.40584221671e-06
-4.69498198364e-07
1.4652436635e-06
-4.576805263e-07
1.52303813044e-06
-4.43976615749e-07
1.57917995167e-06
-4.27830764872e-07
1.63343300746e-06
-4.08447112394e-07
1.68551008861e-06
-3.85775953505e-07
1.73489920777e-06
-3.60771963308e-07
1.78081621534e-06
-3.34741785291e-07
1.82259209208e-06
-3.08487352818e-07
1.85994312198e-06
-2.82093207529e-07
1.89283568551e-06
-2.55250342734e-07
1.92126804124e-06
-2.27580854394e-07
1.94520513664e-06
-1.98812669619e-07
1.96462333329e-06
-1.6883137118e-07
1.97951121674e-06
-1.37603149543e-07
1.98980297326e-06
-1.05039953953e-07
1.99530726987e-06
-7.09250564998e-08
1.99548025053e-06
-3.48502930286e-08
1.9887570494e-06
4.10435805247e-09
1.97185991927e-06
4.8182773587e-08
1.94011004364e-06
1.00967605291e-07
1.88954909903e-06
1.65221458331e-07
1.8193737557e-06
2.41820908398e-07
1.73175411347e-06
3.3141092851e-07
1.63145383911e-06
4.34683857901e-07
1.53033251209e-06
5.42249260065e-07
1.43712820374e-06
6.48397826882e-07
1.3498434055e-06
7.62739764523e-07
1.277408015e-06
8.82716334899e-07
1.15550693644e-06
1.01074686914e-06
9.63908944683e-07
9.66451676695e-07
8.38637449621e-07
8.26428361607e-07
7.38473648413e-07
7.79789532596e-07
6.39736594672e-07
7.76217820853e-07
5.63318115445e-07
8.06830322371e-07
4.9407738494e-07
8.46456619223e-07
3.9015232726e-07
8.60905316688e-07
2.6927577918e-07
8.67818892859e-07
1.6270169139e-07
8.33703550329e-07
9.54597287559e-08
7.49365859093e-07
4.76950667453e-08
6.29130567564e-07
1.71710963802e-09
5.32725107448e-07
-3.29170278911e-08
4.48652186484e-07
-2.28720291837e-08
4.18555750957e-07
4.04848080988e-07
1.82781756178e-08
-1.67577810561e-07
2.96361084784e-08
-2.00751207287e-07
2.50605080528e-08
-1.95502183063e-07
2.68964495207e-08
-1.49548577399e-07
6.02271376541e-08
-1.90697868852e-07
7.26615078599e-08
-2.25753948687e-07
8.70326836928e-08
-2.36441669896e-07
1.03955044816e-07
-2.43776703293e-07
1.0861564189e-07
-2.22964833705e-07
1.18399093464e-07
-2.41394268404e-07
1.3099334255e-07
-1.90637253052e-07
1.57193573148e-07
-2.03557195897e-07
1.9066363416e-07
-2.2882108964e-07
2.40958065983e-07
-2.86387117619e-07
2.85221805679e-07
-3.30907174492e-07
3.13984367445e-07
-3.34675913893e-07
3.49607291643e-07
-3.41316493844e-07
3.96479521961e-07
-3.72416425043e-07
4.44067251697e-07
-4.01204955698e-07
4.89894031967e-07
-4.16996775094e-07
5.353387013e-07
-4.26011692224e-07
5.80095028198e-07
-4.31210884405e-07
6.26127271843e-07
-4.37722465157e-07
6.73874547045e-07
-4.3875722442e-07
7.18714942869e-07
-4.31309462458e-07
7.68457790188e-07
-4.43641651998e-07
8.20988860474e-07
-4.4859670206e-07
8.76625820611e-07
-4.5539623711e-07
9.35085978806e-07
-4.58083968967e-07
9.92971943807e-07
-4.70177739436e-07
1.05562461376e-06
-4.81965622376e-07
1.13109681284e-06
-5.05012515251e-07
1.20353438973e-06
-5.28269040396e-07
1.26933466229e-06
-5.42776022695e-07
1.33325994162e-06
-5.41806092546e-07
1.39620657714e-06
-5.32323813223e-07
1.45802339119e-06
-5.19364712113e-07
1.51830198743e-06
-5.04114040991e-07
1.57679582838e-06
-4.86174817602e-07
1.63325846392e-06
-4.64750631221e-07
1.68730444469e-06
-4.39649841745e-07
1.73836982114e-06
-4.11648303849e-07
1.78576008206e-06
-3.81924431906e-07
1.82884122097e-06
-3.51339076294e-07
1.86718741276e-06
-3.20188876401e-07
1.90055597918e-06
-2.88345956869e-07
1.92879057435e-06
-2.55520781846e-07
1.95180500577e-06
-2.21514650514e-07
1.96963456864e-06
-1.86335745567e-07
1.98241663513e-06
-1.50063040365e-07
1.99024889912e-06
-1.12586023777e-07
1.99290995942e-06
-7.33477479146e-08
1.98927657033e-06
-3.11139887534e-08
1.97666886264e-06
1.67782064395e-08
1.95039181564e-06
7.45053584041e-08
1.90519118494e-06
1.46138028127e-07
1.84056903426e-06
2.29920397713e-07
1.76227638515e-06
3.2000268152e-07
1.67401638313e-06
4.19577866262e-07
1.57169768585e-06
5.36752946431e-07
1.46683724177e-06
6.46756447441e-07
1.37778561585e-06
7.36992360557e-07
1.30836808333e-06
8.31600362757e-07
1.25285980706e-06
9.37615782761e-07
1.19961079938e-06
1.06350276162e-06
1.00746589356e-06
1.15835699354e-06
7.5472087149e-07
1.07925647729e-06
6.44813501404e-07
8.90336855401e-07
5.69453214801e-07
8.5175630346e-07
5.24539656763e-07
8.51806603069e-07
4.5319820054e-07
9.17586400955e-07
3.31106203299e-07
9.82773669809e-07
1.96114671952e-07
1.00261246161e-06
8.48057753586e-08
9.44785007186e-07
2.00300758559e-08
8.14121409734e-07
-3.86686292762e-08
6.87967045841e-07
-7.81321617591e-08
5.72389441935e-07
-9.25620522002e-08
4.62835238555e-07
-5.95919680342e-08
3.86770563266e-07
3.4491916456e-07
1.81668736622e-08
-1.86893855816e-07
2.66079089891e-08
-2.09641717706e-07
1.54133146167e-08
-1.84650249086e-07
2.65251584319e-08
-1.60892522226e-07
5.13569647527e-08
-2.15828485291e-07
5.51987928863e-08
-2.29716010286e-07
6.51687370092e-08
-2.46668986607e-07
7.42211623779e-08
-2.52873171926e-07
8.8264982884e-08
-2.37149074707e-07
8.36672450623e-08
-2.3709151666e-07
1.05447773462e-07
-2.12779003822e-07
1.34308086489e-07
-2.32947733047e-07
1.67666518726e-07
-2.62678478797e-07
2.11030090696e-07
-3.30213061654e-07
2.44903152402e-07
-3.65135293041e-07
2.68794714202e-07
-3.58807158419e-07
3.1028638555e-07
-3.83029879311e-07
3.58561963609e-07
-4.20888207875e-07
4.05453541296e-07
-4.48261646966e-07
4.52304901305e-07
-4.63990880282e-07
4.99417156232e-07
-4.73197145971e-07
5.45547045026e-07
-4.77378101e-07
5.88504411741e-07
-4.8074263124e-07
6.34703924697e-07
-4.84952530994e-07
6.85137815993e-07
-4.81721965474e-07
7.31733072448e-07
-4.90237964795e-07
7.82560600523e-07
-4.99362520045e-07
8.31990586221e-07
-5.04765038109e-07
8.97799823693e-07
-5.23861674518e-07
9.65532020074e-07
-5.37886342542e-07
1.0376061567e-06
-5.54040885996e-07
1.11033197986e-06
-5.77736550919e-07
1.18657008574e-06
-6.04469950554e-07
1.25503945808e-06
-6.11159714199e-07
1.32019414295e-06
-6.06849019415e-07
1.38516329378e-06
-5.97165849136e-07
1.44964873459e-06
-5.83711513702e-07
1.51277410203e-06
-5.67087908555e-07
1.57402224387e-06
-5.47259791682e-07
1.6330754793e-06
-5.23626861531e-07
1.68949800224e-06
-4.95880403407e-07
1.74267377608e-06
-4.6461441259e-07
1.79191039503e-06
-4.30928635659e-07
1.83655423154e-06
-3.95724939328e-07
1.87604203718e-06
-3.59389641735e-07
1.90988760242e-06
-3.21876119937e-07
1.93770839076e-06
-2.82998701758e-07
1.95933055645e-06
-2.42773904593e-07
1.97486712268e-06
-2.0149674124e-07
1.98464021868e-06
-1.59487314593e-07
1.98897429167e-06
-1.16579318119e-07
1.98758994607e-06
-7.17767216092e-08
1.97899933249e-06
-2.23951151798e-08
1.95945277956e-06
3.64536953105e-08
1.9230830564e-06
1.11020318366e-07
1.86432438406e-06
2.05097327663e-07
1.78828475688e-06
3.05968273773e-07
1.70944870852e-06
3.99118477526e-07
1.62470269588e-06
5.04256341632e-07
1.50532881862e-06
6.55977497456e-07
1.37915763936e-06
7.72461504029e-07
1.29268745659e-06
8.22754001541e-07
1.23870726617e-06
8.84760956713e-07
1.20597006655e-06
9.69490443863e-07
1.1886728742e-06
1.07999736781e-06
1.12565942013e-06
1.22096084386e-06
8.4965986324e-07
1.3554086188e-06
5.61061887339e-07
1.17909951117e-06
4.88870192442e-07
9.24406065269e-07
5.01774492213e-07
8.39063567318e-07
4.25327812981e-07
9.93882540929e-07
2.77980675377e-07
1.12977141306e-06
1.18966071862e-07
1.16123167776e-06
-1.04668178705e-08
1.073887875e-06
-8.01553754759e-08
8.83598208638e-07
-1.46279494592e-07
7.54062669071e-07
-1.7895844421e-07
6.05425940285e-07
-1.57679173002e-07
4.42300465504e-07
-9.34869434504e-08
3.21856641335e-07
2.52056710793e-07
1.41681953132e-08
-2.00500015807e-07
1.98319865078e-08
-2.15190280311e-07
1.20981075317e-08
-1.76980326999e-07