/*--------------------------------*- C++ -*----------------------------------*\
| =========                 |                                                 |
| \\      /  F ield         | OpenFOAM: The Open Source CFD Toolbox           |
|  \\    /   O peration     | Version:  v1806                                 |
|   \\  /    A nd           | Web:      www.OpenFOAM.com                      |
|    \\/     M anipulation  |                                                 |
\*---------------------------------------------------------------------------*/
FoamFile
{
    version     2.0;
    format      ascii;
    class       volScalarField;
    location    "646";
    object      alpha;
}
// * * * * * * * * * * * * * * * * * * * * * * * * * * * * * * * * * * * * * //

dimensions      [0 0 -1 0 0 0 0];


internalField   nonuniform List<scalar> 
6400
(
0.890014838714
1.42381453956
2.25666846932
2.81049871157
3.33970614593
3.87045422433
4.54527996062
5.30119871832
5.74109922821
6.41801053321
7.67191411362
8.54881227756
9.28434874213
10.1097613814
11.1267013537
12.1937857434
13.1487360625
14.0467052572
14.8033630901
15.2504395296
15.4774622356
15.8360225152
16.5319142695
17.5465682205
18.6568340962
19.6575757955
20.4860678791
21.2544007904
22.0647736096
22.9323098322
23.801852771
24.4796563141
24.888787668
25.1507457184
25.3067966852
25.3521371354
25.5685354924
26.0132485514
26.1405848358
26.0455505617
26.3258239903
27.1108542245
27.8991584325
28.33281182
28.4601367829
28.3749420715
28.1442921669
27.8134121767
27.3954585694
26.910656003
26.2726111462
25.2578476239
23.9064159066
22.2894122905
20.8596089177
19.667421286
18.0195864284
15.6275622008
13.1155279871
11.0930648997
9.03171487357
6.87552571899
4.77979442388
5.05215864365
8.62816003339
13.4172389114
16.3339475205
15.9952204291
13.9854802984
12.394549917
11.5780135197
11.8572139967
12.4793842997
12.4146430143
14.5454104565
14.0145132103
15.9340819008
9.8340866885
12.8621016966
4.80609597719
3.15491828519
2.5292706051
3.15270528097
4.41571129277
4.35866692207
4.29446049464
4.54203882248
5.01417235571
5.68130217981
6.52798333676
7.54570226714
8.56137167468
9.46127277872
10.3235366547
11.2034348237
12.2076403271
13.2635107371
14.2716563593
15.3139969768
15.5908190738
15.6291679217
15.9599947178
16.6279104479
17.6284259165
18.8664697246
19.8087051261
20.6064718434
21.4136911458
22.2397638088
23.0768313506
23.9163710578
24.6859350102
25.0898139766
25.3465564819
25.5365084579
25.491574915
25.757049298
26.2260228463
26.3033326998
26.0673462801
26.3169835425
27.6627097029
28.7622924085
29.0994748102
29.1654675579
28.9970769085
28.6607398704
28.2563538902
27.6695298126
27.0133858674
26.4470093517
25.9737136207
24.8343771546
22.5132989397
21.2059414858
19.7842184844
17.5472780478
15.2197363029
12.9556060687
10.7178218315
8.65862258558
7.21753799967
5.18883590486
5.53787182667
8.82165950689
14.4883251513
18.1643814657
16.8288420335
14.6396736673
12.7253785341
12.0809619864
12.577029169
13.7643082946
13.2294376936
13.1323543144
12.6516518317
11.4918623213
9.67835335451
8.15155034734
4.23470641316
3.259108799
2.87511334591
3.39484942822
3.70288359377
4.27044636912
4.73015528529
4.73537440354
4.91469662355
5.5830007932
6.50379528789
7.53019339449
8.56557616015
9.51113147456
10.3766269232
11.1115639415
12.0226092252
14.617786055
16.6200780847
17.0832434063
16.5761822786
15.4355994243
15.633603904
16.75004008
17.8020274321
18.791929145
19.8013142394
20.7059594887
21.5156193012
22.3211639575
23.1548199163
23.9598100125
24.8209756906
25.2222438956
25.2451990884
25.7567771444
25.7282088822
25.6709940434
26.3336636138
26.4569350602
26.2826184128
26.5464902682
27.3154187042
28.0836399265
28.5200372872
28.6723478951
28.6292315556
28.4324506508
28.1024243218
27.64214927
27.0737521094
26.3977976964
25.5015407396
24.2578769418
22.9267468682
21.5875296831
19.6684219731
17.4572547482
15.2078508822
12.9765680476
10.8282991472
8.88927471645
7.04974554295
5.81451226325
6.96386329107
11.2521004506
15.5228005613
17.603558353
17.6674083086
16.0741505968
14.4275628271
13.7916806583
13.7563310802
13.1389282526
12.5908233158
12.6201423677
12.3276781694
11.3853834535
9.78215143584
7.34964756316
7.54401577793
3.29615174525
5.5330567469
3.73816771768
3.8776738563
4.58644481497
11.9038070746
10.3067045423
5.45930568747
5.55108408311
6.49975995323
7.55317382907
8.60877864131
9.52973604807
10.4098119971
12.0998729834
14.1855083794
15.874883147
16.3631740193
15.4588180655
14.8196984085
15.2231048451
15.8781896037
16.7319262854
17.7819426734
18.876587925
19.9189572893
20.8514234897
21.6399995614
22.4655206
23.2278679934
24.1615558381
24.8144743893
25.5006843914
25.5187986692
25.3199903089
25.8111317137
25.8473228072
25.9070074497
26.2034872667
26.4762016765
26.8635947768
27.4849275575
28.1257192956
28.5574670277
28.7487134939
28.7419567843
28.5730640025
28.263779617
27.8234733553
27.2593744665
26.5553857922
25.6514191442
24.507510985
23.1832029855
21.6299206352
19.7114913384
17.5266728115
15.2807709686
13.0906617344
11.0514625692
9.27868017729
7.92919599936
7.52251180708
8.41985553359
10.8574307223
15.971277247
19.3383693824
19.4529078069
17.7677848334
15.4072198486
13.8256751172
13.0814805714
13.3058167111
14.7737367499
14.749907605
13.4595426153
13.3487003651
16.6617171719
13.0546768901
11.0647195996
5.72679353146
7.61074250393
4.53560381304
4.85471857876
6.6543215148
11.7987634944
8.31986984643
5.94816985522
6.07662945038
6.72048759937
7.69594979864
8.76482824222
10.1910877759
12.4453309879
13.4966263016
13.9492933662
14.0786435106
14.0283809545
14.2425538752
14.8676626555
15.3529919738
15.9301665852
16.8255875297
17.8842252828
18.9939932046
20.0663809312
20.9697592532
21.8805275935
22.5781711642
23.5234770581
24.2042387618
25.4188348203
25.4355612449
25.1719227201
25.4258320026
25.3574733962
25.5918694872
25.962240776
26.3442131042
26.7078895008
27.1313564115
27.6751809705
28.2312013105
28.6467664206
28.8631631345
28.8885148357
28.7476631454
28.4620996387
28.0436756644
27.4930408501
26.7909339795
25.8999908456
24.7947342737
23.4644873247
21.8405485809
19.8762031128
17.6973336672
15.4991133265
13.4274816116
11.6137410574
10.2120749906
9.42377377776
9.49444134069
9.77568639989
11.250485527
15.5833793402
19.460807264
20.7852496632
19.5918737177
16.812876191
14.3301017322
14.0319245698
16.3438141565
17.2472112421
16.2362621827
15.345303902
18.0326217486
21.0631913654
16.3605837194
15.4743667785
10.0148656822
9.18864945002
5.65250189022
6.18534550979
12.0848731848
11.5694162857
6.78357261937
6.55846160567
6.71162101227
7.07411376537
7.93789691144
10.5266856359
13.6954049703
14.1777949645
13.9003842168
13.1232052253
12.9195177281
13.3877281293
14.3697090754
14.837605919
15.2528691014
16.002513941
16.9695144661
18.0584043365
19.1008174989
20.1828005802
21.3282383839
21.9860221113
23.0812372376
23.576955753
25.0205468496
25.2141707936
26.039043184
25.3873041023
24.8825235401
25.1022100515
25.5917655746
26.0884781024
26.5347186402
26.9489265651
27.3925344178
27.8968194273
28.3988307356
28.7961189501
29.0263942978
29.077888003
28.9641508634
28.7052245117
28.3142636056
27.7892985314
27.1104598747
26.2457608216
25.1605641457
23.8112762097
22.1439527484
20.1769538055
18.0617675381
15.9936463289
14.1341664922
12.6344343827
11.6317418609
11.304302711
11.7632197325
10.9844431468
13.177899217
17.5911559935
20.8405319598
22.0993012459
21.1358701132
17.7358256162
15.5157808465
17.3334647174
19.5657737997
19.0614605399
18.0907902944
18.1915670118
22.7994289835
24.3990510186
19.378515293
19.1814918507
12.1427891397
9.08217710545
6.87081968932
6.44037989428
12.0425582481
8.52774839777
7.04018501873
7.16385795633
7.30381701997
8.00636836871
8.52960836269
13.3898783322
14.1206575642
14.2045663956
12.9770027546
12.145357388
12.5368790884
13.8766009361
14.3307730266
14.5553734024
15.26695132
16.1151619833
17.0850186073
18.1713507263
19.3909823922
20.5581679799
21.355785021
22.7621362497
23.167983912
24.72183328
24.7768348749
25.8506506443
25.525007124
25.1635990761
24.7230287522
25.0592732589
25.6768807818
26.2551865474
26.7459359607
27.1962475226
27.6590212264
28.1471204193
28.6184406833
29.0016333384
29.2403623001
29.3131759537
29.2265039506
28.9991773237
28.644567027
28.1586166335
27.5187163557
26.6885448481
25.621649038
24.2673426566
22.6026897397
20.6971011801
18.722430105
16.8672463155
15.2686091259
14.0224126577
13.2536976905
12.9969532763
12.7712432431
12.7844937634
14.8920089384
20.3206906805
22.3466177508
22.5158906962
21.3704900415
19.045534565
18.7261525811
21.267481164
21.7015430333
20.8862070683
20.3266291541
22.3437790486
25.1270677923
26.6108144529
22.013702617
20.8750290935
11.8786549478
8.7787774132
8.02672188622
12.2304147404
12.1670317933
7.62447646078
7.70496023416
7.86056583024
7.95936593567
8.54041036458
13.1308727249
14.0861816673
14.2155893789
13.7930228119
11.8692120864
11.7573518379
13.3212921423
14.0063550931
13.9810864859
14.4336361121
15.3061903322
16.2859479602
17.2868591195
18.4263541176
19.4906075502
20.8985600414
21.4458234599
22.7821454715
24.344596812
24.8634941565
24.4921691512
25.3538103309
25.5887388909
24.663310827
24.7180978464
25.2071905185
25.8299407525
26.4362605684
26.9687082609
27.4549177997
27.9388988659
28.4269255253
28.8849513316
29.2601332156
29.5053983741
29.5974220571
29.5398642646
29.3509328368
29.0431899537
28.609789992
28.0235413489
27.240873192
26.2085963481
24.8859678208
23.2885869066
21.5251923239
19.765789938
18.1435133566
16.708312034
15.530451647
14.7809571484
14.477561411
14.4517344367
14.7966559508
14.8519730291
20.6666323422
24.2864994242
24.0843646922
23.3582986798
22.2943425932
23.0022979896
24.2933867201
23.5877361148
22.9277177631
23.1849637703
25.5825612778
26.2957517916
26.9057270368
24.0261440638
21.8863197467
11.1840353961
8.73984865771
8.70004840214
13.2195396092
11.1906070745
8.27537145601
8.42662451828
8.7137867944
9.86672431771
8.66640606168
13.9032313954
14.6181003961
14.2635893207
12.6115824434
11.5359954766
11.8960285836
13.3948790419
13.7364075888
13.8744791904
14.4557921787
15.3088162285
16.3626723614
17.4622625802
18.9914631525
20.2831388732
20.8692725684
22.7765581479
22.6961725234
24.527454819
24.351698765
25.5672381101
24.7401019355
24.5326915728
24.5872878911
24.8928407018
25.4096449038
26.0176019186
26.6336795006
27.2035703518
27.7297896509
28.2397628973
28.7373642553
29.1948353959
29.5693787003
29.8220197227
29.9338184555
29.9098808755
29.7677873596
29.5182543328
29.1517463707
28.6365412561
27.9232446135
26.9595672359
25.7260235203
24.2762237927
22.735975054
21.2238627384
19.7453861694
18.2679094592
17.0076904764
16.3436747591
16.3503901978
16.6546639899
16.8585226121
16.7149366276
17.9603436144
24.6320243713
26.1001941075
25.862718139
26.272175367
27.1235636071
26.6279977493
25.5612451985
25.391716495
26.4687753007
27.7504260996
27.6548219497
27.0762565749
26.0742179855
24.7104441392
10.6888774931
9.20768368607
9.85281104124
13.3015174824
9.31228447118
9.29699797955
9.15466742261
9.42618354169
12.4404564241
11.2043821347
14.7384860196
14.8987578442
14.3495987631
11.9682182335
11.5842719593
13.1521432446
13.6217003006
13.5025872403
13.842379819
14.6039651254
15.4376654368
16.4367886107
17.3973137211
19.1417592726
21.2710622077
20.82158649
22.7271401338
24.0485968532
24.7627364405
25.4386175534
24.8852182169
24.9703924412
24.2637432978
24.5099701091
25.0619648247
25.6340037975
26.2328497581
26.8502325878
27.4504292329
28.0201968478
28.5651650523
29.0816338988
29.5472122726
29.9278850355
30.1919880493
30.3265504637
30.3417937447
30.2561617495
30.0774895495
29.7937895974
29.3713889276
28.7597155473
27.9153686117
26.8461577987
25.6331175017
24.375698508
23.0564611459
21.5036069539
19.8220853786
18.6318272898
18.4013568114
18.9237435227
19.4501662183
19.5638996008
19.2240674833
17.8670030011
17.4953529321
27.9603226345
30.5337591201
31.1826955343
30.6880001387
28.9768821385
27.9409585087
28.2741480948
29.5692840934
30.0318978873
29.8771634698
29.6401012849
30.0136945396
30.2163675189
10.7093372844
10.0708217858
13.2283276014
13.4978910093
9.46530100974
10.0671241031
9.88052750569
10.3450574741
11.9922597133
14.6554106436
15.5839522274
15.1851474501
14.6103382494
12.0152825214
11.749345139
13.6572799373
13.7332534365
13.4869156043
13.8681279262
14.7343223772
15.7873035423
16.7931784738
17.5742096558
18.7778415649
21.4378060864
22.6701212926
22.3849475729
24.1643187337
23.7164373145
25.4604148738
25.8647317978
24.9338851052
24.2441863124
24.6228465931
25.260475629
25.8689487424
26.4723510475
27.0919424565
27.7123806958
28.3244675848
28.9145930134
29.4609397075
29.9428156647
30.3358062559
30.6166910654
30.7801533218
30.8421564436
30.8223002928
30.7267771208
30.5432771583
30.2400722811
29.7722082493
29.1136930261
28.2998909724
27.4092588691
26.4289481389
25.1089239696
23.2958513255
21.64600275
20.9547409267
21.4768880112
22.5691229121
23.2831420176
23.3117846398
22.6292916313
20.9791785816
18.4881924702
18.7945084919
32.0314445771
36.8740387976
35.0370435635
32.035978454
30.9699136967
31.5509033608
32.5698509267
33.1340613356
33.6117477021
34.2183538315
34.8673158911
35.5604736608
11.0993677356
10.9595655042
14.8812740259
14.2408331209
12.3883036874
11.3026502224
10.8349224045
11.7971144606
11.5089606503
15.6245478635
16.2549742958
15.5488732195
14.7292000987
12.6615908967
12.5108430943
14.1149050645
13.769810321
13.5787724148
13.984712836
14.7753349442
15.9263171691
17.2475739238
18.9532948796
18.9045270718
20.9465728602
23.0365142481
22.2941176083
24.4114900812
25.3096745153
24.7052431412
25.0155891872
24.3624521016
24.5304417296
24.9457561414
25.515812522
26.1271511112
26.740792707
27.3673672507
27.9972498222
28.6390969917
29.2819886211
29.8765601954
30.3845345828
30.7942227317
31.0982010358
31.2992569734
31.4170909836
31.4717790426
31.4699694054
31.4030516098
31.2469339514
30.9734480847
30.5841082971
30.1253773665
29.5982582388
28.7386820779
27.21308308
25.4675116765
24.3847303246
24.5421812431
25.9957724534
27.6886218411
28.8104376619
28.9484165353
28.2483442909
26.3700538941
23.2105497097
18.6957043873
27.2591634103
37.7204549636
39.9029436458
36.1150742701
35.0350974799
35.6079686633
36.5598941403
37.3067419977
38.5571038246
39.4738994405
39.4831370048
39.7318153803
11.7258720807
11.6250669522
14.6501930902
14.755310411
14.7786349565
12.4638602788
11.9203145399
14.6240858655
11.9146821949
16.4881135226
16.7679604087
15.9220500386
14.8458020064
13.2954681521
15.0486103143
15.164100391
13.9774578905
13.8074960726
14.2353806111
14.9141889648
15.8834247534
17.23933965
20.1991869088
21.1583067591
20.4561279973
23.0931540562
24.0825429029
23.9969927496
25.2725351619
25.731807389
25.3427337693
24.4033693316
24.7346840073
25.2744358244
25.8265332543
26.4189466847
27.0282822974
27.6743284638
28.3304639005
28.985744933
29.6626810673
30.3149241807
30.8702956618
31.3071662518
31.640021004
31.8881387097
32.0722123608
32.2088909983
32.3067703553
32.3666648395
32.3828512828
32.3612118647
32.3361383294
32.3151696757
32.0754685511
31.0303508019
29.6737660522
29.4279761778
29.2994579258
30.3711582469
32.4093028231
33.467553512
32.9908046458
32.1247085466
29.9847376996
27.020379428
23.7283740456
17.3211520965
16.7895056089
31.3987196623
38.5298405738
37.0926488032
34.8213572496
37.1440653502
39.4894999859
41.9945154254
44.1637344202
44.9882195983
45.009263239
45.2315861763
12.4099590733
12.3421858
11.9930677914
15.0987434458
15.332838186
13.2602562475
12.8958478242
15.6296067169
12.5979728747
17.3833600239
17.2329630842
16.3096335347
15.0689664308
13.6270957764
16.2018314013
15.7605952685
14.434550028
14.2140541485
14.5892897431
15.2227068645
15.9646680186
17.1262416847
20.6958023379
22.2281065431
20.8020639754
23.1144245353
24.5938959493
23.5329638414
24.8989736012
25.314032718
24.4580823606
24.7486617207
25.1762402809
25.6547745766
26.1700793951
26.7625292205
27.3695861279
27.9949333013
28.6803245433
29.3821472836
30.0859579793
30.7783031911
31.3877494969
31.8700757883
32.2454365903
32.5522922237
32.81233662
33.0333622449
33.2292371298
33.4167410455
33.6187941366
33.9080332995
34.3446556954
34.7975465174
34.5435104711
33.0904097465
33.2131077581
29.6647958377
26.1295220523
23.8382485448
17.580947904
0.304122888162
0.00105333623907
0.000107469566449
8.52834647339e-06
2.40226313584e-06
2.82764446171e-05
0.00028891544038
0.00326360498752
0.00852423494355
14.1551565212
42.183627821
50.089438088
45.7823227084
41.3752971845
43.055052897
47.8601132495
50.3155574355
51.8055782318
52.2687451958
13.2738797696
13.3674050326
15.74552381
15.760883646
15.8040677485
13.9406929971
13.9487812383
16.4999048569
13.6293835579
18.1640673003
17.6800960075
16.7221218579
15.3746158595
14.0331222495
16.4979367575
15.9861304916
14.888404389
14.6809002488
14.9827303215
15.5444981441
16.2178488018
17.1393575722
20.128379508
23.0379495063
23.2141592128
22.516596999
24.8019089839
25.6468788996
23.8439260434
23.8990557078
24.4012011638
24.9852004313
25.5329035437
26.0426462746
26.5708517119
27.1339737483
27.7433557352
28.3863204037
29.0579067785
29.7965870369
30.5548497878
31.2874178636
31.9403982998
32.4739345374
32.9109822581
33.2933798866
33.639150971
33.9483943632
34.2275349271
34.5118509542
34.8998049542
35.5515117856
36.5216274788
37.3609012906
36.7196015365
32.9195921066
22.4043860555
3.57198764721e-07
3.92881599635e-10
7.365125498e-12
1.24843924408e-13
3.61204448624e-16
1.02646419652e-18
1.7767900959e-23
1.38981048463e-23
3.37414026413e-23
2.27443730814e-22
1.06533373679e-21
3.93534814151e-21
2.5008522442e-20
1.9581114806e-20
1.69876816997e-18
9.66882935374e-16
9.71923665657e-14
7.37525879444e-12
1.69834388435e-09
2.85884718666e-05
51.8997308447
57.5790581906
58.4317340346
14.0883283091
14.2801770744
17.3713942925
16.4556635288
15.9527921342
14.6249984711
14.9676460324
17.2422984626
17.2158297597
19.1360995872
18.1923109318
17.2294209966
15.7674462137
14.5828657267
16.8128290684
16.1481794925
15.3220710084
15.1554829967
15.3839815803
15.8627346198
16.5008584501
17.3751760009
19.6308510469
23.296073696
24.5718452018
22.2780440098
24.321095181
25.7236972125
25.5631753721
24.3234624076
24.4854295886
25.2061216725
25.8919761838
26.4754318023
26.9657554829
27.5357486224
28.1402663332
28.8027150746
29.4950748081
30.2469667612
31.0556826041
31.8465533133
32.5375437514
33.1075608503
33.6168203868
34.1244293286
34.5963179371
34.9714034983
35.2471897604
35.5842625146
36.1762855647
37.1838116639
38.6809650016
39.8981811007
30.938113484
0.234317991144
1.97527585001e-13
7.99891395483e-16
2.31315643079e-17
3.36753174304e-19
2.73604837851e-22
4.56535891929e-25
3.21814245414e-26
0
0
0
0
0
0
0
0
4.47588734747e-30
1.50962414079e-27
2.25807594035e-25
1.31006334771e-22
1.82983698509e-19
9.90903494514e-15
1.50480657799e-10
0.00117320484753
61.9286478035
14.7553965885
14.9691086857
19.5096804131
16.9986714925
15.8583927024
15.2313075136
15.7029395527
17.3280546282
18.8067615481
20.2522906025
18.8618800475
17.8724324966
16.4109866658
15.4226305766
17.3338755752
16.4617396211
15.8324950081
15.6782414607
15.8248935581
16.2182856561
16.7847797999
17.5941661114
19.4297550888
23.1706011791
25.559614953
24.8297098417
23.8180909715
25.0938711328
25.3351408762
24.3506454243
24.9285166572
25.6741737674
26.406253107
26.9605401496
27.4698049337
27.9756201226
28.5921239568
29.2498587678
29.9708443454
30.7486265384
31.5858826156
32.437787436
33.2088902658
33.8169943204
34.3900683852
35.0356691314
35.6499994565
36.0573419855
36.285174446
36.6458628177
37.3994662233
38.5998581671
40.322035147
31.5360636933
1.30804957133e-09
2.85974662706e-16
9.37872377913e-20
3.79236855084e-21
5.17078035621e-23
1.41796850056e-25
0
0
0
0
0
0
0
0
0
0
0
0
0
5.76718033597e-29
5.73094788996e-28
1.25634794926e-26
6.09185747779e-25
3.38294824305e-21
2.8158430031e-12
5.42799190259e-17
15.276140119
15.4798823145
21.55727242
17.4178449227
16.0101904205
15.7933262968
16.5111868358
16.7347020533
19.7567618452
21.0532852338
19.5106915277
18.5303502982
17.2513634307
17.2902781334
18.0617012243
17.0161878547
16.5374185155
16.3953945173
16.3742221886
16.6608083064
17.1219224306
17.8524851123
19.4157511868
23.0273103457
25.9709095313
26.466743228
23.6594434469
24.0631126793
24.1471451123
24.4664198009
25.235813487
26.1620790546
26.9000515507
27.4899703869
28.0191869321
28.5925203593
29.1102403257
29.7631352036
30.4900837023
31.2769742671
32.1831193213
33.1092632787
33.9382127923
34.5306731023
35.1152935269
36.3293880643
37.9093209603
38.47075096
37.7834670403
37.9364070643
38.7398728685
39.962032397
30.2773756759
1.51332676748e-10
2.28078167662e-15
1.02319452046e-26
1.03395073849e-23
1.6871226663e-25
0
0
0
0
0
0
0
0
0
0
0
0
0
0
0
0
0
0
8.91011280938e-28
6.03378122651e-27
1.11267928368e-24
95.9203079682
15.7286377765
15.8983005393
21.407570694
16.8914528768
16.2376004888
16.2802868249
17.4276409294
16.7647575669
20.5631313786
21.7981311093
20.1271661657
19.140815686
17.9066924554
19.4897514098
19.0703140684
17.7735199412
17.3485728091
17.4651479011
17.1454297553
17.2723469356
17.5585959675
18.1546809764
19.5427496784
22.8724500146
25.8416120151
27.5629057419
26.2958831946
25.3780580897
25.0685509713
24.7162693788
25.5311985615
26.7831181832
27.3548612023
28.0260274412
28.7999067904
29.2040896228
29.7217484107
30.3795297434
31.1240590917
31.9184471018
32.7876942229
33.7721849097
34.7384667703
35.6993211759
36.8075842901
38.3616309559
39.6360562999
39.6848970962
39.6185092476
40.2035812944
41.3759247685
34.0425534038
6.882019651e-10
6.28190964915e-15
8.25645500909e-19
1.12138484327e-20
0
0
0
0
0
0
0
0
0
0
0
0
0
0
0
0
0
0
0
0
0
0
2.74162734763e-27
1.99550339517e-16
16.2460671459
16.392256696
21.0620165692
16.5955317433
16.5488628905
16.6787388084
18.2175164738
17.2489869915
21.2693147532
22.5298894742
20.7399438728
19.7523146444
18.4571693741
20.2568132036
20.005664019
18.6005895835
18.1480416467
18.3684009576
18.0669428659
18.1040026483
18.1944232695
18.5097386195
19.8302668393
22.8503771161
25.5648047974
27.8849406738
27.4921553053
25.9295269878
24.5624574549
25.2174671165
26.0402523237
27.2552993128
28.1936982972
28.9902080483
29.6390955034
29.9244526749
30.4176233291
31.0880724602
31.8485427951
32.6772403932
33.5586385472
34.6240627846
35.9069174663
37.4522345284
38.5354919649
39.0510646998
39.8198188889
40.3600453076
41.7552035614
43.6740728083
40.044393746
6.27085822266e-09
8.32650255656e-15
1.43586267606e-18
2.9450282918e-21
7.13048000204e-23
2.3934601003e-25
0
0
0
0
0
0
0
0
0
0
0
0
0
0
0
0
0
0
0
0
0
4.60739696652e-28
6.09600701677e-28
17.0055225845
17.1516131962
20.7603300352
16.9029084422
17.1209410004
17.1753881639
18.2522237922
17.9858861132
21.7857749519
23.2275372163
21.3868559688
20.4128449927
19.1247634212
20.9549992947
20.8485416388
19.5144193459
19.0050237901
19.2485984334
18.9673586939
19.0809612382
19.1010971032
19.0242804258
20.311450049
23.0232067529
25.4360141662
27.9726207968
28.0475431418
26.6855922586
25.074853263
25.452329368
26.6520280819
27.4328497109
28.2490427552
29.2485064542
30.5667238444
30.9641997135
31.3714441327
31.9053929989
32.6278965942
33.5320797294
34.525120851
35.7250857618
37.6680671883
39.4136796389
39.7732300918
40.1407856645
41.3898065025
44.2413414151
47.6941524038
44.0554226627
1.79160372406e-09
2.97616834884e-16
1.23160805937e-20
4.03803862849e-24
2.53365268507e-26
5.13550866475e-26
7.88622498469e-27
0
0
0
0
0
0
0
0
0
0
0
0
0
0
0
0
0
0
0
0
0
3.40546231659e-29
1.54632037236e-28
18.1463641706
18.2536422278
21.0770948377
17.8584797449
18.2898217937
18.043512143
18.5884165612
19.3061557291
21.8611948745
23.7584472903
22.096830312
21.1442026343
19.8987470741
21.7484668043
21.7189091994
20.5883520434
20.0438840737
20.2731525613
19.8764524337
20.1549707713
20.3172725709
19.7637587514
20.8679334594
23.3932063336
25.5027356777
27.8402376805
28.30155203
27.3541685477
27.0584978259
26.3220198607
27.0626082572
28.2345375393
29.6217057662
29.8528426658
30.8403784123
32.0021840761
32.4396575687
33.0396483258
33.6602046448
34.4750534394
35.6078876887
37.5756388528
40.1887602651
41.1639318164
41.1334955292
42.4109976171
46.819313225
53.5969883138
49.9356442425
6.44442917901e-11
4.50905570163e-18
4.20981831833e-23
2.88049647083e-25
0
0
0
0
0
0
0
0
0
0
0
0
0
0
0
0
0
0
0
0
0
0
0
0
0
0
0
19.7351765769
19.6155893733
21.9190234322
19.7517824339
20.2472143196
19.3210394639
19.5481216946
21.209421253
22.1070974539
24.3952677754
22.9222401695
21.9565043098
20.7545754313
22.5797659245
22.5852627929
21.7702819682
21.5540352365
21.6077049005
20.8791719992
21.3238644898
21.8305538368
20.8142524939
21.3138439795
23.8534891059
25.7725180917
27.7291294463
28.4839479607
27.5345292075
28.2525328895
27.9128180933
28.1311666205
27.9953502069
29.3868120385
31.0807369099
31.8097001732
32.7507160097
33.5082174193
34.138614589
34.9006930595
35.7367456015
37.3144137455
40.40435049
42.6560875933
43.1217761023
43.8845432623
47.6423101531
55.7979622922
53.0659962702
20.7530511216
4.02395942588e-20
7.03473039898e-23
3.22111335458e-25
0
0
0
0
0
0
0
0
0
0
0
0
0
0
0
0
0
0
0
0
0
0
0
0
0
0
0
0
21.4154428274
20.8987114876
22.8283083174
22.2504367996
21.9714063056
20.7987184314
20.6062407769
22.3613650071
21.4085565516
24.8983971315
23.8452638537
22.8419164185
21.6826184098
23.4233994654
23.3917772922
22.7622051271
23.627087349
23.2125975627
22.0047564768
22.6106379202
23.1857662119
22.1582031697
21.5126658542
23.8734018582
25.9713764021
27.6576032396
28.5642934262
27.6382175752
28.6633336643
29.2110057565
29.5110766839
28.7920287347
29.641153565
31.0424046325
32.7464791089
33.9829447827
34.8066165696
35.4057817757
36.1465987899
37.4050090975
40.2688280225
43.5963072056
45.3291260539
46.2657249102
48.7289513823
54.2107631661
50.8731617328
28.0680557147
1.08348593269e-19
1.56857448243e-22
5.49345044186e-25
0
0
0
0
0
0
0
0
0
0
0
0
0
0
0
0
0
0
0
0
0
0
0
0
0
0
0
0
0
22.2649381096
21.8039919409
23.4184475402
23.3230749854
23.0604608458
22.1962672834
21.817873905
23.7531562659
22.4749445624
25.5354770981
24.7795702746
23.7708547315
22.6780313443
24.2961828519
24.2078299787
23.5961161039
24.6194325928
24.344404421
23.0998364845
23.8761020821
23.9565867149
23.0056881098
22.5477383176
22.7808694938
25.4934556553
27.1848303876
28.371987158
27.6280179777
28.7568475891
29.7816834769
30.6508469818
30.6103159235
30.0383343928
31.1327040092
33.0102609031
34.8778309827
36.2200944121
37.0783268139
37.8199272712
40.2091317977
43.9418676159
46.8874595086
48.3925953255
50.1960489164
54.0838134033
49.3291747944
23.1509954946
5.72389861479e-19
5.15608954949e-22
1.46848099726e-24
0
0
0
0
0
0
0
0
0
0
0
0
0
0
0
0
0
0
0
0
0
0
0
0
0
0
0
0
0
0
22.3911323837
22.3773499894
23.7864663369
23.5742555825
23.7604058676
23.2850737691
22.8764925965
25.122941425
24.1697097702
26.3496113548
25.7719046272
24.7299474193
23.7362080746
25.2134082727
25.0919884753
24.5570084999
25.451543184
25.3345058796
24.2427062201
24.925292879
23.8516976339
23.7913548448
23.6092991177
23.8757221304
24.7029988809
25.7406313786
27.5588775093
27.4346626645
28.3647415988
29.8414401209
31.1375473431
31.9867073525
31.5853930471
31.9520744169
33.2486710574
35.093022921
37.1448614357
38.823258886
40.3321955454
43.8335685731
47.5910279625
50.004119963
51.1511855278
52.8381723133
47.9510755172
29.3926014697
24.9493231109
1.79099643115e-21
4.01199954589e-24
0
0
0
0
0
0
0
0
0
0
0
0
0
0
0
0
0
0
0
0
0
0
0
0
0
0
0
0
0
0
0
22.6700663649
22.7889080158
24.1059857077
22.767038533
24.0774852761
23.899660564
23.5971408729
25.7699854462
25.0531193026
27.1780949365
26.7982316827
25.6891405676
24.8631711597
26.1623038503
26.0180477458
25.6504144347
26.377576396
26.4344131867
25.5096186517
26.3515944054
25.2187897097
25.4255774941
24.8883193885
25.1934993271
26.4961314679
27.1300981958
27.2188848452
27.1736295818
27.934446573
29.7979817651
31.1564800428
32.2668282402
32.9229764653
33.0741726608
34.5807240554
35.8544061684
37.9067575729
40.4496920802
43.4573388679
47.6497259806
50.990160789
52.5632016294
51.7850322577
47.7869907846
41.8186628516
27.8314200333
1.50287205179e-20
3.42136176562e-23
0
0
0
0
0
0
0
0
0
0
0
0
0
0
0
0
0
0
0
0
0
0
0
0
0
0
0
0
0
0
0
0
23.3920978576
23.4748709354
24.4485153122
23.2005387785
24.358941997
24.2541758789
24.1103178457
26.0149889724
25.6743259058
27.8004538073
27.7974244887
26.5888345556
26.0442252536
27.0966171813
26.9044745703
26.7093979105
27.2724844624
27.6168905694
26.8226323876
27.7952507173
27.0030142593
27.4780913323
27.2840501931
26.2293401214
27.2978067934
28.2522651961
28.4162982415
27.0262347651
27.4426265737
29.7101696361
31.3097642064
31.9751960114
32.7861349409
33.4386578805
34.9817439381
36.5320000059
38.7856161761
42.1051526224
46.7679662875
51.5293064165
54.1465231546
54.1811614951
51.1876948889
45.3007541352
28.4126172293
20.872312855
2.38413938153e-22
9.66773819798e-25
0
0
0
0
0
0
0
0
0
0
0
0
0
0
0
0
0
0
0
0
0
0
0
0
0
0
0
0
0
0
0
0
24.2985468602
25.2859397419
24.9409050019
24.171800497
24.9124354466
24.6631351072
24.6008795018
26.2255435642
26.236117478
28.0828231968
28.7573463947
27.3891745808
27.0899324798
27.8680777469
27.735804449
27.5195209857
27.6381806728
28.6909336971
28.1907778064
29.0596820544
28.9364499291
28.8425720928
28.7261640672
28.3718590878
27.7228996737
28.4649676637
29.3742481549
26.6181177347
26.9712110818
29.0698660938
31.3648992334
32.51409008
33.4695191428
33.48198355
34.8763901664
36.7989074521
39.3279939052
43.6429687992
50.052124625
55.2186795583
56.7110726916
52.4817080135
49.8272608514
46.8010946089
32.6436467499
1.61599129976e-21
4.12439848585e-24
0
0
0
0
0
0
0
0
0
0
0
0
0
0
0
0
0
0
0
0
0
0
0
0
0
0
0
0
0
0
0
0
0
24.9849459214
26.0101535636
25.6525721824
25.0464164846
25.6125677447
25.2357248468
25.1515707685
26.5077092822
26.7745832978
28.1043650113
29.6057122035
28.1452288239
27.7346890264
28.5025993403
28.6169689032
28.248036743
27.9339025568
29.4637280446
29.5767023911
30.1636721358
30.2857980036
30.473405298
29.3979466345
29.4091521886
28.9762981426
30.0680386256
30.714259994
28.3004179539
26.5739586206
28.1110617876
30.6884508115
32.6749485813
33.7448160754
34.0430235892
34.564168398
36.5819288699
39.2930748458
44.8204130737
53.1614565676
58.9209240762