/*--------------------------------*- C++ -*----------------------------------*\
| =========                 |                                                 |
| \\      /  F ield         | OpenFOAM: The Open Source CFD Toolbox           |
|  \\    /   O peration     | Version:  v1806                                 |
|   \\  /    A nd           | Web:      www.OpenFOAM.com                      |
|    \\/     M anipulation  |                                                 |
\*---------------------------------------------------------------------------*/
FoamFile
{
    version     2.0;
    format      ascii;
    class       volScalarField;
    location    "534";
    object      p;
}
// * * * * * * * * * * * * * * * * * * * * * * * * * * * * * * * * * * * * * //

dimensions      [0 2 -2 0 0 0 0];


internalField   nonuniform List<scalar> 
6400
(
0.15192134033
0.151923994111
0.151931546438
0.151946241072
0.151967891183
0.151996386964
0.152031737533
0.15207498329
0.152126782926
0.152188214868
0.152264864848
0.152359680182
0.152469941295
0.152595631192
0.152738578786
0.152901099844
0.153084518026
0.153288628131
0.153511576332
0.153748362024
0.153993362651
0.154247522224
0.154517512297
0.154810561526
0.155131341063
0.155479751786
0.155852427131
0.156246866929
0.15666275123
0.157100763794
0.157561422533
0.158042971351
0.158539547967
0.159045221404
0.159557455867
0.160073199969
0.160592403888
0.161121574678
0.16165951121
0.162196591184
0.162733902961
0.163284952047
0.163856812366
0.16444142256
0.165028207099
0.165610171046
0.166182008341
0.166739873758
0.167280320108
0.167800415661
0.16829794628
0.16876808042
0.169202984788
0.169592579769
0.169935966085
0.170239873677
0.170501605783
0.170712657988
0.170872015931
0.170988748018
0.171070155383
0.171121587104
0.171147824232
0.171158650743
0.171159876094
0.171146796889
0.171114886522
0.171070050137
0.171022077908
0.17097595948
0.170932530378
0.170890798479
0.170850094017
0.170812975593
0.170779485147
0.170750501649
0.17072669486
0.170711288617
0.170701544288
0.170697456773
0.151917433466
0.151920243476
0.15192706358
0.15194142297
0.151964484123
0.151994346154
0.152030143033
0.152071802509
0.152121761862
0.152183053703
0.152259365725
0.152353114025
0.152463610693
0.1525901944
0.152733327648
0.152894534352
0.153077233296
0.153281999818
0.153506320385
0.153743832647
0.153986956358
0.154238932502
0.154508174554
0.154801027528
0.155122156051
0.155471299609
0.15584421724
0.156239188501
0.156655996994
0.157094737921
0.157555402341
0.158037318078
0.158534914018
0.159040649245
0.159553027503
0.160069016761
0.160587964518
0.161117577362
0.161656630271
0.162194261216
0.162730134807
0.1632812977
0.163857015944
0.164444535834
0.165032762956
0.165616313402
0.166189765171
0.166749597094
0.167291860997
0.167812146795
0.168308272609
0.168779562699
0.169220365783
0.169612279637
0.169957192491
0.170264250709
0.170524022812
0.170731274089
0.170889649575
0.17100497515
0.171083109934
0.17113361875
0.171159588007
0.171170580624
0.171172166484
0.171159073969
0.171125178051
0.171077172854
0.171026189695
0.170977446102
0.170931894925
0.170888291307
0.170845708702
0.170806779205
0.170772975199
0.170744588705
0.170722466396
0.170707604329
0.170698207562
0.170695099187
0.151906503155
0.151911174414
0.151917298116
0.151930480214
0.151952787217
0.151986151201
0.152025034108
0.152065453177
0.152112862056
0.152172708399
0.152248241176
0.152341389606
0.152452054339
0.152579315449
0.152722485479
0.152880388846
0.1530608287
0.153270555319
0.153498008601
0.153734278636
0.153973271647
0.154219766522
0.154487673087
0.15478274092
0.15510462029
0.155453432653
0.155827478673
0.156224202601
0.156642506878
0.157082481745
0.157543885071
0.158026759868
0.158526539758
0.159031813328
0.159542763965
0.160060663069
0.160579597363
0.161107989841
0.161648118017
0.162188799292
0.162731109502
0.163287027729
0.163862185966
0.164449286455
0.165038918073
0.165624617276
0.166201243142
0.166764615338
0.167310701735
0.167835728358
0.168336811582
0.168810366888
0.16924894946
0.169644392125
0.169997589462
0.170306196517
0.170563124262
0.170767856082
0.170923872351
0.171036481145
0.171112742366
0.171160316674
0.171184559423
0.17119735529
0.171200400212
0.171184806181
0.171147054054
0.171093733836
0.171035781497
0.17098053547
0.170929427055
0.170881290377
0.170836503145
0.170796909895
0.170762682447
0.1707347968
0.170714276189
0.170700535842
0.170692092753
0.170689123374
0.151891075024
0.151895825636
0.15190091882
0.151913039165
0.151932674567
0.151965898605
0.152015383825
0.152055861177
0.152099653347
0.152156977478
0.152231242848
0.152324015718
0.152435131617
0.152562214253
0.152705308455
0.152867738763
0.15305254976
0.153259702665
0.153479253939
0.15370431898
0.153938851275
0.154188656059
0.154458791091
0.154754225693
0.155077038671
0.155427180292
0.155802992841
0.156201793952
0.156622256646
0.157063900462
0.157527305547
0.158011646079
0.158512862115
0.159021586975
0.159529748554
0.160044137075
0.160566742686
0.161095249044
0.161632738884
0.16217718548
0.162727873837
0.163290443291
0.163868330218
0.164457144408
0.165049449703
0.165638813114
0.166219933737
0.166788325111
0.167339862153
0.167870684029
0.168377133558
0.168854710355
0.169297174515
0.169698769565
0.170056593304
0.170365939911
0.170621965379
0.170824632989
0.17097768426
0.17108696335
0.171159927313
0.171204494421
0.171229034203
0.171244870439
0.171248239056
0.17122879468
0.17118305844
0.171119099045
0.171049488654
0.170983728429
0.170924912266
0.170872265232
0.170824891594
0.170781904824
0.170745273043
0.170718352439
0.170700452779
0.17068747925
0.170678771752
0.170675281089
0.151866959815
0.151867829156
0.151874101084
0.151886541803
0.151908366736
0.15193967251
0.151984814795
0.152029417686
0.152076094487
0.152133991488
0.152207291444
0.152299911394
0.152411991669
0.152544321296
0.152694787618
0.152858148605
0.153036669989
0.153231277994
0.153439992211
0.153662016149
0.153897642511
0.154148547174
0.154419905352
0.154716677254
0.155040814286
0.155392628621
0.155770292414
0.156171702963
0.156594886134
0.157039439141
0.157504784174
0.157992758468
0.158498321018
0.159004230118
0.159511157925
0.160023755613
0.160543292628
0.161073469638
0.161614446459
0.162164385813
0.162722843338
0.163292535533
0.163875143118
0.16446765906
0.165064191413
0.165658681434
0.166245742788
0.166820686007
0.167379267691
0.167917458501
0.168431115001
0.168915371925
0.169364497659
0.169772974399
0.170135817804
0.170447292618
0.170703351327
0.170904545869
0.171055144219
0.17116171792
0.171232367966
0.171275742222
0.171300822363
0.171316125137
0.171313873844
0.171288486197
0.171233798024
0.171155843442
0.171069331216
0.170988230264
0.170918795896
0.170859112325
0.170804222089
0.170754649537
0.170716960512
0.170692087227
0.170675512641
0.170661734571
0.170653897963
0.170651531172
0.151822771154
0.15182266993
0.151833227205
0.151846141836
0.151870280728
0.151903671975
0.151945744694
0.151991110186
0.15204194716
0.152101882295
0.152173849931
0.152267072906
0.152387643958
0.152528158483
0.152678089217
0.152835752101
0.153004797869
0.153190531272
0.153394539697
0.153614416763
0.153847935733
0.154098627903
0.154371387106
0.154670038664
0.154996050182
0.155349220762
0.155729524942
0.156133653236
0.156560665627
0.157008682476
0.157478525323
0.157968587378
0.158473587976
0.158983514465
0.15948632609
0.159993415596
0.160513274021
0.161047013692
0.161593045834
0.1621495147
0.162715878632
0.16329332336
0.163882356994
0.164480539016
0.165083018981
0.165684204759
0.166278749215
0.16686185799
0.167429202276
0.167976615051
0.168499673928
0.168993300556
0.169451715914
0.169868791516
0.170238117829
0.170553493021
0.170811490003
0.171013232924
0.171163503042
0.171269431661
0.171339404378
0.171382347797
0.17140690256
0.171415171291
0.171405309111
0.171368637519
0.171299569485
0.171203356369
0.171094868773
0.170993474873
0.170908727353
0.170834913348
0.170766532341
0.170711473723
0.170674550862
0.1706520509
0.170636005903
0.170624286952
0.170619080022
0.17061722305
0.151755376596
0.151760445734
0.151778013167
0.151797178901
0.151817960624
0.151851718073
0.1518957195
0.151942900538
0.151996877508
0.152059305211
0.152135135609
0.152231716624
0.152359647939
0.152499706912
0.152645342029
0.152795268224
0.152958048184
0.153141438891
0.153343587139
0.153558372449
0.153788852558
0.154039833465
0.154313752385
0.154613667591
0.154941741805
0.155298761194
0.155679969373
0.1560875509
0.156519031181
0.156974190305
0.157448054299
0.157938162346
0.1584437722
0.158948207736
0.159449393888
0.159955959848
0.160478150513
0.161016481707
0.161568511126
0.162132201965
0.162706875203
0.163292842267
0.163889815587
0.164495519091
0.165105737851
0.165715301441
0.16631899312
0.166912027206
0.167490066897
0.168048883559
0.168583888671
0.169089762944
0.169560310612
0.169988543945
0.170367087981
0.170689606164
0.170953172372
0.171159275183
0.171312679094
0.171420129235
0.17148963506
0.171530110208
0.171548778929
0.171545878535
0.171531426335
0.171480465135
0.171386953911
0.171263573968
0.171126650121
0.170997737571
0.170887098237
0.170789010744
0.170705494747
0.170647528969
0.170613115339
0.170594231296
0.170581524878
0.170575831019
0.170575529268
0.170575214398
0.15167587802
0.151685876982
0.151706092126
0.151733797862
0.151756703658
0.151791793326
0.151834561776
0.151884176121
0.151942201488
0.152002762043
0.152086211694
0.15219453463
0.152320874784
0.152457862879
0.152596908987
0.15273982419
0.152901646711
0.153085631347
0.153282929544
0.153492678179
0.153720759046
0.153971567425
0.154246496346
0.154548821054
0.154879911172
0.15523957211
0.155624901813
0.156031937245
0.156471022037
0.156935877718
0.157411031084
0.157897589033
0.15840093299
0.158902076812
0.159400947288
0.159911420189
0.160438304465
0.160981954295
0.161540523728
0.162112056449
0.162695642475
0.163291023055
0.163897368417
0.164512364188
0.165132140341
0.16575186366
0.166366514981
0.166971429079
0.167562354001
0.168135079474
0.168684921297
0.169206294043
0.169692458701
0.170135633687
0.170527853819
0.170862823861
0.171137805302
0.171353805446
0.171513947365
0.171623161919
0.171688856357
0.171720366528
0.171725601066
0.171710831358
0.171684597495
0.171627902056
0.1715056545
0.171342290762
0.171163483109
0.170992046205
0.170840610652
0.170710317184
0.170613231109
0.170554863525
0.170526722817
0.170516122949
0.170514998745
0.170519511812
0.170526745722
0.170530246599
0.15158847292
0.151601473121
0.151622067975
0.151645711658
0.151674993728
0.151717880368
0.151760787449
0.151811851452
0.151876898244
0.151942370725
0.152023597203
0.152140055405
0.152268893891
0.152400571555
0.152533928324
0.152676355856
0.15283740636
0.153018432852
0.153211166033
0.153417976233
0.153644225025
0.153893866326
0.154168201971
0.154471831728
0.154810413048
0.155171304947
0.155561101223
0.15597619188
0.156416474422
0.156882037892
0.157362766703
0.157855135488
0.158346053297
0.158841479319
0.159344309529
0.159860514807
0.16039323569
0.160942995373
0.161508679968
0.162088676583
0.162681918135
0.163287709463
0.163904821513
0.16453082534
0.165162002207
0.165793770077
0.166421362234
0.167040336359
0.167646613138
0.168236082411
0.168804054165
0.169344750965
0.16985100767
0.170314532076
0.170727129243
0.17108248272
0.171377162863
0.171609819458
0.171779126357
0.17188770314
0.171944360595
0.171961436529
0.171949265198
0.171914784471
0.17186261375
0.171793747445
0.171661831177
0.171444796913
0.17120287705
0.170965800016
0.170754248895
0.170585582223
0.170476161472
0.170421986221
0.170408220088
0.170418088935
0.170439192697
0.170459948125
0.170476637689
0.170485146988
0.151491811731
0.151506803644
0.151530791239
0.151553625873
0.151585136771
0.151628492117
0.151673173411
0.15172434466
0.15178911517
0.151869680167
0.151955441112
0.152071913588
0.152201392378
0.152329215744
0.152457023937
0.152601840848
0.152765785357
0.15294165354
0.153128886665
0.153333153237
0.153558766144
0.153808271391
0.154082365889
0.154384193319
0.154728818498
0.155098119791
0.155483804221
0.155906270686
0.156351416797
0.156821402031
0.15730457797
0.157793881432
0.158282889099
0.158774264517
0.159280309641
0.159802905048
0.160342389146
0.160899102294
0.161472552179
0.162061636948
0.162665331843
0.163282619345
0.1639119102
0.164550613013
0.165195066299
0.165840885554
0.166483587115
0.167119038348
0.167743417087
0.168352805919
0.168942651943
0.169507224193
0.170039294783
0.170530586572
0.17097301507
0.17135986221
0.171685040539
0.171941796633
0.172120960523
0.172226090033
0.172270539943
0.172269793169
0.172233994145
0.17216966914
0.172082521581
0.171971351152
0.171819580208
0.171580257444
0.171239938687
0.170899814551
0.17060609534
0.170392605776
0.170272369285
0.170231492297
0.170248652035
0.170299688535
0.170357343293
0.170400962691
0.170428562654
0.170441414725
0.151381738809
0.151396042624
0.151422045285
0.151449482497
0.151488567185
0.151526857602
0.151571960608
0.151625201243
0.15168286794
0.15177117099
0.151869546301
0.151986466601
0.152115964069
0.152243826565
0.152370534754
0.152515561288
0.152680561854
0.152853061746
0.153036094138
0.153236939329
0.153461382814
0.153712242166
0.153990789768
0.154292040702
0.154631091641
0.155013471317
0.155407230724
0.155828828334
0.156275256726
0.156738800675
0.157229175239
0.157720451746
0.158206361308
0.158698732345
0.159209334253
0.159738456233
0.160285253965
0.160849735473
0.161431694866
0.16203051316
0.1626454508
0.16327534856
0.163918262537
0.164571373592
0.165231024618
0.165893026631
0.166553219767
0.167207825717
0.167853335254
0.168486133643
0.169102037791
0.16969577671
0.170260755238
0.170789526708
0.171274552456
0.171707645361
0.172075913208
0.172365443194
0.172557494732
0.17266205718
0.172695515358
0.172672964461
0.172603445765
0.172497743185
0.172373249099
0.172208180368
0.171976121389
0.17168088458
0.17126919645
0.17076945912
0.170361285619
0.170092415789
0.169966169691
0.16995763463
0.170036018829
0.170161635501
0.170278645785
0.170351142041
0.170388916489
0.170403044359
0.151255056433
0.151266282115
0.151286595974
0.151321805059
0.151370542413
0.151408884774
0.151454898039
0.151513550635
0.151569694694
0.151654519678
0.151762513671
0.151882271165
0.152011062425
0.152140444787
0.152273197567
0.152420070217
0.152583225459
0.15275236655
0.152932643039
0.153130180647
0.153350705109
0.153599057876
0.15388627853
0.154198777853
0.154531929833
0.154913764023
0.155315907535
0.155734237682
0.156190714566
0.156659420967
0.157140663555
0.157626467711
0.15811342192
0.158613318666
0.15913054312
0.159666583992
0.160221195432
0.160794236137
0.161385575891
0.161994864202
0.162621788826
0.163265378763
0.163923395386
0.164592661112
0.165269487059
0.165949939367
0.166630231753
0.167306942567
0.167976876784
0.168636823111
0.16928326074
0.169912018425
0.170518241512
0.171096636763
0.171640616379
0.172137951597
0.172561519901
0.172902263929
0.173121954356
0.173239499764
0.173267043778
0.173213390778
0.173090663837
0.172923155122
0.172777968916
0.172585170005
0.172225700567
0.17176114569
0.171182286324
0.170512241056
0.169954103527
0.169615768672
0.169495243714
0.169555550863
0.169750041752
0.170013108678
0.170231034515
0.170331832737
0.170369386511
0.17037560472
0.151111436332
0.15111992744
0.151131887308
0.151171379514
0.151220761831
0.15126606102
0.1513156267
0.151380299947
0.151443053583
0.151526555282
0.151638438517
0.151759934056
0.15188756368
0.152014883596
0.152155668177
0.152311058407
0.152472748357
0.152639000974
0.152817603964
0.153013267595
0.153229669631
0.153471277225
0.153758079748
0.154090761057
0.154430034097
0.154799672973
0.155213241866
0.155637200381
0.156084412971
0.156556958058
0.157039304127
0.157522392079
0.158010654651
0.158517272745
0.159042360034
0.159586330412
0.160149403156
0.160731663786
0.161333334402
0.161954153547
0.162593942326
0.16325217233
0.163926672536
0.164613880573
0.165309945547
0.166011252078
0.166714486332
0.167416541437
0.16811442832
0.168805359443
0.169486792679
0.170156517883
0.170813040694
0.171455142296
0.172077212595
0.172658765813
0.17314516378
0.173595059744
0.173890911464
0.174055613343
0.174087047635
0.173982481014
0.173768955195
0.173477139222
0.173403780326
0.173335658869
0.17277680846
0.171878096716
0.170954478356
0.170040775461
0.169320979353
0.168894833151
0.16880509644
0.168980980702
0.169372155591
0.169892465672
0.170288760834
0.170381294211
0.170380926548
0.170354803716
0.150951865004
0.150961648155
0.150978317823
0.151007556743
0.151051606108
0.151101454962
0.151155627385
0.151223297202
0.151297082513
0.151382430851
0.151497136687
0.151620087755
0.151747772965
0.15187384196
0.152016027369
0.152179349628
0.152343911112
0.152510802104
0.152689261307
0.152884370199
0.153098657585
0.15333450362
0.153615797728
0.153958986977
0.154313440542
0.154679919031
0.155096373437
0.155528436966
0.155970466598
0.156439466897
0.156915515443
0.157397703259
0.157895118946
0.158410278115
0.158943794768
0.15949649367
0.160069041824
0.160661371254
0.161273965372
0.161907292681
0.162561220541
0.163235247937
0.163927487468
0.164634298442
0.165351686907
0.166076396859
0.166805676246
0.167536615604
0.168266156166
0.168991799215
0.16971221018
0.170428120768
0.171143389099
0.171863204859
0.172582042664
0.173271566654
0.173835824346
0.174624930698
0.175009241451
0.175207489665
0.175178637294
0.174857474885
0.174285969246
0.173569010349
0.17342834826
0.173507555509
0.173346603613
0.172215976946
0.170450046867
0.16912209168
0.168104221586
0.167524689897
0.167554794449
0.167993680059
0.168752859274
0.169821176136
0.170619923038
0.170566998633
0.170431015761
0.170309767414
0.150772382036
0.150783468852
0.150809318482
0.150829212577
0.150867008812
0.15091806394
0.150975924863
0.151048040407
0.151135079259
0.151221690162
0.151338043241
0.151462718695
0.151591823581
0.151719753929
0.151863036688
0.152029597222
0.152197224235
0.152366800456
0.15254663993
0.152741932575
0.152955672918
0.153189362247
0.153461627984
0.153801410495
0.154179250099
0.154553220156
0.154957375997
0.15540455055
0.15585525623
0.156307229715
0.156775944607
0.157261620637
0.157766553467
0.15829063759
0.158833601172
0.159396018278
0.1599786757
0.160582156122
0.16120680816
0.161853367682
0.162522497229
0.163213750013
0.163925179616
0.164653155011
0.165393809784
0.166144487304
0.166903146094
0.167666904116
0.168432015077
0.169195663518
0.169957963472
0.170723607013
0.171503131638
0.172310101404
0.173143627335
0.17405137673
0.174294131559
0.174511121215
0.174764248221
0.174914053089
0.174873260221
0.174633625912
0.174240600365
0.173782606313
0.173438018897
0.173207718437
0.172572367942
0.171355525695
0.170013546521
0.168911167529
0.168126113088
0.167775448191
0.167898567943
0.168452454796
0.169424586775
0.170902001191
0.171852402592
0.170958055497
0.170360704181
0.170152786645
0.150569266194
0.150579762269
0.150604350847
0.150626166466
0.150661628826
0.15071409043
0.150773880718
0.150846170781
0.150945720592
0.151041635563
0.1511594134
0.15128660916
0.151418728569
0.151551114378
0.151697150714
0.151864862149
0.15203457679
0.152207433149
0.152389528776
0.152585655792
0.152799165414
0.153032532747
0.153298724599
0.153630208114
0.154022182152
0.154413178528
0.154808965152
0.155248507544
0.155708817597
0.156164926647
0.156628203075
0.157114410588
0.157625331045
0.158158242677
0.15871107752
0.15928371683
0.159877321199
0.160492645885
0.161130457797
0.161791452401
0.162476755421
0.163186543023
0.163918821932
0.164669609203
0.165435138064
0.166214090669
0.16700590241
0.167807161615
0.168611587716
0.16941548588
0.170221520816
0.171037572418
0.17187772685
0.17275750692
0.173656754451
0.173903316224
0.174151268475
0.174376616271
0.174586761209
0.174705519694
0.174654499566
0.174418909959
0.174027447711
0.173540898539
0.173045252238
0.172540696134
0.171843475221
0.170882851099
0.169809355387
0.168808413463
0.168015214431
0.16756048343
0.167518449403
0.167897159586
0.168642132444
0.169631488118
0.170199241874
0.17102936396
0.171198379291
0.169508539293
0.150344420359
0.150354133619
0.150379647577
0.150401938396
0.150437854449
0.150490774735
0.150552054895
0.150621619339
0.150723219796
0.150833642255
0.150957499378
0.151088787895
0.151225651123
0.151366203311
0.151515707794
0.151684526109
0.15185621578
0.152032851327
0.152217756874
0.15241536854
0.152629030959
0.152861840934
0.153123931716
0.153445527826
0.153837095511
0.154254145962
0.154658207648
0.15508405869
0.155537907777
0.15599500182
0.156460275906
0.15695210128
0.157470057114
0.158011681981
0.15857479958
0.15915863746
0.159763817433
0.16039181016
0.161043601045
0.161720222742
0.162422870263
0.163152253789
0.163906999667
0.164682646779
0.165474813645
0.166283942781
0.167112269765
0.16795555318
0.168802958577
0.169649421232
0.170501169652
0.171367715939
0.17226605049
0.173159429315
0.173449149992
0.173718593795
0.173950185101
0.17414285343
0.174282408891
0.174320728887
0.174208542758
0.173933261306
0.17351486965
0.172992447665
0.172406913177
0.171756256489
0.170969920844
0.170011190561
0.168959187049
0.167956775069
0.167105504464
0.166505584682
0.166253195037
0.166366567644
0.166795509311
0.167458650368
0.168178563154
0.16916969002
0.169764446076
0.172075620794
0.150100189975
0.150108378883
0.150129753765
0.150155274305
0.150196023458
0.150249577376
0.150313844652
0.150382586959
0.150483307516
0.150602449731
0.150731866484
0.150866895762
0.151007243637
0.151158934482
0.151315301244
0.151485499928
0.151659821294
0.151841659265
0.152030374963
0.152230262229
0.15244467849
0.152676855924
0.152935807178
0.153248956354
0.153634479392
0.154067520511
0.154491389078
0.154912514433
0.155354208115
0.155806357168
0.156275131905
0.156772712833
0.157298001457
0.157848261953
0.158422181891
0.159018488042
0.159636708144
0.160278108945
0.160944957191
0.161638147833
0.16235923754
0.163109796889
0.163888864917
0.164691403966
0.165510706633
0.166350033075
0.167220396773
0.168115485943
0.169008568743
0.169896825134
0.170794815495
0.171714525834
0.172621802465
0.172934915169
0.173216045867
0.173463512363
0.173661621504
0.173797959826
0.173855136399
0.173803337847
0.173612526309
0.173271888674
0.172791875706
0.172195130845
0.171503689619
0.170720675919
0.169825123302
0.168812297699
0.167733459984
0.166679523405
0.165716369727
0.164901325655
0.164316781856
0.164001076331
0.163939053377
0.164114713951
0.164522383846
0.165448087432
0.167688113132
0.169931601386
0.149839675185
0.149846589302
0.14986262596
0.149891941628
0.149936814067
0.149990771389
0.150057358907
0.150129421297
0.150226995455
0.150350626065
0.1504836954
0.150621380079
0.150762727023
0.150920770479
0.151089504589
0.151263823468
0.151441623416
0.151629553302
0.151824599776
0.152028506871
0.152245046005
0.152476710353
0.152733341697
0.153039419111
0.15341393965
0.153844932583
0.154289587573
0.154721667668
0.155159444647
0.155607861672
0.156074872723
0.156576152827
0.157108547168
0.157665948195
0.158251549555
0.158861458989
0.159492926771
0.160149111405
0.16083237789
0.161543972217
0.162284931579
0.163057248765
0.163861296481
0.164693812136
0.165549738836
0.166431468118
0.167345430083
0.168277998498
0.169211598202
0.17015220719
0.171103928208
0.172073797293
0.172392820976
0.172667127236
0.172917671364
0.17312313479
0.173260570249
0.173315392892
0.173272976463
0.17311385587
0.172819338661
0.172381486268
0.17180565187
0.171105399415
0.170294558806
0.169379152406
0.168357020751
0.167234528961
0.166044355688
0.164839957891
0.163674666323
0.162553712231
0.161510382206
0.160586043641
0.159753266987
0.158959791578
0.158150741694
0.157317248363
0.156311602833
0.154011674463
0.149564045288
0.149570677621
0.149585138193
0.14961826394
0.149663111896
0.149715448621
0.1497801417
0.149857166476
0.14995147455
0.150077346531
0.15021330481
0.150353559249
0.150496831043
0.150656205197
0.150835484035
0.151017395325
0.15120058176
0.151394041671
0.151596249837
0.151806751494
0.15202816166
0.152260311708
0.152515231819
0.152816234283
0.153180230225
0.153603277465
0.154056162528
0.154501962861
0.154937998413
0.155384215015
0.155856238672
0.156359160922
0.156896262414
0.157462867452
0.158060705823
0.15868439264
0.159330327944
0.160002444433
0.160703248561
0.161434467035
0.162197228259
0.162993679862
0.163827347228
0.164699976228
0.165603703721
0.166525788321
0.167469431469
0.168434308065
0.169421652296
0.170434196127
0.17150343121
0.171831154637
0.172092658535
0.172335378728
0.172539236916
0.172674948424
0.172724758845
0.17267628475
0.172517450286
0.172234976239
0.171817151525
0.171258590688
0.170561868701
0.169734909298
0.16878648969
0.167722419942
0.166545875023
0.165264418628
0.163897427098
0.162473318619
0.16102146538
0.15950140161
0.157873780831
0.156137327841
0.154201926648
0.151884898622
0.148922342595
0.145043440324
0.140282012796
0.139678522774
0.1492705181
0.149277400918
0.149292544819
0.149329904502
0.149374144316
0.149424224222
0.149484816216
0.14956488806
0.149654421536
0.149780999276
0.149919908469
0.150062905045
0.150209171833
0.150371240984
0.150556509538
0.150746207247
0.150936453461
0.151135935138
0.151344127252
0.151561907312
0.151790957283
0.15202572301
0.15227928432
0.152576748849
0.152931923362
0.153344994456
0.153797639118
0.154251955209
0.154697910556
0.155144317911
0.155619462768
0.156126573845
0.156665442081
0.157234724221
0.157841480896
0.158482173696
0.1591459764
0.159836088026
0.160555315117
0.161306968493
0.16209372718
0.162918493437
0.163790588303
0.164712078252
0.165657784832
0.166610618167
0.167585099305
0.168605350192
0.169683304066
0.17086573589
0.171223106762
0.171485717072
0.171725024977
0.171924109903
0.172053232209
0.172094429114
0.172035120828
0.17186468574
0.1715735298
0.171152620563
0.170594549713
0.169895617217
0.169056666276
0.168081729218
0.166975510409
0.16574129833
0.164380876103
0.162896949295
0.161295185678
0.159580984008
0.157751335327
0.155762067212
0.153471747316
0.150760761105
0.147442512283
0.143082997389
0.136831766886
0.126893077843
0.108136922118
0.0624915060934
0.148952544274
0.148959634516
0.148977383715
0.149019544942
0.149063939084
0.149112437838
0.149171098566
0.149251329405
0.149335611507
0.149460706489
0.14960225104
0.149747945712
0.149897270418
0.15006214445
0.150251467492
0.150448316791
0.150647689421
0.150854066536
0.151067458874
0.151291818893
0.151530129527
0.1517705618
0.152022880042
0.152317530575
0.152666304035
0.15306867091
0.153514588208
0.153967119189
0.154425807415
0.154885971005
0.155362246003
0.155868019479
0.156412287303
0.156990908361
0.15760009008
0.158251000785
0.158934159945
0.15964463803
0.160385895731
0.161159946743
0.161971684032
0.162832226736
0.163755645053
0.1647265119
0.16570541133
0.166689582039
0.167722916415
0.168853500549
0.170096004443
0.170517052721
0.170808393167
0.171067602777
0.171273912773
0.171400786945
0.171433928544
0.171362584708
0.171177123304
0.170869421004
0.170432659836
0.169860890979
0.169149306883
0.168295049924
0.16729750038
0.166157456672
0.164875598633
0.163451051044
0.161880720706
0.160159340725
0.158278683453
0.156223567761
0.153963038745
0.151443438128
0.148463173534
0.144738432938
0.139976760458
0.13355777588
0.124240378284
0.109618483403
0.0848398025283
0.0435278507087
0.148601064487
0.148608330156
0.148628643241
0.148675745799
0.148720158221
0.148770360894
0.148828927596
0.148907533944
0.148989782128
0.149114525716
0.149258756205
0.149407013567
0.149559201996
0.149726362976
0.149918026335
0.150119759517
0.150330147052
0.150545080047
0.150764065354
0.150994369026
0.15124157271
0.151491933212
0.151744473761
0.152035221069
0.152379842359
0.152773193382
0.153210487649
0.153656832436
0.154116362386
0.15459389231
0.155085396523
0.155593331081
0.156129129404
0.156711554685
0.157334229045
0.157994631493
0.158693388015
0.159424422678
0.160188697565
0.160988756866
0.161832529969
0.162741704201
0.163722087838
0.164736098703
0.165755106259
0.16680104439
0.167942503802
0.169238247624
0.169720844685
0.170033261866
0.17033503951
0.170569485607
0.170709509673
0.170744397471
0.170666050705
0.170467264434
0.170141985902
0.169685252965
0.169092864347
0.168361056209
0.167486472518
0.166466354494
0.165298485807
0.163980556281
0.162509046102
0.160877975664
0.159077743686
0.157093820226
0.154904330367
0.152475058849
0.149750449978
0.146640035212
0.142990472102
0.138418681391
0.132433224846
0.124435083037
0.113301704491
0.0971535857742
0.0727037157039
0.038943310223
0.148208681229
0.148217911171
0.148239366351
0.148286080921
0.148333820354
0.148390956324
0.148453383457
0.14853344523
0.148620590943
0.148741280308
0.148887518492
0.149038327478
0.149193381442
0.149362564783
0.149555422874
0.149758415918
0.149976042888
0.150202807685
0.150430236203
0.150667812407
0.150922169931
0.151185618877
0.151446347121
0.151729965583
0.152070196857
0.152456762564
0.152885612828
0.15332603312
0.153780204858
0.154265300723
0.154773628505
0.155296105081
0.155832216963
0.156407901463
0.157032772665
0.15770597262
0.158421817904
0.159174409948
0.159961784542
0.160790662857
0.161679977452
0.162649876031
0.163685151629
0.164748638623
0.16583900855
0.166995507468
0.168261068258
0.168977422184
0.169288374195
0.169566774124
0.169813673779
0.169973951746
0.170022037433
0.169946751232
0.169741484292
0.169402400753
0.168926960703
0.168313036455
0.167558526424
0.166661089129
0.165617966047
0.164425869307
0.163080726439
0.161577078871
0.159907112417
0.158059408819
0.156017427457
0.15375744482
0.151245289515
0.148430895361
0.145239607673
0.141558951879
0.137222365906
0.131932348188
0.125116315194
0.116062809356
0.103918680451
0.087321424574
0.0638541346117
0.0341512991508
0.147780206429
0.147792769665
0.147814364443
0.147855034931
0.147909016871
0.147973557084
0.148042626523
0.148128377766
0.148226068076
0.148342022143
0.148487611604
0.148640307747
0.148798345591
0.148969796478
0.149164158738
0.149368789445
0.149588204513
0.149825176324
0.150063934881
0.150311483305
0.150573033862
0.150849221375
0.151127702108
0.151414706389
0.15174281627
0.152121112922
0.15254138969
0.152976235976
0.153423184494
0.153906795776
0.154422934851
0.154964767237
0.155513177514
0.156085369556
0.156705486887
0.157381653887