/*--------------------------------*- C++ -*----------------------------------*\
| =========                 |                                                 |
| \\      /  F ield         | OpenFOAM: The Open Source CFD Toolbox           |
|  \\    /   O peration     | Version:  v1806                                 |
|   \\  /    A nd           | Web:      www.OpenFOAM.com                      |
|    \\/     M anipulation  |                                                 |
\*---------------------------------------------------------------------------*/
FoamFile
{
    version     2.0;
    format      ascii;
    class       volScalarField;
    location    "708";
    object      pa;
}
// * * * * * * * * * * * * * * * * * * * * * * * * * * * * * * * * * * * * * //

dimensions      [0 2 -2 0 0 0 0];


internalField   nonuniform List<scalar> 
6400
(
-0.12103909097
-0.121040075285
-0.121042841088
-0.121048256693
-0.12105636924
-0.121067219994
-0.121080879454
-0.121097835267
-0.12111860989
-0.121143931864
-0.12117605621
-0.121216397654
-0.121264422757
-0.121320488685
-0.121385765082
-0.121461776984
-0.121549809112
-0.121650456565
-0.121763508436
-0.121887387938
-0.122020370605
-0.12216369736
-0.122321277036
-0.122497384001
-0.122695133763
-0.122915357379
-0.123157255351
-0.123420384998
-0.123705421524
-0.124013639889
-0.124346249228
-0.124703120325
-0.12508164526
-0.125478993976
-0.125894189862
-0.126326112381
-0.126775549197
-0.12724690192
-0.127739656428
-0.128247966527
-0.128772747734
-0.129323353672
-0.129904919892
-0.130511849684
-0.131135828445
-0.131770753651
-0.132411783344
-0.133054987383
-0.133696600323
-0.134333204251
-0.134961808479
-0.135577047016
-0.136169722625
-0.136728163204
-0.137249092992
-0.137735551763
-0.138181633429
-0.1385747198
-0.138908768279
-0.139188910477
-0.139419547294
-0.139601573644
-0.139733127553
-0.139838203668
-0.139956646989
-0.140128774002
-0.140350460416
-0.140573235982
-0.140759996047
-0.140907975426
-0.141027068953
-0.14112838582
-0.141219022807
-0.141296916487
-0.14136428229
-0.141421250446
-0.141467291592
-0.14149687125
-0.141515492967
-0.141523344011
-0.121037774186
-0.121038825989
-0.121041339072
-0.121046609366
-0.121055144715
-0.121066395352
-0.121080109337
-0.121096404184
-0.121116421219
-0.121141536564
-0.121173367745
-0.121213140727
-0.121260988319
-0.121317056206
-0.121382012223
-0.121457103344
-0.121544464736
-0.121644954568
-0.121758065322
-0.121881727628
-0.122013480608
-0.122155521023
-0.12231246236
-0.122488118292
-0.122685557904
-0.122905592264
-0.123147087217
-0.123409920479
-0.123694832119
-0.124002813525
-0.124334842892
-0.124691341591
-0.125069836079
-0.12546665681
-0.125881450922
-0.126313149621
-0.126762170551
-0.127233583944
-0.127726946297
-0.128235718217
-0.12875987114
-0.129310532428
-0.129894217398
-0.130502839149
-0.131127693701
-0.131763671796
-0.132405892657
-0.133050597257
-0.133693679356
-0.134330588109
-0.134958211223
-0.135574235185
-0.136171346601
-0.136732194698
-0.137254970144
-0.137744423204
-0.138189259756
-0.138579600839
-0.138913956115
-0.139193984436
-0.139421978083
-0.139604355065
-0.139739467054
-0.139849140094
-0.139971727518
-0.140144863937
-0.140369557087
-0.14059182936
-0.140776789982
-0.14092383129
-0.141042229567
-0.14114340445
-0.141234544401
-0.141313250403
-0.141379240278
-0.141433708032
-0.141475844164
-0.141504055906
-0.141521930011
-0.141527856616
-0.121034030312
-0.121035689809
-0.121037938875
-0.121042725681
-0.121050869955
-0.121063183549
-0.121077732659
-0.12109328048
-0.121112082
-0.121136331691
-0.121167480489
-0.121206554367
-0.121253866002
-0.121309477204
-0.121373645019
-0.121446576903
-0.121531905332
-0.121633036052
-0.121746319057
-0.121868640986
-0.121998053468
-0.122137097798
-0.122292616391
-0.1224682515
-0.122664967038
-0.122883714389
-0.123124500276
-0.123386905621
-0.123671261928
-0.123978539841
-0.124309634156
-0.124665342496
-0.125043739542
-0.125439123587
-0.125851985221
-0.126283860599
-0.126732323004
-0.127202547599
-0.127696232531
-0.128206863157
-0.128734926131
-0.129288425987
-0.129871728999
-0.130479964461
-0.131105678017
-0.131743157943
-0.132387640683
-0.133034942205
-0.13368089415
-0.134321371212
-0.134952751896
-0.13557049786
-0.136166275703
-0.136730639165
-0.137261017759
-0.137752928539
-0.138196464276
-0.138585986636
-0.138920243954
-0.139200383994
-0.13942974627
-0.139611773351
-0.139751149495
-0.139871642159
-0.140008977232
-0.140191167068
-0.140408208787
-0.140623033668
-0.140808357248
-0.140957078698
-0.141077007151
-0.141178446592
-0.141265879767
-0.141339684659
-0.141402726192
-0.141454130723
-0.141492133255
-0.14151775707
-0.141533627985
-0.141539263403
-0.121028649855
-0.121030324458
-0.121032208725
-0.121036528814
-0.121043543556
-0.121055486001
-0.12107321295
-0.121088550183
-0.121105681047
-0.121128526654
-0.121158603708
-0.121196813975
-0.121243407266
-0.121297907157
-0.121360608299
-0.121433437804
-0.121518597723
-0.121617241297
-0.121726208544
-0.121843028846
-0.12196958218
-0.122108794
-0.122263886754
-0.122438182184
-0.122633651256
-0.122851201184
-0.123090925946
-0.123352426686
-0.123635887666
-0.12394204486
-0.124272124959
-0.124626684873
-0.125003915745
-0.125399202533
-0.125809051626
-0.126237777859
-0.12668739559
-0.127157208477
-0.127649160318
-0.128161897269
-0.128695015807
-0.129252599402
-0.129837452603
-0.130446537975
-0.131073877822
-0.131713830461
-0.132361491222
-0.133012453624
-0.133662473586
-0.134307368894
-0.134942925626
-0.135563887369
-0.13616297264
-0.136732768325
-0.137268060373
-0.137762019046
-0.138206268394
-0.138596036487
-0.138930428539
-0.139210997821
-0.139441422628
-0.139627326217
-0.139780046173
-0.139920598161
-0.140070460476
-0.14024911321
-0.140463466843
-0.140677531603
-0.140863432154
-0.141012870823
-0.141130489679
-0.141225251329
-0.141305352834
-0.14137750938
-0.141440070429
-0.141487004594
-0.141518916895
-0.141542668885
-0.141558957466
-0.141565623775
-0.121020247341
-0.121020606558
-0.121022814744
-0.12102707241
-0.121034538065
-0.121045179782
-0.121060975849
-0.121077442062
-0.121095125537
-0.121117469189
-0.12114635851
-0.121183553197
-0.121229217779
-0.121283764097
-0.121347041351
-0.121418212751
-0.121499292465
-0.121591604394
-0.121694841586
-0.121808720738
-0.121933826697
-0.122071708319
-0.122225458042
-0.122398254154
-0.122592013539
-0.122807869594
-0.123045933988
-0.123306069313
-0.123588289847
-0.123893160408
-0.12422156597
-0.124575168764
-0.124952180557
-0.125343827387
-0.125750916523
-0.126177128676
-0.126624188253
-0.127094281998
-0.12758763891
-0.128103216345
-0.128640882516
-0.129202782226
-0.129790415834
-0.130401632096
-0.131031609424
-0.131675022023
-0.132326880885
-0.132982608447
-0.133637855024
-0.134288300399
-0.134929338498
-0.135555448469
-0.136159920409
-0.136735786557
-0.137276229123
-0.137773260001
-0.138219289041
-0.138610290355
-0.138945916525
-0.139228604302
-0.139463632433
-0.139659755584
-0.139831357828
-0.139992170695
-0.140151286682
-0.140331663927
-0.140542956272
-0.14075493745
-0.14094044237
-0.141087867651
-0.141198650047
-0.141285270014
-0.141364058404
-0.141437955748
-0.14149641409
-0.141536925333
-0.141565652191
-0.141591101247
-0.141606091494
-0.141610849843
-0.12100513731
-0.121005115265
-0.121008563161
-0.121012757877
-0.121020529991
-0.121031133227
-0.121045638909
-0.121061787744
-0.121080220888
-0.12110243936
-0.121129817914
-0.121165755168
-0.121212112531
-0.121267201654
-0.121328206146
-0.121395614964
-0.121471638285
-0.121558714399
-0.121657612263
-0.121768058264
-0.121890036456
-0.122025536801
-0.122177404104
-0.122348335699
-0.122540040038
-0.122753401238
-0.122989325268
-0.123247552898
-0.123528220599
-0.123831539593
-0.124158416133
-0.124509722863
-0.124883326663
-0.12527441493
-0.125677255646
-0.126098957621
-0.126544793279
-0.127015762316
-0.127511155734
-0.128029998711
-0.128572147059
-0.129138677034
-0.129730179511
-0.130344844953
-0.130978634945
-0.131626592949
-0.132283738268
-0.132945375446
-0.133607050793
-0.134264307466
-0.134912309616
-0.135545416792
-0.136157045449
-0.136739948133
-0.137286232512
-0.137787504186
-0.138236868842
-0.138631105341
-0.138970671139
-0.139259306781
-0.139504058805
-0.13971562835
-0.139908971681
-0.140085511149
-0.140254626509
-0.140443351608
-0.140657530071
-0.140865809569
-0.141045611208
-0.141184351521
-0.14128541318
-0.141369601922
-0.141452072739
-0.141522717082
-0.14157395438
-0.141608760587
-0.14163732115
-0.14166053506
-0.141671958535
-0.141676422106
-0.120982448307
-0.120984015064
-0.120989433537
-0.120995323526
-0.121001352604
-0.121011674721
-0.121026261627
-0.121042263951
-0.121060842664
-0.121082813874
-0.121110266111
-0.121144980272
-0.121190998418
-0.121243604827
-0.121301080463
-0.121364103846
-0.121435926853
-0.121519300027
-0.121614340716
-0.121720005576
-0.121837969453
-0.121970646824
-0.122119911968
-0.122288110869
-0.122477135659
-0.122688292957
-0.122920560526
-0.123176236682
-0.123455140434
-0.123757561094
-0.124081961683
-0.124429401468
-0.124799632301
-0.125185041201
-0.12558501549
-0.126004474694
-0.126449696028
-0.126921681165
-0.127419335706
-0.127941628391
-0.128488333618
-0.129059887386
-0.129656239096
-0.130275640197
-0.130914518527
-0.131568234445
-0.132231870372
-0.132900673236
-0.133570110186
-0.134235617936
-0.134892207413
-0.135534095791
-0.136154516244
-0.136745721704
-0.13729920081
-0.137806626092
-0.138261949221
-0.138662853675
-0.139010789013
-0.139310458416
-0.139570104474
-0.139801135568
-0.140012889129
-0.140206112117
-0.140395025429
-0.140595158663
-0.140811281103
-0.14101131507
-0.141177958906
-0.141304504834
-0.141401035482
-0.141489140321
-0.141570700337
-0.1416330051
-0.141676244515
-0.141706604284
-0.141733325098
-0.141749754694
-0.141754777909
-0.141757602779
-0.120955937329
-0.120959011181
-0.120964944305
-0.120972936583
-0.120978870485
-0.120989403449
-0.121002820069
-0.121018663428
-0.121037453599
-0.121057355741
-0.121085466308
-0.121121024328
-0.121164174538
-0.121213170676
-0.12126653833
-0.121325018091
-0.121393535939
-0.121473587986
-0.121563662175
-0.121664186159
-0.121777729186
-0.121906726968
-0.122052659131
-0.122217997012
-0.122404074074
-0.122611548893
-0.122841142405
-0.123091206808
-0.123368693328
-0.123670515366
-0.123991766759
-0.124332249438
-0.124697141532
-0.125077930761
-0.125474182868
-0.125893190338
-0.126338668397
-0.126811654328
-0.12731153491
-0.127837388159
-0.128388839079
-0.128965888561
-0.129568030089
-0.130193430665
-0.130838747992
-0.131499568767
-0.132171061415
-0.132848461202
-0.133527181428
-0.134202568723
-0.134869498834
-0.135521998271
-0.136152979748
-0.136754267317
-0.137317146089
-0.137833807103
-0.138299092329
-0.138711440541
-0.139072518158
-0.139387162852
-0.139663863837
-0.139913490536
-0.140144701163
-0.140364040839
-0.140574503675
-0.140789722847
-0.141002917765
-0.141192431107
-0.141345210441
-0.141462434319
-0.141558413635
-0.141646718437
-0.141719459793
-0.14177147356
-0.141806319476
-0.141831490077
-0.141848431094
-0.141854125216
-0.141849439301
-0.141846610542
-0.120927175045
-0.120930997128
-0.120936626645
-0.120942654144
-0.120949982045
-0.120962293403
-0.120974833525
-0.120990020423
-0.121009625714
-0.121029390782
-0.121054097415
-0.121089611957
-0.121130949334
-0.121175686886
-0.121225017015
-0.121280648335
-0.121345013208
-0.121420228913
-0.121505091027
-0.121600732293
-0.12170953788
-0.121833800018
-0.121974921215
-0.122136046801
-0.122320381101
-0.122522713589
-0.122748564965
-0.122996854342
-0.123268591857
-0.123565837285
-0.123884284902
-0.124222806379
-0.124576895277
-0.124951025774
-0.125345913873
-0.12576494212
-0.126210858125
-0.126684880279
-0.127186954328
-0.127716452919
-0.128272914489
-0.128856004996
-0.129464870867
-0.130097536847
-0.130750727963
-0.131420160062
-0.132101086568
-0.132788755835
-0.133478529381
-0.134165656089
-0.134844875527
-0.135510007517
-0.136153696151
-0.136767579457
-0.137343221274
-0.137873562369
-0.138354082999
-0.138782714567
-0.139160261326
-0.139491563173
-0.139786023069
-0.140055562797
-0.140310188273
-0.140555953727
-0.140792054621
-0.141026293127
-0.141247136126
-0.141421649103
-0.141560541583
-0.141669989382
-0.141762564279
-0.141840594452
-0.141899714478
-0.141941013385
-0.141966843573
-0.141980892909
-0.141980278844
-0.141968809892
-0.141951466713
-0.141940218896
-0.120895831174
-0.120900019448
-0.120906155611
-0.120911094994
-0.120918624262
-0.120930110463
-0.120941986054
-0.120955845608
-0.120973578004
-0.120996177225
-0.12101921527
-0.121051931881
-0.121090722071
-0.121131824918
-0.121176531852
-0.121229402377
-0.121290499806
-0.121359937831
-0.121438677818
-0.12152901599
-0.121633086828
-0.121752526291
-0.121888286405
-0.122042585642
-0.122223443673
-0.122423858272
-0.122640413333
-0.122885572297
-0.123152495727
-0.123446108325
-0.12375996081
-0.124092008812
-0.124440473514
-0.124807845063
-0.125200139231
-0.125618921593
-0.126065302428
-0.126540406225
-0.127044662021
-0.127577865454
-0.128139623957
-0.12872936357
-0.129345923614
-0.12998715358
-0.130649759491
-0.131329513274
-0.132021724895
-0.132721649544
-0.133424574553
-0.134125617024
-0.134819373091
-0.135499526346
-0.136158644697
-0.136788610863
-0.137381709228
-0.137931677517
-0.138433211046
-0.138881366171
-0.139276016592
-0.139625708625
-0.139941951616
-0.140235627559
-0.140515080901
-0.140785736454
-0.141047881155
-0.141299437367
-0.14152586512
-0.141713254122
-0.141839164983
-0.141937119867
-0.142015113729
-0.142069690996
-0.142112715896
-0.142145386639
-0.142161643088
-0.142157218268
-0.142131734607
-0.14209506638
-0.142060353172
-0.142038721519
-0.120860821403
-0.120864561066
-0.120870681874
-0.12087609757
-0.120885147286
-0.120893980875
-0.120904568813
-0.120917279062
-0.120930670997
-0.12095319415
-0.120976878739
-0.12100693427
-0.121042751639
-0.121081300514
-0.121122400261
-0.121170828061
-0.12122777586
-0.121291775615
-0.121364335842
-0.12144836353
-0.121546799429
-0.121661598374
-0.121793808533
-0.121940814042
-0.122111599082
-0.122310686555
-0.122523147431
-0.122760170415
-0.123021138566
-0.123303606734
-0.123614316904
-0.123941547959
-0.124284088499
-0.124646907211
-0.12503657262
-0.125454432074
-0.125900977958
-0.126377138004
-0.126883589472
-0.127420538687
-0.127987853007
-0.128584869764
-0.12921014185
-0.129861305074
-0.130535004062
-0.131227036683
-0.131932742222
-0.132647331746
-0.133365945057
-0.134083515291
-0.134794500239
-0.135492578919
-0.13617060444
-0.136821242791
-0.137437983962
-0.138014893278
-0.138542943494
-0.139010267465
-0.13942109336
-0.139796550589
-0.140146294176
-0.140469866433
-0.140770695198
-0.141061844706
-0.141342778363
-0.141607584742
-0.141845144908
-0.142054978569
-0.142188978362
-0.142278404434
-0.142324271173
-0.142332888247
-0.142357294888
-0.142389355098
-0.142397902664
-0.14237017135
-0.142310136214
-0.142235457909
-0.14217285198
-0.142135153249
-0.120821273755
-0.120823875938
-0.120827783201
-0.120834728067
-0.120845277971
-0.120852714374
-0.120862095565
-0.120874329211
-0.120884926744
-0.120903422928
-0.120926624789
-0.120954297951
-0.120986616158
-0.121022616768
-0.121062239983
-0.121106119589
-0.121157446487
-0.121215521054
-0.121281898917
-0.12135899774
-0.121449857173
-0.121557706244
-0.121687531095
-0.121832274925
-0.121991287425
-0.122181343279
-0.1223906208
-0.122616828937
-0.122874170882
-0.123150954247
-0.123449534827
-0.123768180496
-0.124105634846
-0.124466420555
-0.124853939397
-0.125270359349
-0.125716662832
-0.12619377283
-0.126702479679
-0.127243243335
-0.127816305285
-0.12842118361
-0.129056226431
-0.129718784664
-0.130405420932
-0.131111990791
-0.13183385012
-0.132566069724
-0.133303517114
-0.134040831195
-0.134772344474
-0.135491932929
-0.136193172669
-0.136870174455
-0.137517945337
-0.138130595708
-0.138690778087
-0.139173659683
-0.139598094003
-0.140018471305
-0.140426299138
-0.140784191186
-0.141092765511
-0.141397594157
-0.14169498626
-0.141976076666
-0.142226124784
-0.142436120757
-0.142609052933
-0.142694508444
-0.142698462589
-0.142615490518
-0.142626444495
-0.142687282645
-0.142697062349
-0.142639807518
-0.142526954651
-0.142385271023
-0.142274975688
-0.142207158595
-0.120777469512
-0.120778989747
-0.120780044101
-0.120787297892
-0.120796510966
-0.120804296317
-0.120813064718
-0.120824455179
-0.120834474105
-0.120849488393
-0.120869926068
-0.120894401063
-0.120922660392
-0.120954300608
-0.120991950116
-0.121032888258
-0.121078910192
-0.1211308546
-0.12119088407
-0.12126099745
-0.121343426875
-0.121441510084
-0.121563925898
-0.12170917134
-0.121861937304
-0.122037290326
-0.122242040816
-0.122460354577
-0.12270368063
-0.122974150147
-0.123265399775
-0.123576491059
-0.12390759567
-0.124265038933
-0.124650353639
-0.125065184549
-0.125510906221
-0.12598869443
-0.126499684532
-0.127044503559
-0.127623565078
-0.128236766049
-0.128882561191
-0.129558054369
-0.130259672939
-0.130983389971
-0.13172461701
-0.132478170636
-0.133238405775
-0.133999518222
-0.134755682063
-0.135501226953
-0.136230839474
-0.136940369091
-0.137625806925
-0.13828561345
-0.138893826492
-0.139385867864
-0.139805329074
-0.14031858712
-0.140887387315
-0.141312862042
-0.141569076326
-0.14188824921
-0.142211844498
-0.142521104024
-0.142787691756
-0.142960726932
-0.143137517889
-0.143348339913
-0.143353974774
-0.142919861092
-0.142855007558
-0.14301992562
-0.143064658335
-0.142978156045
-0.142785196014
-0.142525217201
-0.14234465581
-0.142219338279
-0.1207299949
-0.120731465155
-0.120733151137
-0.120736754088
-0.120742827482
-0.12075011893
-0.120758144982
-0.120767562178
-0.120778028171
-0.120789992002
-0.120806978138
-0.120827709698
-0.120851712772
-0.120878415663
-0.120910676417
-0.120948490377
-0.120990402889
-0.121036861261
-0.121090470079
-0.121153449146
-0.121227618629
-0.121315369885
-0.121426355331
-0.121567107594
-0.121718621291
-0.12188061872
-0.122075362518
-0.122288898624
-0.12251777641
-0.122775591223
-0.123056779445
-0.123360109787
-0.123687645825
-0.124041733409
-0.124424252689
-0.12483709594
-0.125282031804
-0.125760306662
-0.126273309797
-0.126822281157
-0.127407798242
-0.128029884943
-0.128687295744
-0.129377187843
-0.130095967484
-0.130839830419
-0.131604326633
-0.132383846505
-0.133171910857
-0.133961978143
-0.13474807078
-0.135525296773
-0.136289316168
-0.137036232889
-0.137757784683
-0.138488338959
-0.139214509173
-0.139715620843
-0.139976121481
-0.140680303551
-0.141031027181
-0.141057513138
-0.141064768239
-0.141170614149
-0.141299721888
-0.14145408319
-0.141624493385
-0.141828129952
-0.142015813036
-0.142052649021
-0.141937461293
-0.142029024474
-0.142898335806
-0.143805765526
-0.143907148455
-0.143692734872
-0.143297948654
-0.142636386439
-0.142346682207
-0.142102726397
-0.120678376426
-0.120679885639
-0.120682962496
-0.120682769464
-0.120685750466
-0.120691510281
-0.120698269392
-0.120706038788
-0.120716980521
-0.120724998207
-0.120737952294
-0.120754646446
-0.12077434512
-0.120796538702
-0.120822847409
-0.120855451226
-0.120892374698
-0.120933231292
-0.120980211655
-0.121035605045
-0.121101439645
-0.121179545278
-0.121277041345
-0.121406946081
-0.121557631686
-0.121710571218
-0.121888387555
-0.122097448759
-0.122320245739
-0.122560152576
-0.122828081419
-0.123122665511
-0.123444538376
-0.12379448344
-0.124173738833
-0.124584202193
-0.12502786509
-0.125506481049
-0.126021480568
-0.126574439342
-0.127166626961
-0.127798267299
-0.128468225028
-0.129173859815
-0.129911930225
-0.130679243296
-0.131471677786
-0.132283007798
-0.133105329239
-0.133930932695
-0.134753793045
-0.135570817525
-0.13637711689
-0.137162304356
-0.137881900357
-0.138713468611
-0.139777267903
-0.13974687091
-0.139724599553
-0.139860542386
-0.140176927131
-0.140334456991
-0.140269500757
-0.140092515213
-0.139847743828
-0.139578797752
-0.13933092614
-0.13918086278
-0.139146024047
-0.13915123176
-0.13916549098
-0.139343648425
-0.139821885803
-0.140684860105
-0.141470744334
-0.141903334098
-0.142007246452
-0.142329631139
-0.142400910112
-0.141785277643
-0.120621925639
-0.120622912564
-0.120624611117
-0.120623476477
-0.120624345762
-0.120628465438
-0.120633173007
-0.120638254019
-0.120648323257
-0.120653643786
-0.120662665635
-0.120675287071
-0.120690807815
-0.120708753456
-0.1207291784
-0.120755259851
-0.120785923761
-0.120820408647
-0.120860177303
-0.120907385802
-0.12096414121
-0.121032523335
-0.121117406508
-0.121232563615
-0.121376373098
-0.121526434229
-0.121685702641
-0.121877346411
-0.122094380761
-0.122325741821
-0.122580048622
-0.122863620006
-0.123177689686
-0.123522048601
-0.123897159969
-0.124304483321
-0.124746348679
-0.125224784388
-0.125741654021
-0.126298620333
-0.126897477155
-0.127539112008
-0.128222587337
-0.12894525442
-0.129704422169
-0.130498427041
-0.131324329907
-0.132174935064
-0.133039597449
-0.133908795454
-0.134777220012
-0.135646900224
-0.136510826651
-0.137338481642
-0.137850064883
-0.138914215716
-0.139182969329
-0.13932414632
-0.139336117093
-0.139265232124
-0.139293238637
-0.139229763395
-0.138906019426
-0.138377902027
-0.137706498111
-0.136974674073
-0.136261683753
-0.135654502084
-0.13520350897
-0.134887640077
-0.134629527643
-0.134550327506
-0.134953826612
-0.135999575788
-0.137413640227
-0.138824718442
-0.139910928092
-0.140415519286
-0.14050486027
-0.14042508803
-0.1205617516
-0.120562129924
-0.120562810791
-0.12056024319
-0.120559680185
-0.12056170783
-0.120563816502
-0.120565030962
-0.120571189202
-0.120575077239
-0.120580724867
-0.120589281627
-0.12060072202
-0.120614909478
-0.120628806943
-0.120647826684
-0.120671409805
-0.120698759802
-0.120730519135
-0.120768812337
-0.120815614938
-0.120873239724
-0.120945668457
-0.121044469393
-0.121174756814
-0.121322619204
-0.121469960084
-0.121640739478
-0.121840362958
-0.122061934704
-0.12230570064
-0.122579522802
-0.122884791986
-0.123222186158
-0.123592237815
-0.123995860558
-0.12443514672
-0.1249128388
-0.125431104207
-0.125991945981
-0.126597473996
-0.127249192189
-0.127946823432
-0.128687711801
-0.129469494506
-0.130293179658
-0.131158607742
-0.132057289417
-0.132974217713
-0.133897178746
-0.134820472363
-0.135765470048
-0.136743951888
-0.137767685956
-0.137863572816
-0.13806148022
-0.138470048393
-0.138737327061
-0.138762375961
-0.138545482322
-0.138221855778
-0.13771414481
-0.136995412006
-0.136121299241
-0.135139836848
-0.134118842566
-0.133118376801
-0.132187424481
-0.131345133569
-0.130594721693
-0.129960804665
-0.129500835348
-0.129450209057
-0.130056254091
-0.131380234687
-0.133279860374
-0.135278087473
-0.136707026038
-0.138011819891
-0.140558036775
-0.120498938799
-0.120498506793
-0.120496938311
-0.120493568973
-0.120492437056
-0.120492190158
-0.120491672138
-0.120489354102
-0.120490913345
-0.120491167258
-0.12049261049
-0.120496444356
-0.120502989446
-0.120513112583
-0.120520432911
-0.120532143587
-0.12054812757
-0.120567938658
-0.120591005333
-0.12061965542
-0.120655633992
-0.120701375463
-0.120760600956
-0.120842446217
-0.120954886224
-0.121093456979
-0.121237310605
-0.121391202
-0.121570236818
-0.121774606495
-0.122005135326
-0.122267650303
-0.122562651686
-0.122891761233
-0.123255831454
-0.123654993296
-0.124091354318
-0.124567708705
-0.125086956285
-0.125651262538
-0.126263112801
-0.126924961163
-0.127637220422
-0.12839733533
-0.129201830513
-0.130054723384
-0.130964331711
-0.13192410278
-0.13290825334
-0.133896177105
-0.134869774321
-0.135894415523
-0.137021256436
-0.137241158008
-0.137469764286
-0.137682033038
-0.137997005638
-0.138058510573
-0.137801228408
-0.137260333351
-0.136509477236
-0.135522318204
-0.134348781447
-0.133050510222
-0.131672111254
-0.130263290812
-0.128870563915
-0.127531110327
-0.126263831578
-0.125099987949
-0.124118494676
-0.123376394874
-0.123016117065
-0.123266874046
-0.124341431785
-0.12631929941
-0.128739830003
-0.130645813612
-0.13349751358
-0.144012617284
-0.120434963492
-0.120433678502
-0.120429604411
-0.120425657862
-0.120423499952
-0.120420659797
-0.12041708775
-0.120411890353
-0.120407996156
-0.120403106903
-0.120399160366
-0.120397243186
-0.120397513797
-0.120400855564
-0.12040255575
-0.120407091518
-0.120414971323
-0.120426422721
-0.120440600767
-0.12045921838
-0.120483706543
-0.120516373402
-0.120561479225
-0.120625673462
-0.120717209558
-0.120838165463
-0.120975468272
-0.121117627448
-0.121278326823
-0.121464858073
-0.121678420691
-0.121926188759
-0.122209449379
-0.122528050779
-0.122884647766
-0.123278475923
-0.12371096039
-0.124185512339
-0.124705377052
-0.12527315071
-0.125891147108
-0.126562397428
-0.127288402689
-0.128067482531
-0.12889674516
-0.129782222857
-0.130737437518
-0.131759477223
-0.132828954581
-0.13391408581
-0.134898657135
-0.135954077716
-0.136227200304
-0.136579958752
-0.137124320041
-0.13737842331
-0.137401677226
-0.137036641104
-0.136314740857
-0.135298580964
-0.134043436944
-0.132557320449
-0.130900230871
-0.129122861671
-0.127264419586
-0.125362374147
-0.123452037722
-0.121559586601
-0.119696287972
-0.117886813754
-0.116216359202
-0.114821171449
-0.113764118679
-0.11320756284
-0.113396855764
-0.11459908829
-0.116573208539
-0.117824747329
-0.117827922954
-0.122074825839
-0.120370730863
-0.120368790433
-0.12036319936
-0.120358461571
-0.120354040873
-0.120347880588
-0.120340154914
-0.120331912761
-0.120322108025
-0.120311248521
-0.120301102735
-0.120292659024
-0.120285896346
-0.120280587242
-0.120275764316
-0.120272791428
-0.120271974242
-0.120273749888
-0.120278236923
-0.120286434906
-0.120299045027
-0.120317641946
-0.120347502792
-0.120393431875
-0.120462869885
-0.120560941758
-0.120681273005
-0.120812246786
-0.120956753464
-0.121125338169
-0.121322477022
-0.121551742471
-0.121819534603
-0.122126081774
-0.122474289701
-0.122862276448
-0.12329015593
-0.123762036184
-0.124281756686
-0.124852553467
-0.125476856681
-0.126157475083
-0.126897440898
-0.127696407944
-0.128551266623
-0.129465082275
-0.13045693055
-0.131546193952
-0.132740483999
-0.133998669533
-0.134867125377
-0.135118516019
-0.135453749059
-0.136250952419
-0.136769091176
-0.136742773637
-0.136323100493
-0.13543670737
-0.134169429864
-0.132592680981
-0.130763791553
-0.128711706942
-0.126485583994
-0.124117253967
-0.121631831778
-0.119052031206
-0.116400212664
-0.113693009208
-0.110937465244
-0.108151574823
-0.105409618565
-0.102839021702
-0.10044264999
-0.0981901125026
-0.0962296336179
-0.0949764160718
-0.0943001376305
-0.0903840490664
-0.0751714573016
-0.0565249374237
-0.12030653798
-0.120303999675
-0.120297362849
-0.120291603136
-0.120284408531
-0.12027442813
-0.120262091421
-0.120249918436
-0.120233315821
-0.120215968675
-0.120199079718
-0.120183483477
-0.120169256126
-0.120155337638
-0.12014178195
-0.120130192977
-0.120119923488
-0.120110917017
-0.120103946438
-0.120100588893
-0.120100605942
-0.120104218389
-0.120117262081
-0.120144179885
-0.120191003879
-0.120263827498
-0.120362386288
-0.120478532168
-0.12061130479
-0.120758836007
-0.120935539109
-0.1211456808
-0.121394754864
-0.121683038247
-0.12201792867
-0.12239996943
-0.122823631778
-0.123292845701
-0.1238116085
-0.124384369508
-0.125014884606
-0.125705998842
-0.126461271324
-0.127279072242
-0.128150810056
-0.129078820642
-0.130092342811
-0.131252853287
-0.132679058524
-0.134743351379
-0.13422527069
-0.134404477189
-0.135146669674
-0.13600190389
-0.136107092587
-0.135603261649
-0.134612075965
-0.133127411874
-0.131249029618
-0.12904615506
-0.126575493064
-0.123872013683
-0.120972762848
-0.117897892032
-0.114664126896
-0.111287199842
-0.107783568278
-0.104165025404
-0.10043298149
-0.0965844260675
-0.0926336663259
-0.0886100484291
-0.0844557903164
-0.0798734378272
-0.0747794266788
-0.0695379614608
-0.0635247193817
-0.0498559821168
-0.0126789764629
0.0418038567325
-0.120241773485
-0.120238633987
-0.120231316589
-0.120224285437
-0.120214072853
-0.120200072103
-0.120183466284
-0.120166001276
-0.120142112336
-0.120117987136
-0.120093655878
-0.12007014134
-0.120047668864
-0.12002450699
-0.12000096107
-0.119979540371
-0.119959147154
-0.119938044254
-0.119917942816
-0.119901357497
-0.119887289083
-0.11987489561
-0.119869117635
-0.119875990616
-0.119899719418
-0.119945720398
-0.120018513349
-0.120112414729
-0.120230272334
-0.120361838714
-0.120515561784
-0.120700469887
-0.120928687775
-0.121201104697
-0.121517022919
-0.121885906337
-0.122304011644
-0.122770373537
-0.123289078303
-0.123863834936
-0.12449989602
-0.12520313072
-0.125975944027
-0.126810239415
-0.127688081403
-0.128606187667
-0.129590532627
-0.130694633318
-0.132215953282
-0.132697874918
-0.133242636982
-0.133547431425
-0.134940033865
-0.13537718766
-0.13494686321
-0.133844869482
-0.132192351546
-0.130041375189
-0.127492609148
-0.124613397381
-0.121459190683
-0.118068546248
-0.114476841304
-0.110707878913
-0.106783217566
-0.102720422632
-0.0985301375214
-0.0942079529072
-0.0897268012967
-0.0850312666395
-0.0800330689703
-0.0746052644784
-0.0685645679036
-0.0615240126245
-0.0532199398576
-0.0437750285043
-0.0314087011953
-0.00654623990695
0.0477003892067
0.116733412072
-0.120175860749
-0.120172045617
-0.120163932128
-0.120155270237
-0.120141526209
-0.120123775616
-0.120102905788
-0.120079022544
-0.120048335328
-0.120017622423
-0.119985218411
-0.119952947451
-0.11992133173
-0.119887943464
-0.119853203826
-0.11982044827
-0.119788988309
-0.11975424431
-0.119719808504
-0.119688345996
-0.119657717489
-0.11962858983
-0.119602496728
-0.119587219449
-0.119587236111
-0.119605741054
-0.119649713216
-0.119715818295
-0.119808687368
-0.119924442722
-0.120059630778
-0.120218783068
-0.120416437304
-0.120666053943
-0.120966534193
-0.121319100287
-0.121726868906
-0.122187869554
-0.12270523559
-0.123283127133
-0.123926863531
-0.124643967256
-0.125435675623
-0.126286758278
-0.127174345946
-0.128083150967
-0.128994154163
-0.129814156005
-0.130553048134
-0.130399880783
-0.130872205004
-0.132828964548
-0.134294814181
-0.13418595591
-0.133164592322
-0.131383278462
-0.129020636852
-0.126164733782
-0.122921382111
-0.119362665524
-0.115549473832
-0.111529064326
-0.107342955117
-0.103021428412
-0.0985856832757
-0.0940413150496
-0.0893717955473
-0.0845312668609
-0.0794420039679
-0.0739895871627
-0.0679988037742