/*--------------------------------*- C++ -*----------------------------------*\
| =========                 |                                                 |
| \\      /  F ield         | OpenFOAM: The Open Source CFD Toolbox           |
|  \\    /   O peration     | Version:  v1806                                 |
|   \\  /    A nd           | Web:      www.OpenFOAM.com                      |
|    \\/     M anipulation  |                                                 |
\*---------------------------------------------------------------------------*/
FoamFile
{
    version     2.0;
    format      ascii;
    class       surfaceScalarField;
    location    "591";
    object      phi;
}
// * * * * * * * * * * * * * * * * * * * * * * * * * * * * * * * * * * * * * //

dimensions      [0 3 -1 0 0 0 0];
oriented        oriented;


internalField   nonuniform List<scalar> 
12640
(
-2.28800336885e-07
2.29929363489e-07
-4.33345290745e-07
2.05438191968e-07
-6.08868688081e-07
1.7618690227e-07
-7.54262348262e-07
1.45927202049e-07
-8.60321541794e-07
1.06541240565e-07
-9.2627152181e-07
6.64164235908e-08
-9.72320039871e-07
4.64749596974e-08
-1.04212453286e-06
7.01891680494e-08
-1.13699779833e-06
9.52233331187e-08
-1.22537604269e-06
8.86850091545e-08
-1.305800168e-06
8.06825033645e-08
-1.38822058015e-06
8.26540300239e-08
-1.46097309759e-06
7.29666267825e-08
-1.51965977109e-06
5.8885916761e-08
-1.57226443454e-06
5.27896078087e-08
-1.63206493353e-06
5.99802291695e-08
-1.69342671398e-06
6.15305984479e-08
-1.74395416482e-06
5.06884424034e-08
-1.78216270473e-06
3.83519029331e-08
-1.8167963518e-06
3.47675475237e-08
-1.86427678841e-06
4.76067071996e-08
-1.9255019942e-06
6.13485908119e-08
-1.98864099461e-06
6.32542243166e-08
-2.04781360025e-06
5.928290584e-08
-2.10109134084e-06
5.33790541028e-08
-2.14862022858e-06
4.76271089096e-08
-2.19268487309e-06
4.41560349331e-08
-2.23217996287e-06
3.95849627563e-08
-2.26598806004e-06
3.38904986947e-08
-2.29533671967e-06
2.94291813658e-08
-2.32324298205e-06
2.79786641055e-08
-2.34859713024e-06
2.54254331638e-08
-2.36940679147e-06
2.08758909446e-08
-2.38995903804e-06
2.06154094489e-08
-2.41048147443e-06
2.05750651476e-08
-2.4297309722e-06
1.93001567966e-08
-2.44955806908e-06
1.9866445533e-08
-2.46783067055e-06
1.83041303664e-08
-2.48185505681e-06
1.40440321544e-08
-2.49266000323e-06
1.08210535553e-08
-2.50508189586e-06
1.2427303696e-08
-2.51462587041e-06
9.5449830839e-09
-2.51252247588e-06
-2.11426699629e-09
-2.50200647745e-06
-1.05337021435e-08
-2.48688413707e-06
-1.51537004675e-08
-2.46635230365e-06
-2.0569194278e-08
-2.43973379897e-06
-2.66702123271e-08
-2.40556721884e-06
-3.42248380233e-08
-2.36374249485e-06
-4.18978098652e-08
-2.31866767697e-06
-4.51535296333e-08
-2.27534147568e-06
-4.34238785448e-08
-2.22623482625e-06
-4.92091636957e-08
-2.1548486483e-06
-7.15025813033e-08
-2.06551045065e-06
-8.9463511747e-08
-1.95984012384e-06
-1.05809953606e-07
-1.83192956138e-06
-1.28054064972e-07
-1.69896769648e-06
-1.33134994463e-07
-1.56598054908e-06
-1.3318945877e-07
-1.41271534913e-06
-1.5350457999e-07
-1.23779552938e-06
-1.75210608038e-07
-1.05213974038e-06
-1.86011264126e-07
-8.31552724005e-07
-2.20989244636e-07
-5.06443795917e-07
-3.25504367433e-07
-1.99883752371e-07
-3.06804533324e-07
-3.1058805504e-09
-1.96926904746e-07
1.24175076395e-07
-1.27380580167e-07
2.2038797541e-07
-9.63304032478e-08
3.02532641503e-07
-8.22833361988e-08
3.71179134626e-07
-6.8814285291e-08
4.21655143839e-07
-5.06264177883e-08
4.48378673672e-07
-2.68598790943e-08
4.4893933441e-07
-6.91638626339e-10
4.25024490129e-07
2.37857975831e-08
3.74879005736e-07
5.00021967084e-08
3.17441392773e-07
5.72913302821e-08
2.57455190156e-07
5.98128937573e-08
2.10103914945e-07
4.71741345222e-08
1.50263382144e-07
5.96352853043e-08
9.20799505584e-08
5.7911534869e-08
9.18799428547e-08
-1.19559330949e-07
3.50034014389e-07
-2.77099485787e-07
3.63609755679e-07
-4.27878939291e-07
3.27472380701e-07
-5.82083880808e-07
3.0055585153e-07
-7.71667421477e-07
2.96567423211e-07
-9.13918983098e-07
2.09108998282e-07
-9.94861950898e-07
1.27856141511e-07
-1.07056023004e-06
1.46287441528e-07
-1.1533868706e-06
1.78408781222e-07
-1.24261068352e-06
1.78212549376e-07
-1.3269846472e-06
1.65326959355e-07
-1.39686562611e-06
1.52767566278e-07
-1.45907153525e-06
1.35393637833e-07
-1.51745344753e-06
1.1747264088e-07
-1.57320021841e-06
1.08741852525e-07
-1.63499523965e-06
1.21960959546e-07
-1.69154839488e-06
1.18258988647e-07
-1.72165207599e-06
8.09372224557e-08
-1.74698605752e-06
6.38243973247e-08
-1.78906843795e-06
7.69745829224e-08
-1.84878244167e-06
1.07451911902e-07
-1.92261646568e-06
1.35301930001e-07
-1.992867825e-06
1.3362868861e-07
-2.0482446587e-06
1.14765964451e-07
-2.09841427219e-06
1.03657719239e-07
-2.14949165237e-06
9.87983830336e-08
-2.19428311813e-06
8.90470357718e-08
-2.2320886629e-06
7.74750020833e-08
-2.26562239746e-06
6.75146668742e-08
-2.29559607478e-06
5.9477812377e-08
-2.32150102145e-06
5.39651887356e-08
-2.34402973903e-06
4.80219454368e-08
-2.36216796898e-06
3.90868475445e-08
-2.38095547816e-06
3.94596650432e-08
-2.40482342228e-06
4.45060967705e-08
-2.42504766216e-06
3.95655215721e-08
-2.44338824899e-06
3.8251608608e-08
-2.46573556852e-06
4.06753795512e-08
-2.4886705984e-06
3.70080598083e-08
-2.50298600869e-06
2.5144729254e-08
-2.49169677992e-06
1.1535239767e-09
-2.46578203623e-06
-1.63764530221e-08
-2.45106886338e-06
-1.68298974573e-08
-2.44455755359e-06
-1.70722356602e-08
-2.43709813495e-06
-2.26364959759e-08
-2.42674406029e-06
-3.09714227232e-08
-2.41060695719e-06
-4.28510143139e-08
-2.38839141683e-06
-5.65092728172e-08
-2.35846679833e-06
-7.18876348254e-08
-2.31311144399e-06
-9.05997719463e-08
-2.24641312133e-06
-1.10208730368e-07
-2.17336614741e-06
-1.22367520438e-07
-2.12030861137e-06
-1.24671935306e-07
-2.05720792716e-06
-1.52703902355e-07
-1.96372944825e-06
-1.99429483594e-07
-1.86443081419e-06
-2.27523987678e-07
-1.75304027968e-06
-2.44709249722e-07
-1.61782070601e-06
-2.68632168238e-07
-1.46771655025e-06
-3.03864355611e-07
-1.29308503969e-06
-3.50157502507e-07
-1.06152576418e-06
-4.17883749242e-07
-7.99585771408e-07
-4.83281498583e-07
-4.95463452619e-07
-6.29978680564e-07
-2.1165986673e-07
-5.90850926636e-07
-1.18712079806e-08
-3.9681834425e-07
1.20584941422e-07
-2.59934330629e-07
2.23606941556e-07
-1.9945041355e-07
3.13691527564e-07
-1.7251399199e-07
3.86742373109e-07
-1.42012738094e-07
4.36655661013e-07
-1.00711221557e-07
4.55971020535e-07
-4.63193452852e-08
4.45915018827e-07
9.23883522059e-09
4.22414240797e-07
4.71520468696e-08
3.95224870924e-07
7.70290859231e-08
3.53356748249e-07
9.89771993503e-08
3.04442837916e-07
1.08537618604e-07
2.4402204339e-07
1.07364575098e-07
1.83211494049e-07
1.20216055687e-07
9.75139538585e-08
1.43318144467e-07
1.89190255882e-07
-1.54760242548e-07
5.05374532508e-07
-2.33697307374e-07
4.43064745204e-07
-4.15952819188e-07
5.10229318245e-07
-6.2403720415e-07
5.09121873739e-07
-8.12243801913e-07
4.85217781822e-07
-9.09214161883e-07
3.06438764646e-07
-9.57309498304e-07
1.76306069349e-07
-1.04113148255e-06
2.30488791675e-07
-1.13872825459e-06
2.76350262011e-07
-1.23371575698e-06
2.73500628237e-07
-1.3212309833e-06
2.53102471014e-07
-1.39482378793e-06
2.26601854565e-07
-1.45756649602e-06
1.98366960931e-07
-1.51738912859e-06
1.77518032436e-07
-1.5629753692e-06
1.5453479725e-07
-1.55109865703e-06
1.10266635909e-07
-1.50738407986e-06
7.46883553429e-08
-1.51346061123e-06
8.71419134567e-08
-1.58659958115e-06
1.37085158314e-07
-1.71725196626e-06
2.07754751295e-07
-1.84815649941e-06
2.38486734983e-07
-1.92848352192e-06
2.15758516706e-07
-1.98576480041e-06
1.91027840496e-07
-2.04664803648e-06
1.75763160635e-07
-2.10336774719e-06
1.60481586926e-07
-2.15001883767e-06
1.45551070746e-07
-2.19124251942e-06
1.30363623688e-07
-2.229001899e-06
1.15326523316e-07
-2.26238481133e-06
1.00981740389e-07
-2.29240493427e-06
8.95820797126e-08
-2.3164781851e-06
7.81153088438e-08
-2.33740008318e-06
6.90180461692e-08
-2.35873489903e-06
6.04906614322e-08
-2.36963245644e-06
5.042324544e-08
-2.38551362992e-06
6.04391214838e-08
-2.41709886161e-06
7.12000947892e-08
-2.43893578905e-06
6.01265287497e-08
-2.45623154472e-06
5.80043026231e-08
-2.48243573073e-06
6.32341762101e-08
-2.50423309438e-06
4.69630576323e-08
-2.51709399152e-06
1.40234791197e-08
-2.52181551358e-06
-1.16506395162e-08
-2.5169558967e-06
-2.170026891e-08
-2.50609003801e-06
-2.79537138847e-08
-2.49096145442e-06
-3.77953215683e-08
-2.47063404506e-06
-5.13339530777e-08
-2.44527980073e-06
-6.82554884098e-08
-2.41417877148e-06
-8.76659477201e-08
-2.37656630484e-06
-1.09571057763e-07
-2.33306822209e-06
-1.3417421346e-07
-2.28427318075e-06
-1.59096677264e-07
-2.22542622072e-06
-1.81316200781e-07
-2.14401969092e-06
-2.06197994238e-07
-2.05082694441e-06
-2.46025773146e-07
-1.96216632373e-06
-2.88240834399e-07
-1.86493823185e-06
-3.24920646063e-07
-1.74509209585e-06
-3.64750236825e-07
-1.60262288005e-06
-4.1132000103e-07
-1.43877825297e-06
-4.67960861226e-07
-1.24886627565e-06
-5.40336906873e-07
-1.03473360185e-06
-6.32315896109e-07
-7.62071728068e-07
-7.56250492641e-07
-4.81476083124e-07
-9.10817072525e-07
-2.19334260666e-07
-8.53142256259e-07
-9.22525095803e-09
-6.07037060033e-07
1.37966466299e-07
-4.07209016454e-07
2.52199483844e-07
-3.13804473289e-07
3.3744424024e-07
-2.57887906482e-07
4.00034133131e-07
-2.04789094168e-07
4.40488781081e-07
-1.41319288047e-07
4.62526669799e-07
-6.84971144722e-08
4.74180181169e-07
-2.55204105164e-09
4.67301955706e-07
5.38764352821e-08
4.31841038224e-07
1.12322561386e-07
3.7124977641e-07
1.59389826813e-07
3.0163209887e-07
1.77949535863e-07
2.36551757131e-07
1.72261553263e-07
1.81099284486e-07
1.7544785873e-07
7.96920800208e-08
2.44461650647e-07
2.68805569981e-07
-1.1104520261e-07
6.1682614118e-07
-1.48835280119e-07
4.81203228589e-07
-3.56790693112e-07
7.18655750855e-07
-5.25712346292e-07
6.78505680804e-07
-5.37729483795e-07
4.97571660354e-07
-4.76775242538e-07
2.4565601068e-07
-6.53370416227e-07
3.5313376985e-07
-9.22804097656e-07
5.00257644996e-07
-1.0952551956e-06
4.49129961607e-07
-1.21147162726e-06
3.90007710884e-07
-1.31076306114e-06
3.5265972869e-07
-1.39390386126e-06
3.09994126995e-07
-1.4508934538e-06
2.55593426092e-07
-1.44861703532e-06
1.75456614576e-07
-1.40010134766e-06
1.06202504446e-07
-1.38213397563e-06
9.24499007106e-08
-1.43677188889e-06
1.29460589125e-07
-1.55829277794e-06
2.08793033792e-07
-1.70528041713e-06
2.84209984873e-07
-1.8068553298e-06
3.09468973143e-07
-1.86621980333e-06
2.97987352043e-07
-1.92882224237e-06
2.78488620224e-07
-1.99287248587e-06
2.5519994092e-07
-2.0488945513e-06
2.31897788624e-07
-2.09889845677e-06
2.10593139991e-07
-2.14396912761e-06
1.90721200798e-07
-2.18617440897e-06
1.72665700697e-07
-2.22416710568e-06
1.53408616489e-07
-2.25833836426e-06
1.35241064884e-07
-2.286096235e-06
1.17422988526e-07
-2.31211535662e-06
1.04214979981e-07
-2.32972909447e-06
8.67074729664e-08
-2.34015752003e-06
7.09880436054e-08
-2.3682129141e-06
7.8539517515e-08
-2.39289130028e-06
8.51743037787e-08
-2.41469322983e-06
9.30484143829e-08
-2.45501945666e-06
1.00494219586e-07
-2.48895859493e-06
9.19772464121e-08
-2.50299808078e-06
7.73042440999e-08
-2.50998607127e-06
5.39715143882e-08
-2.51793266363e-06
2.19838775052e-08
-2.52331383549e-06
-6.26725041368e-09
-2.52086719025e-06
-2.41505702133e-08
-2.5111696909e-06
-3.76659260342e-08
-2.49598674602e-06
-5.29992337832e-08
-2.4755913493e-06
-7.17621577293e-08
-2.4499801551e-06
-9.39066616018e-08
-2.41868229622e-06
-1.19016443103e-07
-2.38123068827e-06
-1.47083185636e-07
-2.33747186184e-06
-1.78006958584e-07
-2.28601801322e-06
-2.10633369282e-07
-2.22278688506e-06
-2.44644368983e-07
-2.14518176202e-06
-2.83911967171e-07
-2.05950203727e-06
-3.31834283509e-07
-1.96538518173e-06
-3.82504391934e-07
-1.85565826643e-06
-4.34816390016e-07
-1.72592342438e-06
-4.94673420865e-07
-1.57246917178e-06
-5.64983395606e-07
-1.39138623458e-06
-6.49263553333e-07
-1.1791273463e-06
-7.52829397593e-07
-9.33999421294e-07
-8.77661430462e-07
-6.73442326714e-07
-1.01701722278e-06
-4.71874073813e-07
-1.11259373762e-06
-2.42602316709e-07
-1.08257407676e-06
1.42215210044e-09
-8.51144281988e-07
1.63927957273e-07
-5.69786398087e-07
2.81459063411e-07
-4.31411269541e-07
3.75818576754e-07
-3.52407086758e-07
4.49244140004e-07
-2.78345282565e-07
5.04529844664e-07
-1.96797317849e-07
5.38860077399e-07
-1.02993565421e-07
5.36639876867e-07
-4.80546158558e-10
4.86750916853e-07
1.03624348236e-07
4.13477504304e-07
1.85449673118e-07
3.38482035257e-07
2.34227991658e-07
2.55375167453e-07
2.60904407729e-07
1.74441245555e-07
2.53024214153e-07
1.17151775711e-07
2.32626435979e-07
5.99829697158e-08
3.01516186918e-07
3.28689398351e-07
-2.28263697141e-08
6.39943022475e-07
-1.32650697335e-07
5.91308508755e-07
-3.01608111554e-07
8.88016363791e-07
-4.24647778139e-07
8.01921115248e-07
-4.03490437429e-07
4.76647856945e-07
-5.00601380847e-07
3.42939310981e-07
-7.24330188236e-07
5.77118131484e-07
-8.96075136625e-07
6.72313702708e-07
-1.038726006e-06
5.92082024737e-07
-1.16723961512e-06
5.18807364179e-07
-1.28322103117e-06
4.68915332424e-07
-1.34470318032e-06
3.71717830582e-07
-1.32300769463e-06
2.34106043032e-07
-1.29607201686e-06
1.48695522694e-07
-1.33628186112e-06
1.46566893413e-07
-1.43579577232e-06
1.92112551665e-07
-1.57064113988e-06
2.64454010813e-07
-1.6889157758e-06
3.27216716921e-07
-1.75542523735e-06
3.50865976934e-07
-1.80215812105e-06
3.56344296578e-07
-1.86328324581e-06
3.5924944884e-07
-1.92893236466e-06
3.44268318567e-07
-1.98973772304e-06
3.16127158794e-07
-2.04388379403e-06
2.8615912208e-07
-2.09254545268e-06
2.59362039931e-07
-2.1385408415e-06
2.36819410805e-07
-2.1788360058e-06
2.13054976527e-07
-2.21747843367e-06
1.92143409368e-07
-2.24909452895e-06
1.66946338524e-07
-2.2767992028e-06
1.45214422094e-07
-2.29353578631e-06
1.21032178539e-07
-2.3163144045e-06
1.09559531841e-07
-2.35327652459e-06
1.08017125414e-07
-2.37459768139e-06
9.99217296665e-08
-2.40465987997e-06
1.15290381035e-07
-2.44514921543e-06
1.33587909779e-07
-2.47431052404e-06
1.29700154079e-07
-2.49478143914e-06
1.12488450761e-07
-2.50733083646e-06
8.98858301132e-08
-2.51540939603e-06
6.20753600969e-08
-2.52292823704e-06
2.95183746999e-08
-2.52792702557e-06
-1.26007689256e-09
-2.52642408296e-06
-2.56543988755e-08
-2.51774147688e-06
-4.63560245593e-08
-2.502966456e-06
-6.77908110518e-08
-2.48269463055e-06
-9.20577889202e-08
-2.45698913484e-06
-1.19645995437e-07
-2.42549449178e-06
-1.50553517107e-07
-2.38770179392e-06
-1.84929630282e-07
-2.34288356432e-06
-2.22888446694e-07
-2.28929540725e-06
-2.64297447689e-07
-2.22423613498e-06
-3.09791483825e-07
-2.14681565498e-06
-3.61437338073e-07
-2.0588642194e-06
-4.19907806726e-07
-1.95813361682e-06
-4.83377021573e-07
-1.83895685135e-06
-5.54152738393e-07
-1.69627779509e-06
-6.37525778209e-07
-1.5248667238e-06
-7.36569378374e-07
-1.32101669754e-06
-8.53297250896e-07
-1.08713185817e-06
-9.86880459011e-07
-8.38189571506e-07
-1.12677557063e-06
-6.12069849406e-07
-1.24330818074e-06
-4.42644633645e-07
-1.282146184e-06
-2.10378894757e-07
-1.31490763597e-06
1.88470317722e-08
-1.0804041478e-06
1.97019306869e-07
-7.4798361783e-07
3.32813735454e-07
-5.6731650198e-07
4.37824727711e-07
-4.57492936002e-07
5.19653374266e-07
-3.60399183571e-07
5.84927872334e-07
-2.62231845172e-07
6.11776097565e-07
-1.3000833103e-07
5.6990701384e-07
4.12476478751e-08
4.9083636646e-07
1.825681821e-07
4.04870971575e-07
2.71289399783e-07
3.12021612323e-07
3.26947609585e-07
2.18616106899e-07
3.54165807901e-07
1.54559571864e-07
3.17010026715e-07
9.73398403145e-08
2.89741415413e-07
4.04931178888e-08
3.58220322625e-07
3.69163629406e-07
-1.15168112682e-08
6.51624602487e-07
-1.62259700072e-07
7.4229697576e-07
-2.57044747325e-07
9.83139623849e-07
-3.16871274455e-07
8.6203075447e-07
-3.12675646637e-07
4.72614516159e-07
-5.45568160209e-07
5.76036283781e-07
-7.66936642926e-07
7.98766769763e-07
-8.7376433285e-07
7.79423197958e-07
-9.93267981826e-07
7.11871992622e-07
-1.10481949223e-06
6.30642656111e-07
-1.16195536107e-06
5.26308695045e-07
-1.11991883835e-06
3.2987806581e-07
-1.11419970059e-06
2.28545576123e-07
-1.19007545752e-06
2.24717488576e-07
-1.31579406352e-06
2.7243333487e-07
-1.47796514021e-06
3.54439255949e-07
-1.61602592072e-06
4.02674808619e-07
-1.68591830176e-06
3.97265467412e-07
-1.7310712051e-06
3.96168756125e-07
-1.79728801637e-06
4.22706928684e-07
-1.86513342084e-06
4.27234771899e-07
-1.92504480917e-06
4.04311389892e-07
-1.98221155473e-06
3.7341756196e-07
-2.03790974518e-06
3.41972105903e-07
-2.0879057302e-06
3.0946723501e-07
-2.124887313e-06
2.73902129262e-07
-2.16635043521e-06
2.54616067167e-07
-2.20226758845e-06
2.28153877948e-07
-2.23471477732e-06
1.99483028309e-07
-2.25008396957e-06
1.60668660684e-07
-2.26881024711e-06
1.39838311669e-07
-2.29578952767e-06
1.36610734435e-07
-2.3224711911e-06
1.34763037309e-07
-2.37845765125e-06
1.55968125599e-07
-2.42970626511e-06
1.66596119493e-07
-2.46199537322e-06
1.6593088611e-07
-2.483859072e-06
1.51613715834e-07
-2.50044922008e-06
1.29122475604e-07
-2.51275013867e-06
1.02224199813e-07
-2.52201876514e-06
7.13729799935e-08
-2.52966901926e-06
3.71894113853e-08
-2.53437354635e-06
3.45676038902e-09
-2.53336243011e-06
-2.66599998846e-08
-2.52556708612e-06
-5.41530583096e-08
-2.5114369931e-06
-8.19292986281e-08
-2.4914841891e-06
-1.12026725871e-07
-2.46580086521e-06
-1.45353213943e-07
-2.43403954164e-06
-1.82347687554e-07
-2.39556003823e-06
-2.23451537528e-07
-2.34936900613e-06
-2.69133046528e-07
-2.29383222073e-06
-3.19899284421e-07
-2.22704772473e-06
-3.76655568548e-07
-2.14798171228e-06
-4.40599111663e-07
-2.05569052988e-06
-5.12313299436e-07
-1.94633375693e-06
-5.9286439586e-07
-1.81414263342e-06
-6.86488977727e-07
-1.65382331008e-06
-7.97987841206e-07
-1.4617753968e-06
-9.28766126245e-07
-1.23974116743e-06
-1.07546302615e-06
-1.00007859136e-06
-1.22667518287e-06
-7.66991700228e-07
-1.35998825318e-06
-5.64945435565e-07
-1.44546710555e-06
-3.83325038814e-07
-1.46386964285e-06
-1.73792963578e-07
-1.52453173253e-06
4.78996648933e-08
-1.30211177247e-06
2.24359328164e-07
-9.24487190609e-07
3.85048025144e-07
-7.28015064277e-07
5.20493128114e-07
-5.93154320256e-07
6.29747257664e-07
-4.69715521594e-07
7.00993209067e-07
-3.33651337058e-07
6.875317954e-07
-1.16680168025e-07
6.08823260638e-07
1.19851879758e-07
5.11727508162e-07
2.79569264248e-07
4.03295165127e-07
3.79623923787e-07
2.91507662714e-07
4.38628887493e-07
2.02923983799e-07
4.42671910529e-07
1.3385235919e-07
3.85961985801e-07
7.72040456181e-08
3.46317680076e-07
3.46906612698e-08
4.00685363512e-07
4.03742492794e-07
-6.26252339307e-08
7.14440763653e-07
-2.3642931163e-07
9.16345159548e-07
-3.19444816052e-07
1.06645982409e-06
-2.83605121879e-07
8.26433969365e-07
-3.7657730191e-07
5.65758340679e-07
-6.29272881381e-07
8.28972813666e-07
-7.53619377997e-07
9.23378128302e-07
-8.46384245276e-07
8.72460091364e-07
-9.3181034244e-07
7.97566101815e-07
-1.04500697659e-06
7.44103941738e-07
-1.03819662978e-06
5.19717207286e-07
-1.01797566491e-06
3.09815799968e-07
-1.09332476727e-06
3.04039549423e-07
-1.20081808049e-06
3.32350837702e-07
-1.36000289885e-06
4.31774436958e-07
-1.51249785863e-06
5.0710515448e-07
-1.58973277834e-06
4.80074863479e-07
-1.63809176565e-06
4.45779098187e-07
-1.71694087266e-06
4.7517009139e-07
-1.79475050282e-06
5.00665835148e-07
-1.85865139429e-06
4.91277245984e-07
-1.9188359088e-06
4.64629381415e-07
-1.97721705597e-06
4.31921753232e-07
-2.02711403036e-06
3.91985833122e-07
-2.06808843583e-06
3.50551507076e-07
-2.10842753521e-06
3.14343644027e-07
-2.13967674599e-06
2.85963026934e-07
-2.1766698434e-06
2.65239196718e-07
-2.20156603254e-06
2.24468119541e-07
-2.21902226493e-06
1.78208713129e-07
-2.25088400394e-06
1.71777899524e-07
-2.28915600406e-06
1.74953872796e-07
-2.34161570724e-06
1.87287705266e-07
-2.39294208078e-06
2.07357354243e-07
-2.44177423468e-06
2.15490294844e-07
-2.47153652272e-06
1.95752317587e-07
-2.4910349673e-06
1.71166234862e-07
-2.50674583897e-06
1.44881765003e-07
-2.51973686308e-06
1.15256550162e-07
-2.53007402373e-06
8.17441616842e-08
-2.53805731555e-06
4.51988633742e-08
-2.54270048629e-06
8.1191420649e-09
-2.54204875076e-06
-2.72993725088e-08
-2.53499949801e-06
-6.11960230763e-08
-2.52156942137e-06
-9.53593898047e-08
-2.50203937888e-06
-1.31563041092e-07
-2.47640387361e-06
-1.71001845368e-07
-2.44425899858e-06
-2.14513730985e-07
-2.40488696983e-06
-2.62854205387e-07
-2.35723799806e-06
-3.16823935822e-07
-2.29982997058e-06
-3.77363055619e-07
-2.23091088744e-06
-4.4564576737e-07
-2.14858782968e-06
-5.23012196743e-07
-2.04987056948e-06
-6.11137605447e-07
-1.92962029989e-06
-7.1323911841e-07
-1.78197993632e-06
-8.34255599405e-07
-1.603075111e-06
-9.77021563635e-07
-1.39381803768e-06
-1.13813767114e-06
-1.16400367528e-06
-1.30539228847e-06
-9.32086276191e-07
-1.4587036946e-06
-7.22396872394e-07
-1.5697959477e-06
-5.4412712642e-07
-1.623874884e-06
-3.51884210303e-07
-1.65625136922e-06
-1.97108275809e-07
-1.6793568848e-06
6.34427949263e-08
-1.56265971423e-06
2.79437627434e-07
-1.14044209514e-06
4.77570340776e-07
-9.26295881531e-07
6.57951992062e-07
-7.73470182022e-07
7.89328608908e-07
-6.01278376322e-07
8.32343590352e-07
-3.76715141966e-07
7.78107906487e-07
-6.2496217805e-08
6.78773754202e-07
2.19142917109e-07
5.50246483532e-07
4.08044817479e-07
4.06463126384e-07
5.23340949542e-07
2.74230319484e-07
5.70786342697e-07
1.86640539908e-07
5.30151549864e-07
1.07778041551e-07
4.64776983995e-07
4.93673843863e-08
4.0463571518e-07
2.43142934657e-08
4.25537554577e-07
4.28032685043e-07
-1.1169582898e-07
8.26297432218e-07
-2.61067635874e-07
1.06595981275e-06
-3.0211822549e-07
1.10773517268e-06
-2.22656900264e-07
7.47130591293e-07
-4.19234943709e-07
7.62521633909e-07
-6.24921952563e-07
1.03490829637e-06
-7.2156407975e-07
1.02027559322e-06
-8.21395980436e-07
9.72545775449e-07
-8.54353391672e-07
8.30778719995e-07
-8.96571609309e-07
7.86551811771e-07
-8.7902217751e-07
5.0232742649e-07
-9.83703132772e-07
4.14639505915e-07
-1.08302494379e-06
4.03497907147e-07
-1.22947808838e-06
4.78953954147e-07
-1.39167909608e-06
5.94147863173e-07
-1.48027069601e-06
5.95870758302e-07
-1.53024014398e-06
5.30205384678e-07
-1.6180990583e-06
5.33794967451e-07
-1.71185922511e-06
5.69086938135e-07
-1.78338262207e-06
5.72340968705e-07
-1.84424929032e-06
5.52287029005e-07
-1.90301238177e-06
5.23523926658e-07
-1.96467793933e-06
4.93712837518e-07
-2.02306444377e-06
4.50490886022e-07
-2.05919536937e-06
3.86790197886e-07
-2.10251043038e-06
3.57763092063e-07
-2.13599971973e-06
3.1955054859e-07
-2.14851560891e-06
2.77848270727e-07
-2.17264068185e-06
2.48679245937e-07
-2.23418030756e-06
2.39830946337e-07
-2.2772629747e-06
2.14939338442e-07
-2.30023324146e-06
1.97994817746e-07
-2.3543335245e-06
2.4145658021e-07
-2.41512868628e-06
2.68220826416e-07
-2.45083798858e-06
2.51266305435e-07
-2.47685561204e-06
2.21833152146e-07
-2.49735040418e-06
1.91719567587e-07
-2.51412337422e-06
1.61707555557e-07
-2.52814180563e-06
1.29321606257e-07
-2.5395033222e-06
9.31453744274e-08
-2.5480106945e-06
5.373906372e-08
-2.55284028896e-06
1.29749219339e-08
-2.55260810009e-06
-2.751123771e-08
-2.54628269845e-06
-6.75065788441e-08
-2.53357471117e-06
-1.08057736401e-07
-2.51449900249e-06
-1.506343259e-07
-2.48889147333e-06
-1.96611164882e-07
-2.456271638e-06
-2.47142545388e-07
-2.41590443047e-06
-3.03240291347e-07
-2.36677569477e-06
-3.65983793542e-07
-2.3074502981e-06
-4.36734771227e-07
-2.23591422586e-06
-5.17245160675e-07
-2.14919852594e-06
-6.09811470194e-07
-2.04271959282e-06
-7.17711576007e-07
-1.91053019483e-06
-8.4554590884e-07
-1.74762498361e-06
-9.97263060333e-07
-1.5532376441e-06
-1.17152150613e-06
-1.3322298279e-06
-1.35925106697e-06
-1.09756080493e-06
-1.54018331244e-06
-8.6921851822e-07
-1.68716903884e-06
-6.69652419085e-07
-1.76949982788e-06
-5.00918765816e-07
-1.79273649953e-06
-3.49112578079e-07
-1.80816456937e-06
-2.18316491916e-07
-1.81020697897e-06
1.41488931609e-08
-1.79511638219e-06
3.40897035105e-07
-1.4672405498e-06
5.87232080085e-07
-1.17249530882e-06
7.99909502833e-07
-9.86368791345e-07
9.42787826459e-07
-7.441437514e-07
9.75137935365e-07
-4.09131262334e-07
9.14097340231e-07
-1.49679395087e-09
7.8394196424e-07
3.49252946273e-07
6.00612152971e-07
5.91330097669e-07
4.07014065193e-07
7.16877865847e-07
2.52149056354e-07
7.25573378703e-07
1.44164077836e-07
6.38067204401e-07
6.42115162e-08
5.44588345949e-07
7.77725597678e-09
4.60940949114e-07
-2.13665413196e-09
4.35409865069e-07
4.25770409883e-07
-1.42554054513e-07
9.69066523888e-07
-2.5467794089e-07
1.178323381e-06
-2.50814869485e-07
1.1040915979e-06
-2.75346178414e-07
7.71817435e-07
-4.90909801352e-07
9.78286753978e-07
-5.88386428559e-07
1.13262424243e-06
-6.7918154681e-07
1.1113151607e-06
-7.75634430786e-07
1.06923318068e-06
-8.16966445372e-07
8.7232223509e-07
-8.60328433219e-07
8.30127438484e-07
-8.8875489359e-07
5.30895410013e-07
-9.82608802863e-07
5.08626789953e-07
-1.09924429043e-06
5.20270642878e-07
-1.26092077489e-06
6.407906092e-07
-1.3975917673e-06
7.30999652416e-07
-1.45948481886e-06
6.57938641435e-07
-1.51877033658e-06
5.89652291481e-07
-1.6089662037e-06
6.24150848679e-07
-1.69563472168e-06
6.55914364291e-07
-1.7688198994e-06
6.45677699367e-07
-1.83210315012e-06
6.1571068137e-07
-1.8851217238e-06
5.76677007088e-07
-1.93235945604e-06
5.41079536582e-07
-1.98208145767e-06
5.0032837378e-07
-2.0262221332e-06
4.3104082213e-07
-2.05826130314e-06
3.89906796586e-07
-2.10389585955e-06
3.65280723866e-07
-2.15278526617e-06
3.26831261081e-07
-2.19477098289e-06
2.90752973421e-07
-2.2294753817e-06
2.74617802702e-07
-2.27298000488e-06
2.58519010104e-07
-2.3457372484e-06
2.70825597613e-07
-2.39270697191e-06
2.88498982715e-07
-2.42615855301e-06
3.01745059897e-07
-2.45630165869e-06
2.81480791343e-07
-2.48246120211e-06
2.48060741003e-07
-2.50444368577e-06
2.13765196104e-07
-2.52260588082e-06
1.79927568286e-07
-2.53771888733e-06
1.44486539726e-07
-2.55010427853e-06
1.05576803662e-07
-2.55941187387e-06
6.30866495148e-08
-2.56478031867e-06
1.83777941943e-08
-2.56513419764e-06
-2.71282259296e-08
-2.55959421899e-06
-7.30219537211e-08
-2.54766497411e-06
-1.19966546185e-07
-2.52906672694e-06
-1.6921650729e-07
-2.50346460324e-06
-2.22202040944e-07
-2.47033138398e-06
-2.8027229475e-07
-2.42895472007e-06
-3.44623149376e-07
-2.37838702961e-06
-4.16572777578e-07
-2.31717733045e-06
-4.97979944802e-07
-2.24291801018e-06
-5.91565915366e-07
-2.15163217819e-06
-7.0116307678e-07
-2.0376238832e-06
-8.3183366767e-07
-1.89469740864e-06
-9.88552314227e-07
-1.71935139567e-06
-1.17273818308e-06
-1.51313768305e-06
-1.37785258262e-06
-1.27879420116e-06
-1.59374161754e-06
-1.03036798084e-06
-1.78874445529e-06
-7.95101405809e-07
-1.92256829682e-06
-6.05116267513e-07
-1.95960145652e-06
-4.64826565157e-07
-1.93318203993e-06
-3.31454950185e-07
-1.94168833381e-06
-1.81786698736e-07
-1.95997990565e-06
-2.78608160061e-08
-1.94907912653e-06
3.17574896363e-07
-1.81252872627e-06
7.21415116567e-07
-1.57656396959e-06
9.76076949318e-07
-1.24099993859e-06
1.14149074201e-06
-9.09694256707e-07
1.18703458784e-06
-4.54771546917e-07
1.12482558018e-06
6.06493092712e-08
9.32936092025e-07
5.41090981336e-07
6.59019594219e-07
8.65185015644e-07
3.91021372214e-07
9.84821961493e-07
1.92221174436e-07
9.24282392819e-07
5.57361008887e-08
7.7442211551e-07
-1.77178969381e-08
6.17953796532e-07
-5.04832961352e-08
4.93620446282e-07
-3.82739451849e-08
4.22970060393e-07
3.87486946974e-07
-1.61455965926e-07
1.13069025134e-06
-2.66467488208e-07
1.28354728431e-06
-2.31146292176e-07
1.06894880017e-06
-3.26721483829e-07
8.6756398703e-07
-5.09738071981e-07
1.16152797317e-06
-5.52975523944e-07
1.17609080471e-06
-6.30260235251e-07
1.18882585939e-06
-6.7805270408e-07
1.11723869922e-06
-7.55395759242e-07
9.49844677661e-07
-7.67232842392e-07
8.42124980312e-07
-8.59643577301e-07
6.23438075262e-07
-9.74292015484e-07
6.23402963819e-07
-1.10271335351e-06
6.48833924567e-07
-1.25103575968e-06
7.89285238283e-07
-1.34105060855e-06
8.21192202391e-07
-1.3893942501e-06
7.06444794877e-07
-1.48512284575e-06
6.85541647524e-07
-1.58564222943e-06
7.24833131373e-07
-1.66928701877e-06
7.39718002061e-07
-1.74658747843e-06
7.23128217461e-07
-1.81936133542e-06
6.88629371872e-07
-1.88266079101e-06
6.40114066495e-07
-1.92230437493e-06
5.80849157362e-07
-1.95428637641e-06
5.32428799745e-07
-2.01449541223e-06
4.91357829997e-07
-2.05330268676e-06
4.28816182245e-07
-2.06729477545e-06
3.79373026378e-07
-2.0953640806e-06
3.54993314382e-07
-2.14913815876e-06
3.44613783519e-07
-2.21919881974e-06
3.44759390122e-07
-2.28516962951e-06
3.24565986873e-07
-2.34038988939e-06
3.26119921743e-07
-2.39960603878e-06
3.47791740315e-07
-2.43559863969e-06
3.37815548732e-07
-2.46343452384e-06
3.09392666766e-07
-2.48945230028e-06
2.74150612119e-07
-2.51272170394e-06
2.37102367836e-07
-2.53233771587e-06
1.99606559649e-07
-2.54857548431e-06
1.60782521826e-07
-2.56193570506e-06
1.18990095562e-07
-2.57219307479e-06
7.33920928867e-08
-2.57844248144e-06
2.46702374555e-08
-2.57966181775e-06
-2.58699786507e-08
-2.57504887283e-06
-7.75996917685e-08
-2.56401171443e-06
-1.30971752487e-07
-2.54601260886e-06
-1.87187141363e-07
-2.52048498052e-06
-2.47706625615e-07
-2.48685622806e-06
-3.13885076509e-07
-2.44452979084e-06
-3.86945929166e-07
-2.39270437503e-06
-4.68409332386e-07
-2.32998545315e-06
-5.60734193031e-07
-2.2536918328e-06
-6.67902852987e-07
-2.15919754346e-06
-7.95746145058e-07
-2.04000944351e-06
-9.51088015178e-07
-1.88997346961e-06
-1.13868921087e-06
-1.7060663894e-06
-1.35675975835e-06
-1.48937727203e-06
-1.59460834973e-06
-1.22985144596e-06
-1.8534615523e-06
-9.52167851071e-07
-2.06659834379e-06
-7.03965764205e-07
-2.17095553913e-06
-5.3482348831e-07
-2.12893666546e-06
-4.41115255242e-07
-2.02700105952e-06
-3.0950157411e-07
-2.0734008197e-06
-1.18842011451e-07
-2.15072915067e-06
8.41930590793e-08
-2.15209685864e-06
3.65621698254e-07
-2.09419519989e-06
7.65644043744e-07
-1.97649386585e-06
1.14522332633e-06
-1.62079202997e-06
1.3658852833e-06
-1.13051731302e-06
1.48548073846e-06
-5.7444732115e-07
1.44105883408e-06
1.04988001869e-07
1.13641037563e-06
8.45668275226e-07
7.16523910757e-07