/*--------------------------------*- C++ -*----------------------------------*\
| =========                 |                                                 |
| \\      /  F ield         | OpenFOAM: The Open Source CFD Toolbox           |
|  \\    /   O peration     | Version:  v1806                                 |
|   \\  /    A nd           | Web:      www.OpenFOAM.com                      |
|    \\/     M anipulation  |                                                 |
\*---------------------------------------------------------------------------*/
FoamFile
{
    version     2.0;
    format      ascii;
    class       surfaceScalarField;
    location    "591";
    object      phia;
}
// * * * * * * * * * * * * * * * * * * * * * * * * * * * * * * * * * * * * * //

dimensions      [0 3 -1 0 0 0 0];
oriented        oriented;


internalField   nonuniform List<scalar> 
12640
(
8.59019018579e-08
-8.44125468072e-08
1.63182199601e-07
-7.61405045372e-08
2.30601053734e-07
-6.65966314536e-08
2.87653987472e-07
-5.64463518546e-08
3.31065447376e-07
-4.28742603381e-08
3.60292655638e-07
-2.85955446582e-08
3.83241785642e-07
-2.23435215806e-08
4.17409418676e-07
-3.36310209309e-08
4.63698026224e-07
-4.58276927931e-08
5.09090058379e-07
-4.50156759228e-08
5.52464807561e-07
-4.31036593549e-08
5.98615973508e-07
-4.59225346206e-08
6.43048646585e-07
-4.42456181914e-08
6.8382151691e-07
-4.06012387017e-08
7.24227084598e-07
-4.02479128262e-08
7.70223486147e-07
-4.58130673266e-08
8.1880123967e-07
-4.84164956546e-08
8.641752363e-07
-4.5225637765e-08
9.05526566844e-07
-4.12786638399e-08
9.47475641961e-07
-4.19224668525e-08
9.98654665666e-07
-5.11958900441e-08
1.05914964428e-06
-6.05174860528e-08
1.12214410245e-06
-6.30392265362e-08
1.18423610942e-06
-6.2130477434e-08
1.2442644882e-06
-6.00845169829e-08
1.30259342349e-06
-5.83780626254e-08
1.36076098722e-06
-5.82355568768e-08
1.41812862436e-06
-5.74268083898e-08
1.47383706833e-06
-5.57879030769e-08
1.52847011447e-06
-5.47036775499e-08
1.58385555014e-06
-5.54791382553e-08
1.63926240487e-06
-5.54908400708e-08
1.69361733625e-06
-5.44515348084e-08
1.75007085104e-06
-5.65511830765e-08
1.80837606953e-06
-5.8436379313e-08
1.86764023364e-06
-5.93881730706e-08
1.92868912337e-06
-6.12009560573e-08
1.98904330469e-06
-6.05118646334e-08
2.04698344827e-06
-5.81219775955e-08
2.1037404969e-06
-5.69278699474e-08
2.16279160726e-06
-5.9233030578e-08
2.21915940567e-06
-5.6530356585e-08
2.26525015487e-06
-4.62631784104e-08
2.30434560741e-06
-3.92617756572e-08
2.34000437874e-06
-3.58430899815e-08
2.37167332817e-06
-3.18456943116e-08
2.39884068126e-06
-2.73605872789e-08
2.42016821382e-06
-2.15123097617e-08
2.4357627155e-06
-1.57930649799e-08
2.45043458018e-06
-1.48612609583e-08
2.46998562803e-06
-1.97627360283e-08
2.48709313773e-06
-1.73174794555e-08
2.48419713195e-06
2.66501463463e-09
2.46794960167e-06
1.59969225381e-08
2.43788521461e-06
2.97787364712e-08
2.38644154782e-06
5.11288662752e-08
2.33874764266e-06
4.72993818428e-08
2.30651571787e-06
3.17432440348e-08
2.26519581912e-06
4.07059888553e-08
2.21544826956e-06
4.89880712078e-08
2.1888712169e-06
2.55696305959e-08
2.14666471285e-06
4.09338569926e-08
1.9918118011e-06
1.53328476652e-07
1.75729012881e-06
2.3334853808e-07
1.56645538152e-06
1.90175871928e-07
1.44043712466e-06
1.25607549766e-07
1.32836175766e-06
1.11719415345e-07
1.2178924488e-06
1.10073874254e-07
1.10347736786e-06
1.13957989548e-07
9.80021623959e-07
1.22947511345e-07
8.54264939963e-07
1.25231880606e-07
7.33956822417e-07
1.19807995333e-07
6.20606549012e-07
1.12882964862e-07
5.01474666219e-07
1.18696999093e-07
3.9852828663e-07
1.02558440177e-07
3.08215552104e-07
8.99622913718e-08
2.43323777977e-07
6.45236304958e-08
1.69977531178e-07
7.29441104685e-08
1.03145062045e-07
6.65015006721e-08
1.02721745392e-07
4.56053666623e-08
-1.29414745192e-07
1.04799535738e-07
-1.3459954332e-07
1.62291019265e-07
-1.23528055186e-07
2.21671280243e-07
-1.15379971111e-07
2.95674675072e-07
-1.16315031769e-07
3.53053076005e-07
-8.54406720498e-08
3.89607564435e-07
-5.83125380991e-08
4.270276975e-07
-7.054348545e-08
4.68618784822e-07
-8.69655952041e-08
5.1396694089e-07
-9.00393815426e-08
5.59057166192e-07
-8.79000824023e-08
5.99716559447e-07
-8.63831208229e-08
6.39198994394e-07
-8.35089375406e-08
6.79519143058e-07
-8.07272789864e-08
7.21476303869e-07
-8.19584394897e-08
7.68942798504e-07
-9.30927071666e-08
8.15157774347e-07
-9.4437211906e-08
8.50196639969e-07
-8.01857599457e-08
8.84984731091e-07
-7.60048638241e-08
9.30626602563e-07
-8.75853171802e-08
9.8842951829e-07
-1.0900818782e-07
1.05562427737e-06
-1.27774762201e-07
1.12219978365e-06
-1.29632896214e-07
1.18187823314e-06
-1.21878603143e-07
1.24007748008e-06
-1.18313170872e-07
1.30048466078e-06
-1.18866073492e-07
1.35908862745e-06
-1.16879626812e-07
1.41535721521e-06
-1.13787937471e-07
1.47091382092e-06
-1.11397195502e-07
1.52603227218e-06
-1.09926223227e-07
1.58026541052e-06
-1.09774887071e-07
1.63376323311e-06
-1.09093154927e-07
1.68625373584e-06
-1.0702029559e-07
1.74176253554e-06
-1.12189396393e-07
1.80274097104e-06
-1.1951070726e-07
1.86275814445e-06
-1.19570795337e-07
1.92290572004e-06
-1.21487997654e-07
1.98660409685e-06
-1.2439658159e-07
2.05191054754e-06
-1.23583982452e-07
2.11155771278e-06
-1.16774539032e-07
2.15005828368e-06
-9.78863366473e-08
2.17489992462e-06
-8.15538745236e-08
2.2089010664e-06
-8.04111874336e-08
2.25062111654e-06
-8.11693923056e-08
2.29244570738e-06
-7.78283220266e-08
2.33284363856e-06
-7.24406425324e-08
2.36936990843e-06
-6.40566171671e-08
2.40186716043e-06
-5.42101312924e-08
2.42904491136e-06
-4.31473964508e-08
2.44303398836e-06
-2.90545914233e-08
2.43711916623e-06
-1.40303604109e-08
2.42695832474e-06
-7.36732302493e-09
2.44424953674e-06
-1.48404563831e-08
2.45763815622e-06
2.3498439221e-09
2.44211575802e-06
4.50251200114e-08
2.4302363846e-06
6.26658322355e-08
2.41843286553e-06
5.8695624983e-08
2.39213811616e-06
5.75225204942e-08
2.36629650166e-06
6.59091010487e-08
2.33314656875e-06
8.13155755948e-08
2.23340398787e-06
1.2432953565e-07
2.1201764299e-06
1.52899033253e-07
1.96444092374e-06
3.07588194566e-07
1.74628997764e-06
4.50405054658e-07
1.52943488678e-06
4.06433572218e-07
1.3446477434e-06
3.09996993073e-07
1.23630503398e-06
2.19704476755e-07
1.15959008393e-06
1.86394011094e-07
1.06707884385e-06
2.06011981251e-07
9.50841041256e-07
2.38677540358e-07
8.19927750028e-07
2.55634432576e-07
6.90920034509e-07
2.4833593323e-07
5.84482810651e-07
2.18862707739e-07
5.04534223883e-07
1.98190539853e-07
4.26092614504e-07
1.80575369404e-07
3.52501592276e-07
1.63125043413e-07
2.73783108444e-07
1.4282900032e-07
2.01998212911e-07
1.44316861922e-07
1.06007599673e-07
1.61846135524e-07
2.08517610214e-07
5.73556946079e-08
-1.8598836055e-07
8.65825117222e-08
-1.63235854072e-07
1.55274565123e-07
-1.91669684775e-07
2.34693179828e-07
-1.94218784623e-07
3.07711620059e-07
-1.88792077548e-07
3.46083369627e-07
-1.23379667304e-07
3.68838319173e-07
-8.06805187513e-08
4.09737731542e-07
-1.11056509638e-07
4.57081921287e-07
-1.33975902241e-07
5.04400672416e-07
-1.37070029999e-07
5.50178473557e-07
-1.3345131908e-07
5.91825793423e-07
-1.27783178817e-07
6.31097792081e-07
-1.22513019585e-07
6.71918817279e-07
-1.21268348467e-07
7.09087281775e-07
-1.18875986481e-07
7.21717829582e-07
-1.05521356792e-07
7.19384712022e-07
-9.20074661815e-08
7.41247349237e-07
-1.01997912081e-07
7.9897681084e-07
-1.33738328271e-07
8.89445542862e-07
-1.78071224e-07
9.83393101485e-07
-2.02988336496e-07
1.05323460558e-06
-1.97637919316e-07
1.112128168e-06
-1.88572954404e-07
1.17460152558e-06
-1.84388982171e-07
1.2366072237e-06
-1.80378726916e-07
1.29442053854e-06
-1.767301826e-07
1.35075886435e-06
-1.73292655209e-07
1.40702533273e-06
-1.70118811944e-07
1.46253540947e-06
-1.6699347675e-07
1.51791800145e-06
-1.65381190407e-07
1.57103042856e-06
-1.62976858724e-07
1.62377976777e-06
-1.61932149583e-07
1.6786166253e-06
-1.61956691828e-07
1.7288091023e-06
-1.6248758929e-07
1.78488174796e-06
-1.75734126693e-07
1.85353640415e-06
-1.88373730223e-07
1.91637230206e-06
-1.84497957362e-07
1.97678103733e-06
-1.84977827322e-07
2.04498661961e-06
-1.91979556738e-07
2.11034154609e-06
-1.82301618933e-07
2.1688734233e-06
-1.56600168454e-07
2.2213825394e-06
-1.34231846662e-07
2.26591213807e-06
-1.25124613882e-07
2.30523241293e-06
-1.20663973191e-07
2.34120816938e-06
-1.13993447156e-07
2.37318510145e-06
-1.04598803393e-07
2.40150722491e-06
-9.25734165234e-08
2.42578721783e-06
-7.86773121505e-08
2.44541906831e-06
-6.2977630185e-08
2.46137906837e-06
-4.5204398928e-08
2.47503331754e-06
-2.78873719494e-08
2.48262309189e-06
-1.51648014051e-08
2.4704310499e-06
-2.87986473262e-09
2.44859305449e-06
2.39348525649e-08
2.44077283254e-06
5.25432137944e-08
2.4358639507e-06
6.72165896256e-08
2.41730532066e-06
7.68088016984e-08
2.38690882067e-06
8.73773695617e-08
2.34929578748e-06
1.02850357691e-07
2.29874528849e-06
1.3104968729e-07
2.23753130422e-06
1.84503543255e-07
2.09728548891e-06
2.91869024094e-07
1.84158205998e-06
5.62012231633e-07
1.54865337997e-06
7.42378478903e-07
1.35198407177e-06
6.02476719009e-07
1.27240486454e-06
3.89147375053e-07
1.18342475124e-06
3.08304778495e-07
1.07671594713e-06
2.92701681814e-07
9.65263010239e-07
3.17021755546e-07
8.46242310866e-07
3.57220660007e-07
7.351129592e-07
3.66269248396e-07
6.50493448314e-07
3.32455118846e-07
5.78313075806e-07
2.90544132998e-07
5.04024088818e-07
2.72013072912e-07
4.16399262148e-07
2.67764050348e-07
3.27175565676e-07
2.51936586538e-07
2.49850494252e-07
2.19720782479e-07
1.8951617304e-07
2.04194490715e-07
8.21325171893e-08
2.68949733983e-07
2.9037430713e-07
3.94350694662e-08
-2.25062195503e-07
5.33321726062e-08
-1.76756797317e-07
1.30083908984e-07
-2.67883643239e-07
1.93872906174e-07
-2.57426416823e-07
1.99582632108e-07
-1.94094610536e-07
1.7750146696e-07
-1.0112158812e-07
2.46777559487e-07
-1.49785588087e-07
3.56040931945e-07
-2.20090976608e-07
4.31149671541e-07
-2.08826149217e-07
4.86271114599e-07
-1.91956797242e-07
5.36271760845e-07
-1.83186255049e-07
5.81028457578e-07
-1.72242665372e-07
6.16998375785e-07
-1.58177909382e-07
6.29294615234e-07
-1.33279056561e-07
6.23146948695e-07
-1.12520394121e-07
6.31540633028e-07
-1.13814165437e-07
6.76357658723e-07
-1.36782389292e-07
7.56484290603e-07
-1.82123331472e-07
8.52780498168e-07
-2.30038042684e-07
9.291896562e-07
-2.54486661695e-07
9.8497044714e-07
-2.58778144937e-07
1.04424300501e-06
-2.56941246584e-07
1.10665746347e-06
-2.51019745504e-07
1.16637668236e-06
-2.44156546431e-07
1.22429178777e-06
-2.38339730644e-07
1.28103895357e-06
-2.33541246285e-07
1.33805907849e-06
-2.30373469175e-07
1.39441817953e-06
-2.26559684572e-07
1.45064533522e-06
-2.23296213873e-07
1.50461784455e-06
-2.19438599922e-07
1.55959190881e-06
-2.18034962987e-07
1.6100523823e-06
-2.12482421516e-07
1.65783912522e-06
-2.09856243066e-07
1.72127972021e-06
-2.26071238124e-07
1.78482884557e-06
-2.39433954477e-07
1.84759580805e-06
-2.51317514233e-07
1.92510171525e-06
-2.62185820596e-07
1.99952351219e-06
-2.59589398614e-07
2.05860334635e-06
-2.512391754e-07
2.1117389416e-06
-2.35626458781e-07
2.16610839098e-06
-2.11154528699e-07
2.21919674063e-06
-1.87511149257e-07
2.26605501794e-06
-1.72165065211e-07
2.30673077347e-06
-1.61527883175e-07
2.34285023415e-06
-1.50296430369e-07
2.37484412659e-06
-1.36784496434e-07
2.40293668026e-06
-1.20855552344e-07
2.42691091058e-06
-1.0285019106e-07
2.44657303866e-06
-8.28364653889e-08
2.46219593406e-06
-6.10318471511e-08
2.47307777295e-06
-3.89728876227e-08
2.47559724547e-06
-1.79003850563e-08
2.46707912406e-06
5.40474963199e-09
2.45582015898e-06
3.49220156587e-08
2.44516429406e-06
6.28798008636e-08
2.42850757369e-06
8.34812137962e-08
2.40252063824e-06
1.02320039004e-07
2.36461453463e-06
1.24697896212e-07
2.30972029727e-06
1.57039629497e-07
2.22747005934e-06
2.12441352072e-07
2.09881272719e-06
3.12132404466e-07
1.90113325894e-06
4.88394183808e-07
1.71404277038e-06
7.47915052428e-07
1.53822865668e-06
9.17188522113e-07
1.34008807375e-06
7.9992129194e-07
1.18121536944e-06
5.47535662779e-07
1.06825723092e-06
4.20847326743e-07
9.74529281909e-07
3.86017465922e-07
8.87906498169e-07
4.03190044671e-07
7.98819993387e-07
4.45785385346e-07
7.04985823017e-07
4.59540794612e-07
6.13333344131e-07
4.23541167559e-07
5.20357964055e-07
3.83019456894e-07
4.27731301954e-07
3.64208421342e-07
3.41046140872e-07
3.54047354758e-07
2.50214733992e-07
3.42360730803e-07
1.683015392e-07
3.0131934882e-07
1.13598715056e-07
2.58694892082e-07
5.82762523859e-08
3.23860131892e-07
3.48608245198e-07
6.64792951434e-09
-2.31319301735e-07
4.58381854116e-08
-2.15649706557e-07
1.06318808962e-07
-3.2788219869e-07
1.50936919346e-07
-3.01557308753e-07
1.41964138376e-07
-1.84862827112e-07
1.80728883196e-07
-1.39780387871e-07
2.70016700988e-07
-2.38938279213e-07
3.38410106792e-07
-2.88270829123e-07
3.98559634845e-07
-2.68768625813e-07
4.56853346579e-07
-2.49998412758e-07
5.12887283257e-07
-2.38904295072e-07
5.46526944768e-07
-2.05583321923e-07
5.46828535951e-07
-1.58206300488e-07
5.4710253214e-07
-1.33373903933e-07
5.80008408799e-07
-1.45340591243e-07
6.44612408262e-07
-1.78379281771e-07
7.29990952173e-07
-2.22147926465e-07
8.10637075098e-07
-2.62761507549e-07
8.66850565648e-07
-2.86240735198e-07
9.14234703125e-07
-3.0186362534e-07
9.70946553622e-07
-3.15497583815e-07
1.03189806597e-06
-3.17912111509e-07
1.09210787365e-06
-3.11263264417e-07
1.15037318889e-06
-3.02459179541e-07
1.20743388146e-06
-2.95451643343e-07
1.26482830667e-06
-2.90987908683e-07
1.32061900181e-06
-2.86241264581e-07
1.37770544012e-06
-2.83720204889e-07
1.43200129447e-06
-2.77668306448e-07
1.48655989185e-06
-2.7407539576e-07
1.5351410699e-06
-2.66705888704e-07
1.59051386315e-06
-2.67968046697e-07
1.65738424935e-06
-2.76862965477e-07
1.71748455627e-06
-2.86334203665e-07
1.7865905654e-06
-3.08725718516e-07
1.86523325587e-06
-3.30149981866e-07
1.935318199e-06
-3.32462456618e-07
1.99885026263e-06
-3.23308507172e-07
2.05667160666e-06
-3.09252662841e-07
2.11114146966e-06
-2.90288339599e-07
2.16557426173e-06
-2.65784080427e-07
2.21863524346e-06
-2.40765604103e-07
2.26664851574e-06
-2.20372914902e-07
2.30860381514e-06
-2.03673251935e-07
2.34537730464e-06
-1.87262316524e-07
2.3776395908e-06
-1.69238450533e-07
2.40564408935e-06
-1.49058025642e-07
2.42928254294e-06
-1.26688703101e-07
2.44832884059e-06
-1.02089243764e-07
2.46250630383e-06
-7.54155712952e-08
2.47069268594e-06
-4.73712564001e-08
2.47078480759e-06
-1.82128997794e-08
2.46265047375e-06
1.32937987418e-08
2.45028516908e-06
4.7001314159e-08
2.43427944873e-06
7.85387510544e-08
2.41025351331e-06
1.07081130833e-07
2.37345006286e-06
1.38596682995e-07
2.31706374776e-06
1.80445781762e-07
2.23117917911e-06
2.42156112016e-07
2.104986677e-06
3.37736335093e-07
1.93479083884e-06
4.8129162345e-07
1.74800212942e-06
6.74035044861e-07
1.61499466941e-06
8.79826042815e-07
1.4803601392e-06
1.05078710352e-06
1.33660797549e-06
9.42827882416e-07
1.17271657927e-06
7.10842766484e-07
1.01438478566e-06
5.78707632394e-07
8.8827101717e-07
5.11654469415e-07
7.92758275218e-07
4.98181903084e-07
7.08410913197e-07
5.29542111522e-07
6.18307340466e-07
5.48984955374e-07
5.28844557388e-07
5.12413760989e-07
4.43607849516e-07
4.67776772476e-07
3.57903895167e-07
4.49489926354e-07
2.70477217072e-07
4.41070846677e-07
1.879784019e-07
4.24518344246e-07
1.36186283978e-07
3.52843748181e-07
8.5716371087e-08
3.08895171511e-07
3.48057899473e-08
3.74710919768e-07
3.83230776198e-07
2.28528655714e-09
-2.33532312125e-07
5.47754547498e-08
-2.67885242144e-07
8.64470222139e-08
-3.59154301146e-07
1.06694501639e-07
-3.21507298723e-07
1.04227071585e-07
-1.82259554391e-07
1.9241728731e-07
-2.27852088867e-07
2.77611201214e-07
-3.23956773612e-07
3.19503634089e-07
-3.2999670446e-07
3.6862095072e-07
-3.17655166351e-07
4.18041277886e-07
-2.99119183489e-07
4.48756793665e-07
-2.69329916953e-07
4.37098572006e-07
-1.93674163119e-07
4.43091050941e-07
-1.64055825695e-07
4.8708446363e-07
-1.77301312338e-07
5.58954018263e-07
-2.17188667384e-07
6.52692339827e-07
-2.72115624688e-07
7.3834359121e-07
-3.07786336642e-07
7.92709804153e-07
-3.17096410345e-07
8.37702778853e-07
-3.31207607291e-07
8.95989557408e-07
-3.60137272511e-07
9.56320859703e-07
-3.75829593286e-07
1.01384354024e-06
-3.75450099408e-07
1.07174246409e-06
-3.69188340478e-07
1.13060259294e-06
-3.61361532105e-07
1.18807391683e-06
-3.52968816596e-07
1.2399626507e-06
-3.42939083739e-07
1.2973089711e-06
-3.43651876392e-07
1.35201467426e-06
-3.38498419828e-07
1.40750203307e-06
-3.33239333708e-07
1.45267633316e-06
-3.19339357601e-07
1.50450706207e-06
-3.18641636219e-07
1.56340208239e-06
-3.26994916622e-07
1.62522200046e-06
-3.3884667736e-07
1.7106898678e-06
-3.71992875296e-07
1.79738914256e-06
-3.95628872978e-07
1.87026879017e-06
-4.03230650597e-07
1.93501643813e-06
-3.97405684285e-07
1.99600991131e-06
-3.84496815703e-07
2.05416410446e-06
-3.67602576087e-07
2.11025793811e-06
-3.46583050452e-07
2.16542189535e-06
-3.21151369522e-07
2.21869747002e-06
-2.94244588408e-07
2.2675547523e-06
-2.69429065697e-07
2.31071210593e-06
-2.4702660614e-07
2.34840716564e-06
-2.25151688846e-07
2.38114587874e-06
-2.02174095836e-07
2.40915514267e-06
-1.77267550488e-07
2.43228487479e-06
-1.50024400637e-07
2.45016150236e-06
-1.20175179488e-07
2.46221776047e-06
-8.76862538576e-08
2.46745421373e-06
-5.28242607956e-08
2.46480378051e-06
-1.57946037262e-08
2.4545837024e-06
2.325233858e-08
2.43819256674e-06
6.30828076686e-08
2.41421539316e-06
1.02128172944e-07
2.37774605111e-06
1.43082491012e-07
2.32223209801e-06
1.93534855355e-07
2.23957796758e-06
2.6239613133e-07
2.12205519277e-06
3.58871622305e-07
1.96890595767e-06
4.89934342375e-07
1.79230239224e-06
6.56851875003e-07
1.61928221091e-06
8.45979727263e-07
1.50096138451e-06
9.97039687375e-07
1.37068956355e-06
1.17995539422e-06
1.20385825597e-06
1.10886322965e-06
1.06971402718e-06
8.44402898246e-07
9.25035229388e-07
7.22858828761e-07
7.93749603589e-07
6.42466933398e-07
6.93619482294e-07
5.97781384532e-07
6.07396650967e-07
6.15138038001e-07
5.23388597499e-07
6.32363320234e-07
4.52750232719e-07
5.82526847506e-07
3.74827386311e-07
5.45253429964e-07
2.9163100979e-07
5.32272772078e-07
2.1122221191e-07
5.21107650739e-07
1.54303671495e-07
4.81115827992e-07
1.05929854787e-07
4.01002833004e-07
6.05104311325e-08
3.54204804791e-07
2.71590479981e-08
4.07717459399e-07
4.10388352098e-07
1.97112182661e-08
-2.52994794237e-07
7.84198974446e-08
-3.26333225402e-07
1.03399053969e-07
-3.83774404282e-07
8.63603248724e-08
-3.04219716325e-07
1.20475552257e-07
-2.16273718235e-07
2.15371099994e-07
-3.22610967184e-07
2.61311252863e-07
-3.69741781459e-07
2.96607064723e-07
-3.65079878635e-07
3.31220932583e-07
-3.52033593646e-07
3.79891979656e-07
-3.47506537083e-07
3.77778336948e-07
-2.66956999923e-07
3.76762335109e-07
-1.92519823195e-07
4.18043982875e-07
-2.05273347971e-07
4.76595465012e-07
-2.35852669056e-07
5.64907346199e-07
-3.05512145751e-07
6.5314833396e-07
-3.60334568719e-07
7.06247549979e-07
-3.60845006941e-07
7.48938108348e-07
-3.59754647574e-07
8.11514347834e-07
-3.93762628013e-07
8.75817760717e-07
-4.24426306093e-07
9.33719035009e-07
-4.33727356357e-07
9.90944284285e-07
-4.32683476352e-07
1.04927206134e-06
-4.27548278019e-07
1.10446062107e-06
-4.16585892577e-07
1.15641448905e-06
-4.04966270177e-07
1.20984043407e-06
-3.96426384087e-07
1.26168964418e-06
-3.95572862801e-07
1.31782226982e-06
-3.94714930017e-07
1.36682200574e-06
-3.8232628297e-07
1.41337115779e-06
-3.65992016539e-07
1.47632996896e-06
-3.81735551564e-07
1.54412808452e-06
-3.94949211079e-07
1.6262431422e-06
-4.21150468286e-07
1.71187120344e-06
-4.57830698281e-07
1.79607734536e-06
-4.80046408636e-07
1.86690529414e-06
-4.74265585279e-07
1.93055225619e-06
-4.61256630857e-07
1.99179950351e-06
-4.45947082503e-07
2.05142543452e-06
-4.27433818116e-07
2.1093013415e-06
-4.04666703496e-07
2.16557829596e-06
-3.77637029711e-07
2.21947064571e-06
-3.48343325611e-07
2.26918969687e-06
-3.19350657848e-07
2.31349956844e-06
-2.9153571072e-07
2.35221733011e-06
-2.64067865486e-07
2.38555342559e-06
-2.35710991515e-07
2.41354760927e-06
-2.05466938059e-07
2.43590763715e-06
-1.72594739987e-07
2.45211291054e-06
-1.36596843903e-07
2.46149709146e-06
-9.72866137875e-08
2.46323701832e-06
-5.47914326389e-08
2.45666829705e-06
-9.46876272617e-09
2.44166006979e-06
3.7982812394e-08
2.4176455527e-06
8.67496244852e-08
2.38152579007e-06
1.37838006401e-07
2.32752540395e-06
1.96579913462e-07
2.24911333127e-06
2.7132378636e-07
2.14231710436e-06
3.6847010331e-07
2.01006658987e-06
4.90235028115e-07
1.86325615691e-06
6.35790385406e-07
1.72046556908e-06
7.98580673415e-07
1.60259520681e-06
9.62759018563e-07
1.47185309206e-06
1.12667642049e-06
1.33918291362e-06
1.3116574058e-06
1.11014465195e-06
1.3370705789e-06
9.530063253e-07
1.00097063047e-06
8.33743646012e-07
8.41719682622e-07
7.10446046124e-07
7.6530762581e-07
5.9898340211e-07
7.08765561875e-07
5.08644069211e-07
7.04942873112e-07
4.48607711654e-07
6.91890242609e-07
3.89436052503e-07
6.41255272464e-07
3.12089545198e-07
6.22191838564e-07
2.33200221375e-07
6.10780849797e-07
1.65640267489e-07
5.88319761326e-07
1.26496537885e-07
5.20008315948e-07
7.52955683555e-08
4.51991087665e-07
3.1657457021e-08
3.97585838757e-07
1.68572658728e-08
4.22516262596e-07
4.27064408527e-07
3.55788676195e-08
-2.88522639845e-07
8.39260009782e-08
-3.74431039434e-07
9.42867391425e-08
-3.93941933918e-07
6.1989888955e-08
-2.71806649448e-07
1.30186165629e-07
-2.84359946149e-07
2.03178401297e-07
-3.95454507738e-07
2.37337779107e-07
-4.03705791667e-07
2.73294701375e-07
-4.00822506619e-07
2.84880075292e-07
-3.63351175548e-07
3.08126060064e-07
-3.70532620586e-07
2.98853873533e-07
-2.57546782525e-07
3.46046965368e-07
-2.39653088857e-07
3.9582910286e-07
-2.55053827833e-07
4.72349022651e-07
-3.12381055596e-07
5.60198268727e-07
-3.93354591543e-07
6.16224541765e-07
-4.16330745143e-07
6.54578291423e-07
-3.99156551294e-07
7.17035629228e-07
-4.22180483019e-07
7.86775305506e-07
-4.63479569949e-07
8.46921647238e-07
-4.84555115385e-07
9.03226576053e-07
-4.90026153742e-07
9.59695867468e-07
-4.89173456294e-07
1.01979301842e-06
-4.87666879715e-07
1.07852972688e-06
-4.75348618068e-07
1.12622130385e-06
-4.52714887003e-07
1.18395468842e-06
-4.54217825641e-07
1.23375865053e-06
-4.45453006699e-07
1.27855726401e-06
-4.39602048482e-07
1.32611839908e-06
-4.29992976914e-07
1.40539234746e-06
-4.45398850262e-07
1.4718532599e-06
-4.4835014229e-07
1.5350491782e-06
-4.58335301531e-07
1.62214995588e-06
-5.0845946949e-07
1.71526012982e-06
-5.51161440107e-07
1.78961091051e-06
-5.54617929044e-07
1.8578000895e-06
-5.42671716672e-07
1.92322200124e-06
-5.26893069844e-07
1.98661919078e-06
-5.0955756972e-07
2.04833213734e-06
-4.89360811508e-07
2.10821683379e-06
-4.64765889673e-07
2.16599679304e-06
-4.35630938203e-07
2.22094178976e-06
-4.03498199348e-07
2.27175662386e-06
-3.70370831187e-07
2.31732035791e-06
-3.37300393854e-07
2.35716111502e-06
-3.04109168613e-07
2.39115511907e-06
-2.69906249106e-07
2.41906218416e-06
-2.3358112228e-07
2.44038428448e-06
-1.94129450518e-07
2.45446732576e-06
-1.5089427813e-07
2.46057661967e-06
-1.03622607324e-07
2.45792803476e-06
-5.23716581037e-08
2.4457287337e-06
2.46825241435e-09
2.42300108363e-06
6.03997856959e-08
2.38761489914e-06
1.21745157102e-07
2.3353928305e-06
1.89637262768e-07
2.26109385862e-06
2.7032974339e-07
2.16178174538e-06
3.70007695745e-07
2.0421801629e-06
4.87319316444e-07
1.9143285778e-06
6.17286975756e-07
1.79012034282e-06
7.59012525248e-07
1.67776993491e-06
9.09895299213e-07
1.57364457962e-06
1.06576301963e-06
1.47071012024e-06
1.22852740355e-06
1.39694509386e-06
1.38435313161e-06
1.19583639246e-06
1.53731043122e-06
8.82807118993e-07
1.31343430503e-06
7.09129630298e-07
1.0148981741e-06
5.80843789164e-07
8.93212942054e-07
4.77714637481e-07
8.11466915922e-07
4.18276299802e-07
7.6394990589e-07
3.85749145311e-07
7.24003132688e-07
3.29192581459e-07
6.97424712047e-07
2.55324379382e-07
6.95687347101e-07
1.82775814994e-07
6.82983808053e-07
1.28773756471e-07
6.42033650775e-07
8.42351210539e-08
5.6430305793e-07
3.68285456642e-08
4.99214239628e-07
-4.65514752029e-09
4.38997758593e-07
-7.01832713838e-09
4.24539004257e-07
4.20064433437e-07
4.41956657629e-08
-3.32439107648e-07
7.66698046831e-08
-4.06669226599e-07
6.9446823913e-08
-3.86492643511e-07
7.4902856667e-08
-2.7715934575e-07
1.48848803025e-07
-3.58176387253e-07
1.79133312052e-07
-4.25557539701e-07
2.09738150519e-07
-4.34082457507e-07
2.43490778684e-07
-4.34351089559e-07
2.53361770478e-07
-3.73036962288e-07
2.6851106288e-07
-3.85487969351e-07
2.84467758219e-07
-2.73444270332e-07
3.27288617099e-07
-2.82462576755e-07
3.82039703007e-07
-3.09828891149e-07
4.6576911646e-07
-3.96133040868e-07
5.39110187815e-07
-4.66664341538e-07
5.76414032655e-07
-4.53578305197e-07
6.21464765874e-07
-4.44170101615e-07
6.87213460932e-07
-4.87904488715e-07
7.52760083546e-07
-5.29003450728e-07
8.12548541816e-07
-5.44333683648e-07
8.69486683871e-07
-5.46979829298e-07
9.22956409937e-07
-5.42653375147e-07
9.76042511697e-07
-5.40758691775e-07
1.03064191572e-06
-5.29984007838e-07
1.07918056297e-06
-5.01291928105e-07
1.13198144205e-06
-5.07085078091e-07
1.1901746853e-06
-5.03734550582e-07
1.25262728804e-06
-5.02151491557e-07
1.31764039296e-06
-4.95121845507e-07
1.37912474543e-06
-5.07034519317e-07
1.44898929327e-06
-5.18406344225e-07
1.54492196023e-06
-5.54485226384e-07
1.63231353609e-06
-5.96084799644e-07
1.7064517846e-06
-6.25534144733e-07
1.77725117588e-06
-6.25645945992e-07
1.84655458171e-06
-6.12201900478e-07
1.91442151084e-06
-5.94985867925e-07
1.98046041811e-06
-5.75821740982e-07
2.0446352552e-06
-5.53758897919e-07
2.106833522e-06
-5.27185397146e-07
2.16660678514e-06
-4.95620417192e-07
2.22315548363e-06
-4.60258143943e-07
2.27544000802e-06
-4.22860388475e-07
2.32248936965e-06
-3.84551212849e-07
2.36362664006e-06
-3.45444135163e-07
2.39835489347e-06
-3.04836907516e-07
2.42611954039e-06
-2.61550559856e-07
2.44619903475e-06
-2.14418418114e-07
2.45777480752e-06
-1.62694843561e-07
2.46000251796e-06
-1.0606553014e-07
2.45189121899e-06
-4.45188766077e-08
2.4322053045e-06
2.18788234521e-08
2.39895056312e-06
9.32767846298e-08
2.34900695079e-06
1.71338431509e-07
2.27818571271e-06
2.5996752193e-07
2.18412398511e-06
3.63907021021e-07
2.06914127839e-06
4.84458447556e-07
1.94674266214e-06
6.09098319946e-07
1.83268212347e-06
7.30507556652e-07
1.73064182405e-06
8.60123155676e-07
1.63418303442e-06
1.00522991562e-06
1.53611406322e-06
1.16273327051e-06
1.44544012433e-06
1.31809814644e-06
1.3763973293e-06
1.45239729167e-06
1.30878910075e-06
1.60399658612e-06
9.78223998315e-07
1.64318448936e-06
5.89609465035e-07
1.40307216689e-06
4.44838747373e-07
1.03758963886e-06
3.68133489141e-07
8.8786491907e-07
3.40957707176e-07
7.90810095307e-07
3.2634166286e-07
7.38315014464e-07
2.77216501732e-07
7.46244766789e-07
2.08328688507e-07
7.64283618738e-07
1.38522923879e-07
7.52518964109e-07
8.14009412489e-08
6.98933763157e-07
2.30768083402e-08
6.22480225814e-07
-2.22161763951e-08
5.44353460501e-07
-4.98562016545e-08
4.6641298331e-07
-3.69322389266e-08
4.11672607315e-07
3.82979218619e-07
4.81320231263e-08
-3.80555978532e-07
7.57929803502e-08
-4.3417886434e-07
5.63345796384e-08
-3.66907797761e-07
8.43867961987e-08
-3.05077805715e-07
1.43989246027e-07
-4.17600643524e-07
1.54680229562e-07
-4.3602648537e-07
1.7857992741e-07
-4.57792999023e-07
1.94615295971e-07
-4.50176926151e-07
2.22316356889e-07
-4.00586438161e-07
2.16618140756e-07
-3.7971105843e-07
2.55100198423e-07
-3.11899265783e-07
3.04987838097e-07
-3.32373548535e-07
3.62559586687e-07
-3.67416595665e-07
4.3691482442e-07
-4.70478438846e-07
4.88089707319e-07
-5.17807065696e-07
5.16716871169e-07
-4.82165722457e-07
5.76837126846e-07
-5.04260735933e-07
6.4647656846e-07
-5.5752101321e-07
7.10296388578e-07
-5.92808800971e-07
7.71949929987e-07
-6.05986995074e-07
8.32262939632e-07
-6.07285142011e-07
8.89396313686e-07
-5.99787417927e-07
9.36738585873e-07
-5.88133044253e-07
9.85497362726e-07
-5.78769562615e-07
1.04484708354e-06
-5.60689817335e-07
1.09281690679e-06
-5.55136729634e-07
1.14146380231e-06
-5.5245787787e-07
1.18936962628e-06
-5.50158339778e-07
1.26645657428e-06
-5.72351272816e-07
1.3481219199e-06
-5.88871765292e-07
1.4351151997e-06
-6.056132189e-07
1.52123303126e-06
-6.40846193747e-07
1.61537504582e-06
-6.90481112482e-07
1.69247562964e-06
-7.02878485746e-07
1.76319666536e-06
-6.96607791892e-07
1.83394255256e-06
-6.83189124233e-07
1.90439822887e-06
-6.65683132764e-07
1.97335749154e-06
-6.45019350667e-07
2.04033585867e-06
-6.20971814587e-07
2.10517240191e-06
-5.92249581042e-07
2.1673841546e-06
-5.58053593496e-07
2.22611257168e-06
-5.19199886659e-07
2.28037868038e-06
-4.77332321667e-07
2.32927854956e-06
-4.33648066883e-07
2.37199231339e-06
-3.88353796329e-07
2.40767601775e-06
-3.407103571e-07
2.43537936739e-06
-2.89451536328e-07
2.45413001313e-06
-2.33379311347e-07
2.46297941079e-06
-1.71743810163e-07
2.46084053747e-06
-1.04172861977e-07
2.44639303777e-06
-3.03075103778e-08
2.41763138483e-06
5.0304947229e-08
2.37169415839e-06
1.3883999062e-07
2.30491746824e-06
2.37668765034e-07
2.21488478431e-06
3.49623937895e-07
2.10408648799e-06
4.74276734485e-07
1.9770145407e-06
6.10851575987e-07
1.85287736796e-06
7.32818105815e-07
1.75094952382e-06
8.31840304222e-07
1.66672907752e-06
9.43412762506e-07
1.58414378421e-06
1.0867722951e-06
1.48283569649e-06
1.26282735953e-06
1.37504907271e-06
1.42460504922e-06
1.30554949488e-06
1.52063655552e-06
1.28409132109e-06
1.62425537187e-06
1.16509501732e-06
1.76122708398e-06
7.22261148319e-07
1.84498111747e-06
3.04494708392e-07
1.45487816228e-06
2.41389873423e-07
9.50592075805e-07
2.55381223553e-07
7.76493063242e-07
2.75247848113e-07
7.18167059652e-07
2.42726749742e-07
7.7848918423e-07
1.77096551993e-07
8.29659536914e-07
9.95510286046e-08
8.29847004568e-07
1.95799626326e-08
7.78764127615e-07
-5.50239420409e-08
6.96923078074e-07
-9.95389677373e-08
5.88822772331e-07
-1.00805389047e-07
4.67669720983e-07
-6.37145263609e-08
3.74285136301e-07
3.19315862895e-07
4.16837634126e-08
-4.21928879082e-07
6.36091673401e-08
-4.55869389755e-07
5.3599878268e-08
-3.56749460966e-07
9.63442893037e-08