/*--------------------------------*- C++ -*----------------------------------*\
| =========                 |                                                 |
| \\      /  F ield         | OpenFOAM: The Open Source CFD Toolbox           |
|  \\    /   O peration     | Version:  v1806                                 |
|   \\  /    A nd           | Web:      www.OpenFOAM.com                      |
|    \\/     M anipulation  |                                                 |
\*---------------------------------------------------------------------------*/
FoamFile
{
    version     2.0;
    format      ascii;
    class       volScalarField;
    location    "760";
    object      p;
}
// * * * * * * * * * * * * * * * * * * * * * * * * * * * * * * * * * * * * * //

dimensions      [0 2 -2 0 0 0 0];


internalField   nonuniform List<scalar> 
6400
(
0.144728716916
0.14473198458
0.144741345746
0.144759732906
0.144787237197
0.144823864689
0.144869581865
0.144925488349
0.144992725634
0.145073153756
0.145173099932
0.145295950111
0.145439134205
0.145602560336
0.145788173442
0.145998627151
0.146235768388
0.146499679962
0.1467881918
0.147095836258
0.147417137371
0.147753833339
0.148113703735
0.148504800888
0.148932060163
0.149395372175
0.149891274118
0.150417075599
0.150972250029
0.151557318426
0.152172586558
0.152815990116
0.153481463849
0.154162808441
0.154857076899
0.155561601823
0.156276787841
0.15700819979
0.15775431819
0.158506341454
0.159264910329
0.160041616843
0.160842177564
0.161658435079
0.162479032287
0.163295794191
0.164102452727
0.164894037259
0.165665976065
0.166414210622
0.167135256076
0.167823374423
0.168469254086
0.169061828214
0.169598440818
0.170082616323
0.170509862367
0.170870773038
0.171163064371
0.171393902011
0.171570146334
0.171696383189
0.171777739955
0.171830625132
0.171873490763
0.171916742109
0.171954997223
0.171977987362
0.171983727753
0.171976518634
0.171960080912
0.171936283697
0.171906241377
0.171873574457
0.171839478663
0.171806488185
0.171776655712
0.171756002399
0.171742176691
0.171736234273
0.144723994544
0.14472748066
0.144736027283
0.144753981108
0.144782975462
0.144821047737
0.1448672346
0.144921392843
0.144986590476
0.145066771364
0.145166359139
0.14528819389
0.145431664164
0.145596019283
0.145781779014
0.145990860803
0.146227207983
0.146491762024
0.146781541886
0.147089669721
0.147409044503
0.147743668392
0.148102969007
0.148494123254
0.148921864667
0.149385921563
0.149882178682
0.150408596921
0.150964717763
0.151550535477
0.15216595127
0.152809817301
0.153476257761
0.154157739566
0.154852121204
0.155556936625
0.156272116639
0.157004089534
0.157751433196
0.158504473077
0.159262776929
0.160040226029
0.160843933571
0.161662608417
0.162484523181
0.163302739219
0.164110966025
0.164904437481
0.165678201868
0.16642706484
0.1671475045
0.167836773532
0.168487029484
0.169081831835
0.16962016261
0.170106951049
0.170532937976
0.170891176989
0.171182949114
0.171412824159
0.171586404091
0.171711697528
0.171793457966
0.171847598648
0.171892198873
0.171936264906
0.171974237652
0.171994455402
0.171996888371
0.171986797135
0.171967765951
0.171941410829
0.171908406314
0.171872202006
0.171836029379
0.171801996683
0.171772881155
0.171751709386
0.171737672541
0.171732859523
0.144710639383
0.14471636414
0.144724194427
0.144740748168
0.144768784665
0.144810960533
0.144860673532
0.144913290146
0.144975478057
0.145053964542
0.145152702324
0.145273987037
0.145417750165
0.145582921013
0.145768723367
0.145974445358
0.146208376216
0.146477393834
0.146770103421
0.147076788211
0.147392049175
0.147721670523
0.148080064435
0.148473485868
0.148902201568
0.149366238844
0.149863712315
0.150391932096
0.150949643848
0.151536775367
0.15215305793
0.152798028574
0.153466502798
0.154147807812
0.154841138958
0.155547548782
0.156263194772
0.156994773525
0.15774355867
0.158499947358
0.159264262449
0.160046378821
0.160850648184
0.161669702012
0.162493378628
0.163314006516
0.164125406815
0.164922325975
0.165699728618
0.166452852873
0.167177634784
0.167869104189
0.168518572821
0.169116918846
0.169662333615
0.170151170438
0.170575480717
0.170932078932
0.171222345852
0.171450334015
0.171622258944
0.171744887691
0.171826444906
0.17188484668
0.171935681879
0.171981307128
0.172014462459
0.172028391357
0.172024797752
0.17200883213
0.171983979275
0.171951338717
0.171912729391
0.171871881139
0.171831782343
0.171795260229
0.171765308672
0.171743283319
0.171729247067
0.171724008117
0.14469134267
0.144697258996
0.144704090865
0.144719407495
0.144744195252
0.144786315728
0.144848425495
0.144901284714
0.144958993656
0.145034529401
0.145131841418
0.145252817579
0.145397254444
0.145562495642
0.145748169481
0.145957868969
0.146195682091
0.146461874715
0.146746282783
0.147042089961
0.147353475345
0.147686655153
0.148047562721
0.148441757986
0.148871644415
0.149337166337
0.149836519581
0.150366951136
0.150926952869
0.151515941656
0.15213425138
0.152780825035
0.153450936609
0.1541351042
0.154826362905
0.155530391235
0.156249434494
0.156982099769
0.157730160318
0.158490952098
0.15926340028
0.160052159446
0.160859710238
0.161681028844
0.162507739274
0.163332256102
0.164148207636
0.16495007036
0.165732723705
0.166491325498
0.167221155593
0.167916508589
0.168569832145
0.169173964401
0.169724268473
0.170214822363
0.170639111826
0.170994662854
0.171283079607
0.171508665393
0.171677936933
0.17179927527
0.171885123918
0.171952220531
0.172008244758
0.172050795808
0.17207774523
0.17208331731
0.172069765137
0.172043782235
0.17200958274
0.171968227551
0.171921510192
0.171871878487
0.171823640837
0.171783171704
0.171752123451
0.171727049876
0.171709652837
0.171702492004
0.144660985688
0.144662502185
0.144670886228
0.144686705546
0.144714264234
0.144754236425
0.144811599037
0.144869100351
0.144930313882
0.145006412892
0.145102615305
0.145223511628
0.145369217944
0.145539876367
0.145732890391
0.145943202289
0.146173994187
0.146427146706
0.146700823871
0.146993819807
0.147306524776
0.147641269706
0.14800387998
0.14839980705
0.148831339109
0.149298747579
0.149800176563
0.150333388781
0.150896349922
0.151488364409
0.152108813549
0.152758818222
0.153432802795
0.154115201284
0.154805601133
0.15550875625
0.156226590522
0.156961927128
0.157714276747
0.158481201316
0.159261757179
0.160057994339
0.160870802874
0.161696331953
0.162527640519
0.163357515692
0.164179476331
0.164987794825
0.165777234426
0.166542794012
0.167279326458
0.167980861355
0.168640435514
0.169251203433
0.169806808003
0.170300193238
0.17072543918
0.171080650726
0.171367812644
0.171591876898
0.171760580023
0.171884543194
0.171977723171
0.172052019411
0.172107320318
0.172146970956
0.172167972073
0.172163145283
0.172135480261
0.172094273314
0.172045926551
0.171991567133
0.171930945728
0.171866775082
0.171808539131
0.17176217441
0.171725141638
0.171691945847
0.17167114769
0.171663724715
0.144606137563
0.144606576321
0.144620032556
0.144636691302
0.14466738359
0.144709888388
0.144763929589
0.144822349194
0.144888648005
0.144967221103
0.145062132007
0.145183692559
0.14533836533
0.145517877261
0.145710227065
0.145914313067
0.146135148214
0.146379157082
0.146647862362
0.146938662187
0.147249675192
0.147584772339
0.14794930638
0.148347565244
0.148781357068
0.149250535846
0.14975476057
0.15029098147
0.150857989284
0.15145380765
0.152078620528
0.15273077696
0.153404807854
0.154090725209
0.154778509153
0.155478257352
0.1561977243
0.156937624634
0.157695901314
0.15847014664
0.159259284975
0.160063898719
0.160883753661
0.161715490062
0.162553152573
0.163389975523
0.164219484968
0.165035823017
0.165833646189
0.166607809714
0.167352922019
0.168062892988
0.16873086738
0.169349605814
0.169911558477
0.170409174036
0.170837058857
0.171193888255
0.171482229987
0.171708006475
0.171880241472
0.17201073688
0.172112615132
0.172188698317
0.172242184826
0.172277049819
0.172290287242
0.17227250039
0.172226197215
0.172163774313
0.172095390254
0.172020930923
0.171938234829
0.171855043004
0.171783301548
0.17172630915
0.171677680551
0.171636697283
0.171613390648
0.171603763112
0.144522762131
0.144529400813
0.144551014267
0.144575345544
0.144602546756
0.144645926015
0.144702054551
0.144763141389
0.144833366771
0.14491508269
0.145014394633
0.145140140646
0.145302838158
0.145481725539
0.145669507248
0.145865575866
0.146080062753
0.146321497081
0.146588024416
0.146873876826
0.147182208033
0.147518033263
0.147884294851
0.148284446915
0.148720858764
0.149194020472
0.149699734614
0.150239536481
0.150811402655
0.151414267966
0.152043266094
0.152695873496
0.153370767475
0.154052929734
0.154740406362
0.155441217983
0.15616425708
0.15690981735
0.157675108917
0.158457580672
0.159255973289
0.160069970819
0.16089853537
0.161738434318
0.162584316337
0.163429810153
0.164268528252
0.16509456669
0.165902519996
0.166687149704
0.167442915863
0.168163585766
0.168842079424
0.169470557213
0.17004073355
0.170545029315
0.170978684602
0.171341030744
0.171635187584
0.171867572921
0.172047676998
0.172186845672
0.172293898569
0.172370075353
0.172427314545
0.172456932021
0.17245403442
0.172415281541
0.172344486005
0.172255284918
0.172159189154
0.172055309078
0.171942407571
0.171834132015
0.171742244782
0.171667661673
0.171604379482
0.171558440238
0.171534552441
0.171523581117
0.144423852016
0.144436446576
0.144461083875
0.144495456928
0.144525626443
0.144571192883
0.144626104545
0.144690531865
0.144765756821
0.14484590604
0.14495415808
0.145093130598
0.145254411971
0.145429967345
0.145611073087
0.145800109198
0.14601367895
0.146255553356
0.146517293213
0.146798245346
0.147104495306
0.14744055957
0.14780835226
0.148211454112
0.14865142146
0.149127830209
0.149637743554
0.150178013312
0.15075721305
0.151369576603
0.152000709574
0.152651013001
0.153324273728
0.15400478204
0.154691926866
0.155397681209
0.156126597268
0.156878707994
0.157651760955
0.158443293856
0.159251783715
0.160076287926
0.16091518292
0.161765167165
0.162621206592
0.163477228229
0.164326976455
0.165164577239
0.165984615001
0.166781798443
0.167550479515
0.168284237318
0.168975641391
0.169616341063
0.170197785473
0.170712810743
0.171157427023
0.17153131605
0.171837095078
0.172080383857
0.17227015843
0.17241604819
0.17252558759
0.172605117187
0.172661792774
0.17269226046
0.172668643307
0.172599475779
0.172496420153
0.172372693868
0.172239705553
0.172095952466
0.171943454029
0.171798665932
0.171675933553
0.171577111132
0.171502903273
0.171456120086
0.171435516007
0.171427306809
0.144314422805
0.144330509254
0.144355673955
0.144385948165
0.144423771836
0.144478247179
0.144534081267
0.144600737195
0.144684575882
0.144770766201
0.144877531588
0.145025766834
0.145190201208
0.145360386975
0.145535716133
0.145724610406
0.145937750395
0.146176738439
0.146434018232
0.146712219271
0.147017022552
0.147352500485
0.147720313151
0.148125424988
0.148572974747
0.149051546196
0.149566120209
0.150114292383
0.150695528076
0.15130967777
0.15194674619
0.152602679047
0.15326659063
0.153943357131
0.154635585845
0.155348310012
0.15608439807
0.156844038224
0.15762565255
0.158427094204
0.159246655189
0.160082901788
0.160933748794
0.161795735432
0.162663945114
0.163532502359
0.164395306727
0.165246572559
0.166080909025
0.166892996958
0.167677104856
0.168426641719
0.169133901695
0.169790338598
0.170387665284
0.170919510062
0.171382441749
0.171775220857
0.172097783848
0.172354360599
0.172555052719
0.172708345524
0.172821493208
0.17289932828
0.172945203304
0.172969838872
0.172944007482
0.172836823374
0.172691455625
0.172523663156
0.17234248336
0.172147870966
0.171941348708
0.171739552854
0.171569910206
0.17144443397
0.171367590046
0.171328728265
0.171316196118
0.171314430667
0.144192636681
0.144210894814
0.144240176877
0.144269629088
0.144310580287
0.144365772187
0.144424383172
0.144491686585
0.144576457803
0.144680154077
0.144792658469
0.144941621162
0.145107344577
0.145274212015
0.145444165421
0.145636058823
0.145852568185
0.146086723961
0.146338651974
0.146614524588
0.146919072085
0.147255150972
0.147623434766
0.148027553294
0.148481645407
0.148968966718
0.149481168631
0.150036349328
0.150623149971
0.151241945613
0.15188254042
0.152537015102
0.153200438617
0.153875367905
0.154572253979
0.155292827539
0.156037247211
0.156805484152
0.157596557862
0.158408790355
0.159240474005
0.160089805047
0.160954278295
0.161830213542
0.162712699734
0.163595986379
0.164474128453
0.165341461598
0.166192637161
0.167022315087
0.167824725998
0.168593226654
0.169320115092
0.169997150389
0.170616870182
0.171173812195
0.171664111845
0.172083096429
0.172425778866
0.172698255329
0.172917074701
0.173084065794
0.17320114501
0.173268424699
0.173290879797
0.173280674429
0.173241558636
0.173139680351
0.172941193559
0.172714172643
0.172475268354
0.172222188655
0.171938235507
0.171639891831
0.171398856542
0.1712495141
0.17118511124
0.171168566381
0.171170911624
0.171178737063
0.144053167489
0.144070566907
0.144102542602
0.144137378931
0.14418717553
0.144237483775
0.144297302889
0.144367596587
0.144445324539
0.144558850822
0.144686320645
0.14483653426
0.145003008885
0.145170987654
0.145340589092
0.145533599911
0.14575185192
0.145983167483
0.146231190666
0.146503903088
0.146807574074
0.147145780833
0.147519384623
0.147923765968
0.148373658926
0.148873845107
0.149394821264
0.149950232726
0.150539171178
0.151153874368
0.151801583679
0.152459539697
0.15312188
0.153799512692
0.154502516562
0.155231285653
0.155984808514
0.156762694736
0.157564240144
0.158388207937
0.159233104371
0.160096929964
0.160976778819
0.161868685022
0.162767675754
0.16366810296
0.164564184493
0.165450372836
0.166321338939
0.167171726745
0.167995811483
0.168787139733
0.1695384902
0.170242598026
0.170893289372
0.171485455686
0.17201262703
0.172464607301
0.172831154338
0.173126992148
0.17338574056
0.173579550198
0.173700344109
0.173744751883
0.173722607723
0.17365049625
0.173551565015
0.173445278838
0.173248334895
0.172958318105
0.172654730448
0.172345775167
0.171947549762
0.171469069555
0.171114652983
0.170951538992
0.17093279487
0.170965730359
0.170995824326
0.171021580569
0.143891874504
0.143905792343
0.14393172022
0.143975866744
0.144036764235
0.144088194022
0.14414987562
0.144227243764
0.144304046931
0.144414811384
0.144553957593
0.144708397668
0.144875120154
0.145045956901
0.145223178003
0.145419408199
0.145636769271
0.145865464545
0.146111322203
0.146381144918
0.146681232537
0.147017683494
0.147400973495
0.147817365926
0.148262596909
0.148763177081
0.149293196591
0.149847374036
0.150445890674
0.15106644332
0.15170746194
0.152362595475
0.153028124852
0.153714462238
0.154425779607
0.15516334289
0.155926680269
0.156715247302
0.157528405479
0.158365175513
0.159224397793
0.160104156738
0.16100121468
0.161911218669
0.162829092436
0.163749328806
0.164666337039
0.16557464865
0.166468884766
0.167343656017
0.168193408667
0.169012254796
0.169794158113
0.17053360582
0.171225682763
0.171863554851
0.172436432931
0.172933177308
0.173331278014
0.173659472077
0.174012431092
0.174260683352
0.174388102113
0.174394012465
0.174301834318
0.174138079587
0.173935537873
0.173757187323
0.173557003043
0.173242939259
0.172906762126
0.172591895191
0.17203098741
0.171151188372
0.170600316682
0.17046918105
0.170584847973
0.170727327611
0.170801462753
0.170865951276
0.143708307928
0.143719293388
0.14373620879
0.143785503602
0.143847973797
0.143908005448
0.14397443352
0.14405979147
0.144145008543
0.144255458686
0.144400049279
0.144557711509
0.144724477048
0.14489445632
0.145081843128
0.145288761392
0.145506093673
0.145732848526
0.145977918375
0.14624655617
0.146543013904
0.146873210331
0.147257687503
0.147695306955
0.148147870554
0.148638048799
0.149179694433
0.149740759817
0.150332149079
0.150957139936
0.151600970696
0.152255472319
0.152924611002
0.153619477112
0.154340612496
0.155088232417
0.155862305801
0.156662520711
0.157488523853
0.158339454391
0.159214281476
0.160111382127
0.161027478329
0.161957823042
0.162897146543
0.163840150128
0.164781521434
0.16571581593
0.166637456395
0.167540953485
0.168421090598
0.169273089134
0.170093018814
0.1708777451
0.171622182522
0.172313685596
0.172943926518
0.173527870829
0.173971769334
0.174335534023
0.175005532483
0.175327600735
0.17542003836
0.175326633388
0.175094011679
0.174769135602
0.174391105576
0.174052457935
0.173780932159
0.173473108622
0.173174985118
0.173145013857
0.172309517408
0.170617918326
0.169725678737
0.169709949531
0.170153497049
0.170512915896
0.170602231108
0.170752721997
0.143503569259
0.1435162246
0.143538480991
0.143576892786
0.143633990579
0.143699877222
0.143772390354
0.143862427202
0.143961029107
0.144075109096
0.144224259073
0.144385019496
0.144553420505
0.144723460586
0.144914428529
0.145131502147
0.145353645605
0.145582621684
0.145828876743
0.146098071992
0.146393251645
0.146718107297
0.147098122291
0.147548273121
0.148017597752
0.148506168045
0.149051523443
0.149621978073
0.150210304256
0.150832866664
0.151473160614
0.152129274371
0.152809024605
0.153514447344
0.154246233858
0.155004988088
0.155791058959
0.156604086825
0.157443962008
0.15831040686
0.15920247734
0.160118563521
0.161055520971
0.162008449471
0.162971934582
0.163940973662
0.164910661476
0.165875495793
0.166829441182
0.167766766225
0.168682783957
0.169574579837
0.170441379164
0.171282496773
0.172088199364
0.172837218649
0.173571982667
0.174374237397
0.174734506695
0.174661563669
0.174857101468
0.175091513769
0.175179930465
0.175100525071
0.174897641698
0.174614084054
0.174289835556
0.173973419537
0.173698814351
0.1734987265
0.173530882279
0.174178758436
0.173977109809
0.168955918643
0.167315107353
0.168131456144
0.169639304159
0.170449130948
0.170391816166
0.170767468896
0.143272777679
0.143287178491
0.143320036286
0.143348638148
0.143399309211
0.143467154839
0.143544725051
0.14364096881
0.143755549973
0.143872975701
0.144025680246
0.144190034793
0.14436181006
0.144535453996
0.144729437649
0.144951842024
0.145179321401
0.145413173423
0.145662680649
0.145933673894
0.146229671365
0.14655316409
0.146924856552
0.14737365453
0.147868438465
0.148366461204
0.148901154137
0.149486951156
0.150085512752
0.150694435964
0.151329583934
0.151991386562
0.152680887579
0.153397710458
0.154141527192
0.154912726578
0.155711847968
0.156539090101
0.157394320345
0.158277522205
0.159188391481
0.160125391587
0.161085277515
0.162063069529
0.163053444985
0.164051993652
0.165054464444
0.166055222645
0.167047287176
0.168024257353
0.168982368651
0.169921660955
0.170845222011
0.171752821863
0.172622133521
0.173421569151
0.174059663196
0.174265565161
0.174490467037
0.174673396142
0.174795679342
0.17495740232
0.175026730828
0.174948804589
0.174747413966
0.174458756983
0.174118217015
0.173764202352
0.173430775146
0.173121994718
0.172833825672
0.172448770732
0.170656150072
0.1685755091
0.168270581944
0.169282439092
0.170797464041
0.171729693962
0.169602712202
0.171017993643
0.143011307982
0.143025362816
0.143057698461
0.143088871425
0.143137578244
0.143207590188
0.143288324186
0.143386098218
0.143516100941
0.143645900161
0.143802109182
0.143971093749
0.144148206467
0.144328510461
0.144527454342
0.144753171954
0.144985081847
0.145224696915
0.145478761742
0.145752629231
0.146050234715
0.146374789045
0.146741128842
0.14718303249
0.14769486769
0.148212593446
0.148741193002
0.149321176009
0.149930690269
0.150545952694
0.151178014261
0.15184261905
0.152540650111
0.15326910252
0.154025805321
0.154810448744
0.155623866177
0.156466517955
0.157338639132
0.15824026392
0.159171505813
0.160131349238
0.161116496693
0.162121612333
0.163141482713
0.164172975066
0.165213297216
0.166256424571
0.167293102442
0.168315928518
0.169323196607
0.170318953622
0.171310384451
0.172303237852
0.173216146777
0.173580908525
0.173851243723
0.174115813161
0.174336507395
0.174504724109
0.174604152138
0.174682332802
0.174681561021
0.174558726833
0.174321702279
0.173997090692
0.173613275608
0.173197421055
0.172769335078
0.172319349865
0.171784911615
0.171062936341
0.169920527235
0.168847874376
0.168511105068
0.169028324752
0.16994749346
0.170307817429
0.171353457745
0.172912033851
0.142720974323
0.142734408573
0.142768510868
0.142800967471
0.142850979723
0.142922337017
0.143005899084
0.143102022028
0.143236281006
0.143383954576
0.143548948835
0.143724492536
0.143909070221
0.14410034595
0.144305484031
0.144534764496
0.144771178115
0.145017269273
0.145276786549
0.145554566435
0.14585454213
0.146180491643
0.146543961929
0.14697713366
0.147491344763
0.148038295329
0.148578499363
0.149146611634
0.149752026016
0.150370876234
0.151007642729
0.151679885998
0.152387457687
0.153127621888
0.153897935981
0.154697354472
0.155526212468
0.156385583025
0.157275998138
0.158197787654
0.15915120648
0.160135749646
0.161148575272
0.162183887312
0.163236049198
0.164303669574
0.165386732705
0.166478964742
0.167567503539
0.168643335014
0.169707370208
0.170768295203
0.171844046488
0.172861658862
0.17310538208
0.173363823515
0.173654476414
0.17390373773
0.174091850684
0.174218767637
0.174278199833
0.174277430176
0.174193764386
0.174002593091
0.173704317437
0.173315560798
0.172856629018
0.172345829469
0.171793754975
0.171198206145
0.170496494553
0.169645381385
0.168642834959
0.167678223432
0.167203607803
0.167441356143
0.168256034222
0.169472624695
0.171546602613
0.173823552725
0.142404540098
0.14241641048
0.142446345003
0.142483491064
0.142539749061
0.142612937349
0.142701174828
0.142797752354
0.142932721576
0.14309202109
0.143265405586
0.143447337618
0.143638223293
0.143844181322
0.144059597438
0.144293058624
0.144534952986
0.144789250749
0.145055654712
0.145338557384
0.145641903186
0.145969632026
0.146331799302
0.146757829689
0.147267740525
0.147834380106
0.148398081705
0.148964411833
0.149560191672
0.150176951178
0.150820121662
0.15150087569
0.152218794242
0.152970968568
0.153755786305
0.154571616592
0.15541772379
0.156295135666
0.157205478891
0.158149077374
0.159126521477
0.160138056359
0.1611812769
0.162249801853
0.163336293801
0.164441923387
0.165574038156
0.166725678933
0.167873091771
0.169008100401
0.17013463515
0.171274002179
0.172352597386
0.17263234076
0.172894002506
0.173146348263
0.173397068221
0.173600887794
0.173737093624
0.173800198562
0.173784874362
0.173688782232
0.173501566063
0.173210576922
0.172814588376
0.172323274674
0.171750010383
0.17110655798
0.170398860496
0.169626307609
0.168740250731
0.167701733517
0.166556537582
0.165467673728
0.164732152862
0.164549589077
0.164974274717
0.166072342192
0.168380659991
0.17039459508
0.142065757828
0.14207633846
0.142100550542
0.142142977212
0.142204731203
0.142279647754
0.142371942049
0.142473561924
0.142606896925
0.142773210335
0.142952903271
0.143140140695
0.143334648037
0.14355069435
0.143782508063
0.144023434066
0.144272083168
0.144535942652
0.14481224221
0.145102552859
0.145411129335
0.145741288214
0.146103600915
0.146524457884
0.147024959251
0.147592975543
0.148181585784
0.148763369001
0.149358259768
0.149973743593
0.150618146661
0.151305621023
0.152033861765
0.152797273427
0.153597814089
0.154431668868
0.155295962886
0.156193274157
0.157125481759
0.158093259523
0.159096935408
0.160137192316
0.161212713064
0.162318209629
0.163447150716
0.164600688161
0.165784516554
0.166989002369
0.168198413534
0.169409117131
0.170607638556
0.171765280161
0.172085024718
0.172368105884
0.172628745269
0.172858095871
0.173051544144
0.173186471625
0.173244327628
0.173216874481
0.173099366636
0.1728881431
0.172577268728
0.172160163664
0.171635530138
0.171008228353
0.170285517499
0.169472994137
0.168571273183
0.167573145919
0.16646352273
0.165177690381
0.163729295002
0.162253950593
0.160906413478
0.159778159727
0.158850098666
0.157930658827
0.156540266229
0.153637989999
0.14170625768
0.141716743762
0.141739581386
0.141786881154
0.141849468003
0.141923789659
0.142015424458
0.142123877847
0.14225554356
0.142426537
0.142611794793
0.142804363662
0.14300360544
0.143224280391
0.14347060558
0.143723157047
0.143981020418
0.144254365613
0.144541849995
0.144842773816
0.145159962929
0.145494138907
0.145857886556
0.146276347244
0.146768347185
0.147331100684
0.147932562212
0.148533010365
0.149130894639
0.149747394915
0.15039936826
0.151092134264
0.151828600098
0.152604992656
0.153422109456
0.15427478955
0.155159094039
0.156078102569
0.157033989096
0.158027959827
0.159060527432
0.160132649996
0.161245335881
0.162396704804
0.163577348784
0.164777535167
0.166002461543
0.167257374541
0.168544974757
0.169868534191
0.171123812009
0.171472001117
0.171769035563
0.172052678716
0.172289771063
0.172470407138
0.172588972012
0.172632193641
0.172586569796
0.172444307867
0.172201038161
0.171853333458
0.171397197146
0.170828592192
0.170145734627
0.16934960979
0.168441924947
0.167422287954
0.166285777517
0.165021015606
0.163615080977
0.161983467129
0.160070562219
0.157935873249
0.155600747591
0.152975100157
0.149817426436
0.145770209867
0.140701680076
0.139478706994
0.141322686401
0.141333758306
0.141357872167
0.141410320007
0.141473160764
0.141546108488
0.141634506994
0.141747690515
0.141876004239
0.142050031659
0.142241044376
0.142439275867
0.14264456876
0.142871273341
0.14312744625
0.143392088577
0.143661302949
0.143945001907
0.144242939055
0.144555695695
0.144885012761
0.145225982429
0.145592246149
0.146010621863
0.146496487218
0.147051825333
0.147656644995
0.148270663739
0.148883010195
0.149504802239
0.150163302053
0.150863772844
0.151606388449
0.152390587326
0.153221724432
0.154096347983
0.155004442095
0.155947817732
0.156929156564
0.157951103938
0.15901558461
0.160124393588
0.161282850768
0.162488457371
0.163717646636
0.164956421194
0.166219924051
0.167537855698
0.168949002299
0.170469644152
0.170833170002
0.171121601968
0.171416608308
0.171669751252
0.171854054651
0.171960942906
0.171984057857
0.171914484286
0.171743389767
0.171464805556
0.171075017078
0.170571028902
0.169949576117
0.169207103766
0.168340442784
0.167346763529
0.166222140271
0.164959314852
0.16354526514
0.161958581766
0.160167218153
0.15811297627
0.155636820714
0.152637649074
0.14900744951
0.144377397438
0.137919527264
0.127810439568
0.108862585801
0.0628636440227
0.140907111784
0.140918724917
0.140946331461
0.141004637096
0.141068703728
0.141141036887
0.141228544888
0.141343595858
0.141467985937
0.141642531776
0.141839055548
0.142043052406
0.142254627225
0.142487684898
0.142751839212
0.143028102099
0.143311189983
0.143606635601
0.14391462268
0.144238893209
0.144582744871
0.144934311924
0.145303885782
0.145723580191
0.146206583421
0.146754193251
0.147355529795
0.147972757583
0.148603023288
0.149243989003
0.149908675532
0.150612245415
0.15136414425
0.15216176513
0.153001844946
0.153893031454
0.154826810846
0.155797733628
0.156808588811
0.15786137173
0.158960121489
0.160113241177
0.161329831244
0.162592664
0.163865400792
0.165143013376
0.166457985007
0.167866799137
0.169322411453
0.170246164776
0.170528176027
0.170764543448
0.171009920328
0.171200653714
0.171304319875
0.171312124267
0.171218139172
0.171016180527
0.170700730309
0.170267711583
0.169714147383
0.169037232951
0.168233560699
0.167298773707
0.166227463193
0.165012667333
0.163644532793
0.162108238099
0.160381374633
0.158430712107
0.156207485862
0.15364732391
0.150547010229
0.146620454073
0.141615738188
0.134964480019
0.125444555132
0.110633240335
0.0856287492865
0.0439718466126
0.140448357695
0.140460460417
0.140491541315
0.140556177505
0.140621478855
0.140696995919
0.140785807245
0.140901199822
0.141025374839
0.141201648478
0.141403885466
0.141613673328
0.141831470094
0.142070502024
0.142341013077
0.14262665257
0.142926004933
0.143235628835
0.143554511593
0.143890033344
0.144248863037
0.144616179411
0.144991170164
0.145411523186
0.145894695093
0.146436990679
0.147033304691
0.147648805463
0.148285946212
0.148949925474
0.149635613008
0.150346599321
0.151095629423
0.151901823776
0.152760185138
0.153667932018
0.154624676991
0.15562429261
0.15666686056
0.157754837824
0.158895017801
0.160104958062
0.161386797879
0.162705143732
0.164031231547
0.165379874117
0.166803339337
0.168257563329
0.16944220005
0.169870052488
0.170119022844
0.170336734337
0.170518804834
0.170620503595
0.170619341588
0.170506518845
0.170276747932
0.169926025715
0.169451233509
0.168849854154
0.168119498395
0.167257212577
0.166258797027
0.16511826653
0.163827333057
0.162374570344
0.16074395408
0.158912661171
0.156848020676
0.154503228546
0.151810895802
0.14867212482
0.144944875233
0.140245293244
0.134071868562
0.125866885098
0.114529540081
0.0981698993121
0.0734594997637
0.0393457481101
0.139937507097
0.139952089976
0.139984990512
0.140050217005
0.140120632199
0.140205460567
0.140300387607
0.140419932322
0.140551657199
0.140725714903
0.140933183048
0.141148976718
0.141373210473
0.141618151561
0.141894026306
0.14218530171
0.142497459079
0.142825256702
0.143158395877
0.143507151544
0.143879877419
0.144267006357
0.144656088993
0.145074843671
0.145558050542
0.146097990701
0.146690151093
0.147304154771
0.147941477618
0.148619100863
0.149328415404
0.150059746055
0.150815033544
0.151620617602
0.152487236626
0.15341438858
0.154396145808
0.1554260875
0.156501793695
0.157628699857
0.158823320858
0.160102263085
0.161449894914
0.162831136428
0.164242121794
0.165724042042
0.167222736396
0.168404894639
0.168989210209
0.169324984362
0.169607432756
0.169804954941
0.169908088885
0.169904479113
0.169781241747
0.169531258324
0.169151205423
0.168639369433
0.167994568699
0.167215470336
0.166299994826
0.16524469058
0.164044090054
0.16269006242
0.161171065307
0.159471079844
0.157567991606
0.155431219502
0.153018348072
0.150270297017
0.147104153479
0.143402028515
0.138995199515
0.133611621462
0.126675091924
0.117454788569
0.105108681378
0.0882858820363
0.0645486431023
0.0345018575495
0.139380097883
0.139398758377
0.139432350429
0.139491678065
0.139570496517
0.139665443072
0.139769812767
0.139898299304
0.140044389955
0.140215945969
0.140425787932
0.140647037255
0.140878073293
0.141129460318
0.141411348334
0.141709001453
0.142028440011
0.142372684507
0.142723600068
0.143089375636
0.143476446081
0.143883117289
0.144297266499
0.144725945962
0.14520274882
0.145739193922
0.146327308732
0.146940590407
0.147576316274
0.148258417289
0.148982494048
0.149740112361
0.150514698069
0.151323451128
0.152192206601