/*--------------------------------*- C++ -*----------------------------------*\
| =========                 |                                                 |
| \\      /  F ield         | OpenFOAM: The Open Source CFD Toolbox           |
|  \\    /   O peration     | Version:  v1806                                 |
|   \\  /    A nd           | Web:      www.OpenFOAM.com                      |
|    \\/     M anipulation  |                                                 |
\*---------------------------------------------------------------------------*/
FoamFile
{
    version     2.0;
    format      ascii;
    class       volVectorField;
    location    "511";
    object      Ua;
}
// * * * * * * * * * * * * * * * * * * * * * * * * * * * * * * * * * * * * * //

dimensions      [0 1 -1 0 0 0 0];


internalField   nonuniform List<vector> 
6400
(
(6.56453059212e-05 8.59817081876e-05 0)
(0.000178742907457 6.56151172459e-05 0)
(0.000260793093804 5.37949004714e-05 0)
(0.000351215830614 4.87008862702e-05 0)
(0.00041818619596 3.27005879741e-05 0)
(0.00046739667142 1.99948423186e-05 0)
(0.000494581040037 1.52657936961e-05 0)
(0.000517087586519 2.26578092488e-05 0)
(0.00057921680404 3.22662729433e-05 0)
(0.000643686879002 3.18858560314e-05 0)
(0.000673636200516 2.9237831418e-05 0)
(0.000734175035613 3.1871006402e-05 0)
(0.000790834381314 3.06207003243e-05 0)
(0.000839529904819 2.71999385454e-05 0)
(0.000878741459491 2.58169686092e-05 0)
(0.000920816791364 2.87479391324e-05 0)
(0.000972538319384 3.01415167557e-05 0)
(0.00101958955123 2.82231852273e-05 0)
(0.00105789330743 2.49926951709e-05 0)
(0.00109531605918 2.39369081546e-05 0)
(0.00114208933808 2.94433449796e-05 0)
(0.00119899287045 3.55116224636e-05 0)
(0.0012601993388 3.74137510059e-05 0)
(0.00131818768007 3.73483115404e-05 0)
(0.00137444886105 3.60092607578e-05 0)
(0.00142975565862 3.42998301093e-05 0)
(0.00148607806134 3.40833778436e-05 0)
(0.00154074039864 3.34771078214e-05 0)
(0.00159134359784 3.20495729434e-05 0)
(0.00163840184982 3.09410110629e-05 0)
(0.00168197162998 3.12017600643e-05 0)
(0.00172769883822 3.10550202186e-05 0)
(0.00177507731317 3.0101104215e-05 0)
(0.00182013670515 3.10907095899e-05 0)
(0.00186538546882 3.1816407786e-05 0)
(0.00191810110586 3.25760893858e-05 0)
(0.00196930728085 3.40656973099e-05 0)
(0.00200659263045 3.3429964166e-05 0)
(0.00205571132054 3.20332906977e-05 0)
(0.00211342861439 3.23483824714e-05 0)
(0.00216402581048 3.65349258889e-05 0)
(0.00220336513593 3.65014051236e-05 0)
(0.00223909935724 2.86014115279e-05 0)
(0.00227164044213 2.31313956146e-05 0)
(0.0022978207357 2.08802712912e-05 0)
(0.00231962963819 1.84311037148e-05 0)
(0.00233654642513 1.59518412158e-05 0)
(0.00234704363207 1.26262097829e-05 0)
(0.00235152135761 9.59310940323e-06 0)
(0.00235047568159 1.05461114423e-05 0)
(0.00234953531409 1.60335243567e-05 0)
(0.00236217279727 1.53651634323e-05 0)
(0.0023564453428 -7.70433543137e-07 0)
(0.00234310254009 -8.67299632146e-06 0)
(0.0023077718228 -1.55039033494e-05 0)
(0.00222336097437 -3.03743478238e-05 0)
(0.00213516918152 -2.67671479374e-05 0)
(0.00209108941116 -1.47271028379e-05 0)
(0.0020732535375 -1.99974986658e-05 0)
(0.001977527107 -2.41151140432e-05 0)
(0.00192830501131 -2.93542417997e-06 0)
(0.00185257118454 -1.4863110908e-05 0)
(0.00204521732106 -8.70480342822e-05 0)
(0.00168781569542 -0.000113107270103 0)
(0.00135958347598 -7.91212771256e-05 0)
(0.0012286424079 -5.17491320269e-05 0)
(0.00114872282303 -4.96172764691e-05 0)
(0.0010867190103 -4.90598227866e-05 0)
(0.00102108453624 -5.03900117652e-05 0)
(0.000926958793987 -5.35674928715e-05 0)
(0.000826816592575 -5.49205582032e-05 0)
(0.000711527151932 -5.34945014039e-05 0)
(0.000600221134456 -5.32545823356e-05 0)
(0.000523432501758 -5.71314939839e-05 0)
(0.000388207701276 -4.57284440161e-05 0)
(0.000334423186931 -4.02114253286e-05 0)
(0.000218716075581 -2.49247387459e-05 0)
(0.000223221707776 -3.38082894693e-05 0)
(9.57372336023e-05 -2.36741412692e-05 0)
(7.14902821274e-05 -4.37665814538e-05 0)
(2.51294155273e-05 0.000119981229198 0)
(0.000107494333278 0.000133999536325 0)
(0.000186545220216 0.00012160803383 0)
(0.000237712316431 9.7948967062e-05 0)
(0.000343908972436 9.66792681404e-05 0)
(0.000441876089512 6.93085223294e-05 0)
(0.000501156263966 4.52919868894e-05 0)
(0.000544185321556 5.98145805405e-05 0)
(0.000590812491935 7.82929003044e-05 0)
(0.000643140413813 7.81261123117e-05 0)
(0.000694024241616 7.47689456787e-05 0)
(0.000742137358916 7.47192690059e-05 0)
(0.000788551323442 6.95238055938e-05 0)
(0.000832486175739 6.23289730991e-05 0)
(0.000877629789736 6.03145511185e-05 0)
(0.000923512142007 7.14574713157e-05 0)
(0.000971314015701 7.68150718108e-05 0)
(0.00101328476831 6.15592528093e-05 0)
(0.00102637928626 5.01764238478e-05 0)
(0.00106968542452 5.3046738564e-05 0)
(0.00112644299404 6.92812935733e-05 0)
(0.00118997377677 8.84690891752e-05 0)
(0.00125974526994 9.29979248325e-05 0)
(0.00132199400826 8.64922814957e-05 0)
(0.00136718261114 8.14180592641e-05 0)
(0.00142803612793 8.00160204642e-05 0)
(0.00148697447777 7.75949683745e-05 0)
(0.001539069465 7.357195302e-05 0)
(0.00158828714627 6.95096861722e-05 0)
(0.00163621060363 6.65379256263e-05 0)
(0.00168216578043 6.59866796798e-05 0)
(0.00172062578054 6.45630903794e-05 0)
(0.00176751010066 6.06925786874e-05 0)
(0.00181115341608 6.3916215395e-05 0)
(0.0018529984453 6.86034521973e-05 0)
(0.00191510197295 6.70054788253e-05 0)
(0.00196098667458 6.90482516383e-05 0)
(0.00199902660598 7.12985964208e-05 0)
(0.00205489698139 6.87694931809e-05 0)
(0.00212467932679 6.42712166632e-05 0)
(0.00217801808059 5.55239848138e-05 0)
(0.00215377083346 4.49102278312e-05 0)
(0.0021573083268 3.9004501031e-05 0)
(0.00219527081903 3.61541428745e-05 0)
(0.0022250655171 3.29598272931e-05 0)
(0.00225716583613 2.82718397593e-05 0)
(0.00228854831132 2.14837314565e-05 0)
(0.0023093165394 1.30308137281e-05 0)
(0.00233218508833 4.09575928741e-06 0)
(0.00234566257485 -3.3813796262e-06 0)
(0.0023362219163 -7.31301180077e-06 0)
(0.00228947540247 -1.09517993351e-05 0)
(0.00225111822766 -1.69832807736e-05 0)
(0.00234058264626 -3.54301544992e-05 0)
(0.00228822578106 -7.00567504571e-05 0)
(0.00223516035007 -9.25345871187e-05 0)
(0.00224209950471 -8.59579258463e-05 0)
(0.00221372578965 -7.22347660079e-05 0)
(0.00217078404969 -8.13993189873e-05 0)
(0.00213572676915 -9.42143674716e-05 0)
(0.0021309587441 -0.000103184863384 0)
(0.00181185768882 -0.000111914370849 0)
(0.00200343051779 -0.00025964914717 0)
(0.00166916112754 -0.000336058168459 0)
(0.0013768532772 -0.000272363561788 0)
(0.00116216425109 -0.000184547829337 0)
(0.0010512339385 -0.000133097781933 0)
(0.00103725153304 -0.000121721713054 0)
(0.000979003068035 -0.000134510945335 0)
(0.000907659365467 -0.000156441065771 0)
(0.000800277711011 -0.00016852585044 0)
(0.00068172896433 -0.000164908341189 0)
(0.000557823228228 -0.000144776685751 0)
(0.000497442004564 -0.000140555970663 0)
(0.000420147716909 -0.000130075818662 0)
(0.000351524177932 -0.000117691998244 0)
(0.000282833556877 -9.96767941277e-05 0)
(0.000220786720331 -0.000100958670503 0)
(0.000135913011416 -0.000106183314675 0)
(6.22905561183e-05 -0.000170962079427 0)
(3.608163964e-05 0.000207958768973 0)
(0.000102915746465 0.000224372081206 0)
(0.000158435619885 0.000210016386773 7.32881546693e-29)
(0.000267890003285 0.000213362613341 -6.84760125181e-29)
(0.0003705706589 0.000211912353057 -6.07543523355e-29)
(0.000435190150557 0.000172403226353 5.55218236453e-29)
(0.000482641338052 9.76094608666e-05 -5.58990718874e-29)
(0.000527161933352 0.000106326319422 5.44883242366e-29)
(0.000575944286896 0.000130168465834 0)
(0.000631078233304 0.000134710471624 0)
(0.000685952710235 0.000129436270822 0)
(0.000735682088808 0.000122400416509 0)
(0.000781742940229 0.000113896238539 0)
(0.000824491715722 0.000109026630778 0)
(0.000869426977938 0.000108651027176 0)
(0.000915603194453 0.000104045529799 0)
(0.000860494906488 8.53688300976e-05 0)
(0.000851813577368 7.4645147829e-05 0)
(0.000895517137526 8.59839913017e-05 0)
(0.000973239850157 0.00011895078999 0)
(0.00111537968636 0.000155187381969 0)
(0.00120183874953 0.000165304021354 0)
(0.00124608922688 0.000157388658871 0)
(0.00130767839856 0.000148047079399 0)
(0.00137161000565 0.000142546113981 0)
(0.00142649008255 0.000138978307441 0)
(0.00147912063587 0.000133015154636 0)
(0.00153145290778 0.000126462642153 0)
(0.00158133455261 0.000120739887425 0)
(0.00162776286363 0.000116593102722 1.06834212551e-28)
(0.00167659719422 0.000113147792374 -1.03524090815e-28)
(0.00170920599301 0.000109898113058 0)
(0.0017526633456 0.000106980832315 0)
(0.00181291152266 0.000106902046773 0)
(0.00182596481778 0.000116702180356 0)
(0.00188855530571 0.000124373146139 0)
(0.00196519925787 0.000121841433991 0)
(0.00198279169623 0.000123762729197 0)
(0.00204426247258 0.000130218121324 0)
(0.00212000457071 0.000121655525139 0)
(0.00217489517495 9.34023985429e-05 0)
(0.00220995100606 7.08935512584e-05 0)
(0.0022415816917 6.85138960515e-05 0)
(0.00227270730998 6.90847357332e-05 0)
(0.0022989984824 6.48865380653e-05 0)
(0.00232045877904 5.76817917335e-05 0)
(0.00233762835849 4.6850368247e-05 0)
(0.00235054204082 3.41815680696e-05 0)
(0.00235949151648 1.97108162083e-05 0)
(0.00236406080647 1.6964227222e-06 0)
(0.00236391761149 -1.68012483904e-05 0)
(0.00235895983293 -2.60268282892e-05 0)
(0.00234867097822 -2.31211965797e-05 0)
(0.00231505504779 -4.73898755529e-05 0)
(0.00226178530429 -8.88346897282e-05 0)
(0.00225550769595 -0.000105169626574 0)
(0.00223875151652 -0.00010594236213 0)
(0.00219883236311 -0.000109653496582 0)
(0.00215013265164 -0.000120403523586 0)
(0.00209951022442 -0.000142912991722 0)
(0.00202521127449 -0.000201504983851 0)
(0.00193706631657 -0.000275151530413 0)
(0.0018947008523 -0.000498247781302 0)
(0.00149980982492 -0.000569668397911 0)
(0.00116957209287 -0.000408906897925 0)
(0.00108464916333 -0.000289242001203 0)
(0.0010434573612 -0.000222787392025 0)
(0.000971841836225 -0.000198850761199 0)
(0.00090041378059 -0.000219104402958 0)
(0.000816299455449 -0.000250833898083 0)
(0.000713616280299 -0.000262295441072 0)
(0.00061876872661 -0.000247940514057 0)
(0.000557880499209 -0.000229235278802 0)
(0.000497235612604 -0.000222097307786 0)
(0.000417455192165 -0.000214364272793 0)
(0.000335892980529 -0.000196002371336 0)
(0.000260203061829 -0.000174669572809 0)
(0.000197760732797 -0.000184554324533 0)
(0.000135883725302 -0.000236247723425 0)
(3.47443300134e-05 -0.000233517651708 0)
(3.44706377424e-05 0.000307792502371 0)
(4.92205250158e-05 0.00020964911 0)
(0.000128382825563 0.00031572033104 0)
(0.00023022413391 0.00031648636781 0)
(0.000319885146027 0.000271280578316 0)
(0.000189154242156 0.000109701009471 0)
(0.000238694304222 0.000113039838119 0)
(0.000440737170263 0.00020282667838 0)
(0.000538972121553 0.000213722729011 0)
(0.000606845882851 0.000198508431934 0)
(0.000670376335168 0.000186454464955 0)
(0.00072516308332 0.000172292649314 0)
(0.000773064904652 0.000158895837344 0)
(0.000809565812623 0.000139054813756 0)
(0.000784773982531 0.000108444008466 0)
(0.000760919722791 8.7108264971e-05 0)
(0.000775983418233 8.7724120215e-05 0)
(0.000838826944114 0.000121080722015 0)
(0.000960925012947 0.000177090375511 0)
(0.00107854434146 0.000229433774599 0)
(0.00113188409265 0.000240253402349 0)
(0.00118760112112 0.000228462864636 0)
(0.00124934394535 0.00021714813476 0)
(0.00130728105562 0.000208478365428 0)
(0.00136228768936 0.000199561223784 0)
(0.00141519476897 0.000191055302796 0)
(0.00146649166492 0.000183513820513 0)
(0.00152153595931 0.000176150163292 0)
(0.00156814802039 0.000168462518015 0)
(0.00162135025667 0.000162587799532 0)
(0.00165662532426 0.000156447558265 0)
(0.00170906161592 0.000150868719186 0)
(0.00172826533509 0.000142985986147 0)
(0.00177827120681 0.000148937550352 0)
(0.00185406504038 0.000165112070724 0)
(0.0018759618201 0.000177091596045 0)
(0.00195027864152 0.000181487652843 0)
(0.00202750071992 0.000183551543325 0)
(0.00207864106465 0.000185266890911 0)
(0.00212474313229 0.000170111733293 0)
(0.00216918772913 0.000139901462561 0)
(0.00220816156075 0.000113569738871 0)
(0.00224301346147 0.000101092252056 0)
(0.00227429778221 9.42840738906e-05 0)
(0.00230050688102 8.56879684584e-05 0)
(0.00232183937976 7.4093265386e-05 -9.77838426063e-29)
(0.00233876604556 5.95866112846e-05 9.85181964421e-29)
(0.0023513637903 4.28525482026e-05 0)
(0.0023596712813 2.40022942086e-05 0)
(0.0023634172049 3.10992950305e-06 0)
(0.00236195672376 -1.73826214214e-05 0)
(0.00235367105444 -3.46979002839e-05 0)
(0.00233629689276 -5.38089707174e-05 0)
(0.00230781719268 -8.45066779222e-05 0)
(0.00227602298892 -0.000113373493551 0)
(0.00224801521986 -0.000130345012789 0)
(0.00221413584521 -0.000145361656043 0)
(0.00216581757961 -0.00016260319255 -2.0026147196e-28)
(0.00210249590165 -0.000187176883663 2.34421396718e-28)
(0.00202011252039 -0.000231062912183 0)
(0.00190627431868 -0.000310143062963 0)
(0.00176001580368 -0.00044676466296 0)
(0.00160654024173 -0.000680490064215 0)
(0.00142996991808 -0.00078773914488 0)
(0.00124335982181 -0.000614913895302 0)
(0.00102852134247 -0.000376849818097 0)
(0.000941899386583 -0.000288308390301 0)
(0.000883129032495 -0.000274900996409 0)
(0.000820621740718 -0.000299466153745 0)
(0.000763420893048 -0.000342582657109 0)
(0.000687402819447 -0.000358430343193 0)
(0.000608059369301 -0.000338932337074 0)
(0.000526821723444 -0.000314576444109 0)
(0.000424107337601 -0.00029206226646 0)
(0.000347009066997 -0.000284668453049 0)
(0.000275452408585 -0.000280028816563 0)
(0.000197482713016 -0.000254846979037 0)
(0.000114855815358 -0.000207742639672 0)
(8.36699216011e-05 -0.000263074356403 0)
(2.79133511366e-05 -0.000303126208159 0)
(2.98942568974e-06 0.00030815277735 0)
(2.5577547452e-05 0.000255248606165 0)
(0.000113632310294 0.000410856461826 0)
(0.000194384592143 0.000382363201593 0)
(0.000212680322435 0.000257067556075 0)
(0.000171521881149 0.000147450111914 0)
(0.000292735510746 0.00023998697439 0)
(0.00043863278011 0.000329896391803 0)
(0.000500955937822 0.000300581355189 0)
(0.000575469285617 0.000269592556986 0)
(0.000643852337286 0.00025305649176 0)
(0.000702826567818 0.000229070459566 0)
(0.000719674366159 0.000178204087002 0)
(0.00067568019451 0.000121948251097 0)
(0.000698560950036 0.00010643688731 0)
(0.000752876505597 0.000122324765542 0)
(0.000840123507796 0.000165207225163 0)
(0.000945449108253 0.000226796552375 0)
(0.00102537916291 0.000273107697419 0)
(0.00106290865396 0.00028485101096 0)
(0.00111723004972 0.00028977016939 0)
(0.00118126578467 0.000288635149365 0)
(0.00123890225033 0.000277811495788 0)
(0.0012950868699 0.000264607639346 0)
(0.00134876010505 0.000252695612806 0)
(0.00139967890954 0.000243431467924 0)
(0.00145568965441 0.000235068989475 0)
(0.00150035200348 0.000225341832848 0)
(0.00155988401407 0.0002171196643 0)
(0.0015927204213 0.000206449499199 0)
(0.00165472391714 0.000199953791536 1.02404278501e-28)
(0.00165804467123 0.000188380096227 -9.69079771771e-29)
(0.00172949245667 0.000191516090335 0)
(0.00179875024179 0.000201052342135 0)
(0.00182860932189 0.000216275040141 0)
(0.00191267855143 0.000239676254249 0)
(0.00197574705342 0.000250597291356 0)
(0.00203069445359 0.000243648358567 0)
(0.00207935979795 0.000230055742234 0)
(0.00212439620282 0.000209823415112 0)
(0.00216808092959 0.000181744637084 0)
(0.00220861412494 0.000154732697457 0)
(0.00224495633996 0.000135946413482 0)
(0.00227665477849 0.000122211161583 0)
(0.00230309018873 0.000108277288365 0)
(0.0023245357181 9.20974922576e-05 0)
(0.00234133100986 7.33381316056e-05 0)
(0.00235350298303 5.22316822764e-05 0)
(0.00236086590225 2.88189892873e-05 0)
(0.0023629726283 3.3089892049e-06 0)
(0.00235898697413 -2.31037700382e-05 0)
(0.00234736298596 -4.97396156792e-05 0)
(0.00232650997821 -7.90628865953e-05 0)
(0.00229655646674 -0.000112829705713 0)
(0.00226190261234 -0.000144273194632 0)
(0.00222451243082 -0.000170700916194 0)
(0.00217715734812 -0.000198741518342 0)
(0.00211111088448 -0.000234287856461 0)
(0.00202025865587 -0.000284331691591 0)
(0.00189857697604 -0.000360178060307 0)
(0.00174461139444 -0.000472726484887 0)
(0.00157916325149 -0.000627859578609 0)
(0.00142145727019 -0.000813633217429 0)
(0.00135261727143 -0.000914808020934 0)
(0.0012344293899 -0.000773683362 0)
(0.0010402277216 -0.000533815647979 0)
(0.000919123508082 -0.000408436396978 0)
(0.00082075202758 -0.000362579356792 0)
(0.000742561081199 -0.00037003126276 0)
(0.000684692533028 -0.000408049968755 0)
(0.000627639496016 -0.000437903841072 0)
(0.000547725302797 -0.000427545897941 0)
(0.000440093511912 -0.000386939970205 0)
(0.000363472197338 -0.000372560251284 0)
(0.000290949856625 -0.000371815935226 0)
(0.000217434958015 -0.000363457413051 0)
(0.00014582808476 -0.000306167493013 0)
(9.34255565738e-05 -0.000264679641992 0)
(5.91880148425e-05 -0.000327808593919 0)
(1.50174839064e-05 -0.000338375446251 0)
(-1.11295613905e-06 0.000288260412088 0)
(2.99619235871e-05 0.000309213013837 0)
(0.000112224834709 0.00046740739399 0)
(0.000159252041106 0.000396801984699 0)
(0.000122569607003 0.000203276425731 0)
(0.00017021322347 0.000210645579062 0)
(0.000353902348687 0.000381011867606 0)
(0.00041473864274 0.000397959425096 0)
(0.000470738576857 0.000368371326173 0)
(0.000538131070186 0.000342041855211 0)
(0.000606594103374 0.0003053024607 0)
(0.000580515275958 0.000224948751405 0)
(0.000539676708124 0.000148889532547 0)
(0.000587862601627 0.000138582766087 0)
(0.000651789134177 0.00016252352546 0)
(0.000762916632714 0.000215184520521 0)
(0.000876886126824 0.000270954917344 0)
(0.000956778183216 0.000303816627795 0)
(0.000983352037062 0.000311335488504 0)
(0.00104267060631 0.000333131590857 0)
(0.00111113142001 0.000350857509458 0)
(0.00116758570986 0.00034746657771 0)
(0.00122269020083 0.000334603037629 0)
(0.00127637447588 0.000320060791694 0)
(0.00133453720177 0.000307507646328 0)
(0.00138551234386 0.000293556042155 0)
(0.00142150857593 0.00028346085812 0)
(0.00149270002743 0.000277334119467 0)
(0.00151519632749 0.000260562117798 0)
(0.0015917635359 0.00025020130555 0)
(0.00157851052051 0.000231632712629 0)
(0.00166889977151 0.000238985309308 0)
(0.00166934803642 0.000240292894201 0)
(0.00176685279139 0.000261538878386 0)
(0.00186139900898 0.000289786355703 0)
(0.00192611843346 0.000308612730273 0)
(0.00198018864329 0.000306591302985 0)
(0.00203083864119 0.000293464454129 0)
(0.0020786636511 0.000275187222845 0)
(0.00212446113473 0.000252050455626 0)
(0.00216850458547 0.000223848860474 0)
(0.00220980489104 0.000195319031103 0)
(0.0022470918907 0.000171270674825 0)
(0.00227939198948 0.000150989171473 0)
(0.00230633269825 0.0001312619268 0)
(0.00232805765986 0.0001100472054 0)
(0.00234480682702 8.6591812493e-05 0)
(0.00235643102028 6.06747631685e-05 0)
(0.00236246880143 3.21077661315e-05 0)
(0.00236229593998 8.94048877179e-07 0)
(0.00235502351847 -3.25563250873e-05 0)
(0.00233938784725 -6.81292097691e-05 0)
(0.00231441422415 -0.000106387223082 0)
(0.00228052629 -0.000146451149412 0)
(0.00223933208824 -0.000185408501552 0)
(0.00218912401426 -0.000224945984227 0)
(0.00212227278384 -0.000272129298887 0)
(0.00203038656341 -0.000333632972189 0)
(0.00190911869065 -0.000415082279852 0)
(0.00175826769056 -0.000519426370114 0)
(0.0015918029252 -0.000646063932106 0)
(0.00143692775221 -0.000782608309677 0)
(0.00124127047408 -0.000870030520717 0)
(0.00128728457274 -0.00103847439274 0)
(0.00109143680811 -0.000870516160761 0)
(0.000936424407486 -0.00063791643039 0)
(0.000849405663408 -0.000522001015652 0)
(0.000752273612026 -0.000457636383473 0)
(0.000664329904725 -0.000439852998972 0)
(0.000615313134097 -0.000481464788203 0)
(0.000560431596093 -0.000525237742917 0)
(0.000461554083847 -0.00049350124026 0)
(0.000379046010419 -0.000460029520894 0)
(0.000312187008087 -0.000456956898549 0)
(0.000235068655673 -0.000452315826959 0)
(0.000173401459545 -0.000430844991621 0)
(0.000113658475797 -0.000345613768466 0)
(7.18882039995e-05 -0.00030921416845 0)
(4.2360243409e-05 -0.000366246068249 0)
(1.17733009273e-05 -0.000364455515038 0)
(9.58518039096e-06 0.000312289763354 0)
(6.46571739317e-05 0.000399217788584 0)
(0.000141804101609 0.000507051607848 0)
(0.000160363055364 0.000477396024297 0)
(0.000113193690834 0.00025555946155 0)
(0.000237341760003 0.000365260504175 0)
(0.000354687721987 0.000460605644343 0)
(0.000390706166397 0.000447708654683 0)
(0.000443506676706 0.000421817192688 0)
(0.000483717090765 0.000392834973873 0)
(0.000566900552218 0.000340916079063 -2.55358919396e-28)
(0.000455715017594 0.000192188429149 1.57820362374e-28)
(0.000522677168365 0.000182519739486 0)
(0.000566840105219 0.000200588371797 0)
(0.000667326084754 0.000258827127698 0)
(0.000792343680666 0.00033197896483 0)
(0.000876178239916 0.000357351826799 0)
(0.000888660495794 0.000340364707493 0)
(0.000953651009632 0.000362723250655 0)
(0.00103500976593 0.000399983763542 0)
(0.00109059700083 0.000410133626308 0)
(0.00114789414739 0.000403780786634 0)
(0.00120468489714 0.00039118524727 0)
(0.00126000380603 0.000374650047915 0)
(0.00130654787185 0.000355252899247 0)
(0.00134576484152 0.000337734694628 0)
(0.00141334977245 0.000331889744658 0)
(0.00142445584911 0.000319822609084 0)
(0.00151691304499 0.000310078812936 0)
(0.00149517262402 0.000274027848703 0)
(0.00159416883537 0.000280328163305 0)
(0.00159986654692 0.000286363058106 -9.47445024734e-29)
(0.00169711619284 0.000308454864551 9.74187623124e-29)
(0.00176790304769 0.00034237094472 0)
(0.00186978772398 0.000370656637524 0)
(0.00192870225547 0.00037074488559 0)
(0.00197913491161 0.000358622245233 0)
(0.00202889716875 0.000341628986671 0)
(0.00207792718931 0.000320879709322 0)
(0.00212511244922 0.00029579205668 0)
(0.0021699195283 0.000266445483915 0)
(0.00221194118297 0.000235749818558 0)
(0.00225000686522 0.00020701585132 0)
(0.00228302233286 0.000180654717909 0)
(0.00231058576472 0.000154961292436 0)
(0.00233273059227 0.000128256431065 0)
(0.00234945491025 9.95059891613e-05 0)
(0.00236032678321 6.80524080599e-05 0)
(0.00236463727111 3.34120191645e-05 0)
(0.00236164459595 -4.65062434162e-06 0)
(0.00235048539634 -4.60912106483e-05 0)
(0.00233010627969 -9.0764673722e-05 0)
(0.00229973184677 -0.000138332085798 0)
(0.00225913815622 -0.000187915356383 0)
(0.00220742398161 -0.000239695689411 0)
(0.0021403541247 -0.000298181456254 0)
(0.00205028750275 -0.000370287629872 0)
(0.00193181810639 -0.000459779682888 0)
(0.00178821579157 -0.000565219837926 0)
(0.00163407698223 -0.000681275322747 0)
(0.00148566412105 -0.000799680388865 0)
(0.00135434650832 -0.000910786984712 0)
(0.00125451999342 -0.0010187081418 0)
(0.00120695129089 -0.00112751568881 0)
(0.00104132671623 -0.00099731128844 0)
(0.00081837087641 -0.000713348078176 0)
(0.00077034158361 -0.000613968924273 0)
(0.000696110771639 -0.000558734986485 0)
(0.000613422077098 -0.000534964334642 0)
(0.000551616928443 -0.00056565646143 0)
(0.000484368747248 -0.000587280015024 0)
(0.000400481910738 -0.000552670795509 0)
(0.000336153012118 -0.000543118753749 0)
(0.000259454216261 -0.000538796973554 0)
(0.000187994466399 -0.000526161257878 0)
(0.000132903749244 -0.000465870860502 0)
(9.01435114055e-05 -0.00039748433075 0)
(4.50481338396e-05 -0.000348108988559 0)
(2.20497133061e-05 -0.000387799896897 0)
(7.80614813343e-06 -0.000391598925712 0)
(1.99257431463e-05 0.000361842975457 0)
(8.91750908271e-05 0.000482453883635 0)
(0.00015519824776 0.000526509252813 0)
(0.000101196151121 0.000329002727174 0)
(0.000116288164921 0.000315872493186 0)
(0.000266875409562 0.000495451779186 0)
(0.000321209224116 0.000508529277671 0)
(0.000369247591257 0.000495919958444 0)
(0.000400471058113 0.000460142646464 0)
(0.000456338897917 0.000431818545777 0)
(0.000382828745006 0.00027183179863 0)
(0.000437566777257 0.000227086851542 0)
(0.000498308430991 0.00023607182004 0)
(0.000554969424699 0.000275561890071 0)
(0.000695545164022 0.000372726014338 0)
(0.000790653091663 0.000417588848093 0)
(0.000795608149726 0.000386756441074 0)
(0.000850952174425 0.000392672805236 0)
(0.00094384213798 0.000438777139428 0)
(0.00101202003752 0.000464653765825 0)
(0.00106484657153 0.000466026724479 0)
(0.00111869927154 0.000458389346001 0)
(0.00117918485151 0.000448831239655 0)
(0.00123362009553 0.000430319567855 0)
(0.00129226427875 0.000403462590321 0)
(0.00131399658923 0.000385959090856 0)
(0.00139397341572 0.000379899806606 0)
(0.00141904962521 0.000360879384245 0)
(0.00143321060907 0.000337635518236 0)
(0.00149042284099 0.000330639809215 0)
(0.00160103858954 0.000343292625562 0)
(0.0016177056596 0.000342168338322 0)
(0.0016696579841 0.00037935242641 0)
(0.00180303083921 0.000431455507277 0)
(0.00186671246369 0.000442669138179 0)
(0.00192252914893 0.000428719783208 0)
(0.00197537661634 0.000410378057524 0)
(0.00202659749224 0.000390764517605 0)
(0.00207716458743 0.000368174093098 0)
(0.00212604295484 0.00034118302617 0)
(0.00217213085275 0.000309922226049 0)
(0.00221502947312 0.000276470978011 0)
(0.00225396905809 0.000243257334043 0)
(0.00228790362828 0.000211137893469 0)
(0.00231628305484 0.000179391555487 -9.43661268545e-29)
(0.00233897077827 0.000146748866097 9.41521922722e-29)
(0.0023556560862 0.000111982020861 0)
(0.00236558420524 7.4065641773e-05 0)
(0.00236782955982 3.22740663465e-05 0)
(0.00236157945724 -1.37859205097e-05 0)
(0.00234595740741 -6.42214092403e-05 0)
(0.00231996421289 -0.000118920819163 0)
(0.00228267237915 -0.000177595057865 0)
(0.00223278678476 -0.000240511647858 0)
(0.0021674016632 -0.000310300554975 0)
(0.00208094706793 -0.000392535125441 0)
(0.0019675349923 -0.00049142718437 0)
(0.00182835276789 -0.000603488748584 0)
(0.00167713719199 -0.000719223547711 0)
(0.00153207937566 -0.000830524005027 0)
(0.00140167670412 -0.000929725483402 0)
(0.00129353672727 -0.00101618386487 0)
(0.00121446332682 -0.00109911250511 0)
(0.00114928722628 -0.00118667238316 0)
(0.0011658674375 -0.0012545658616 0)
(0.000812685946064 -0.00086153093608 0)
(0.00067446192582 -0.000695239669167 0)
(0.000608390383233 -0.000635206421713 0)
(0.000532193411951 -0.000606270948674 0)
(0.000477412570906 -0.000623924278784 0)
(0.000423554831178 -0.000633222439704 0)
(0.000360176040065 -0.000621515698176 0)
(0.000290976783832 -0.000626517748673 0)
(0.000210007896472 -0.000619149101328 0)
(0.000143712934854 -0.000586013265246 0)
(9.21209744932e-05 -0.000506729066502 0)
(5.22392315216e-05 -0.000447122699014 0)
(1.12904069249e-05 -0.000392093982479 0)
(-7.77722732686e-06 -0.000397568107853 0)
(-3.8898683943e-06 -0.000405495803992 0)
(2.72959879004e-05 0.000423265262317 0)
(9.89140142062e-05 0.000547516486947 0)
(0.000127112856907 0.000541235314247 0)
(9.42312447382e-05 0.000359410919659 0)
(0.000157331627097 0.000412414235492 0)
(0.000267399685372 0.000556384198592 0)
(0.00028961651885 0.000552401446047 0)
(0.000348452170728 0.000540031877485 0)
(0.000340090040122 0.000461995199209 0)
(0.00043965852686 0.000483690249364 0)
(0.000358411333378 0.000300710517292 0)
(0.000429869139354 0.000283306365457 0)
(0.000479702381848 0.000298942909704 0)
(0.000576802917786 0.000379847765482 0)
(0.000693866960592 0.000471574063241 0)
(0.00075792730802 0.000474249612589 0)
(0.000760657367651 0.000433369244758 0)
(0.000835840381644 0.000465398451796 0)
(0.000917680306468 0.000510539469204 0)
(0.000980032416884 0.000525702534211 0)
(0.00103850245396 0.000522736333692 0)
(0.00108846307393 0.000511260992939 0)
(0.00114594370125 0.000500919560656 0)
(0.00118650387191 0.000479716519475 0)
(0.00122280448635 0.00044168592756 0)
(0.00130713504208 0.000434903541441 0)
(0.00129160594551 0.000414337851184 0)
(0.00142437783357 0.000414257817703 0)
(0.00140432968107 0.000389724062984 0)
(0.00153111393955 0.000405982926934 0)
(0.00151447440866 0.000387368341428 0)
(0.00164665054306 0.000418713141829 0)
(0.00172474842036 0.000469284254733 -1.02938628334e-28)
(0.00179790492325 0.000505630940086 1.0386132589e-28)
(0.00185817758647 0.000503232252485 0)
(0.00191492905444 0.000485282102819 0)
(0.00197052907782 0.000464202500652 0)
(0.00202409848818 0.0004420920636 0)
(0.00207639749077 0.00041741430284 0)
(0.002126999743 0.000388354071319 0)
(0.00217481672345 0.000354686633354 0)
(0.00221912885398 0.000318000471674 0)
(0.00225924451288 0.000280289020776 0)
(0.00229434686899 0.000242571874139 0)
(0.00232384995264 0.000204660724654 0)
(0.00234727693064 0.000165570967444 0)
(0.00236393694017 0.000123955655378 0)
(0.0023728131724 7.85225887636e-05 0)
(0.00237281938063 2.83857843061e-05 0)
(0.00236300929526 -2.69145969121e-05 0)
(0.00234245140407 -8.76348310406e-05 0)
(0.00231007615271 -0.000153936131413 0)
(0.00226456671102 -0.000226278365706 0)
(0.00220361088792 -0.000306447869874 0)
(0.0021229257664 -0.00039842493364 0)
(0.00201696785799 -0.00050671148917 0)
(0.00188305968706 -0.000630103452859 0)
(0.00172993812821 -0.00075565239977 0)
(0.00157892675503 -0.000870531357688 0)
(0.00144261950897 -0.000971715107793 0)
(0.00131941693016 -0.00105088281327 0)
(0.00121264723787 -0.00110756485092 0)
(0.00113627590968 -0.00116160037954 0)
(0.00108962249714 -0.00122333467569 0)
(0.00111285965241 -0.00130034529167 0)
(0.00100249257441 -0.00118048120415 0)
(0.000633291227681 -0.000794729025778 0)
(0.00051480177288 -0.000712652053994 0)
(0.000465197486673 -0.000678092708215 0)
(0.000423962333623 -0.000669567373474 0)
(0.00038219547557 -0.000675995483013 0)
(0.000327197352327 -0.000697169819927 0)
(0.000248230736228 -0.000713523474902 0)
(0.000163248963746 -0.000697739344132 0)
(9.29368097164e-05 -0.000640100988502 0)
(3.67859451499e-05 -0.00056026099477 0)
(-7.70046935274e-06 -0.000489270653741 0)
(-3.78463751574e-05 -0.000431131026338 0)
(-4.26975160387e-05 -0.000397653347085 0)
(-1.80945728392e-05 -0.000385376799666 0)
(3.23496807519e-05 0.000497464380677 0)
(0.000107531946221 0.000594290686255 0)
(0.000113682257148 0.000536718932817 0)
(9.30873747149e-05 0.000386500962778 0)
(0.000194897232151 0.000545128035575 0)
(0.000235467703563 0.000573488231638 0)
(0.000261329377561 0.000590299124105 0)
(0.000307607698175 0.000577522511666 0)