/*--------------------------------*- C++ -*----------------------------------*\
| =========                 |                                                 |
| \\      /  F ield         | OpenFOAM: The Open Source CFD Toolbox           |
|  \\    /   O peration     | Version:  v1806                                 |
|   \\  /    A nd           | Web:      www.OpenFOAM.com                      |
|    \\/     M anipulation  |                                                 |
\*---------------------------------------------------------------------------*/
FoamFile
{
    version     2.0;
    format      ascii;
    class       volScalarField;
    location    "363";
    object      pa;
}
// * * * * * * * * * * * * * * * * * * * * * * * * * * * * * * * * * * * * * //

dimensions      [0 2 -2 0 0 0 0];


internalField   nonuniform List<scalar> 
6400
(
-0.126934750813
-0.126936122064
-0.126939949295
-0.126947295676
-0.12695791488
-0.126971694378
-0.126988695383
-0.12700961417
-0.127034691252
-0.127064221238
-0.127101475705
-0.127148250413
-0.127202779406
-0.127265238046
-0.127336970125
-0.127419559707
-0.127513816067
-0.127619625229
-0.127736227835
-0.127860813659
-0.127989648435
-0.12812305104
-0.128265107853
-0.128420573456
-0.128592906235
-0.128782351605
-0.128986833936
-0.129204977123
-0.12943706705
-0.129684149305
-0.129947223389
-0.130225629302
-0.130515350718
-0.130812317168
-0.131115313198
-0.131421796815
-0.131731471562
-0.132050889082
-0.132379528493
-0.132708470477
-0.133039085931
-0.133385254385
-0.133754855884
-0.134141126376
-0.134535745224
-0.134933688651
-0.135331099932
-0.135725664238
-0.136115389406
-0.136498784309
-0.136875276035
-0.137240529991
-0.137587322103
-0.137904556136
-0.138192371356
-0.138460962602
-0.138706990624
-0.138917092977
-0.13908587559
-0.139222812769
-0.139333714548
-0.1394210633
-0.139482617691
-0.139535420295
-0.139607404135
-0.139715556544
-0.139851725406
-0.139986344797
-0.14009788542
-0.140184844415
-0.140252926435
-0.140308421463
-0.140355444941
-0.140393837221
-0.140425291816
-0.140450520652
-0.140469918196
-0.140481902505
-0.140489175557
-0.140492194593
-0.126932774675
-0.126934224761
-0.126937631004
-0.126944818277
-0.126956294633
-0.126970922792
-0.126988190267
-0.12700816128
-0.127032149494
-0.127061647008
-0.127098668737
-0.12714466645
-0.127199259884
-0.127262219258
-0.127334013757
-0.127415647331
-0.127509368692
-0.127615498485
-0.127732957093
-0.127858129083
-0.127985647875
-0.128117429846
-0.128258814438
-0.128413852916
-0.128586196651
-0.128776049591
-0.128980463092
-0.129198751838
-0.129431319453
-0.129678726338
-0.129941427168
-0.130219773776
-0.130510101424
-0.130806779335
-0.131109756262
-0.131416261347
-0.131725306477
-0.132044863634
-0.132374222489
-0.132702962662
-0.133030579343
-0.133375489486
-0.133748930815
-0.134137985324
-0.134533675412
-0.134932856201
-0.135331394694
-0.135727414457
-0.136118263793
-0.136500456894
-0.136873395861
-0.137238853081
-0.13759385314
-0.137913953783
-0.138203325074
-0.138476703384
-0.138719873909
-0.138924508025
-0.13909333708
-0.139229965988
-0.139336719579
-0.139424866421
-0.139490141817
-0.139545595427
-0.13961933623
-0.139728056619
-0.13986604472
-0.140000151851
-0.140110247107
-0.140196227201
-0.140263443413
-0.140318311625
-0.140364966509
-0.14040302446
-0.140433219107
-0.140456772831
-0.140474050636
-0.140485042881
-0.140491772573
-0.140493957455
-0.126927250769
-0.126929657596
-0.126932609423
-0.126939159236
-0.126950237957
-0.12696666732
-0.126985551993
-0.127004821662
-0.127027361892
-0.127055982067
-0.127092428993
-0.127137839361
-0.127192257228
-0.12725532793
-0.127326889167
-0.12740602661
-0.127497862356
-0.127607304302
-0.127726684471
-0.127850943521
-0.127975598883
-0.128103095699
-0.128242927008
-0.128399243721
-0.128571611204
-0.128760541682
-0.128965275034
-0.129184360479
-0.129417471908
-0.129665216277
-0.129927826059
-0.130206156589
-0.130497790435
-0.130793245519
-0.131094083105
-0.131402208424
-0.131710437433
-0.132027654819
-0.13235726368
-0.132687995197
-0.133021254536
-0.133369707793
-0.13374034627
-0.134127171931
-0.134522728395
-0.134922504846
-0.135322891291
-0.135721169023
-0.136114668149
-0.136500830975
-0.136878131938
-0.137244485059
-0.13759358601
-0.137917118147
-0.138217632328
-0.138492792735
-0.13873254045
-0.138935533012
-0.139104005576
-0.139240961304
-0.139350895732
-0.139439131047
-0.139505854847
-0.139567955252
-0.139649515958
-0.139762789254
-0.139896005578
-0.140025317673
-0.140134681093
-0.140220460543
-0.140287267697
-0.140340921021
-0.140384352272
-0.140418685364
-0.140446246744
-0.140467335435
-0.140481865487
-0.140490987967
-0.140496462686
-0.140498327443
-0.126919673349
-0.126922059491
-0.126924340997
-0.126930313292
-0.126939956422
-0.126956096975
-0.126980445147
-0.126999607515
-0.127020289929
-0.127047414146
-0.127082961982
-0.127127860116
-0.127182138734
-0.12724454373
-0.127315549587
-0.127397491439
-0.127491979994
-0.127599370868
-0.127713570752
-0.127829835572
-0.127950657349
-0.128079885897
-0.128220659312
-0.12837642171
-0.128548735502
-0.128737907783
-0.128943195569
-0.129163026372
-0.129396908747
-0.129644969001
-0.129908255535
-0.130186777744
-0.13047831742
-0.130776324853
-0.131073630713
-0.131377066372
-0.131688318834
-0.132004229439
-0.132328883943
-0.132661356941
-0.133001284354
-0.133354659827
-0.133725963964
-0.134112404018
-0.134508534354
-0.134909827803
-0.135312596666
-0.135713829249
-0.136110770675
-0.136500844813
-0.136881711626
-0.137250277603
-0.137601576342
-0.137930535015
-0.138235137458
-0.138510473761
-0.138750075067
-0.138952885161
-0.139121432317
-0.139259443427
-0.139371610791
-0.139462765272
-0.139538022145
-0.139612850084
-0.139699748724
-0.139809084742
-0.139940173816
-0.140067936748
-0.140176016698
-0.140260395492
-0.140324148433
-0.140372416132
-0.140410118959
-0.140441520269
-0.140466741585
-0.140484087595
-0.140494581999
-0.140501564267
-0.140506191963
-0.140508048148
-0.126907896402
-0.126908143007
-0.126910959186
-0.12691697569
-0.126927539779
-0.126942339655
-0.126964055277
-0.126985473547
-0.127007517607
-0.127034820809
-0.127069596929
-0.127114058138
-0.127168308767
-0.127233373474
-0.127308475499
-0.127390561175
-0.127481015415
-0.127580151686
-0.127686596689
-0.127800091444
-0.127920935156
-0.128050033411
-0.128190735156
-0.128346486265
-0.128518738969
-0.128708139078
-0.12891372485
-0.129134402237
-0.129369151535
-0.129618232862
-0.129881741766
-0.130161973531
-0.130456416721
-0.130750133124
-0.131045306691
-0.131345755343
-0.131651938379
-0.131967559024
-0.132293392749
-0.132628710303
-0.13297371747
-0.133331570069
-0.133704922346
-0.134092380526
-0.134490005625
-0.134893631865
-0.135299537448
-0.135704532855
-0.136105768888
-0.136500544007
-0.136886055229
-0.137258846544
-0.137614553862
-0.137948730503
-0.138257179673
-0.138534107447
-0.138774621771
-0.138978422607
-0.139148513389
-0.139289255308
-0.139405728579
-0.13950350909
-0.139590420326
-0.139677151546
-0.139766613843
-0.13987494383
-0.140003470511
-0.140128689438
-0.140234381226
-0.140315067372
-0.140372467504
-0.140413726929
-0.140447817254
-0.140476886187
-0.140497205811
-0.140509037207
-0.140515683927
-0.140521016749
-0.140523588093
-0.140524111554
-0.126885961351
-0.126885664791
-0.12689069586
-0.126896705814
-0.126908061508
-0.126923703017
-0.126943624435
-0.126965308763
-0.126989226491
-0.127017342999
-0.127050927062
-0.127095230551
-0.127153839594
-0.127222876499
-0.127297038971
-0.127375350476
-0.127459621549
-0.12755257731
-0.127655292462
-0.127766609825
-0.127885061861
-0.128012921928
-0.128153462098
-0.128309370791
-0.128481753504
-0.128670732296
-0.128876949096
-0.129098271078
-0.129334377104
-0.129584477205
-0.129849844163
-0.130130318436
-0.130422296784
-0.130718798262
-0.131008457447
-0.131301752999
-0.131605928537
-0.131922326783
-0.132250234961
-0.132588843127
-0.132938366558
-0.133300597469
-0.1336770384
-0.134066816817
-0.134466978352
-0.134873813173
-0.13528367488
-0.135693299659
-0.136099779638
-0.136500313019
-0.136891852898
-0.137270759467
-0.137632696772
-0.137972823574
-0.138285719498
-0.138565579815
-0.138808762603
-0.139015744487
-0.139189860307
-0.139335773567
-0.139458856698
-0.139565664099
-0.139666656308
-0.139760662203
-0.139853267585
-0.139964507669
-0.140093265779
-0.140214445883
-0.140314069758
-0.140386465867
-0.140435057093
-0.140471345897
-0.140503119945
-0.140526095344
-0.140538671475
-0.140543860501
-0.14054652375
-0.140547524101
-0.140546671535
-0.14054606643
-0.126852461163
-0.126854807138
-0.126863504069
-0.126872499115
-0.126881608585
-0.126897115699
-0.12691806716
-0.12694016507
-0.126965351221
-0.126994327495
-0.127029690025
-0.127074696911
-0.127136544129
-0.12720467791
-0.127275700193
-0.127348842499
-0.127428601764
-0.127519267182
-0.127620020529
-0.127727021821
-0.127842374504
-0.127969289888
-0.128109302174
-0.128264599032
-0.128436816973
-0.128627193982
-0.128832103873
-0.129054383628
-0.129292009744
-0.129545666373
-0.12981203881
-0.130090701192
-0.130381521465
-0.13067104766
-0.130957601603
-0.131247891985
-0.131551419596
-0.131869059138
-0.132199356426
-0.132541308906
-0.132895081428
-0.133261744664
-0.133642061307
-0.13403528619
-0.134439048289
-0.134850046319
-0.135264788402
-0.135680046903
-0.136092926137
-0.136500578061
-0.136899796938
-0.137286707546
-0.1376566219
-0.138004036791
-0.138322924616
-0.138607898308
-0.138856395107
-0.139069500018
-0.139250556324
-0.139403935995
-0.139535467653
-0.139653317467
-0.139764113674
-0.139864813112
-0.139971012392
-0.140086150711
-0.140213287496
-0.140326457622
-0.140414974968
-0.140476555717
-0.140518459217
-0.140552154661
-0.140577710754
-0.140590204635
-0.140592580217
-0.140589399475
-0.140585447687
-0.140579481299
-0.140573540816
-0.140571067968
-0.126813327742
-0.126818151701
-0.126828217133
-0.126841484982
-0.126851217639
-0.126867076775
-0.126887066647
-0.126909865336
-0.12693674185
-0.126963886496
-0.127002618962
-0.12705307695
-0.127113053146
-0.127178613334
-0.127245038096
-0.127313156786
-0.127391325617
-0.127481376182
-0.127577969273
-0.127680638889
-0.12779313165
-0.127918624041
-0.128057884226
-0.128213329133
-0.128385919133
-0.12857589524
-0.128782362543
-0.129001169375
-0.129242821116
-0.1295016628
-0.129767125993
-0.130039665615
-0.130326849915
-0.13061131127
-0.130893152155
-0.131184194612
-0.13148873001
-0.131807732431
-0.132140351369
-0.132485639178
-0.132843594385
-0.13321485225
-0.133599710153
-0.13399737237
-0.134405777479
-0.134821953972
-0.135242625367
-0.135664702809
-0.136085375563
-0.136501788701
-0.136910590269
-0.137307588471
-0.137687551243
-0.138044350751
-0.138371727245
-0.138664917158
-0.13892218057
-0.139144635647
-0.139334756946
-0.139496058671
-0.13963511414
-0.139761162501
-0.139880843555
-0.139997748293
-0.140116548264
-0.140240988185
-0.140363409432
-0.140466110677
-0.140542276556
-0.140594326486
-0.140631492271
-0.140659665654
-0.140672865787
-0.14067097488
-0.140659550247
-0.140644584104
-0.140628779102
-0.140613453193
-0.14060095089
-0.140595119912
-0.12677074897
-0.126777127522
-0.126787232902
-0.126797744682
-0.126810603903
-0.126830595358
-0.126849935752
-0.126872885338
-0.126902766069
-0.126931849322
-0.126967724751
-0.127021767955
-0.12708211933
-0.127143687993
-0.12720604453
-0.127272951432
-0.127349018236
-0.127435943092
-0.127528495759
-0.127628031916
-0.127737862611
-0.127860868783
-0.127997922231
-0.128152257584
-0.128328628077
-0.128516729236
-0.128724249797
-0.128947261102
-0.129186529599
-0.129443390599
-0.12971050207
-0.129986165295
-0.13025929256
-0.130536379903
-0.130818626501
-0.131111292089
-0.131417333647
-0.131737871001
-0.132072746995
-0.132421341473
-0.132783537138
-0.133159631896
-0.133549612951
-0.133952596234
-0.134366661602
-0.13478908944
-0.135216875751
-0.135647164921
-0.136077288765
-0.136504408077
-0.136925026513
-0.137334578264
-0.13772726945
-0.138096430242
-0.138435817891
-0.138741184314
-0.139010997947
-0.139245357698
-0.139444735319
-0.139612188239
-0.139756888581
-0.13989156903
-0.14002433862
-0.140157156964
-0.140288759739
-0.140427233874
-0.140553874511
-0.140641371477
-0.140704441367
-0.140748295099
-0.140779703875
-0.140796240099
-0.140791815501
-0.140770474395
-0.140739512918
-0.140706286457
-0.140673458858
-0.140645462329
-0.140625177338
-0.140615298863
-0.126724235361
-0.126731713614
-0.126743317847
-0.126753114972
-0.126766756574
-0.126786658137
-0.126806146488
-0.126828515005
-0.126856859112
-0.1268934431
-0.126930406651
-0.126983144403
-0.127042710884
-0.127100917791
-0.127158932347
-0.127225860314
-0.12730215823
-0.127384347618
-0.127472037158
-0.127568523195
-0.127676456968
-0.12779743517
-0.127932243989
-0.128082705249
-0.128260894979
-0.128453109788
-0.128653188988
-0.128879866901
-0.129119281784
-0.129377611516
-0.129643510317
-0.129914046238
-0.130183050813
-0.130453164447
-0.13073463796
-0.131028927281
-0.131336713602
-0.131658969907
-0.13199607409
-0.132347898404
-0.132714402098
-0.13309562725
-0.133491282382
-0.133900382317
-0.134321094262
-0.134750915126
-0.135187147052
-0.135627253643
-0.136068770453
-0.136508894975
-0.136943987841
-0.137369147026
-0.137778030954
-0.138163608156
-0.138519595719
-0.138841787689
-0.139127615234
-0.139374206763
-0.139579986316
-0.139751429303
-0.13990349154
-0.140051664316
-0.140201155066
-0.140349404646
-0.140494744058
-0.14063744757
-0.14076450779
-0.1408604757
-0.140910801155
-0.140945484081
-0.140967705636
-0.140967384656
-0.140939921756
-0.14089144189
-0.140831840325
-0.140772282274
-0.140716937173
-0.140672008763
-0.140642340726
-0.140628233208
-0.126671887581
-0.126679043782
-0.126691260438
-0.1267032619
-0.126720729186
-0.126736997655
-0.126755867005
-0.126778485204
-0.126801690081
-0.126841028122
-0.126883464181
-0.126935240544
-0.126993578671
-0.127050527587
-0.127106560613
-0.127171447117
-0.127246632761
-0.127325124079
-0.127408573657
-0.127501179088
-0.127606744831
-0.127726682383
-0.127862494475
-0.128009623046
-0.12818000647
-0.128379449734
-0.128582021265
-0.128804405994
-0.129042189001
-0.129290343779
-0.129559712509
-0.129828315543
-0.130092475109
-0.130359982084
-0.130641330094
-0.130936870923
-0.131246363249
-0.131570498869
-0.131909871062
-0.132264809927
-0.132635610813
-0.133022227888
-0.133424075023
-0.133840025692
-0.13426832782
-0.134706726899
-0.135152890521
-0.13560465582
-0.136059811057
-0.136515631257
-0.136968398082
-0.137412920821
-0.137842525591
-0.138249841141
-0.138628309097
-0.138972424146
-0.139275649035
-0.139530126567
-0.139738171756
-0.13991666415
-0.140084643908
-0.140254100174
-0.140423224988
-0.140585692855
-0.140738151146
-0.140876700433
-0.140998838601
-0.141106324043
-0.141162912615
-0.141194534574
-0.141205169968
-0.141184901061
-0.141126769351
-0.141038028786
-0.140934442142
-0.140840360941
-0.140754878943
-0.140686510753
-0.140645465778
-0.14062840516
-0.126612356909
-0.126617839037
-0.126626551676
-0.126642273148
-0.126664508154
-0.126679730558
-0.126698222674
-0.126722548875
-0.12674382882
-0.126779668434
-0.12682582444
-0.126877623677
-0.126934081585
-0.12699041768
-0.127048471721
-0.127111921342
-0.12718377072
-0.127258311521
-0.12733813123
-0.127426643304
-0.127527617704
-0.127643694581
-0.12778314309
-0.127935510167
-0.128097491133
-0.128292693445
-0.128498947139
-0.128713694326
-0.128956661145
-0.129205305857
-0.129463343076
-0.129723877079
-0.129985212777
-0.130255283238
-0.1305377829
-0.130834460602
-0.131145607073
-0.131471781989
-0.131813607539
-0.132171600466
-0.132546540383
-0.132938677556
-0.133347187159
-0.133770655712
-0.134207420933
-0.134655593503
-0.135113299151
-0.135578795018
-0.136050155811
-0.136524807766
-0.13699902768
-0.137467571102
-0.137923681792
-0.138359879104
-0.138768337579
-0.139138782173
-0.139455555417
-0.139709640516
-0.139920183091
-0.14011895117
-0.140321099753
-0.140521007988
-0.140711140617
-0.14088622187
-0.141041744854
-0.141172492997
-0.141281321493
-0.141375360953
-0.14145457689
-0.141497449889
-0.141513055929
-0.141473540136
-0.141373427716
-0.141220182771
-0.141041787695
-0.140906096226
-0.140778982736
-0.140675014012
-0.14062406123
-0.140609291774
-0.126545570583
-0.126549441538
-0.126553259229
-0.126570886454
-0.126592451793
-0.126610585402
-0.126630189188
-0.126656247603
-0.126679901068
-0.126713435121
-0.126759861108
-0.12681077859
-0.126864795132
-0.126918124947
-0.126978565484
-0.127044224727
-0.127112912258
-0.127183645156
-0.127260201743
-0.127345253042
-0.127441146937
-0.127550335671
-0.127686015903
-0.127849207092
-0.12801177777
-0.128193868971
-0.128404883132
-0.12861883585
-0.128849983712
-0.129098712806
-0.129353602965
-0.1296094138
-0.129867345353
-0.130138464714
-0.130422649008
-0.130720827631
-0.131033656771
-0.131361831745
-0.131706356389
-0.132067721044
-0.132446740024
-0.132844237293
-0.133259612511
-0.13369115971
-0.134137175651
-0.134596257674
-0.135067171795
-0.135548657284
-0.136039101749
-0.136536146586
-0.137036242319
-0.137534417692
-0.138024560315
-0.138499169445
-0.138946957621
-0.139345547819
-0.139666418637
-0.139911257212
-0.140129578483
-0.140379191126
-0.140646432755
-0.140880145249
-0.141088634206
-0.141277095905
-0.141429459514
-0.141535055189
-0.141610092481
-0.141674901362
-0.141750324816
-0.141818802375
-0.141878922274
-0.14184378224
-0.141684466939
-0.141432707524
-0.141125894269
-0.140965553815
-0.140779428776
-0.140611269373
-0.140562052558
-0.140569231412
-0.126472240229
-0.126476589894
-0.126482862688
-0.12649427107
-0.126512079585
-0.126531768399
-0.126552832909
-0.126578902524
-0.126607301804
-0.126639814105
-0.126685631443
-0.126735257348
-0.126787151192
-0.126837677072
-0.126895662524
-0.126963370835
-0.12703141401
-0.127100044815
-0.127173871779
-0.127255867771
-0.127347668683
-0.127450403051
-0.127578576307
-0.127744674483
-0.127914839247
-0.128089148924
-0.128297613226
-0.128514184398
-0.12873537146
-0.128977089701
-0.129223779561
-0.129475065459
-0.129735982456
-0.130009077812
-0.130294979003
-0.130594831133
-0.130909743094
-0.131240119295
-0.131587100986
-0.131951980508
-0.132335459808
-0.132738319757
-0.133160431268
-0.133600221549
-0.134056025198
-0.134527000826
-0.135012738458
-0.135512548807
-0.136025129836
-0.13654849371
-0.137079451152
-0.137613955908
-0.138147600633
-0.138673376477
-0.139171950312
-0.139596247669
-0.139910116912
-0.140138933617
-0.140372089633
-0.140744697605
-0.141199156231
-0.141460870079
-0.141661909381
-0.141858402566
-0.141986598812
-0.142066771706
-0.142147781776
-0.142218860235
-0.142281490986
-0.142363652769
-0.142697713679
-0.142737403579
-0.142462478569
-0.141969038236
-0.141144025057
-0.141019129812
-0.140728140445
-0.140426067491
-0.140432046081
-0.14052179063
-0.126390626108
-0.126395461304
-0.126406230356
-0.126411808041
-0.12642554146
-0.126445071622
-0.126467014463
-0.126493994366
-0.126528096044
-0.126558781079
-0.126603116993
-0.126651397248
-0.126701681233
-0.12675096404
-0.126806527553
-0.126873198242
-0.126940187776
-0.127007374147
-0.12707889259
-0.127157776746
-0.127245991535
-0.127344246871
-0.12746282643
-0.127622319503
-0.127803716518
-0.127977599523
-0.128172683839
-0.128396443547
-0.128619943638
-0.128844023924
-0.129081219692
-0.129329645292
-0.129591203002
-0.1298659064
-0.130153715667
-0.130455550186
-0.130772472533
-0.131105490375
-0.131455365605
-0.131823533337
-0.132211515492
-0.132619985311
-0.133048760746
-0.133496529045
-0.133962078541
-0.134445498294
-0.134947395211
-0.135467724012
-0.136005499519
-0.136559152213
-0.137126329913
-0.137704880132
-0.138293482254
-0.138886668131
-0.139448719772
-0.139898663562
-0.140253355849
-0.140459209662
-0.140634809737
-0.14125868273
-0.141126276257
-0.140856360388
-0.140621789415
-0.140416483993
-0.140210907508
-0.139995175407
-0.139766563008
-0.139594984874
-0.139556236577
-0.139603512105
-0.139615475275
-0.139673849825
-0.139547005118
-0.139441982407
-0.140257352179
-0.141443638674
-0.141055810367
-0.140024568951
-0.140199172746
-0.140535285741
-0.12629916883
-0.126303423739
-0.126312589491
-0.12631859612
-0.126330328822
-0.126349809747
-0.126371547587
-0.126397131552
-0.1264359079
-0.12646879619
-0.126511617846
-0.126558893027
-0.126608289154
-0.12665756453
-0.126711490038
-0.126775596644
-0.126840586065
-0.126906238639
-0.126975490061
-0.127051201047
-0.127135476249
-0.127229835245
-0.127340995693
-0.127490369196
-0.127674917957
-0.127856118036
-0.128038346525
-0.128250589289
-0.128477681793
-0.128700362011
-0.128928993108
-0.12917270162
-0.129433277457
-0.129708916141
-0.129998417314
-0.130302008403
-0.130621121291
-0.130956686564
-0.131309860532
-0.131681699579
-0.132074057084
-0.132488148509
-0.13292364102
-0.133378890428
-0.133853166237
-0.134348459544
-0.134867372822
-0.135410272238
-0.135975497285
-0.136562504904
-0.137171569958
-0.137802579056
-0.138457817869
-0.139134389835
-0.139758319789
-0.140303953316
-0.140402831376
-0.140194329635
-0.139869587969
-0.139747979701
-0.139666303837
-0.139203182638
-0.138458205917
-0.13752993521
-0.136503358964
-0.135448742054
-0.134442429242
-0.133606110436
-0.133079065038
-0.13292455709
-0.133065003868
-0.133435999679
-0.133915838844
-0.134568949772
-0.135493872735
-0.136443419606
-0.136829042718
-0.138042217612
-0.139696509693
-0.140870935208
-0.126199240195
-0.126202849921
-0.126211704554
-0.126217065855
-0.12622823141
-0.126246936024
-0.126267989183
-0.126290436374
-0.126327799162
-0.126366034852
-0.126409612037
-0.126456568984
-0.126505852944
-0.126556915928
-0.126609038866
-0.126670288576
-0.126732892384
-0.126796951759
-0.12686379358
-0.126936247668
-0.127016324143
-0.127105983955
-0.127210639998
-0.127348816103
-0.127526789783
-0.127719525261
-0.127899478043
-0.128096238441
-0.128312294514
-0.128531902895
-0.128757019193
-0.128999905387
-0.129260040762
-0.129536275158
-0.129827564431
-0.130133418501
-0.130454645918
-0.130792989038
-0.131149519898
-0.13152545358
-0.131922426546
-0.132341845323
-0.132783794337
-0.133246100603
-0.133727539861
-0.134232967934
-0.134768364736
-0.13533388222
-0.135926450194
-0.136549153676
-0.137205998476
-0.137898446392
-0.138627514135
-0.139385267269
-0.140136270285
-0.139925636008
-0.139652131585
-0.139249013831
-0.138583801526
-0.137876193531
-0.137172808887
-0.136215216324
-0.134939943825
-0.133417377165
-0.131749624922
-0.130046427866
-0.128415486098
-0.126980292945
-0.125879128528
-0.125223909665
-0.125007359305
-0.125142367073
-0.125545997407
-0.126296778637
-0.127660668992
-0.1296022641
-0.131387567455
-0.133816202995
-0.139471458975
-0.140895313897
-0.126092276982
-0.126094912604
-0.126100889188
-0.126106852778
-0.126119741118
-0.126137513573
-0.126158445835
-0.126178835824
-0.126213555601
-0.126253607042
-0.126297317384
-0.126343480096
-0.126391719929
-0.126445480653
-0.126497194635
-0.12655559284
-0.126615863866
-0.126678842122
-0.126743343908
-0.126812521521
-0.126888249608
-0.126972581159
-0.1270706391
-0.127198151861
-0.12736587121
-0.127561454225
-0.127749768273
-0.127936891535
-0.128138333418
-0.128348042493
-0.128568883356
-0.128809847229
-0.129068839485
-0.129345299922
-0.12963852811
-0.129947148587
-0.130271556777
-0.130612996548
-0.130973483651
-0.131353806539
-0.131755584482
-0.132180810137
-0.132629380333
-0.133098242268
-0.133582844487
-0.134090035117
-0.134636517103
-0.135226082925
-0.135846486622
-0.13650433565
-0.137212547229
-0.13797047664
-0.138764479547
-0.13957049909
-0.139243661309
-0.138845908141
-0.138410221025
-0.137696918149
-0.13670400959
-0.135516667971
-0.134166751822
-0.13262051985
-0.130887257164
-0.129016394791
-0.127076525832
-0.125147219693
-0.123302653038
-0.12161313403
-0.120151572762
-0.119003805173
-0.118241570053
-0.117817610604
-0.117710270529
-0.118004987855
-0.11897623139
-0.120873512445
-0.123640920565
-0.127442944896
-0.133243425827
-0.142447171927
-0.125979931211
-0.125981701334
-0.125984377194
-0.125991335492
-0.126005466492
-0.126021992852
-0.126042303451
-0.126062828279
-0.126093500969
-0.126132925723
-0.126175493363
-0.12621997334
-0.126265581642
-0.126318364249
-0.126372682177
-0.126429473673
-0.126487486708
-0.126549277967
-0.126612504746
-0.126678957847
-0.126750610102
-0.126828980625
-0.12692022284
-0.127037242393
-0.127191286923
-0.127377768745
-0.127573183893
-0.127759395871
-0.127951033869
-0.128152205827
-0.128365224787
-0.12860176809
-0.128859487275
-0.129134218256
-0.129429282476
-0.12974113555
-0.130068650206
-0.130414249581
-0.130779762739
-0.131166109978
-0.131573743074
-0.132004566758
-0.132458919393
-0.132934202537
-0.133425213508
-0.133935298518
-0.134479060264
-0.135061114585
-0.135692843198
-0.136392937633
-0.137159540558
-0.137991354577
-0.138851291603
-0.138217406855
-0.137650221968
-0.13729409555
-0.136556371348
-0.135434938134
-0.134003211283
-0.132330970709
-0.13045020934
-0.128398794426
-0.126224326323
-0.123964647429
-0.121654599169
-0.119335840463
-0.117053798995
-0.114856536008
-0.112797629775
-0.110954797391
-0.109428285827
-0.108230696873
-0.10733068341
-0.106787976674
-0.106838830393
-0.107975550707
-0.110604830329
-0.11407536359
-0.116708931333
-0.119441973717
-0.125862967732
-0.125864320838
-0.125865619544
-0.125873848217
-0.125886922217
-0.125901103869
-0.125918528335
-0.125939969112
-0.125966342832
-0.126003796468
-0.126044579885
-0.126087016583
-0.126130152004
-0.126179140079
-0.126234946827
-0.126291378662
-0.126347609036
-0.126407168593
-0.12646909427
-0.126533727
-0.126602285375
-0.126674584641
-0.126758546669
-0.12686544598
-0.1270053919
-0.127178178136
-0.127368829876
-0.127556077957
-0.127739358127
-0.127932532018
-0.128142133896
-0.128371006905
-0.128624765244
-0.128899207829
-0.129196748058
-0.129512378793
-0.129843721383
-0.130194174222
-0.130565649207
-0.130959295875
-0.131375169028
-0.131814028518
-0.132278229201
-0.132766336652
-0.133268968754
-0.133774459346
-0.13429167517
-0.134839149135
-0.135461934589
-0.136215572847
-0.137045403216
-0.138006456436
-0.136981047089
-0.136150751577
-0.13582068443
-0.135159952335
-0.133971103399
-0.132376464214
-0.130455265481
-0.128283709554
-0.125903952347
-0.123357652515
-0.120677977845
-0.117883956847
-0.114991483291
-0.1120262844
-0.109025389765
-0.106033456233
-0.103097629908
-0.100274997392
-0.0976404838722
-0.0952385049979
-0.0929384989772
-0.0906451476333
-0.0885108015881
-0.0871911017122
-0.0871159227735
-0.0850781197232
-0.072724338971
-0.0553999987032
-0.125740290426
-0.125741441867
-0.125742539941
-0.125752331491
-0.125763843697
-0.125775267805
-0.125788805432
-0.12580999121
-0.125831077201
-0.125865759706
-0.125904585143
-0.125944831298
-0.125985807113
-0.126031892514
-0.126086167183
-0.126141827262
-0.126196639881
-0.126253686354
-0.126312806946
-0.126375312229
-0.12644150752
-0.126508208381
-0.126584013149
-0.12668096805
-0.126807254622
-0.126964688668
-0.127145803682
-0.127330472505
-0.127514701265
-0.127697420847
-0.127900127225
-0.128123506043
-0.128370023697
-0.128636940475
-0.12893292679
-0.129255390054
-0.129593292194
-0.129950623624
-0.13032892556
-0.130730797405
-0.131157682031
-0.131609974214
-0.132092146779
-0.132601454711
-0.133112835131
-0.133605830133
-0.134081634132
-0.134558420076
-0.135140897864
-0.136002207834
-0.137055976214
-0.135657059758
-0.13450131282
-0.134123642948
-0.133547914041
-0.132371035885
-0.13066100575
-0.128547974864
-0.126111086106
-0.123419027408
-0.120513574179
-0.117428504545
-0.114183998295
-0.110792513263
-0.10726868646
-0.103636963717
-0.0999291508496
-0.0961762975099
-0.092397577715
-0.0885988703499
-0.0847863897096
-0.0809473796642
-0.0768587423517
-0.0721926585602
-0.0669256651444
-0.061581721462
-0.0558698843397
-0.0433321412406
-0.00878630026606
0.0416123187931
-0.12560925402
-0.125610152617
-0.125611979429
-0.1256235186
-0.125633613989
-0.125642534563
-0.125653404764
-0.125672281763
-0.125687777374
-0.125718805905
-0.125755310595
-0.125793047181
-0.125831603081
-0.12587458945
-0.125925955975
-0.125980066139
-0.126034088819
-0.126088290659
-0.126143453143
-0.126202723348
-0.126266292458
-0.126328176421
-0.12639470632
-0.126481520424
-0.126594866345
-0.126735927468
-0.126903162909
-0.127077029495
-0.127261295678
-0.127443498075
-0.127636246097
-0.127848015154
-0.128089313773
-0.128356044625
-0.12864385548
-0.128965415794
-0.129311075294
-0.129677148587
-0.130066217858
-0.130478884947
-0.130918592486
-0.131392117242
-0.131905398392
-0.132443212871
-0.132966643349
-0.133452186106
-0.133878696811
-0.134188703652
-0.13449644718
-0.135933815583
-0.134384263358
-0.13291457263
-0.132389195308
-0.131839141816
-0.130712043732
-0.12895085514
-0.126679959551
-0.124021267439
-0.121054289726
-0.11783948248
-0.11441658014
-0.110817355447
-0.107063415612
-0.103172068086
-0.0991604075135
-0.0950460110263
-0.0908409261068
-0.0865429731502
-0.082125311563
-0.077528135887
-0.0726551234849
-0.0673670316044
-0.0614406192452
-0.0544023668724
-0.0460556723318
-0.0366388680235
-0.0245769474124
-0.000723690349789
0.050929460003
0.116139622062
-0.125466051033
-0.125466711215
-0.125469250089
-0.125482274555
-0.125490609096
-0.125498598049
-0.125507563546
-0.125522615445
-0.125534151699
-0.125562328586
-0.125596326954
-0.125631181185
-0.125666878789
-0.125706161454
-0.125753380711
-0.125804328428
-0.125857928217
-0.12590909823
-0.125959933683
-0.126014902453
-0.126074133869
-0.126132608956
-0.126189783606
-0.126265092817
-0.126366164862
-0.126491209363
-0.126642164198
-0.126801106149
-0.12697362604
-0.127158048253
-0.127350122525
-0.127551985746
-0.127775635389
-0.128035866425
-0.128326390675
-0.128645473072
-0.128995009678
-0.129369218952
-0.129769561058
-0.130197282675
-0.130657078122
-0.131162003772
-0.131716043593
-0.132290131605
-0.132852810673
-0.133385591572
-0.133784433449
-0.133729135931
-0.134314713273
-0.133140767167
-0.131553490377
-0.130814095438
-0.130206975897
-0.129101528039
-0.127333161972
-0.124955753871
-0.122107128904
-0.118904236868
-0.11542671081
-0.111732915312
-0.107864191045
-0.103853562568
-0.0997245689983
-0.0954929656937
-0.0911654356926
-0.0867364608748
-0.0821824432533
-0.077456449229
-0.0724832274727
-0.0671492725031