/*--------------------------------*- C++ -*----------------------------------*\
| =========                 |                                                 |
| \\      /  F ield         | OpenFOAM: The Open Source CFD Toolbox           |
|  \\    /   O peration     | Version:  v1806                                 |
|   \\  /    A nd           | Web:      www.OpenFOAM.com                      |
|    \\/     M anipulation  |                                                 |
\*---------------------------------------------------------------------------*/
FoamFile
{
    version     2.0;
    format      ascii;
    class       volScalarField;
    location    "995";
    object      alpha;
}
// * * * * * * * * * * * * * * * * * * * * * * * * * * * * * * * * * * * * * //

dimensions      [0 0 -1 0 0 0 0];


internalField   nonuniform List<scalar> 
6400
(
0.91790398325
1.50568121758
2.41518759246
3.08468514303
3.72213538167
4.34870327844
5.09252596732
5.91719615378
6.50850895641
7.35438719556
8.71823810929
9.78013405268
10.7066789809
11.7129535817
12.8962171561
14.1481388726
15.3270467958
16.4466366453
17.4085243109
18.0738562944
18.5679495876
19.2397208484
20.2708058029
21.6155997771
23.0562403307
24.3942520543
25.5733439142
26.6919386526
27.8407454806
29.0349892716
30.2193089278
31.2239745971
31.9729278013
32.5680655583
33.0627532378
33.4826199111
34.0565147659
34.7933565493
35.2638671106
35.5452800558
36.1374701602
37.1459264432
38.1271331775
38.739613562
39.0075298995
39.0245119787
38.8533090366
38.5305919614
38.0689584617
37.486030022
36.7160031945
35.5777049318
34.0261978305
32.1538679043
30.3275667291
28.5366140671
26.2702464217
23.3837935956
20.3744650248
17.6263154711
14.8564404956
11.9935698406
9.44333841303
8.5759902154
10.6402340321
14.6481214609
17.1632895737
16.5296048347
14.2591196305
12.4389367966
11.4565467253
11.6514621143
12.259700421
12.19481777
14.4008298799
13.8904638652
15.875985843
9.7675760105
12.8490011314
4.79659911914
3.19235325788
2.60045525469
3.27002717864
4.57498914604
4.65590092963
4.7417631053
5.10163743342
5.67979584977
6.47440237159
7.46809279181
8.63975678575
9.81469207811
10.8794370298
11.9092296379
12.9709155252
14.1721468407
15.4414472129
16.6520701053
17.821625776
18.3376960108
18.6806830113
19.3469538174
20.3745262278
21.7148564571
23.2438068459
24.5410526943
25.6983711044
26.8453918815
28.0041941214
29.1727449252
30.3364333259
31.4045951739
32.1469663846
32.7332897118
33.2506051276
33.6167271129
34.2222443899
34.983952699
35.4308377566
35.6232105496
36.1953541716
37.5340145255
38.7016490854
39.2457610202
39.4714904616
39.444248695
39.2189465876
38.8590232733
38.2966467058
37.6013685299
36.8729561274
36.0637226957
34.6311221388
32.375245728
30.6173940869
28.6850474033
26.0786678302
23.2441834735
20.3788804094
17.5143675841
14.7547205144
12.2278924178
9.77442598133
9.04435094803
10.9814911808
15.6690451836
18.8800750498
17.3104737945
14.8836985059
12.7677763505
11.9697249296
12.3847937889
13.5635531296
13.0138566827
12.9432073562
12.4969401793
11.3792022833
9.59872067082
8.11056906029
4.18915496555
3.36859086971
3.02019949437
3.5565828112
3.96403583227
4.66344372542
5.20782728255
5.27474726609
5.55996509109
6.36314588187
7.43574453386
8.62108799815
9.81477551525
10.9195810771
11.9468928312
12.8657008138
13.971555219
16.4714332302
18.5016450869
19.1829918226
19.0391015909
18.4878193763
19.0851762416
20.4661741336
21.8491483471
23.1926953979
24.5347523158
25.7727537254
26.9216848411
28.0620974238
29.2224422112
30.3623005646
31.4970672169
32.2278425782
32.6483667477
33.3776217778
33.7664336399
34.1696490649
35.0522430802
35.5577325617
35.8203390933
36.4071633563
37.3858651357
38.335192715
38.9463979129
39.2390778603
39.2947532827
39.1558795154
38.8416198275
38.3554289372
37.7143831882
36.9117964021
35.836110978
34.369151745
32.7012972007
30.9167583466
28.6465664778
26.0122105966
23.218713265
20.3661405183
17.5368756442
14.8109534133
12.1903947006
10.2587286967
10.2583557684
13.1369604784
16.6800452939
18.3470788807
18.0937391824
16.2846785522
14.4742134269
13.7097971471
13.5855483501
12.9059306629
12.3371172839
12.3960440444
12.1521088952
11.2583431001
9.68076584941
7.24301095147
7.46373497043
3.52269648661
5.65140848277
4.0004778869
4.20923548805
4.97331934123
12.027737671
10.4922506677
6.01904238912
6.30779621512
7.41411604506
8.63422901688
9.85078386493
10.9298288544
11.9464391699
13.6182524206
15.6813968724
17.4651981728
18.2231283364
17.816831654
17.6696322274
18.356416267
19.3000533439
20.4722349068
21.8406700565
23.2548706185
24.6190681498
25.8778564313
27.0134167538
28.1619933452
29.2729750124
30.4925143775
31.4924610272
32.4107273128
32.801940412
33.0697130543
33.818175784
34.305958308
34.8150853399
35.449289777
36.0312287321
36.7011358512
37.5579537317
38.4010392595
39.0084627715
39.3375666114
39.4273123439
39.313935664
39.0183876531
38.5492319656
37.9105247726
37.0805685061
35.9926136392
34.6007775173
32.9537992529
31.0256059441
28.7056964316
26.0553976701
23.2452380635
20.3960639546
17.6043663558
14.9851816805
12.7867956666
11.6257090685
11.8200897466
13.2635778558
17.1762096696
20.0041327645
19.8348419699
17.9634708825
15.469505709
13.7540007713
12.8900340735
13.0561905166
14.5472475405
14.5468173993
13.283967289
13.2164683635
16.5834934893
12.9420300675
10.9239589306
5.95941445043
7.77618068353
4.9315392911
5.25701594042
6.92441848729
11.9332242751
8.67521134962
6.61665235103
6.83758497685
7.62194566146
8.76088868912
9.98572035977
11.4652039076
13.6185130157
14.7616629769
15.4249014736
15.894824419
16.2719834211
16.8453697892
17.6966786593
18.4630347669
19.356942242
20.5537416501
21.9187265843
23.3377345582
24.7214772323
25.9638192438
27.1832907943
28.2465989451
29.4667446973
30.5250948024
31.8970081321
32.359434159
32.550340784
33.1061645772
33.532538046
34.1743295029
34.9032965348
35.6093347531
36.2723157788
36.9735446801
37.7639379142
38.5332159651
39.1271461255
39.4813843312
39.6025267158
39.5156675828
39.2416140134
38.7907407271
38.1607903849
37.327472215
36.2462304618
34.8853340543
33.2335510554
31.2367503717
28.8524957648
26.1750003174
23.3679230039
20.5686791977
17.9161164183
15.614505742
14.0091580594
13.4403701989
13.3163961239
14.0060408013
17.110309457
20.2605649798
21.1965230182
19.7964775784
16.8936835716
14.2860832462
13.8631546115
16.1339950973
17.0246553415
16.0186389266
15.1438074165
17.8826937778
20.9481570322
16.1877576583
15.290016771
10.2214813237
9.42624602444
6.15416330462
6.60436508427
12.2304830869
11.7592568238
7.3893820778
7.27831895913
7.50088277947
7.97851226169
8.96999747858
11.4666944135
14.5042415514
15.1206804329
15.06361047
14.680773079
14.9042211123
15.7060360882
16.8708102052
17.6354564663
18.3807980609
19.4173996543
20.6696429585
22.050181042
23.4119604099
24.7978583565
26.2094189797
27.266508905
28.5917126831
29.5130455292
31.0519842406
31.7437139365
32.7397512741
32.6711949336
32.7314149559
33.3691696248
34.2184389941
35.0525416784
35.8169296875
36.530475039
37.252583084
38.0088351574
38.7305338638
39.3095797439
39.6794737612
39.827235465
39.7665700331
39.5164574101
39.0879282446
38.4762122454
37.6572405393
36.5933321544
35.2457981986
33.5722961317
31.5232855303
29.1070211792
26.4434961978
23.7016886872
21.0451418167
18.6640070914
16.8066401139
15.7783300611
15.5707034565
14.7810402828
16.0145663764
19.2558272812
21.8008880639
22.6061158419
21.3889462059
17.8731074878
15.5342512666
17.2106934847
19.3644033394
18.8195298069
17.84075008
17.9371816444
22.6142666591
24.2419711026
19.1515387911
18.9524267415
12.3842867365
9.46762220931
7.46748678531
7.00482755215
12.2465870766
8.97890067191
7.76764281489
7.93014514338
8.12745734036
8.88254799387
9.51750885777
14.0206242614
14.8955679396
15.1313189882
14.2544215357
13.8734842147
14.5779654148
16.0237534485
16.7789722109
17.3779104459
18.3719076725
19.5009797017
20.7569810425
22.1326604955
23.6189189027
25.0460702068
26.2160541928
27.8014393664
28.6820121832
30.2855113768
30.8731137992
32.1277657302
32.368186093
32.5005636187
32.6441225542
33.3717465718
34.3278039611
35.2369677105
36.0490102441
36.802912891
37.5469160869
38.2907627633
38.9860696912
39.5544419194
39.9352111669
40.1054458223
40.0708675348
39.848384325
39.4488240393
38.8658209453
38.0739133082
37.0330909265
35.6942694615
34.0055612287
31.9387288309
29.5441723589
26.9654072942
24.3806632926
21.9628741699
19.9001323608
18.4212035118
17.6134324092
17.0429663496
16.8646208504
18.1428056173
22.1342881382
23.4977965504
23.2081917204
21.7709358068
19.2989719926
18.8052144676
21.1624618198
21.4820467861
20.6125669579
20.0139367618
22.041928443
24.8727846475
26.4045896805
21.7416855727
20.587869557
12.1989526998
9.32117840248
8.67691117177
12.5272732927
12.4565876034
8.32143059826
8.48425377903
8.68530335723
8.78968169436
9.42833093978
13.6900281687
14.6991235376
14.9773346033
14.7610961831
13.3333483095
13.5577468917
15.1682435438
16.086886425
16.463844321
17.2408320521
18.3733778536
19.6156729764
20.908962793
22.3256241079
23.684539609
25.2834687603
26.2509528682
27.8016575076
29.5260549306
30.4136294142
30.6426494566
31.7295016704
32.3693729122
32.1827381944
32.6704444231
33.525885024
34.4956177026
35.4380544202
36.2970651035
37.0929847377
37.8630863553
38.610571157
39.2963657829
39.8604848061
40.2507923583
40.441592248
40.4344624606
40.2445931367
39.8818267337
39.3378783789
38.5842885966
37.5756574487
36.2566781744
34.581884333
32.5544222371
30.2617571194
27.8581811265
25.4977218197
23.3077389039
21.4531740208
20.1434322882
19.404395751
19.0824610313
19.2107047828
19.1567411178
23.0463433797
25.6903201323
25.0108459162
23.9603737403
22.6759418779
23.1225106801
24.1913038622
23.3484480456
22.5999557018
22.7903991157
25.2090945755
25.9587426833
26.6271690296
23.7160674139
21.5476133064
11.6117160879
9.41292766197
9.37720250183
13.5624985012
11.6586064497
9.09173399379
9.2660867367
9.60148881438
10.6272006495
9.61020544169
14.4518331651
15.2656001261
15.0514025182
13.7524384531
13.1100095793
13.6735865672
15.191616398
15.8433684634
16.3514991016
17.2254357671
18.3437073791
19.6381310522
21.0123975272
22.7544140593
24.2508829607
25.2403586316
27.2030202066
27.739862292
29.619401436
30.0787555904
31.3847513134
31.273695575
31.5959574789
32.135265507
32.8452065637
33.7310298847
34.6970035076
35.658557202
36.5616496259
37.4042010985
38.2070414349
38.9696309161
39.6593794978
40.2271994114
40.6287104209
40.8407996929
40.8645758105
40.7136414466
40.3960916204
39.9018741938
39.1996942078
38.2403292798
36.9700653166
35.3625474579
33.4568120362
31.3632968921
29.2055780563
27.0438285541
24.945484657
23.1781964488
22.0677409291
21.648257935
21.6148342031
21.5782716307
21.3240945482
21.7191567175
26.4598513877
27.4089964269
26.7692440984
26.7793391078
27.2764334026
26.5348006283
25.2949323406
24.9838213374
25.9808306244
27.2720896578
27.2264363701
26.7088527424
25.7289071136
24.3704732603
11.257563758
9.98067334979
10.5244080252
13.6944313392
10.0564869172
10.1310354394
10.0519735784
10.3549237172
13.1257697652
12.0105161332
15.2835015749
15.5833744032
15.1920160906
13.2538836911
13.1905661038
14.719372324
15.3700089919
15.6220125044
16.2922199294
17.3211053645
18.4308483485
19.6690674948
20.902797426
22.8344888493
25.0247240503
25.1745183133
27.1155362004
28.6915332309
29.7882392634
30.830174612
30.9147903394
31.3915629413
31.3893500157
32.0773369707
33.0095448567
33.9586887551
34.92726269
35.9013230461
36.8433474638
37.736641846
38.5819758709
39.3708542913
40.0752475781
40.6549367167
41.0726485465
41.3096169124
41.3693918797
41.2650003064
41.0021423919
40.5695567251
39.9358819797
39.0534834877
37.8799292731
36.4176386495
34.7372929169
32.9351080009
31.0192604883
28.8983642265
26.7737946101
25.2637191706
24.6691403925
24.6952418033
24.7633692405
24.4903106532
23.8402427127
22.3190151124
21.3151304752
29.5948009863
31.6728206471
31.8219020434
30.8940591158
28.9089507235
27.6341958205
27.755264914
28.9480764825
29.4009016209
29.3249165314
29.2140244889
29.675348859
29.9392725949
11.4229601755
10.9226189265
13.7755765584
14.0015564989
10.3590468582
10.9438871184
10.8392805971
11.2533895608
12.8319493165
15.3169624235
16.1909162257
15.9348534668
15.5302488207
13.4101979062
13.3639552461
15.1604007137
15.4889456217
15.6054864421
16.2825926351
17.3982762929
18.7012169409
19.9777944073
21.0120542665
22.4398572168
25.1275252186
26.5691395053
26.8379620699
28.7332122554
28.9877140731
30.7985577571
31.6081770632
31.3782626507
31.3847177148
32.1766775068
33.1957411541
34.1938413023
35.1804691605
36.1701706288
37.1448149345
38.0895355295
38.9880191919
39.8158667937
40.545557744
41.145586963
41.5866823725
41.8558204962
41.9594386403
41.9099906229
41.7116594501
41.354307343
40.8112524507
40.0449171789
39.0355275131
37.8193402957
36.4758939423
35.0069124873
33.2048343218
30.9679428226
29.026711256
28.291323686
28.5786489154
28.9888403571
29.0217326685
28.4511539251
27.2706460254
25.2865351845
22.7009389152
22.7096728419
33.6671448982
37.5754770784
35.2768859971
32.0206683764
30.6282380239
30.8774673027
31.7158652626
32.2329436477
32.869638887
33.7770366341
34.5771379842
35.3798057231
11.9326402768
11.8707396939
15.4630314616
14.856530716
13.1710843012
12.2225783235
11.8626731076
12.6817067102
12.4935530719
16.3002843126
16.9321311384
16.3727721981
15.7611066798
14.1421315384
14.1098120374
15.5768190641
15.5458772247
15.6944456793
16.360602598
17.3914126364
18.7769419963
20.3813422048
22.1550433257
22.4781057775
24.6104438304
26.847430225
26.7546282907
28.8748898294
30.1363554189
30.2092744639
30.9445916421
31.012707317
31.6261375298
32.4587880651
33.4330811413
34.4467887044
35.4583680381
36.4707767434
37.4724052006
38.4613832226
39.4213093559
40.3057713548
41.0733272431
41.7020449115
42.1759490394
42.4884071266
42.6468732337
42.6620655052
42.538130153
42.2701515378
41.8432632569
41.2426362389
40.4835251952
39.6260911296
38.6967653503
37.4933137082
35.6941258738
33.5481932827
32.2527216629
33.2872993911
35.2551251275
35.694488449
35.6280978692
34.8385138937
33.3048524718
30.6292847321
26.7695368917
22.2302601376
28.6826277787
38.5106990705
39.8556106547
35.9155322235
34.5174141561
34.7775737195
35.515115828
35.9796143884
37.5048222463
39.0611876575
39.2728777442
39.6996817583
12.6318050361
12.5786636077
15.3075345852
15.4511382375
15.5210128296
13.4563939025
13.0093561552
15.3964782222
13.0042429913
17.1710403152
17.4991823742
16.8146572444
15.9767371683
14.8415236722
16.4114460863
16.5881119609
15.7958811209
15.9238427351
16.5746683604
17.4745593385
18.6787450833
20.3397155105
23.2314118836
24.29185007
24.1303815732
26.8092611242
28.0659456233
28.4566516789
30.0399838292
30.9413339019
31.1657933042
31.0471371345
31.7996091417
32.7486691695
33.7216869631
34.7319235447
35.7562802241
36.8012029742
37.8435055731
38.8680996109
39.8795355616
40.8316824769
41.6577670911
42.3291245125
42.8470732815
43.2173611181
43.4457078199
43.5369961653
43.4961173902
43.3292181829
43.0448227424
42.6676923014
42.2535113427
41.8411353473
41.2964811615
40.2739219491
39.0322989568
37.8373336277
36.8824923494
38.5337463243
36.9714639284
34.5371977405
31.3001058324
27.4848022671
21.7916812742
11.9833443308
9.72322592738
0.000219545557475
9.26940004282e-06
22.9355626447
33.9027781236
36.407457545
32.2524940459
31.3418234926
33.5194981206
37.5542687781
41.0296522194
44.5631832592
44.9325176562
45.328798331
13.3771906449
13.3342024204
12.9855647495
15.8467713931
16.1345558831
14.323576299
14.0275744387
16.4581034668
13.7595054441
18.0876580986
18.019165898
17.2668335714
16.2789272708
15.2186469834
17.5301540647
17.2614653431
16.3130297614
16.3408442953
16.9058947934
17.7278985991
18.6973522004
20.1541185543
23.6241205973
25.3041971482
24.4101417542
26.6998987087
28.4787793192
28.0822105369
29.6004604919
30.571965153
30.5846906993
31.3355155685
32.1802398627
33.0863455026
34.0403343559
35.0609437412
36.0994232608
37.1508854652
38.2370981554
39.322053645
40.3837267292
41.3957811038
42.2908230199
43.0250585383
43.6063128055
44.0544865442
44.371871205
44.5512074547
44.5994589512
44.5409117517
44.4204556535
44.3269195184
44.3399401376
44.3630391309
43.9892589717
43.5253933767
43.8772483926
35.9678094725
26.7297031647
0.00474093803437
1.60702689909e-13
3.26350964477e-17
1.13032366494e-19
1.15324423211e-20
9.15167586961e-22
2.57784245062e-22
3.03431452613e-21
3.10032017616e-20
3.50213902606e-19
9.14726383163e-19
1.51897445501e-15
3.98723361426e-13
3.63841367091e-10
1.88464523041e-07
0.000476345884009
29.7292961159
43.4733238678
47.7885521622
51.6876745283
52.0072172788
14.2958156528
14.399080692
16.5031030213
16.5643354472
16.6669629299
15.0627036005
15.1001170036
17.3887688075
14.825673982
18.9027457021
18.5262103968
17.7437989188
16.6583381036
15.6462193351
17.8519852961
17.5649386685
16.8156460788
16.8225532471
17.2900199137
18.0218290803
18.8954270938
20.074790389
23.0910465669
26.0460754327
26.3749598861
26.1191804763
28.5954509717
29.7573077033
28.7895414155
29.4327219547
30.4880123434
31.5215185825
32.4973194559
33.4405828172
34.4081924463
35.4194424486
36.4756251764
37.5587820305
38.6615951131
39.8020279322
40.9362391379
42.0131853916
42.9753413857
43.7840665084
44.4539301268
45.0090199494
45.4414334769
45.7267414405
45.8643834779
45.9032601751
45.9642085384
46.2119457751
46.6780856626
46.8604792505
45.9290491442
44.7470978521
28.8745092003
3.83306110505e-23
4.21596972661e-26
7.90343608893e-28
1.33968657821e-29
3.87604566346e-32
1.10148756827e-34
1.9066541324e-39
1.49139051928e-39
3.6207532295e-39
2.4406739448e-38
1.14319804929e-37
4.22297930056e-37
2.68363735081e-36
2.10122813876e-36
1.82292965203e-34
1.03755156477e-31
1.04296071763e-29
7.91431001915e-28
1.82247435575e-25
3.067797831e-21
28.8989204836
55.5368746551
49.2076649053
15.1612864389
15.3578218358
18.142321257
17.3250208831
16.9125838745
15.7904458618
16.1278082531
18.2018805635
18.1873196965
19.920515224
19.1079457535
18.3177568554
17.1269701812
16.2057813765
18.1908225217
17.7852616777
17.273722691
17.3013609441
17.6850017413
18.321687775
19.1408484724
20.2219956746
22.594520904
26.2313066689
27.6220010985
25.9229688268
27.9967897234
29.8075115268
30.1530275638
29.7169927492
30.4829312407
31.6698155431
32.7968039554
33.8215298684
34.7804846456
35.8066770727
36.8772248202
37.996001353
39.1390793674
40.3204109359
41.5273076203
42.6870806401
43.7188103491
44.5982794755
45.3761455045
46.0940266658
46.6970960983
47.0964629875
47.2813344137
47.4003216961
47.6809220455
48.3154225445
49.2356776664
48.7617976743
40.997743982
17.161324727
2.11964703695e-29
8.5835475906e-32
2.48222301431e-33
3.61366169738e-35
2.93602376519e-38
4.89903701592e-41
3.45335367581e-42
0
0
0
0
0
0
0
0
4.80302604505e-46
1.61996125094e-43
2.42311673893e-41
1.40581473376e-38
1.96357817239e-35
1.0633277656e-30
1.61479157667e-26
1.25895336532e-19
61.5205000563
15.8605595369
16.0786777109
20.2150311575
17.9234888296
16.9227965052
16.4208249676
16.8692530624
18.3671564623
19.7507170603
21.0681645145
19.837157347
19.0244586743
17.8393381982
17.0385968322
18.7319985965
18.1453242423
17.7941795411
17.8152311766
18.1119120435
18.6540406644
19.3907423217
20.3876853977
22.3517024547
26.0349691147
28.5283284079
28.0340327674
27.4422158099
29.0987616172
29.9521502897
29.8160586012
30.8274909132
32.0250096654
33.2029611084
34.242427058
35.2347856407
36.2312890527
37.3231048164
38.4644505007
39.655105427
40.8876338322
42.1552238847
43.404071079
44.5375789214
45.493701189
46.3856588185
47.303234789
48.1245617801
48.6500033105
48.8777796449
49.0630173178
49.5730147263
50.7119243443
51.8882334776
38.7175154284
4.04396524473e-05
3.06876301071e-32
1.006420651e-35
4.06954945647e-37
5.54870817697e-39
1.52160658001e-41
0
0
0
0
0
0
0
0
0
0
0
0
0
6.18869851043e-45
6.14981786659e-44
1.34817332374e-42
6.53710602102e-41
3.63020497592e-37
3.02165050921e-28
5.82471909066e-33
16.3896447617
16.6009034171
22.1986271171
18.3742142867
17.129410093
16.9843532983
17.649918809
17.8877298476
20.6629466635
21.8821815211
20.5268318109
19.735930394
18.7290206224
18.7989141015
19.4933106615
18.7414693941
18.5014599703
18.5115646386
18.6415328152
19.0661776361
19.6874008898
20.5944284381
22.2754648431
25.7918852414
28.8518678173
29.5687475058
27.4337480325
28.1570854194
28.9186802849
29.8252893783
31.0508477757
32.4012629968
33.6064303819
34.7071795147
35.7373386889
36.7868894879
37.8311558891
38.9903702683
40.2142425354
41.4864435314
42.8406162011
44.1934731862
45.4249458003
46.4220402205
47.3813305071
48.7694179945
50.3670421582
51.1395738063
50.9191585875
50.9865484621
51.6003006064
52.8887338763
38.6476543711
1.62393449938e-26
2.44748201763e-31
1.09797891444e-42
1.10952129505e-39
1.81043298867e-41
0
0
0
0
0
0
0
0
0
0
0
0
0
0
0
0
0
0
9.56134517371e-44
6.47478502725e-43
1.19400404085e-40
90.4489558255
16.8200536579
16.9984926712
22.0693221773
17.9187107011
17.3675423782
17.4565109237
18.5224801089
17.962296033
21.4395461309
22.6221049673
21.161751855
20.3786579493
19.4167634815
20.8660115167
20.5242763858
19.5290949515
19.3120344708
19.5236344273
19.3858697277
19.6413654414
20.0767579791
20.8469834875
22.3283727219
25.5314873212
28.6285582184
30.5625920758
29.7059026897
29.1852144035
29.4981846283
29.9185231603
31.2096399048
32.8517881504
33.9943007991
35.1833761473
36.4048782989
37.3626395723
38.4194923887
39.6039018905
40.8685450188
42.1775623965
43.5478915392
44.9888079557
46.3690969248
47.6506132014
48.9973356861
50.7221469506
52.3206112231
53.0312252041
53.4751469188
53.6148461823
53.5568320541
42.0342203679
7.38502045745e-26
6.74104893962e-31
8.85991209561e-35
1.20334588219e-36
0
0
0
0
0
0
0
0
0
0
0
0
0
0
0
0
0
0
0
0
0
0
2.9420104963e-43
2.14135299572e-32
17.2883777267
17.4418794476
21.735102584
17.6450134371
17.6516393554
17.8286686348
19.2662722839
18.4343198485
22.1275747809
23.3411177973
21.7735555507
20.9948547415
19.9689800992
21.6223203958
21.4598570728
20.3575312837
20.0968214226
20.3939088027
20.2697832838
20.4240722318
20.6501611606
21.1587785597
22.535040869
25.4007229282
28.231875816
30.7457314066
30.7813358209
29.7615508098
29.1479040606
30.2572834387
31.5270390778
33.1522617075
34.6160474569
35.9648069642
37.1618591593
38.050659274
39.0896458403
40.2963122686
41.6008786295
42.9684228279
44.3825995074
45.9219443171
47.5640740143
49.273569956
50.6628157742
51.8358770159
53.3484028657
54.8374051189
56.9821950569
57.894187095
45.8532159733
6.72918977402e-25
8.93507935715e-31
1.54080862516e-34
3.16027783785e-37
7.65164055857e-39
2.5683960089e-41
0
0
0
0
0
0
0
0
0
0
0
0
0
0
0
0
0
0
0
0
0
4.94414758731e-44
6.54155884618e-44
17.9760119246
18.1284418364
21.4493262281
17.9180200484
18.1662913309
18.2828613035
19.3087062621
19.118327926
22.6347602448
24.0180201636
22.4002775225
21.6370501076
20.6078738584
22.2837713353
22.2744111845
21.2340401258
20.9065521729
21.21926516
21.122902739
21.3360560801
21.4672686461
21.6154027102
22.9297186285
25.4751282836
27.9713182082
30.6836017767
31.2490553916
30.547603927
29.6186942643
30.3528592003
31.9106624094
33.2660391692
34.6576186384
36.1930190139
37.9729693921
39.0129837381
39.9885318805
41.1010243106
42.3903146836
43.8409744866
45.3739736571
47.0510394078
49.141628617
50.9965882938
51.9331183068
53.0567658168
55.1594730178
58.8966870167
65.457331089
50.8337032937
1.9225504757e-25
3.19369389447e-32
1.32162521691e-36
4.33317534556e-40
2.71883514727e-42
5.51085850839e-42
8.46262228203e-43
0
0
0
0
0
0
0
0
0
0
0
0
0
0
0
0
0
0
0
0
0
3.65436458343e-45
1.65933957802e-44
19.0255627962
19.1429411481
21.7562120004
18.7949398653
19.2449412739
19.085880884
19.627888727
20.3431728631
22.7325496416
24.5297773223
23.0705554998
22.3293901696
21.3331375867
23.0361986976
23.1039218373
22.2442922575
21.8652837725
22.1633418527
21.9735303261
22.3250114489
22.5604277441
22.2660750003
23.4082686277
25.7633230364
27.9127016306
30.4261769046
31.3852589226
31.1834754917
31.336130825
31.0586308309
32.1133485285
33.7623440247
35.6761554209
36.6935573194
38.2607955357
39.9393892067
41.0143056512
42.177541625
43.4009087294
44.8037657475
46.4727968843
48.678172617
51.2116711401
52.5328996517
53.1160033433
54.7427725424
58.8267125771
64.4465285309
57.5217944159
38.3038763872
4.83861864525e-34
4.51751026291e-39
3.09102944244e-41
0
0
0
0
0
0
0
0
0
0
0
0
0
0
0
0
0
0
0
0
0
0
0
0
0
0
0
20.5016219933
20.4058667834
22.5612654297
20.5598733663
21.0747379514
20.2719648089
20.5234554626
22.1142766361
22.9643361956
25.1257837302
23.8331693058
23.0811235674
22.1188966712
23.8178338288
23.9235276463
23.3481710179
23.2542870844
23.3957491564
22.9098089614
23.3855924351
23.9165746214
23.1852482557
23.7656264233
26.1381662152
28.0633537443
30.1907098001
31.4011838522
31.2620695067
32.3990604362
32.4831290036
32.9543193971
33.444365531
35.4233898983
37.6629759055
39.1093804303
40.6681242927
42.0363580456
43.2665794465
44.6090242688
46.0461833971
48.0094254104
50.9521921127
53.2635473602
54.1839917077
55.229722788
58.5985429254
65.427455418
60.9613298851
35.532036834
4.31806710632e-36
7.54889270064e-39
3.45654171677e-41
0
0
0
0
0
0
0
0
0
0
0
0
0
0
0
0
0
0
0
0
0
0
0
0
0
0
0
0
22.0527381852
21.5764114959
23.4084602966
22.8987119573
22.6747820957
21.6199355438
21.4820168496
23.1638432674
22.2818800878
25.5816908863
24.6705336578
23.8822675046
22.9514885621
24.5941822069
24.6710539265
24.254752086
25.1340346198
24.8626264609
23.9371659817
24.522472775
25.1143701551
24.3411084266
23.8542235673
26.0020495381
28.095443475
29.956808177
31.2900196881
31.1696269486
32.6566650282
33.6166059635
34.2264621481
34.0569250799
35.3889527601
37.519127236
39.8781503252
41.7813744933
43.2738950831
44.5162415882
45.8691778171
47.6082961259
50.4006532003
53.5243919553
55.4745510092
56.7267623125
59.1127448467
63.9698219604
64.1608341887
34.6704323581
1.16267697333e-35
1.68322022157e-38
5.8949619374e-41
0
0
0
0
0
0
0
0
0
0
0
0
0
0
0
0
0
0
0
0
0
0
0
0
0
0
0
0
0
22.7742650767
22.3465252093
23.9066748411
23.8521675312
23.6290484557
22.857663929
22.5443361217
24.4114242605
23.2323307712
26.1598224788
25.5107188711
24.7058041104
23.8236299476
25.3737678152
25.3951173612
24.9757726643
26.0013584925
25.855351948
24.8683882334
25.5782634356
25.7170643517
24.9962648456
24.6208976101
24.7973014099
27.3155635878
29.1682992602
30.8065958301
30.8572750007
32.4836707453
33.9686321783
35.2202753329
35.6066810338
35.6621162941
37.3846107097
39.9424355621
42.536024715
44.6164023414
46.1388021554
47.4988865809
49.9627920127
53.3722667787
56.2519608855
58.0202946027
59.9731894475
63.4266388205
59.9715217705
38.8406550256
29.2993271608
5.53294363201e-38
1.57581099097e-40
0
0
0
0
0
0
0
0
0
0
0
0
0
0
0
0
0
0
0
0
0
0
0
0
0
0
0
0
0
0
22.7524517903
22.7562357441
24.1452807683
23.9639444485
24.1710747336
23.7725137582
23.4344944209
25.6311462045
24.7616436363
26.8749614111
26.3839829966
25.5332965046
24.7296144379
26.1716258397
26.1561752966
25.7881884121
26.6833867317
26.6705034554
25.7900064773
26.4249103633
25.505299496
25.541384041
25.4033187119
25.580949671
26.2927741991
27.391562703
29.5265367117
30.1836296994
31.7369664512
33.6680508602
35.386534499
36.7157198784
36.9365048352
37.9381296463
39.9700250544
42.6251913205
45.4753281557
47.8292979103
49.7859728036
53.0089542392
56.4925463735
59.0114647466
60.6167107041
62.6769641159
58.4660913267
39.9030420368
41.0606917804
1.92189879628e-37
4.30523308915e-40
0
0
0
0
0
0
0
0
0
0
0
0
0
0
0
0
0
0
0
0
0
0
0
0
0
0
0
0
0
0
0
22.8426971531
22.9771705971
24.2979000242
23.0013882993
24.3192888591
24.2030967024
23.9675204492
26.1234835449
25.4685648551
27.5564089171
27.2527090063
26.3278710219
25.6739033403
26.9751567804
26.9332883321
26.7142553746
27.4580642266
27.5885495591
26.8379063783
27.6465111839
26.6445544582
26.9110502552
26.4440790934
26.6859128696
27.7922963226
28.3384230224
28.6563021834
29.3342891757
30.8055226484
33.1055932453
34.8848862789
36.5427947614
37.8079018749
38.7160980615
40.8757496902
43.1080538674
46.1024700672
49.3570442748
52.5627296952
56.3786808921
59.621917366
61.6102771421
61.8867094503
60.3559881215
61.459653346
37.2707376894
1.61271565765e-36
3.6714261093e-39
0
0
0
0
0
0
0
0
0
0
0
0
0
0
0
0
0
0
0
0
0
0
0
0
0
0
0
0
0
0
0
0
23.3404652894
23.4411807581
24.4386375586
23.2148627504
24.4108787229
24.3546801247
24.267583524
26.1848736124
25.8868749954
28.0021213603
28.0598684288
27.0290560343
26.6418279643
27.7294371973
27.6367352812
27.5842632676
28.1811563997
28.5700059738
27.927580928
28.8957315939
28.2167770712
28.6968980646
28.5359116673
27.4847236664
28.3466505426
29.1107960936
29.2773285286
28.481221156
29.6771404328
32.3638088235
34.3897561849
35.6419908159
37.0845710191
38.4852534458
40.8544039281
43.4513565309
46.7582149855
50.8504344042
55.5303372121
59.9483906079
62.655515487
63.5376008551
62.3800838475
57.80280938
37.8991964317
52.7419781168
2.55839404694e-38
1.03743447404e-40
0
0
0
0
0
0
0
0
0
0
0
0
0
0
0
0
0
0
0
0
0
0
0
0
0
0
0
0
0
0
0
0
23.9958275371
25.0180100947
24.6899927208
23.9351822118
24.7326685957
24.5268122647
24.5160193864
26.1795444581
26.2291084919
28.0813626591
28.7980850116
27.5958485026
27.4464548812
28.276309223
28.2301460309
28.1680148446
28.3495340284
29.4070865918
29.0369808846
29.9279563078
29.8673259393
29.7979738466
29.6554662999
29.2137288286
28.3808530465
28.8264630088
29.6080831891
27.1925939064
28.2174580975
30.8305083731
33.6290167592
35.3083761809
36.7956239515
37.5855986744
39.8989446818
43.0413112467
46.9150369545
52.174524518
58.5482001166
63.5433617707
65.4773587678
63.078990464
61.9154741386
66.1798567426
44.9062957031
1.73410269267e-37
4.42584716948e-40
0
0
0
0
0
0
0
0
0
0
0
0
0
0
0
0
0
0
0
0
0
0
0
0
0
0
0
0
0
0
0
0
0
24.401515108
25.4756319053
25.1263981206
24.5262755376
25.1590930876
24.822413426
24.7892965157
26.2076345385
26.5256761153
27.8638747762
29.394641574
28.0756989752
27.8230728118
28.6347102854
28.8052314331
28.6049769626
28.3883122673
29.9172657797
30.1225094482
30.7584429828
30.9023857676
31.1016670717
29.993903504
29.9190186731
29.2134235371
29.8631703011
30.2405507109
27.7922309128
26.4042679778
28.4773926784
31.615349947
34.2641383077
35.980362607
36.9024279305
38.198055012
41.5095264845
46.0327707549