/*--------------------------------*- C++ -*----------------------------------*\
| =========                 |                                                 |
| \\      /  F ield         | OpenFOAM: The Open Source CFD Toolbox           |
|  \\    /   O peration     | Version:  v1806                                 |
|   \\  /    A nd           | Web:      www.OpenFOAM.com                      |
|    \\/     M anipulation  |                                                 |
\*---------------------------------------------------------------------------*/
FoamFile
{
    version     2.0;
    format      ascii;
    class       volVectorField;
    location    "657";
    object      Ua;
}
// * * * * * * * * * * * * * * * * * * * * * * * * * * * * * * * * * * * * * //

dimensions      [0 1 -1 0 0 0 0];


internalField   nonuniform List<vector> 
6400
(
(3.51465942156e-05 4.52433431473e-05 0)
(9.47273849493e-05 3.3942757084e-05 0)
(0.000137914813521 2.7571734961e-05 0)
(0.000184441817565 2.4935928312e-05 0)
(0.000219845767382 1.74987562021e-05 0)
(0.000246952907874 1.17958127156e-05 0)
(0.000264453948036 9.91748679415e-06 0)
(0.000280595153585 1.37827608346e-05 0)
(0.000315505340305 1.86731737768e-05 0)
(0.000351849624614 1.88124558051e-05 0)
(0.000373374108607 1.77680019059e-05 0)
(0.000408574485987 1.9155200751e-05 0)
(0.000442939355624 1.89322256284e-05 0)
(0.00047424768196 1.77840365766e-05 0)
(0.00050211530085 1.76401598328e-05 0)
(0.000532137453082 1.94801452916e-05 0)
(0.000567311135876 2.0513731946e-05 0)
(0.000601040472117 1.99554862751e-05 0)
(0.000631481272168 1.89425454197e-05 0)
(0.000662826014318 1.91561585956e-05 0)
(0.000700038822601 2.24591213743e-05 0)
(0.000742745491614 2.57258286941e-05 0)
(0.000787517734733 2.67171232408e-05 0)
(0.000830704618487 2.66501554447e-05 0)
(0.000873053111541 2.60885817726e-05 0)
(0.000915349161728 2.54633026732e-05 0)
(0.000958572705006 2.55631138244e-05 0)
(0.00100137636862 2.54965337156e-05 0)
(0.00104261301965 2.50507900578e-05 0)
(0.00108246185936 2.4746271587e-05 0)
(0.00112095772836 2.50656491639e-05 0)
(0.0011607808747 2.51934049315e-05 0)
(0.00120199576343 2.50287672701e-05 0)
(0.00124269260623 2.58249446868e-05 0)
(0.00128411945445 2.65167236464e-05 0)
(0.00132960990214 2.70929598552e-05 0)
(0.00137404173306 2.78257146974e-05 0)
(0.00141179496706 2.74568296201e-05 0)
(0.00145506193988 2.66396403818e-05 0)
(0.00150237981376 2.63944833996e-05 0)
(0.00154464541317 2.75504132746e-05 0)
(0.00157932386848 2.68784735291e-05 0)
(0.00161138849168 2.30159495415e-05 0)
(0.00164214746878 2.02538282351e-05 0)
(0.00166963906375 1.89718405579e-05 0)
(0.00169432099498 1.75594949111e-05 0)
(0.00171588483671 1.60272257243e-05 0)
(0.0017334980751 1.40169597282e-05 0)
(0.00174721466779 1.20462010012e-05 0)
(0.00175696276045 1.18280567702e-05 0)
(0.00176521431338 1.36998003156e-05 0)
(0.00177744519496 1.28843205206e-05 0)
(0.00178188908458 5.57552870317e-06 0)
(0.00178248321921 1.4491030538e-06 0)
(0.00176993665181 -2.42191947895e-06 0)
(0.00173265702146 -9.65216574802e-06 0)
(0.00169291556546 -8.42042287153e-06 0)
(0.00167438847722 -3.08290367421e-06 0)
(0.00166405816169 -5.47460091923e-06 0)
(0.00161847514474 -7.67091460157e-06 0)
(0.0015849740662 6.73336729409e-07 0)
(0.00154722312135 -5.27584345286e-06 0)
(0.00162581460382 -3.88273955878e-05 0)
(0.00149550549176 -7.58060778122e-05 0)
(0.00119837868273 -6.71934217165e-05 0)
(0.00106072965911 -4.72383696168e-05 0)
(0.000983282276651 -4.57810865017e-05 0)
(0.000922195855222 -4.53368382331e-05 0)
(0.000857974138697 -4.66132037189e-05 0)
(0.000768496538981 -4.91992525403e-05 0)
(0.00067472979537 -4.97493073664e-05 0)
(0.000570078256724 -4.732007019e-05 0)
(0.000472673128602 -4.5578719537e-05 0)
(0.000406522594537 -4.72159009787e-05 0)
(0.000296316526516 -3.65824375487e-05 0)
(0.000252806490088 -3.13420333575e-05 0)
(0.000163407737907 -1.89927879303e-05 0)
(0.000165935221231 -2.52259679039e-05 0)
(7.05305942224e-05 -1.73347615843e-05 0)
(5.25366904505e-05 -3.16648586498e-05 0)
(1.36320229556e-05 6.3928674038e-05 0)
(5.80906808492e-05 7.08630159688e-05 0)
(0.000100606060543 6.37779824685e-05 0)
(0.00012885744878 5.19340420983e-05 0)
(0.000184508841449 5.14854677237e-05 0)
(0.000234480073385 3.80712308861e-05 0)
(0.000266017789255 2.74944303305e-05 0)
(0.000291096265042 3.58441808085e-05 0)
(0.000318926818383 4.56188871935e-05 0)
(0.000349989220925 4.63637903062e-05 0)
(0.000380698393269 4.53594641272e-05 0)
(0.000410551763598 4.58903700287e-05 0)
(0.000440238315026 4.4400922362e-05 0)
(0.000469438555038 4.22169597932e-05 0)
(0.000500007163638 4.26477112219e-05 0)
(0.000531838302684 4.92194693871e-05 0)
(0.000565299496533 5.3144897781e-05 0)
(0.000596695967155 4.74514281937e-05 0)
(0.00061589282899 4.32354643523e-05 0)
(0.000650279288622 4.62695910866e-05 0)
(0.000692528062763 5.54855225515e-05 0)
(0.000738148858799 6.52980683345e-05 0)
(0.000786378514463 6.75699104295e-05 0)
(0.000831165375303 6.45555262556e-05 0)
(0.000868618038603 6.22858311736e-05 0)
(0.000913292522945 6.20406435886e-05 0)
(0.000957718307886 6.14869872827e-05 0)
(0.000999391057183 6.01870379863e-05 0)
(0.00104005479063 5.88398209972e-05 0)
(0.00108046527093 5.80171370291e-05 0)
(0.00112011997745 5.82699343426e-05 0)
(0.00115679544686 5.80685109882e-05 0)
(0.00119790888331 5.69603031913e-05 0)
(0.00123820131884 5.92972858374e-05 0)
(0.00127836234061 6.23193199528e-05 0)
(0.00132806679798 6.21901986883e-05 0)
(0.00137049887429 6.29971723265e-05 0)
(0.00140850418124 6.35505788256e-05 0)
(0.00145481067598 6.18013149864e-05 0)
(0.00150771436815 5.8656843433e-05 0)
(0.00155120996324 5.29725781001e-05 0)
(0.00155967280914 4.61212831071e-05 0)
(0.00157762007077 4.18410977904e-05 0)
(0.00161125791316 3.94568114206e-05 0)
(0.00164066784375 3.69028766545e-05 0)
(0.00166974964312 3.35006320234e-05 0)
(0.00169730603859 2.89639214987e-05 0)
(0.0017191117696 2.34728535501e-05 0)
(0.00174068537921 1.76338444207e-05 0)
(0.00175708214598 1.235843016e-05 0)
(0.00176166396866 8.58967102316e-06 0)
(0.00174743945671 5.0490270868e-06 0)
(0.00173836708933 4.97892093498e-07 0)
(0.00178192094669 -9.79706014676e-06 0)
(0.00176154645433 -2.8386955792e-05 0)
(0.00173675937715 -4.12682831685e-05 0)
(0.00173758144421 -3.97066022233e-05 0)
(0.00172313216367 -3.53537412816e-05 0)
(0.00169945525125 -4.16957468964e-05 0)
(0.0016781872575 -4.99121112528e-05 0)
(0.0016583618786 -5.58978166233e-05 0)
(0.0015280211976 -6.76596888174e-05 0)
(0.00160028219076 -0.000151445303742 0)
(0.00145688861179 -0.000247300050116 0)
(0.0012073160663 -0.000238041422818 0)
(0.00100168725893 -0.000170263213677 0)
(0.000896322728239 -0.000125397915693 0)
(0.000877179961605 -0.000116168132122 0)
(0.000818845745439 -0.000127466299607 0)
(0.000749659495711 -0.000145969986051 0)
(0.000649635646272 -0.000153624284593 0)
(0.000542869440304 -0.000145707115871 0)
(0.000435654453854 -0.000123491253893 0)
(0.000383450214281 -0.00011602974897 0)
(0.000319545619929 -0.000104198037594 0)
(0.00026447707682 -9.17799683795e-05 0)
(0.000210720480418 -7.59794389729e-05 0)
(0.000163224826568 -7.5084292956e-05 0)
(9.97794356716e-05 -7.75214185476e-05 0)
(4.55255436263e-05 -0.000123981466707 0)
(1.88983669911e-05 0.000110519631432 0)
(5.45189117239e-05 0.000118225755736 0)
(8.45949635916e-05 0.000110387824992 7.26824499442e-29)
(0.000140829769403 0.000111218576329 -6.68351032728e-29)
(0.000193355398471 0.000110168441243 -5.83677635582e-29)
(0.000228113625817 9.13445836103e-05 5.30384061449e-29)
(0.00025491015741 5.72049028691e-05 -5.29923321092e-29)
(0.000280607385356 6.32271492872e-05 5.10805914131e-29)
(0.000309447624787 7.63893585707e-05 0)
(0.000341721564116 7.96743816122e-05 0)
(0.000374173980269 7.81818012411e-05 0)
(0.000404678069667 7.59653847473e-05 0)
(0.000434009169674 7.34679702467e-05 0)
(0.000462545078787 7.3082033704e-05 0)
(0.000493289311222 7.57574818352e-05 0)
(0.000525436583869 7.68192013258e-05 0)
(0.000511368796495 6.89920490586e-05 0)
(0.000517189292976 6.48103967566e-05 0)
(0.000551115971391 7.27649683517e-05 0)
(0.000603815900839 9.18345072503e-05 0)
(0.000686427611475 0.000111932740303 0)
(0.000741499388637 0.000117570614379 0)
(0.000777830949527 0.000113923848884 0)
(0.00082203000897 0.000109781183123 0)
(0.000867802268299 0.000107729921195 0)
(0.000909915122408 0.000106820691803 0)
(0.000951483859518 0.000105034922293 0)
(0.000993360228412 0.000103005664579 0)
(0.00103448450762 0.0001013364188 0)
(0.00107447107615 0.000100348441219 9.29146874063e-29)
(0.00111557472783 9.97070794887e-05 -8.98280367875e-29)
(0.00114968897722 9.89611992048e-05 0)
(0.0011897060503 9.88218156042e-05 0)
(0.00123773675968 0.000100591129809 0)
(0.00126555506118 0.00010622838939 0)
(0.00131594863088 0.000110681761864 0)
(0.00137205104075 0.000109584396455 0)
(0.00140181921667 0.000109332009791 0)
(0.00145010744745 0.000110978696486 0)
(0.00150484033312 0.000105316357896 0)
(0.00154874742592 9.00648669915e-05 0)
(0.0015819159932 7.69793972404e-05 0)
(0.00161269559583 7.32396380981e-05 0)
(0.00164319278741 7.14987737992e-05 0)
(0.00167092161366 6.75806323328e-05 0)
(0.00169551289701 6.20275775235e-05 0)
(0.00171716114957 5.46306037837e-05 0)
(0.00173581749186 4.62003118539e-05 0)
(0.00175159607591 3.67665222369e-05 0)
(0.00176409892257 2.55704749786e-05 0)
(0.00177280806745 1.41172449371e-05 0)
(0.00177792853367 7.1447619615e-06 0)
(0.00178025990002 5.10517663335e-06 0)
(0.00177082259445 -9.92591781931e-06 0)
(0.0017499837625 -3.35718366972e-05 0)
(0.00174763502986 -4.50654863145e-05 0)
(0.00174069092856 -4.82969750678e-05 0)
(0.00172172868708 -5.29521804313e-05 0)
(0.00169674454072 -6.14903013097e-05 0)
(0.00166853791515 -7.56315189093e-05 0)
(0.00162430656022 -0.000104635265684 0)
(0.00157714570062 -0.000151173336826 0)
(0.00153124344876 -0.000297143233352 0)
(0.00130309299347 -0.000418596710425 0)
(0.00102852391584 -0.000353724483879 0)
(0.000935817546617 -0.000267025058333 0)
(0.000889869274677 -0.000211570574003 0)
(0.000818232863849 -0.00019077474803 0)
(0.000747282742011 -0.000207638601063 0)
(0.000666321505753 -0.000232865671368 0)
(0.000571135009843 -0.000237666870877 0)
(0.000485434259749 -0.000218481294747 0)
(0.000430635887429 -0.000196193771143 0)
(0.000378734567716 -0.000183702261181 0)
(0.000314159405205 -0.000171509690632 0)
(0.000249798374174 -0.00015266477617 0)
(0.000191266966868 -0.000132751506797 0)
(0.00014421589374 -0.000136814214674 0)
(9.88034037709e-05 -0.000172376185634 0)
(2.49613401612e-05 -0.00016880728553 0)
(1.75624968646e-05 0.000161032838339 0)
(2.66853174934e-05 0.000112445116249 0)
(6.71750132308e-05 0.000163957500945 0)
(0.000118325012371 0.000163666548788 0)
(0.000166224926025 0.000142717217654 0)
(0.000103567778794 6.2206830512e-05 0)
(0.000132112431926 6.6274267915e-05 0)
(0.000237903110018 0.000115820024501 0)
(0.000288296714531 0.00012206251646 0)
(0.000326505638044 0.000116071927432 0)
(0.000362767275786 0.000111709207459 0)
(0.000395448251531 0.000106522103278 0)
(0.00042552620026 0.00010256248061 0)
(0.000451076240481 9.69628131544e-05 0)
(0.000449878435798 8.57319896223e-05 0)
(0.000447891652137 7.7519363978e-05 0)
(0.000465120738615 7.98177716553e-05 0)
(0.000508052866547 9.93728356505e-05 0)
(0.000581180864412 0.000131430942345 0)
(0.000649871054133 0.000159846259034 0)
(0.000689486481411 0.000166745602855 0)
(0.00073056965724 0.000162226169548 0)
(0.000774709155697 0.000157560165391 0)
(0.00081752504548 0.000154065984599 0)
(0.000859417717798 0.00015076160871 0)
(0.000900727326096 0.000147988856873 0)
(0.000941843446919 0.00014588161623 0)
(0.00098502937349 0.000143983529349 0)
(0.00102501425163 0.000141781166526 0)
(0.00106801708926 0.00014050233022 0)
(0.0011035924507 0.000138871301211 0)
(0.00114657296858 0.000137786595619 0)
(0.00117589866507 0.000135568770348 0)
(0.0012205926274 0.000140752691687 0)
(0.00127661371019 0.000150602947334 0)
(0.00130929540097 0.000156552423911 0)
(0.00136454147724 0.000158160601828 0)
(0.00142024314389 0.00015775229679 0)
(0.00146405123293 0.000156398370936 0)
(0.00150543124809 0.000146883966155 0)
(0.00154511040301 0.000129770473312 0)
(0.00158088074752 0.000114054564953 0)
(0.00161384531951 0.000105029095008 0)
(0.00164464410864 9.90948730595e-05 0)
(0.00167239487449 9.23237973956e-05 0)
(0.00169698544957 8.38934257151e-05 -7.93827317091e-29)
(0.00171857138528 7.38462699145e-05 7.98372171237e-29)
(0.00173713752044 6.25125380689e-05 0)
(0.00175265660573 4.99486697129e-05 0)
(0.00176489196012 3.62173846929e-05 0)
(0.00177341139032 2.26242542229e-05 0)
(0.00177755252504 1.06142051213e-05 0)
(0.00177646062823 -2.56942443847e-06 0)
(0.00176876172534 -2.19262477125e-05 0)
(0.00175797035222 -4.10587564516e-05 0)
(0.00174832980433 -5.40168696472e-05 0)
(0.00173529721318 -6.50499936022e-05 0)
(0.00171408237956 -7.73252791484e-05 -1.5417537371e-28)
(0.00168410352981 -9.38523759826e-05 1.79159984981e-28)
(0.00164247738631 -0.000120907931698 0)
(0.00158022295063 -0.00016987407679 0)
(0.0014923791687 -0.000268017058828 0)
(0.0013631849593 -0.000445882105589 0)
(0.00122144869093 -0.000579815900253 0)
(0.00108694210931 -0.000524581985671 0)
(0.000891861782586 -0.000351591668392 0)
(0.000801165586456 -0.000276987993754 0)
(0.000738832901183 -0.000265762950119 0)
(0.000674021641393 -0.000285562382033 0)
(0.000615196817337 -0.000319682751978 0)
(0.000541766202501 -0.000326711048147 0)
(0.000468135778397 -0.000300261010981 0)
(0.000397914614312 -0.000268133301754 0)
(0.000315558984109 -0.000238698074017 0)
(0.000255343539474 -0.000225597664117 0)
(0.000199921602952 -0.000216608470913 0)
(0.000141030256678 -0.00019209296085 0)
(8.11369194378e-05 -0.000152469866928 0)
(5.90243192724e-05 -0.000190400694283 0)
(1.95238421813e-05 -0.000218261821838 0)
(1.67781703025e-06 0.000162388164046 0)
(1.39641013229e-05 0.00013598689979 0)
(5.75151604523e-05 0.000210406331921 0)
(9.82122297738e-05 0.000197961303028 0)
(0.000111247039966 0.000139712703985 0)
(9.23329097147e-05 8.43444569109e-05 0)
(0.000157521785949 0.000134912204893 0)
(0.000230303496777 0.000180710407733 0)
(0.000264881791955 0.000168626313093 0)
(0.000306055524295 0.000155825359915 0)
(0.000344840221684 0.00014971472367 0)
(0.000379459562261 0.000140885491003 0)
(0.000395461149018 0.000121004525603 0)
(0.000382454318052 9.65990427155e-05 0)
(0.000401464278537 9.33180238191e-05 0)
(0.000438416922652 0.000105708025222 0)
(0.000492760897168 0.000130933106083 0)
(0.000555302515272 0.000164619439641 0)
(0.000605382713632 0.000190321524132 0)
(0.000637253896462 0.000199293788996 0)
(0.000677167966012 0.000204429520252 0)
(0.000721947845857 0.000205693676256 0)
(0.000764348191295 0.000201726962056 0)
(0.000806436671442 0.000196542863161 0)
(0.000847774080784 0.0001921893953 0)
(0.000888329945366 0.000189439969424 0)
(0.000931575842904 0.000187569897459 0)
(0.000970557274683 0.000184881116482 0)
(0.00101621135737 0.000183072665324 0)
(0.00105082633124 0.00017969841327 0)
(0.00109791329732 0.000178822575456 8.91271531523e-29)
(0.00111946915551 0.000174680510961 -8.49647269823e-29)
(0.00117295906521 0.000179245407824 0)
(0.00122687916908 0.000187046910085 0)
(0.00126388675478 0.000195981387337 0)
(0.00132364621014 0.000207448660231 0)
(0.00137416886756 0.000211305929727 0)
(0.00142028994045 0.000206056224503 0)
(0.0014632244844 0.000197319680609 0)
(0.00150415934684 0.00018491099606 0)
(0.00154371039665 0.000168064052187 0)
(0.00158079265552 0.000151264101384 0)
(0.00161505166136 0.000138459863645 0)
(0.00164640015493 0.000128344125487 0)
(0.0016744661684 0.000118145666301 0)
(0.00169926898943 0.000106659955015 0)
(0.00172092290139 9.36755403506e-05 0)
(0.00173940137169 7.93033024153e-05 0)
(0.00175457598494 6.35721054461e-05 0)
(0.00176618120947 4.6633773324e-05 0)
(0.00177377125727 2.91859949129e-05 0)
(0.00177663249629 1.15978761077e-05 0)
(0.00177403769073 -7.59894279415e-06 0)
(0.00176601308822 -2.94338546401e-05 0)
(0.00175498760519 -5.02920607114e-05 0)
(0.0017424287156 -6.81399701429e-05 0)
(0.00172459036429 -8.63186181382e-05 0)
(0.00169640116681 -0.000108801842204 0)
(0.00165358885065 -0.000140702354225 0)
(0.001589855594 -0.000191329296113 0)
(0.00149760221861 -0.000274362979911 0)
(0.00137934782783 -0.000403102381375 0)
(0.0012390949379 -0.000564773836244 0)
(0.00116071736766 -0.000684991016723 0)
(0.0010778225282 -0.000656366506813 0)
(0.000905557074133 -0.000496778280006 0)
(0.000781918886347 -0.000394516725198 0)
(0.000681793870579 -0.000354096471589 0)
(0.000600560565687 -0.000356940825495 0)
(0.000538466560302 -0.000384283613588 0)
(0.000479279637496 -0.000401122791881 0)
(0.000407406195918 -0.000376378086112 0)
(0.000321584755445 -0.000324170898995 0)
(0.000262610246129 -0.00030071501364 0)
(0.000206868096878 -0.000292029758574 0)
(0.000151392025598 -0.000278499673095 0)
(9.97408533375e-05 -0.000228285419239 0)
(6.32214272682e-05 -0.00019274746921 0)
(3.93333995801e-05 -0.000235742227271 0)
(9.5545744288e-06 -0.000241588725716 0)
(-6.43581199412e-07 0.000152146921464 0)
(1.53468042278e-05 0.000163190631648 0)
(5.49148064225e-05 0.000238381773699 0)
(7.93710645899e-05 0.000208201410201 0)
(6.31717755428e-05 0.00011256682533 0)
(8.9374091279e-05 0.000118607905203 0)
(0.000181647753787 0.00020624981205 0)
(0.000213017387385 0.000216498680812 0)
(0.000244233305079 0.000205847395419 0)
(0.000281816781713 0.000196580865245 0)
(0.000320719121662 0.000181820585566 0)
(0.00031643431429 0.000145999476068 0)
(0.000301179266125 0.000110642380688 0)
(0.000331475685526 0.000111387360514 0)
(0.000372484929818 0.000130131757734 0)
(0.000438124659511 0.000162671515371 0)
(0.00050383182111 0.000193765077341 0)
(0.000553070918775 0.000213239253054 0)
(0.000579581619062 0.000221313013462 0)
(0.000621171910848 0.000236044754511 0)
(0.00066737461101 0.000247742036236 0)
(0.000708776338031 0.000248463558789 0)
(0.000749962126968 0.000244069560599 0)
(0.00079100979268 0.000238660134545 0)
(0.000834393007114 0.000234528337195 0)
(0.000874996269124 0.000230175708544 0)
(0.000909817342097 0.000227782756132 0)
(0.000960422017212 0.000227769214538 0)
(0.000990466825199 0.000221771973801 0)
(0.00104391823677 0.000219738750968 0)
(0.00105842520465 0.000212630391892 0)
(0.00111941773622 0.000219573258171 0)
(0.00114177015434 0.000222496129625 0)
(0.00120978685495 0.000237059104109 0)
(0.00127617074832 0.000252818257585 0)
(0.00132776300755 0.000261137823098 0)
(0.001374030422 0.000258533675221 0)
(0.00141849482957 0.000250060373993 0)
(0.00146140500698 0.000238686659765 0)
(0.00150295906601 0.000224362462539 0)
(0.00154304992757 0.000206852017178 0)
(0.00158102930667 0.000188657925261 0)
(0.00161627604421 0.000172535789418 0)
(0.00164833164393 0.000158349706797 0)
(0.00167694833617 0.000144420802585 0)
(0.00170213111396 0.000129587211018 0)
(0.0017239559189 0.00011341065221 0)
(0.00174232033942 9.57690302722e-05 0)
(0.00175697405924 7.65898257989e-05 0)
(0.00176759150316 5.59362740034e-05 0)
(0.00177373180225 3.41062696764e-05 0)
(0.00177480932893 1.11859681361e-05 0)
(0.00177043401389 -1.32005362798e-05 0)
(0.00176102940625 -3.85831951119e-05 0)
(0.00174781557322 -6.31836742242e-05 0)
(0.0017302053507 -8.76443945015e-05 0)
(0.0017038228421 -0.000116266285164 0)
(0.00166280243712 -0.000154549306655 0)
(0.00160161969413 -0.000209255441548 0)
(0.00151467542343 -0.000288162193505 0)
(0.00140299878917 -0.000397051477245 0)
(0.00127931770883 -0.000528750492497 0)
(0.00112315976413 -0.000640961365922 0)
(0.00111394631483 -0.000790134381304 0)
(0.000968582577704 -0.000746117416928 0)
(0.000821356408296 -0.000598643952266 0)
(0.000723128023696 -0.000508459510262 0)
(0.000618643713619 -0.00045233845478 0)
(0.000523800980926 -0.000430956728135 0)
(0.000464124950678 -0.000459193492612 0)
(0.000406581104105 -0.000480658140208 0)
(0.0003270942616 -0.000426924503174 0)
(0.000265585300062 -0.000379117736249 0)
(0.000215250698769 -0.000364345401177 0)
(0.000157996273032 -0.000351292187467 0)
(0.000113649060024 -0.000326333724959 0)
(7.29471611153e-05 -0.000254830235801 0)
(4.46762021101e-05 -0.00022301569174 0)
(2.5028269984e-05 -0.000260637525195 0)
(6.56660653172e-06 -0.000257207284113 0)
(4.62184579168e-06 0.000163929621513 0)
(3.14592064085e-05 0.00020709136379 0)
(6.70487909136e-05 0.000256980972621 0)
(7.56394208425e-05 0.000247073715727 0)
(5.6359169216e-05 0.000141530505557 0)
(0.000118850388808 0.000198855869 0)
(0.000175527225098 0.000245389532991 0)
(0.000195662040047 0.000243259466137 0)
(0.000224338290114 0.00023582204834 0)
(0.000249539146226 0.000226566565789 0)
(0.000293209757502 0.000206576097611 -2.41529782637e-28)
(0.000246328595684 0.000133752289774 1.56766338273e-28)
(0.000283798948239 0.000134720715362 0)
(0.000313943320247 0.000150820054642 0)
(0.000373709329398 0.000188589755489 0)
(0.000444106364445 0.000230483376201 0)
(0.000494107276169 0.000246552153129 0)
(0.000513549577436 0.000242831792153 0)
(0.000557290072207 0.000259104094321 0)
(0.000608988403595 0.000281642284525 0)
(0.000649631977233 0.000290025927292 0)
(0.000691279357224 0.000290012440581 0)
(0.000733337227276 0.000286472315234 0)
(0.000775169207263 0.000280608224949 0)
(0.000813348046926 0.000273465718569 0)
(0.000849151461481 0.000268144936743 0)
(0.000897884979552 0.000268691385563 0)
(0.000922465355249 0.000265534592651 0)
(0.000982962988948 0.000264573343916 0)
(0.00099319836326 0.000249147998337 0)
(0.00105869135666 0.000256321876339 0)
(0.00108285706724 0.000261782239813 -8.37461020612e-29)
(0.00114987039836 0.000277619808063 8.47094449461e-29)
(0.00120713999643 0.000297491759305 0)
(0.00127632500273 0.000312600304759 0)
(0.0013258908213 0.000311972954698 0)
(0.00137079371417 0.000304251909658 0)
(0.00141528091013 0.000293649125709 0)
(0.00145920736185 0.000280722484089 0)
(0.00150186393612 0.000264975981977 0)
(0.00154280937404 0.000246351600165 0)
(0.00158168066143 0.000226458803515 0)
(0.00161784361843 0.000207266705494 0)
(0.00165071290494 0.000189191784804 0)
(0.00168001601201 0.000171377751647 0)
(0.0017057102734 0.000152894787588 0)
(0.00172775389495 0.000133164318603 0)
(0.0017459047998 0.000111843820022 0)
(0.0017597926195 8.87209793222e-05 0)
(0.00176904265365 6.37525504304e-05 0)
(0.00177324272596 3.70651354331e-05 0)
(0.0017719437559 8.81781011244e-06 0)
(0.00176494376558 -2.07384421299e-05 0)
(0.00175246993815 -5.09800559888e-05 0)
(0.00173447539359 -8.18559136316e-05 0)
(0.0017087646903 -0.000116153028282 0)
(0.00167022899388 -0.000159446511103 0)
(0.00161332911968 -0.000217530689407 0)
(0.00153554492206 -0.000295047861932 0)
(0.00144023458084 -0.000394271105472 0)
(0.00133392619014 -0.000512091938659 0)
(0.00122479737767 -0.000636359909319 0)
(0.00113233226479 -0.000759219280447 0)
(0.00106322794371 -0.00088242684858 0)
(0.000931246705092 -0.000864009726518 0)
(0.000729361999121 -0.000683619751681 0)
(0.000655292418875 -0.00061234357971 0)
(0.0005618400228 -0.000565808571835 0)
(0.000463144941064 -0.000536031999879 0)
(0.000388735166051 -0.000544591564701 0)
(0.000326752941468 -0.000531177982736 0)
(0.000266288690268 -0.00046858517897 0)
(0.000220812530067 -0.000440087373737 0)
(0.000166062951796 -0.000423172689423 0)
(0.000115980102483 -0.000403168302477 0)
(7.94731501003e-05 -0.000348070025138 0)
(5.14467023159e-05 -0.000289962267155 0)
(2.17285463593e-05 -0.00024830973923 0)
(7.81327550494e-06 -0.00027215750582 0)
(2.71457101409e-06 -0.000271959819118 0)
(9.58778896441e-06 0.00018812742339 0)
(4.18134119017e-05 0.000245534699667 0)
(7.11675401254e-05 0.000266205874295 0)
(4.75398394765e-05 0.000176077045822 0)
(5.58830096972e-05 0.000172381168774 0)
(0.000126991502897 0.0002612101355 0)
(0.000154330560201 0.000269966358907 0)
(0.000178985610986 0.000268524436522 0)
(0.000196972028963 0.000258773913142 0)
(0.000227734403319 0.000251151439428 0)
(0.000198801448723 0.000172656762816 0)
(0.000227976505694 0.00015706761099 0)
(0.000263775227133 0.000168309970989 0)
(0.000300730480213 0.000196424342011 0)
(0.000378159310341 0.000254798717867 0)
(0.000432300346393 0.00028173646925 0)
(0.000447286915924 0.000271087461972 0)
(0.000485524353177 0.000280328622786 0)
(0.000542158944052 0.000308919914353 0)
(0.000588252826826 0.000326246407634 0)
(0.000627725789119 0.00033086053516 0)
(0.000667992233906 0.00033066986354 0)
(0.000711687614074 0.000329252363141 0)
(0.000753215432946 0.000323040501606 0)
(0.000796665672552 0.000313388944043 0)
(0.000824880589131 0.000308217813753 0)
(0.000879677526329 0.000310295466116 0)
(0.000910474544052 0.000304051194479 0)
(0.000935430912462 0.000294937831077 0)
(0.000982489551822 0.000295742267245 0)
(0.00105480366109 0.000307954347095 0)
(0.00108478284257 0.000310803900905 0)
(0.0011326409475 0.000332707653031 0)
(0.00121745349774 0.000362291970951 0)
(0.00127065725962 0.000368789401678 0)
(0.00131888230922 0.000361208462213 0)
(0.00136556810028 0.000350363163031 0)
(0.00141138647208 0.00033824958309 0)
(0.001456638908 0.000324063396022 0)
(0.00150068524872 0.000306930572579 0)
(0.00154283786751 0.000286825139897 0)
(0.00158274136269 0.00026492641971 0)
(0.0016199095533 0.000242733283502 0)
(0.00165374442046 0.000220887756435 0)
(0.00168388821422 0.000199080437001 -7.68795289883e-29)
(0.00171019886901 0.000176635446205 7.66366256261e-29)
(0.00173246598375 0.000152893240306 0)
(0.00175027237615 0.000127329904546 0)
(0.00176312772163 9.96205788651e-05 0)
(0.00177060978818 6.96622057457e-05 0)
(0.00177230105286 3.75406581499e-05 0)
(0.00176779718718 3.49972217721e-06 0)
(0.00175685515848 -3.20785434743e-05 0)
(0.00173919386173 -6.91122171784e-05 0)
(0.00171360399703 -0.000109173725491 0)
(0.00167685764539 -0.000156583871658 0)
(0.0016241867674 -0.000217063219851 0)
(0.00155360138578 -0.000293419231203 0)
(0.00147028191127 -0.000385530895917 0)
(0.00138203365785 -0.000492941426179 0)
(0.00129028047644 -0.000610978381926 0)
(0.0011991025762 -0.000728912963715 0)
(0.00111914733768 -0.000843181872337 0)
(0.00103828702864 -0.000957269644525 0)
(0.00101776769536 -0.00106467635102 0)
(0.000733375465541 -0.000835265863465 0)
(0.00057210189143 -0.000714884564571 0)
(0.00047377532666 -0.000665801048894 0)
(0.00037178081864 -0.000623214676011 0)
(0.00030127334012 -0.00060402593316 0)
(0.000255871916834 -0.000563335244705 0)
(0.000216293000349 -0.000514521115147 0)
(0.000172301734182 -0.000496343712934 0)
(0.000119997586267 -0.000476936738336 0)
(7.75368179783e-05 -0.000441793802994 0)
(4.5179309342e-05 -0.000373863236452 0)
(1.85469965275e-05 -0.000323035548349 0)
(-7.49983896572e-06 -0.000276103279038 0)
(-1.68579741351e-05 -0.000273657225145 0)
(-7.08673928811e-06 -0.000274669209624 0)
(1.26295442677e-05 0.00021694127759 0)
(4.42370031048e-05 0.000273787382782 0)
(5.54970665871e-05 0.000273345651692 0)
(4.20921756185e-05 0.000191032751008 0)
(7.22057994482e-05 0.00021962765142 0)
(0.000121906231817 0.00028906267475 0)
(0.0001341454924 0.000292050499141 0)
(0.000162606683227 0.000291155102596 0)
(0.000163051093428 0.000261661349878 0)
(0.000207690310499 0.000281660888383 0)
(0.000177904347149 0.000192283423305 0)
(0.000215125322197 0.000189505228976 0)
(0.000246003763399 0.000205997643802 0)
(0.000301607246003 0.000257661030377 0)
(0.000365467483968 0.000310726202224 0)
(0.000404561344529 0.000319117253358 0)
(0.000418468312151 0.000305654902872 0)
(0.000465918812882 0.000328045423388 0)
(0.00051789202449 0.000356414156572 0)
(0.000561652712396 0.000369339327584 0)
(0.000603753624535 0.000372517660969 0)
(0.000642636607904 0.000370898033365 0)
(0.00068520419089 0.00036963750388 0)
(0.00072037515327 0.000362133528856 0)
(0.000754242471707 0.000347605931141 0)
(0.000809983222301 0.000349574801177 0)
(0.000822118931649 0.000342426241194 0)
(0.000901332212877 0.000349508357565 0)
(0.000912909758655 0.00033989757747 0)
(0.000991205791768 0.00035369268638 0)
(0.00100651846685 0.00034757766415 0)
(0.00109043279507 0.000370709960709 0)
(0.0011515002499 0.000399984619233 -8.80787808487e-29)
(0.00120927519471 0.000420038378144 8.78166733902e-29)
(0.00126093958038 0.000419934804348 0)
(0.00131037590382 0.000410401555904 0)
(0.00135912562413 0.000398156233346 0)
(0.00140682746329 0.000384601446216 0)
(0.00145366033362 0.000369025142178 0)
(0.00149926193977 0.000350409370898 0)
(0.00154295094757 0.000328562026965 0)
(0.00158422523138 0.000304389842231 0)
(0.00162261537199 0.000279143957751 0)
(0.00165760309447 0.000253555241001 0)
(0.00168878963456 0.000227622564805 0)
(0.00171584257032 0.000200849829569 0)
(0.00173833005336 0.000172536237082 0)
(0.00175566827102 0.000142036499893 0)
(0.00176725377991 0.000108958835397 0)
(0.00177256775743 7.31829687871e-05 0)
(0.00177111621177 3.47678104943e-05 0)
(0.00176240418482 -6.09254758669e-06 0)
(0.00174593514671 -4.92830448826e-05 0)
(0.00172080578482 -9.55521565125e-05 0)
(0.00168495952034 -0.000147609452176 0)
(0.00163520269827 -0.000209995081415 0)
(0.0015688762706 -0.000286519309057 0)
(0.00149068975799 -0.000373609840766 0)
(0.00141376688291 -0.000469454173307 0)
(0.00134074695392 -0.000579889183017 0)
(0.00125866460727 -0.000701865604806 0)
(0.00116564275899 -0.000814889019965 0)
(0.0010848941027 -0.000913807066373 0)
(0.00102352306941 -0.00101621095141 0)
(0.00100198742704 -0.00113323072848 0)
(0.000891737483784 -0.00112358842388 0)
(0.000543178646713 -0.000843825792004 0)
(0.000376326847741 -0.00078170785015 0)
(0.0002825210731 -0.000721661096321 0)
(0.000220277777135 -0.000654215852945 0)
(0.000189000505962 -0.000587601850504 0)
(0.000165018482811 -0.000556551977702 0)
(0.000126123463507 -0.000547037224797 0)
(7.89668296535e-05 -0.000524208163759 0)
(3.72067201466e-05 -0.000474225869791 0)
(9.28460384804e-07 -0.000409402035641 0)
(-3.04424040107e-05 -0.000351385417604 0)
(-4.94988402872e-05 -0.000298963321657 0)
(-4.61449504297e-05 -0.000265850719477 0)
(-1.88100562903e-05 -0.00025004192573 0)
(1.41770320566e-05 0.00025006761075 0)
(4.60121504012e-05 0.000292563391566 0)
(4.68524197449e-05 0.000270800573309 0)
(3.90761219383e-05 0.000204264372769 0)
(8.33403172485e-05 0.00028155583302 0)