/*--------------------------------*- C++ -*----------------------------------*\
| =========                 |                                                 |
| \\      /  F ield         | OpenFOAM: The Open Source CFD Toolbox           |
|  \\    /   O peration     | Version:  v1806                                 |
|   \\  /    A nd           | Web:      www.OpenFOAM.com                      |
|    \\/     M anipulation  |                                                 |
\*---------------------------------------------------------------------------*/
FoamFile
{
    version     2.0;
    format      ascii;
    class       volScalarField;
    location    "461";
    object      p;
}
// * * * * * * * * * * * * * * * * * * * * * * * * * * * * * * * * * * * * * //

dimensions      [0 2 -2 0 0 0 0];


internalField   nonuniform List<scalar> 
6400
(
0.154853556672
0.1548559517
0.154862745522
0.154875891834
0.154895093822
0.15492019771
0.154951234377
0.154989215818
0.155034588501
0.155088087109
0.155154958726
0.155237944048
0.155334248539
0.155443884412
0.155568609241
0.155710562309
0.15587079958
0.156048973807
0.156243393125
0.156449338086
0.156661201103
0.15687954581
0.157110411522
0.157360491154
0.157634202262
0.157931401431
0.158248785686
0.158583945073
0.15893660214
0.159307425788
0.159696932162
0.160103469951
0.160521383327
0.160944998132
0.161372003046
0.161799235807
0.162226339756
0.162659873387
0.16309876609
0.163533420227
0.16396495376
0.164406780999
0.164865985396
0.165334907918
0.165803960436
0.166267082265
0.16671970418
0.167158721655
0.167581419701
0.167985542539
0.168369542344
0.168729301391
0.169058415915
0.169348426485
0.169599109241
0.16981748167
0.170001671043
0.1701447489
0.170246775265
0.170316104577
0.170359167328
0.170380689473
0.170386915967
0.170380743132
0.170358795299
0.170309088617
0.170230102319
0.170138273496
0.170051073252
0.169974047543
0.169905981746
0.169843573977
0.169784593072
0.169731697658
0.169684285234
0.169643210075
0.16960920171
0.169586986641
0.169572794124
0.169566825825
0.154850004892
0.154852531072
0.15485862999
0.154871482885
0.154892058956
0.154918500649
0.15494998499
0.154986465338
0.155030098017
0.155083517706
0.155150077243
0.155231992035
0.155328532805
0.15543907306
0.155564036775
0.15570474901
0.155864336698
0.156043195824
0.15623905804
0.156445887106
0.156655985227
0.156872187763
0.157102283476
0.157352097194
0.157626143108
0.15792412201
0.158241754812
0.158577467592
0.158931097072
0.159302711111
0.159692248205
0.160099191415
0.160518221429
0.160941973901
0.161369242722
0.161796794118
0.162223637821
0.1626576325
0.163097607823
0.163532607778
0.163962242508
0.164403942788
0.164867234491
0.165339179421
0.165809678142
0.166274356606
0.166728486379
0.167169327629
0.167593650549
0.16799773097
0.168380130451
0.168740986029
0.169076079446
0.169368140603
0.169620047854
0.16984136231
0.170023593455
0.170163016401
0.170263826106
0.170331662931
0.170372059601
0.170392564662
0.170397432521
0.170390365493
0.170367786924
0.170317599679
0.170235742799
0.170140811195
0.170051124391
0.169971912251
0.169902144146
0.169838182069
0.16977746632
0.169722714185
0.169675236919
0.169635095531
0.169603413776
0.169581806892
0.169568002287
0.169563388774
0.154840118989
0.154844345151
0.1548497643
0.15486154537
0.154881463705
0.154911143877
0.154945533782
0.154980937255
0.155022250835
0.155074365621
0.155140212027
0.155221544724
0.155318245532
0.155429453907
0.155554517987
0.155692061536
0.155849583963
0.156033693828
0.156232819785
0.156438573655
0.156644666665
0.156855349849
0.157084025855
0.157336103148
0.157610894858
0.157908522745
0.158227362049
0.158564919573
0.15892013041
0.159293089307
0.15968347579
0.160091476407
0.160512899015
0.160936292318
0.161362241664
0.161791997262
0.162218786696
0.16265141288
0.163092405665
0.163530255019
0.163966280509
0.164412616406
0.164874915488
0.165346177301
0.165817874675
0.16628444689
0.166741514041
0.167185641061
0.1676135244
0.168022117307
0.168409267496
0.168772247711
0.169104844894
0.169400113249
0.169659932375
0.169882531107
0.170061992988
0.170199022464
0.17029744932
0.170362403107
0.170400257936
0.170417874376
0.170419711455
0.170411883987
0.170387355058
0.170332413239
0.170247855361
0.170149066961
0.170052755506
0.169967380357
0.169892508619
0.169824642152
0.169762858369
0.169708525539
0.169661169162
0.169621915405
0.169592285936
0.169571889041
0.169559174302
0.169554604195
0.154826335488
0.154830599646
0.1548349899
0.154845801174
0.154863315801
0.154892856061
0.154937083501
0.154972494448
0.155010602732
0.155060428716
0.15512513124
0.155206117908
0.155303241237
0.155414247423
0.155539387308
0.155681821089
0.155844037096
0.156025818122
0.156217457839
0.156412137662
0.156613663774
0.156827595853
0.15705847163
0.157310872336
0.1575866488
0.157885709476
0.158206446993
0.158546206361
0.158903719294
0.159278482646
0.159671100079
0.160080756794
0.160503788646
0.160931161531
0.161354420857
0.161780578168
0.162211308347
0.162643817551
0.163081559956
0.163522855014
0.163967087771
0.164419854334
0.164884610792
0.16535736038
0.165831474549
0.166301389711
0.1667625911
0.167211344539
0.167644264154
0.168058229516
0.168450352534
0.168817049411
0.169153249034
0.169454357507
0.169718410486
0.169941577643
0.170120279961
0.170255417277
0.170350945484
0.170412369649
0.170446279843
0.170459272714
0.17045755114
0.170447684053
0.170420388985
0.1703618442
0.170269107828
0.170159875076
0.170052630156
0.169957839802
0.16987696214
0.169806899316
0.169744653507
0.169687729647
0.169638103816
0.169600265457
0.169573773669
0.169553609836
0.16953972922
0.169534045536
0.154804854998
0.15480549004
0.154810910921
0.154821992859
0.154841475169
0.15486927615
0.154909410523
0.15494870329
0.154989465228
0.155039922866
0.155103794934
0.155184671099
0.155282729335
0.155399033791
0.15553166624
0.155675315029
0.155831782434
0.15600153813
0.156182554367
0.156374279206
0.156576969361
0.156791947081
0.157023996242
0.157277748685
0.157554923966
0.157855800303
0.158178539031
0.158521095321
0.158881487873
0.159259414198
0.15965420935
0.160067917517
0.160495813975
0.160920388405
0.161342754399
0.161767165123
0.16219437038
0.162628299757
0.163069306229
0.163515813541
0.163967495171
0.164427041081
0.164896196632
0.165372355678
0.165850360072
0.166324983826
0.166791642141
0.167246415808
0.167685819987
0.168106593968
0.168505414523
0.168878369247
0.16922083821
0.169528424236
0.169797191804
0.170022512362
0.170201503475
0.17033543936
0.170428578655
0.170486758578
0.170516681742
0.170525048062
0.170518071357
0.170501914445
0.170466088933
0.170400023918
0.170297700465
0.170174897717
0.170052279432
0.169944715827
0.169856655777
0.169782856967
0.169714835182
0.169651924259
0.169601898351
0.16956644678
0.169540443131
0.169517282121
0.169503090324
0.169498252526
0.154765187988
0.154764917979
0.154774297923
0.154785728004
0.154807238587
0.154837023152
0.154874214591
0.154914264952
0.154958837113
0.155011218159
0.155073845674
0.155155421871
0.155261913321
0.155386243193
0.155518570304
0.15565693876
0.155804358196
0.155965596208
0.1561423036
0.156332182291
0.156532821884
0.156747560463
0.156981006489
0.157236685167
0.157515837864
0.157818194252
0.158143845043
0.158489316522
0.158853802569
0.159235395337
0.159635172995
0.160051421239
0.160479020151
0.160908253035
0.161326439709
0.161744979368
0.162172316151
0.16260961926
0.163055464261
0.163508200622
0.163967401526
0.164434281228
0.164909463708
0.165390899747
0.165874409675
0.166355197362
0.166828723758
0.167290987352
0.167738447552
0.168167745346
0.168575326697
0.168957093954
0.169308368023
0.16962416999
0.169899265984
0.170128662821
0.170309977524
0.170444767782
0.170537386793
0.170593631465
0.17061987927
0.170622767051
0.170607926575
0.170578632391
0.170530834628
0.17044920517
0.170330014814
0.170189924404
0.170049015674
0.169926548926
0.169828573892
0.169744299487
0.169664825249
0.169598154934
0.169549765394
0.169516053815
0.169487964677
0.169464061298
0.169450806628
0.169445244156
0.154704561101
0.154709022977
0.154724946354
0.154742050999
0.154760369375
0.154790354143
0.154829444065
0.154871031263
0.15491849658
0.154973196297
0.155039554012
0.155124329409
0.155238108672
0.15536226045
0.155490623475
0.155621563382
0.155762951879
0.155922207263
0.156097505228
0.156282529562
0.156480271001
0.156695390286
0.156930039054
0.157187018743
0.157468327369
0.157774849932
0.158101587118
0.158450895863
0.158820082558
0.159209278284
0.159613581898
0.160030292059
0.160459029654
0.160882747335
0.161299232862
0.161717056261
0.162146629755
0.162588397572
0.163040035521
0.163499675857
0.163966764531
0.164441691207
0.164924327772
0.165412781977
0.165903461716
0.166391959121
0.166873867202
0.167345218789
0.167802504231
0.168242349839
0.168661083446
0.16905440309
0.169417240786
0.169743830339
0.170028082984
0.170264903029
0.170452230435
0.170591574802
0.170686714907
0.170742342926
0.170763848755
0.170757577202
0.170729303527
0.170680614229
0.170618426109
0.170515657507
0.170368976431
0.170204529816
0.170042205344
0.169900597223
0.169783712982
0.169680108487
0.16958967027
0.16952293085
0.169477584632
0.169445207761
0.169416121287
0.169394393004
0.169383397227
0.169377595832
0.154633218027
0.154642163914
0.1546606258
0.154685691028
0.154705889026
0.154736848365
0.154774801073
0.154818532341
0.154869754384
0.154922625895
0.154996178982
0.155092322308
0.155204640022
0.155326083424
0.15544808735
0.155572246348
0.155712910043
0.155873144671
0.156043871095
0.156224135714
0.15641968499
0.156634806382
0.156870600431
0.157130118027
0.157414607265
0.157723979753
0.158055250405
0.158404215377
0.158781594706
0.159181119663
0.159586844578
0.160000386633
0.160427407069
0.160847761219
0.161261697346
0.161683497323
0.162117737011
0.162564731839
0.16302272319
0.163489890615
0.163965454661
0.164449274365
0.164940713342
0.165437835683
0.165937359237
0.166435185786
0.166927107415
0.167409306966
0.167878407002
0.168331107433
0.16876369602
0.169171650593
0.169549413981
0.169890498874
0.170188306707
0.170437774117
0.170636850968
0.170786125689
0.170887313243
0.1709424199
0.170955545788
0.17093326471
0.170881963539
0.170807710318
0.170720358845
0.170599591667
0.170420235487
0.170220495661
0.170026875672
0.169854857645
0.16970773387
0.169580846782
0.169483872174
0.169420457669
0.169381205286
0.169352915588
0.169329111418
0.169311477548
0.169303840674
0.169299988068
0.154554978205
0.154566724437
0.154585566581
0.154606696229
0.154632792242
0.154671127245
0.154708993766
0.154753975859
0.15481167953
0.154869157595
0.154940452583
0.155044479442
0.155159251839
0.155275679727
0.155392228228
0.155515988262
0.15565607136
0.155813668705
0.15598012452
0.156157731638
0.15635166994
0.156565788011
0.15680118051
0.157062154841
0.157354530747
0.157665324768
0.158001531541
0.158359106159
0.158738090435
0.159138495324
0.159550346559
0.159970452214
0.160384797012
0.160799457451
0.161217506259
0.16164509009
0.16208517273
0.162538215197
0.163003159018
0.16347849449
0.163963278189
0.164456954611
0.164958511793
0.165465895286
0.165975946281
0.166484794772
0.166988489293
0.167483470271
0.167966590706
0.168434719776
0.168884202661
0.169310383569
0.169707309962
0.170068018098
0.170385697883
0.170655295796
0.170874121138
0.17104008093
0.171150598001
0.171203851969
0.171204156095
0.171160122155
0.171079281731
0.170967890566
0.17083400268
0.170680726575
0.170478642878
0.170234119338
0.169994456117
0.169776073541
0.169586812094
0.169436466867
0.169337307314
0.169282912348
0.169257272929
0.169242809026
0.169230825277
0.169219072639
0.169213971712
0.169212335294
0.154468694195
0.154482380499
0.154504363588
0.154524806173
0.154552784547
0.15459161069
0.154630953674
0.154675979804
0.154733085737
0.15480480479
0.154880444409
0.154984443797
0.155099848931
0.15521242701
0.155323632319
0.155449814395
0.155592970116
0.155745631969
0.155906923354
0.156082299701
0.156275862907
0.156489978637
0.156725337151
0.156984777506
0.157283516549
0.15760303716
0.157935257356
0.158301011511
0.158685340752
0.159090758946
0.159505407269
0.159922674389
0.160335368626
0.160746016369
0.16116749347
0.161601555177
0.162048425134
0.162508389527
0.162980968605
0.16346512631
0.163959942758
0.164464542859
0.164977562313
0.1654967764
0.166019057283
0.166540709033
0.167058067482
0.167567924999
0.168067464701
0.168553835061
0.169023607726
0.169472208176
0.169893604817
0.170280726757
0.170626804805
0.170926537484
0.171175427386
0.171365457913
0.171488226396
0.171539372174
0.171525621636
0.171456900134
0.171338490294
0.171175092853
0.170975094451
0.170752571607
0.170515312529
0.170240523463
0.169931665928
0.169644299509
0.169402723286
0.169229509455
0.169133305411
0.169099132608
0.169103374156
0.169119566297
0.169124967329
0.169116350886
0.169110257273
0.169107845432
0.154370674594
0.15438379249
0.154407567081
0.154432405686
0.154467480516
0.154501284164
0.154540867569
0.154587768767
0.154638005734
0.154716807908
0.154804388789
0.154908776995
0.155024196139
0.155136590051
0.155246696995
0.155373087643
0.155517413689
0.155666872285
0.155824272621
0.155996579162
0.156189340253
0.156404962232
0.156644875931
0.156904070896
0.157197446069
0.157530722312
0.157871443591
0.158236749944
0.158622759142
0.159021890016
0.159444643811
0.159864152029
0.160273784427
0.160685663303
0.161111977479
0.161552738013
0.162007012884
0.162474766892
0.162955773828
0.163449441202
0.163955109668
0.164471746405
0.164997620888
0.165530261251
0.166066508871
0.166602831695
0.167135888558
0.167662872592
0.16818137287
0.16868896752
0.169182707618
0.169658524742
0.170110858582
0.170533061065
0.170918531139
0.171260782841
0.171551473548
0.171772102968
0.171914776032
0.171972240942
0.171950382837
0.171855673501
0.171689140461
0.171456437875
0.171171313368
0.170849609107
0.170516382601
0.170183354077
0.16982611064
0.16943523884
0.169126964096
0.168928121285
0.168844151793
0.168852582378
0.168918749057
0.168993091881
0.169020513333
0.168999791647
0.168986535327
0.16897956614
0.154258135558
0.154268390368
0.154286689759
0.154318721639
0.154362998011
0.154396534165
0.154436780019
0.154488594903
0.154537314331
0.154612655849
0.154709320552
0.1548162858
0.154930934812
0.155044560194
0.155160358512
0.155288486069
0.155431015194
0.155577240749
0.155732106241
0.155901444612
0.156090716588
0.1563040891
0.156552744912
0.156823428562
0.157111338536
0.157444568993
0.157793996852
0.158156228295
0.158553358178
0.158958366402
0.159372284415
0.159786205917
0.160196944212
0.160616845523
0.161050097313
0.161498038997
0.161960318531
0.162436735277
0.162927113993
0.163431088958
0.16394840074
0.164478181895
0.16501836879
0.165566085304
0.166118088276
0.166671046679
0.16722197253
0.167768460389
0.168308530305
0.168840342955
0.169361819991
0.169870070857
0.170360993607
0.170829091533
0.171267443584
0.171664955593
0.172008351284
0.172267050741
0.172456041189
0.172546398503
0.172532256982
0.172408954222
0.172178322007
0.171852752277
0.171456868918
0.171006030024
0.170524355026
0.170068468819
0.169597696329
0.16910291155
0.16870873884
0.168475946682
0.16841922439
0.168512891795
0.16870303234
0.168893786359
0.168945880196
0.168864020924
0.16883842017
0.168825596622
0.154130761922
0.154138406285
0.15414866792
0.154184725414
0.154229405889
0.154269381052
0.154312858976
0.15437012818
0.154424949612
0.15449885976
0.154599152484
0.154707597398
0.1548209456
0.154932357323
0.155055689957
0.155191951889
0.155332836157
0.155476252414
0.155629584971
0.155797320519
0.155982890051
0.156190015698
0.156438232028
0.156729275149
0.157023582151
0.157344874504
0.15770653207
0.15807495631
0.158463172823
0.158872774289
0.159288185438
0.159699587198
0.160111855691
0.160538880438
0.160980340883
0.161436532306
0.161907547338
0.16239337868
0.162894188812
0.163409639755
0.163939551194
0.164483475934
0.165039370783
0.165603894005
0.166173540987
0.16674520371
0.167316303981
0.16788476718
0.168448948856
0.169007708513
0.169560331334
0.170106234114
0.170644561856
0.171171839446
0.171678580168
0.172138392449
0.172545460914
0.172852585823
0.173164822195
0.173356210482
0.173378936758
0.173216648658
0.172894463982
0.172441779313
0.17190533021
0.171279502024
0.170575317169
0.169897986127
0.169243650242
0.168585880492
0.168101457766
0.167806457583
0.167800853803
0.168043458233
0.168471404298
0.168911297167
0.168984402082
0.168672576544
0.168652879344
0.168638675689
0.153989502518
0.153998329091
0.154013147728
0.15403924929
0.154078776374
0.154122925826
0.154170608673
0.154230465101
0.154295599084
0.154370952213
0.154473758913
0.154583367665
0.154696511645
0.154806553762
0.154930885316
0.155074673062
0.155218062816
0.155361967246
0.155515161443
0.155682487826
0.155866258204
0.156068203975
0.156311357751
0.15661284078
0.156922252853
0.157240917631
0.157606255087
0.157983048122
0.158366655487
0.158773723865
0.159182699758
0.159593312475
0.160015366856
0.160451380632
0.160901697302
0.161367024428
0.161847909504
0.162344115601
0.162856043307
0.163384083047
0.163928018148
0.164487355237
0.165060281917
0.165643272206
0.166232521645
0.166825101002
0.167418841358
0.168011804397
0.168602379656
0.169190051741
0.169776061521
0.170363924192
0.170959390504
0.171562478208
0.172155992164
0.17266517602
0.173175070581
0.173553427406
0.174243953095
0.174653827531
0.174686001994
0.174343494798
0.17374577679
0.17302936402
0.172315001894
0.171599258914
0.170749198447
0.169751331625
0.168757864563
0.167899540446
0.167107861427
0.166600740554
0.166687568868
0.167221978772
0.168119971034
0.169249576521
0.169302526932
0.168296123267
0.168418297214
0.168408336567
0.153830720874
0.153840698988
0.153864258783
0.153881304614
0.153914762656
0.153959987346
0.154011022471
0.154074882178
0.15415247005
0.154228614713
0.154332696917
0.154443669234
0.154557843899
0.154669484157
0.154794681077
0.15494139183
0.155087426014
0.155233670209
0.155388083846
0.155555587514
0.155738946946
0.155939183109
0.156173972681
0.156472076718
0.156804882972
0.157131336706
0.157484897842
0.157877802228
0.158270523049
0.158660514297
0.159062628965
0.159477279251
0.159907346943
0.160352711416
0.16081295082
0.161288492528
0.16177995211
0.162287761716
0.162812111914
0.163353608772
0.163912814898
0.164489190794
0.165080761543
0.165683883257
0.166294651741
0.166910429913
0.167529455285
0.168149593565
0.168768454404
0.169385433842
0.170004385669
0.170635536633
0.171297663911
0.171997666672
0.172707713377
0.173224311816
0.173924233294
0.173770310302
0.173965931486
0.174259590788
0.174270691031
0.173956336341
0.173422201683
0.172759166965
0.172023035406
0.171225253008
0.170345838582
0.169420723614
0.168517311319
0.167704398851
0.16707201942
0.166820965569
0.167060841016
0.167793838989
0.169095805335
0.170859439999
0.171286919728
0.166457413368
0.168011918753
0.168142433036
0.153651093052
0.153660404946
0.153682468027
0.153701309662
0.153732398159
0.153778922942
0.153831626766
0.153895335247
0.153984678393
0.154069363784
0.154174386785
0.154287439021
0.154404103598
0.154519788672
0.154647418821
0.154794988176
0.154942740454
0.155091873446
0.155248271527
0.155416490967
0.155599624372
0.15579979043
0.156029141859
0.156319436748
0.156666318377
0.157009477362
0.157355184241
0.157741161524
0.158144005096
0.158538448716
0.158935671294
0.159351488455
0.159788100571
0.160242813969
0.160713438328
0.161199734479
0.161702722635
0.162222946651
0.162761005427
0.163317396618
0.163893088958
0.164488092621
0.165100254594
0.165725408783
0.166359463044
0.167000678886
0.167648224744
0.1682988779
0.16894703718
0.169590788042
0.170237695523
0.170905679916
0.171640388406
0.172468341752
0.173444660823
0.173381307346
0.173586168857
0.173842789838
0.173908599808
0.17401727159
0.173964502013
0.173655413296
0.173134871138
0.172468212424
0.171703835129
0.170869982022
0.169980343629
0.169063613647
0.168178565272
0.167381018794
0.166754059497
0.166436656589
0.166522439095
0.167025317105
0.167853495946
0.168632933523
0.168053410441
0.168651149977
0.169641030992
0.16789221379
0.153452537182
0.1534610295
0.153483782319
0.153502876104
0.153534182734
0.153581013216
0.153634933414
0.153695725463
0.153786604409
0.153884940249
0.153995379392
0.154111976844
0.154232720093
0.154355967383
0.15448659667
0.154634895823
0.154784237619
0.154936742361
0.155095608364
0.155265101375
0.15544831112
0.155647999346
0.155873681318
0.156154733054
0.156501258478
0.15687030125
0.157224321996
0.157597371569
0.157994350923
0.158389850857
0.158789353985
0.15921163229
0.159656047253
0.160120122615
0.160601636246
0.161099775424
0.161615022466
0.162148653584
0.162701430313
0.163274186815
0.163867861876
0.164482915402
0.165117736695
0.165767513931
0.166427144025
0.167095959604
0.167775174691
0.168459814119
0.169138013508
0.169803782495
0.170466530955
0.171142968439
0.171921687355
0.1728124812
0.173113544376
0.173366939128
0.173466522643
0.173584914131
0.173598650927
0.173564729272
0.173402537286
0.173040953191
0.172490376241
0.171793670328
0.170989916845
0.170107917469
0.169171354131
0.168212525924
0.167280726434
0.166437076305
0.165732176619
0.165256133451
0.165100489344
0.165266732838
0.165655796979
0.166118288551
0.166441519106
0.167429027652
0.168263497411
0.170713314223
0.1532372626
0.153244277051
0.153262981082
0.153284784458
0.153320512115
0.15336769373
0.15342421518
0.153483926659
0.153573649542
0.153680061312
0.153795381554
0.153915123408
0.15403865893
0.154172221534
0.154309055587
0.154458224971
0.154609735943
0.15476698075
0.15492920648
0.155100658119
0.155284456268
0.155483477124
0.155706267247
0.155979506757
0.15632064911
0.156705598478
0.15707891698
0.157447490286
0.157832792914
0.158223768422
0.158627261919
0.159055949029
0.159508420847
0.159981791026
0.160474765914
0.160986179932
0.161515342758
0.162063253306
0.162632080592
0.163222433773
0.163835615671
0.1644728795
0.165132870391
0.165810001455
0.166496527486
0.167194464713
0.167913122623
0.16864296131
0.169351630033
0.170031722991
0.170693708817
0.171315917753
0.172131624198
0.172526273829
0.172869560146
0.173069807057
0.173150981571
0.173186303761
0.173135255497
0.172988602539
0.172714193231
0.17227423498
0.171667316317
0.170918553594
0.170057906736
0.169112593866
0.168109157706
0.167079369904
0.166063937195
0.165112079382
0.164247213071
0.163518935968
0.163004202761
0.162716822898
0.162616785321
0.162682237592
0.162940522507
0.163845271593
0.166353193262
0.168791793119
0.153008075819
0.153013863741
0.153027471812
0.153052523908
0.153092012433
0.153139258065
0.153197693564
0.153260341778
0.153346661324
0.153457075582
0.153575470146
0.153697305029
0.15382127708
0.153960345741
0.15410868312
0.154261278413
0.154415678359
0.154578443396
0.154746431735
0.154921427066
0.155107058966
0.155305386801
0.155525917467
0.155792525924
0.156123399684
0.156506279197
0.156900063748
0.157279263283
0.157661033697
0.158048952558
0.158451194511
0.158884319261
0.159344647286
0.159825645373
0.160331136947
0.160857063887
0.161400333737
0.161964136113
0.162550666217
0.163160903425
0.163795513232
0.164456125223
0.165142742096
0.165851918963
0.166578268328
0.167322287387
0.168085935962
0.168848635106
0.169584759748
0.17029014161
0.170938514737
0.171358375489
0.171843050948
0.172221445843
0.172506239978
0.172657380937
0.172696206583
0.172645736411
0.172493109499
0.172226601209
0.171830705229
0.17128648233
0.170590871673
0.169758471993
0.168811221749
0.167772055185
0.166664572235
0.165515177874
0.164354208669
0.163214634106
0.162115699754
0.161054892972
0.160063980291
0.159160157518
0.158301531421
0.157439677745
0.156554521382
0.155754010232
0.155030602066
0.153008308245
0.152765985306
0.152771452338
0.15278347433
0.152812033128
0.152851329019
0.152896732068
0.152953015927
0.153020267058
0.153103034488
0.153215220003
0.153335945062
0.153459778641
0.153585117784
0.153724869631
0.153882903539
0.154042200285
0.154201240246
0.154368823855
0.154543288034
0.154724227933
0.154914273902
0.155112747975
0.155331424925
0.155593155839
0.155914105269
0.156289538686
0.156691399094
0.157083877546
0.157463333672
0.15784934111
0.158257486669
0.158692853439
0.159158703474
0.159649854898
0.160168462809
0.160708953799
0.161267652603
0.161848695468
0.162454351077
0.163086082872
0.163744669954
0.16443195436
0.165151571794
0.165906320372
0.16668774781
0.167478323074
0.168276102196
0.169074598364
0.169872604331
0.170671492899
0.171541906025
0.171498141856
0.171559965591
0.171887972887
0.172093887759
0.172149448669
0.172095087148
0.171937340534
0.171666271014
0.171273061618
0.170748872563
0.170084229308
0.169277265761
0.168336716665
0.16727764492
0.166117156725
0.164873001808
0.163563624028
0.162207566532
0.160820421751
0.159412273397
0.157927003998
0.156330556029
0.154609177097
0.152659156751
0.150302798889
0.147307956669
0.143484436421
0.138953544698
0.138648982213
0.152508383256
0.152514000341
0.152526553946
0.152559190932
0.152597709829
0.152640698267
0.152692729095
0.152762770819
0.152840556657
0.152953002667
0.153076099307
0.153202079144
0.153329798313
0.153471607457
0.153634869402
0.153801020638
0.153966252524
0.154139067328
0.154318717109
0.154506141534
0.154703164035
0.154903751704
0.155120717551
0.155378859793
0.155691345975
0.15605739206
0.156459294053
0.156859783614
0.157248838605
0.157634805514
0.158046775994
0.158487088169
0.158955147608
0.159449438517
0.159977775967
0.160536444928
0.161114188818
0.161714701586
0.162340557051
0.162994995781
0.16368049147
0.164399740001
0.165163700262
0.165976339794
0.16680844584
0.16763741538
0.1684758256
0.169343520478
0.170242478164
0.171268289194
0.17139446413
0.171487358222
0.171449261688
0.171541435722
0.17159251403
0.171526695864
0.171350378027
0.171063763646
0.170658216157
0.170126457189
0.169462743764
0.168662048414
0.167723230381
0.166651017704
0.165454332623
0.164143574064
0.162728846256
0.161218791963
0.159618850187
0.157927677333
0.156135281595
0.15416047918
0.151871326106
0.149170051869
0.145848919355
0.141474582408
0.135222387119
0.12535369318
0.106825645262
0.0617115671381
0.152229286655
0.152234987655
0.152249871761
0.152287179263
0.152325601757
0.1523668274
0.152416724518
0.152486643196
0.152559018554
0.152669621016
0.152794793702
0.152922860551
0.153053004647
0.153196925569
0.153363482253
0.153535845811
0.153709231453
0.153888023703
0.154071991587
0.154265120728
0.154470528992
0.154676099966
0.154891283052
0.155146328148
0.155452475109
0.15580823287
0.156203786204
0.156602018392
0.157003553141
0.157403076896
0.157816144354
0.158255539719
0.15872996882
0.159234629502
0.159765589185
0.160335311532
0.160933783375
0.16155620587
0.162206267925
0.162885736946
0.163599533434
0.164360160172
0.165185175044
0.166058114465
0.166933284898
0.167806321041
0.168728278799
0.169730514274
0.170862705074
0.171085785455
0.171202654803
0.171183451229
0.171116060165
0.171067260618
0.170970153475
0.170768307626
0.170452543885
0.170021004311
0.169467655933
0.168786601353
0.167973363971
0.167024406448
0.16593810876
0.164715669234
0.163360286646
0.161875289675
0.160262230689
0.158518903883
0.15663652431
0.154595086367
0.152355522883
0.149851188104
0.14686801346
0.143146444604
0.138393240287
0.131982850056
0.122692950477
0.108165352664
0.0836336560169
0.042815114061
0.151920358008
0.15192612984
0.151943300669
0.151985307447
0.152023436294
0.152066042366
0.152115521852
0.15218339837
0.152253395604
0.152363302178
0.152490594966
0.152620594949
0.152752957159
0.152898452947
0.153066581288
0.153242913566
0.153426236489
0.15361246875
0.153801023226
0.153999147633
0.154212361368
0.154426943073
0.15464162862
0.15489235259
0.15519414341
0.15554101628
0.155928222373
0.156320172142
0.156721955093
0.157138637996
0.157566900631
0.15800862241
0.158474520559
0.158983749625
0.159529467317
0.160109335078
0.160724545467
0.161369076682
0.162044299655
0.162752742652
0.163503218286
0.164321379602
0.165215705049
0.166143273051
0.167072906495
0.168029336858
0.169114612536
0.170406838664
0.170668082563
0.170768110019
0.170811164863
0.170768056322
0.170646256381
0.170467552931
0.17021543457
0.16986096678
0.169392307538
0.168805440088
0.168095618048
0.167257838351
0.16628782832
0.165181849435
0.163936787513
0.162550290837
0.161020082279
0.159342438349
0.157510209729
0.155510349917
0.153320429061
0.15090335429
0.148199061862
0.145114878081
0.141461597779
0.136862839901
0.1308880197
0.12292578603
0.111853304195
0.0958273031528
0.0716297416974
0.0383063927205
0.151574760692
0.151582363985
0.151600458268
0.151641843876
0.15168286588
0.151731842596
0.151784609178
0.151853262568
0.151927555845
0.152033055844
0.152161775265
0.152293647213
0.15242818842
0.152574950945
0.15274347224
0.152920214075
0.153109661927
0.153306456273
0.15350228714
0.153706584455
0.153925696711
0.154152181779
0.154374149813
0.154616944846
0.15491415536
0.155254125355
0.155632917678
0.156018940808
0.156414995433
0.156838911215
0.157283524155
0.157739733473
0.158206092514
0.158708773599
0.159257205696
0.159850883229
0.16048428116
0.161151890126
0.161852114739
0.162592598406
0.163395702025
0.164286446725
0.165248509425
0.166239726993
0.167260960703
0.168333825843
0.169695490886
0.170087305935
0.170246449399
0.17032617607
0.170330001421
0.17022275535
0.170006767066
0.16969863365
0.169296693005
0.168787392777
0.168161944322
0.167416331253
0.166546813552
0.165549083806
0.164418654314
0.163150777282
0.161740238944
0.16018107593
0.158465807001
0.156584007949
0.154520279195
0.152251499876
0.149742970976
0.146942794619
0.143773589415
0.140120151551
0.135815626027
0.130521787369
0.123687694347
0.114672078919
0.102611152238
0.0861586239238
0.062936557466
0.0336243889435
0.151197041361
0.151207849515
0.151225941449
0.151261203538
0.151307988088
0.151363701358
0.15142238575
0.151495872797
0.151579761444
0.151680038432
0.151807537622
0.151940584941
0.152077358244
0.152225558044
0.152394690009
0.152572174046
0.152762327923
0.152968090298
0.153173928239
0.153386811347
0.153611761633
0.15384972213
0.154088222249
0.154333325933
0.154617574526
0.154949144592
0.155319337741
0.155699695319
0.156088127222
0.156510232233
0.156962063879
0.157437458965
0.157915849179
0.158414810607
0.158958706029
0.159555893386
0.160204080382