/*--------------------------------*- C++ -*----------------------------------*\
| =========                 |                                                 |
| \\      /  F ield         | OpenFOAM: The Open Source CFD Toolbox           |
|  \\    /   O peration     | Version:  v1806                                 |
|   \\  /    A nd           | Web:      www.OpenFOAM.com                      |
|    \\/     M anipulation  |                                                 |
\*---------------------------------------------------------------------------*/
FoamFile
{
    version     2.0;
    format      ascii;
    class       volVectorField;
    location    "461";
    object      Ua;
}
// * * * * * * * * * * * * * * * * * * * * * * * * * * * * * * * * * * * * * //

dimensions      [0 1 -1 0 0 0 0];


internalField   nonuniform List<vector> 
6400
(
(6.02246069925e-05 8.12485421769e-05 0)
(0.000165162705229 6.26766229935e-05 0)
(0.000241860213622 5.17266328098e-05 0)
(0.000327437501294 4.70511204276e-05 0)
(0.000390415729194 3.13551129654e-05 0)
(0.000436210462379 1.86623608234e-05 0)
(0.000460081268498 1.38768746011e-05 0)
(0.000479138477332 2.10979833876e-05 0)
(0.000537872358878 3.0590746677e-05 0)
(0.000599329986914 3.01423084472e-05 0)
(0.000625242978559 2.74306688375e-05 0)
(0.00068282937809 3.0198394602e-05 0)
(0.000736138202106 2.8925798709e-05 0)
(0.000781449348815 2.53629731101e-05 0)
(0.00081683127609 2.37807595824e-05 0)
(0.00085494855195 2.65949291607e-05 0)
(0.000902810847656 2.78848175567e-05 0)
(0.000945637169829 2.58448521704e-05 0)
(0.000979179381852 2.23483940059e-05 0)
(0.00101108726752 2.08858496601e-05 0)
(0.00105180984233 2.61808530061e-05 0)
(0.00110277440888 3.2257966329e-05 0)
(0.00115845287759 3.42643797833e-05 0)
(0.00121105643285 3.43470729761e-05 0)
(0.00126209280171 3.3024120053e-05 0)
(0.00131200901179 3.12118752199e-05 0)
(0.00136291038468 3.0978937753e-05 0)
(0.00141210526386 3.03184731086e-05 0)
(0.00145705339138 2.87826441984e-05 0)
(0.00149832428289 2.75664368774e-05 0)
(0.00153593107729 2.78208673459e-05 0)
(0.00157583443117 2.76411797386e-05 0)
(0.00161725671516 2.65485627038e-05 0)
(0.00165607637782 2.74837589331e-05 0)
(0.00169484031642 2.80906688168e-05 0)
(0.00174131511732 2.88229306744e-05 0)
(0.00178674931137 3.04808452862e-05 0)
(0.00181746985081 2.98965016207e-05 0)
(0.00186101221763 2.86085235502e-05 0)
(0.00191392506428 2.93883524512e-05 0)
(0.00196100274476 3.47346959502e-05 0)
(0.00199810280603 3.53487965944e-05 0)
(0.00203201767812 2.69671923142e-05 0)
(0.00206231477767 2.12783217288e-05 0)
(0.00208613578571 1.91031355667e-05 0)
(0.00210602085384 1.6740430082e-05 0)
(0.0021214284802 1.44426519062e-05 0)
(0.00213079419809 1.12930556171e-05 0)
(0.00213464567953 8.54352833916e-06 0)
(0.00213376079476 1.01971945228e-05 0)
(0.00213422973896 1.67742653913e-05 0)
(0.0021514600448 1.65098235124e-05 0)
(0.00214779532507 -1.25755121372e-06 0)
(0.00213585951891 -9.59673621261e-06 0)
(0.00210174006987 -1.65631404824e-05 0)
(0.00201530511804 -3.2486845722e-05 0)
(0.00192546161396 -2.83815470432e-05 0)
(0.00188182619811 -1.55435827044e-05 0)
(0.00186706737154 -2.13883112151e-05 0)
(0.00176858223095 -2.60516742743e-05 0)
(0.00172053952725 -5.410384159e-06 0)
(0.0016497001149 -1.88157800038e-05 0)
(0.00180776739653 -8.89435665193e-05 0)
(0.0014580981438 -0.000102375664134 0)
(0.00118656022716 -6.94561819473e-05 0)
(0.00107080104049 -4.57054677646e-05 0)
(0.000999809084889 -4.36861094362e-05 0)
(0.000944484326084 -4.31997168199e-05 0)
(0.00088579237447 -4.43156467891e-05 0)
(0.00080282872057 -4.69692189852e-05 0)
(0.000714652195824 -4.80182891716e-05 0)
(0.000613880883225 -4.66245562826e-05 0)
(0.00051681985833 -4.62066862383e-05 0)
(0.000449363932549 -4.92664655617e-05 0)
(0.000332794093189 -3.93415686659e-05 0)
(0.000285717326459 -3.44773691981e-05 0)
(0.000186538983711 -2.13013184863e-05 0)
(0.000189789724752 -2.86840364181e-05 0)
(8.12496605947e-05 -1.99261249478e-05 0)
(6.04195725102e-05 -3.68175498535e-05 0)
(2.28592262315e-05 0.000112623038688 0)
(9.8178302238e-05 0.000126584872021 0)
(0.000171114473568 0.000115556968441 0)
(0.000218111133243 9.28294195097e-05 0)
(0.000317613931266 9.18583393627e-05 0)
(0.000411047572865 6.59475741757e-05 0)
(0.000467328920411 4.2525440592e-05 0)
(0.000507435666854 5.65135024733e-05 0)
(0.000550822369043 7.4474106319e-05 0)
(0.000599703764762 7.39902615849e-05 0)
(0.00064716402892 7.05934461202e-05 0)
(0.000691786178227 7.06702349614e-05 0)
(0.00073457453981 6.53627516946e-05 0)
(0.000774856391634 5.78807204483e-05 0)
(0.000816329072092 5.54398318081e-05 0)
(0.000858415348089 6.63351200272e-05 0)
(0.000902190536668 7.12574839272e-05 0)
(0.000939694542541 5.50424190543e-05 0)
(0.000946740233058 4.29934666798e-05 0)
(0.000984453092123 4.51327660525e-05 0)
(0.00103516150633 6.10266940264e-05 0)
(0.00109318262293 8.06087957754e-05 0)
(0.00115826798847 8.55847523575e-05 0)
(0.00121567725994 7.90992919281e-05 0)
(0.00125480085732 7.39951413071e-05 0)
(0.00131078290625 7.26013144653e-05 0)
(0.00136447558433 7.00354560336e-05 0)
(0.00141089448468 6.57656901978e-05 0)
(0.00145431125977 6.14531574945e-05 0)
(0.00149635302937 5.82519382516e-05 0)
(0.00153648138483 5.76391654081e-05 0)
(0.00156842639549 5.61449476689e-05 0)
(0.00160920733902 5.19038593251e-05 0)
(0.00164630292713 5.5139508801e-05 0)
(0.0016811480761 5.98782194245e-05 0)
(0.00173786607294 5.80042783285e-05 0)
(0.0017771013371 6.05822909313e-05 0)
(0.00180877591771 6.35954403602e-05 0)
(0.00185967559911 6.16080671906e-05 0)
(0.00192560015802 5.80495460016e-05 0)
(0.00197568402533 5.02830657394e-05 0)
(0.00194047854186 4.03604861484e-05 0)
(0.00193896972104 3.52508823918e-05 0)
(0.00197472073838 3.32205888851e-05 0)
(0.00200223720594 3.0859062436e-05 0)
(0.00203364058499 2.70363706123e-05 0)
(0.00206546740747 2.10739023319e-05 0)
(0.00208663064552 1.34082868694e-05 0)
(0.00211126170574 5.31183113044e-06 0)
(0.00212643709855 -1.18951254567e-06 0)
(0.0021175615239 -3.90563780171e-06 0)
(0.00206944734474 -6.70364569033e-06 0)
(0.00202935247324 -1.22289351821e-05 0)
(0.00213363940098 -3.090705988e-05 0)
(0.00208114555117 -6.73585392885e-05 0)
(0.00203088332675 -9.08357943803e-05 0)
(0.00204623789575 -8.37279815398e-05 0)
(0.00202074666348 -6.91070394156e-05 0)
(0.00197959690908 -7.94605823267e-05 0)
(0.00194544919764 -9.46263802221e-05 0)
(0.00194133190011 -0.000106725068237 0)
(0.00161098557556 -0.000116517064671 0)
(0.00177742329905 -0.000251053618824 0)
(0.00145001833806 -0.000299822066652 0)
(0.00120164274598 -0.000236398277876 0)
(0.0010152494011 -0.000161029912977 0)
(0.000917336381278 -0.000117046386077 0)
(0.000902596431245 -0.000107449168547 0)
(0.000850085280441 -0.000118361837529 0)
(0.000786040315921 -0.000136856050044 0)
(0.000691710114255 -0.000146819424747 0)
(0.000588060992717 -0.000143269156352 0)
(0.000480258384474 -0.000125597112029 0)
(0.000426709924784 -0.000121435362445 0)
(0.000359355227765 -0.00011194082274 0)
(0.000299737042188 -0.000100858416998 0)
(0.000240508899083 -8.4998003826e-05 0)
(0.000187204985731 -8.54929132709e-05 0)
(0.000115035390538 -8.93962265613e-05 0)
(5.25930817524e-05 -0.000143431871252 0)
(3.33592660311e-05 0.000195334986562 0)
(9.44767156062e-05 0.000211987894883 0)
(0.000145330198229 0.00019916265753 7.61533475107e-29)
(0.000248783875168 0.000203586600974 -7.17028446403e-29)
(0.000346606948536 0.000202940854854 -6.41191837193e-29)
(0.000406522313102 0.000164993728102 5.87481016248e-29)
(0.000449566113677 9.25821279353e-05 -5.933640198e-29)
(0.000491083903009 0.000101044006686 5.81546079453e-29)
(0.00053679767843 0.00012353759907 0)
(0.000588543391152 0.000127611158215 0)
(0.000639986607349 0.00012220741827 0)
(0.000686183309439 0.000115159689164 0)
(0.000728671058134 0.000106533662451 0)
(0.000767795059711 0.000101410057938 0)
(0.000808685230638 0.00010020895717 0)
(0.00085077665761 9.42400931849e-05 0)
(0.000789046238313 7.46147577603e-05 0)
(0.000776531393014 6.33655169154e-05 0)
(0.000814564632694 7.36126690889e-05 0)
(0.000885460431964 0.000105587497562 0)
(0.00102346530265 0.000141996579081 0)
(0.00110640760084 0.000152773890125 0)
(0.00114469044635 0.000144939348529 0)
(0.0012015960958 0.000135580299929 0)
(0.00126083094899 0.00013005090496 0)
(0.0013103382311 0.000126347641129 0)
(0.0013573030588 0.000119954720975 0)
(0.00140388933579 0.000112947437852 0)
(0.0014478830413 0.000106808432422 0)
(0.00148810139918 0.000102332856225 1.162834858e-28)
(0.00153122984418 9.85502588486e-05 -1.1276178753e-28)
(0.00155684943858 9.50760842085e-05 0)
(0.00159352287868 9.1776522839e-05 0)
(0.00164842122563 9.10710157775e-05 0)
(0.00165158558014 0.000101183824143 0)
(0.00170835010465 0.000109286908231 0)
(0.00178125111193 0.000107037224621 0)
(0.00178970597803 0.000110258862117 0)
(0.00184732484501 0.000118836500762 0)
(0.00192066772852 0.000111720373724 0)
(0.00197275216102 8.34140438239e-05 0)
(0.00200478320081 6.14609046199e-05 0)
(0.00203382260299 6.13041400706e-05 0)
(0.00206239032346 6.3866029326e-05 0)
(0.00208631097582 6.1320918929e-05 0)
(0.00210590626027 5.57577650505e-05 0)
(0.00212180339659 4.63817498456e-05 0)
(0.00213410504758 3.51275770093e-05 0)
(0.00214313321884 2.19830948123e-05 0)
(0.0021485750714 4.95537117053e-06 0)
(0.00215032088419 -1.27320008141e-05 0)
(0.00214802090092 -2.06789633903e-05 0)
(0.00214010576668 -1.50604310237e-05 0)
(0.0021072603458 -3.92608586773e-05 0)
(0.00205456751097 -8.22049755512e-05 0)
(0.00205500190713 -9.85005944527e-05 0)
(0.00204258349537 -9.94485015353e-05 0)
(0.00200463224976 -0.000104581940898 0)
(0.0019566903358 -0.000117937269473 0)
(0.0019052795049 -0.000144725092617 0)
(0.00182995392435 -0.00020891789463 0)
(0.00173955148681 -0.000283686082874 0)
(0.00169351283684 -0.000479604611262 0)
(0.00131978303836 -0.000514767240364 0)
(0.00102741879496 -0.000359947780828 0)
(0.000950027343313 -0.000254220476869 0)
(0.000911079741856 -0.000196831690832 0)
(0.000846842848176 -0.0001762082248 0)
(0.000782868617319 -0.000193334644185 0)
(0.000708028442138 -0.000220054068859 0)
(0.000617411640389 -0.000229224060446 0)
(0.000533624986472 -0.000216174195123 0)
(0.000479058381887 -0.000199351239916 0)
(0.000425254540509 -0.000192241161689 0)
(0.000355853388616 -0.000184501937142 0)
(0.000285393235643 -0.000167877703812 0)
(0.000220325385178 -0.00014881225165 0)
(0.000166895284189 -0.000156022473275 0)
(0.000114252604225 -0.000198271406265 0)
(2.91071619845e-05 -0.000195626552359 0)
(3.21005147541e-05 0.000290815992509 0)
(4.42733552855e-05 0.000196006877485 0)
(0.000117989385081 0.000300537944366 0)
(0.000215210862269 0.000302763838755 0)
(0.000298320871594 0.000258654592124 0)
(0.000172279196981 0.000102048000902 0)
(0.000216475866028 0.000105066637865 0)
(0.000405802763837 0.000192296344466 0)
(0.000501568164077 0.000203923427045 0)
(0.000565646223729 0.000188553729174 0)
(0.000625774383135 0.000176374331466 0)
(0.000677021260827 0.000162133268808 0)
(0.000721179811201 0.000148482215711 0)
(0.000753664682426 0.000127612746506 0)
(0.000723219079188 9.55650908558e-05 0)
(0.000695633177048 7.33282189672e-05 0)
(0.000706900649289 7.29699760377e-05 0)
(0.000764200601249 0.000104832921024 0)
(0.000880257234605 0.000159299319627 0)
(0.000995076857078 0.000212099903533 0)
(0.00104314396104 0.000223136182108 0)
(0.00109354355222 0.000211265516401 0)
(0.00115040041521 0.000199987927653 0)
(0.00120320773401 0.000191334340965 0)
(0.00125280056151 0.000182127008241 0)
(0.00130011703085 0.000173109045093 0)
(0.0013455342159 0.000164990944402 0)
(0.0013949794206 0.000157035146763 0)
(0.00143515103932 0.000148773817296 0)
(0.00148277217979 0.000142388083851 0)
(0.00151075729243 0.000135709300829 0)
(0.00155793581588 0.000129554040526 0)
(0.00156831904015 0.000120869056076 0)
(0.00161096346627 0.000126420507929 0)
(0.00168230881626 0.000142901977909 0)
(0.0016945030026 0.000155949712607 0)
(0.00176471034064 0.000161761821531 0)
(0.00183920020695 0.000165903022315 0)
(0.00188551197731 0.000170248261515 0)
(0.00192649659435 0.000156671476601 0)
(0.0019666180511 0.000127195598531 0)
(0.00200218134616 0.000101970821604 0)
(0.00203416348109 9.14397887674e-05 0)
(0.00206282391508 8.6753453692e-05 0)
(0.0020867227243 8.02537950448e-05 0)
(0.00210625996938 7.07942222729e-05 -1.07212153542e-28)
(0.00212201115794 5.84156790137e-05 1.08016563963e-28)
(0.00213412098306 4.38022356079e-05 0)
(0.00214267370064 2.70253513911e-05 0)
(0.00214745895948 8.06588799101e-06 0)
(0.00214786945522 -1.06465296819e-05 0)
(0.00214204894315 -2.62967067776e-05 0)
(0.00212726725705 -4.39812741413e-05 0)
(0.00210152620145 -7.41657655463e-05 0)
(0.00207316268399 -0.000102668692836 0)
(0.00204885061249 -0.000119543700489 0)
(0.00201782354499 -0.000136106957267 0)
(0.00197093637404 -0.000156246583016 -2.1688685846e-28)
(0.00190744060449 -0.000184844682695 2.52660190735e-28)
(0.00182382568003 -0.000233127262812 0)
(0.00171066828549 -0.00031362815708 0)
(0.00157149713754 -0.000440185744748 0)
(0.00143748574609 -0.000644958207889 0)
(0.00126899079348 -0.000718481887867 0)
(0.00109160062755 -0.000545458780334 0)
(0.000902246981889 -0.000334034058287 0)
(0.000824110376466 -0.000256339083838 0)
(0.000770388608366 -0.000244247648494 0)
(0.000713725169075 -0.000264878414661 0)
(0.000661490006221 -0.000301166828373 0)
(0.000593278187361 -0.000313858382113 0)
(0.000522538900723 -0.000296172093732 0)
(0.000450782784735 -0.000273931521033 0)
(0.000361655317495 -0.00025293112572 0)
(0.000294647083389 -0.000245029136117 0)
(0.000232739661591 -0.000239635376876 0)
(0.000165956754763 -0.000216708302863 0)
(9.60859749321e-05 -0.000175345265027 0)
(6.97139659886e-05 -0.00022056763956 0)
(2.31785652868e-05 -0.000253313040804 0)
(2.07930016786e-06 0.000289406592933 0)
(2.22826651148e-05 0.000238785541965 0)
(0.000105459002261 0.000392902826783 0)
(0.000181895633907 0.000364879836475 0)
(0.000195264301896 0.000241475932382 0)
(0.00015580852597 0.000137021648809 0)
(0.000267847616285 0.00022497778246 0)
(0.000408736038086 0.000315101842058 0)
(0.00046673498266 0.000286929582908 0)
(0.00053676791082 0.000256351342237 0)
(0.000601230480828 0.000239896955621 0)
(0.000656211028891 0.000215493475883 0)
(0.000668037400925 0.000163363098376 0)
(0.000620485641438 0.00010679456227 0)
(0.000640010830308 9.02220657029e-05 0)
(0.000689432566931 0.000104292168671 0)
(0.000771352578934 0.000145207327555 0)
(0.00087274888115 0.000205871393444 0)
(0.000949416356061 0.000252129872444 0)
(0.000981034111013 0.000263026968708 0)
(0.00103013489982 0.000267638609769 0)
(0.00108944324235 0.000266700605219 0)
(0.00114184979273 0.00025580078686 0)
(0.00119269234005 0.000242305875965 0)
(0.00124082684349 0.000229927539515 0)
(0.00128592575541 0.000220076263717 0)
(0.00133643799893 0.000210945861431 0)
(0.00137432247149 0.000200405879223 0)
(0.00142859131637 0.000191502838187 0)
(0.00145354879422 0.00018004929789 0)
(0.00151097905212 0.00017282345774 1.11296465431e-28)
(0.00150469935435 0.000160325816227 -1.04819100029e-28)
(0.00157096743099 0.000162734414453 0)
(0.001634109814 0.000171790272794 0)
(0.00165419868733 0.000187514762015 0)
(0.00173498253884 0.00021325490717 0)
(0.00179284266267 0.000226941043355 0)
(0.00184264515357 0.000221953437018 0)
(0.00188600590691 0.000210149748091 0)
(0.00192584359555 0.000191698040348 0)
(0.00196501848213 0.000165303620052 0)
(0.0020018130323 0.000140193713733 0)
(0.00203497397419 0.000123718540805 0)
(0.0020638978326 0.000112486957392 0)
(0.00208799774878 0.000101151332992 0)
(0.00210767656751 8.76798469372e-05 0)
(0.00212336438818 7.17104746694e-05 0)
(0.0021351565046 5.34437557385e-05 0)
(0.00214291792267 3.28569377943e-05 0)
(0.00214624014887 1.00552817384e-05 0)
(0.00214428930142 -1.38688262627e-05 0)
(0.00213539277743 -3.83245959445e-05 0)
(0.00211775889415 -6.58850727799e-05 0)
(0.00209144239446 -9.85649465021e-05 0)
(0.00206076266714 -0.000129591823195 0)
(0.00202715696842 -0.000156714754147 0)
(0.00198266466498 -0.00018725645855 0)
(0.00191812717711 -0.000226808780717 0)
(0.0018278100528 -0.000280968687038 0)
(0.00170798363647 -0.000358090477622 0)
(0.00156138023287 -0.00046469202456 0)
(0.00140990489334 -0.000603523507951 0)
(0.00127161782629 -0.000764890617442 0)
(0.00120494976729 -0.00084006887176 0)
(0.00108537193433 -0.000692077886754 0)
(0.000912156995075 -0.000474419886771 0)
(0.00080405332326 -0.000363523689394 0)
(0.000715798429234 -0.000322808603236 0)
(0.000645355397961 -0.000328379038497 0)
(0.000592462924075 -0.000360199841245 0)
(0.000540119020017 -0.00038468546768 0)
(0.000468866401855 -0.000374083982413 0)
(0.000375197337932 -0.000336963181235 0)
(0.000308202476198 -0.000322474945726 0)
(0.00024506736789 -0.000319893458248 0)
(0.000181591996424 -0.000310638225401 0)
(0.000120791651114 -0.000259784914812 0)
(7.69187111413e-05 -0.000222800674005 0)
(4.83051062421e-05 -0.000274022197372 0)
(1.20794248698e-05 -0.00028197727539 0)
(-1.46307204359e-06 0.000269853582157 0)
(2.69866176161e-05 0.00028978084754 0)
(0.000105252848606 0.000446812324922 0)
(0.000148109002137 0.000375651533088 0)
(0.000111891751778 0.000189083278956 0)
(0.000155102522837 0.000195817503177 0)
(0.000329804637015 0.0003617187068 0)
(0.000388472246534 0.000379811191818 0)
(0.000439796440591 0.000350721558716 0)
(0.000502258897308 0.000324789055967 0)
(0.000565948530124 0.000288034944575 0)
(0.000534951515505 0.000206975603127 0)
(0.000493449583569 0.000132137043232 0)
(0.000537492081146 0.000120666079605 0)
(0.0005959681413 0.00014203882336 0)
(0.000700882510166 0.000192069613019 0)
(0.00081112113737 0.000247167380962 0)
(0.00088776122446 0.000279667228443 0)
(0.000907890633016 0.000285326366331 0)
(0.000962453603617 0.000306463065633 0)
(0.00102670282402 0.000324368730981 0)
(0.00107798284564 0.000320749917458 0)
(0.00112775549595 0.000307523903965 0)
(0.00117585829866 0.000292546848948 0)
(0.00122873777872 0.000279481238755 0)
(0.00127389125399 0.000264522031058 0)
(0.00130252732986 0.000253397324627 0)
(0.00136923982354 0.000246460823967 0)
(0.00138274125256 0.000228539045343 0)
(0.00145556303849 0.00021731933364 0)
(0.00143096977156 0.00019743017319 0)
(0.00151833289775 0.000204210130163 0)
(0.00150770534486 0.000204865214107 0)
(0.00159996553156 0.00022584519064 0)
(0.00169006575241 0.000255824513878 0)
(0.00174949724574 0.00027757295193 0)
(0.00179781099751 0.000277738226067 0)
(0.00184269629736 0.000266564696651 0)
(0.00188488067152 0.000250282401649 0)
(0.00192539348222 0.000229326043387 0)
(0.00196472248806 0.000203466838711 0)
(0.00200197015184 0.000177487311332 0)
(0.00203579081836 0.000156245955092 0)
(0.00206513050085 0.000138963626572 0)
(0.00208965563272 0.000122400587493 0)
(0.00210959119594 0.000104526086306 0)
(0.00212526512078 8.45680626166e-05 0)
(0.002136596425 6.22584179649e-05 0)
(0.00214317838663 3.7326762029e-05 0)
(0.00214444088024 9.65720762441e-06 0)
(0.00213953523239 -2.04820559914e-05 0)
(0.00212717190981 -5.31253703952e-05 0)
(0.00210628807931 -8.90126492369e-05 0)
(0.00207716345336 -0.000127537176308 0)
(0.00204106246615 -0.000166116231028 0)
(0.00199569454972 -0.000206989407107 0)
(0.0019328612664 -0.000257441548446 0)
(0.00184418973162 -0.000323125925382 0)
(0.0017266842288 -0.000406917139221 0)
(0.00158245740231 -0.000508032902727 0)
(0.00142738141416 -0.000623898030493 0)
(0.00128596156606 -0.000742923657961 0)
(0.00110621929592 -0.000810657594588 0)
(0.00115068469591 -0.000957828837941 0)
(0.000962939843306 -0.000784633072261 0)
(0.000822819063569 -0.000569919228795 0)
(0.000743450637384 -0.000465669111256 0)
(0.000655562291131 -0.000408176148025 0)
(0.000576251087979 -0.000391545853606 0)
(0.000530556395138 -0.000426383083494 0)
(0.000479939171709 -0.000462180032361 0)
(0.000393306624135 -0.000432159139951 0)
(0.000321067838856 -0.000400618509961 0)
(0.000262167028327 -0.000395606265789 0)
(0.000195113383856 -0.000389035976164 0)
(0.000141937582722 -0.000367628220689 0)
(9.19406716321e-05 -0.000292512578417 0)
(5.7296598185e-05 -0.000259469983521 0)
(3.31038699032e-05 -0.000304997405597 0)
(9.07125447088e-06 -0.000302368115732 0)
(8.77229658908e-06 0.000292331677062 0)
(6.06048675988e-05 0.000376136306278 0)
(0.000135067403275 0.00048468394701 0)
(0.000150460291324 0.000454197632595 0)
(0.000103265624803 0.00023724348578 0)
(0.000219785609019 0.000342804104619 0)
(0.00033430803497 0.000439255481235 0)
(0.000367081037168 0.000426525801558 0)
(0.000415721899667 0.000400430523657 0)
(0.000450874815132 0.000370808679464 0)
(0.000528834328947 0.000319237014667 -2.71233178013e-28)
(0.000417011577012 0.000172938998146 1.63674848468e-28)
(0.000479916525291 0.000162498817241 0)
(0.000519270615385 0.000178003002538 0)
(0.000612935401055 0.000232761024018 0)
(0.000733772181043 0.000304806935229 0)
(0.000814660695778 0.000330130470763 0)
(0.000820218301376 0.000310808112611 0)
(0.000880330635669 0.000332016071614 0)
(0.000958066259358 0.000369444152315 0)
(0.00100865376623 0.00037920399055 0)
(0.00106090117401 0.000372194308279 0)
(0.00111232681034 0.00035896530903 0)
(0.00116210336116 0.000341781299872 0)
(0.0012026132518 0.000321434082782 0)
(0.00123471856914 0.000302483158522 0)
(0.00129748961949 0.000295746619649 0)
(0.0012991983971 0.000282398113436 0)
(0.00138858986198 0.000271656122317 0)
(0.00135513251703 0.000233676150951 0)
(0.00145061258777 0.000239319649869 0)
(0.00144623601596 0.000244868696141 -1.01965533517e-28)
(0.00153878868254 0.000266224167912 1.05678132724e-28)
(0.00160141473441 0.000301245103118 0)
(0.00170023531137 0.000332232948447 0)
(0.001752707788 0.000334296668899 0)
(0.00179684955162 0.000324087286404 0)
(0.00184046844918 0.000309175446498 0)
(0.0018836514723 0.000290754631957 0)
(0.00192536894329 0.000268299841047 0)
(0.0019652019658 0.000241861510112 0)
(0.00200286781176 0.000214319825979 0)
(0.00203718185831 0.000188964880507 0)
(0.00206702330776 0.000166188595713 0)
(0.00209203504126 0.000144294790043 0)
(0.00211232180063 0.000121624088239 0)
(0.00212796223545 9.71326610643e-05 0)
(0.00213859353595 7.01149284833e-05 0)
(0.0021435819617 4.00032568597e-05 0)
(0.00214228989093 6.45052916811e-06 0)
(0.00213396896781 -3.06437040469e-05 0)
(0.0021176582929 -7.13308022973e-05 0)
(0.00209260641887 -0.000115554133522 0)
(0.00205843841476 -0.000162874712697 0)
(0.00201386461149 -0.000214071176907 0)
(0.00195402744267 -0.000274139359862 0)
(0.00187081916164 -0.00034970217402 0)
(0.00175896730668 -0.000442838572016 0)
(0.0016224913829 -0.000548841928275 0)
(0.00147686541081 -0.000659231863219 0)
(0.00133810248366 -0.000765379739764 0)
(0.001216588858 -0.000859968079707 0)
(0.00112479992942 -0.000951077505792 0)
(0.00108070281714 -0.0010398985405 0)
(0.000922017314758 -0.000902821255904 0)
(0.000720309759795 -0.000640583281784 0)
(0.00067412713803 -0.00055011192233 0)
(0.000605120771362 -0.000499784872198 0)
(0.000529671726099 -0.000477286804235 0)
(0.000472839477745 -0.000501765892912 0)
(0.000412414840536 -0.000517345616667 0)
(0.000338992205495 -0.000484242886036 0)
(0.000281828257659 -0.000473245349795 0)
(0.000214350687393 -0.000466707464717 0)
(0.000152013343707 -0.000452317148367 0)
(0.000105080879665 -0.000396898105664 0)
(6.95163599371e-05 -0.000335320127647 0)
(3.2847369708e-05 -0.000290897132266 0)
(1.46865158887e-05 -0.000321158279068 0)
(5.11739046224e-06 -0.000322739289128 0)
(1.865550333e-05 0.000339142096577 0)
(8.50454296371e-05 0.000457436139227 0)
(0.000149155045208 0.000502329835864 0)
(9.386172537e-05 0.000306902148482 0)
(0.000106506032524 0.000293805690443 0)
(0.000251333580371 0.000470590741734 0)
(0.00030360340549 0.000484540622402 0)
(0.000348472021385 0.000471954572615 0)
(0.000375355016682 0.000434715686902 0)
(0.000426602067521 0.000405964582691 0)
(0.000351645738061 0.000248866360015 0)
(0.000402443859823 0.00020445172043 0)
(0.00045861960543 0.000211746157819 0)
(0.000509703143757 0.000247899330153 0)
(0.000644117898891 0.000341979056769 0)
(0.000736845261126 0.000387041011187 0)
(0.000735406995986 0.000354073348888 0)
(0.00078554031303 0.00035830680691 0)
(0.0008745594027 0.000404269404025 0)
(0.000938296156283 0.000429911398577 0)
(0.00098587144231 0.000430421996886 0)
(0.00103439812644 0.000421870220781 0)
(0.00108984456692 0.000411576637679 0)
(0.00113858803376 0.00039209904289 0)
(0.00119188471984 0.000363680152929 0)
(0.00120540049121 0.00034468326038 0)
(0.00128077138171 0.000337152160003 0)
(0.00129758358035 0.000316663168276 0)
(0.00130403721986 0.000292140266796 0)
(0.00135397358061 0.000283884955996 0)
(0.00146053935677 0.000295483190407 0)
(0.00146723738248 0.000293162488914 0)
(0.00151054004813 0.000330888343194 0)
(0.00164172311082 0.000385576753607 0)
(0.00169795408541 0.000398693274182 0)
(0.00174700559958 0.000386189627151 0)
(0.00179316872564 0.000369755689273 0)
(0.00183788763486 0.000352474819756 0)
(0.0018823176029 0.000332593299807 0)
(0.00192546500318 0.000308684779643 0)
(0.00196628536825 0.000280858301427 0)
(0.00200449990682 0.000251148747938 0)
(0.00203938954133 0.000221933142937 0)
(0.00206991390801 0.000194050926722 0)
(0.00209556681773 0.000166802715052 -1.03584174415e-28)
(0.00211628327793 0.000138948480674 1.03326318088e-28)
(0.00213182657241 0.000109260958583 0)
(0.00214151810912 7.66787384149e-05 0)
(0.00214454045717 4.04253025705e-05 0)
(0.00214025630171 3.69898964984e-08 0)
(0.00212802976181 -4.47074714034e-05 0)
(0.00210712125461 -9.39015553119e-05 0)
(0.00207681238779 -0.000147654697554 0)
(0.00203583810013 -0.000206917181627 0)
(0.00198090929168 -0.000275184171162 0)
(0.00190571807171 -0.000358625727676 0)
(0.00180370765304 -0.000460846302104 0)
(0.00167513867194 -0.000577054496314 0)
(0.00153241259675 -0.000694326010399 0)
(0.00139368639414 -0.000800156603244 0)
(0.00126864967886 -0.000886950195055 0)
(0.0011660984693 -0.000957540364575 0)
(0.00109126485328 -0.00102430491053 0)
(0.00103085661508 -0.00109518077573 0)
(0.00103689045958 -0.00114176974859 0)
(0.000715644974241 -0.000777098130137 0)
(0.000589969137809 -0.000626213928613 0)
(0.000526919506548 -0.000570681960039 0)
(0.000456734179973 -0.000542353163153 0)
(0.000406370162248 -0.000554109313431 0)
(0.000358168491189 -0.00055832790804 0)
(0.000302004941768 -0.000545054644318 0)
(0.000240150560447 -0.000546584583827 0)
(0.000168672965723 -0.000536707229205 0)
(0.000110643621771 -0.000503591534648 0)
(6.70586346818e-05 -0.000430877871654 0)
(3.40124179276e-05 -0.000375748223647 0)
(1.58394335022e-06 -0.000325679442512 0)
(-1.20314135197e-05 -0.000326564261819 0)
(-5.2725126836e-06 -0.000330689135058 0)
(2.58974331209e-05 0.000397868370367 0)
(9.54850027541e-05 0.000521911055294 0)
(0.000122028438788 0.000515146054543 0)
(8.77160109018e-05 0.000335400103253 0)
(0.000147117640178 0.000386049717578 0)
(0.000254662494469 0.000530334923243 0)
(0.000274205107074 0.000526038251646 0)
(0.000330355783612 0.000513453714758 0)
(0.000317910149746 0.000433236786869 0)
(0.00041355676278 0.000454775810216 0)
(0.000330628754468 0.000274584410158 0)
(0.000398126619932 0.000256903948832 0)
(0.000443165505868 0.000270032916548 0)
(0.000533852564784 0.000346781441768 0)
(0.000647765753239 0.000437830551481 0)
(0.000708175034127 0.000439449378312 0)
(0.000704132476368 0.000395673580503 0)
(0.00077498509634 0.000426892697941 0)
(0.000852636991017 0.000471965295184 0)
(0.000909863502345 0.000486307750943 0)
(0.000963167880811 0.000482250413523 0)
(0.00100726042091 0.000469585805 0)
(0.00105940320488 0.000458244441786 0)
(0.00109395880411 0.000435754387335 0)
(0.00112289802179 0.000395388348263 0)
(0.00120325150874 0.000387527984789 0)
(0.00117755131283 0.00036527266964 0)
(0.00130864995516 0.000363429344442 0)
(0.00127710314759 0.000337338229021 0)
(0.00140182192616 0.000352861256507 0)
(0.00137232358936 0.000332556580428 0)
(0.0015010595308 0.000362823347834 0)
(0.00157155719004 0.000414961976238 -1.12597517095e-28)
(0.00163811708235 0.000453685264569 1.14252232402e-28)
(0.00169062611753 0.000452498886795 0)
(0.001739995886 0.000436096047164 0)
(0.00178850144117 0.000417125066936 0)
(0.00183516550409 0.000397632512739 0)
(0.00188092151905 0.000376052197632 0)
(0.00192542085131 0.000350536717577 0)
(0.00196763068116 0.000320831356195 0)
(0.00200692047237 0.00028848413717 0)
(0.00204266798005 0.000255429892333 0)
(0.00207409861887 0.000222658194709 0)
(0.00210067814225 0.000189998143061 0)
(0.0021219831969 0.000156499904317 0)
(0.00213738975419 0.000120831555864 0)
(0.00214596468216 8.17021266409e-05 0)
(0.00214676699274 3.82328675643e-05 0)
(0.00213911489979 -1.00045514232e-05 0)
(0.00212246721689 -6.32729480772e-05 0)
(0.00209628672362 -0.000121878802461 0)
(0.00205985705547 -0.000186743261717 0)
(0.00201122118698 -0.000260630726122 0)
(0.00194584396068 -0.000349018006656 0)
(0.00185694212453 -0.000457634283662 0)
(0.00174044771223 -0.000584618066386 0)
(0.0016021003436 -0.000717741473891 0)
(0.00145879890172 -0.000839461889647 0)
(0.00132444542423 -0.000937018055532 0)
(0.0012026068445 -0.00100299150483 0)
(0.00109929222649 -0.00104334358366 0)
(0.00102609275648 -0.0010835404112 0)
(0.000979504786617 -0.00113257084554 0)
(0.000990689329852 -0.00118922103771 0)
(0.000878619536143 -0.00106613934508 0)
(0.000551799495015 -0.000720080529254 0)
(0.000442762030452 -0.000643211805218 0)
(0.000395289845088 -0.00060767667189 0)
(0.000357669804417 -0.000594780038258 0)
(0.000320550653528 -0.000596582341601 0)
(0.000270988348762 -0.000612287645997 0)
(0.000200134268907 -0.000623553543471 0)
(0.000124552828278 -0.000605591872277 0)
(6.29115284137e-05 -0.000550124446718 0)
(1.53175221099e-05 -0.00047528243895 0)
(-2.09668870492e-05 -0.000409192943886 0)
(-4.3484211237e-05 -0.000355016486649 0)
(-4.35114871097e-05 -0.000322234480858 0)
(-1.79865234597e-05 -0.000308820056313 0)
(3.12322540583e-05 0.00046990455751 0)
(0.000104930841946 0.00056843153768 0)
(0.000109476853975 0.000508788540064 0)
(8.71854138004e-05 0.00036013109074 0)
(0.00018582741542 0.000516053948979 0)
(0.000224513264439 0.000545102021347 0)
(0.000248207266314 0.000562056835701 0)