/*--------------------------------*- C++ -*----------------------------------*\
| =========                 |                                                 |
| \\      /  F ield         | OpenFOAM: The Open Source CFD Toolbox           |
|  \\    /   O peration     | Version:  v1806                                 |
|   \\  /    A nd           | Web:      www.OpenFOAM.com                      |
|    \\/     M anipulation  |                                                 |
\*---------------------------------------------------------------------------*/
FoamFile
{
    version     2.0;
    format      ascii;
    class       surfaceScalarField;
    location    "809";
    object      phia;
}
// * * * * * * * * * * * * * * * * * * * * * * * * * * * * * * * * * * * * * //

dimensions      [0 3 -1 0 0 0 0];
oriented        oriented;


internalField   nonuniform List<scalar> 
12640
(
4.21792339331e-08
-4.08272486332e-08
7.96254621942e-08
-3.6307014705e-08
1.12127749377e-07
-3.16356671246e-08
1.40138723456e-07
-2.72598024928e-08
1.62512400771e-07
-2.17088981329e-08
1.79283194011e-07
-1.62665795354e-08
1.94481266241e-07
-1.47779147371e-08
2.15778403108e-07
-2.09224930969e-08
2.43344512302e-07
-2.72095213849e-08
2.71361430789e-07
-2.76920367312e-08
2.99165201835e-07
-2.74965617308e-08
3.28939648687e-07
-2.94988805401e-08
3.59007259524e-07
-2.98093549765e-08
3.88650302567e-07
-2.94175478761e-08
4.19468129692e-07
-3.06189777692e-08
4.5408719003e-07
-3.44688067549e-08
4.90956754533e-07
-3.6731504594e-08
5.27371588528e-07
-3.6294623039e-08
5.63116912712e-07
-3.56015260682e-08
6.00740878743e-07
-3.74736169148e-08
6.44268546998e-07
-4.33660312902e-08
6.93127716724e-07
-4.87131319731e-08
7.43560821471e-07
-5.02907066977e-08
7.93759435164e-07
-5.00799893451e-08
8.4330518855e-07
-4.94315612105e-08
8.92572740616e-07
-4.91738212675e-08
9.42364080892e-07
-4.96980020359e-08
9.92361866871e-07
-4.99235913692e-08
1.0421263591e-06
-4.96885843764e-08
1.09189220012e-06
-4.97073228302e-08
1.14247401175e-06
-5.05188221816e-08
1.19346507195e-06
-5.09439257435e-08
1.24448596898e-06
-5.09720633307e-08
1.29708753374e-06
-5.2562487799e-08
1.35110590377e-06
-5.39678844794e-08
1.40582605894e-06
-5.46818825863e-08
1.46121370164e-06
-5.53396904572e-08
1.51583139355e-06
-5.4576328464e-08
1.5686869989e-06
-5.28060104658e-08
1.6199744616e-06
-5.12512458161e-08
1.67074165751e-06
-5.07272331811e-08
1.71873386148e-06
-4.79662289335e-08
1.76097839069e-06
-4.22133711997e-08
1.79910506903e-06
-3.81040845772e-08
1.8347776753e-06
-3.56417275055e-08
1.86764866934e-06
-3.28480619795e-08
1.8973092668e-06
-2.96286666166e-08
1.92297573163e-06
-2.56407996142e-08
1.94455968911e-06
-2.15483347719e-08
1.96411936251e-06
-1.9528558626e-08
1.98422937408e-06
-2.00647713225e-08
2.00169560276e-06
-1.74225724333e-08
2.00923094201e-06
-7.47927453975e-09
2.00917163617e-06
1.18407095622e-10
2.00087195262e-06
8.37516039272e-09
1.98181100693e-06
1.91440997706e-08
1.96348624982e-06
1.84380094259e-08
1.95090987999e-06
1.27162715304e-08
1.93418765109e-06
1.6903879876e-08
1.91381781841e-06
2.06001724303e-08
1.90131436799e-06
1.28013314229e-08
1.88238223814e-06
1.92928823568e-08
1.8194566339e-06
6.33230177276e-08
1.68912264562e-06
1.30651280433e-07
1.54866385189e-06
1.40675775124e-07
1.44200651825e-06
1.0679281291e-07
1.34241157188e-06
9.97153993419e-08
1.24060800836e-06
1.01932448348e-07
1.13068551072e-06
1.1006581049e-07
1.00693897538e-06
1.23893559469e-07
8.76535416389e-07
1.30550564474e-07
7.49318071536e-07
1.27357237168e-07
6.29023713753e-07
1.20414473011e-07
5.03121870663e-07
1.26008631657e-07
3.95753205875e-07
1.0745787726e-07
3.03115252549e-07
9.27324171498e-08
2.37566383978e-07
6.56567020911e-08
1.65048716817e-07
7.26395115972e-08
9.98601948086e-08
6.5220052474e-08
9.99767592764e-08
2.23913268997e-08
-6.234057289e-08
5.1827603552e-08
-6.48369152161e-08
8.04817461467e-08
-5.95231051281e-08
1.09905939874e-07
-5.60339910197e-08
1.45885632115e-07
-5.71436093692e-08
1.74365513672e-07
-4.4202812719e-08
1.94886198628e-07
-3.48414256404e-08
2.17597698709e-07
-4.31946549367e-08
2.43187197293e-07
-5.24207767371e-08
2.71147818456e-07
-5.52819104508e-08
2.9967010077e-07
-5.57130505678e-08
3.27076818821e-07
-5.66006753793e-08
3.54909071851e-07
-5.74019040559e-08
3.84305630574e-07
-5.85945605526e-08
4.15806265042e-07
-6.19693019782e-08
4.51328780753e-07
-6.98324334329e-08
4.87219965471e-07
-7.25081159255e-08
5.19012692368e-07
-6.79311880305e-08
5.51932441714e-07
-6.83819069906e-08
5.91549580878e-07
-7.6912106814e-08
6.38306828065e-07
-8.99689592755e-08
6.90090468553e-07
-1.0032407957e-07
7.41824272394e-07
-1.01900720353e-07
7.90789303535e-07
-9.89057899262e-08
8.39471392863e-07
-9.80186958684e-08
8.89741472985e-07
-9.93301445931e-08
9.39779764578e-07
-9.9663271508e-08
9.89369546856e-07
-9.94191952401e-08
1.03916895906e-06
-9.94321158999e-08
1.08933112692e-06
-9.97918109668e-08
1.13954311629e-06
-1.00690102243e-07
1.18983009922e-06
-1.01170669418e-07
1.24015542801e-06
-1.01265522204e-07
1.2926150381e-06
-1.04965814132e-07
1.34804750073e-06
-1.09373947547e-07
1.40334885217e-06
-1.09924596045e-07
1.45844485804e-06
-1.10403227361e-07
1.51462610187e-06
-1.10701040199e-07
1.5709368896e-06
-1.09087977648e-07
1.62379796771e-06
-1.04061336654e-07
1.66606362087e-06
-9.29740229123e-08
1.70079530962e-06
-8.26601515321e-08
1.73807564216e-06
-7.94818240587e-08
1.77775854056e-06
-7.77525564251e-08
1.81629079722e-06
-7.41616881179e-08
1.85287256553e-06
-6.93959404393e-08
1.88639334446e-06
-6.31359374217e-08
1.91681822717e-06
-5.60310498731e-08
1.94353227798e-06
-4.82446094851e-08
1.96300887961e-06
-3.8965886821e-08
1.97218976136e-06
-2.9220026422e-08
1.97815615296e-06
-2.33414611112e-08
1.9938240726e-06
-2.31061301423e-08
2.00555090625e-06
-1.1543245287e-08
2.00246069915e-06
1.15304984261e-08
1.9984511124e-06
2.32495867761e-08
1.99297912037e-06
2.40185232157e-08
1.98043513261e-06
2.54108487459e-08
1.96692117743e-06
3.06011542053e-08
1.95008710962e-06
3.76796704743e-08
1.91218978352e-06
5.09751976365e-08
1.86752416714e-06
6.42953036995e-08
1.79566032808e-06
1.35547431373e-07
1.66744736443e-06
2.59183402338e-07
1.50434365796e-06
3.03959109734e-07
1.34776716444e-06
2.63499176131e-07
1.25285023555e-06
1.94742013839e-07
1.18430717741e-06
1.70600066909e-07
1.09601404817e-06
1.98493277336e-07
9.78675118893e-07
2.41384003794e-07
8.41716303446e-07
2.67656250623e-07
7.04434799061e-07
2.64773368646e-07
5.90642663085e-07
2.34328858165e-07
5.05364369454e-07
2.11406762554e-07
4.22638231664e-07
1.90296178804e-07
3.46191467153e-07
1.69296809827e-07
2.66435524251e-07
1.45524576201e-07
1.9541949731e-07
1.43758542276e-07
1.02243653808e-07
1.58591471337e-07
2.02223078163e-07
2.71285969432e-08
-8.88490447873e-08
4.20265122223e-08
-7.89830517951e-08
7.47689028225e-08
-9.15213050762e-08
1.12441238019e-07
-9.30698444886e-08
1.48108878262e-07
-9.22580665629e-08
1.68105125633e-07
-6.37515227092e-08
1.82099750551e-07
-4.83631266568e-08
2.0652489546e-07
-6.71094201624e-08
2.34653609506e-07
-8.00838771471e-08
2.63278703927e-07
-8.35126947763e-08
2.91904936355e-07
-8.39882090898e-08
3.19448752283e-07
-8.38713094657e-08
3.46952220224e-07
-8.46912460676e-08
3.76573119909e-07
-8.80475840383e-08
4.06121655193e-07
-9.13677113696e-08
4.25701461505e-07
-8.92782759244e-08
4.38628532581e-07
-8.52844671729e-08
4.63746509259e-07
-9.28985509993e-08
5.08357479057e-07
-1.12819116073e-07
5.69896554041e-07
-1.38278614045e-07
6.33355516983e-07
-1.53255014256e-07
6.85786947441e-07
-1.52608266377e-07
7.33603283485e-07
-1.49574175554e-07
7.83634174643e-07
-1.48819372993e-07
8.34135845474e-07
-1.48405299044e-07
8.83309897989e-07
-1.48411195133e-07
9.32439186807e-07
-1.48698424907e-07
9.82195938539e-07
-1.4910189602e-07
1.03223174362e-06
-1.49392296753e-07
1.08275000111e-06
-1.50254319691e-07
1.13270629101e-06
-1.50589069339e-07
1.18301700461e-06
-1.51436046076e-07
1.23479263691e-06
-1.52995763194e-07
1.28529307555e-06
-1.55428827114e-07
1.33910677075e-06
-1.63134888713e-07
1.39864983768e-06
-1.69425645958e-07
1.45534870829e-06
-1.67051989929e-07
1.51019895154e-06
-1.65510320042e-07
1.56753305657e-06
-1.66375753769e-07
1.62254750543e-06
-1.59044968859e-07
1.67317183658e-06
-1.43564508074e-07
1.71981711013e-06
-1.29283545073e-07
1.76183844316e-06
-1.214752164e-07
1.80043632613e-06
-1.163324777e-07
1.83645272014e-06
-1.10153660625e-07
1.86953303917e-06
-1.02460003063e-07
1.89974585765e-06
-9.3325085413e-08
1.92684914165e-06
-8.31164880158e-08
1.95047632866e-06
-7.18455959469e-08
1.97092539853e-06
-5.93930165925e-08
1.98878754886e-06
-4.70503853091e-08
2.00233322565e-06
-3.68543976055e-08
2.00564603928e-06
-2.63736586843e-08
2.00266796682e-06
-8.5135096681e-09
2.00341092475e-06
1.08598660889e-08
2.00360107278e-06
2.3148409664e-08
1.99617826592e-06
3.15606721058e-08
1.98215424415e-06
3.95835449122e-08
1.96412588101e-06
4.8820055523e-08
1.94077641756e-06
6.12550701776e-08
1.91065205657e-06
8.1373128651e-08
1.84271104287e-06
1.32548282711e-07
1.69712312472e-06
2.81447395013e-07
1.50116930225e-06
4.55381273617e-07
1.35224736693e-06
4.53064239291e-07
1.28525269982e-06
3.30621228155e-07
1.20656697415e-06
2.73541930149e-07
1.10547630856e-06
2.71806987902e-07
9.94720867316e-07
3.09379308691e-07
8.72088230359e-07
3.64159431029e-07
7.54585530248e-07
3.85307294006e-07
6.63158561032e-07
3.56344356057e-07
5.84157063727e-07
3.13468222393e-07
5.04001825466e-07
2.91684534788e-07
4.11083677168e-07
2.83325712571e-07
3.18167052971e-07
2.62320939328e-07
2.39853475196e-07
2.23966006039e-07
1.81383658394e-07
2.02365571703e-07
7.80572003424e-08
2.61914892321e-07
2.80372051981e-07
1.84557715073e-08
-1.06551036363e-07
2.54298475086e-08
-8.54284996853e-08
6.04165853793e-08
-1.25852591334e-07
9.05864232175e-08
-1.2266597587e-07
9.62238347644e-08
-9.74592094216e-08
8.856205229e-08
-5.5830514636e-08
1.23870959666e-07
-8.32642719457e-08
1.78642657181e-07
-1.21309653323e-07
2.18233878159e-07
-1.19172599607e-07
2.49851123836e-07
-1.14705040136e-07
2.79958625731e-07
-1.13772646464e-07
3.08510730497e-07
-1.12181558112e-07
3.34399897659e-07
-1.10393562047e-07
3.50851888197e-07
-1.04352429821e-07
3.60037578257e-07
-1.00409716648e-07
3.7668324696e-07
-1.05755003763e-07
4.12505788044e-07
-1.20928894139e-07
4.67102035325e-07
-1.47304044052e-07
5.29875413228e-07
-1.75407324381e-07
5.83531310106e-07
-1.91758935277e-07
6.28192224228e-07
-1.9775730708e-07
6.75487116881e-07
-1.99750146637e-07
7.25071340493e-07
-1.99025044665e-07
7.74059344436e-07
-1.97682733153e-07
8.22809176042e-07
-1.97049887406e-07
8.7168244149e-07
-1.97184203295e-07
9.21370667499e-07
-1.9830288936e-07
9.71445686502e-07
-1.99094404037e-07
1.02207781865e-06
-1.99957609432e-07
1.07227587219e-06
-2.00390542941e-07
1.12352457691e-06
-2.0178811304e-07
1.17312977331e-06
-2.00995896947e-07
1.22237890866e-06
-2.02199565022e-07
1.27961839131e-06
-2.12616350988e-07
1.33744558645e-06
-2.20915959453e-07
1.39474545854e-06
-2.26673371862e-07
1.4579965789e-06
-2.30256808287e-07
1.51915057493e-06
-2.26618342873e-07
1.57251512957e-06
-2.19704802566e-07
1.62226578626e-06
-2.0875908161e-07
1.67156381853e-06
-1.92833807152e-07
1.7191657458e-06
-1.76856429287e-07
1.76273250703e-06
-1.65021761178e-07
1.80223049994e-06
-1.55809564093e-07
1.83845258332e-06
-1.46361311428e-07
1.87163403687e-06
-1.3562446929e-07
1.90183523183e-06
-1.23513260236e-07
1.92892249051e-06
-1.10186345769e-07
1.95275210104e-06
-9.56598989894e-08
1.97340744964e-06
-8.00277680447e-08
1.9904724757e-06
-6.40950526689e-08
2.00207608913e-06
-4.84308194342e-08
2.0068723927e-06
-3.11361249603e-08
2.0085248424e-06
-1.01158192376e-08
2.00887065545e-06
1.05806457755e-08
2.00496865922e-06
2.71427496577e-08
1.99506851329e-06
4.15779180588e-08
1.97841871675e-06
5.6383694042e-08
1.95349328843e-06
7.39270092186e-08
1.91540157352e-06
9.95611570628e-08
1.8501790028e-06
1.46833021588e-07
1.73579146865e-06
2.4719604522e-07
1.59708979452e-06
4.20420291429e-07
1.47249955365e-06
5.80222527042e-07
1.33245363606e-06
5.932908966e-07
1.200585891e-06
4.62614542114e-07
1.09864258671e-06
3.75589374703e-07
1.01002865395e-06
3.60532181702e-07
9.24057736842e-07
3.95482300266e-07
8.31390088583e-07
4.56982220895e-07
7.2922612413e-07
4.87632349293e-07
6.26449102591e-07
4.59274433175e-07
5.23429001536e-07
4.16616199021e-07
4.23099317495e-07
3.92120375311e-07
3.308820923e-07
3.75644758078e-07
2.36926679233e-07
3.56383753962e-07
1.56173627708e-07
3.04792068232e-07
1.04710709468e-07
2.5385888583e-07
5.3786749373e-08
3.12986261465e-07
3.34146782945e-07
2.91968466253e-09
-1.09182121946e-07
2.05212436673e-08
-1.02612327687e-07
4.69459239234e-08
-1.51760793934e-07
6.83072301191e-08
-1.43599233013e-07
6.58328536589e-08
-9.46534090099e-08
8.66102230327e-08
-7.62677609895e-08
1.3067615781e-07
-1.26831790434e-07
1.64190756727e-07
-1.54301634598e-07
1.96367609159e-07
-1.50856677812e-07
2.2919511758e-07
-1.47138159154e-07
2.62026196345e-07
-1.46319729995e-07
2.85362244344e-07
-1.35300939842e-07
2.94234250985e-07
-1.19108069735e-07
3.04115450818e-07
-1.14066879056e-07
3.31272392789e-07
-1.27365555883e-07
3.76120189472e-07
-1.50387592465e-07
4.3207442211e-07
-1.76665553186e-07
4.86021536148e-07
-2.01047151866e-07
5.28902130142e-07
-2.18104467749e-07
5.68785521153e-07
-2.31475968107e-07
6.13971889626e-07
-2.42785901355e-07
6.62040616824e-07
-2.47674060222e-07
7.10619510725e-07
-2.47469779896e-07
7.58997187555e-07
-2.45943219056e-07
8.07510210873e-07
-2.4545551695e-07
8.56896493197e-07
-2.46478320362e-07
9.06350525237e-07
-2.47666681724e-07
9.57136017978e-07
-2.49803845377e-07
1.00721526911e-06
-2.49971417413e-07
1.0580290099e-06
-2.51149903815e-07
1.10662748483e-06
-2.5033635953e-07
1.15936753122e-06
-2.53685705755e-07
1.21818430972e-06
-2.60964162379e-07
1.27495803513e-06
-2.69336116907e-07
1.3358887444e-06
-2.81789767591e-07
1.40069536502e-06
-2.91429157932e-07
1.46095330133e-06
-2.90467896815e-07
1.51747646852e-06
-2.83102241846e-07
1.57061430224e-06
-2.7280505806e-07
1.62134062756e-06
-2.59453380532e-07
1.67113939773e-06
-2.42602298993e-07
1.7192861876e-06
-2.24979441203e-07
1.76389382944e-06
-2.09608418545e-07
1.80436977795e-06
-1.96271096939e-07
1.84116244485e-06
-1.83141533718e-07
1.87464975388e-06
-1.69103506524e-07
1.90497728345e-06
-1.53831862277e-07
1.93209635581e-06
-1.37298191921e-07
1.95590371754e-06
-1.19457794944e-07
1.97624935726e-06
-1.00364536955e-07
1.99250544737e-06
-8.03392088861e-08
2.00347333808e-06
-5.93821341505e-08
2.00896481306e-06
-3.66005168314e-08
2.01087233453e-06
-1.19811555078e-08
2.00960953061e-06
1.1907476892e-08
2.00301364316e-06
3.38252881229e-08
1.98866548133e-06
5.60409949929e-08
1.96342599046e-06
8.17649505251e-08
1.92202757797e-06
1.15495414059e-07
1.85574488858e-06
1.66034210774e-07
1.7544651826e-06
2.48326622039e-07
1.62563128468e-06
3.76263794576e-07
1.51261238069e-06
5.33670620917e-07
1.41877798591e-06
6.74269455498e-07
1.32153582835e-06
6.9071317684e-07
1.19253852072e-06
5.91740521833e-07
1.05278585547e-06
5.15452970252e-07
9.33629453816e-07
4.79806221286e-07
8.37690392375e-07
4.91553395874e-07
7.46979990549e-07
5.47842141789e-07
6.43807692826e-07
5.90966194367e-07
5.39805288231e-07
5.63416914267e-07
4.43005899968e-07
5.13524719538e-07
3.47705909866e-07
4.87521307701e-07
2.53791173683e-07
4.69654650131e-07
1.69662682757e-07
4.40588446636e-07
1.20601682546e-07
3.5392491216e-07
7.41225908713e-08
3.00426173429e-07
2.87560580902e-08
3.5832721521e-07
3.62966582624e-07
3.39417413529e-10
-1.09104577748e-07
2.27834806022e-08
-1.24684101519e-07
3.57562437522e-08
-1.64307552154e-07
4.54808429752e-08
-1.5291729296e-07
4.49849421322e-08
-9.38786511102e-08
8.7332456871e-08
-1.18214950577e-07
1.27274172876e-07
-1.66269563379e-07
1.48438100025e-07
-1.74962489896e-07
1.74749666024e-07
-1.76740496763e-07
2.02938431897e-07
-1.74988608323e-07
2.24533532625e-07
-1.67641946874e-07
2.25661769177e-07
-1.36261350794e-07
2.35846752806e-07
-1.29110933425e-07
2.6631432047e-07
-1.44317193314e-07
3.13200654385e-07
-1.74007325899e-07
3.7180246311e-07
-2.08735285169e-07
4.26714091927e-07
-2.31346631586e-07
4.67750859442e-07
-2.41890414464e-07
5.05755875592e-07
-2.55935760467e-07
5.50838263631e-07
-2.76394167905e-07
5.97612865331e-07
-2.89407192346e-07
6.44007104312e-07
-2.93925735632e-07
6.91519763578e-07
-2.94853776635e-07
7.40257668076e-07
-2.94562706322e-07
7.89058445609e-07
-2.94152711389e-07
8.36218843728e-07
-2.93543712415e-07
8.8688069455e-07
-2.98246742455e-07
9.36974328192e-07
-2.99825247167e-07
9.88082305207e-07
-3.01014426563e-07
1.03480610121e-06
-2.97817047807e-07
1.08590005333e-06
-3.01377902403e-07
1.14115331094e-06
-3.08885081118e-07
1.1988853957e-06
-3.18637929504e-07
1.26818542687e-06
-3.38575116917e-07
1.33796251672e-06
-3.51509016475e-07
1.40051724026e-06
-3.53933266732e-07
1.45862485715e-06
-3.48532702817e-07
1.51443766193e-06
-3.38876999482e-07
1.56825149926e-06
-3.26585471382e-07
1.62028651286e-06
-3.11457135619e-07
1.6709972015e-06
-2.9328571353e-07
1.71981155253e-06
-2.7377064846e-07
1.76533733317e-06
-2.5511779728e-07
1.80682716777e-06
-2.37749878402e-07
1.84439685203e-06
-2.20705579935e-07
1.87836171366e-06
-2.0306551552e-07
1.90889809773e-06
-1.84368331066e-07
1.93599585943e-06
-1.64396909652e-07
1.9595320665e-06
-1.42996351517e-07
1.97926169075e-06
-1.20096270018e-07
1.99464157437e-06
-9.57197222696e-08
2.0050109387e-06
-6.97467256611e-08
2.01040206575e-06
-4.1973953572e-08
2.01142036067e-06
-1.29636892949e-08
2.00724865694e-06
1.61382899273e-08
1.99512340148e-06
4.6031536357e-08
1.97121392709e-06
8.00547807574e-08
1.93025313785e-06
1.22854551372e-07
1.86532243314e-06
1.80575771492e-07
1.77059989379e-06
2.60927860885e-07
1.64831802574e-06
3.70796851663e-07
1.51835184656e-06
5.06426672115e-07
1.41937190485e-06
6.32861695063e-07
1.32110863731e-06
7.72752624494e-07
1.20507721354e-06
8.06911353603e-07
1.09919485088e-06
6.97745016816e-07
9.75655993627e-07
6.39102011646e-07
8.53970526416e-07
6.01601986012e-07
7.52626895727e-07
5.93024364139e-07
6.54869375601e-07
6.45749869302e-07
5.50979361328e-07
6.95002361895e-07
4.62261225014e-07
6.5225020447e-07
3.68034038932e-07
6.07854800328e-07
2.72453791388e-07
5.83194731249e-07
1.85528258477e-07
5.56664922535e-07
1.2946856903e-07
4.96725574773e-07
8.49529964555e-08
3.98487834887e-07
4.47321171017e-08
3.40655271381e-07
1.89315455453e-08
3.84251018752e-07
3.81892506452e-07
7.31922885657e-09
-1.16233127443e-07
3.07152911084e-08
-1.4773980053e-07
3.94210776517e-08
-1.72649947376e-07
3.1346145855e-08
-1.44497396477e-07
4.79301341939e-08
-1.1011964069e-07
9.1387703385e-08
-1.61207880578e-07
1.12279125761e-07
-1.8667403706e-07
1.29836686279e-07
-1.92096421758e-07
1.49129693142e-07
-1.9564989197e-07
1.76392794757e-07
-2.01949274791e-07
1.79358019564e-07
-1.70391466988e-07
1.85362195672e-07
-1.42067729515e-07
2.13260270725e-07
-1.56780177386e-07
2.5145096363e-07
-1.82242503892e-07
3.06148880197e-07
-2.28421368444e-07
3.60750746132e-07
-2.63081077806e-07
3.99584691442e-07
-2.6996635292e-07
4.35352789028e-07
-2.77468432126e-07
4.81756997421e-07
-3.0216076533e-07
5.29738282815e-07
-3.24210245674e-07
5.75391782158e-07
-3.34909384745e-07
6.21626579687e-07
-3.40023737604e-07
6.69435585297e-07
-3.42532667825e-07
7.16550360219e-07
-3.41563050594e-07
7.63083111713e-07
-3.40586230964e-07
8.11136207034e-07
-3.41504611232e-07
8.59847691484e-07
-3.4687608997e-07
9.11116733814e-07
-3.5102057653e-07
9.59455329231e-07
-3.49290118823e-07
1.00742369731e-06
-3.4572713644e-07
1.06499081548e-06
-3.58884295355e-07
1.12553236708e-06
-3.69367118124e-07
1.19405357395e-06
-3.8709586294e-07
1.2643053629e-06
-4.08764358525e-07
1.33323311304e-06
-4.20381127036e-07
1.3954705457e-06
-4.16123073844e-07
1.45375854074e-06
-4.06779245132e-07
1.51037811518e-06
-3.95460465581e-07
1.56558787339e-06
-3.81762582355e-07
1.6191733025e-06
-3.65013766199e-07
1.67108864282e-06
-3.45176239387e-07
1.72081802484e-06
-3.23481254263e-07
1.76731710407e-06
-3.01604400443e-07
1.80984483387e-06
-2.80272082427e-07
1.84828782751e-06
-2.59148542268e-07
1.88281280634e-06
-2.3759578377e-07
1.91354112899e-06
-2.15105880254e-07
1.94045298255e-06
-1.91321778515e-07
1.96343117584e-06
-1.65989858227e-07
1.98226189586e-06
-1.38943588585e-07
1.99657670008e-06
-1.10049097912e-07
2.00597316115e-06
-7.91478783655e-08
2.01021131135e-06
-4.62034385287e-08
2.00868120897e-06
-1.14018926208e-08
1.99918750339e-06
2.56800730535e-08
1.97778362314e-06
6.75016719235e-08
1.93949957292e-06
1.18422557957e-07
1.87936600913e-06
1.83095860738e-07
1.79460705671e-06
2.65469583571e-07
1.6880010628e-06
3.67692964455e-07
1.57361230511e-06
4.85362544693e-07
1.47252218553e-06
6.07717036214e-07
1.3707019223e-06
7.34895335811e-07
1.26537196094e-06
8.78273737353e-07
1.1172499223e-06
9.55189755421e-07
1.00006630569e-06
8.15044077657e-07
9.05503362839e-07
7.33765115029e-07
7.95402569272e-07
7.118107663e-07
6.79971380893e-07
7.08575535458e-07
5.68889950325e-07
7.5695832747e-07
4.80685176241e-07
7.83321392659e-07
3.94591164772e-07
7.38447075339e-07
2.93586267191e-07
7.08944974384e-07
2.00432620803e-07
6.76428842539e-07
1.28133287989e-07
6.29033129716e-07
9.19579517947e-08
5.32946431252e-07
4.61683590236e-08
4.44320665393e-07
1.03544640145e-08
3.7654521711e-07
5.19390726165e-09
3.89390411806e-07
3.87136679384e-07
1.33372797124e-08
-1.29139310768e-07
3.06912240945e-08
-1.64739457559e-07
3.38060208406e-08
-1.75390914206e-07
1.89730679681e-08
-1.29378745868e-07
4.79940965765e-08
-1.38779489382e-07
7.86691177801e-08
-1.91417392043e-07
9.40207113736e-08
-2.01612827419e-07
1.10654590604e-07
-2.08350027971e-07
1.17944631552e-07
-2.02633867871e-07
1.34553247923e-07
-2.18264923931e-07
1.32424485552e-07
-1.68051538386e-07
1.59815048963e-07
-1.69217106213e-07
1.91175005838e-07
-1.87868287637e-07
2.38165490951e-07
-2.28944551654e-07
2.90875708715e-07
-2.80840413834e-07
3.29523548352e-07
-3.01474604664e-07
3.61260252976e-07
-3.01494869614e-07
4.06278774129e-07
-3.22294025712e-07
4.5605691188e-07
-3.5175720359e-07
5.02141045054e-07
-3.7012979324e-07
5.47214452307e-07
-3.79833988238e-07
5.93188903604e-07
-3.85855496009e-07
6.42008094115e-07
-3.91227165287e-07
6.90679797012e-07
-3.90129563267e-07
7.35121601072e-07
-3.84923631021e-07
7.86230805484e-07
-3.92525444943e-07
8.3364489916e-07
-3.94209381192e-07
8.80603414092e-07
-3.97906642229e-07
9.28613832396e-07
-3.97233990171e-07
9.93876492188e-07
-4.10922528198e-07
1.05343571891e-06
-4.18378930685e-07
1.1136629707e-06
-4.29525880674e-07
1.18543064182e-06
-4.58798269375e-07
1.25986573424e-06
-4.83138395305e-07
1.32502643734e-06
-4.85487851049e-07
1.38678196563e-06
-4.77832197428e-07
1.44685752686e-06
-4.66814822584e-07
1.50544647818e-06
-4.54014684853e-07
1.56254849632e-06
-4.38834178357e-07
1.61795137188e-06
-4.20390252937e-07
1.67138448099e-06
-3.98587835613e-07
1.72233363102e-06
-3.7441507867e-07
1.76998369314e-06
-3.4924655485e-07
1.81363884326e-06
-3.239266021e-07
1.85301695237e-06
-2.98533377229e-07
1.88810433224e-06
-2.72696623197e-07
1.91890760609e-06
-2.45928972161e-07
1.94537346657e-06
-2.17813221253e-07
1.96742767361e-06
-1.88073625659e-07
1.98496873867e-06
-1.56516985208e-07
1.99779250663e-06
-1.22900003873e-07
2.0055074635e-06
-8.68818023508e-08
2.00730264457e-06
-4.7997946492e-08
2.0012416571e-06
-5.3156389717e-09
1.98361720602e-06
4.33398264511e-08
1.94960540364e-06
1.01563903466e-07
1.89529236162e-06
1.72807526819e-07
1.82021266683e-06
2.58258404667e-07
1.72751389528e-06
3.58281816974e-07
1.62279513824e-06
4.72552609922e-07
1.51927015938e-06
5.89057420297e-07
1.4264947145e-06
7.00679043013e-07
1.34168087409e-06
8.19905840995e-07
1.27468983225e-06
9.4545938217e-07
1.14844364281e-06
1.08160517948e-06
9.42032816446e-07
1.02158069806e-06
8.08582277925e-07
8.67306517771e-07
6.97862556479e-07
8.22614837918e-07
5.86481126312e-07
8.20051336023e-07
4.95588975472e-07
8.47957225703e-07
4.21012089648e-07
8.58005725897e-07
3.22002764604e-07
8.37545693909e-07
2.16155615679e-07
8.14880034058e-07
1.30119001207e-07
7.62539958496e-07
7.52031806255e-08
6.84006836233e-07
3.53617360981e-08
5.72840358484e-07
-3.9764744723e-09
4.8369944422e-07
-3.37350613713e-08
4.06306288378e-07
-2.24859421271e-08
3.78244227277e-07
3.64672622223e-07
1.52962931114e-08
-1.44234523248e-07
2.46072541512e-08
-1.73705026458e-07
1.95831838645e-08
-1.7006878744e-07
2.06740400177e-08
-1.30172963605e-07
5.04454895733e-08
-1.68174220482e-07
6.13318403218e-08
-2.01907822871e-07
7.4156200823e-08
-2.14090617583e-07
8.94759973535e-08
-2.23353968147e-07
9.28811864252e-08
-2.05740893123e-07
1.01633447357e-07
-2.26742265775e-07
1.13670754493e-07
-1.79836580988e-07
1.38809318708e-07
-1.94084054574e-07
1.71306960713e-07
-2.20067901315e-07
2.2116078401e-07
-2.78480369367e-07
2.65233733742e-07
-3.24629611844e-07
2.93271762137e-07
-3.29278835073e-07
3.28638139336e-07
-3.36649145739e-07
3.75792582627e-07
-3.69247424968e-07
4.2366509892e-07
-3.9944620193e-07
4.69613831206e-07
-4.15909465134e-07
5.15150933436e-07
-4.25209391794e-07
5.59858643873e-07
-4.30424052137e-07
6.05766902073e-07
-4.37022392504e-07
6.53231778566e-07
-4.37484817127e-07
6.9722992332e-07
-4.28829836265e-07
7.46609044059e-07
-4.41816359685e-07
7.98649278155e-07
-4.46165328267e-07
8.53844767526e-07
-4.5303068755e-07
9.12074868517e-07
-4.55396367723e-07
9.69444881407e-07
-4.6822107345e-07
1.0319762525e-06
-4.80834325705e-07
1.1086909262e-06
-5.06166934813e-07
1.18231381268e-06
-5.32351584277e-07
1.24857552828e-06
-5.49338955618e-07
1.31283475018e-06
-5.49695502433e-07
1.37620164757e-06
-5.41154460701e-07
1.43858785161e-06
-5.2916205218e-07
1.49958827899e-06
-5.14981066667e-07
1.55897546544e-06
-4.98192174402e-07
1.61652500168e-06
-4.77915579431e-07
1.67186080339e-06
-4.53905325024e-07
1.72441630339e-06
-4.26959333813e-07
1.77348599558e-06
-3.98312539947e-07
1.81842432691e-06
-3.68869922621e-07
1.85880949814e-06
-3.3893248149e-07
1.89441211497e-06
-3.08322466986e-07
1.92508558021e-06
-2.76635465416e-07
1.95073863119e-06
-2.43507097821e-07
1.97137102767e-06
-2.0875427527e-07
1.98704611369e-06
-1.72240889207e-07
1.99770791347e-06
-1.33605411697e-07
2.00284399152e-06
-9.20471676837e-08
2.00089263781e-06
-4.60396910756e-08
1.98846825692e-06
7.1238417915e-09
1.96042242473e-06
7.14185071181e-08
1.91217212139e-06
1.49852988456e-07
1.84394050928e-06
2.41062351119e-07
1.76248107049e-06
3.39785751855e-07
1.67189998731e-06
4.48957248234e-07
1.56697970262e-06
5.7760689247e-07
1.45971486339e-06
6.96483054464e-07
1.37113230947e-06
7.89445976058e-07
1.30522487357e-06
8.86012134399e-07
1.2560438261e-06
9.94839322124e-07
1.21003345427e-06
1.12780209522e-06
1.0055982463e-06
1.22614876334e-06
7.33111882072e-07
1.13987883128e-06
6.10126916884e-07
9.45663259228e-07
5.1920982654e-07
9.11043901839e-07
4.43741186594e-07
9.23514954998e-07
3.59099438615e-07
9.42745024086e-07
2.43648081635e-07
9.53097186075e-07
1.33392764398e-07
9.25225069136e-07
5.82521892952e-08
8.37749478025e-07
6.41342338525e-09
7.35907370178e-07
-4.40205838197e-08
6.23316073018e-07
-7.74584310988e-08
5.17172314882e-07
-8.81415678666e-08
4.17066985852e-07
-5.64349676471e-08
3.46567323098e-07
3.08285220454e-07
1.50764886214e-08
-1.5881243012e-07
2.11953404402e-08
-1.79427197517e-07
1.01272440805e-08
-1.58668788252e-07
1.91416231875e-08
-1.3889345985e-07
4.10026829299e-08
-1.89669469524e-07
4.36973785533e-08
-2.04282753467e-07
5.22841300401e-08
-2.22334193339e-07
6.02761223715e-08
-2.31067728729e-07
7.28554119052e-08
-2.18060559748e-07
6.74088249244e-08
-2.2101212456e-07
8.82054288226e-08
-2.00367550633e-07
1.15941342177e-07
-2.21526680098e-07
1.48263474179e-07
-2.52091409127e-07
1.91181821444e-07
-3.21087488678e-07
2.24768239458e-07
-3.57935760806e-07
2.47832966142e-07
-3.52109961317e-07
2.89253667612e-07
-3.77850675208e-07
3.37877017751e-07
-4.17663677033e-07
3.850485658e-07
-4.46427071177e-07
4.32072578363e-07
-4.62758304219e-07
4.79227788238e-07
-4.7221468433e-07
5.25294787362e-07
-4.7636065563e-07
5.67950615823e-07
-4.79547229917e-07
6.1389382135e-07
-4.83323266481e-07
6.63895246193e-07
-4.78739756233e-07
7.09453335066e-07
-4.87278542732e-07
7.59623910774e-07
-4.96261920931e-07
8.07800712666e-07
-5.01136626047e-07
8.73864922609e-07
-5.21384807699e-07
9.41666423661e-07
-5.35947404415e-07
1.01415784509e-06
-5.53244807503e-07
1.08740339034e-06
-5.79332202414e-07
1.16480834702e-06
-6.09684032435e-07
1.23364256153e-06
-6.18113783916e-07
1.29889987208e-06
-6.14901927672e-07
1.36410942399e-06
-6.06319411658e-07
1.42903169061e-06
-5.94045254863e-07
1.49277484587e-06
-5.78691070434e-07
1.55482664808e-06
-5.60216375458e-07
1.61488541044e-06
-5.37952780455e-07
1.67252221279e-06
-5.11527010717e-07
1.72711727628e-06
-4.81546403259e-07
1.777971704e-06
-4.49167839099e-07
1.82443091159e-06
-4.15340016408e-07
1.86593757539e-06
-3.8046164008e-07
1.90201823323e-06
-3.44437857358e-07
1.93230685009e-06
-3.06970696869e-07
1.9566509325e-06
-2.67907167261e-07
1.97517307105e-06
-2.27340612486e-07
1.9881730618e-06
-1.85301242638e-07
1.9958047653e-06
-1.41299241389e-07
1.9974807015e-06
-9.37420227273e-08
1.99086692524e-06
-3.94342654296e-08
1.97113633366e-06
2.68619830457e-08
1.93167287179e-06
1.10879013334e-07
1.86924117782e-06
2.12271485534e-07
1.79077221511e-06
3.19588364631e-07
1.71120390327e-06
4.19334004532e-07
1.62805896563e-06
5.32160926583e-07
1.50710051442e-06
6.98683508336e-07
1.37598731445e-06
8.27802043655e-07
1.28823655318e-06
8.77437368035e-07
1.23645094931e-06
9.38043943285e-07
1.21034318129e-06
1.02119087489e-06
1.20629899231e-06
1.1320600019e-06
1.15234573341e-06
1.28027963206e-06
8.61548676805e-07
1.43079990037e-06
5.38798973565e-07
1.26848617656e-06
4.53525260653e-07
9.96381840074e-07
3.95550883886e-07
9.81574340571e-07
2.9242098398e-07
1.04597085363e-06
1.56677755934e-07
1.08894627622e-06
3.91145209506e-08
1.04287525157e-06
-1.67093292979e-08
8.93662846999e-07
-8.01138846314e-08
7.99373399548e-07
-1.41528267711e-07
6.84784385693e-07
-1.69178260395e-07
5.44885086599e-07
-1.48158417401e-07
3.96073185283e-07
-8.70939940199e-08
2.85585443014e-07
2.21227200656e-07
1.09521749211e-08
-1.69600755991e-07
1.45244679226e-08
-1.82749000595e-07
6.39082084789e-09
-1.50296165788e-07