/*--------------------------------*- C++ -*----------------------------------*\
| =========                 |                                                 |
| \\      /  F ield         | OpenFOAM: The Open Source CFD Toolbox           |
|  \\    /   O peration     | Version:  v1806                                 |
|   \\  /    A nd           | Web:      www.OpenFOAM.com                      |
|    \\/     M anipulation  |                                                 |
\*---------------------------------------------------------------------------*/
FoamFile
{
    version     2.0;
    format      ascii;
    class       volVectorField;
    location    "485";
    object      Ua;
}
// * * * * * * * * * * * * * * * * * * * * * * * * * * * * * * * * * * * * * //

dimensions      [0 1 -1 0 0 0 0];


internalField   nonuniform List<vector> 
6400
(
(6.01899388206e-05 8.31777982137e-05 0)
(0.000165016418929 6.40213172836e-05 0)
(0.000241810720105 5.25525132875e-05 0)
(0.000327008967403 4.76596714333e-05 0)
(0.000389948569388 3.21111460078e-05 0)
(0.000435939744978 1.96119227235e-05 0)
(0.000460704341438 1.49253997871e-05 0)
(0.000481008461344 2.19855067034e-05 0)
(0.000539864921464 3.12492280063e-05 0)
(0.000601240668134 3.07953264484e-05 0)
(0.000628536562947 2.80905274196e-05 0)
(0.000686068380885 3.06764534681e-05 0)
(0.00073961841392 2.94322853756e-05 0)
(0.000785421916152 2.6019157967e-05 0)
(0.00082180313689 2.45561837141e-05 0)
(0.00086093298247 2.73344619162e-05 0)
(0.000909509936515 2.86206070674e-05 0)
(0.000953346132113 2.6676146422e-05 0)
(0.000988373940853 2.33876714339e-05 0)
(0.00102214202025 2.21462513219e-05 0)
(0.00106474342143 2.74039751811e-05 0)
(0.00111726490971 3.33117807995e-05 0)
(0.00117416183041 3.51944023371e-05 0)
(0.00122795545069 3.51726489349e-05 0)
(0.00128010676009 3.38434485245e-05 0)
(0.00133120485909 3.20935165479e-05 0)
(0.00138324231108 3.18474976542e-05 0)
(0.0014336012495 3.12015661727e-05 0)
(0.00147987076366 2.97278996088e-05 0)
(0.00152258277522 2.85639731876e-05 0)
(0.00156177019604 2.8788779344e-05 0)
(0.00160310091727 2.8602892483e-05 0)
(0.0016459464828 2.75788349636e-05 0)
(0.00168635438771 2.84947211988e-05 0)
(0.00172679288704 2.91221496197e-05 0)
(0.00177462198739 2.98289578707e-05 0)
(0.00182119554057 3.1349772478e-05 0)
(0.00185377750665 3.07422353412e-05 0)
(0.00189840749734 2.9423575407e-05 0)
(0.00195182785262 2.99561147129e-05 0)
(0.00199895553538 3.46099544316e-05 0)
(0.00203577261441 3.49014228914e-05 0)
(0.00206934352813 2.69731179729e-05 0)
(0.00209965087893 2.15507456375e-05 0)
(0.00212376090631 1.94185013112e-05 0)
(0.00214390615885 1.71075748923e-05 0)
(0.00215958334107 1.48192660934e-05 0)
(0.00216929616989 1.17121552669e-05 0)
(0.00217351207127 8.94608610013e-06 0)
(0.00217285858132 1.02778176275e-05 0)
(0.00217306872365 1.62200953843e-05 0)
(0.00218824168707 1.58265156091e-05 0)
(0.00218434212638 -6.55939523498e-07 0)
(0.00217281025861 -8.54666784962e-06 0)
(0.00213975194544 -1.52732051348e-05 0)
(0.00205704433333 -3.03108454517e-05 0)
(0.00197077101304 -2.65671473649e-05 0)
(0.00192869555481 -1.44574470139e-05 0)
(0.00191357019246 -1.9987104103e-05 0)
(0.00181884299112 -2.43723317541e-05 0)
(0.00177151671026 -4.03576787086e-06 0)
(0.00169983055367 -1.65856613855e-05 0)
(0.00187117344145 -8.67287443429e-05 0)
(0.00152077095333 -0.000104805271178 0)
(0.00123019202472 -7.19288559028e-05 0)
(0.00111004855371 -4.71867606594e-05 0)
(0.00103652947971 -4.50988739688e-05 0)
(0.000979359953428 -4.45275629554e-05 0)
(0.00091878315048 -4.56353814387e-05 0)
(0.000832764157632 -4.83494428316e-05 0)
(0.000741345998079 -4.94148902295e-05 0)
(0.000636707856047 -4.79689359133e-05 0)
(0.000536005423374 -4.75461434396e-05 0)
(0.000466225903244 -5.07386782022e-05 0)
(0.000345141232774 -4.0475224716e-05 0)
(0.000296469527937 -3.5445531977e-05 0)
(0.000193531699232 -2.18452049728e-05 0)
(0.000197059065708 -2.94654505274e-05 0)
(8.42359305927e-05 -2.04285116869e-05 0)
(6.24678378691e-05 -3.7788818805e-05 0)
(2.28489134768e-05 0.000115467246579 0)
(9.8348332937e-05 0.000129757237567 0)
(0.000171715297433 0.000118130692274 0)
(0.000219413421975 9.48888069699e-05 0)
(0.000318933806944 9.38054874912e-05 0)
(0.000411430395182 6.79335427621e-05 0)
(0.000467245656648 4.5057467681e-05 0)
(0.000507725485616 5.89978859709e-05 0)
(0.000551738049224 7.65254956388e-05 0)
(0.000601139762532 7.59592955538e-05 0)
(0.00064909630854 7.24357939094e-05 0)
(0.000694281651219 7.22775671866e-05 0)
(0.000737720255197 6.70765688617e-05 0)
(0.000778743232646 5.9884972462e-05 0)
(0.000820970669902 5.76774794405e-05 0)
(0.000863906684227 6.83655072995e-05 0)
(0.000908600013674 7.33341825361e-05 0)
(0.000947363250018 5.79661383454e-05 0)
(0.000957168313991 4.64816555211e-05 0)
(0.000996634284878 4.88895204309e-05 0)
(0.001048981884 6.45210270657e-05 0)
(0.00110819934987 8.33865821547e-05 0)
(0.00117388527 8.79646741197e-05 0)
(0.00123211010124 8.15398709505e-05 0)
(0.00127302965146 7.64706467631e-05 0)
(0.00132980620859 7.50284208682e-05 0)
(0.00138448688813 7.2522442129e-05 0)
(0.00143223451819 6.84011881801e-05 0)
(0.00147707798808 6.42397304771e-05 0)
(0.00152058701369 6.11538895948e-05 0)
(0.0015621710326 6.05152688927e-05 0)
(0.00159605990368 5.90233555248e-05 0)
(0.00163834618421 5.50074715036e-05 0)
(0.0016772128683 5.81096323746e-05 0)
(0.00171406909699 6.2664731972e-05 0)
(0.0017714856909 6.09407910244e-05 0)
(0.0018124189653 6.31760402869e-05 0)
(0.00184583151115 6.57332820515e-05 0)
(0.0018973478676 6.35410576076e-05 0)
(0.0019630090598 5.96492562377e-05 0)
(0.00201293049959 5.16421693901e-05 0)
(0.00198335044822 4.16593739991e-05 0)
(0.00198387900405 3.63425164384e-05 0)
(0.00201949398592 3.40487667419e-05 0)
(0.00204715978865 3.14502383743e-05 0)
(0.00207794794394 2.74379992487e-05 0)
(0.00210870039871 2.13854702974e-05 0)
(0.00212918077927 1.3711016044e-05 0)
(0.00215252261047 5.61625843101e-06 0)
(0.00216680788745 -9.7522574832e-07 0)
(0.00215829603916 -4.00057182104e-06 0)
(0.00211248711925 -6.95650677505e-06 0)
(0.00207482256689 -1.240599566e-05 0)
(0.00217050896777 -3.02403520623e-05 0)
(0.00212013824786 -6.48348437552e-05 0)
(0.00207054525831 -8.72379711541e-05 0)
(0.00208255095291 -8.04772988327e-05 0)
(0.00205720988505 -6.66070218479e-05 0)
(0.00201692886346 -7.62045099508e-05 0)
(0.00198379591062 -8.99875616952e-05 0)
(0.00198015348758 -0.000100463194857 0)
(0.00166071453992 -0.000109970745067 0)
(0.0018359229533 -0.000247830328749 0)
(0.00150893708213 -0.000307618294281 0)
(0.00124598983795 -0.000245553495131 0)
(0.00105126019038 -0.000166808991754 0)
(0.000949765974272 -0.000120765443656 0)
(0.000935264156729 -0.000110568440556 0)
(0.000881219844197 -0.000121779234042 0)
(0.000815229358349 -0.000140955560134 0)
(0.000717390670702 -0.000151267917018 0)
(0.000609800262502 -0.000147554439201 0)
(0.000497910183619 -0.000129201135645 0)
(0.000442688981558 -0.000124905704966 0)
(0.000372940802964 -0.000115095898692 0)
(0.00031120973543 -0.000103639753007 0)
(0.000249827387478 -8.72323278025e-05 0)
(0.000194490288056 -8.780908581e-05 0)
(0.000119419604958 -9.17570434749e-05 0)
(5.46085930534e-05 -0.000147331675717 0)
(3.33887009726e-05 0.000200182613363 0)
(9.44363024694e-05 0.000216977592693 0)
(0.00014544767948 0.000203562668897 7.51091334763e-29)
(0.000248826039977 0.000207070414601 -7.04688631398e-29)
(0.000346260671688 0.000205405691448 -6.27848689059e-29)
(0.000406178310086 0.000167473881921 5.74570928322e-29)
(0.000449348389499 9.67673300951e-05 -5.79471289527e-29)
(0.000491177014995 0.000105311673129 5.66495631917e-29)
(0.000537573765963 0.000127274040738 0)
(0.000589813256206 0.000130911093628 0)
(0.000641650699832 0.000125279566723 0)
(0.000688367665844 0.000118113999873 0)
(0.000731465456389 0.000109606715784 0)
(0.000771332634005 0.000104672825863 0)
(0.000813147211754 0.000103930965439 0)
(0.000856196117126 9.87888459338e-05 0)
(0.00079934561575 7.97679902446e-05 0)
(0.000789095854496 6.88494706156e-05 0)
(0.00082892909405 7.92901904729e-05 0)
(0.000901335371186 0.000110953266512 0)
(0.00103795394607 0.000146544698598 0)
(0.00112053827929 0.000156710415423 0)
(0.00116066286272 0.000148847280014 0)
(0.00121832325632 0.000139575041073 0)
(0.00127823129483 0.00013405565415 0)
(0.0013289274212 0.000130366000006 0)
(0.00137724137077 0.000124201640803 0)
(0.00142518803811 0.000117458288785 0)
(0.00147063736845 0.000111544945003 0)
(0.00151252279084 0.000107211760014 1.1212573304e-28)
(0.00155698006819 0.000103563795072 -1.08694118601e-28)
(0.00158491523379 0.000100158564438 0)
(0.00162351324087 9.70240641349e-05 0)
(0.00167918810571 9.656028145e-05 0)
(0.00168647495727 0.00010618170952 0)
(0.00174415063238 0.000113829635921 0)
(0.00181655925395 0.000111469341171 0)
(0.00182860940827 0.000113943860413 0)
(0.00188613893546 0.000121293222659 0)
(0.00195832044319 0.000113690570044 0)
(0.00200995401461 8.61612399924e-05 0)
(0.00204216319357 6.45486583494e-05 0)
(0.00207130653654 6.3412282824e-05 0)
(0.00210003559047 6.50758762541e-05 0)
(0.00212420810775 6.19649649977e-05 0)
(0.00214400379906 5.59585400958e-05 0)
(0.00216000985676 4.63694582116e-05 0)
(0.00217230971754 3.50068261209e-05 0)
(0.00218121933366 2.18815488479e-05 0)
(0.0021863969908 5.15755220316e-06 0)
(0.00218763971546 -1.21139818592e-05 0)
(0.00218472890248 -2.01182439577e-05 0)
(0.00217664157417 -1.55963092883e-05 0)
(0.00214508391179 -3.89505226385e-05 0)
(0.00209426788767 -7.99495301098e-05 0)
(0.00209254745152 -9.57010569776e-05 0)
(0.00207943892591 -9.64317167292e-05 0)
(0.00204240611929 -0.000100765096321 0)
(0.00199600952194 -0.000112676235131 0)
(0.00194670058796 -0.000137058729621 0)
(0.00187365163651 -0.000197610255413 0)
(0.00178604990597 -0.000270622934686 0)
(0.00174249181623 -0.00047501537957 0)
(0.00136516669561 -0.000525286539429 0)
(0.00106195804962 -0.000371578067879 0)
(0.000982494767778 -0.000262557797478 0)
(0.000942977076118 -0.000202715726058 0)
(0.000876754401867 -0.000181039814887 0)
(0.000810790249313 -0.00019869375914 0)
(0.000733500714852 -0.000226382758116 0)
(0.00063973028851 -0.000235853612317 0)
(0.000553120742711 -0.000222276000103 0)
(0.000497009489412 -0.000204810813765 0)
(0.00044154263493 -0.000197479331994 0)
(0.000369635977749 -0.000189573509867 0)
(0.000296613373784 -0.000172412898282 0)
(0.000229188139555 -0.000152712209596 0)
(0.000173708063866 -0.000160231417496 0)
(0.000118853186968 -0.000203809815283 0)
(3.02352848201e-05 -0.000201141514828 0)
(3.19338070663e-05 0.000297162719993 0)
(4.43869326679e-05 0.000201273663326 0)
(0.000117608115324 0.000306138422927 0)
(0.000214541750429 0.00030737372051 0)
(0.000298244330691 0.000262991977525 0)
(0.000173953984839 0.000105312514216 0)
(0.000218894377003 0.00010912470499 0)
(0.000408063377425 0.000197892656856 0)
(0.000502625342368 0.000208707658262 0)
(0.000566923125523 0.000192986619369 0)
(0.000627160672182 0.000180540644905 0)
(0.000678752829449 0.000166226216247 0)
(0.000723484170583 0.000152867125492 0)
(0.000756976111945 0.000133052727357 0)
(0.000730071063957 0.000102309039727 0)
(0.000705124543673 8.07843610034e-05 0)
(0.00071810226705 8.06617383696e-05 0)
(0.000776758006973 0.000112325525667 0)
(0.0008929135804 0.000166306731446 0)
(0.00100635735281 0.000217750154396 0)
(0.0010557739269 0.000228320730991 0)
(0.00110742660198 0.000216636284475 0)
(0.00116516417643 0.000205439826297 0)
(0.00121904361034 0.000196778736488 0)
(0.00126988416558 0.000187721390491 0)
(0.00131854904427 0.000178966082403 0)
(0.00136546040249 0.000171133710533 0)
(0.00141613393824 0.000163486564875 0)
(0.00145811691384 0.000155523224815 0)
(0.00150693365563 0.00014937319069 0)
(0.00153735631437 0.000142929890359 0)
(0.00158552219828 0.000137047010262 0)
(0.00159940393 0.000128787115457 0)
(0.00164406430069 0.000134284193566 0)
(0.0017153354186 0.000150141296305 0)
(0.00173131857152 0.000162247775781 0)
(0.00180126688576 0.000167190507079 0)
(0.00187470775621 0.000170205901573 0)
(0.0019216318024 0.000173163374829 0)
(0.00196349893423 0.000159179086218 0)
(0.00200415784097 0.000130132656528 0)
(0.00203996333508 0.000105088220845 0)
(0.0020720689918 9.40071733164e-05 0)
(0.00210087802507 8.85910837564e-05 0)
(0.00212496056039 8.14770677068e-05 0)
(0.00214462664318 7.15214455978e-05 -1.02834048505e-28)
(0.00216040609188 5.87868997567e-05 1.03608490696e-28)
(0.00217242763392 4.39386393324e-05 0)
(0.00218077309149 2.70588217734e-05 0)
(0.00218522739951 8.16012532455e-06 0)
(0.00218519471196 -1.04050148169e-05 0)
(0.00217898465723 -2.59283381369e-05 0)
(0.00216415846391 -4.33439049367e-05 0)
(0.00213872059217 -7.25838384242e-05 0)
(0.00211050244296 -0.000100231750435 0)
(0.00208620204424 -0.000116508354948 0)
(0.00205575078985 -0.00013181503217 0)
(0.00201034844722 -0.000150150828763 -2.0912015843e-28)
(0.00194920547197 -0.000176422963776 2.44230120001e-28)
(0.0018684763993 -0.00022198576457 0)
(0.00175739440384 -0.000300615111178 0)
(0.00161752095592 -0.000429491741794 0)
(0.00147719050066 -0.000643189359798 0)
(0.00130789595 -0.000730109129754 0)
(0.00112898541606 -0.000561337792073 0)
(0.000932348624914 -0.000343784059668 0)
(0.000851924116597 -0.000263322737414 0)
(0.000796893872058 -0.000250708626703 0)
(0.000738707624982 -0.000272017361235 0)
(0.000685208242852 -0.000309622970117 0)
(0.000615017236024 -0.000322704592039 0)
(0.000542116787235 -0.000304240724379 0)
(0.000467991063805 -0.000281211110956 0)
(0.00037554910424 -0.000259681250672 0)
(0.000306211625902 -0.000251665432488 0)
(0.000242211123232 -0.000246110779321 0)
(0.000172962972835 -0.000222517057418 0)
(0.000100112880492 -0.00018011401041 0)
(7.25663889779e-05 -0.000226832585041 0)
(2.41384085693e-05 -0.000260626084044 0)
(1.83395914544e-06 0.00029622953986 0)
(2.22508730778e-05 0.000244824310437 0)
(0.000104878286947 0.000398847936627 0)
(0.000181249018203 0.000370768461039 0)
(0.00019571956472 0.000247838486873 0)
(0.000156911727243 0.000141976907984 0)
(0.000270038485773 0.000231059685321 0)
(0.000409553937122 0.000320531700002 0)
(0.000467664949426 0.000292329044029 0)
(0.000537763509999 0.000261736161855 0)
(0.000602396810282 0.000244956543513 0)
(0.000657711846361 0.000220838533596 0)
(0.000671389102599 0.000170379543266 0)
(0.000626763530775 0.000115001291578 0)
(0.000647410689979 9.93732848542e-05 0)
(0.000698057401821 0.000113941523524 0)
(0.000780695977058 0.000154670485047 0)
(0.000881707559119 0.00021423569731 0)
(0.000958228032712 0.000259354341357 0)
(0.000991953567873 0.000270245091599 0)
(0.0010423597611 0.000274801855334 0)
(0.00110246644653 0.00027366158453 0)
(0.00115603891558 0.000262827141647 0)
(0.00120810552507 0.000249529796191 0)
(0.00125758988724 0.00023740145043 0)
(0.00130421087037 0.000227809173536 0)
(0.00135592529099 0.000219042103141 0)
(0.00139587750499 0.000208903222823 0)
(0.00145107261111 0.000200341042005 0)
(0.00147884943184 0.000189292459353 0)
(0.00153673961515 0.00018239797648 1.07383865072e-28)
(0.00153475473473 0.000170371027904 -1.01370310865e-28)
(0.00160148938104 0.000172924150428 0)
(0.00166556011734 0.000181861240953 0)
(0.00168929531281 0.000196804046945 0)
(0.00176919333861 0.000220711472165 0)
(0.00182758352499 0.000232646769586 0)
(0.0018780467703 0.000226766218359 0)
(0.00192228748625 0.000214355883043 0)
(0.00196303842218 0.000195512165397 0)
(0.00200282224159 0.000169019710539 0)
(0.00203993948919 0.000143724057834 0)
(0.00207328946522 0.000126703790134 0)
(0.00210236854063 0.00011476793676 0)
(0.00212660053662 0.000102761456466 0)
(0.00214633234073 8.87034992447e-05 0)
(0.00216196089492 7.22596082105e-05 0)
(0.00217357104502 5.36397374958e-05 0)
(0.0021810348176 3.28475097409e-05 0)
(0.00218396388382 1.00198852153e-05 0)
(0.00218156909707 -1.37536914555e-05 0)
(0.00217229721265 -3.78901832497e-05 0)
(0.00215450007867 -6.48913774894e-05 0)
(0.0021282398402 -9.66553393853e-05 0)
(0.00209772592965 -0.000126629667599 0)
(0.00206455087124 -0.000152433634727 0)
(0.00202115890635 -0.000180943610553 0)
(0.00195861324536 -0.000217851551344 0)
(0.00187093110905 -0.000269317642121 0)
(0.00175325075023 -0.000344821008389 0)
(0.0016063671237 -0.000452565157152 0)
(0.00145142762337 -0.000596474520958 0)
(0.00130689961074 -0.000765763227842 0)
(0.00123990178941 -0.000851135324366 0)
(0.00112202620727 -0.000709794016031 0)
(0.000942751485309 -0.000487832521798 0)
(0.000831053773374 -0.000373376863596 0)
(0.000740153826501 -0.00033120300859 0)
(0.000667700587421 -0.000336896778246 0)
(0.000613550476145 -0.000369770570455 0)
(0.000560074669871 -0.000395048264573 0)
(0.000486632564837 -0.00038404907346 0)
(0.000389496410572 -0.000345858205727 0)
(0.000320266589639 -0.000331134230109 0)
(0.000255077200965 -0.000328581767248 0)
(0.000189398899826 -0.000319153784861 0)
(0.000126070747564 -0.000266959690151 0)
(8.03005687372e-05 -0.000229075900404 0)
(5.04565946822e-05 -0.000281949939215 0)
(1.26031504721e-05 -0.000290230091864 0)
(-1.66295036134e-06 0.000276356165177 0)
(2.69714132487e-05 0.000296611640733 0)
(0.000104708987359 0.000453373355761 0)
(0.000147752058896 0.000383257312469 0)
(0.000112092873587 0.000194860887889 0)
(0.000155950703048 0.000201982037339 0)
(0.000330277558855 0.000368362686199 0)
(0.000388561394698 0.000385776163199 0)
(0.000440233755556 0.000357092293324 0)
(0.000503014553592 0.000331358320195 0)
(0.000567087825243 0.000294820699615 0)
(0.000539053068652 0.000214908029638 0)
(0.000498881852676 0.000140757038908 0)
(0.000543591153974 0.000130360444226 0)
(0.000603220361016 0.000152637893487 0)
(0.00070861387628 0.000202901636828 0)
(0.000818162978288 0.000256973857049 0)
(0.000894640929221 0.000288719448381 0)
(0.000917448160214 0.000294843222348 0)
(0.000973049446003 0.000315717041091 0)
(0.00103782912635 0.000333020993444 0)
(0.00109034044839 0.000329366938247 0)
(0.00114140812129 0.000316332169186 0)
(0.00119093096877 0.00030159181829 0)
(0.00124494012923 0.000288781916195 0)
(0.00129162017687 0.000274348425674 0)
(0.00132287229307 0.000263659541479 0)
(0.0013899033761 0.000257051150318 0)
(0.00140705726757 0.000239773408695 0)
(0.00147962246276 0.000229025623153 0)
(0.00146060026952 0.000209875170568 0)
(0.00154698034877 0.000216584987302 0)
(0.00154139479996 0.000217231549676 0)
(0.00163350659151 0.000237715536876 0)
(0.00172307333538 0.000266026164956 0)
(0.00178304575575 0.000285685984137 0)
(0.00183234973208 0.00028464681089 0)
(0.00187827892131 0.000272695236309 0)
(0.00192149147374 0.000255789829171 0)
(0.00196289380433 0.000234295837229 0)
(0.00200287214214 0.00020800688482 0)
(0.00204052219962 0.000181565635584 0)
(0.00207458464922 0.000159689417617 0)
(0.00210408432738 0.00014166080512 0)
(0.00212869182773 0.000124347966415 0)
(0.00214860507319 0.000105778451538 0)
(0.00216412503736 8.52178706883e-05 0)
(0.00217516998756 6.24326546718e-05 0)
(0.00218135405367 3.71962208263e-05 0)
(0.00218213657727 9.44042422856e-06 0)
(0.00217671247358 -2.05344744398e-05 0)
(0.00216387126544 -5.27358902924e-05 0)
(0.00214263562482 -8.78674550143e-05 0)
(0.00211333398802 -0.000125288987913 0)
(0.00207730968009 -0.000162406103467 0)
(0.00203249325092 -0.000201228698725 0)
(0.00197095348767 -0.000248879957212 0)
(0.00188423556546 -0.000311485402346 0)
(0.00176854600481 -0.00039311021191 0)
(0.00162482660062 -0.00049451021486 0)
(0.00146788267695 -0.000613826424885 0)
(0.00132290831385 -0.000739208845283 0)
(0.00113927141091 -0.000815168312097 0)
(0.00118259924585 -0.000968895156515 0)
(0.000993957344635 -0.000802297325864 0)
(0.000849509121307 -0.000584928276401 0)
(0.000767966929704 -0.000478004589557 0)
(0.000677658174629 -0.000418659241514 0)
(0.000596115469128 -0.000401378973354 0)
(0.000549590773021 -0.000437294315106 0)
(0.000497923115816 -0.000474371223703 0)
(0.000408188990542 -0.00044347498322 0)
(0.000333514972462 -0.000411187721482 0)
(0.000272882266216 -0.000406215472718 0)
(0.000203648622162 -0.00039964975493 0)
(0.000148496715372 -0.000377915726095 0)
(9.62493226383e-05 -0.000300787271037 0)
(6.00594746194e-05 -0.000266923620741 0)
(3.47771444113e-05 -0.000313995283487 0)
(9.56138637626e-06 -0.000311322829246 0)
(8.75720388472e-06 0.000299228069564 0)
(6.06946799167e-05 0.000383853581612 0)
(0.000134306368247 0.000491440450385 0)
(0.000149066570699 0.000462325779926 0)
(0.000103207561706 0.000244632239856 0)
(0.000219982791749 0.000350983963099 0)
(0.000333410547924 0.000445847671396 0)
(0.000366600713621 0.000433374822859 0)
(0.000415450580365 0.000407982163416 0)
(0.000451819526353 0.000378946435958 0)
(0.000529410775203 0.00032832114034 -2.64797052564e-28)
(0.000420858853485 0.000182418557988 1.61563787875e-28)
(0.000483764944808 0.000172783008493 0)
(0.000524479395562 0.000189230010255 0)
(0.000619099467019 0.000244770362109 0)
(0.000739212995899 0.000315962423041 0)
(0.000819679180768 0.000340557776839 0)
(0.000828449589071 0.000322283322404 0)
(0.000889514420107 0.000343490502279 0)
(0.000967270583815 0.000379958657537 0)
(0.00101913081412 0.000389423136793 0)
(0.00107254951384 0.000382593301651 0)
(0.00112527345902 0.000369635829789 0)
(0.00117643209614 0.000352780668918 0)
(0.00121873200026 0.000332955262713 0)
(0.00125328986632 0.000314767386747 0)
(0.00131668948233 0.000308325696027 0)
(0.00132258597667 0.000295481284583 0)
(0.00141107531691 0.000285253829693 0)
(0.00138358164506 0.000248622248614 0)
(0.00147817018249 0.000254248651584 0)
(0.00147827656591 0.000259519071058 -9.88389494765e-29)
(0.00157048023812 0.000280530165049 1.02054881082e-28)
(0.00163503074463 0.00031397953011 0)
(0.00173244553934 0.000342770491527 0)
(0.00178614038778 0.000343604182434 0)
(0.00183158887731 0.000332508820835 0)
(0.00187642149933 0.000316800942915 0)
(0.00192065835385 0.000297615584438 0)
(0.00196326643747 0.000274419816348 0)
(0.00200379571826 0.000247283521539 0)
(0.00204192619842 0.000219033859862 0)
(0.00207652494167 0.000192893908965 0)
(0.00210652601962 0.000169266286079 0)
(0.00213157562289 0.000146508682831 0)
(0.00215176028334 0.000123010994933 0)
(0.00216714342981 9.77770250341e-05 0)
(0.00217737401684 7.01549820212e-05 0)
(0.002181845411 3.96389412424e-05 0)
(0.00217994547973 5.93711707276e-06 0)
(0.00217095481715 -3.10041293147e-05 0)
(0.00215395559702 -7.1197208222e-05 0)
(0.00212825086034 -0.000114540547163 0)
(0.00209354996516 -0.00016051711246 0)
(0.00204871677386 -0.000209752646974 0)
(0.00198913583218 -0.000267080490305 0)
(0.00190682782464 -0.000339291422001 0)
(0.00179621136624 -0.000429385773149 0)
(0.00166056781077 -0.00053411884857 0)
(0.00151462825011 -0.000646199745867 0)
(0.00137429695985 -0.000757117935165 0)
(0.00125027303291 -0.00085846437222 0)
(0.00115600361215 -0.000956098329562 0)
(0.00111023441618 -0.00105246359112 0)
(0.000950382186561 -0.000921838576394 0)
(0.000742950897301 -0.000656369431235 0)
(0.000696050218852 -0.000564027988947 0)
(0.000625621100362 -0.000512353762551 0)
(0.00054824289048 -0.000489130183246 0)
(0.000490101975153 -0.000514455854942 0)
(0.000427917051799 -0.000530761569248 0)
(0.000351948006901 -0.00049678355157 0)
(0.000293219873944 -0.000485651185469 0)
(0.000223805709813 -0.000479156445982 0)
(0.000159457160771 -0.000464770747165 0)
(0.000110529268095 -0.000408177645516 0)
(7.32728523411e-05 -0.000345058470385 0)
(3.49762257157e-05 -0.000299434317344 0)
(1.58045456402e-05 -0.000330764005271 0)
(5.43098781513e-06 -0.000332474579593 0)
(1.87720141109e-05 0.000346812442847 0)
(8.49210833487e-05 0.000465295054767 0)
(0.000148050414156 0.000509562082932 0)
(9.35857078929e-05 0.000314901355522 0)
(0.00010644749471 0.000302115805982 0)
(0.000250188018029 0.000478669538586 0)
(0.000302379157766 0.000491893282552 0)
(0.000347247568256 0.000479611751888 0)
(0.000374847391317 0.000443943372648 0)
(0.000426479775 0.000415936618779 0)
(0.000354057895265 0.000258720558704 0)
(0.000404695727582 0.000215436911396 0)
(0.000461506730225 0.000223457165129 0)
(0.000514092003046 0.000260529103325 0)
(0.000648183601754 0.000354800052523 0)
(0.00074001896414 0.00039882878116 0)
(0.000741738963998 0.000366893791905 0)
(0.00079313468077 0.000371730601692 0)
(0.000882007073063 0.000416865889595 0)
(0.000946516203119 0.000441882271592 0)
(0.000995569174883 0.000442435112803 0)
(0.00104552821565 0.000434127265633 0)
(0.00110206743765 0.000424045195435 0)
(0.00115231736079 0.00040503204322 0)
(0.001206766602 0.000377602903311 0)
(0.00122372748261 0.000359274068063 0)
(0.00129934898961 0.000352361550659 0)
(0.00131947109466 0.000332567851012 0)
(0.00132917018522 0.00030872593326 0)
(0.00138108587882 0.000300942584808 0)
(0.00148676900713 0.000312586026338 0)
(0.00149762657204 0.000310442711679 0)
(0.00154361823284 0.00034669301132 0)
(0.00167232373254 0.000398710024152 0)
(0.00173020077038 0.000410304073292 0)
(0.00178067612888 0.000397092394079 0)
(0.00182824374871 0.000379864653738 0)
(0.00187427048905 0.000361669773196 0)
(0.00191980450377 0.000340832122261 0)
(0.00196386635804 0.000315969944016 0)
(0.00200542281263 0.00028720784833 0)
(0.00204416027422 0.000256557896296 0)
(0.00207936786889 0.000226369042 0)
(0.0021100416758 0.000197479848991 0)
(0.00213568243415 0.000169214774473 -9.93126399292e-29)
(0.0021562101277 0.000140373130263 9.90781358718e-29)
(0.00217138471502 0.000109783511542 0)
(0.00218054764869 7.64556590761e-05 0)
(0.00218291026973 3.96787015835e-05 0)
(0.00217784760584 -9.52823622977e-07 0)
(0.00216472575387 -4.56171188579e-05 0)
(0.00214281025534 -9.43609909347e-05 0)
(0.00211139492633 -0.000147214893564 0)
(0.00206927762505 -0.000204960136874 0)
(0.00201337061871 -0.000270873145003 0)
(0.00193760746692 -0.000351035975754 0)
(0.00183552290692 -0.000449548375865 0)
(0.00170727014813 -0.000562619788092 0)
(0.00156505664445 -0.000678866274666 0)
(0.00142669650319 -0.000787085744947 0)
(0.0013013934537 -0.00087968968597 0)
(0.00119749514886 -0.000957565492759 0)
(0.00112105002379 -0.00103134564775 0)
(0.00105856904985 -0.00110878450423 0)
(0.00106736691418 -0.00116399022212 0)
(0.000738044335849 -0.000795206204676 0)
(0.00060882273747 -0.000641178581245 0)
(0.000544844703576 -0.000584438438977 0)
(0.000472953059486 -0.000555525694303 0)
(0.000421311802813 -0.000567985504618 0)
(0.000371640593518 -0.000572591662391 0)
(0.000313853434524 -0.000558974831148 0)
(0.000250543084937 -0.000560681085952 0)
(0.000177144238071 -0.00055091783445 0)
(0.000117255996692 -0.000517573110439 0)
(7.1670713164e-05 -0.000443424923207 0)
(3.69733845357e-05 -0.000386983120971 0)
(2.85536618419e-06 -0.000335501574185 0)
(-1.171001155e-05 -0.000336537295539 0)
(-5.17889991746e-06 -0.000340874600356 0)
(2.59725891743e-05 0.000406204735927 0)
(9.48226837633e-05 0.000529433201102 0)
(0.000120694867359 0.000523162871904 0)
(8.72649554345e-05 0.000343928977878 0)
(0.000146674152967 0.000395144160007 0)
(0.000252726674351 0.000538108041248 0)
(0.000272721637542 0.000534112063693 0)
(0.000328412046111 0.00052187079971 0)
(0.000317738544926 0.000443667688062 0)
(0.000411320391292 0.000466374902196 0)
(0.000331675437077 0.000285994450914 0)
(0.000398899114043 0.000268812622995 0)
(0.000444999789504 0.000283036852814 0)
(0.000536489945383 0.000360782339782 0)
(0.000649405983504 0.000450818073892 0)
(0.000710044708377 0.000452837553874 0)
(0.000709303635716 0.000410751025859 0)
(0.000780633905647 0.000441685022022 0)
(0.000858659971993 0.000485852649634 0)
(0.000917139813168 0.000500039754409 0)
(0.000971752334786 0.000496210469404 0)
(0.00101767105743 0.000483920248859 0)
(0.00107117627011 0.000472855301779 0)
(0.001107788175 0.000450884172669 0)
(0.00113939705503 0.000412016154766 0)
(0.0012196366779 0.000404584136611 0)
(0.00119922053028 0.000382971886168 0)
(0.00132788415917 0.000381886650816 0)
(0.00130227341825 0.000356472626562 0)
(0.00142486406401 0.000371763643321 0)
(0.00140176186264 0.000352125808918 0)
(0.00152880286982 0.000382021001332 0)
(0.00160087055892 0.000431861022239 -1.08297731001e-28)
(0.00166853257371 0.000468169578421 1.09594533144e-28)
(0.00172290973989 0.000466029769605 0)
(0.00177395681023 0.000448885385156 0)
(0.00182395959914 0.000429014390661 0)
(0.00187201890773 0.000408459338436 0)
(0.00191897230811 0.000385722129391 0)
(0.00196445288482 0.000359027553611 0)
(0.00200743953461 0.000328150852639 0)
(0.00204729023584 0.000294628467888 0)
(0.00208337853653 0.000260382423701 0)
(0.00211494076462 0.000226403160144 0)
(0.00214144337896 0.000192533314112 0)
(0.00216246195325 0.000157856175106 0)
(0.00217737775175 0.000121102871513 0)
(0.00218528201826 8.10590878642e-05 0)
(0.00218525508117 3.69178632653e-05 0)
(0.00217661461898 -1.1713178479e-05 0)
(0.00215879410705 -6.50662033552e-05 0)
(0.00213119467683 -0.000123413269048 0)
(0.00209301611505 -0.000187559469148 0)
(0.00204231363185 -0.000260010201438 0)
(0.00197474265531 -0.000345855231339 0)
(0.00188389320276 -0.000450810387787 0)
(0.0017659813464 -0.000573586152791 0)
(0.00162721040987 -0.000702690507688 0)
(0.00148492561359 -0.000822507764671 0)
(0.00135229009133 -0.000922708378111 0)
(0.00123124202166 -0.000995900355007 0)
(0.00112694344746 -0.0010447156736 0)
(0.00105220829767 -0.00109152953618 0)
(0.00100503055666 -0.00114593149133 0)
(0.00101957145553 -0.00121050016303 0)
(0.000908680890943 -0.00109117898712 0)
(0.000570057913989 -0.000735901233153 0)
(0.000458129012989 -0.000658105890842 0)
(0.0004097623577 -0.000622368887871 0)
(0.00037093271864 -0.000609734332896 0)
(0.00033259811655 -0.000611602658665 0)
(0.000281976670528 -0.000627566290609 0)
(0.000209712573429 -0.000639215774702 0)
(0.0001323954326 -0.000621392578457 0)
(6.88600325739e-05 -0.000565497576976 0)
(1.89781480377e-05 -0.000489738917588 0)
(-1.9459346896e-05 -0.000421901998344 0)
(-4.34333405867e-05 -0.000366136001862 0)
(-4.41693731696e-05 -0.000332331913677 0)
(-1.83711766402e-05 -0.000318567425238 0)
(3.11050568474e-05 0.000478529744779 0)
(0.00010371864274 0.000575514949325 0)
(0.000107937968806 0.000517538742012 0)
(8.6508267037e-05 0.000369429901562 0)
(0.000183916933433 0.000525338356413 0)
(0.000222595874223 0.000553704924669 0)