/*--------------------------------*- C++ -*----------------------------------*\
| =========                 |                                                 |
| \\      /  F ield         | OpenFOAM: The Open Source CFD Toolbox           |
|  \\    /   O peration     | Version:  v1806                                 |
|   \\  /    A nd           | Web:      www.OpenFOAM.com                      |
|    \\/     M anipulation  |                                                 |
\*---------------------------------------------------------------------------*/
FoamFile
{
    version     2.0;
    format      ascii;
    class       volScalarField;
    location    "587";
    object      alphak;
}
// * * * * * * * * * * * * * * * * * * * * * * * * * * * * * * * * * * * * * //

dimensions      [0 0 -1 0 0 0 0];


internalField   nonuniform List<scalar> 
6400
(
0.883418970036
1.40418057181
2.21850938105
2.7437686544
3.2467232211
3.7548302695
4.41490650035
5.15702567173
5.56148495785
6.19876043879
7.43052548575
8.2648418283
8.95745781192
9.74361136322
10.7265876395
11.7559367911
12.6636850006
13.516503015
14.2341086791
14.6410447058
14.8171428075
15.113411491
15.7412630919
16.6894969524
17.7336328018
18.6673888698
19.4261545973
20.1254759712
20.8706301585
21.676531921
22.4881007418
23.1048825614
23.4501858205
23.6507508992
23.7444954632
23.7174344309
23.8643806997
24.2574708806
24.3175322063
24.1441309226
24.3592361319
25.0984199394
25.8468626067
26.2444198912
26.3452515954
26.2417944179
26.0021844363
25.6740388699
25.2704068329
24.8116421109
24.2045469614
23.2113696349
21.9054637221
20.3481736543
19.0132590809
17.973487587
16.4820775188
14.206306653
11.8028047223
9.96083272929
8.06346040056
6.08760735659
4.08974898013
4.71831838956
8.54311120948
13.4241986988
16.3940648399
16.0962470463
14.1192806119
12.5438433651
11.728881937
11.9912503471
12.588274485
12.5067688562
14.5998883363
14.057432645
15.9531097255
9.85479065398
12.8660890023
4.80895042462
3.14620891647
2.51258979204
3.125165382
4.37881370143
4.28866867416
4.18723177463
4.40767319357
4.85551092331
5.49367814669
6.30694813048
7.29001973187
8.27041844517
9.13453891766
9.96127211631
10.8029166519
11.7660130737
12.7776050752
13.7458608839
14.7712700914
15.0028033743
14.980605036
15.2426465363
15.8347601569
16.765468266
17.9488568178
18.818701491
19.5441449743
20.2854042401
21.0479946528
21.8223670091
22.6012807552
23.3183786536
23.6591114494
23.8560334551
23.9875527633
23.8591778707
24.0612657657
24.4780671929
24.4798910203
24.1499154366
24.3311733867
25.7075365832
26.8071596587
27.100619063
27.1349518083
26.9355520491
26.5727822596
26.1586434003
25.5635756117
24.9149733337
24.3894222095
24.0065266514
22.9451261754
20.5727778204
19.3773679594
18.076391354
15.9101043747
13.697587405
11.5732213815
9.47976035055
7.57564371532
6.45363047972
4.50032624538
5.15860640795
8.69134384141
14.4783121542
18.2110009647
16.9234370214
14.7668461005
12.8732372722
12.2275699338
12.7064088918
13.8646243742
13.3194778972
13.2027070847
12.7044995692
11.5279044533
9.70262056127
8.16379072693
4.24813060027
3.233451484
2.84060657015
3.3563392632
3.63949415156
4.17392451318
4.61382363236
4.60588056483
4.76084590517
5.39826079377
6.28419187236
7.27440003986
8.27457371696
9.18554833836
10.0168500796
10.7134597773
11.5844252725
14.2195061929
16.2261477473
16.648407386
16.066250506
14.7881249994
14.8975827716
15.9644432841
16.9485488958
17.8654362787
18.808991703
19.6487742041
20.3927456126
21.1344462623
21.9072605613
22.6486844995
23.4647817026
23.806575619
23.7500874561
24.2372443771
24.1241056219
23.966748139
24.6012604659
24.6434625173
24.3703328296
24.565108781
25.2933861861
26.0263764323
26.4282935624
26.5540945093
26.4934290253
26.2876495948
25.9574325209
25.5056143807
24.9553866176
24.3087005832
23.4532680984
22.2615194183
21.0134658691
19.7839823809
17.9356788113
15.8162460632
13.6923269919
11.6056916362
9.61522302395
7.86093391524
6.20958763778
5.10812562171
6.53223096638
11.0915809998
15.4883718914
17.6439661257
17.7530651504
16.18616687
14.5528210278
13.9168911494
13.8745403156
13.25329219
12.6949365043
12.7027307947
12.387153027
11.4254446518
9.81254161767
7.38054501055
7.5670568097
3.24176961075
5.505819166
3.67426464288
3.79563525964
4.49202648902
11.8761611785
10.2659783671
5.32952838436
5.37196505463
6.28389666108
7.29859614884
8.31789896773
9.20440991922
10.0572110446
11.7639651952
13.8655773375
15.5411439136
15.9743888478
14.9576172502
14.2031923754
14.549739483
15.1473956
15.9359830435
16.921956317
17.9534682836
18.9331585307
19.802930968
20.5236311732
21.2893189159
21.9841888576
22.8698279388
23.4556896382
24.1117943825
24.0606546304
23.7625827098
24.2180278395
24.1566641078
24.1162851467
24.3450533015
24.5574023961
24.8888982545
25.4635719427
26.0641629872
26.4613389515
26.6265163134
26.6025958386
26.4251217111
26.1159812561
25.6847220113
25.1392964068
24.4650216512
23.6041736944
22.5190442106
21.2713082963
19.8048242912
17.977008106
15.8980267253
13.7827151739
11.7464251051
9.88240109975
8.30342023776
7.13303548882
6.83574893826
7.86415285378
10.5679848102
15.9066339533
19.3606627109
19.5220756907
17.8648533684
15.5256185461
13.9569606326
13.2159375138
13.4297338256
14.8694608499
14.8269088954
13.5206829135
13.3910863931
16.6851207578
13.0867332269
11.10387422
5.67184976704
7.5723244225
4.43709134901
4.75524172633
6.59121185566
11.7688368454
8.23869632374
5.78757182815
5.89520314051
6.50644457369
7.44387380119
8.47771473596
9.898222035
12.1865917937
13.2220498252
13.6318132406
13.6865286181
13.5378123283
13.6710130119
14.2542466128
14.6830858022
15.1944064603
16.0294495638
17.0273865437
18.0768246292
19.089569752
19.9264261776
20.7811821995
21.4061142291
22.3070410378
22.9114427009
24.1162784667
24.0408737454
23.6849113395
23.8920845947
23.7138450696
23.8639672999
24.1623643602
24.4810517366
24.7869899074
25.1560670076
25.6509774578
26.1645841712
26.5451373552
26.7353933897
26.7435844671
26.5943373286
26.3092918742
25.9007140288
25.3700575523
24.6994892326
23.8538722934
22.809556791
21.5555867776
20.0189306459
18.1518469541
16.0886054779
14.0320342691
12.1283490235
10.501697048
9.28458786914
8.63274080805
8.77507448266
9.11889973874
10.8351086276
15.4433452012
19.4483966722
20.8335802541
19.6716989588
16.9166190331
14.4577778712
14.1684375654
16.4590022588
17.347664518
16.3232804642
15.4176164258
18.0804805728
21.0967112
16.4082523126
15.5239001455
9.96640555789
9.13275502271
5.52705911186
6.08381543914
12.0518634078
11.5266197571
6.63717518856
6.3833263193
6.52181038986
6.85822635408
7.69331675959
10.3134145998
13.5184309971
13.9729618549
13.6496345213
12.7838059059
12.4799579183
12.8725850669
13.8238984388
14.2297720166
14.5740913576
15.2660763257
16.176860229
17.2090543667
18.1879926818
19.2123091344
20.3131037991
20.8877475775
21.9517303243
22.3570779403
23.8099611288
23.8935036108
24.7090762609
23.9295588815
23.2994817764
23.4326971313
23.8513929598
24.2826994856
24.6677465542
25.0242642513
25.4135879943
25.868147392
26.326636755
26.6883258221
26.8919986594
26.9260624027
26.8039392107
26.545982039
26.1660246165
25.6629881177
25.0182900534
24.2016626714
23.1796089821
21.9080372151
20.3316289128
18.4709225697
16.4842668508
14.5707329743
12.8856796367
11.5627192418
10.7060591292
10.4700315294
11.0328332506
10.1970517322
12.6723031093
17.3739365551
20.7702161558
22.1118194116
21.1915954317
17.8237646969
15.6385757361
17.4640852283
19.6899966193
19.180115004
18.1963803353
18.282706253
22.8569422421
24.4433423189
19.4385481711
19.2402903592
12.0858592602
8.98912429951
6.72034644386
6.30080123978
11.9964089671
8.42093233215
6.86012497352
6.97620580193
7.10435624208
7.79793298821
8.29504270204
13.2502723751
13.9482715383
14.0018996334
12.6965701319
11.7579136045
12.0770928432
13.4053321689
13.7954581952
13.9359568601
14.590003432
15.3817927369
16.295060174
17.3250437899
18.4959596232
19.6189135165
20.3403402666
21.7289329174
22.0300328593
23.6055603085
23.5422793239
24.601904842
24.1522175309
23.6913531066
23.1178235433
23.3767357452
23.9300500195
24.4452632757
24.8742896482
25.2660265202
25.6741990063
26.1121268834
26.5393209072
26.8863313789
27.0978897195
27.1528345375
27.0577521634
26.8320826813
26.4900762468
26.0285399533
25.4258917826
24.6470481803
23.6463894345
22.3734728067
20.8062517365
19.0175015262
17.1829037167
15.4879191563
14.0534013512
12.9478860665
12.2760197009
12.0742904839
11.8665049193
11.8699570697
14.2254423948
20.0208182864
22.201991536
22.4720537905
21.3889363386
19.110062488
18.8421750443
21.4085691872
21.8548856204
21.0343123288
20.4629380206
22.4499230174
25.2032671995
26.6669084843
22.0821957847
20.944553995
11.8022946427
8.64428751932
7.86230903704
12.1610415977
12.1004427486
7.45214417533
7.51138601568
7.65704065244
7.75879095111
8.3280257743
13.0050814185
13.9480080899
14.0447139293
13.5790868989
11.5378322397
11.3453368354
12.9109780707
13.5483141237
13.4306757879
13.8130300014
14.6340154953
15.562318727
16.504355255
17.5906911452
18.5977784148
19.9810454585
20.4395562609
21.7470262267
23.2940938488
23.7439090852
23.2382746097
24.0743539699
24.234011266
23.1340302394
23.1031551433
23.5221812506
24.0791180385
24.6215782782
25.0913599396
25.5177719335
25.9463292528
26.3837701331
26.7971775381
27.1355037258
27.3528923277
27.4265298722
27.3606184644
27.1743129559
26.881176735
26.4751074951
25.9296729786
25.2022067331
24.2403321771
23.0043747116
21.5119898122
19.8742490245
18.2596576483
16.7899841681
15.4925480065
14.4157538003
13.726969352
13.4506054362
13.4248533984
13.7600666945
13.8138937492
20.1935562968
24.035653901
23.9521704528
23.3109387384
22.3238872795
23.1179584044
24.4646951673
23.7854942249
23.1234763494
23.3604769488
25.712381118
26.394024743
26.9784090567
24.0998450792
21.9624560725
11.0802215919
8.56917684218
8.52928987031
13.138778595
11.0788354277
8.06975895538
8.21743455858
8.49320825616
9.68533119078
8.43713067654
13.7784625592
14.4690856259
14.0848989814
12.3521388249
11.1705123918
11.4852524287
12.9929308359
13.2651006612
13.3193243495
13.8392901489
14.6388562873
15.6474208319
16.6929676693
18.1862273941
19.4471742185
19.9464302985
21.868781006
21.644188279
23.4963318388
23.1732365979
24.4031872404
23.4111392412
23.0938202732
23.0477963359
23.2756651882
23.72279879
24.2628074628
24.8132697359
25.3194114148
25.7846825108
26.2380070767
26.6841324283
27.0963114995
27.4331896535
27.6570158026
27.7498048932
27.717684257
27.5794207224
27.3467470138
27.0107496401
26.5402182725
25.8863561476
24.9976403058
23.8560108177
22.516864639
21.1054483935
19.733044822
18.3897584565
17.0211723888
15.8304347625
15.2023790005
15.222615027
15.5190597989
15.7092977662
15.5346445182
17.0469425928
24.2421575367
25.8243365639
25.7144932706
26.2598354669
27.2430770499
26.8490402073
25.8320279011
25.6611126298
26.6950253499
27.9182240641
27.7775829235
27.1677503854
26.1505101632
24.7801825243
10.5473313179
9.00804371274
9.68391804435
13.2084318125
9.12623768556
9.08723207823
8.92981715924
9.19547528673
12.2783543656
11.0116498034
14.6133208858
14.7394868105
14.1566189674
11.6683915983
11.2053443614
12.7951478334
13.2272999685
13.0218723844
13.2880189931
13.994862584
14.7716571765
15.7253758266
16.6315643343
18.346527886
20.4839467225
19.8943059708
21.8205977681
23.1003637171
23.740732827
24.3496433631
23.6544154156
23.6725288572
22.803344224
22.9631827257
23.443960156
23.9447011646
24.4733911809
25.0230506229
25.5580655395
26.0657835841
26.5528304687
27.0164972997
27.4356041271
27.7774677472
28.0115860689
28.1262597052
28.133362058
28.0528282018
27.8933323477
27.6432723922
27.2692208165
26.7207703203
25.9548779037
24.9803995823
23.8787813201
22.745487275
21.5516561815
20.1119782943
18.5184508122
17.3828386984
17.1736936374
17.6877220888
18.1880478421
18.3031430219
17.9766599451
16.6159226839
16.4429451289
27.5653121124
30.2716928335
31.0946336601
30.8008273708
29.2774024171
28.3359082465
28.6611413555
29.8791787233
30.2575214984
30.0302222883
29.7405891347
30.0824835381
30.2677434212
10.5271230361
9.84789834227
13.0925114595
13.3749467939
9.23605817989
9.84603621902
9.63804504114
10.1214718976
11.7891705179
14.4987711472
15.4418749689
15.0089390176
14.3970215145
11.6833641509
11.3636929685
13.3125242891
13.3308687193
12.9997692528
13.3160289339
14.131789714
15.1355565439
16.0857310007
16.8167689346
17.9805328839
20.6565256184
21.8581093976
21.4483822761
23.2272514111
22.6162538033
24.3791058074
24.7089534241
23.6244802794
22.7749419653
23.076316866
23.6429608083
24.1776015975
24.708258953
25.257556856
25.8104856233
26.3590799775
26.8900545608
27.3819323936
27.8155899444
28.1681067209
28.4173809385
28.5597045343
28.6132633852
28.5993959421
28.5249439486
28.377599576
28.125393294
27.7227520778
27.1431735534
26.422176018
25.6370536479
24.7679208888
23.544651777
21.81891164
20.2712731384
19.6504410285
20.1821724757
21.216615875
21.857694841
21.9067445102
21.274401154
19.6559933035
17.1148623201
17.6514673439
31.6167356967
36.6636239764
35.0977446054
32.4771747801
31.5929693359
32.1444000337
33.0330603102
33.4503841142
33.79827317
34.3165582196
34.923130038
35.5918068205
10.8818584271
10.7188042769
14.7348250581
14.0857578362
12.189845083
11.0688114046
10.5714819918
11.5797940456
11.2654764505
15.4630391353
16.093489228
15.3529975634
14.4860240928
12.3037388498
12.126211142
13.7768257964
13.3562804162
13.0856060282
13.4352120203
14.1769458974
15.2834697602
16.5446737252
18.2518168643
18.1182382363
20.1600719035
22.2357858057
21.3426037581
23.4910751274
24.3227480565
23.5685877435
23.8024788638
22.984238345
23.0681651646
23.4049300137
23.8992368325
24.4346880412
24.9728168742
25.5260394093
26.0847667518
26.6603294605
27.2429106793
27.7817967223
28.2391895305
28.6057990435
28.8758464099
29.0538952352
29.1622517753
29.2229187989
29.2429412946
29.213142242
29.1082540518
28.8984350368
28.5837436975
28.2096412225
27.7755580231
27.0019258061
25.5068440187
23.8268198116
22.9288907313
23.2191090688
24.6561992112
26.0911456146
26.8985559754
27.1028046717
26.5077476765
24.7028288069
21.4927326014
16.7272510421
26.4019947492
37.1281973858
39.8861637485
36.8165446273
35.9836308301
36.4839748253
37.2375564109
37.7494917755
38.7785806295
39.5635794433
39.5285488048
39.7435033337
11.4851724244
11.3706308691
14.4825806763
14.576519287
14.5892003636
12.2065384277
11.6368884536
14.4352552179
11.6394501607
16.323358529
16.5908645965
15.707305467
14.5755510748
12.9170094978
14.727700583
14.8326596662
13.5479254206
13.3077202102
13.687808783
14.3215543424
15.2455842474
16.5357560858
19.5335400509
20.4818806464
19.6521222397
22.30489998
23.2497299656
23.0659450369
24.291387043
24.6686704121
24.1524748822
23.0195864639
23.2745782335
23.7381431668
24.2110093159
24.7247874277
25.2553799345
25.8261177035
26.408664534
26.9927691007
27.605883413
28.2010542845
28.704007852
29.0945280227
29.3899306608
29.6120733664
29.7844500718
29.925564806
30.0439811371
30.1389713426
30.2023414766
30.2374293924
30.2765081178
30.3256496653
30.1624762799
29.1556700399
27.6496665858
27.380370664
27.7974852025
29.2405004558
31.3812225419
32.6543397577
32.5177637284
32.114325034
30.4100148713
27.7241952184
24.401595577
18.0490639704
17.7879187217
31.6168628231
38.5427238558
39.300535647
37.9245467665
39.4603712281
40.9743887184
42.8157377064
44.4590800264
45.0680989031
45.0505691152
45.2405859518
12.1474458713
12.0727031404
11.725960419
14.9043242994
15.1244897431
12.9784553702
12.5966174971
15.4222401798
12.2979109663
17.2111202381
17.0393045028
16.0758773927
14.7752111943
13.2322708641
15.886661887
15.404283064
13.9838386891
13.7051651777
14.0399537086
14.6357726637
15.332604466
16.4302770381
20.047418241
21.5541774193
19.9995702978
22.345526052
23.772703418
22.5615925554
23.9236675098
24.2264749279
23.1668375781
23.3713558451
23.7235025814
24.1225880103
24.5552182218
25.0680236308
25.5935167465
26.1374044621
26.746999936
27.3756176261
28.0105866148
28.6418920998
29.1963938985
29.6290600833
29.9624865916
30.238777469
30.482955456
30.7044735003
30.9166715588
31.1328709598
31.3710408621
31.7026070761
32.1858590285
32.6916175235
32.5010851558
31.0089929814
30.6931160216
28.2651430723
25.7621921688
24.8083821785
22.7604235648
16.2838589322
0.527544341403
0.0538241822033
0.00427126757505
0.0012031298999
0.0141617441795
0.144698055628
1.63451733633
4.26920838993
43.1139995823
49.2308435034
49.0645858972
44.3840159085
40.8980524712
43.5580992928
48.6433146412
50.4848555868
51.8729982638
52.3470957036
12.9896452856
13.0803850377
15.5442547449
15.5482431191
15.5749598516
13.6364106191
13.6389355735
16.2703019125
13.3133932926
17.9805534697
17.4677875164
16.4679693558
15.0565615845
13.6266124839
16.1706190882
15.6027849174
14.418065864
14.1609370733
14.4276327034
14.955241561
15.5890095779
16.4555194621
19.4573137129
22.3691402913
22.5203631028
21.7244752227
23.9884078944
24.7809617126
22.7848235262
22.7177995955
23.1083688438
23.6104228926
24.0804144396
24.5106583158
24.9580070981
25.4374258016
25.9628237218
26.5225480035
27.1114236052
27.7737011651
28.4600254588
29.1264754264
29.7198933317
30.1994533267
30.5893530218
30.9344762736
31.257395789
31.5612173669
31.8491734416
32.1480144358
32.5508940326
33.2201638972
34.2106002686
35.0733820711
34.4917800974
30.8791334133
21.5638510452
0.000178896519549
1.96767619912e-07
3.68868945744e-09
6.25258141105e-11
1.80902693645e-13
5.14085966516e-16
8.89873077739e-21
6.960613616e-21
1.68987692383e-20
1.13911065364e-19
5.33553070429e-19
1.97094770549e-18
1.25250646581e-17
9.80684602989e-18
8.50797211926e-16
4.84245773037e-13
4.86770331329e-11
3.69376453508e-09
8.50584716173e-07
0.0143180173654
53.160134813
57.9645356612
59.5517780965
13.7817034093
13.9725152317
17.161305028
16.2189155729
15.6900596619
14.3012272017
14.6500532802
16.9863895252
16.9593128425
18.9360176203
17.9576971759
16.9527180271
15.4221935108
14.1662590774
16.4724287676
15.7410506777
14.8366918795
14.625585551
14.8209373723
15.2675871944
15.8697821686
16.7020278335
18.9426977887
22.6321274866
23.8927036597
21.4522659358
23.5197727901
24.8472834154
24.59013028
23.1681709902
23.2033576383
23.8377911044
24.4439170317
24.9478703894
25.3503553503
25.8365185632
26.3534561296
26.9302733455
27.5366338205
28.2063364044
28.9390320465
29.6590098032
30.2838355718
30.7931895066
31.2490254529
31.7134398968
32.1548572732
32.5147716615
32.7830066426
33.1119791427
33.6879437665
34.6696941055
36.1326944733
37.3017051072
29.5552736577
0.000264764964996
9.89281065944e-11
4.00611090526e-13
1.15850242361e-14
1.68656716596e-16
1.37030018179e-19
2.28647717131e-22
1.61174825145e-23
0
0
0
0
0
0
0
0
2.24166695812e-27
7.56067857139e-25
1.13091635947e-22
6.56121455173e-20
9.16440649595e-17
4.96276034202e-12
7.53655068227e-08
0.587578358806
61.9637266198
14.4299933
14.6427973194
19.3134704363
16.7384849965
15.5561205754
14.8919717043
15.3769450249
17.0425480663
18.5502439532
20.0363516544
18.6048302685
17.5718869817
16.0379260455
14.9994946902
16.9808624271
16.033068011
15.3346606769
15.1402715104
15.2542930688
15.6170030983
16.1491757947
16.9205079797
18.7352424951
22.5095936436
24.8866900922
24.1100615117
23.0073270186
24.2182752071
24.3358058614
23.1544175116
23.6567678845
24.3208386479
24.9747271151
25.438776532
25.8584754385
26.2722413319
26.8012495642
27.3674667329
27.9994667521
28.6900915168
29.4442974655
30.2197017998
30.9216251904
31.4619412929
31.9726388866
32.5648690536
33.1383025701
33.5179495857
33.7222171136
34.049365434
34.7408352889
35.8435386262
37.4531199551
30.0375561795
6.55112891814e-07
1.43225220494e-13
4.69716361761e-17
1.89933897203e-18
2.58969151196e-20
7.10163792923e-23
0
0
0
0
0
0
0
0
0
0
0
0
0
2.88838761949e-26
2.87024125639e-25
6.29219072582e-24
3.05099627435e-22
1.69428824025e-18
1.41026387156e-09
2.71851124758e-14
14.9367769251
15.1389343342
21.3736818731
17.1378348462
15.6792621038
15.44234297
16.1842952968
16.4047139955
19.5024874133
20.8251545041
19.2340729333
18.2069585849
16.853949507
16.8904180647
17.69124583
16.5672067529
16.0287377165
15.8519158056
15.7962703133
16.0538454036
16.4818993121
17.1762140681
18.7189927781
22.3735669907
25.3026482617
25.7592084686
22.7841048633
23.1355994363
23.07443316
23.2773833132
23.9663171244
24.8216037425
25.4773203622
25.971816686
26.4087085156
26.8976781161
27.3146359392
27.872122714
28.5045878719
29.197870773
30.0186196308
30.8618221317
31.6122712027
32.1250453126
32.6403196032
33.8493535206
35.4716097509
36.0127120132
35.1970881242
35.2739004621
35.9398195922
37.0354296181
28.5093766846
7.57922250529e-08
1.14228811546e-12
5.12448408594e-24
5.1783546521e-21
8.44964772736e-23
0
0
0
0
0
0
0
0
0
0
0
0
0
0
0
0
0
0
4.46246831686e-25
3.02190983776e-24
5.5726522845e-22
94.6228090728
15.3819702162
15.5500750308
21.209408079
16.5741139358
15.8883669198
15.9197979702
17.1017850438
16.4074199754
20.3081738398
21.5615986813
19.8350283729
18.7985095764
17.488111604
19.1186231205
18.6823642408
17.3057350332
16.8285522243
16.9266389078
16.5611094368
16.6602076025
16.9144378555
17.4731885199
18.845228504
22.2248706806
25.176573495
26.8650615363
25.5087721671
24.5104930551
24.0694710116
23.5442648628
24.2748002003
25.4689721015
25.9303096187
26.5077169713
27.2092563476
27.5077621009
27.923920183
28.4830231652
29.1289787866
29.8238922117
30.5940499997
31.4892588607
32.3762213658
33.2891032031
34.3814153157
35.9482013607
37.2057096111
37.1609506919
37.0639210268
37.6451829229
38.7138094785
32.5062519872
3.44673466045e-07
3.14618045567e-12
4.13509566892e-16
5.6162525e-18
0
0
0
0
0
0
0
0
0
0
0
0
0
0
0
0
0
0
0
0
0
0
1.37309430724e-24
9.99411664887e-14
15.8973132555
16.0426557416
20.8482520691
16.2514838855
16.1912737592
16.3104457428
17.8912079683
16.8790282657
21.008699913
22.2855308638
20.4350129425
19.3954038414
18.0233353432
19.8741977935
19.6022670492
18.1172367167
17.6170812267
17.8240463843
17.4772099145
17.4884515918
17.5488784999
17.8188362704
19.1323631062
22.207266821
24.904487234
27.1990053425
26.7173660856
25.0343213321
23.4869564042
24.0607868766
24.8082150811
25.9631084552
26.8092312412
27.50610473
28.0558393214
28.2240536518
28.6169447329
29.1890398104
29.8466345797
30.5712532652
31.3464644176
32.3187570311
33.5393873307
35.084905884
36.1329169495
36.5241192418
37.1883121395
37.635900169
39.2447392955
41.412926188
38.7970191593
3.14064554926e-06
4.17017771198e-12
7.19125766011e-16
1.4749639792e-18
3.57117151869e-20
1.19872105929e-22
0
0
0
0
0
0
0
0
0
0
0
0
0
0
0
0
0
0
0
0
0
2.30753116444e-25
3.05307449565e-25
16.6585498494
16.8041562915
20.5240929748
16.5466784996
16.7620760874
16.8019093351
17.9034832209
17.6150727443
21.5147340123
22.975384828
21.0715393353
20.0444353467
18.6808389485
20.5653519081
20.434668044
19.0222161405
18.4679250353
18.7008593073
18.3714063798
18.463658959
18.4600077042
18.3258344403
19.6139117293
22.3805316078
24.7808623088
27.2967397881
27.2703767416
25.7595470834
23.9828468163
24.298812179
25.4496976588
26.1235411173
26.8373593659
27.7474365804
28.9981177012
29.2714264624
29.5760664736
30.0018435646
30.6181171434
31.4186339105
32.3048509672
33.4099214082
35.3550810906
37.1115024893
37.3470529408
37.5548603271
38.6696215755
41.5300511184
45.3447020864
43.213304598
8.97292214592e-07
1.4905599117e-13
6.16828547663e-18
2.02237837246e-21
1.26893397143e-23
2.57202632533e-23
3.94967267943e-24
0
0
0
0
0
0
0
0
0
0
0
0
0
0
0
0
0
0
0
0
0
1.70556400543e-26
7.74446498826e-26
17.8042361905
17.9092926801
20.8209321788
17.5016051105
17.9381126818
17.6685036383
18.2207559522
18.9489486973
21.5658042681
23.4952713966
21.7738584155
20.7672227972
19.4477635854
21.351191468
21.2958171599
20.0917765036
19.506383165
19.726632075
19.2741238181
19.5382636343
19.6879085407
19.0637184852
20.1656679259
22.7455789502
24.8494256142
27.1636133576
27.5241290791
26.4083603611
26.022063146
25.1810576764
25.8778193391
26.9742043668
28.2816078508
28.3533871223
29.2442243333
30.3264715015
30.6449710055
31.1460805106
31.6527205959
32.3541331691
33.3816316822
35.3283500671
38.0061792823
38.9136498043
38.735075829
39.9122202807
44.3366475058
50.676131634
49.0144385809
3.22757541311e-08
2.25827872642e-15
2.10841111299e-20
1.44264438766e-22
0
0
0
0
0
0
0
0
0
0
0
0
0
0
0
0
0
0
0
0
0
0
0
0
0
0
0
19.4028690931
19.2745441711
21.646664824
19.411341824
19.9141348892
18.9488330364
19.1747724039
20.8776374786
21.7930214884
24.1241109934
22.5955474529
21.574229075
20.3000217244
22.1751868842
22.1528694509
21.2710061242
21.027153129
21.0671703447
20.270066146
20.7112276898
21.2197502369
20.1214618201
20.6019101683
23.1981183682
25.1172715127
27.0468347461
27.712286228
26.5758657568
27.222248095
26.7898776035
26.9716243126
26.704142478
28.0030340502
29.6231507495
30.2227900064
31.0620880685
31.7161575634
32.2421668054
32.9012643691
33.622067081
35.1420574843
38.3218671408
40.5878760901
40.9565665862
41.6786307783
45.5887569807
54.012005822
51.9102011093
1.10651900458
2.01532705932e-17
3.52321706747e-20
1.61323617302e-22
0
0
0
0
0
0
0
0
0
0
0
0
0
0
0
0
0
0
0
0
0
0
0
0
0
0
0
0
21.097071373
20.5620243018
22.5446451883
21.939893503
21.6489386984
20.4361672259
20.2315007083
22.0342460505
21.0514591417
24.6183713423
23.5189152623
22.4578638135
21.2285649193
23.0132939625
22.9511050151
22.2593734718
23.1328032908
22.6839514499
21.3923009572
22.0095057381
22.5852430976
21.4824182525
20.7810636106
23.2127021862
25.3158532577
26.9703148541
27.7956054317
26.6803309851
27.628141748
28.0977161189
28.3463591386
27.5049667534
28.2847223519
29.5650304571
31.1753807716
32.3089871351
33.022331428
33.5123814522
34.1458925631
35.3284619758
38.2685760907
41.6847882634
43.3767377112
44.2461445486
46.7794719419
52.5696580008
49.739061803
24.4177477829
5.42644268352e-17
7.8559206603e-20
2.75129496916e-22
0
0
0
0
0
0
0
0
0
0
0
0
0
0
0
0
0
0
0
0
0
0
0
0
0
0
0
0
0
21.9537824644
21.4758284033
23.1301556791
23.0176425068
22.7448364621
21.8489368375
21.4523495464
23.4376868835
22.1203263944
25.2476882667
24.4538554366
23.3875956479
22.2286448368
23.8834224253
23.7629747413
23.0927607808
24.1257457143
23.8164022811
22.491223516
23.2941131779
23.354341604
22.3272301755
21.8369503174
22.064581112
24.8456219086
26.5061983567
27.611739159
26.6809492298
27.7272867454
28.6704477807
29.4795248881
29.3593127741
28.65606202
29.6575450189
31.448056838
33.2164010108
34.4466346004
35.2027506951
35.8438224772
38.2804139568
42.1451169991
45.122139343
46.5457272292
48.2412666515
52.0851059292
46.3895367846
21.1815170285
2.86671075483e-16
2.58233388799e-19
7.35462060288e-22
0
0
0
0
0
0
0
0
0
0
0
0
0
0
0
0
0
0
0
0
0
0
0
0
0
0
0
0
0
0
22.0857867767
22.0645429146
23.5035414024
23.2746974019
23.4567959297
22.9555081914
22.5238111701
24.8196218531
23.8326458758
26.0578921726
25.4494642243
24.3504264969
23.2955839112
24.8008106974
24.6464086622
24.0584341462
24.9590182059
24.8103847346
23.6453941853
24.3489002121
23.2072488022
23.1156298851
22.9089121037
23.1802702797
24.018641149
25.0332774791
26.8140627811
26.5158730926
27.3325146012
28.7402921707
29.975613479
30.7500604998
30.2246807614
30.4874697724
31.6837090943
33.4241188749
35.3753036948
36.9716278486
38.4459522318
42.0920964932
45.9568577806
48.3538293328
49.3703892628
50.9073385827
45.5470438386
26.0275937523
12.8509250675
8.96988062957e-19
2.00933717045e-21
0
0
0
0
0
0
0
0
0
0
0
0
0
0
0
0
0
0
0
0
0
0
0
0
0
0
0
0
0
0
0
22.3804842579
22.4958327162
23.8363589897
22.4584141569
23.7866721212
23.5869712992
23.2603584629
25.4737307981
24.7260847266
26.8901510842
26.4849929611
25.3176100197
24.4361049654
25.7527555128
25.5744991264
25.1589098146
25.8832096467
25.9143247934
24.9223091445
25.7818182877
24.5825521561
24.7718434714
24.1929156164
24.4975279099
25.8393498577
26.4698445611
26.4916543406
26.2861940792
26.9099038246
28.7203652573
30.0189582123
31.0469622599
31.6082010931
31.6271497252
33.06956269
34.2108774187
36.1519821474
38.6378022751
41.7036175284
46.0663959657
49.4692602663
50.9511809867
49.8954451045
45.312572388
37.3330341846
26.1220178237
7.52686195888e-18
1.71352695597e-20
0
0
0
0
0
0
0
0
0
0
0
0
0
0
0
0
0
0
0
0
0
0
0
0
0
0
0
0
0
0
0
0
23.1265826707
23.2060191373
24.1946512676
22.9130023471
24.0832620586
23.9588575954
23.79336231
25.7279283374
25.3631090429
27.5207201834
27.4995794632
26.2302139187
25.6363186527
26.694389052
26.4670897408
26.2273867627
26.7769746538
27.1028704282
26.2450140579
27.2275020001
26.376178536
26.847898366
26.6259665723
25.5192557011
26.6238051483
27.5958314046
27.7368851876
26.1693256033
26.4261398619
28.660415526
30.2028446677
30.7621170638
31.4777212378
32.0201395466
33.4765781289
34.9043778086
37.0575171199
40.3517866121
45.1530110382
50.0874621577
52.732964801
52.5697886419
49.0596393978
42.3750469361
26.0872324238
5.18467297976
1.19405294643e-19
4.84191124481e-22
0
0
0
0
0
0
0
0
0
0
0
0
0
0
0
0
0
0
0
0
0
0
0
0
0
0
0
0
0
0
0
0
24.0613596051
25.0606321878
24.707193499
23.9150254587
24.6594886634
24.3898850361
24.3079462925
25.9526040941
25.9444792669
27.8120852224
28.480767015
27.0491383917
26.7042809785
27.4762524191
27.3120159747
27.048404216
27.1346032625
28.1867957014
27.6288245418
28.4954407179
28.3337022651
28.2136830318
28.0741380651
27.7021693513
27.0285312546
27.7927330075
28.7201961056
25.7666703607
25.9897437779
28.0404976499
30.2897456458
31.3540217221
32.2369108691
32.1111051629
33.4127853799
35.2179154616
37.635416778
41.9556564047
48.5671995333
53.8989191462
55.3680615641
50.7198657583
47.5343796151
42.3659414412
30.2558078878
8.09339918561e-19
2.06563013993e-21
0
0
0
0
0
0
0
0
0
0
0
0
0
0
0
0
0
0
0
0
0
0
0
0
0
0
0
0
0
0
0
0
0
24.7797859976
25.8149065392
25.4493140567
24.8243904726
25.3903423097
24.9923369142
24.8880942811
26.2551270326
26.5067572901
27.8451664486
29.3551855816
27.8317528489
27.3702466487
28.1275008663
28.2176936753
27.7950438046
27.4304175717
28.9699614773
29.0392059313
29.6056443641
29.6947377915
29.8566335395
28.7226399676
28.719036483
28.2778799596
29.4270224344
30.0889158365
27.5492700004
25.6425959235
27.1209079493
29.6662509525
31.575194837
32.5457552568
32.736379641
33.1648362018
35.0923227013
37.6692471808
43.2104089246
51.8007693884
57.7260646598
56.3273400033
50.1928842653
43.5856366353
28.2937919657
12.8178563092