/*--------------------------------*- C++ -*----------------------------------*\
| =========                 |                                                 |
| \\      /  F ield         | OpenFOAM: The Open Source CFD Toolbox           |
|  \\    /   O peration     | Version:  v1806                                 |
|   \\  /    A nd           | Web:      www.OpenFOAM.com                      |
|    \\/     M anipulation  |                                                 |
\*---------------------------------------------------------------------------*/
FoamFile
{
    version     2.0;
    format      ascii;
    class       volVectorField;
    location    "266";
    object      U;
}
// * * * * * * * * * * * * * * * * * * * * * * * * * * * * * * * * * * * * * //

dimensions      [0 1 -1 0 0 0 0];


internalField   nonuniform List<vector> 
6400
(
(-8.41525440937e-05 -0.000113766196561 0)
(-0.000232051722231 -8.9394969236e-05 0)
(-0.000341165817744 -7.44703718832e-05 0)
(-0.000468412362342 -6.72386172203e-05 0)
(-0.000558194155572 -3.96470910233e-05 0)
(-0.000619967344061 -1.66138907327e-05 0)
(-0.000641887845594 -8.35915731756e-06 0)
(-0.000654945780542 -2.07682471874e-05 0)
(-0.000738158964901 -3.52116020433e-05 0)
(-0.000825971316202 -3.27384715489e-05 0)
(-0.000843941142567 -2.88748095236e-05 0)
(-0.000925862192062 -3.38603974241e-05 0)
(-0.000995794017466 -3.035537165e-05 0)
(-0.00105050694754 -2.25316184432e-05 0)
(-0.00108385733564 -1.84919444753e-05 0)
(-0.00112058420153 -2.24303891223e-05 0)
(-0.00117387494473 -2.35117265551e-05 0)
(-0.00121536391684 -1.88910729204e-05 0)
(-0.00123753613155 -1.11924820723e-05 0)
(-0.00125206090367 -5.83531102431e-06 0)
(-0.00127648953935 -1.22763027891e-05 0)
(-0.00131647072382 -2.10686543338e-05 0)
(-0.00136547599011 -2.42073919388e-05 0)
(-0.00141007590289 -2.50258644212e-05 0)
(-0.00145326089788 -2.28491651612e-05 0)
(-0.00149323399119 -1.89835883298e-05 0)
(-0.0015338983338 -1.79553905276e-05 0)
(-0.00157068346448 -1.59058984392e-05 0)
(-0.00159865437221 -1.23010752367e-05 0)
(-0.0016191503277 -9.38660951669e-06 0)
(-0.00163207185018 -9.36742971831e-06 0)
(-0.00164840751864 -8.25479823221e-06 0)
(-0.00166447858377 -4.72454223522e-06 0)
(-0.00167292198012 -4.44707957944e-06 0)
(-0.00167774652723 -3.31570626319e-06 0)
(-0.00169199329862 -2.41300096894e-06 0)
(-0.00170444105939 -3.97706714114e-06 0)
(-0.00169027637778 -2.84889638691e-06 0)
(-0.00169794637471 -2.97020758664e-07 0)
(-0.00171789987212 -1.95420295233e-06 0)
(-0.00173464856002 -1.388153943e-05 0)
(-0.00174478377553 -1.71651898984e-05 0)
(-0.00175127269793 -2.22278288136e-06 0)
(-0.001747615253 7.27714153351e-06 0)
(-0.00173244378093 1.10666853029e-05 0)
(-0.00171143128654 1.51573495015e-05 0)
(-0.00168326865878 1.86999346829e-05 0)
(-0.00164607589997 2.30825909715e-05 0)
(-0.00160103283918 2.62929322837e-05 0)
(-0.00155032070706 2.2984301775e-05 0)
(-0.0015018494532 1.41883025169e-05 0)
(-0.00147976775569 1.75627051704e-05 0)
(-0.001418903824 4.54280115487e-05 0)
(-0.00133856546774 5.72256623293e-05 0)
(-0.00122828045671 6.43554026314e-05 0)
(-0.00106548933925 7.82328610595e-05 0)
(-0.000904700598472 7.20093437959e-05 0)
(-0.000771560639586 6.51555343486e-05 0)
(-0.000640209179341 7.53336347815e-05 0)
(-0.000449027866416 8.04468875793e-05 0)
(-0.000264903302029 8.56147138682e-05 0)
(-6.7951532485e-05 0.000107132870237 0)
(0.000202745186569 0.000131629262469 0)
(0.000437065190012 9.09512439998e-05 0)
(0.000546711238593 5.39637905478e-05 0)
(0.000616510945986 3.8159643696e-05 0)
(0.00067445491562 2.68011277047e-05 0)
(0.000731625002492 2.05536618945e-05 0)
(0.000785302445889 1.60631582865e-05 0)
(0.000816141965555 9.08870809334e-06 0)
(0.000831987171771 2.26597886417e-07 0)
(0.000812536575996 -1.07673690648e-05 0)
(0.000763869837855 -2.51238516836e-05 0)
(0.000731482030836 -4.45473168348e-05 0)
(0.000591612652314 -4.56181126061e-05 0)
(0.000544958620719 -4.79869824966e-05 0)
(0.000377840668844 -3.29647969531e-05 0)
(0.000401839620871 -5.29407400338e-05 0)
(0.000177782217244 -4.11183432071e-05 0)
(0.000132941298413 -7.97661942901e-05 0)
(-3.05553450646e-05 -0.000155325278936 0)
(-0.000131386748407 -0.000177210462307 0)
(-0.000230710651885 -0.000164702722149 0)
(-0.000292363879327 -0.000131205010904 0)
(-0.000434584134644 -0.000130074874147 0)
(-0.000577697871489 -9.14493728678e-05 0)
(-0.000662104307357 -5.2328638972e-05 0)
(-0.000714836648221 -7.30140944919e-05 0)
(-0.000769831273068 -0.000101472944856 0)
(-0.000833140924022 -9.86665943218e-05 0)
(-0.00089347713498 -9.25535259582e-05 0)
(-0.000947971519503 -9.34107853578e-05 0)
(-0.000997942709545 -8.24069903445e-05 0)
(-0.00104263974238 -6.64038869476e-05 0)
(-0.00108822759689 -5.85438830074e-05 0)
(-0.00113227441297 -7.41686779626e-05 0)
(-0.00117687726777 -7.81809331349e-05 0)
(-0.00120731804833 -4.32936009717e-05 0)
(-0.00117739517113 -1.92369675301e-05 0)
(-0.00120223351345 -1.78105205385e-05 0)
(-0.00124263339099 -4.05632546808e-05 0)
(-0.00129644010863 -7.32992297141e-05 0)
(-0.00136640417141 -8.3084816727e-05 0)
(-0.00142247443888 -7.23913005726e-05 0)
(-0.00144132274538 -6.42516843996e-05 0)
(-0.00149495656959 -6.13949341637e-05 0)
(-0.00154114135754 -5.53125913637e-05 0)
(-0.0015724119258 -4.58726888595e-05 0)
(-0.0015973796627 -3.6307742121e-05 0)
(-0.0016185952123 -2.8491133604e-05 0)
(-0.00163608668611 -2.54982800551e-05 0)
(-0.00163620415939 -2.10696730696e-05 0)
(-0.00165095497311 -1.00933881958e-05 0)
(-0.00165500516737 -1.14851879178e-05 0)
(-0.00165122053638 -1.49293844378e-05 0)
(-0.00168552967223 -6.32218997907e-06 0)
(-0.00168350643939 -9.58066175611e-06 0)
(-0.00167259417918 -1.52143133643e-05 0)
(-0.00169370137141 -1.15308077363e-05 0)
(-0.00173642173829 -7.06805773174e-06 0)
(-0.00175776334952 1.1981995447e-06 0)
(-0.00162337730801 8.88021765122e-06 0)
(-0.00157466106744 1.26114809218e-05 0)
(-0.00157933090955 1.54459667019e-05 0)
(-0.00157184446258 1.90424912764e-05 0)
(-0.00157355024787 2.49547148719e-05 0)
(-0.00157706240394 3.4156250276e-05 0)
(-0.00156402086314 4.54455403115e-05 0)
(-0.00155632591942 5.78873153739e-05 0)
(-0.00153185515914 6.82782338859e-05 0)
(-0.00147073866906 7.26115104601e-05 0)
(-0.00136090759425 7.66051613379e-05 0)
(-0.0012576309246 8.77313365679e-05 0)
(-0.00133806695803 0.000129327556142 0)
(-0.00120855881063 0.000173241736891 0)
(-0.00109283026525 0.000201173022853 0)
(-0.00102435334297 0.000215518020506 0)
(-0.000885547869297 0.00022474875938 0)
(-0.000718645282642 0.000254000181538 0)
(-0.000535752930617 0.000293515698869 0)
(-0.000323619454424 0.000333175964529 0)
(-6.65915763093e-05 0.000312899449872 0)
(0.000202315522679 0.00038476275794 0)
(0.000428393956151 0.000281885875544 0)
(0.00054363163385 0.000168140741919 0)
(0.000587594361719 9.98355900368e-05 0)
(0.000631641007197 7.76262310508e-05 0)
(0.000718512806543 7.25774723744e-05 0)
(0.000777087535483 5.63015212122e-05 0)
(0.000822250299613 3.00906906878e-05 0)
(0.000829902150323 -4.77260193438e-06 0)
(0.000803486849495 -4.25866194531e-05 0)
(0.000736912310211 -6.92881406216e-05 0)
(0.000721904236652 -0.000101955642369 0)
(0.000662641301603 -0.000123823798713 0)
(0.0005941952901 -0.000136635486992 0)
(0.000507378485546 -0.00013336594744 0)
(0.000414628006212 -0.000160215842255 0)
(0.000262174678795 -0.000186913335285 0)
(0.00012273992354 -0.000315902702903 0)
(-4.74375099323e-05 -0.000268147140567 0)
(-0.000129276081065 -0.000297639921801 0)
(-0.000198396785612 -0.000281209340828 -9.99531518962e-29)
(-0.0003514426022 -0.000294017309569 9.68314792317e-29)
(-0.000499835365302 -0.000297927036488 8.93684445099e-29)
(-0.000583199976625 -0.000238808971012 -8.26349882577e-29)
(-0.000637497993593 -0.000118544142131 8.43444288438e-29)
(-0.000693039771752 -0.000129761473158 -8.44652658771e-29)
(-0.000752129131434 -0.000162195025857 0)
(-0.000820632682535 -0.000166946286506 0)
(-0.000888291273603 -0.000156765307619 0)
(-0.000945676594519 -0.000143903655302 0)
(-0.000995877439313 -0.000126629078909 0)
(-0.00103888536872 -0.00011390073639 0)
(-0.00108158064094 -0.00010308296585 0)
(-0.00112236570764 -8.04966678296e-05 0)
(-0.000973507924834 -4.52091352981e-05 0)
(-0.000930153558322 -2.51617991589e-05 0)
(-0.000957055983562 -3.49418089688e-05 0)
(-0.00102866428967 -7.84203091848e-05 0)
(-0.00121969293037 -0.000130932110372 0)
(-0.00132650841839 -0.000149145573517 0)
(-0.00134477976517 -0.000137317101776 0)
(-0.00140265017349 -0.000121802570368 0)
(-0.00146288269441 -0.000111783342083 0)
(-0.00150265258465 -0.000103906334745 0)
(-0.0015360888476 -8.93515051336e-05 0)
(-0.00156759312318 -7.33643360406e-05 0)
(-0.00159311167782 -5.88809034677e-05 0)
(-0.00160965279534 -4.75198271067e-05 -1.84394169344e-28)
(-0.00163272904279 -3.68070875119e-05 1.79278840283e-28)
(-0.00162075043503 -2.79735510387e-05 0)
(-0.00162607985531 -1.64185355955e-05 0)
(-0.00166346369068 -4.44362953616e-06 0)
(-0.00159692507044 -1.7623114018e-05 0)
(-0.00162880298738 -2.36894359185e-05 0)
(-0.00169123014057 -1.36648374934e-05 0)
(-0.00163135551806 -2.40580735212e-05 0)
(-0.00166885287841 -4.09061332748e-05 0)
(-0.00173180368949 -3.0332469224e-05 0)
(-0.00176294606422 1.35491527439e-05 0)
(-0.00176340972773 4.2136009916e-05 0)
(-0.00175900654466 3.40420154037e-05 0)
(-0.0017511592823 2.72454515675e-05 0)
(-0.00173613458445 2.98438721545e-05 0)
(-0.00171544263159 3.70406552646e-05 0)
(-0.00168990210192 5.04361493727e-05 0)
(-0.00165959346485 6.68992318352e-05 0)
(-0.0016246259395 8.66419276824e-05 0)
(-0.00158490858681 0.000112678753835 0)
(-0.0015406428572 0.000140298572319 0)
(-0.00148877465042 0.000157751587778 0)
(-0.00142085212894 0.000160162739928 0)
(-0.00131729131479 0.000199081655422 0)
(-0.0011945094332 0.00025499369921 0)
(-0.00112544575322 0.000296541544223 0)
(-0.00101756826966 0.000333562898415 0)
(-0.000869167571929 0.000378165278613 0)
(-0.000695797741589 0.000430534757865 0)
(-0.000502120611318 0.00048972246923 0)
(-0.000290731206375 0.000547392427341 0)
(-6.35813290232e-05 0.000609100619643 0)
(0.000190879042498 0.000644495389098 0)
(0.000365731777132 0.000434830146168 0)
(0.00046047593166 0.000250672871635 0)
(0.000561055580273 0.000176965939382 0)
(0.000651343891216 0.000148997004788 0)
(0.000709633108458 0.00012641901067 0)
(0.000756202159484 9.13675708231e-05 0)
(0.00078641021039 4.39157624215e-05 0)
(0.000791001852439 -8.2046231308e-06 0)
(0.000783999662701 -5.42846721325e-05 0)
(0.000793908738951 -9.31029255568e-05 0)
(0.000778101228227 -0.000146946768023 0)
(0.000705848331033 -0.0002006385195 0)
(0.000611332327644 -0.000226455338877 0)
(0.000508471812238 -0.000237655225785 0)
(0.000405701078026 -0.000299775824854 0)
(0.000285154625149 -0.000430561349206 0)
(7.59572617337e-05 -0.000447151317347 0)
(-4.86253144311e-05 -0.000408664170256 0)
(-5.70235961978e-05 -0.000266486584803 0)
(-0.000164849298535 -0.000432423776793 0)
(-0.000314664161445 -0.000443940612958 0)
(-0.000426008922233 -0.000372033585159 0)
(-0.000226153517687 -0.000131823745431 0)
(-0.00028022198408 -0.000131735729011 0)
(-0.000549410844134 -0.00025571481104 0)
(-0.000702492599337 -0.000278204194911 0)
(-0.000790648538565 -0.000251092673775 0)
(-0.000874471580336 -0.000229302901397 0)
(-0.000941145488178 -0.000203603547674 0)
(-0.000993887955958 -0.00017519467467 0)
(-0.00102260846785 -0.000127852449722 0)
(-0.000932551501932 -6.38944613937e-05 0)
(-0.000863791048348 -2.30591153298e-05 0)
(-0.00085797913633 -1.77183565046e-05 0)
(-0.00091637034351 -6.04606796872e-05 0)
(-0.00106463224184 -0.000133772758268 0)
(-0.00122963517604 -0.000214135436466 0)
(-0.00127000936183 -0.000230348725609 0)
(-0.00131496665795 -0.00020910938201 0)
(-0.00137198742792 -0.000190048291919 0)
(-0.00141990377661 -0.000175569951838 0)
(-0.00146040677793 -0.000157932404215 0)
(-0.00149585163804 -0.000138745746401 0)
(-0.00152587249648 -0.000120009695424 0)
(-0.00156329877702 -0.000100524790356 0)
(-0.00157967286031 -8.10871011224e-05 0)
(-0.00161223052217 -6.39624855343e-05 0)
(-0.00160272204238 -4.78151445436e-05 0)
(-0.00163457489739 -2.97837091416e-05 0)
(-0.00158958587497 -9.51975660399e-06 0)
(-0.00159847837115 -6.65235749048e-06 0)
(-0.00166051722701 -1.89323984474e-05 0)
(-0.00160524387791 -3.9059101365e-05 0)
(-0.00166300362524 -4.54639326316e-05 0)
(-0.00173224036245 -5.27487627795e-05 0)
(-0.0017474634458 -6.60719210669e-05 0)
(-0.00175243708239 -4.8255204125e-05 0)
(-0.00175906416686 -5.70053530906e-06 0)
(-0.00176231052296 2.68838644308e-05 0)
(-0.00176070302544 3.66846555149e-05 0)
(-0.00175339697705 4.06110979397e-05 0)
(-0.00173929932553 4.85635513151e-05 0)
(-0.0017196070658 6.12591302617e-05 1.79497356929e-28)
(-0.00169512196541 7.86392075381e-05 -1.80783420505e-28)
(-0.00166595554981 9.97157858025e-05 0)
(-0.00163198211244 0.000124602787214 0)
(-0.0015927442188 0.000153517778066 0)
(-0.00154699921584 0.000183869978934 0)
(-0.00149098037979 0.000213498564164 0)
(-0.00141983615932 0.000248927120154 0)
(-0.00133240254084 0.000301249369229 0)
(-0.00123579623321 0.000353279713539 0)
(-0.00113058110938 0.000404805068964 0)
(-0.00100410763572 0.000471523440881 0)
(-0.000848126834579 0.000546254184294 3.41682758445e-28)
(-0.000664687865018 0.000624399046144 -3.87649981892e-28)
(-0.000460475285924 0.000701850012211 0)
(-0.000245474550689 0.000766870976225 0)
(-3.43273628656e-05 0.0008066403251 0)
(0.000144324252627 0.000779669964202 0)
(0.00031181424585 0.000599005304827 0)
(0.000473994691714 0.000397038110588 0)
(0.000553265525971 0.000267288035436 0)
(0.000624857738285 0.000210497792149 0)
(0.000693363486561 0.000174085793992 0)
(0.000747736205188 0.000127543056636 0)
(0.000800942610265 6.87865799516e-05 0)
(0.000837288721279 8.27899473984e-06 0)
(0.000858166728024 -4.88570041398e-05 0)
(0.000837225687528 -0.000123715913657 0)
(0.000736978330944 -0.00020732633425 0)
(0.000653016963461 -0.000278875405466 0)
(0.000567775947478 -0.000336797578824 0)
(0.000446670957972 -0.000368307197807 0)
(0.000273561647291 -0.000357333521684 0)
(0.000201533382961 -0.000501040775888 0)
(6.86479323272e-05 -0.000600292550148 0)
(-3.06822348082e-06 -0.000400800441127 0)
(-2.65960422353e-05 -0.000325729579347 0)
(-0.000153743059941 -0.000579403729296 0)
(-0.000267728015157 -0.000531490477747 0)
(-0.00026908609067 -0.000327036174899 0)
(-0.000206559639632 -0.000174587941033 0)
(-0.000357407768023 -0.000297173942905 0)
(-0.000579884938319 -0.000445528726047 0)
(-0.00065935436684 -0.000398954162225 0)
(-0.000757516721489 -0.000346259148794 0)
(-0.00084612003758 -0.000317136215095 0)
(-0.000917309394656 -0.000269795250042 0)
(-0.000905190201022 -0.000167836202222 0)
(-0.000803462087162 -7.05789482403e-05 0)
(-0.000817676668062 -3.33835941201e-05 0)
(-0.000869427347046 -4.33828405711e-05 0)
(-0.000968636084026 -9.69324138278e-05 0)
(-0.00110586578274 -0.00018622838745 0)
(-0.00120730238934 -0.000256591880729 0)
(-0.00121718808638 -0.000265912731819 0)
(-0.00126156840062 -0.000267390792469 0)
(-0.00132470649744 -0.000263628569347 0)
(-0.00137230164734 -0.000243830697162 0)
(-0.00141633300261 -0.00021902945787 0)
(-0.00145420773376 -0.000194878472767 0)
(-0.00148513113288 -0.000173550566699 0)
(-0.00152626722032 -0.000150604190456 0)
(-0.00153824890649 -0.000126086027038 0)
(-0.00158513168206 -0.000102465336709 0)
(-0.00156882137531 -7.72362688436e-05 0)
(-0.00162219227625 -5.44858465473e-05 -1.75364721032e-28)
(-0.00154913610449 -3.06019981437e-05 1.60729561432e-28)
(-0.00160897171463 -1.84083323304e-05 0)
(-0.00165345628743 -1.46269701401e-05 0)
(-0.00161010127417 -3.29659887878e-05 0)
(-0.00168938277732 -6.79118415555e-05 0)
(-0.00172147323749 -9.26082993385e-05 0)
(-0.00174351273941 -8.80519526955e-05 0)
(-0.00175392361446 -7.22010440901e-05 0)
(-0.00175810805265 -4.66657148511e-05 0)
(-0.00176321324122 -1.08442315545e-05 0)
(-0.001766740433 2.07246653072e-05 0)
(-0.0017655636643 3.92415873846e-05 0)
(-0.00175848085355 5.18161953454e-05 0)
(-0.00174514859221 6.57868955628e-05 0)
(-0.00172651023928 8.34441798433e-05 0)
(-0.00170315049694 0.000105232670868 0)
(-0.00167511013255 0.000130975494819 0)
(-0.00164202611348 0.000161004565174 0)
(-0.00160306127855 0.000195705640745 0)
(-0.00155658725018 0.000234572881044 0)
(-0.00149955385539 0.000277828236532 0)
(-0.00142880535987 0.000328500107588 0)
(-0.00134342019136 0.000388728605778 0)
(-0.00124500217061 0.000454255494193 0)
(-0.00113105796057 0.000530507257267 0)
(-0.000993155490126 0.000623249241674 0)
(-0.000825773579765 0.000725567063972 0)
(-0.000631224168505 0.000826372667186 0)
(-0.000420028547456 0.000913566922293 0)
(-0.000208527825086 0.000972424716147 0)
(-1.67160246949e-05 0.000987350643344 0)
(0.000120448143842 0.000918073548386 0)
(0.000293265714194 0.000783189631749 0)
(0.00048091239898 0.000562255267337 0)
(0.000572613743837 0.000368769088585 0)
(0.000642685618518 0.000279637737265 0)
(0.000700693773595 0.000228045303466 0)
(0.000752809948057 0.000174468757 0)
(0.00081482613152 0.000113399586781 0)
(0.000881312661167 4.12830812034e-05 0)
(0.000890319066468 -6.41328023776e-05 0)
(0.000793136083987 -0.000184939842693 0)
(0.000717266611709 -0.000289701828498 0)
(0.000641141435063 -0.000382290051213 0)
(0.000541620633363 -0.000464171907395 0)
(0.000396742951597 -0.000476405909561 0)
(0.000266623822446 -0.000481063116902 0)
(0.000181253174309 -0.000651265893356 0)
(5.10381757652e-05 -0.000701358839665 0)
(2.09488663235e-06 -0.000370934781133 0)
(-3.55820317833e-05 -0.000398778231228 0)
(-0.00015780009931 -0.000660724752017 0)
(-0.000215001390406 -0.000529441186526 0)
(-0.000154658101644 -0.00024804825196 0)
(-0.000209730063632 -0.000253717195782 0)
(-0.000471756626297 -0.000507025939884 0)
(-0.000564809203397 -0.000541679413749 0)
(-0.000631810281177 -0.000487388453322 0)
(-0.000716246776663 -0.000438874122331 0)
(-0.000798065956479 -0.000370915381212 0)
(-0.000714463951276 -0.000229817041818 0)
(-0.000641860165246 -0.000109252461414 0)
(-0.000695401330977 -7.73464416543e-05 0)
(-0.000762214559226 -9.28000889636e-05 0)
(-0.000897788910761 -0.000153522271109 0)
(-0.00105323871076 -0.000234406248787 0)
(-0.00115678719074 -0.000281295257725 0)
(-0.00114444388996 -0.000276659744772 0)
(-0.00120112484655 -0.000301357427663 0)
(-0.00127586574923 -0.000326179738567 0)
(-0.00132256893782 -0.000315751139124 0)
(-0.00136585934561 -0.000290133784359 0)
(-0.00140438676527 -0.000261866676547 0)
(-0.00145246802427 -0.000235053013629 0)
(-0.00148392251179 -0.00020227371081 0)
(-0.00147895530704 -0.000175912886905 0)
(-0.00155192160981 -0.000152945857712 0)
(-0.00151254038622 -0.000116615413403 0)
(-0.00159737963253 -8.42472719124e-05 0)
(-0.0014882656942 -4.82590415981e-05 0)
(-0.00159274518116 -4.14347834088e-05 0)
(-0.00150559226974 -3.75982953014e-05 0)
(-0.00159715992886 -4.54342205358e-05 0)
(-0.00168407799551 -7.72547590235e-05 0)
(-0.00172017905291 -0.000113342848397 0)
(-0.00173839696629 -0.000116008274512 0)
(-0.00175113503156 -0.000100987914971 0)
(-0.00175910318039 -7.82175971712e-05 0)
(-0.00176476779694 -4.95642432153e-05 0)
(-0.0017697111663 -1.56437055838e-05 0)
(-0.00177285630042 1.65638835179e-05 0)
(-0.00177183432265 4.14745001171e-05 0)
(-0.00176509928371 6.16334488538e-05 0)
(-0.00175264319336 8.17712968087e-05 0)
(-0.00173504217316 0.000104477170222 0)
(-0.00171285687511 0.000130797531044 0)
(-0.00168597056066 0.000161262429089 0)
(-0.00165375831722 0.000196654271971 0)
(-0.00161525501593 0.000237872748196 0)
(-0.0015688864816 0.000285625076834 0)
(-0.00151217205353 0.000340940828897 0)
(-0.00144250303046 0.000405358902063 0)
(-0.0013580293439 0.000479621068894 0)
(-0.00125689309993 0.000564609797571 0)
(-0.0011346037561 0.000666130710728 0)
(-0.00098486537697 0.000785987134414 0)
(-0.00080602747811 0.000913907104191 0)
(-0.000604335430357 0.00103339773402 0)
(-0.000390767395288 0.0011224252977 0)
(-0.000187066325326 0.00116304142685 0)
(-1.59654401345e-05 0.00112624376576 0)
(0.000112043252072 0.000976414168043 0)
(0.000302133301302 0.000995152735338 0)
(0.000444235939758 0.000695773890795 0)
(0.000540316836405 0.000460195205428 0)
(0.000633829566526 0.000347522039053 0)
(0.000710896671179 0.000285249929222 0)
(0.000774022106048 0.000231128335397 0)
(0.000866122674315 0.000171910012138 0)
(0.000933863429363 5.924395572e-05 0)
(0.000867946949537 -0.000105732874765 0)
(0.000787564706215 -0.000249299498354 0)
(0.000737381310072 -0.000373959075527 0)
(0.000647258262963 -0.000490423844525 0)
(0.000545169663303 -0.000591418395606 0)
(0.000389283621653 -0.000577117781401 0)
(0.000271647082149 -0.000595460451146 0)
(0.000180982762485 -0.000770959176745 0)
(5.47990995427e-05 -0.00080126530051 0)
(-1.31000392564e-05 -0.000402822738187 0)
(-8.8956052139e-05 -0.000529126793101 0)
(-0.000211844475896 -0.000720585058887 0)
(-0.000230992927206 -0.000656211136054 0)
(-0.000145386365754 -0.000308732577243 0)
(-0.000314138681211 -0.000463638108264 0)
(-0.000503047399895 -0.000633970224075 0)
(-0.000544322524256 -0.000606530776935 0)
(-0.000610446715744 -0.000552677765105 0)
(-0.00064389615706 -0.000490537864055 0)
(-0.000755746239121 -0.000395442261066 3.86162534626e-28)
(-0.000555853748949 -0.000166525342984 -2.13102365508e-28)
(-0.00064488715192 -0.000137724272263 0)
(-0.000683546718758 -0.000144308251453 0)
(-0.0008008661113 -0.000206284871732 0)
(-0.000973603118807 -0.000308144260291 0)
(-0.00108836262889 -0.000344304150008 0)
(-0.00105048725406 -0.000297929565974 0)
(-0.0011176299922 -0.00031857714682 0)
(-0.00121859732195 -0.000372703305089 0)
(-0.001264929859 -0.000382326254751 0)
(-0.00131498550869 -0.000363412730136 0)
(-0.00136105183419 -0.000335350021837 0)
(-0.0014029070967 -0.000301804521924 0)
(-0.00142654727526 -0.000262078026478 0)
(-0.00143089200803 -0.000220407210037 0)
(-0.00149644611232 -0.00019779713451 0)
(-0.00143787539361 -0.000168764316514 0)
(-0.00155413599822 -0.000133642780027 0)
(-0.00143312064184 -6.90939187607e-05 0)
(-0.00154924164706 -5.78330752666e-05 0)
(-0.00147681563305 -6.19898815505e-05 1.52710682915e-28)
(-0.00157593430344 -6.78536604251e-05 -1.6395107385e-28)
(-0.00160325749115 -0.000107174469359 0)
(-0.0017139418135 -0.000143616822093 0)
(-0.00173554453189 -0.000144974398401 0)
(-0.00174686137666 -0.000131176106713 0)
(-0.00175676056914 -0.000110328051745 0)
(-0.00176596641235 -8.44313651306e-05 0)
(-0.00177311085728 -5.40416883585e-05 0)
(-0.00177807102455 -1.99807280676e-05 0)
(-0.00178093676134 1.38605943031e-05 0)
(-0.00177990273861 4.38656272748e-05 0)
(-0.00177353014993 7.05178856059e-05 0)
(-0.00176179482287 9.65672579996e-05 0)
(-0.00174520607232 0.000124325885625 0)
(-0.00172414626732 0.000155262737069 0)
(-0.00169833184871 0.000190538168123 0)
(-0.0016670708968 0.000231436613514 0)
(-0.00162951626232 0.000279392784986 0)
(-0.00158430527801 0.00033588774733 0)
(-0.0015292126983 0.00040247707638 0)
(-0.00146147271593 0.000480723855814 0)
(-0.0013778553467 0.000572387356931 0)
(-0.00127411019218 0.000680897160847 0)
(-0.0011446390544 0.000810672109075 0)
(-0.000984953082113 0.000958571913093 0)
(-0.000796437019779 0.00110922072037 0)
(-0.000586886074897 0.00124095721541 0)
(-0.000369286375408 0.00132927301598 0)
(-0.000166951730868 0.00134095545348 0)
(-6.12228790452e-06 0.00127168539875 0)
(0.000140920851027 0.00120661560386 0)
(0.000271019460621 0.00110985290941 0)
(0.000404568272333 0.000814864849607 0)
(0.000507575638858 0.000555743130314 0)
(0.000644664280109 0.000452183871657 0)
(0.000758898454535 0.000381085567019 0)
(0.000848794447368 0.00031522443145 0)
(0.000933806116069 0.000220681100255 0)
(0.000946091041025 4.55865335455e-05 0)
(0.000871714913684 -0.000146735803367 0)
(0.000840330464024 -0.000309181240607 0)
(0.000779599870811 -0.000460490138248 0)
(0.000686236371235 -0.000607709572734 0)
(0.000556942222466 -0.000689631264637 0)
(0.0004271432379 -0.000712721147416 0)
(0.000279666629948 -0.000716698827499 0)
(0.000180952878114 -0.000877170098632 0)
(6.20690234005e-05 -0.000929562688854 0)
(-2.80274231415e-05 -0.000470921310219 0)
(-0.0001321692656 -0.000661587295197 0)
(-0.000241318933102 -0.000743862826448 0)
(-0.000139852841196 -0.000414757307048 0)
(-0.000152832033487 -0.000388358884597 0)
(-0.000383756810342 -0.000671651487632 0)
(-0.000466143770374 -0.000699532158647 0)
(-0.000530602268572 -0.000670736347495 0)
(-0.000558454528677 -0.000588394358625 0)
(-0.000623397117968 -0.000525593643156 0)
(-0.000484282078389 -0.000282517686926 0)
(-0.000557841817853 -0.000199028865175 0)
(-0.000629553297434 -0.000195869461258 0)
(-0.000683245783184 -0.000231050449234 0)
(-0.000872979133931 -0.000352948047938 0)
(-0.00101175150777 -0.000419566888249 0)
(-0.000965804641996 -0.000353817294313 0)
(-0.0010177202601 -0.0003429256832 0)
(-0.0011379266263 -0.00040554128212 0)
(-0.00121039859588 -0.000439233598415 0)
(-0.00125061254254 -0.000431225342277 0)
(-0.00129281581347 -0.000408829077471 0)
(-0.00134810532726 -0.000383943538129 0)
(-0.00138801362516 -0.00034428649573 0)
(-0.00143899805018 -0.000285909886161 0)
(-0.00140555063383 -0.000245507278869 0)
(-0.00149532743024 -0.000214888530638 0)
(-0.00146573544248 -0.000172744291418 0)
(-0.00142929975036 -0.000129483715128 0)
(-0.00145963402483 -9.96466992328e-05 0)
(-0.00159045769141 -8.89953897136e-05 0)
(-0.00153398141033 -7.51968765319e-05 0)
(-0.00153462299946 -0.000121069996195 0)
(-0.00169868367974 -0.000179810693558 0)
(-0.00172111556476 -0.000191821823282 0)
(-0.00174037211149 -0.000169057478518 0)
(-0.00175370742218 -0.000144366564993 0)
(-0.0017641050888 -0.000119759197306 0)
(-0.00177427781954 -9.19820359543e-05 0)
(-0.00178277221993 -5.98319099802e-05 0)
(-0.00178825789037 -2.42922271244e-05 0)
(-0.00179085465185 1.19425488082e-05 0)
(-0.00178978263606 4.64247695451e-05 0)
(-0.00178381340618 7.87878323076e-05 0)
(-0.00177272961391 0.000110414262383 1.73763051789e-28)
(-0.00175700197835 0.000143150808835 -1.73201939903e-28)
(-0.00173686813438 0.000178735979513 0)
(-0.00171198363482 0.000218804713412 0)
(-0.00168180056319 0.000265035584246 0)
(-0.00164580177959 0.000319330826131 0)
(-0.00160290675355 0.000383897714416 0)
(-0.00155098620266 0.000461209112082 0)
(-0.00148679596779 0.000554057946604 0)
(-0.00140562206331 0.000665993586381 0)
(-0.0013011268653 0.00080131100253 0)
(-0.0011667910681 0.000961558590036 0)
(-0.000999253415215 0.0011382216993 0)
(-0.0008009803818 0.00131207865594 0)
(-0.000578329257323 0.00145954717124 0)
(-0.000342876426555 0.00154548523991 0)
(-0.000128503346818 0.00152512802981 0)
(3.25383572464e-05 0.00142771335021 0)
(0.000153655019559 0.00131188053343 0)
(0.000239959014598 0.0011857526341 0)
(0.000401706584119 0.00105685185913 0)
(0.000504994707989 0.0006819474012 0)
(0.000655066688116 0.000574827657446 0)
(0.000799443040019 0.000490406036247 0)
(0.000895041165333 0.000388507505907 0)
(0.000961833327693 0.000242912536693 0)
(0.000959431184304 3.28659212865e-05 0)
(0.000933007174768 -0.000170452475385 0)
(0.0009224806257 -0.000360686498583 0)
(0.000853208674449 -0.000554891057297 0)
(0.000746480970511 -0.000727204722192 0)
(0.000597241700123 -0.000807987193117 0)
(0.000468329536344 -0.0008645453581 0)
(0.000298394707003 -0.000876808359082 0)
(0.000169065857366 -0.000987946591538 0)
(5.79827315875e-05 -0.00106854258323 0)
(-4.08247743149e-05 -0.000560109171479 0)
(-0.000156406757885 -0.000774763085367 0)
(-0.000202467624009 -0.000757881373825 0)
(-0.000134770223603 -0.000454489051337 0)
(-0.000223346730312 -0.000526528872056 0)
(-0.000407375383027 -0.00077553320951 0)
(-0.000428959777254 -0.000759590588315 0)
(-0.000517623060624 -0.000729517033145 0)
(-0.00047354063927 -0.000572265389276 0)
(-0.000636728337852 -0.00058831413855 0)
(-0.00047254866534 -0.000305913569593 0)
(-0.000573598528203 -0.000267791081172 0)
(-0.000624632596234 -0.000268522781824 0)
(-0.000742169680108 -0.000359696939964 0)
(-0.000914658015031 -0.000491361931603 0)
(-0.000995703533285 -0.000478846793777 0)
(-0.000943988066881 -0.000387404996553 0)
(-0.00103439686144 -0.000423789832842 0)
(-0.00113284798086 -0.000485792068164 0)
(-0.0011907530843 -0.00049707997584 0)
(-0.00124216446372 -0.000479229201444 0)
(-0.00127313358365 -0.000448916815442 0)
(-0.00132101911268 -0.000421065774472 0)
(-0.00133506467773 -0.000377088316061 0)
(-0.001337592084 -0.000298495559065 0)
(-0.00143954112242 -0.00026814153018 0)
(-0.0013345413328 -0.000228967613495 0)
(-0.0015298381722 -0.000193864428202 0)
(-0.00140752465276 -0.000151054304272 0)
(-0.00158196946795 -0.000148697119377 0)
(-0.00145647628691 -0.000113572748847 0)
(-0.00162348727468 -0.000119516421665 0)
(-0.00166522245129 -0.000181605484863 1.82157293656e-28)
(-0.00170884398254 -0.00023095420106 -1.89894916706e-28)
(-0.00172820318262 -0.000218084897493 0)
(-0.00174581476645 -0.000188545478874 0)
(-0.00176166103919 -0.000158947643193 0)
(-0.00177361398676 -0.000130712445161 0)
(-0.0017842505226 -0.000100728112602 0)
(-0.00179339391714 -6.66842819411e-05 0)
(-0.00179972429248 -2.89420727565e-05 0)
(-0.00180265231697 1.03169635603e-05 0)
(-0.00180162923152 4.90650453957e-05 0)
(-0.00179597181485 8.66128729979e-05 0)
(-0.00178552472387 0.000123558980473 0)
(-0.00177043897784 0.000161254291086 0)
(-0.00175083054675 0.000201458721002 0)
(-0.00172659199487 0.000246087592993 0)
(-0.00169759532009 0.000297083766539 0)
(-0.00166377719181 0.000356740427264 0)
(-0.00162450963974 0.000428127862688 0)
(-0.00157787287437 0.000515238123957 0)
(-0.00152014959244 0.000623051544098 0)
(-0.00144496469787 0.000757233466642 0)
(-0.00134360986828 0.00092222052882 0)
(-0.00120762645741 0.00111596197713 0)
(-0.00103233079797 0.00132509616702 0)
(-0.000818062638751 0.00152793529023 0)
(-0.000568638108097 0.00169994726656 0)
(-0.000301748903325 0.00178809415554 0)
(-8.18525110031e-05 0.00171649272336 0)
(5.17192402659e-05 0.00154924418819 0)
(0.000147175013514 0.00140613006503 0)
(0.000247421948059 0.00128881497249 0)
(0.000366150994816 0.00114957724467 0)
(0.000545935495331 0.000912391948371 0)
(0.000667879839099 0.000667142224092 0)
(0.000851798325932 0.000616999752619 0)