/*--------------------------------*- C++ -*----------------------------------*\
| =========                 |                                                 |
| \\      /  F ield         | OpenFOAM: The Open Source CFD Toolbox           |
|  \\    /   O peration     | Version:  v1806                                 |
|   \\  /    A nd           | Web:      www.OpenFOAM.com                      |
|    \\/     M anipulation  |                                                 |
\*---------------------------------------------------------------------------*/
FoamFile
{
    version     2.0;
    format      ascii;
    class       surfaceScalarField;
    location    "869";
    object      phia;
}
// * * * * * * * * * * * * * * * * * * * * * * * * * * * * * * * * * * * * * //

dimensions      [0 3 -1 0 0 0 0];
oriented        oriented;


internalField   nonuniform List<scalar> 
12640
(
4.17502125983e-08
-4.24268029729e-08
7.90458471992e-08
-3.77601661265e-08
1.11458669713e-07
-3.273970452e-08
1.3933490117e-07
-2.81139835892e-08
1.61651752548e-07
-2.25427100067e-08
1.78433642606e-07
-1.70233847381e-08
1.93666113246e-07
-1.54560343016e-08
2.14868679817e-07
-2.14035087409e-08
2.42154506777e-07
-2.74582404925e-08
2.69867558011e-07
-2.78591730296e-08
2.97342130483e-07
-2.75909299745e-08
3.26663770461e-07
-2.94266393991e-08
3.56259745872e-07
-2.96903124193e-08
3.85484199247e-07
-2.93150084075e-08
4.15895580788e-07
-3.04949391331e-08
4.50000781074e-07
-3.41949387205e-08
4.86317953503e-07
-3.63990916074e-08
5.22276547912e-07
-3.60378904728e-08
5.57709241322e-07
-3.54926930192e-08
5.9507252581e-07
-3.74151850876e-08
6.38105349282e-07
-4.30754145121e-08
6.86192591356e-07
-4.81327920827e-08
7.35765739456e-07
-4.9613109808e-08
7.85131170104e-07
-4.94095808767e-08
8.33933492742e-07
-4.88404302402e-08
8.82549062831e-07
-4.86582538324e-08
9.31711703468e-07
-4.91993923091e-08
9.8113084406e-07
-4.94614910812e-08
1.03039649294e-06
-4.93013549183e-08
1.07972209362e-06
-4.93668053113e-08
1.12983049279e-06
-5.01424705556e-08
1.18034263526e-06
-5.05528380001e-08
1.23091563074e-06
-5.06088532871e-08
1.28294869704e-06
-5.20731753988e-08
1.33628141577e-06
-5.33623199433e-08
1.39020313539e-06
-5.3957582683e-08
1.44459841707e-06
-5.44215520481e-08
1.49814654247e-06
-5.35770141316e-08
1.54990500012e-06
-5.17786692635e-08
1.59995862128e-06
-5.00820956347e-08
1.64913739144e-06
-4.92009175739e-08
1.69548415475e-06
-4.63761949513e-08
1.73647102242e-06
-4.10078212806e-08
1.77355722128e-06
-3.71114282332e-08
1.80821134144e-06
-3.46691532822e-08
1.84011845814e-06
-3.19265638307e-08
1.86889752697e-06
-2.87874537214e-08
1.89385438286e-06
-2.4968544591e-08
1.91491060334e-06
-2.10557475261e-08
1.93387275712e-06
-1.89644546438e-08
1.95300616912e-06
-1.91205372536e-08
1.9695903784e-06
-1.65739678723e-08
1.97742585762e-06
-7.81411260013e-09
1.97843255104e-06
-9.88185551514e-10
1.97201676342e-06
6.44599627661e-09
1.9561850774e-06
1.58596467734e-08
1.94093590336e-06
1.52975848451e-08
1.93057582763e-06
1.04189650639e-08
1.91678364434e-06
1.38779733217e-08
1.90006091935e-06
1.68361852595e-08
1.88995778573e-06
1.02496193756e-08
1.87487343633e-06
1.52327601343e-08
1.82404427272e-06
5.09384742118e-08
1.71338244568e-06
1.10653343335e-07
1.58701732906e-06
1.26341914318e-07
1.48703039898e-06
9.99354588766e-08
1.39202809823e-06
9.494977002e-08
1.29395119935e-06
9.79976223704e-08
1.18679715849e-06
1.07042847281e-07
1.06429452076e-06
1.22344697247e-07
9.33001762453e-07
1.31117055813e-07
8.02730915968e-07
1.30102751767e-07
6.77534055617e-07
1.25014840865e-07
5.44455481273e-07
1.32887156529e-07
4.29897883156e-07
1.14366350462e-07
3.303641242e-07
9.93782980616e-08
2.5960505927e-07
7.06057263974e-08
1.80719516533e-07
7.8740341542e-08
1.09297861473e-07
7.09874013197e-08
1.09107857277e-07
2.22377400414e-08
-6.48692873274e-08
5.15923382202e-08
-6.74179338306e-08
8.0400429419e-08
-6.1769142339e-08
1.09912102524e-07
-5.78146376523e-08
1.45645302388e-07
-5.84926924447e-08
1.73698949248e-07
-4.52944974609e-08
1.93972164981e-07
-3.5959222778e-08
2.16536804889e-07
-4.41600922814e-08
2.41946762816e-07
-5.30411764257e-08
2.695933271e-07
-5.56374189465e-08
2.97752079186e-07
-5.58724072831e-08
3.24819896257e-07
-5.65902646263e-08
3.52297870205e-07
-5.72723355368e-08
3.81280666957e-07
-5.83904233413e-08
4.12332809061e-07
-6.16555469214e-08
4.4725962562e-07
-6.9208047879e-08
4.82656841148e-07
-7.1887153119e-08
5.14311307651e-07
-6.77493135894e-08
5.4716191016e-07
-6.84026542492e-08
5.86442581673e-07
-7.67316676033e-08
6.32493919582e-07
-8.91758428436e-08
6.83227188285e-07
-9.88978841208e-08
7.3394614289e-07
-1.00383245959e-07
7.82163615115e-07
-9.76584888429e-08
8.30180732744e-07
-9.69071305126e-08
8.79709949534e-07
-9.82170567911e-08
9.29113573153e-07
-9.86519811136e-08
9.7817748589e-07
-9.85536750306e-08
1.02750210987e-06
-9.86739682483e-08
1.07721256283e-06
-9.91044391484e-08
1.12702488457e-06
-1.00002862207e-07
1.17694028069e-06
-1.00497105053e-07
1.22693572925e-06
-1.00651623629e-07
1.27888865322e-06
-1.04051157861e-07
1.33352604944e-06
-1.0804518224e-07
1.38801369491e-06
-1.08463450906e-07
1.44217553035e-06
-1.08620517299e-07
1.49711293144e-06
-1.08528367475e-07
1.55195083345e-06
-1.06652294947e-07
1.60344680569e-06
-1.0159202721e-07
1.64529986497e-06
-9.10921325819e-08
1.68017770152e-06
-8.12698398684e-08
1.71691252184e-06
-7.77785531944e-08
1.75543523335e-06
-7.56454714273e-08
1.79260986261e-06
-7.1873903375e-08
1.82771363944e-06
-6.70360963646e-08
1.85978885617e-06
-6.08866545786e-08
1.88882834011e-06
-5.40071410946e-08
1.91431646803e-06
-4.65593569004e-08
1.93321979286e-06
-3.78576211431e-08
1.94292444021e-06
-2.88300381468e-08
1.9496348187e-06
-2.32639829062e-08
1.96434402066e-06
-2.25159602167e-08
1.97531184063e-06
-1.19244850475e-08
1.97321360744e-06
8.56492242544e-09
1.96998809542e-06
1.91327746898e-08
1.96537733194e-06
1.99503298278e-08
1.95473916083e-06
2.11334628299e-08
1.94325676082e-06
2.54464273944e-08
1.92917761322e-06
3.10498287746e-08
1.89867091519e-06
4.08720994117e-08
1.86271238253e-06
5.13106719898e-08
1.80330554864e-06
1.10396511549e-07
1.69181920138e-06
2.22170287878e-07
1.54140099782e-06
2.76705664471e-07
1.39255558938e-06
2.48739988833e-07
1.30230911012e-06
1.85124927095e-07
1.23783803273e-06
1.62388817342e-07
1.15253180967e-06
1.92226246971e-07
1.03622127629e-06
2.38519316918e-07
8.97559734343e-07
2.69628027633e-07
7.56132086522e-07
2.71379949359e-07
6.37730008882e-07
2.43253877055e-07
5.48367752266e-07
2.22073116601e-07
4.60481745262e-07
2.02069731147e-07
3.78453053548e-07
1.8122433609e-07
2.92103086283e-07
1.56749343949e-07
2.1457509007e-07
1.55990804255e-07
1.12389222865e-07
1.72939127173e-07
2.21062537703e-07
2.70981633517e-08
-9.23621122094e-08
4.16179202523e-08
-8.21825095945e-08
7.4438598696e-08
-9.48175543418e-08
1.12161230831e-07
-9.57678913742e-08
1.47723612275e-07
-9.42791489219e-08
1.67372299459e-07
-6.51184194191e-08
1.81315885646e-07
-5.00607806454e-08
2.05693513261e-07
-6.87057734003e-08
2.33594565439e-07
-8.10885949429e-08
2.61896535331e-07
-8.40660492881e-08
2.901588362e-07
-8.42435487083e-08
3.173615277e-07
-8.390536113e-08
3.44515191461e-07
-8.45420073117e-08
3.73710679717e-07
-8.77047869097e-08
4.02947715654e-07
-9.09996555609e-08
4.22908195767e-07
-8.92621375197e-08
4.36670030903e-07
-8.57125154187e-08
4.62074916249e-07
-9.32071222788e-08
5.06074384017e-07
-1.1244244198e-07
5.65949910358e-07
-1.36651240786e-07
6.27504296877e-07
-1.50772699235e-07
6.78794650068e-07
-1.50237617843e-07
7.25867393381e-07
-1.47497239222e-07
7.75041253476e-07
-1.46878894484e-07
8.24728817003e-07
-1.46633446093e-07
8.73291296554e-07
-1.46823681149e-07
9.21897990637e-07
-1.47295090262e-07
9.71159055181e-07
-1.47857666529e-07
1.02074925916e-06
-1.48300136713e-07
1.07083748711e-06
-1.49236180051e-07
1.1204786401e-06
-1.49681355261e-07
1.17049379137e-06
-1.50554255741e-07
1.22187378314e-06
-1.52068553998e-07
1.27219256345e-06
-1.54410600463e-07
1.32548764612e-06
-1.61367330752e-07
1.38381879242e-06
-1.66827552375e-07
1.43949234939e-06
-1.64318132209e-07
1.49328780352e-06
-1.62353190135e-07
1.54898591863e-06
-1.62372530789e-07
1.60233850444e-06
-1.54976952264e-07
1.65145719112e-06
-1.40236670264e-07
1.69670282556e-06
-1.26548033111e-07
1.73756722897e-06
-1.18665959274e-07
1.77511120462e-06
-1.13218463161e-07
1.81006760753e-06
-1.06850030665e-07
1.84211947485e-06
-9.91129508425e-08
1.87132081718e-06
-9.01027251981e-08
1.8974671222e-06
-8.01719007321e-08
1.92025137572e-06
-6.93509161698e-08
1.93994449621e-06
-5.75609036462e-08
1.9570918081e-06
-4.59753554404e-08
1.97022226218e-06
-3.63927264751e-08
1.97429666409e-06
-2.65765397469e-08
1.9726849641e-06
-1.02984452849e-08
1.97396590424e-06
7.31373452968e-09
1.974579916e-06
1.85536307189e-08
1.96852697838e-06
2.6057547243e-08
1.95675879384e-06
3.29687371268e-08
1.94167610179e-06
4.06231318946e-08
1.9224571756e-06
5.0367414073e-08
1.89769304604e-06
6.57383993145e-08
1.84106137659e-06
1.08013090707e-07
1.71412728525e-06
2.37361107447e-07
1.53468266768e-06
4.01585998509e-07
1.39500130088e-06
4.16353604223e-07
1.33194273449e-06
3.11737902414e-07
1.25731209895e-06
2.59693006927e-07
1.15897322607e-06
2.60642253728e-07
1.04960745265e-06
3.01497555152e-07
9.2689670147e-07
3.61125527003e-07
8.08369022624e-07
3.88041848755e-07
7.15961040502e-07
3.63651016779e-07
6.34860564905e-07
3.2419536418e-07
5.50213375968e-07
3.06536951576e-07
4.50361847838e-07
3.01725441189e-07
3.49788313006e-07
2.8158579644e-07
2.64604284394e-07
2.41740367971e-07
2.00457347339e-07
2.19952630647e-07
8.63050632527e-08
2.86472169611e-07
3.07330340483e-07
1.83552889928e-08
-1.10830188176e-07
2.50695346906e-08
-8.90601718847e-08
6.00634706723e-08
-1.30036184803e-07
9.03811287943e-08
-1.26316584685e-07
9.63600946042e-08
-1.00421651941e-07
8.90087327477e-08
-5.78454787408e-08
1.24251773175e-07
-8.5396664431e-08
1.78448128786e-07
-1.23026781723e-07
2.17526604639e-07
-1.20296852561e-07
2.48764000544e-07
-1.15420813155e-07
2.78485274325e-07
-1.14085465288e-07
3.06667112924e-07
-1.12216901311e-07
3.32298745892e-07
-1.1030419151e-07
3.49021556776e-07
-1.04548535711e-07
3.58931212174e-07
-1.01007372631e-07
3.76005977266e-07
-1.06404030861e-07
4.11440460591e-07
-1.2119967985e-07
4.64748665902e-07
-1.46559994931e-07
5.25627613362e-07
-1.73370772398e-07
5.77896807761e-07
-1.88971235783e-07
6.21887793994e-07
-1.94816857549e-07
6.68423168803e-07
-1.96820647667e-07
7.17146339944e-07
-1.96269450209e-07
7.65403642346e-07
-1.95180219918e-07
8.13528622502e-07
-1.94804817378e-07
8.61859234126e-07
-1.95195448486e-07
9.11027155391e-07
-1.96507468892e-07
9.60642056232e-07
-1.97511608247e-07
1.01083379148e-06
-1.98535394217e-07
1.06071305474e-06
-1.99156639148e-07
1.11160344652e-06
-2.00616366757e-07
1.16109173525e-06
-2.00084325799e-07
1.21036201142e-06
-2.01378369361e-07
1.26681906452e-06
-2.10900015377e-07
1.32380938584e-06
-2.18391889628e-07
1.38022094049e-06
-2.2326638831e-07
1.44170245906e-06
-2.2582955789e-07
1.50108364117e-06
-2.21761545625e-07
1.55332598936e-06
-2.14647912249e-07
1.60210833991e-06
-2.03788471292e-07
1.65018508058e-06
-1.8834595202e-07
1.69642018554e-06
-1.72811198533e-07
1.73873924599e-06
-1.61017289735e-07
1.77711062024e-06
-1.51617992406e-07
1.81224347652e-06
-1.42014329667e-07
1.84435306897e-06
-1.3124870365e-07
1.87349466993e-06
-1.19272098674e-07
1.89956295568e-06
-1.06261181116e-07
1.92245399605e-06
-9.22630214325e-08
1.94227442585e-06
-7.73943862679e-08
1.95869193557e-06
-6.2404725059e-08
1.97009209955e-06
-4.77967699475e-08
1.97534139951e-06
-3.18259692643e-08
1.97765992275e-06
-1.26045942339e-08
1.97872896607e-06
6.26484604173e-09
1.97604276761e-06
2.12754125517e-08
1.96808410979e-06
3.40620314288e-08
1.95434046873e-06
4.67771505987e-08
1.93373965187e-06
6.12973268049e-08
1.90222451818e-06
8.19577785036e-08
1.84718077076e-06
1.20826322078e-07
1.74731049253e-06
2.07904045205e-07
1.61932624352e-06
3.65347032062e-07
1.50214657622e-06
5.18755867343e-07
1.37214401614e-06
5.46306581675e-07
1.24673312773e-06
4.37090075115e-07
1.14855629284e-06
3.57790719904e-07
1.06314019409e-06
3.45995080334e-07
9.79792204239e-07
3.84789461989e-07
8.89130472556e-07
4.51729952783e-07
7.87851773768e-07
4.89228414971e-07
6.83077467915e-07
4.68299666108e-07
5.73946639399e-07
4.33172298086e-07
4.65593390997e-07
4.14729765135e-07
3.65490479809e-07
4.0164870712e-07
2.62914718032e-07
3.8396752358e-07
1.73915653783e-07
3.30525905873e-07
1.16654669667e-07
2.76939517016e-07
5.99697923822e-08
3.43135041317e-07
3.66999794501e-07
2.65528361765e-09
-1.13707631294e-07
2.037484349e-08
-1.06920911875e-07
4.68476270226e-08
-1.56720170489e-07
6.84704365699e-08
-1.48155710609e-07
6.59631116407e-08
-9.80266263011e-08
8.70525757344e-08
-7.89955233359e-08
1.31106006662e-07
-1.29534060668e-07
1.64217400369e-07
-1.56257973859e-07
1.96098594634e-07
-1.52292395113e-07
2.2857889602e-07
-1.48028597383e-07
2.60997961305e-07
-1.46647042588e-07
2.84256523497e-07
-1.35609407117e-07
2.93593551781e-07
-1.19762151671e-07
3.03922888032e-07
-1.1496973829e-07
3.30906948769e-07
-1.28057696751e-07
3.7489790139e-07
-1.50451828916e-07
4.29354521404e-07
-1.75708812025e-07
4.81765073667e-07
-1.99024901055e-07
5.23830457626e-07
-2.15492456204e-07
5.63253190207e-07
-2.2845202455e-07
6.07701749375e-07
-2.39320964195e-07
6.54933079559e-07
-2.4410609539e-07
7.02746295758e-07
-2.44133113741e-07
7.50471460718e-07
-2.42955984964e-07
7.98411826786e-07
-2.42791896415e-07
8.47253715926e-07
-2.44085152639e-07
8.96285389077e-07
-2.45580820385e-07
9.46623186355e-07
-2.47894342761e-07
9.96414910879e-07
-2.4837252107e-07
1.04692268567e-06
-2.49712220032e-07
1.09553463384e-06
-2.49273048592e-07
1.14798597555e-06
-2.52576462965e-07
1.20599615501e-06
-2.594241229e-07
1.2622499579e-06
-2.67186832134e-07
1.32210577157e-06
-2.78277065474e-07
1.38523129045e-06
-2.86423567526e-07
1.44414935312e-06
-2.84779159892e-07
1.49954299634e-06
-2.77189860432e-07
1.55169059934e-06
-2.66828580758e-07
1.60143451867e-06
-2.53567264817e-07
1.65006810681e-06
-2.37012592159e-07
1.69691001437e-06
-2.19688436469e-07
1.74024871612e-06
-2.04390219045e-07
1.77954051097e-06
-1.90946887713e-07
1.81518876184e-06
-1.77698627253e-07
1.84753968577e-06
-1.63637277775e-07
1.87673277491e-06
-1.48499950755e-07
1.9027436113e-06
-1.32306147839e-07
1.92551500032e-06
-1.150633649e-07
1.94496042827e-06
-9.6866428916e-08
1.96057272148e-06
-7.80375697281e-08
1.97133719757e-06
-5.85769062794e-08
1.97714718771e-06
-3.76427242793e-08
1.97973168725e-06
-1.51875008462e-08
1.97952649209e-06
6.48443588985e-09
1.97466912837e-06
2.61564719594e-08
1.96308401523e-06
4.56852713605e-08
1.94216794862e-06
6.77356646514e-08
1.9074332202e-06
9.60788452352e-08
1.85084730098e-06
1.38572768004e-07
1.76187369969e-06
2.09812830684e-07
1.64434733082e-06
3.25424501867e-07
1.53637615655e-06
4.73297056635e-07
1.44788566329e-06
6.07199979574e-07
1.35797008485e-06
6.36171823698e-07
1.2365042165e-06
5.58484901968e-07
1.1021059195e-06
4.92157678469e-07
9.86933575407e-07
4.61151954713e-07
8.9458766408e-07
4.77133716341e-07
8.07317714685e-07
5.38973865232e-07
7.05052955117e-07
5.91433713563e-07
5.96284290386e-07
5.76967336092e-07
4.91593603818e-07
5.37752750309e-07
3.87626603296e-07
5.18566022326e-07
2.84491273731e-07
5.04616372641e-07
1.91184688249e-07
4.77068849421e-07
1.36005971181e-07
3.85556534018e-07
8.3950303558e-08
3.28928763715e-07
3.27268708603e-08
3.93863396337e-07
3.99751818534e-07
1.51972036423e-10
-1.13867348219e-07
2.29623828488e-08
-1.29849601039e-07
3.59644011908e-08
-1.69910218196e-07
4.58054194303e-08
-1.58138168937e-07
4.52100489636e-08
-9.75032379599e-08
8.79247426484e-08
-1.21779100207e-07
1.27717309564e-07
-1.69428525139e-07
1.48768428307e-07
-1.7741027634e-07
1.74914907088e-07
-1.78570013158e-07
2.02969255893e-07
-1.76221656114e-07
2.2464079414e-07
-1.68458291648e-07
2.26314518964e-07
-1.37401069099e-07
2.36730525733e-07
-1.30261880646e-07
2.66888356832e-07
-1.45190122885e-07
3.12921486953e-07
-1.7414414302e-07
3.69970689755e-07
-2.0755357928e-07
4.23320956162e-07
-2.29118236142e-07
4.63646806589e-07
-2.39414883527e-07
5.01211350435e-07
-2.53121233924e-07
5.45411479195e-07
-2.72714934154e-07
5.91289881166e-07
-2.8526029279e-07
6.36958443928e-07
-2.89832599113e-07
6.8379258997e-07
-2.91022904226e-07
7.31867108417e-07
-2.91082029936e-07
7.80107119416e-07
-2.9108355602e-07
8.26994138004e-07
-2.91019821691e-07
8.77197966086e-07
-2.95833644602e-07
9.27037176998e-07
-2.97781364486e-07
9.77856971875e-07
-2.99240014335e-07
1.02481629373e-06
-2.96718837017e-07
1.07583712756e-06
-3.00339092574e-07
1.13074981498e-06
-3.07527923606e-07
1.18800805733e-06
-3.16715640288e-07
1.25563688217e-06
-3.34846626461e-07
1.32352790368e-06
-3.46200277805e-07
1.38477695786e-06
-3.47707121944e-07
1.44188994973e-06
-3.41929231419e-07
1.49678355607e-06
-3.32121046311e-07
1.54967618099e-06
-3.19759815918e-07
1.60072608755e-06
-3.04654951843e-07
1.65030988438e-06
-2.86634723898e-07
1.69787666618e-06
-2.67293874499e-07
1.74213932817e-06
-2.48694332409e-07
1.78240242691e-06
-2.31253373908e-07
1.8187639888e-06
-2.14106172625e-07
1.85151228665e-06
-1.96432180529e-07
1.88081746873e-06
-1.77852272793e-07
1.90669589206e-06
-1.58229714591e-07
1.92908287849e-06
-1.374930954e-07
1.94782339753e-06
-1.15644956139e-07
1.96250710866e-06
-9.27548072268e-08
1.97262731195e-06
-6.87240287348e-08
1.9783026271e-06
-4.33366344416e-08
1.98015636537e-06
-1.70483245055e-08
1.9775217368e-06
9.12025051907e-09
1.96796897676e-06
3.57222150946e-08
1.94811945521e-06
6.55461919556e-08
1.91331632857e-06
1.02556645127e-07
1.85711484303e-06
1.52288929442e-07
1.77320504622e-06
2.22479378148e-07
1.66168500953e-06
3.21312394998e-07
1.53974084266e-06
4.47335391191e-07
1.44433411579e-06
5.68671515615e-07
1.3501208199e-06
7.01393860743e-07
1.24068330045e-06
7.45552348382e-07
1.14034315967e-06
6.58806528573e-07
1.02319127949e-06
6.0929900263e-07
9.07747791175e-07
5.76601069069e-07
8.12591151011e-07
5.72300861416e-07
7.19731339057e-07
6.31832486104e-07
6.14732297394e-07
6.96392886501e-07
5.19611866251e-07
6.72018684695e-07
4.16550653769e-07
6.40722114143e-07
3.10459781185e-07
6.24534686916e-07
2.13044636977e-07
6.01874830638e-07
1.48974544476e-07
5.40995931223e-07
9.80786614592e-08
4.36291975002e-07
5.23706121381e-08
3.7435170407e-07
2.24118172586e-08
4.23895815296e-07
4.21888464071e-07
7.48242793762e-09
-1.2149500966e-07
3.12985417394e-08
-1.53798235096e-07
4.00210176254e-08
-1.78818409072e-07
3.15986351126e-08
-1.49844723792e-07
4.84663348811e-08
-1.14433052705e-07
9.22316070795e-08
-1.65625429326e-07
1.13035997513e-07
-1.90324110616e-07
1.30567661574e-07
-1.95066902781e-07
1.49864596665e-07
-1.9798513889e-07
1.77051999327e-07
-2.03560999588e-07
1.80378444256e-07
-1.71912019482e-07
1.8663699727e-07
-1.43747683577e-07
2.1430144799e-07
-1.57989208697e-07
2.51967163396e-07
-1.82901909123e-07
3.05354413391e-07
-2.27583193484e-07
3.58408334155e-07
-2.60674086766e-07
3.966350441e-07
-2.6741509209e-07
4.32076290303e-07
-2.74923826049e-07
4.77455225362e-07
-2.98567025836e-07
5.24341024059e-07
-3.19668068783e-07
5.69170703335e-07
-3.30155637149e-07
6.1468320872e-07
-3.35408049674e-07
6.61800678185e-07
-3.38197424092e-07
7.08414989376e-07
-3.37753704156e-07
7.54642605393e-07
-3.37366147025e-07
8.02409577857e-07
-3.38838959316e-07
8.50945931248e-07
-3.44420242731e-07
9.0194375894e-07
-3.48828260784e-07
9.50414131676e-07
-3.47759924846e-07
9.98661885868e-07
-3.45014866454e-07
1.05572655911e-06
-3.57446217549e-07
1.11561183704e-06
-3.67451146408e-07
1.18278326225e-06
-3.83919896023e-07
1.25140795897e-06
-4.03504619233e-07
1.3186934012e-06
-4.13522660371e-07
1.37985635835e-06
-4.08909905857e-07
1.43731682989e-06
-3.99430596409e-07
1.49311046274e-06
-3.87956542033e-07
1.54743139608e-06
-3.74122649862e-07
1.60004508363e-06
-3.573113042e-07
1.6508727107e-06
-3.37505827889e-07
1.69940726611e-06
-3.15874486244e-07
1.74466370776e-06
-2.93999710195e-07
1.78593993966e-06
-2.72582471035e-07
1.82311615465e-06
-2.51338448988e-07
1.85633905073e-06
-2.29714030627e-07
1.88572686503e-06
-2.07300134569e-07
1.91129012953e-06
-1.83852436558e-07
1.93297872885e-06
-1.59237685659e-07
1.95068483416e-06
-1.3340290617e-07
1.96418963666e-06
-1.06304901041e-07
1.97326392715e-06
-7.78353559058e-08
1.97783473642e-06
-4.79337109046e-08
1.9774614222e-06
-1.6693755707e-08
1.97021570822e-06
1.63565527549e-08
1.95246384963e-06
5.34603517594e-08
1.91962118915e-06
9.83797426743e-08
1.8669325592e-06
1.55225961235e-07
1.79116681839e-06
2.28031494194e-07
1.69365783636e-06
3.1996182084e-07
1.58635661048e-06
4.28579213005e-07
1.48898750315e-06
5.44676693323e-07
1.39057493018e-06
6.67061285657e-07
1.28727677702e-06
8.04628141212e-07
1.14830682947e-06
8.84498296635e-07
1.03876599142e-06
7.68315494047e-07
9.52369398953e-07
6.95699341564e-07
8.51795461392e-07
6.77189770604e-07
7.45298792751e-07
6.78815573297e-07
6.39213845943e-07
7.37911221445e-07
5.49127088368e-07
7.86438041639e-07
4.56357324633e-07
7.64727712624e-07
3.44079180821e-07
7.52914500777e-07
2.36883383923e-07
7.31618678341e-07
1.52948720783e-07
6.85681378671e-07
1.09608210595e-07
5.84175398814e-07
5.66986279488e-08
4.89067754515e-07
1.53625363567e-08
4.15672648614e-07
7.62415448943e-09
4.31120645437e-07
4.29579987083e-07
1.37706468734e-08
-1.35260651813e-07
3.14725467e-08
-1.71621776692e-07
3.46911936554e-08
-1.8213705677e-07
1.95231600696e-08
-1.34750041974e-07
4.89705676048e-08
-1.43947674166e-07
7.97476222974e-08
-1.96486770033e-07
9.51868890964e-08
-2.0587444619e-07
1.11845629227e-07
-2.11837170383e-07
1.1931670307e-07
-2.05608046898e-07
1.35986381946e-07
-2.20350390468e-07
1.34216896491e-07
-1.70236077034e-07
1.61347952143e-07
-1.70942249858e-07
1.92379519328e-07
-1.89069760049e-07
2.38481800598e-07
-2.2905563455e-07
2.8978289446e-07
-2.78947800781e-07
3.27679358575e-07
-2.98644013735e-07
3.59216861819e-07
-2.99026905037e-07
4.03276151987e-07
-3.19055137192e-07
4.51804063e-07
-3.47167096446e-07
4.9694878493e-07
-3.64885077095e-07
5.41235893179e-07
-3.74512140206e-07
5.86487967404e-07
-3.80723108437e-07
6.3454363399e-07
-3.86317672632e-07
6.82615852871e-07
-3.858880627e-07
7.26970141098e-07
-3.81776965295e-07
7.77622545179e-07
-3.89548158374e-07
8.25079187954e-07
-3.91931115888e-07
8.72245791151e-07
-3.96047119189e-07
9.205417455e-07
-3.96105197551e-07
9.84681544982e-07
-4.09201103292e-07
1.04381570426e-06
-4.16624090651e-07
1.1036522785e-06
-4.27323851656e-07
1.17386765208e-06
-4.54171120717e-07
1.24642466862e-06
-4.76100307668e-07
1.31058824623e-06
-4.77727998787e-07
1.37154916306e-06
-4.69914779885e-07
1.43085383398e-06
-4.58780452928e-07
1.48864673212e-06
-4.45795584275e-07
1.54488852947e-06
-4.30411587424e-07
1.59934751254e-06
-4.11818612648e-07
1.6517373153e-06
-3.89945964216e-07
1.70154543608e-06
-3.65736013275e-07
1.74798411866e-06
-3.40496194066e-07
1.79037990248e-06
-3.15040845299e-07
1.82844618675e-06
-2.89472176748e-07
1.86215261593e-06
-2.63491768353e-07
1.89150409502e-06
-2.36724686813e-07
1.91647648044e-06
-2.0889719367e-07
1.93706300681e-06
-1.79892994493e-07
1.95327877596e-06
-1.49683212442e-07
1.96509744283e-06
-1.18180112469e-07
1.97237197172e-06
-8.5157997565e-08
1.97458787365e-06
-5.01889754484e-08
1.97015361853e-06
-1.22866043252e-08
1.95568108671e-06
3.08102808221e-08
1.92642485057e-06
8.26855799185e-08
1.87842183831e-06
1.46347829601e-07
1.81081071663e-06
2.22796517652e-07
1.72584254682e-06
3.12975324987e-07
1.62805640869e-06
4.17698952852e-07
1.529478293e-06
5.27108513179e-07
1.4391048704e-06
6.35014373006e-07
1.35486289949e-06
7.51261119306e-07
1.28610528979e-06
8.73399469089e-07
1.16640823844e-06
1.00417001703e-06
9.75872953883e-07
9.58918247217e-07
8.53153152431e-07
8.18401203383e-07
7.54399055893e-07
7.75908482886e-07
6.55181381741e-07
7.77929540908e-07
5.7279744457e-07
8.20256977998e-07
4.99141601701e-07
8.60064854134e-07
3.92638942227e-07
8.71181095722e-07
2.70708727593e-07
8.74762609187e-07
1.64045698587e-07
8.38181467361e-07
9.6923023079e-08
7.52704707602e-07
4.90028133279e-08
6.31981607595e-07
2.74825666018e-09
5.35172618485e-07
-3.26186576816e-08
4.50716272744e-07
-2.24189015854e-08
4.21074822249e-07
4.06873678691e-07
1.59025400225e-08
-1.5132557822e-07
2.54931649977e-08
-1.81337658726e-07
2.05211232942e-08
-1.77295433796e-07
2.16744279735e-08
-1.35967791383e-07
5.1914895537e-08
-1.74264582596e-07
6.28733093895e-08
-2.07545297606e-07
7.58031679941e-08
-2.18922191874e-07
9.12134150144e-08
-2.27373184205e-07
9.47782694104e-08
-2.0928242638e-07
1.03629903734e-07
-2.29327698129e-07
1.15646727726e-07
-1.82319290001e-07
1.40547098189e-07
-1.95896751091e-07
1.72619990582e-07
-2.21183676999e-07
2.21309287961e-07
-2.77798380927e-07
2.64198452357e-07
-3.21916891777e-07
2.92039631662e-07
-3.26569183156e-07
3.26902098632e-07
-3.33966659147e-07
3.72899637458e-07
-3.65128070997e-07
4.19635943814e-07
-3.93979658247e-07
4.6467508979e-07
-4.09997550102e-07
5.09409183896e-07
-4.19314033241e-07
5.53475306058e-07
-4.24861149691e-07
5.98845008813e-07
-4.31759196397e-07
6.45876360645e-07
-4.32984653776e-07
6.89845859104e-07
-4.25810568827e-07
7.38967595798e-07
-4.3872958871e-07
7.90734854869e-07
-4.43754075599e-07
8.45590146791e-07
-4.50957040221e-07
9.0336627056e-07
-4.53934076397e-07
9.60542967397e-07
-4.6642493285e-07
1.02256640596e-06
-4.78686837732e-07
1.09756671472e-06
-5.02361598794e-07
1.16971170222e-06
-5.26354947133e-07
1.23514901361e-06
-5.41580591954e-07
1.29873036255e-06
-5.41356462428e-07
1.36141928884e-06
-5.32652614634e-07
1.42308883425e-06
-5.20499888798e-07
1.48333144795e-06
-5.06089008685e-07
1.54189951503e-06
-4.8903201017e-07
1.59854760158e-06
-4.68521298769e-07
1.65288970212e-06
-4.44345886002e-07
1.70436017304e-06
-4.17268750857e-07
1.75226170494e-06
-3.88465167101e-07
1.79595314833e-06
-3.5880600794e-07
1.83500363075e-06
-3.28602427358e-07
1.86916721798e-06
-2.97739838831e-07
1.89828918248e-06
-2.65934014567e-07
1.92229417074e-06
-2.32988050551e-07
1.94123519632e-06
-1.98918242364e-07
1.95529239143e-06
-1.63817710961e-07
1.96462506109e-06
-1.27581778323e-07
1.96907394845e-06
-8.96657599524e-08
1.9675764156e-06
-4.87281035538e-08
1.95733017969e-06
-2.05251426565e-09
1.93347697057e-06
5.46217905933e-08
1.89089117999e-06
1.25245741555e-07
1.82908745833e-06
2.08121512274e-07
1.75413767684e-06
2.97728571239e-07
1.66951177666e-06
3.97529173486e-07
1.57019059559e-06
5.16967859996e-07
1.46758209764e-06
6.29682329229e-07
1.38087743999e-06
7.21693988909e-07
1.31437597494e-06
8.178019801e-07
1.26273861245e-06
9.25041614287e-07
1.21426308666e-06
1.05279084331e-06
1.02423849157e-06
1.14889751911e-06
7.73546915772e-07
1.06897428921e-06
6.65398971072e-07
8.83771614269e-07
5.9227857143e-07
8.50877093824e-07
5.34040214001e-07
8.78330661166e-07
4.55326126077e-07
9.3868555406e-07
3.30225863836e-07
9.96189738682e-07
1.95189362316e-07
1.00970832209e-06
8.51921801405e-08
9.48119557194e-07
2.12244292705e-08
8.16554295899e-07
-3.7746578912e-08
6.90792930421e-07
-7.75109373677e-08
5.74786627867e-07
-9.19362159511e-08
4.65163451577e-07
-5.97997599085e-08
3.88404624748e-07
3.47182255384e-07
1.57744986327e-08
-1.67077196255e-07
2.23134202796e-08
-1.87953076189e-07
1.12110284936e-08
-1.66265657284e-07
2.06099468628e-08
-1.45448054036e-07
4.28704238053e-08
-1.96626870282e-07
4.57201907765e-08
-2.10513915715e-07
5.44235810075e-08
-2.27730334756e-07
6.25434286827e-08
-2.35615634098e-07
7.51711957059e-08
-2.22006718434e-07
6.99358225822e-08
-2.24171717672e-07
9.05309562482e-08
-2.02974188918e-07
1.17960744655e-07
-2.23364877095e-07
1.49771030081e-07
-2.53046066545e-07
1.91589669254e-07
-3.19687356848e-07
2.24460125644e-07
-3.54867605166e-07
2.47501317895e-07
-3.49693453098e-07
2.87983304225e-07
-3.74528596969e-07
3.35307215417e-07
-4.1253148963e-07
3.81358236588e-07
-4.40109021035e-07
4.2739310316e-07
-4.56107963267e-07
4.7367074031e-07
-4.65671510543e-07
5.18984879616e-07
-4.70251521034e-07
5.61282816657e-07
-4.74129462838e-07
6.06921686904e-07
-4.786958381e-07
6.56474226312e-07
-4.75428327948e-07
7.02187964242e-07
-4.84505737403e-07
7.52406076695e-07
-4.94034624491e-07
8.009485139e-07
-4.99558601192e-07
8.66102095446e-07
-5.19138940976e-07
9.33031109708e-07
-5.33399773762e-07
1.00441400524e-06
-5.50109764857e-07
1.07655213085e-06
-5.7453760308e-07
1.15237082257e-06
-6.02216096381e-07
1.22041338847e-06
-6.09672349639e-07
1.28515831976e-06
-6.06153552256e-07
1.34980337791e-06
-5.9735113375e-07
1.41408306361e-06
-5.84833983594e-07
1.47712686331e-06
-5.69189175026e-07
1.53841748168e-06
-5.50381462448e-07
1.59763405976e-06
-5.27800134655e-07
1.65433856707e-06
-5.01116769177e-07
1.70791208075e-06
-4.70913687253e-07
1.75765558023e-06
-4.38286782675e-07
1.80290631011e-06
-4.04141833838e-07
1.84308921009e-06
-3.68877392671e-07
1.87770837585e-06
-3.32455784976e-07
1.90637592557e-06
-2.94700187977e-07
1.92892364773e-06
-2.55632318889e-07
1.94548559546e-06
-2.15574797801e-07
1.95644844582e-06
-1.74862703203e-07
1.96220319505e-06
-1.33423359002e-07
1.96265094976e-06
-9.01569563031e-08
1.95627890494e-06
-4.23964545721e-08
1.93920438892e-06
1.49704339033e-08
1.90530852248e-06
8.84930985314e-08
1.84930322671e-06
1.81222908658e-07
1.77674827014e-06
2.80585996595e-07
1.70232754582e-06
3.72111578186e-07
1.62299285977e-06
4.76898820739e-07
1.50670163258e-06
6.33165159672e-07
1.38151863049e-06
7.54753014631e-07
1.29640345775e-06
8.06778277925e-07
1.24460405052e-06
8.6960077944e-07
1.21571870633e-06
9.54067178036e-07
1.20496310839e-06
1.06359343342e-06
1.14994025246e-06
1.20390617764e-06
8.78682415201e-07
1.34002237154e-06
5.86792167135e-07
1.17539277376e-06
5.28573413381e-07
9.08681000328e-07
5.08125982303e-07
8.9851192614e-07
4.20152111997e-07
1.02654000045e-06
2.70901753396e-07
1.14541125986e-06
1.14676778023e-07
1.16594411218e-06
-1.07671889753e-08
1.07356885048e-06
-7.84877136719e-08
8.84246632927e-07
-1.45617042849e-07
7.57836545823e-07
-1.78520847076e-07
6.07450100225e-07
-1.57804554582e-07
4.44101878361e-07
-9.3186551034e-08
3.24029658455e-07
2.5371376817e-07
1.1681182483e-08
-1.78942148666e-07
1.57781147797e-08
-1.9218002956e-07
7.74788834747e-09
-1.58325916239e-07