/*--------------------------------*- C++ -*----------------------------------*\
| =========                 |                                                 |
| \\      /  F ield         | OpenFOAM: The Open Source CFD Toolbox           |
|  \\    /   O peration     | Version:  v1806                                 |
|   \\  /    A nd           | Web:      www.OpenFOAM.com                      |
|    \\/     M anipulation  |                                                 |
\*---------------------------------------------------------------------------*/
FoamFile
{
    version     2.0;
    format      ascii;
    class       volScalarField;
    location    "280";
    object      alpha;
}
// * * * * * * * * * * * * * * * * * * * * * * * * * * * * * * * * * * * * * //

dimensions      [0 0 -1 0 0 0 0];


internalField   nonuniform List<scalar> 
6400
(
0.840518370785
1.2746961043
1.96509641212
2.28989555005
2.61274113671
2.97090190766
3.55138830877
4.22836217086
4.39440164029
4.75853451453
5.88199106017
6.42643604109
6.83751764992
7.37738486847
8.17127240155
8.98876235874
9.61125745113
10.208289336
10.7357856058
10.9667086349
10.9015473662
10.8723263359
11.1256743377
11.7128564072
12.3979940426
12.9752320458
13.3618143883
13.7002215207
14.1234844199
14.6432134289
15.2062103022
15.5517474738
15.6146761288
15.5665253884
15.4195653907
15.0772898752
14.9231391014
15.1784855073
14.9619427374
14.417172877
14.320483591
14.8476436235
15.4194187733
15.6921273866
15.7511011055
15.6597584596
15.4945988648
15.3200485373
15.1431375114
14.9750090953
14.6618782846
13.81713442
12.8985899098
11.8484785514
11.2413812493
11.3046370063
10.8776550468
9.38276758485
7.66948188735
6.88844985481
5.87759913798
4.7926011364
3.70063381514
5.36310412377
9.4608594031
14.4308639969
17.4471102893
17.1775833131
15.1928501659
13.5250257435
12.5812675411
12.6689296372
13.0960587155
12.907660291
14.8265214885
14.2276254361
16.0263561531
9.93176235314
12.8807186989
4.81933833859
3.0907765685
2.40584514563
2.94929881794
4.148693382
3.84037111959
3.47442493316
3.50387406609
3.79307476844
4.2446385355
4.84185800742
5.60245111829
6.36061193949
7.00572567582
7.62110262303
8.23504708294
8.955893719
9.70965633115
10.4695731228
11.5078858886
11.5243776077
11.1878872098
11.0645267982
11.1995224228
11.7273493568
12.662574553
13.1187295655
13.4462487287
13.8554049627
14.3129748449
14.7953456841
15.3007571096
15.8321868281
15.8993216667
15.8686648648
15.8041454973
15.2506402541
15.2248227404
15.4912967679
15.1359680605
14.2882660457
14.1245833543
16.1275317922
17.4279240016
17.5400090875
17.4874356589
17.1654940939
16.6869805885
16.2840497602
15.6813630598
15.1481859284
15.0040121645
15.3746835284
14.9829474954
12.0715179859
11.7284633184
11.2345610216
9.49588503996
8.09474290217
6.90392603529
5.7504651556
4.81415022267
5.18205185114
3.97823211985
5.5913846402
9.52642454924
15.3611650197
19.1066808751
17.9347134182
15.783529228
13.8427806975
13.0570249116
13.3593613301
14.3293026824
13.7060141784
13.4886853271
12.9100217248
11.6630762319
9.79104983675
8.207960204
4.29629200802
3.06911721071
2.61430952945
3.10312810025
3.20878786468
3.5013558526
3.81510314845
3.7386941524
3.73367455822
4.16929027092
4.82580951148
5.57924024833
6.35663271079
7.05565986627
7.68469083454
8.16054842266
8.80438926842
11.8966090417
14.0144494287
14.2471777368
13.2535731283
11.03561779
10.5542631683
11.3982331188
11.9886930196
12.4766251162
13.0698301871
13.579972894
13.9947228856
14.4299836929
14.9336935729
15.3741277755
16.0732273854
16.1886366453
15.7192925135
16.3521157936
15.8204387359
15.0699383753
15.8176144639
15.4230997317
14.5446275902
14.3661731995
14.9403425174
15.5549221249
15.8534366098
15.9358348021
15.888193959
15.7462246939
15.5306919262
15.2425553873
14.9078123255
14.5309495534
14.0155831254
13.266282646
12.6920998055
12.2743976865
10.8752668283
9.40569469654
8.15778933557
7.03720430786
6.0401142666
5.28456607265
4.57147822637
4.15071243063
6.43996859232
11.5458300648
16.2281915441
18.546676929
18.6824262184
17.093265066
15.3907287506
14.6329729396
14.4642271144
13.7624600257
13.1237045315
13.0266663913
12.6114512205
11.5713158683
9.92072069144
7.48891583492
7.64786936318
2.88041422999
5.33669797573
3.23529938416
3.21377303809
3.84255389697
11.7130396688
10.031719854
4.51217311192
4.18246622875
4.8502455471
5.60352743092
6.38813900198
7.06430335776
7.77739934851
9.72999669458
12.0253825759
13.6699213736
13.8046555801
12.0750269795
10.5020911999
10.538794957
10.8284353259
11.2425148415
11.8737015971
12.5706515405
13.2291421941
13.7904620351
14.1589144578
14.663548121
15.0170873566
15.7660701849
16.0124531172
16.7215331554
16.395599493
15.5194180081
16.0362694791
15.4100911546
14.7435816906
14.6587875847
14.6295683176
14.7317098567
15.1193954586
15.5717534911
15.8635129307
15.9829636729
15.9690145503
15.8519627461
15.6532232912
15.3827021833
15.051675619
14.6548832197
14.1584992258
13.5475298507
12.8816614437
12.0470472843
10.8785173023
9.55792350422
8.34216358399
7.30265626389
6.45808208142
5.82762093354
5.38504201597
5.44319663244
7.15442853919
10.8009988269
16.5332966396
20.1205117298
20.3356243095
18.6773945215
16.3287443529
14.6965433522
13.8564648576
13.954901025
15.2506001314
15.1198799321
13.7451876818
13.5422508973
16.7671859727
13.1971394741
11.237482805
5.31816557136
7.33106867085
3.7325899362
4.05257944887
6.19160085417
11.5930904075
7.74113760671
4.69529839172
4.67313691213
5.07286572883
5.75662657239
6.57084232576
8.03413818206
10.6472727126
11.6156236384
11.7905986612
11.3908868252
10.5794370267
10.1615499875
10.5655639505
10.6854091086
10.8046102509
11.3086901247
11.9815026186
12.7192375381
13.4382991154
13.9239656401
14.5500611746
14.7769657752
15.5789870115
15.7449734277
17.1689202978
16.5711584003
15.7295466525
15.9129378167
15.042461411
14.7524270976
14.7036553748
14.7519902577
14.8321816469
14.9834237026
15.2819362216
15.6374730201
15.9098357709
16.0501207699
16.0628269412
15.9687501909
15.789388966
15.5393468534
15.2254284371
14.8405383
14.3682263186
13.7984067675
13.1130329912
12.2129812867
11.0490580358
9.7943836479
8.66643831639
7.76115907625
7.09499947415
6.66513773925
6.51919378926
6.94555293189
7.89262969256
10.730337471
15.9752148521
20.1680351418
21.5781813251
20.400394977
17.6419301135
15.1693458162
14.7976959835
16.9335574862
17.732404026
16.6411055647
15.6733024757
18.2453559173
21.2098969265
16.5670937693
15.6877833375
9.65889580785
8.77605463501
4.62599081554
5.39861175779
11.8521621919
11.2704829386
5.64504765906
5.16366470208
5.2264496176
5.40397770535
6.0678588351
9.00967346065
12.4909041398
12.787302718
12.2071614592
10.7873392851
9.79188548356
9.66750104604
10.5375764766
10.5776127545
10.4717717312
10.8458172403
11.4585965587
12.2004456657
12.8328309877
13.5766632062
14.5454096483
14.6131216266
15.7022238317
15.5300511843
17.3848509756
16.7409341443
17.8224526693
16.2740737053
14.8678243153
14.535775357
14.6233107626
14.7701708703
14.9049865952
15.0321859311
15.2050434825
15.4622405473
15.7583799237
16.0078190916
16.1548491851
16.1861994581
16.1121421585
15.9542686267
15.7309357122
15.4472489201
15.0939903345
14.6539444642
14.1019757246
13.3910969334
12.4594430302
11.3342707499
10.186771385
9.1907586155
8.41732012705
7.90239540897
7.65340337491
7.87176893912
9.02648866962
8.38930861111
12.1314371329
17.6455718016
21.3559834587
22.7732663694
21.8402188065
18.4995836522
16.3367211937
18.057133361
20.1809086307
19.6095740144
18.5599863795
18.5855575962
23.0432740767
24.5847086464
19.629146885
19.4265396067
11.7235326135
8.37256485595
5.62994727091
5.32571502487
11.7196820938
7.73215626299
5.57998080857
5.6602147136
5.73278954469
6.41455682983
6.74886264913
12.4363435335
12.9251152276
12.8234529666
11.0486201896
9.36844040533
9.17680930278
10.573601885
10.5800028084
10.1499988679
10.477785603
10.9570675723
11.5681827918
12.3064979385
13.263424523
14.2418146391
14.5128485948
16.0307032451
15.6209064227
17.6847664332
16.8409713697
18.0906478245
16.8725417839
15.9364836642
14.4707493112
14.3613070678
14.6419939691
14.8951813933
15.0694179682
15.2240066962
15.4150090374
15.6556632289
15.9186351635
16.1489872065
16.2968389174
16.3403389065
16.2849937309
16.153483362
15.9656988611
15.7238910135
15.4132849255
15.007748581
14.4682983281
13.7471902718
12.8247750172
11.775008938
10.7563851152
9.8950810953
9.22466315882
8.7528665748
8.61546048049
8.91836156561
9.14402983938
9.62388456129
13.261769169
20.0159393534
22.622180646
23.0581607441
22.007713185
19.7688709081
19.5349111925
22.0305698644
22.4227907611
21.5301526709
20.8921435325
22.7710614881
25.4276662561
26.8322039523
22.2852931981
21.1513486946
11.3108751372
7.71399201621
6.67480814156
11.7267995849
11.6937171178
6.2486730404
6.13171760091
6.21762253033
6.39935939862
6.91712717034
12.2575621272
13.1243244439
13.0252932494
12.3253914292
9.49706410459
8.7101023696
10.4239690686
10.8007650788
10.0487604056
9.9842454348
10.5307269108
11.1904700591
11.8010001722
12.6217818926
13.3267184994
14.7427412944
14.6454846725
15.9612189145
17.5961922363
17.7269327995
16.3299153729
17.2693295531
17.137578489
14.8056618336
14.36563799
14.4706986538
14.7481089617
15.0263271755
15.2355911444
15.416326717
15.6234888734
15.8638161622
16.1114076685
16.3277274472
16.4733250912
16.5258466618
16.4907063645
16.3920312784
16.2489929537
16.058958174
15.7994568882
15.4336060066
14.9144777829
14.2076107043
13.3329532408
12.3880207476
11.4965955509
10.7105252881
10.0063515285
9.46497963089
9.36484576621
9.72381193905
10.3173986826
11.2268184317
12.1424144871
19.9416692755
24.2190319774
24.3801202669
23.8418124372
22.9690686573
23.8543513894
25.1863586837
24.4584081309
23.7117164249
23.8469781534
26.0544994411
26.6455125913
27.1675275659
24.2961719083
22.1670357815
10.3977633287
7.34432364572
7.31399990489
12.6305573998
10.3580783663
6.58643335491
6.72706129064
6.92461272457
8.49676722859
6.88240778437
13.0308517077
13.5556281672
13.0083467185
10.7705347881
8.81440399501
8.83201108921
10.5502108996
10.3699062662
9.85604471125
10.0124596906
10.5167074971
11.3158282658
12.0729592388
13.4410905933
14.6530827238
14.5827713876
16.8876590857
15.6054222227
17.9276693405
16.5453062489
18.246280368
16.1236857539
15.2177620248
14.6125415335
14.4909816705
14.6369900345
14.884709081
15.1613284554
15.4028461815
15.6170895849
15.8424453035
16.087642616
16.3311566462
16.5400184911
16.682205319
16.7430830166
16.7324620462
16.6742247663
16.5841923701
16.4546535144
16.2550216323
15.9382709514
15.45521642
14.7907840043
13.9960359315
13.1673722667
12.3611217618
11.5193035011
10.5848877276
9.87558096722
9.968572688
10.8678270278
11.9779018267
12.929980995
13.6694828092
16.5173361315
24.2991420946
26.0338456336
26.1953968899
26.968045624
28.0893714134
27.7331651605
26.659657535
26.3633279178
27.2241005652
28.2805332492
28.0319274512
27.3607324611
26.315944484
24.9325122136
9.58496855385
7.53670698836
8.50539434176
12.624542158
7.8330130184
7.59472242003
7.32280302599
7.57073173752
11.2390862324
9.75744591461
13.8582319793
13.7532777253
12.9845255655
9.77008379177
8.70433944495
10.5908739731
10.8202057133
10.0194849261
9.79646976388
10.1950181142
10.6413204853
11.3815855368
11.9892124587
13.6252312422
16.0296433214
14.4192184343
16.782926258
17.910515082
18.172982873
18.4896397226
16.8625483064
16.7005570792
14.7028919587
14.4560840648
14.6284832597
14.814252723
15.0380642835
15.3022256898
15.5675380398
15.821822903
16.0759278483
16.3321988618
16.5763702412
16.7825066545
16.9242010191
16.9941355082
17.0114008137
17.0013979558
16.9731141064
16.9121448022
16.7816315564
16.5267817882
16.0998678679
15.5066398175
14.8165678735
14.091183302
13.2583741804
12.1002274497
10.7315433411
10.0637313688
10.8512563105
12.5113015084
14.0014193307
15.1109827451
15.8787685022
15.7683904545
16.7486177028
27.8232490426
30.7021889886
31.9001654493
31.8486754597
30.4160333499
29.3943861628
29.5096612684
30.4622582928
30.624356055
30.2520696871
29.8779743043
30.1671609022
30.3245948426
9.24307952951
8.18372998117
12.1829354439
12.5737656586
7.57363850787
8.28161772697
7.89003053438
8.59313160744
10.4465895171
13.5034668722
14.5616716815
13.905016565
13.0827616353
9.51142279787
8.78733497562
11.1869609548
10.828571663
9.90997959567
9.80792206864
10.3463885896
11.0964290002
11.7173723167
12.1822021654
13.1802034649
16.1690013227
17.3112182294
16.0542089533
18.076860606
16.2939690956
18.5362617655
18.5436703928
16.5360659225
14.5716444551
14.5462403238
14.7999809765
15.0016855857
15.2125344896
15.4620793502
15.7334797036
16.0255247496
16.3214589179
16.5982376073
16.8476304671
17.0543812013
17.1984895313
17.2814775229
17.331241866
17.3742361128
17.4134539386
17.4282072936
17.3763809067
17.1979771183
16.8511398992
16.3607567843
15.7907003664
15.099789482
13.949125694
12.1034774352
10.5796920346
10.6128696747
12.5592066909
14.9466971562
16.6782138121
17.851137236
18.4057899018
18.1788473053
17.4509490879
19.0701238279
32.4046470844
37.6657962597
36.4418121394
34.0284119004
33.0165961119
33.2120084654
33.701150107
33.7819832981
33.9105498056
34.3272261688
34.8792969849
35.5290419981
9.30375114076
8.9154700295
13.7432340677
13.0328433637
10.8133074447
9.41130233112
8.64794276855
10.1209218849
9.60319515662
14.4323856076
15.0701652007
14.1106083382
12.9547924084
9.89844644871
9.55522534938
11.6954678133
10.7436496776
9.9155954458
9.91524673433
10.3851273454
11.2879295227
12.1594104053
14.0605335636
13.3256326745
15.5594258838
17.7002611396
15.7272970261
18.3930607813
18.9136761238
17.184236373
17.1408717356
15.175766179
14.8955321856
14.869409185
15.0217712973
15.2168759002
15.4196558015
15.6559307838
15.9102063246
16.215522718
16.5654860315
16.8897155773
17.1507111011
17.3562480107
17.5058509396
17.6078145874
17.6947241266
17.7927029379
17.9006530488
17.9938516035
18.0257295358
17.9389306929
17.7062267034
17.3537084327
16.8811242289
15.9726565306
13.9803581296
11.6130886379
10.6707494033
12.0574803761
15.4376790345
18.281129738
20.1101383124
21.4909796887
22.0520268802
21.6365694128
20.5998256037
19.176297422
28.6965540927
38.8483059782
41.6654953755
38.8947790429
37.8053945562
37.7713693901
37.9522450896
37.9354979912
38.6421282114
39.3646958839
39.3012122907
39.5214844901
9.70914161538
9.46453438677
13.3444235624
13.3403589979
13.2823842577
10.3411210304
9.54122678524
13.2013801343
9.70736217521
15.2715806164
15.4535451008
14.3316050451
12.8466997976
10.3306413575
12.7054505711
12.7937162981
10.7952109621
10.0591867062
10.1534701062
10.5412210486
11.2529908729
12.106368531
15.5810943
16.5706042953
14.8210848723
17.800172584
18.5749246123
17.818496127
18.8858531324
18.8911269324
17.6779772774
15.1267070479
15.0829326323
15.1889839028
15.2926442118
15.4512347387
15.6277777353
15.8786951151
16.1496642608
16.4306398107
16.7936101193
17.1777168584
17.4827456799
17.6959531463
17.8502878126
17.975765638
18.1045387467
18.2565282066
18.4270632128
18.5899953578
18.7015995656
18.72367381
18.6493299514
18.4565856558
17.9528420278
16.3160180394
13.2043871879
10.9224164192
11.404209433
15.0641666698
19.7023323638
22.6072066565
24.3925932964
26.3194287309
26.4254656459
25.1893068346
23.5229224178
21.5706001925
25.2617362851
36.2901613965
43.4366404809
44.5927662836
42.4751621642
42.32033835
42.2723416018
42.7153834058
43.7892197112
44.5034061149
44.5753808084
44.8508671058
10.1719974215
10.0312401261
9.7405926856
13.5581896368
13.6680316826
10.8888080906
10.363494093
14.0375644481
10.1422316617
16.1068900958
15.7801156264
14.5608885805
12.8658595708
10.5050037132
13.902851364
13.1530599111
11.0396737042
10.3608143566
10.4646433117
10.8733432052
11.3436033375
12.0188878158
16.1898072309
17.5778184051
15.0760403543
17.9114080369
19.1038290243
16.8686086203
18.5013865933
18.2018994448
15.6623745905
15.4824735085
15.5134544372
15.5418860987
15.582504202
15.7453306792
15.9040966129
16.0813653975
16.3782838542
16.7051984457
17.0608363421
17.4644128669
17.8194837354
18.0663705583
18.2380613681
18.3917595784
18.5632458129
18.760127259
18.9795516153
19.1937280062
19.3573167493
19.5045627903
19.6425122662
19.6211015831
18.7550051461
15.497713034
11.6001275405
11.0010879033
14.726400955
21.019225455
26.0481973026
27.1208874118
25.1858765346
22.9192152264
19.6466445927
17.6418163488
17.2926159178
16.9391453092
15.5587381638
16.9643220115
42.3635008908
46.4905802566
47.0558487993
44.3084276306
44.0393467661
46.9971924512
48.8857837544
49.8444323874
51.0908163814
51.8919780335
10.8039058638
10.8649178928
14.1380860208
14.0574798355
13.9446064919
11.3293199838
11.3076120881
14.6860010919
11.0012386273
16.7978829466
16.0696910389
14.7967282466
12.9456157271
10.7871157089
14.0840250255
13.1180020536
11.2904834865
10.7053515007
10.7814770831
11.1411822262
11.5821133678
12.105968318
15.3644705929
18.3591832743
18.4480144136
17.006586123
19.2885716584
19.8937280086
16.5529131917
15.763482863
15.5170490121
15.6628628272
15.7846232113
15.8530781436
15.94037924
16.0392539964
16.1892334562
16.385915331
16.6109604713
16.965699614
17.3692716511
17.7863641908
18.1665882264
18.4529011103
18.6670483198
18.8583712338
19.0686217817
19.3157241795
19.566971352
19.7621350727
19.9248030957
20.2038247408
20.5880333395
20.6449203603
18.6150405802
13.260687089
11.4728737551
14.5793942627
20.056472315
24.7136662784
24.0808427847
12.224630369
0.0573568577477
9.92836351462e-07
7.76599539791e-07
1.8854051004e-06
1.27091210371e-05
5.95288133788e-05
0.00021989973377
0.00139742844324
0.00109415527621
0.0949239190232
31.4902527962
50.4306672866
48.5221079575
48.6603926065
52.7294769645
56.3157636168
58.926145904
59.5866929824
11.3702847851
11.5510064945
15.6665263002
14.5152098117
13.7596908718
11.7971795237
12.2504519608
15.1617356689
15.1560972
17.6184285156
16.3879458314
15.0996316511
13.0687383999
11.2209182368
14.2695481782
13.0391908809
11.5569111843
11.06368622
11.082456828
11.3729397881
11.801897627
12.4048807771
14.6341059509
18.5961001262
19.8507640889
16.3183080075
18.846642343
19.7923396945
19.0807713519
16.4243205619
15.6534370912
15.8651942735
16.1018565772
16.2561159995
16.2303342869
16.3496220015
16.4671630067
16.6771335289
16.9111622726
17.2425828255
17.6855555113
18.145454816
18.5328095536
18.8328261855
19.1085471488
19.4190789144
19.7265043006
19.9954761188
20.1413578421
20.2426876302
20.4155648662
20.7344628033
21.3742194533
21.2889936609
16.0009130004
11.0950018689
11.3301325768
11.0970228252
1.29254760953
0.018817123851
1.52885154853e-05
2.55103532093e-08
1.79823650527e-09
0
0
0
0
0
0
0
0
2.50104031639e-13
8.43549121238e-11
1.26176968406e-08
7.32038363634e-06
0.0102247793942
50.701924339
62.4835439092
56.3634629026
64.1330938774
11.8163465658
12.0225552009
17.9225859169
14.8160055313
13.2461732363
12.2218432265
12.8985468675
14.9548360867
16.7168586363
18.5673654518
16.8442543819
15.5134431298
13.4146684957
11.9774540322
14.6660348344
13.1292595698
11.9213063924
11.4835697289
11.4231645505
11.6381343419
12.0039908954
12.5734134402
14.3083060566
18.4490935582
20.814330154
19.8218222196
18.1601528796
19.104440124
18.5348496901
15.9049510467
16.1126536803
16.3804849004
16.7023519502
16.7126509986
16.6994023439
16.666706701
16.8199449656
16.972544517
17.22851165
17.5613310454
17.9934679185
18.4992641753
18.9913191232
19.3190414243
19.6471302356
20.0802558687
20.5129703443
20.7841053453
20.8406838415
20.87705182
20.9909423978
21.1675014965
21.2437842011
20.1264954904
12.3519847531
5.47901886804
0.00524065162211
0.000211910307475
2.8893332504e-06
7.92333701e-09
0
0
0
0
0
0
0
0
0
0
0
0
0
3.22259016199e-12
3.20234416356e-11
7.02023225469e-10
3.40401354432e-08
0.000189032683071
77.7203616366
0.561583688397
12.1506538633
12.3431064473
20.066287925
15.007064833
13.0570966363
12.6293528683
13.6836404831
13.8879556531
17.6665337716
19.2322124289
17.2946343818
15.9429597137
13.9795269481
14.0732411491
15.2173930121
13.4746471304
12.4965221355
12.1234829399
11.8727194518
11.9939533146
12.2617189372
12.7635851447
14.2139299193
18.3113819268
21.1872009698
21.4904331566
17.257228563
17.4675686677
16.4511758947
15.9983278774
16.3263497178
16.9008970969
17.1856219003
17.1765515387
17.1568378826
17.3040336889
17.2101967579
17.3362240835
17.5581949402
17.8600594308
18.3842163464
18.9454688412
19.4584526408
19.7398729963
20.1441799275
21.8350183525
24.2075683624
24.9125288341
23.2601178042
22.9193595355
22.9447371045
23.0037739692
22.2399605168
19.640563112
15.9127611466
5.71741544978e-10
5.77751914063e-07
9.42731905328e-09
0
0
0
0
0
0
0
0
0
0
0
0
0
0
0
0
0
0
4.97880076728e-11
3.37156164493e-10
6.21743920624e-08
59.4286459251
12.4694683766
12.6319450691
19.7620223178
14.0368635636
13.0311359543
12.9688614101
14.5744406611
13.5873791699
18.4450058842
19.870859635
17.7389254801
16.3530044055
14.3932676569
16.5298520238
16.0249940823
14.0303279038
13.1723365905
13.2303145343
12.5506067461
12.5235805183
12.6241730247
12.9726661134
14.2815431596
18.1568406973
21.0262493993
22.6079564869
20.7350118711
19.3351812239
18.0955300797
16.3251854988
16.6466864256
17.6946216849
17.4941684363
17.5998970727
18.0721991296
17.7951588518
17.7101348112
17.8158748262
18.0311631839
18.3101510995
18.6833445347
19.3015986954
20.0148539304
21.1037312631
22.6950924568
24.9872913661
26.7166812646
26.6018029028
26.6527013403
27.7362173743
29.3796811989
32.093064178
31.2681451222
25.7276422561
0.0461354927976
0.000626608420962
0
0
0
0
0
0
0
0
0
0
0
0
0
0
0
0
0
0
0
0
0
0
1.53196896987e-10
11.1504916352
12.8883366851
13.037155455
19.231000634
13.3648325362
13.1887297709
13.2290561186
15.310083064
13.8789815667
19.0697469593
20.4950936722
18.1907039493
16.7859470971
14.7507092993
17.1455166762
16.7599900626
14.6611597061
13.829055181
14.0430553164
13.381691781
13.2843861475
13.2141400831
13.1908880397
14.5229913982
18.121600745
20.718776754
22.9600727291
21.9812311618
19.5812129178
16.6717434022
16.8621751615
17.2855740869
18.283365823
18.6629551263
18.838282485
18.8775756389
18.3549388957
18.2653372553
18.3984815419
18.5986114792
18.8908110265
19.2376706641
19.9300512228
21.1618824485
23.3426641134
24.7937091755
25.0728747898
26.0229482176
26.9065875748
30.200449496
34.0326282375
39.615867154
43.8467472034
37.5275913096
0.0802332624314
0.000164562553051
3.98437596299e-06
1.33741976547e-08
0
0
0
0
0
0
0
0
0
0
0
0
0
0
0
0
0
0
0
0
0
2.57452537839e-11
3.40633222741e-11
13.571376206
13.7242396311
18.6443052249
13.4258800513
13.6714026555
13.6008107497
15.027166263
14.5497046125
19.449620946
21.0748361865
18.6830376993
17.2791106414
15.2566033626
17.7249263401
17.4420408289
15.4261192573
14.5732459159
14.8491924168
14.1756911138
14.198645899
14.1304191308
13.5903202608
14.9798100412
18.251843772
20.5674737544
23.0544319457
22.4399109012
19.964864733
16.9266313515
17.0034349129
18.070035311
18.0971012357
18.2616103287
18.7577091814
19.8267711706
19.3394702806
19.1561249482
19.0353213229
19.1739645108
19.5669228115
20.0397256925
20.8128747175
23.3741758541
25.8161088968
25.8657561254
26.0314606064
27.6208506961
32.4243246948
38.6610771092
43.5805231632
47.5328648155
16.6302599931
0.000688199047774
2.25637881943e-07
1.41575670279e-09
2.86962410324e-09
4.40667181715e-10
0
0
0
0
0
0
0
0
0
0
0
0
0
0
0
0
0
0
0
0
0
1.90290726476e-12
8.64054274178e-12
14.6508022693
14.7404920758
18.658473562
14.2470311299
14.8289614457
14.3582796504
15.048926863
15.9675749098
19.2297322102
21.4455800432
19.2495663199
17.8564070131
15.8879310163
18.3872856963
18.1571706647
16.3824115868
15.5426954117
15.8397099866
14.9704684898
15.2273842965
15.4207121114
14.2754640622
15.4614832894
18.5382663222
20.5934120132
22.8383942201
22.6219691156
20.359660331
19.4816785703
17.9116820028
18.538099973
19.2923551705
20.2895401076
19.2334966415
19.6458261733
20.4382474638
20.0696847039
20.1414174617
20.0837632128
20.2800046539
20.8704488839
23.1863738589
26.9030718627
27.7918800306
27.2718200677
28.8177887694
34.8928327452
43.3215572997
49.0105284943
45.9550927592
0.251957415885
2.35236602743e-06
1.60956638215e-08
0
0
0
0
0
0
0
0
0
0
0
0
0
0
0
0
0
0
0
0
0
0
0
0
0
0
0
16.2200774207
15.9957687816
19.1965346265
16.2058206656
16.8908871789
15.5444216627
15.8283961162
18.087933295
19.2035684836
21.9330701603
19.9555862414
18.5325955572
16.6262936813
19.0842988782
18.8663588539
17.4559612415
17.0942673447
17.1834142626
15.8501995724
16.3854639877
17.0628889071
15.3530322006
15.761724641
18.8854458762
20.7951170144
22.6012595327
22.7787260375
20.3220104323
20.6634124998
19.6036122052
19.7483171904
18.5121664926
19.3550936988
20.7566744317
20.5419913074
20.8680647797
20.9989134685
21.0198765922
21.2344016818
21.391604213
22.9055965524
27.3454736285
30.0384394235
30.0823991072
30.758896112
35.604719919
44.6683391986
50.5423564144
36.4898558866
0.00224851163006
3.93087291456e-06
1.79989658766e-08
0
0
0
0
0
0
0
0
0
0
0
0
0
0
0
0
0
0
0
0
0
0
0
0
0
0
0
0
17.9176245113
17.1633366154
19.8307701087
18.9338114248
18.5834907419
16.9740672809
16.7106960069
19.1722738937
17.8968335112
22.2706851708
20.7871909587
19.3007521896
17.4648713473
19.7984702835
19.5226200207
18.3337615575
19.4379125448
18.8285208175
16.8644246285
17.7276868573
18.4350693051
16.7863859793
15.6491339043
18.7813847076
20.9092702849
22.3915968818
22.7884267872
20.3123061303
20.9093685825
20.9080922205
20.9506761053
19.1867110826
19.7378347633
20.2609659584
21.4595581083
22.0790465796
22.1947976478
22.1164990783
22.2204727287
23.1819154614
27.2962142772
31.6806100692
33.354124526
33.9994724744
36.753942693
43.1926495071
46.000320076
26.6584177788
0.0060543123397
8.76489445614e-06
3.06963512809e-08
0
0
0
0
0
0
0
0
0
0
0
0
0
0
0
0
0
0
0
0
0
0
0
0
0
0
0
0
0
18.6706735061
17.9814625903
20.1995847151
19.8915791142
19.5612447322
18.3613194762
17.8337919582
20.5296781258
18.8403919622
22.7416673326
21.6249055073
20.1215788635
18.3962733674
20.5499802131
20.2069085077
19.0754006487
20.3358831232
19.8436391168
17.8758294995
19.0928230061
19.064004376
17.4310150357
16.7706083154
16.9411437327
20.3743024457
21.8335249311
22.5192032283
20.2413557243
20.8947177676
21.3437552131
21.8722057737
21.2966430235
19.6071861263
20.125005095
21.5719151117
22.8830886302
23.5061157725
23.7585312225
23.8538321069
27.1915637233
32.3814960707
35.7741287658
36.9604643527
38.3096537867
41.8775893182
40.5488290176
24.3663751775
0.031984051633
2.88112430834e-05
8.20559118869e-08
0
0
0
0
0
0
0
0
0
0
0
0
0
0
0
0
0
0
0
0
0
0
0
0
0
0
0
0
0
0
18.6343964592
18.5292186332
20.4393955564
20.0118476665
20.1959845817
19.4560800051
18.8288938836
21.8595561965
20.5610681516
23.3754078458
22.5210015496
20.9790005486
19.4126711464
21.3527845236
20.9699427387
19.9766084468
21.0601573618
20.7337030436
18.9807699633
20.0562084351
18.3236311794
18.0780897477
17.7582723669
18.113939576
19.0285116702
19.8637059244
21.6160505097
20.09480218
20.2166730468
21.2738410835
22.2395271045
22.6346901208
21.2216181714
20.8230330958
21.4678902877
22.6996212992
24.1867910872
25.456926695
26.9584276537
32.1051570132
36.8439363141
39.2891396159
39.7088118915
40.0482551926
35.7416098925
27.0997705727
0.21692996963
0.000100077458012
2.24182867768e-07
0
0
0
0
0
0
0
0
0
0
0
0
0
0
0
0
0
0
0
0
0
0
0
0
0
0
0
0
0
0
0
18.8344263396
18.9330702782
20.6867821516
18.771761629
20.4409185052
20.0417254271
19.5029147114
22.382711574
21.3345313322
24.0597769796
23.4790178883
21.8516461722
20.5270413075
22.1947337661
21.7835273754
21.0223919172
21.8375617152
21.7369328411
20.2051123589
21.405641715
19.638003677
19.8367860959
18.9798308855
19.3464042051
21.0355656144
21.6200928373
21.2174350294
19.9032253468
19.5630011035
21.1948627537
22.2163947191
22.7959481481
22.8273018991
21.8678753076
23.1607467748
23.4196301422
24.7604459161
27.1191604428
30.9465367906
36.721620621
40.5842047462
41.7736828237
39.5973452853
32.8851629354
30.4686357575
8.20908141223
0.000839776182936
1.91179157304e-06
0
0
0
0
0
0
0
0
0
0
0
0
0
0
0
0
0
0
0
0
0
0
0
0
0
0
0
0
0
0
0
0
19.5387890497
19.6123497158
20.9206860855
19.160022823
20.6428750715
20.3363849608
19.9866151344
22.4874718534
21.8974134046
24.5583233729
24.4477993183
22.6887795957
21.7356038592
23.036633947
22.5755151218
22.0472180731
22.576367522
22.8373334046
21.4820013702
22.7418787505
21.4204711539
22.0285371501
21.6705491456
20.1134789119
21.5701134853
22.6397441469
22.7049395943
19.776367342
18.8031013481
21.0860239917
22.343030286
22.1343721742
22.2896700168
22.1165115778
23.1908415134
23.8500445285
25.4956006977
28.9011442614
34.9882884143
41.0961885551
43.8169125675
42.5651704789
33.9018137598
31.7448159091
27.3739846892
0.00954831611365
1.33221152594e-05
5.40214735635e-08
0
0
0
0
0
0
0
0
0
0
0
0
0
0
0
0
0
0
0
0
0
0
0
0
0
0
0
0
0
0
0
0
20.4362087801
21.7144571919
21.2890165221
20.1778256144
21.1521315847
20.692398532
20.4589238355
22.5753096019
22.4300560595
24.686546341
25.417106478
23.460460566
22.8145277083
23.6983297303
23.3482910488
22.8002149858
22.6690733706
23.8538267495
22.8691126817
23.9001189223
23.4923588763
23.2693004161
22.9983615646
22.5278342094
21.5661412271
22.4435738169
23.6568790243
18.9542632374
18.2844933372
20.2332925941
22.3471496515
22.8357522465
23.3591970079
22.0945297898
22.9287488267
24.0620109241
25.8648981732
30.5529362829
38.8342828186
45.1174359458
46.4704306381
38.9979491741
33.5415869193
32.9100303846
0.720214378351
9.02985057013e-05
2.3046350574e-07
0
0
0
0
0
0
0
0
0
0
0
0
0
0
0
0
0
0
0
0
0
0
0
0
0
0
0
0
0
0
0
0
0
21.1102594649
22.419539033
21.9751169618
21.0940927903
21.8510096751
21.2572297434
21.008127934
22.7604712823
22.964642654
24.5343723452
26.2977877603
24.2427677124
23.4402172335
24.2474916171
24.236733821
23.4913442871
22.7454734341
24.5676073912
24.3594726168
24.9054739001
24.7912297485
24.8486198928
23.1949439539
23.1515893642
22.592122065
24.2065319248
25.0034092823
21.4207168502
17.8610451815
19.1209844129
21.6953411823
23.1298875172
23.3866190498
22.7158625696
22.482352299
24.0378136068
25.7808580167
31.8451200151
42.362111555
49.1054572484
46.1539547514
34.2771396091
35.0602571478
30.7009973642
0.00309596843198
2.66248862161e-06
8.94747381933e-09
0
0
0
0
0
0
0
0
0
0
0
0
0
0
0
0
0
0
0
0
0
0
0
0
0
0
0
0
0
0
0
0
0
21.6255656996
22.7949491158