/*--------------------------------*- C++ -*----------------------------------*\
| =========                 |                                                 |
| \\      /  F ield         | OpenFOAM: The Open Source CFD Toolbox           |
|  \\    /   O peration     | Version:  v1806                                 |
|   \\  /    A nd           | Web:      www.OpenFOAM.com                      |
|    \\/     M anipulation  |                                                 |
\*---------------------------------------------------------------------------*/
FoamFile
{
    version     2.0;
    format      ascii;
    class       surfaceScalarField;
    location    "319";
    object      phia;
}
// * * * * * * * * * * * * * * * * * * * * * * * * * * * * * * * * * * * * * //

dimensions      [0 3 -1 0 0 0 0];
oriented        oriented;


internalField   nonuniform List<scalar> 
12640
(
1.21435065308e-07
-1.22185225943e-07
2.34787501646e-07
-1.13951131769e-07
3.36865150376e-07
-1.0253555649e-07
4.23919868002e-07
-8.74397364292e-08
4.86449482476e-07
-6.28938952056e-08
5.21840731454e-07
-3.5732557262e-08
5.43669921649e-07
-2.2132824673e-08
5.84797896315e-07
-4.14029195383e-08
6.47851197279e-07
-6.33089974528e-08
7.07368850796e-07
-5.97444028385e-08
7.62338387789e-07
-5.51629047381e-08
8.23475820041e-07
-6.13133670492e-08
8.79550096476e-07
-5.62375393365e-08
9.25328221156e-07
-4.59281003228e-08
9.66638796243e-07
-4.14461197551e-08
1.01607599997e-06
-4.95665493311e-08
1.06809751972e-06
-5.21420268838e-08
1.11114350288e-06
-4.31607446638e-08
1.14256565409e-06
-3.15247780614e-08
1.16909307758e-06
-2.66229617714e-08
1.20887438501e-06
-3.98730345128e-08
1.26551177313e-06
-5.67290738522e-08
1.3279798436e-06
-6.25543001087e-08
1.39030990363e-06
-6.24124203129e-08
1.4487635979e-06
-5.85285883286e-08
1.502652633e-06
-5.39616416758e-08
1.55539068551e-06
-5.28044536643e-08
1.60526338398e-06
-4.99377328425e-08
1.65018514576e-06
-4.49784237443e-08
1.69125705432e-06
-4.11264423213e-08
1.73303095391e-06
-4.18194026385e-08
1.77384637705e-06
-4.08603484256e-08
1.81008987844e-06
-3.62856803244e-08
1.84839091719e-06
-3.83404389602e-08
1.88761453071e-06
-3.92497378001e-08
1.92674610651e-06
-3.91599966536e-08
1.97026323275e-06
-4.35343374468e-08
2.01329251761e-06
-4.3035865511e-08
2.05297772499e-06
-3.96805796789e-08
2.09546189434e-06
-4.24802033649e-08
2.15503679453e-06
-5.95656376841e-08
2.21658849311e-06
-6.15447642896e-08
2.25513832528e-06
-3.85387166801e-08
2.27924227653e-06
-2.40885209809e-08
2.2976461069e-06
-1.83800184151e-08
2.30940041778e-06
-1.17276244615e-08
2.31458908184e-06
-5.15115670331e-09
2.31104884455e-06
3.58374970858e-09
2.30025872407e-06
1.08466954404e-08
2.29481089478e-06
5.50802439163e-09
2.30863685786e-06
-1.37412081439e-08
2.32166970815e-06
-1.29458746216e-08
2.28596510796e-06
3.58008819035e-08
2.22219760087e-06
6.3880284262e-08
2.13636420444e-06
8.59609840875e-08
2.00879975391e-06
1.27696097293e-07
1.89254431509e-06
1.16437462306e-07
1.81177295162e-06
8.10100917529e-08
1.715716757e-06
9.63504322956e-08
1.60447277631e-06
1.11618998723e-07
1.52577190667e-06
7.9172958903e-08
1.42487604399e-06
1.01395093796e-07
1.20996293827e-06
2.15410981497e-07
1.01068451402e-06
1.99589750691e-07
8.74929492263e-07
1.35978646807e-07
7.83008112718e-07
9.20962162046e-08
7.02206474631e-07
8.09945474241e-08
6.22764585918e-07
7.96745205022e-08
5.4167942119e-07
8.13717900128e-08
4.57440159614e-07
8.45637082326e-08
3.75376007579e-07
8.24187864544e-08
3.01474620517e-07
7.42600811929e-08
2.3756565587e-07
6.42490494545e-08
1.78249585359e-07
5.96437476405e-08
1.31534308112e-07
4.70175362289e-08
9.43830678326e-08
3.74599284609e-08
6.97084861282e-08
2.50362925494e-08
4.60852002312e-08
2.39828744695e-08
2.72927180906e-08
1.91533396605e-08
2.76898472337e-08
6.19097103563e-08
-1.84441842333e-07
1.42723885122e-07
-1.95187764804e-07
2.22190478753e-07
-1.8233960237e-07
3.06886786293e-07
-1.72430578596e-07
4.20368361161e-07
-1.76685069974e-07
5.11497906356e-07
-1.27189483622e-07
5.65115046431e-07
-7.60756734039e-08
6.14334020433e-07
-9.09198011712e-08
6.67207402321e-07
-1.16449567697e-07
7.26722216321e-07
-1.19490378597e-07
7.85268765666e-07
-1.13912638089e-07
8.33428855712e-07
-1.0965212256e-07
8.7797319533e-07
-1.00948071658e-07
9.22731798733e-07
-9.08378341504e-08
9.67617586678e-07
-8.6479431841e-08
1.0197404168e-06
-1.01820831268e-07
1.06556742566e-06
-9.80903023065e-08
1.08427419099e-06
-6.1966751866e-08
1.09919728721e-06
-4.65418137401e-08
1.13171054509e-06
-5.92222992204e-08
1.18467841535e-06
-9.2935370389e-08
1.25838062481e-06
-1.3051812315e-07
1.33213398364e-06
-1.36399627344e-07
1.3898374854e-06
-1.20193434285e-07
1.44414069797e-06
-1.12912523142e-07
1.50363072878e-06
-1.13518666628e-07
1.55734256797e-06
-1.06589427288e-07
1.60423451659e-06
-9.68873876163e-08
1.64810924363e-06
-8.89166274761e-08
1.68966633756e-06
-8.2730554832e-08
1.72746182978e-06
-7.9668887186e-08
1.76257047577e-06
-7.60116670069e-08
1.7930971663e-06
-6.68588233853e-08
1.82737865744e-06
-7.26522212875e-08
1.87239322864e-06
-8.43041251362e-08
1.9119061305e-06
-7.86859294053e-08
1.95218970841e-06
-8.38338819839e-08
2.00439053466e-06
-9.52340962775e-08
2.06262134613e-06
-9.79161652703e-08
2.11061857415e-06
-9.04659277804e-08
2.10597313202e-06
-5.4924483698e-08
2.07392593245e-06
-2.94866187597e-08
2.07723581052e-06
-4.18454797807e-08
2.1056024268e-06
-5.24308012162e-08
2.14007464849e-06
-5.28347894572e-08
2.17794800147e-06
-4.95629356051e-08
2.21227730985e-06
-3.94500199245e-08
2.24240451283e-06
-2.64907267165e-08
2.2642365148e-06
-1.09378488727e-08
2.25768370108e-06
1.21323896825e-08
2.20710559451e-06
3.69014708578e-08
2.15130329618e-06
4.29467108732e-08
2.17511099835e-06
1.20904560339e-08
2.1971321067e-06
4.19928070424e-08
2.15617679616e-06
1.27056149113e-07
2.1298323836e-06
1.54226285636e-07
2.10089269858e-06
1.45591520013e-07
2.03481273316e-06
1.47366482995e-07
1.96277300647e-06
1.68728714809e-07
1.86756456297e-06
2.07265761831e-07
1.65486642576e-06
2.92303564735e-07
1.43240564479e-06
3.24327854267e-07
1.21988659023e-06
4.28405650812e-07
1.02077656859e-06
3.99040070832e-07
8.64097799631e-07
2.9285369056e-07
7.39762900844e-07
2.16615054629e-07
6.58392713264e-07
1.62550108892e-07
5.93783607454e-07
1.44521924121e-07
5.21885510924e-07
1.53551826571e-07
4.40194002308e-07
1.66598676561e-07
3.55912292515e-07
1.6706225217e-07
2.78829356786e-07
1.51700107211e-07
2.17462381476e-07
1.25962374868e-07
1.72373843672e-07
1.05090798548e-07
1.33714203381e-07
8.60364113773e-08
1.01863128471e-07
6.96913727211e-08
7.29633719614e-08
5.43146566995e-08
5.10110114414e-08
4.63760587022e-08
2.57152882873e-08
4.50491611856e-08
5.36719551813e-08
8.24634541804e-08
-2.67312973549e-07
1.18714469353e-07
-2.31788692169e-07
2.21824850636e-07
-2.85798816099e-07
3.46256847781e-07
-2.97204816403e-07
4.57513548315e-07
-2.88266360752e-07
5.09987202892e-07
-1.79925369844e-07
5.35561516114e-07
-1.01911875367e-07
5.89635340117e-07
-1.45286156016e-07
6.53753365881e-07
-1.80838638936e-07
7.17589830466e-07
-1.83560346197e-07
7.77610000244e-07
-1.74137561726e-07
8.28380536188e-07
-1.60606822201e-07
8.73026872555e-07
-1.45765582085e-07
9.18331938331e-07
-1.36304252521e-07
9.51105711303e-07
-1.19398314003e-07
9.28312658264e-07
-7.91518684215e-08
8.77044103235e-07
-4.69150781659e-08
8.73750145252e-07
-5.87555700392e-08
9.29512200505e-07
-1.02385190874e-07
1.04771659753e-06
-1.77516686877e-07
1.17845662287e-06
-2.23771829496e-07
1.26068558326e-06
-2.12845491001e-07
1.31869166532e-06
-1.94494270797e-07
1.38526318177e-06
-1.86850851242e-07
1.44940187817e-06
-1.7712857692e-07
1.50203633376e-06
-1.66228246875e-07
1.54978385397e-06
-1.5440353792e-07
1.59582412896e-06
-1.4299333704e-07
1.63842924217e-06
-1.31578860843e-07
1.6795052341e-06
-1.23863772841e-07
1.7136556759e-06
-1.13871231724e-07
1.7449101506e-06
-1.07313180379e-07
1.78004028522e-06
-1.02034904161e-07
1.79806331404e-06
-9.07167135616e-08
1.82617804398e-06
-1.12439681465e-07
1.88618133655e-06
-1.38708006778e-07
1.93080979266e-06
-1.28470402079e-07
1.97345798808e-06
-1.37885907293e-07
2.04438760952e-06
-1.68842426429e-07
2.11435782791e-06
-1.60440113706e-07
2.17437653774e-06
-1.14941595984e-07
2.22401232149e-06
-7.91200410434e-08
2.25581397209e-06
-7.36323848482e-08
2.27880833034e-06
-7.54098047004e-08
2.29786091171e-06
-7.18612451196e-08
2.31160510178e-06
-6.32803799766e-08
2.3216412838e-06
-4.94476798024e-08
2.32728669345e-06
-3.20953633833e-08
2.32768344444e-06
-1.12813801015e-08
2.32606973991e-06
1.38021238277e-08
2.32480186889e-06
3.82426978986e-08
2.313541614e-06
5.4294997805e-08
2.25724424735e-06
6.84999769115e-08
2.1869484365e-06
1.12416597954e-07
2.15882752042e-06
1.55340293064e-07
2.13751940375e-06
1.75727006983e-07
2.08508625707e-06
1.98260672872e-07
2.00621623168e-06
2.26517359314e-07
1.91037151153e-06
2.64913539451e-07
1.79343601608e-06
3.24584990068e-07
1.67478306458e-06
4.11402251067e-07
1.48211107255e-06
5.17474076936e-07
1.21455771181e-06
6.96396577053e-07
9.47544588028e-07
6.66367961959e-07
7.8397633454e-07
4.56652642925e-07
7.06262742806e-07
2.94516493354e-07
6.31039034815e-07
2.3797675993e-07
5.50773924337e-07
2.25020633105e-07
4.7011324588e-07
2.3450417332e-07
3.87159939938e-07
2.49891943713e-07
3.10131152122e-07
2.44460005514e-07
2.48645657963e-07
2.13558272889e-07
1.98791917885e-07
1.76196705702e-07
1.57432049821e-07
1.46820659256e-07
1.18088472768e-07
1.25742448412e-07
8.29581321e-08
1.05193713208e-07
5.6371163005e-08
8.13377006838e-08
4.023725812e-08
6.29308813028e-08
1.60656340544e-08
6.96005700601e-08
6.99926369508e-08
5.6774874429e-08
-3.24367605851e-07
7.08012005041e-08
-2.46053947129e-07
1.94640946682e-07
-4.09979314743e-07
2.91799626751e-07
-3.94694145157e-07
2.84668787278e-07
-2.81368642975e-07
2.34921854324e-07
-1.3028853344e-07
3.30788107074e-07
-1.97946998531e-07
4.99763255187e-07
-3.14528258184e-07
6.16994275263e-07
-2.98334563463e-07
6.96412314288e-07
-2.63212045798e-07
7.65221690598e-07
-2.4315363058e-07
8.22464160634e-07
-2.18041074419e-07
8.58697972806e-07
-1.82174582773e-07
8.4369533535e-07
-1.21451783421e-07
7.91748511889e-07
-6.75730870323e-08
7.70632719454e-07
-5.81339116737e-08
8.1093734039e-07
-8.73083685399e-08
9.10248516947e-07
-1.58156872805e-07
1.04634771056e-06
-2.38584816674e-07
1.1466663215e-06
-2.77941319375e-07
1.20175869786e-06
-2.78969264659e-07
1.26183637263e-06
-2.73022180317e-07
1.32785239356e-06
-2.6060476235e-07
1.38630326273e-06
-2.45388164806e-07
1.43956931411e-06
-2.30476966031e-07
1.48883841376e-06
-2.15571206531e-07
1.53736746573e-06
-2.03004429943e-07
1.58250336417e-06
-1.88192230411e-07
1.62608071e-06
-1.75218696341e-07
1.66243796767e-06
-1.60279283565e-07
1.6996230719e-06
-1.51111797268e-07
1.72477621713e-06
-1.32519891861e-07
1.73811935719e-06
-1.15419945811e-07
1.78667003727e-06
-1.39298230012e-07
1.83097794558e-06
-1.567728114e-07
1.8735982278e-06
-1.81340185088e-07
1.96048606867e-06
-2.1536540941e-07
2.04405963723e-06
-2.2146392776e-07
2.09119464872e-06
-2.15985951466e-07
2.12685433088e-06
-1.96102551138e-07
2.17085797799e-06
-1.58944528638e-07
2.21707018546e-06
-1.25323157985e-07
2.25266020315e-06
-1.0921240529e-07
2.27851294761e-06
-1.01246111952e-07
2.29830951001e-06
-9.164015286e-08
2.31300433609e-06
-7.79499335287e-08
2.3234684289e-06
-5.98831249783e-08
2.3294759623e-06
-3.80643191862e-08
2.33077483486e-06
-1.25359499898e-08
2.32804500542e-06
1.65878928494e-08
2.31948003253e-06
4.68747905363e-08
2.29754244235e-06
7.63169686139e-08
2.25629089571e-06
1.09856941051e-07
2.21423534727e-06
1.54611910005e-07
2.17342987529e-06
1.96312089846e-07
2.1187964751e-06
2.30564557524e-07
2.04628263152e-06
2.71011429189e-07
1.95141032449e-06
3.2166639331e-07
1.83062249155e-06
3.86024279684e-07
1.68472714757e-06
4.70846385498e-07
1.51808692893e-06
5.78426157386e-07
1.3251761451e-06
7.10802077418e-07
1.16037366993e-06
8.61629357203e-07
9.65033201161e-07
8.620637673e-07
7.85962910517e-07
6.35981581499e-07
6.61204845343e-07
4.19479230963e-07
5.71184383395e-07
3.28197776493e-07
4.945595326e-07
3.01889525226e-07
4.22998527764e-07
3.06364401134e-07
3.50103592718e-07
3.23149989496e-07
2.75907807252e-07
3.1904463004e-07
2.10278467991e-07
2.79584197286e-07
1.58141328858e-07
2.2869324952e-07
1.15495847419e-07
1.89797073706e-07
7.92743115786e-08
1.62305784125e-07
4.71547639755e-08
1.37688632826e-07
2.57824672942e-08
1.03008962069e-07
1.60810978692e-08
7.29069873697e-08
7.86015066445e-09
7.82098585904e-08
7.80042259469e-08
6.18416390613e-09
-3.30756218468e-07
6.41710340028e-08
-3.04238458732e-07
1.64648137786e-07
-5.10756971074e-07
2.24414261644e-07
-4.54728180556e-07
1.96154669166e-07
-2.53263396924e-07
2.45509836618e-07
-1.79764603693e-07
3.83251218995e-07
-3.35885860596e-07
4.92529289963e-07
-4.24059457927e-07
5.787547699e-07
-3.8480500179e-07
6.60876072807e-07
-3.45563930576e-07
7.37981351611e-07
-3.20472104759e-07
7.68582395809e-07
-2.48822017564e-07
7.35966187196e-07
-1.49702235109e-07
7.06904732673e-07
-9.2506789029e-08
7.34451151448e-07
-9.52233869308e-08
8.1053166093e-07
-1.34318071006e-07
9.25071628256e-07
-2.01956312118e-07
1.03678358338e-06
-2.69981611369e-07
1.09877756682e-06
-3.00690890517e-07
1.13704833588e-06
-3.16322210471e-07
1.19429282826e-06
-3.36321707251e-07
1.25874589144e-06
-3.37578695866e-07
1.31926155301e-06
-3.21217204866e-07
1.37393560582e-06
-3.00153809055e-07
1.42480238838e-06
-2.81426842842e-07
1.4753545465e-06
-2.66203207596e-07
1.51949257084e-06
-2.47210528566e-07
1.56511739494e-06
-2.33885425042e-07
1.60262297846e-06
-2.12789680837e-07
1.64005056671e-06
-1.97770633887e-07
1.66223579637e-06
-1.7335429223e-07
1.69532263506e-06
-1.6565311423e-07
1.75339014864e-06
-1.73524303838e-07
1.78675159819e-06
-1.72685212603e-07
1.84333421619e-06
-2.13371380629e-07
1.92809637556e-06
-2.66115602673e-07
1.99468515967e-06
-2.81966449048e-07
2.04838245462e-06
-2.75174728536e-07
2.09124594243e-06
-2.58858844339e-07
2.12957902223e-06
-2.34441183406e-07
2.17186170758e-06
-2.01225721512e-07
2.2152288287e-06
-1.68684958725e-07
2.2516394724e-06
-1.45612613162e-07
2.27945362022e-06
-1.29048491925e-07
2.3005962099e-06
-1.12767022165e-07
2.31638194922e-06
-9.37176574184e-08
2.32746278967e-06
-7.09397132963e-08
2.33371664161e-06
-4.42880595802e-08
2.334683018e-06
-1.34639826946e-08
2.3296805888e-06
2.16392340082e-08
2.31638403061e-06
6.02320488909e-08
2.29078695733e-06
1.01997319707e-07
2.25224783943e-06
1.48507722047e-07
2.20749726844e-06
1.99500737407e-07
2.15492902038e-06
2.4905799561e-07
2.08595396011e-06
2.99741843973e-07
1.99511386977e-06
3.62086376775e-07
1.87653660944e-06
4.40519326354e-07
1.72815391812e-06
5.34716658831e-07
1.55696538685e-06
6.42380628433e-07
1.37655537255e-06
7.59214891149e-07
1.21154742595e-06
8.76209508454e-07
1.10579282849e-06
9.67762867377e-07
9.39686287497e-07
1.02854177642e-06
7.92863175208e-07
7.83104887062e-07
6.6009655742e-07
5.52482753707e-07
5.40618559075e-07
4.4791389662e-07
4.42995493807e-07
3.99772805374e-07
3.63205812237e-07
3.86467546186e-07
2.87656270222e-07
3.99050310842e-07
2.12609162809e-07
3.94488299232e-07
1.5414358134e-07
3.38412935585e-07
1.10532183154e-07
2.72626603007e-07
7.0995738515e-08
2.29658237246e-07
3.72427017697e-08
1.96399064186e-07
1.4446516115e-08
1.60810066753e-07
7.2915241329e-09
1.10483649892e-07
1.55078046774e-09
7.89328216837e-08
-1.4699475802e-09
8.15013605852e-08
7.67252087635e-08
1.66788769977e-09
-3.32535924538e-07
8.4645014104e-08
-3.87393630499e-07
1.34693080177e-07
-5.61059488898e-07
1.58952495409e-07
-4.79196676783e-07
1.47575542323e-07
-2.41997690312e-07
2.78113930003e-07
-3.10454506748e-07
4.1863549926e-07
-4.76633530061e-07
4.80013879907e-07
-4.85668603327e-07
5.4721060662e-07
-4.52239122305e-07
6.09057286202e-07
-4.07630736437e-07
6.31666667585e-07
-3.43280216506e-07
5.85842468385e-07
-2.03131039011e-07
5.76254641486e-07
-1.40221838603e-07
6.2609909658e-07
-1.42452563824e-07
7.15695491917e-07
-1.84925722211e-07
8.46353847947e-07
-2.65093766983e-07
9.69272396592e-07
-3.25000296918e-07
1.02722674184e-06
-3.28056973962e-07
1.0612124898e-06
-3.3479210046e-07
1.12454549602e-06
-3.79770728883e-07
1.19089760132e-06
-4.02786606267e-07
1.2477422074e-06
-3.94530779175e-07
1.30291201357e-06
-3.76487574973e-07
1.35897344736e-06
-3.56307269176e-07
1.41096413854e-06
-3.3350588379e-07
1.44674754039e-06
-3.02063826236e-07
1.49326461013e-06
-2.93803242427e-07
1.53140057884e-06
-2.72091203957e-07
1.57045390157e-06
-2.51908769612e-07
1.58616854698e-06
-2.13546587715e-07
1.6115630083e-06
-1.98803656357e-07
1.6503127126e-06
-2.04443718116e-07
1.68886238348e-06
-2.1210123247e-07
1.78129498628e-06
-2.65138088465e-07
1.87909708268e-06
-3.11190508861e-07
1.94898522076e-06
-3.3602227964e-07
2.00219058975e-06
-3.35191260156e-07
2.04827432112e-06
-3.21276130908e-07
2.09037779363e-06
-3.00976554733e-07
2.13102876841e-06
-2.75099486624e-07
2.17308208255e-06
-2.432794549e-07
2.21484881404e-06
-2.10446046898e-07
2.25147433782e-06
-1.82230035822e-07
2.28083399612e-06
-1.58397895374e-07
2.30355486554e-06
-1.35476724398e-07
2.32060418299e-06
-1.10752900791e-07
2.33244806381e-06
-8.27661079598e-08
2.33878798434e-06
-5.06056175422e-08
2.3388083285e-06
-1.34528010887e-08
2.33128498511e-06
2.92008687689e-08
2.31425662058e-06
7.73208493103e-08
2.28564239108e-06
1.30690673703e-07
2.24534710942e-06
1.88912999807e-07
2.19458613453e-06
2.50415140624e-07
2.12956037093e-06
3.14249928257e-07
2.04330258157e-06
3.86204025509e-07
1.93100455463e-06
4.74610085799e-07
1.79073425423e-06
5.81040919593e-07
1.6254927041e-06
7.00257205812e-07
1.44681467385e-06
8.21380276326e-07
1.27149245802e-06
9.34884382947e-07
1.11660997933e-06
1.03143676996e-06
1.01624088635e-06
1.06849683045e-06
8.86564032442e-07
1.1585941479e-06
7.25733134814e-07
9.44219197492e-07
6.09924087378e-07
6.68520003014e-07
4.92614475933e-07
5.65447590686e-07
3.85200467502e-07
5.07454352948e-07
2.95225157194e-07
4.76722601361e-07
2.13462836055e-07
4.81158744123e-07
1.45777089551e-07
4.62505361826e-07
1.01490944313e-07
3.83000602902e-07
5.90985908737e-08
3.15321026394e-07
2.11811893288e-08
2.67883191191e-07
-4.88169628178e-09
2.2279614548e-07
-1.20304846719e-08
1.68301034328e-07
-1.31146495059e-08
1.11835691996e-07
-1.3398338566e-08
7.94881993226e-08
-7.66398872995e-09
7.61186571338e-08
6.92098981614e-08
3.01159408359e-08
-3.62783864432e-07
1.31390707182e-07
-4.88846674815e-07
1.7268283514e-07
-6.02591052222e-07
1.37107907283e-07
-4.43804642234e-07
1.8043484891e-07
-2.8544995794e-07
3.34628887455e-07
-4.64838192281e-07
4.1160491765e-07
-5.53826198543e-07
4.61028097277e-07
-5.35319665888e-07
5.00622176065e-07
-4.92042398657e-07
5.60799515257e-07
-4.68021391734e-07
5.37243997393e-07
-3.19884068255e-07
5.14430886555e-07
-1.80430366574e-07
5.60006811914e-07
-1.85901531968e-07
6.29866245097e-07
-2.12413884178e-07
7.50223213637e-07
-3.0540447353e-07
8.79679097798e-07
-3.94689739871e-07
9.36983262913e-07
-3.82436105859e-07
9.66862981839e-07
-3.58056325282e-07
1.0394092922e-06
-4.07459353833e-07
1.11557700109e-06
-4.56060658713e-07
1.17598197972e-06
-4.63309237165e-07
1.23225156562e-06
-4.50910676566e-07
1.28800003086e-06
-4.32337133471e-07
1.33478667553e-06
-4.0319185849e-07
1.37212047632e-06
-3.70927935356e-07
1.41190519373e-06
-3.41929773057e-07
1.44352767286e-06
-3.25500518338e-07
1.48456064867e-06
-3.13192091461e-07
1.50930724167e-06
-2.76720750649e-07
1.52598510487e-06
-2.30283908393e-07
1.57197642386e-06
-2.44843875482e-07
1.62685913377e-06
-2.59363814515e-07
1.70645012655e-06
-2.91717013637e-07
1.79714736307e-06
-3.55856636856e-07
1.89054501968e-06
-4.04613266374e-07
1.95328517167e-06
-3.98788846437e-07
2.00149849382e-06
-3.83429276249e-07
2.04614853843e-06
-3.6594736589e-07
2.08961329753e-06
-3.4445666556e-07
2.13216239131e-06
-3.17657178755e-07
2.17456842801e-06
-2.85687179277e-07
2.21572038669e-06
-2.51595129995e-07
2.25257147152e-06
-2.19075021827e-07
2.28319907839e-06
-1.8901893052e-07
2.30750496651e-06
-1.59774839719e-07
2.32595049345e-06
-1.29190388792e-07
2.33862011318e-06
-9.54258246066e-08
2.34492543028e-06
-5.68968048928e-08
2.34380240253e-06
-1.23141569417e-08
2.3339127694e-06
3.91275144608e-08
2.31363972781e-06
9.76374088827e-08
2.28151609354e-06
1.62895577669e-07
2.23658097076e-06
2.33969498463e-07
2.1770242585e-06
3.10096428084e-07
2.09806887434e-06
3.93383997841e-07
1.99421332704e-06
4.90228749982e-07
1.86345809897e-06
6.05559963563e-07
1.70918134916e-06
7.3555550253e-07
1.54136540954e-06
8.68330015587e-07
1.37473973586e-06
9.88310647014e-07
1.23158439842e-06
1.07833708834e-06
1.12849650035e-06
1.13483049464e-06
1.00790366255e-06
1.18939592563e-06
8.98010575411e-07
1.2687584383e-06
6.81588293269e-07
1.16085219958e-06
5.47302463339e-07
8.02981312958e-07
4.39466901954e-07
6.7349950772e-07
3.28342361721e-07
6.18791375349e-07
2.25098161929e-07
5.80236689931e-07
1.41608600155e-07
5.64886974139e-07
8.94710153593e-08
5.14897417126e-07
4.58909768349e-08
4.26839566287e-07
1.68044703378e-12
3.61466481568e-07
-3.28181345503e-08
3.01008359118e-07
-4.64847601412e-08
2.36779961089e-07
-4.15391535338e-08
1.63655889709e-07
-3.72217434854e-08
1.07828996041e-07
-3.02387991784e-08
7.28059934867e-08
-1.53484739138e-08
6.15162711085e-08
5.40277246334e-08
5.77029092476e-08
-4.2060227317e-07
1.48843264471e-07
-5.80172256145e-07
1.61133576147e-07
-6.15056398919e-07
9.8217890026e-08
-3.81005323573e-07
2.06870190769e-07
-3.94243774602e-07
3.36223679212e-07
-5.94394582e-07
3.87542147171e-07
-6.05356358736e-07
4.40684221479e-07
-5.88663376896e-07
4.40423779485e-07
-4.91990537526e-07
4.56752835428e-07
-4.84528262325e-07
4.25735660461e-07
-2.88985426982e-07
4.88027180653e-07
-2.42827651839e-07
5.47850146364e-07
-2.45828273551e-07
6.48105167533e-07
-3.12787415394e-07
7.75879335636e-07
-4.33322518439e-07
8.43113040469e-07
-4.62071077491e-07
8.68865104902e-07
-4.08316954939e-07
9.41904960452e-07
-4.31221996847e-07
1.02904172685e-06
-4.94725469556e-07
1.09437775385e-06
-5.21524539401e-07
1.15005757472e-06
-5.1910923159e-07
1.20456780625e-06
-5.05530906497e-07
1.26409730843e-06
-4.91975201435e-07
1.3199244307e-06
-4.5911718689e-07
1.34844417664e-06
-3.99536899277e-07
1.39398606245e-06
-3.87556192879e-07
1.42380994578e-06
-3.5540096063e-07
1.43599161589e-06
-3.25444278182e-07
1.4578281993e-06
-2.9861772148e-07
1.54036439138e-06
-3.128772923e-07
1.59439067069e-06
-2.98920218428e-07
1.62894517391e-06
-2.93951145161e-07
1.72077272884e-06
-3.83572421586e-07
1.82848135864e-06
-4.63595145028e-07
1.89383628949e-06
-4.70000394825e-07
1.94778205531e-06
-4.52766460834e-07
1.99684511289e-06
-4.32520911001e-07
2.04335264924e-06
-4.12478650321e-07
2.088719623e-06
-3.89841122311e-07
2.13306676779e-06
-3.620145495e-07
2.1762782927e-06
-3.28902204132e-07
2.21751509491e-06
-2.92830077557e-07
2.25491294456e-06
-2.56469217945e-07
2.28686375222e-06
-2.20965048519e-07
2.31282949977e-06
-1.85737458008e-07
2.33277568458e-06
-1.4913361844e-07
2.34635071787e-06
-1.08998890036e-07
2.35265550476e-06
-6.32020845323e-08
2.35048870756e-06
-1.0132298783e-08
2.3384896602e-06
5.11334784947e-08
2.31518374677e-06
1.20997892211e-07
2.27890845595e-06
1.99241051507e-07
2.22755609838e-06
2.85411666129e-07
2.15770261263e-06
3.80111192151e-07
2.06462387585e-06
4.86569453442e-07
1.94553112014e-06
6.09470343721e-07
1.80274102804e-06
7.48516401086e-07
1.64420946628e-06
8.94270010853e-07
1.4808310068e-06
1.03199820365e-06
1.327083279e-06
1.14231217023e-06
1.20255502588e-06
1.20314036645e-06
1.10460557168e-06
1.23303428309e-06
1.02020631009e-06
1.27404213576e-06
9.66416610878e-07
1.32278262377e-06
7.77778248467e-07
1.34973408632e-06
5.16176097034e-07
1.06478790248e-06
3.69069048682e-07
8.20780549001e-07
2.50564307363e-07
7.37526233378e-07
1.48069871048e-07
6.82926949941e-07
7.8533948261e-08
6.34658301838e-07
3.18163952119e-08
5.61845163146e-07
-2.15959147347e-08
4.8047705291e-07
-6.79506573836e-08
4.08124380823e-07
-9.23056380865e-08
3.25661004421e-07
-9.27295982306e-08
2.37540084113e-07
-8.19271962426e-08
1.53204162114e-07
-6.74275318781e-08
9.36654570722e-08
-4.97664574692e-08
5.54553686351e-08
-2.53604643114e-08
3.7436161096e-08
2.89117028898e-08
7.70825717701e-08
-4.97838251022e-07
1.44684337569e-07
-6.47962492949e-07
1.24220571828e-07
-5.94766032037e-07
1.27666484677e-07
-3.84567779903e-07
2.56172064466e-07
-5.2290920481e-07
3.0958918594e-07
-6.48007543809e-07
3.56661278342e-07
-6.5262553693e-07
4.04570880063e-07
-6.36763964273e-07
4.11396150182e-07
-4.98981722389e-07
4.22801114372e-07
-4.96108701007e-07
4.30875719573e-07
-2.97169195198e-07
4.84336144536e-07
-2.96396214128e-07
5.54042114131e-07
-3.156425008e-07
6.70910997244e-07
-4.29789898953e-07
7.79974231239e-07
-5.4254899414e-07
8.12142223028e-07
-4.94388172094e-07
8.50589991331e-07
-4.46896887309e-07
9.2855484986e-07
-5.09319616867e-07
1.00556458257e-06
-5.71870449557e-07
1.06841275342e-06
-5.84502607187e-07
1.12344887432e-06
-5.74265944107e-07
1.16980445555e-06
-5.5200642922e-07
1.21238637855e-06
-5.34668606912e-07
1.25577021123e-06
-5.02601070401e-07
1.29088544641e-06
-4.34744351624e-07
1.32576315213e-06
-4.22518783796e-07
1.37414975185e-06
-4.03863082363e-07
1.42840697665e-06
-3.79770714999e-07
1.48152842387e-06
-3.51804446219e-07
1.52324716839e-06
-3.54653153623e-07
1.58005037792e-06
-3.55764541874e-07
1.68736190702e-06
-4.01295796562e-07
1.77184431057e-06
-4.68086958369e-07
1.83292811965e-06
-5.24714865828e-07
1.88806826358e-06
-5.25179561144e-07
1.94074314203e-06
-5.05478276198e-07
1.99149951134e-06
-4.83309342837e-07
2.04012125671e-06
-4.61125868096e-07
2.0873003438e-06
-4.37038383198e-07
2.13338524367e-06
-4.08110335514e-07
2.17796200606e-06
-3.73483145687e-07
2.22007994202e-06
-3.34948482003e-07
2.25848645133e-06
-2.94873738688e-07
2.29201102326e-06
-2.54489306133e-07
2.31986402058e-06
-2.13590964359e-07
2.34148155736e-06
-1.70757524125e-07
2.35612788081e-06
-1.23655969644e-07
2.36269632082e-06
-6.97753754919e-08
2.35984771198e-06
-7.30990571279e-09
2.34622414138e-06
6.47895607283e-08
2.32017892061e-06
1.47048840563e-07
2.27958930392e-06
2.39894988597e-07
2.22127491989e-06
3.43853140134e-07
2.14092869114e-06
4.60496021293e-07
2.03505702538e-06
5.92561869517e-07
1.90405437245e-06
7.40546851271e-07
1.75418402495e-06
8.98495945609e-07
1.59585210001e-06
1.05285239082e-06
1.4386403855e-06
1.18940806058e-06
1.29494726079e-06
1.28629437346e-06
1.1787390892e-06
1.31959039626e-06
1.08471943466e-06
1.32728267489e-06
1.01011982846e-06
1.34886611288e-06
9.52687399022e-07
1.38047109936e-06
8.82932303657e-07
1.41973537841e-06
6.02300755469e-07
1.3456586611e-06
3.0261095445e-07
1.12072062502e-06
1.73484064173e-07
8.66847906969e-07
8.21992595605e-08
7.74450466922e-07
1.97502454282e-08
6.97328409237e-07
-3.77977664324e-08
6.19614932607e-07
-1.01804894057e-07
5.44807664683e-07
-1.46387363942e-07
4.52980832154e-07
-1.59550310767e-07
3.39197649424e-07
-1.50840548875e-07
2.29204107443e-07
-1.32462250018e-07
1.35217406544e-07
-1.03324145958e-07
6.48988425862e-08
-6.93955009327e-08
2.18764027861e-08
-3.35877466555e-08
2.08660832671e-09
-4.52985377859e-09
9.10621015416e-08
-5.89034344559e-07
1.50315510249e-07
-7.07389824663e-07
1.10360607401e-07
-5.54951083495e-07
1.55992529629e-07
-4.30332369084e-07
2.66813014959e-07
-6.33913641367e-07
2.79484554168e-07
-6.6086621021e-07
3.19746054999e-07
-6.93071382584e-07
3.32418233098e-07
-6.49611241571e-07
3.70327326066e-07
-5.37029363017e-07
3.55657848282e-07
-4.81571677958e-07
4.07655973972e-07
-3.49276881165e-07
4.74137641833e-07
-3.62979369654e-07
5.51938059675e-07
-3.93562541318e-07
6.597495436e-07
-5.37756355873e-07
7.22772528038e-07
-6.05731399798e-07
7.38620303513e-07
-5.10376201662e-07
8.11141549702e-07
-5.19554588684e-07
8.97677178691e-07
-5.95996029549e-07
9.70167604252e-07
-6.44500178157e-07
1.03619630373e-06
-6.50663192521e-07
1.09689879618e-06
-6.35100708301e-07
1.15169834732e-06
-6.06926995068e-07
1.18444155727e-06
-5.67528919185e-07
1.21325092326e-06
-5.31515874238e-07
1.26968250981e-06
-4.912643378e-07
1.2986195126e-06
-4.51543220467e-07
1.31438929646e-06
-4.19711820996e-07
1.33849949136e-06
-4.03952786723e-07
1.409352339e-06
-4.22719009853e-07
1.49498341716e-06
-4.40334918722e-07
1.58109230609e-06
-4.41913666019e-07
1.66254970953e-06
-4.82785715945e-07
1.76385486623e-06
-5.6942852154e-07
1.82825232205e-06
-5.89156618021e-07
1.88092170276e-06
-5.77893568942e-07
1.93370677183e-06
-5.58303843218e-07
1.98612889166e-06
-5.3576552227e-07
2.0367432399e-06
-5.11767392664e-07
2.08560288112e-06
-4.85917771931e-07
2.13327270344e-06
-4.55792490946e-07
2.17945579265e-06
-4.19672602027e-07
2.22311330683e-06
-3.78607783105e-07
2.26314222369e-06
-3.34904136887e-07
2.29862919961e-06
-2.8997784081e-07
2.32873767222e-06
-2.43707784269e-07
2.35248737357e-06
-1.9452021184e-07
2.36866323928e-06
-1.39847585436e-07
2.37595917143e-06
-7.71152101084e-08
2.37312589635e-06
-4.45957185979e-09
2.35865976741e-06
7.91870499425e-08
2.33078460072e-06
1.74986007249e-07
2.28660505487e-06
2.8411299715e-07
2.22188326322e-06
4.08588001634e-07
2.13198329496e-06
5.50526095538e-07
2.01469211779e-06
7.09841261174e-07
1.8740352035e-06
8.81264717132e-07
1.71891750505e-06
1.05376382219e-06
1.56013942037e-06
1.21177804893e-06
1.41009400247e-06
1.33973583004e-06
1.27935376098e-06
1.41722312298e-06
1.170616021e-06
1.42843967913e-06
1.06692350595e-06
1.43119113053e-06
9.78131848424e-07
1.43789577901e-06
9.11813095896e-07
1.44702957332e-06
8.72724800603e-07
1.45907269719e-06
7.41991778122e-07
1.47668055877e-06
4.10436285924e-07
1.45249186201e-06
1.10147241182e-07
1.1673832672e-06
1.83174260585e-08
8.66455671238e-07
-4.42680886276e-08
7.60094003679e-07
-1.19796404808e-07
6.95421344572e-07
-1.9544420208e-07
6.2067378602e-07
-2.38603445826e-07
4.96549956245e-07
-2.37862061316e-07
3.38776844228e-07
-2.21551797856e-07
2.13270328462e-07
-1.89640809667e-07
1.03677989226e-07
-1.375802541e-07
1.32257087957e-08
-8.23186538708e-08
-3.29816310811e-08
-3.56691763026e-08
-4.43148228779e-08
-3.99470104468e-08
8.48388886057e-08
-6.74041891593e-07
1.30171870092e-07
-7.52890048527e-07
1.11503810872e-07
-5.3640527818e-07
1.92714018931e-07
-5.11680773293e-07