/*--------------------------------*- C++ -*----------------------------------*\
| =========                 |                                                 |
| \\      /  F ield         | OpenFOAM: The Open Source CFD Toolbox           |
|  \\    /   O peration     | Version:  v1806                                 |
|   \\  /    A nd           | Web:      www.OpenFOAM.com                      |
|    \\/     M anipulation  |                                                 |
\*---------------------------------------------------------------------------*/
FoamFile
{
    version     2.0;
    format      ascii;
    class       volVectorField;
    location    "319";
    object      U;
}
// * * * * * * * * * * * * * * * * * * * * * * * * * * * * * * * * * * * * * //

dimensions      [0 1 -1 0 0 0 0];


internalField   nonuniform List<vector> 
6400
(
(-8.49010977345e-05 -0.000114388586475 0)
(-0.000232906070083 -8.89663355016e-05 0)
(-0.000341779254001 -7.33784212823e-05 0)
(-0.000466867429466 -6.57022529079e-05 0)
(-0.000555521733486 -3.91294893403e-05 0)
(-0.000617040669122 -1.73874784996e-05 0)
(-0.000641259658509 -9.53883207607e-06 0)
(-0.000657140686496 -2.11380763744e-05 0)
(-0.000738138631553 -3.45804824876e-05 0)
(-0.000822276943266 -3.21831741001e-05 0)
(-0.000843308592148 -2.84420698663e-05 0)
(-0.000921283739892 -3.26104182839e-05 0)
(-0.000988439923361 -2.91607407581e-05 0)
(-0.00104108730504 -2.19321510016e-05 0)
(-0.00107449827095 -1.82841584015e-05 0)
(-0.00111082107046 -2.18548161935e-05 0)
(-0.00116178940146 -2.27857766487e-05 0)
(-0.00120212710281 -1.84774738169e-05 0)
(-0.00122511790571 -1.15619867629e-05 0)
(-0.0012417893085 -7.04243037563e-06 0)
(-0.00126804987197 -1.30822755459e-05 0)
(-0.00130820600598 -2.09915686349e-05 0)
(-0.00135575653572 -2.35641526906e-05 0)
(-0.00139881061099 -2.3873643039e-05 0)
(-0.00143996292033 -2.16742978057e-05 0)
(-0.00147819631577 -1.81504621831e-05 0)
(-0.00151668842642 -1.70149565404e-05 0)
(-0.00155130216977 -1.50297738113e-05 0)
(-0.00157792936085 -1.17546100403e-05 0)
(-0.00159772776863 -9.12024980954e-06 0)
(-0.00161075134578 -8.92625113736e-06 0)
(-0.00162628895772 -7.81081621947e-06 0)
(-0.00164158773808 -4.72851212099e-06 0)
(-0.00165027107461 -4.44243676487e-06 0)
(-0.00165602196846 -3.56835988979e-06 0)
(-0.00166993796714 -2.81482602851e-06 0)
(-0.00168149385804 -4.04522637014e-06 0)
(-0.0016710606548 -3.05637827016e-06 0)
(-0.0016786900667 -7.25310936097e-07 0)
(-0.00169664543146 -1.53738752398e-06 0)
(-0.00170948983683 -1.02910516665e-05 0)
(-0.00171448127181 -1.23465680517e-05 0)
(-0.00171644334519 -3.63751781481e-07 0)
(-0.00171086144849 7.47391560355e-06 0)
(-0.00169563668816 1.06714519515e-05 0)
(-0.00167506303397 1.41672194822e-05 0)
(-0.00164809232402 1.73526342837e-05 0)
(-0.00161301301351 2.13543663213e-05 0)
(-0.00157055962082 2.4597513211e-05 0)
(-0.00152202942509 2.26775208332e-05 0)
(-0.00147404116005 1.6301160893e-05 0)
(-0.00144483277098 1.97389918729e-05 0)
(-0.00138462216998 4.26770318458e-05 0)
(-0.00130719155636 5.34083658791e-05 0)
(-0.00120247981073 6.06478756626e-05 0)
(-0.00105163053218 7.35318763277e-05 0)
(-0.000898993156751 6.99009548955e-05 0)
(-0.000768160684576 6.56517904036e-05 0)
(-0.000635722776871 7.61767614865e-05 0)
(-0.000447721520366 8.19359525694e-05 0)
(-0.000262928786271 8.7538144035e-05 0)
(-6.55538950987e-05 0.000108567506503 0)
(0.000209565280492 0.000134214647205 0)
(0.00044652213285 9.11238076629e-05 0)
(0.000551403177188 5.23561482091e-05 0)
(0.000617742216333 3.63166170571e-05 0)
(0.000672014138299 2.46450758781e-05 0)
(0.000724807533548 1.81522265367e-05 0)
(0.000773369938179 1.35177977674e-05 0)
(0.000798763221916 6.69055958627e-06 0)
(0.00080976369689 -1.5911504296e-06 0)
(0.000787362410306 -1.16136626297e-05 0)
(0.000738305085701 -2.47998318869e-05 0)
(0.000706507209881 -4.30205725158e-05 0)
(0.000571569458844 -4.37263520426e-05 0)
(0.000527444529391 -4.59431324422e-05 0)
(0.000366377961358 -3.15370315334e-05 0)
(0.000390284936313 -5.10429235577e-05 0)
(0.000172952481749 -3.98898214652e-05 0)
(0.000129462498079 -7.73665737223e-05 0)
(-3.10645816861e-05 -0.000157011318679 0)
(-0.000133325448745 -0.000178351131472 0)
(-0.000233765621556 -0.000164658823335 0)
(-0.000296594462763 -0.000131270615811 0)
(-0.000438374688829 -0.000129755505232 0)
(-0.000577652500224 -9.12429316736e-05 0)
(-0.000659160175914 -5.34177639279e-05 0)
(-0.000711034499043 -7.30091858316e-05 0)
(-0.000765455036736 -9.96538965385e-05 0)
(-0.000827703535499 -9.69057153015e-05 0)
(-0.000886911475023 -9.06251619287e-05 0)
(-0.000940507531818 -9.05028708554e-05 0)
(-0.000989780369402 -7.98088915064e-05 0)
(-0.00103375990542 -6.47677907007e-05 0)
(-0.00107808397827 -5.74750773723e-05 0)
(-0.00112081754306 -7.16558620637e-05 0)
(-0.00116422392496 -7.5435688743e-05 0)
(-0.00119501031551 -4.42443619294e-05 0)
(-0.0011723974972 -2.23768789824e-05 0)
(-0.00119851148369 -2.15390587053e-05 0)
(-0.00123951649179 -4.25802154824e-05 0)
(-0.00129168624817 -7.16940612864e-05 0)
(-0.00135688356394 -7.94659940515e-05 0)
(-0.00140932669962 -6.92191928589e-05 0)
(-0.00143001299125 -6.13562893996e-05 0)
(-0.00147953099011 -5.81423331994e-05 0)
(-0.00152265696363 -5.22564474212e-05 0)
(-0.00155266551532 -4.35573553646e-05 0)
(-0.00157682409529 -3.4817315969e-05 0)
(-0.00159745104677 -2.76962425344e-05 0)
(-0.00161428978099 -2.47001510529e-05 0)
(-0.00161653725753 -2.04546474224e-05 0)
(-0.00163085087983 -1.08831424291e-05 0)
(-0.00163609069724 -1.18761226741e-05 0)
(-0.00163500718306 -1.48263796824e-05 0)
(-0.00166521621015 -7.8319015153e-06 0)
(-0.00166559162344 -1.02291651684e-05 0)
(-0.00165743503785 -1.45002169564e-05 0)
(-0.00167608102562 -1.09145763567e-05 0)
(-0.00171278036863 -5.95936994117e-06 0)
(-0.00172937631094 2.49594822492e-06 0)
(-0.00162200100875 1.0130190711e-05 0)
(-0.00157837396636 1.39881915471e-05 0)
(-0.00158060113576 1.69065924412e-05 0)
(-0.00157185587654 2.05554298268e-05 0)
(-0.00156951703894 2.63193233028e-05 0)
(-0.00156755266615 3.49869027594e-05 0)
(-0.00155119021806 4.55907413869e-05 0)
(-0.00153806818577 5.73882848782e-05 0)
(-0.00151049067469 6.77474856808e-05 0)
(-0.00145223673681 7.34138388199e-05 0)
(-0.0013517509033 7.86112691418e-05 0)
(-0.00125675649675 8.9968114327e-05 0)
(-0.00130730263616 0.00012696127876 0)
(-0.00118644069742 0.000166562588462 0)
(-0.00107239034779 0.000193315318724 0)
(-0.000995413242965 0.000208822833324 0)
(-0.000859601337081 0.000221180877953 0)
(-0.000696730254329 0.0002511316263 0)
(-0.000517263288932 0.000290559307936 0)
(-0.000309222349804 0.000331599504128 0)
(-5.81891349839e-05 0.00031649937911 0)
(0.000212856955299 0.000390800058346 0)
(0.000438374032215 0.000282347950215 0)
(0.000549506179805 0.000163216879252 0)
(0.000588867573224 9.38447368789e-05 0)
(0.000628880281556 7.1331958105e-05 0)
(0.000711285412722 6.53517479151e-05 0)
(0.000764246542921 4.84315319375e-05 0)
(0.000803572307042 2.25259853105e-05 0)
(0.000806131921475 -1.03642146645e-05 0)
(0.000776964494245 -4.48618277851e-05 0)
(0.000710818191846 -6.82731716382e-05 0)
(0.000696296147464 -9.80884301183e-05 0)
(0.000639928100977 -0.000118158505789 0)
(0.000575171162114 -0.000130299338346 0)
(0.000492441662317 -0.000127510936036 0)
(0.000403404870988 -0.000154423765731 0)
(0.000255427388009 -0.000181219710546 0)
(0.000119551730526 -0.000306984784328 0)
(-4.78506490349e-05 -0.000271189312323 0)
(-0.000130788768212 -0.000299463763205 0)
(-0.000200874559617 -0.000281519138557 -9.92002466251e-29)
(-0.000352100143884 -0.000291860238866 9.53305715719e-29)
(-0.000497104740884 -0.000293455951101 8.71665132317e-29)
(-0.000580569028599 -0.000235174520297 -8.03975849534e-29)
(-0.000636021635613 -0.000118452078086 8.18387098041e-29)
(-0.000690549137055 -0.000128600635095 -8.14352733638e-29)
(-0.000748673582966 -0.000159815836513 0)
(-0.000815788301398 -0.000163869239726 0)
(-0.000881874034146 -0.000153538643104 0)
(-0.000938311688881 -0.000140501738692 0)
(-0.000987767719407 -0.000123521754438 0)
(-0.00103018016564 -0.000110945644956 0)
(-0.00107254144451 -0.000101055814988 0)
(-0.00111296188394 -8.12359793497e-05 0)
(-0.000981451875423 -4.89993845847e-05 0)
(-0.00094215407202 -3.04005871845e-05 0)
(-0.000970889429697 -4.02203933359e-05 0)
(-0.00104258893111 -8.10193632035e-05 0)
(-0.00122088613308 -0.000128285426588 0)
(-0.00131801297507 -0.000142848630936 0)
(-0.00133868056145 -0.000131118601968 0)
(-0.00139250355926 -0.000116112168454 0)
(-0.0014481026636 -0.000106069350628 0)
(-0.0014859907666 -9.81658744732e-05 0)
(-0.00151833057984 -8.47504971214e-05 0)
(-0.00154865228083 -7.01028667229e-05 0)
(-0.00157342772436 -5.6835120922e-05 0)
(-0.00159041648101 -4.63398183456e-05 -1.73080706132e-28)
(-0.00161196534368 -3.65766045795e-05 1.68144459781e-28)
(-0.00160401276059 -2.83726185588e-05 0)
(-0.00161098059482 -1.79560884857e-05 0)
(-0.00164383749569 -7.93466278318e-06 0)
(-0.00159112615484 -1.89970848886e-05 0)
(-0.00162024616152 -2.41407053684e-05 0)
(-0.00167308737841 -1.55260806544e-05 0)
(-0.0016260674356 -2.31194670256e-05 0)
(-0.00165715204116 -3.54929392303e-05 0)
(-0.00170870032816 -2.45703237371e-05 0)
(-0.00173227058041 1.32543264959e-05 0)
(-0.00172989758741 3.84233028525e-05 0)
(-0.00172340675678 3.3710393736e-05 0)
(-0.00171453425868 2.92985085043e-05 0)
(-0.00169941464052 3.27931074788e-05 0)
(-0.00167901671276 4.03955799612e-05 0)
(-0.00165396870418 5.33058859944e-05 0)
(-0.0016242129373 6.90242775597e-05 0)
(-0.00158976081671 8.77206060128e-05 0)
(-0.00155027129997 0.000111839846653 0)
(-0.00150554870909 0.000137616388368 0)
(-0.00145313005178 0.000155340484287 0)
(-0.00138684141472 0.000161896576456 0)
(-0.00128989380836 0.000198822538122 0)
(-0.0011738697212 0.000250708099754 0)
(-0.00109819279637 0.00029117415866 0)
(-0.000989169775388 0.000328403927934 0)
(-0.000843214138368 0.000373070477365 0)
(-0.000672554771518 0.000425884036874 0)
(-0.000480832363837 0.000485896780696 0)
(-0.000270468887229 0.000545186937363 0)
(-4.42499686147e-05 0.000608951396278 0)
(0.000206674730197 0.000644404200821 0)
(0.000376027825263 0.00043184829813 0)
(0.000466074406067 0.000242838228379 0)
(0.000563528720429 0.000167177834373 0)
(0.000649570960426 0.000137515725645 0)
(0.000702046004123 0.000113476915137 0)
(0.000742102312721 7.76431584059e-05 0)
(0.000765676814729 3.12186185502e-05 0)
(0.000764817160683 -1.72921273661e-05 0)
(0.000754608499836 -5.81352624361e-05 0)
(0.000762961278252 -9.16383356582e-05 0)
(0.000748440382454 -0.00014015755477 0)
(0.000680822666972 -0.000190103880989 0)
(0.000592043333532 -0.000214840866141 0)
(0.000494628730461 -0.000226705764379 0)
(0.00039601706118 -0.00028897103983 0)
(0.000278902260403 -0.000418187033491 0)
(7.44425969328e-05 -0.000435710515351 0)
(-4.88490468003e-05 -0.000411242554248 0)
(-5.88389440536e-05 -0.000270636671835 0)
(-0.000166400368622 -0.000430926421891 0)
(-0.000312826217231 -0.000438976673466 0)
(-0.000425603700361 -0.00036886743031 0)
(-0.000231320576112 -0.000133834929852 0)
(-0.000287762639757 -0.000133789292362 0)
(-0.00055637516094 -0.000253982252199 0)
(-0.000701294573299 -0.000272419711519 0)
(-0.000787567084641 -0.000245813011773 0)
(-0.000868693487124 -0.000224220706056 0)
(-0.000933886650816 -0.000198929623231 0)
(-0.000986152241182 -0.000171453071105 0)
(-0.00101629655405 -0.000127470609969 0)
(-0.000938116431865 -6.84357135554e-05 0)
(-0.000875247749367 -3.03753480258e-05 0)
(-0.000871370734578 -2.58771698423e-05 0)
(-0.000929695071978 -6.6725038084e-05 0)
(-0.00107251566319 -0.000135865981721 0)
(-0.00122375674472 -0.000207926796514 0)
(-0.00126353153071 -0.000220957806989 0)
(-0.00130742174375 -0.000200036644266 0)
(-0.0013611851618 -0.000181106916174 0)
(-0.00140674539805 -0.000166542142543 0)
(-0.0014457888335 -0.00014971234163 0)
(-0.00148016565737 -0.000131855596267 0)
(-0.00150978530705 -0.000114504156584 0)
(-0.00154507866472 -9.65213993704e-05 0)
(-0.00156263724146 -7.8678442014e-05 0)
(-0.00159262029051 -6.29434503949e-05 0)
(-0.00158772250254 -4.82973814334e-05 0)
(-0.00161575464437 -3.21299663932e-05 0)
(-0.00158055091522 -1.41952414259e-05 0)
(-0.00159121107215 -1.16516852274e-05 0)
(-0.00164447748888 -2.2503870303e-05 0)
(-0.0016015843422 -3.89743971551e-05 0)
(-0.00165088878639 -4.32220907913e-05 0)
(-0.00170738016253 -4.72559603898e-05 0)
(-0.00171976020737 -5.55986128911e-05 0)
(-0.00172409631753 -3.82702447062e-05 0)
(-0.0017289897074 -6.63580531821e-07 0)
(-0.00172979324748 2.83979868877e-05 0)
(-0.00172609670972 3.83064916829e-05 0)
(-0.0017175823093 4.30889920576e-05 0)
(-0.00170307870692 5.14325082339e-05 0)
(-0.00168340320343 6.40807116961e-05 1.64724437699e-28)
(-0.00165914342267 8.09658238397e-05 -1.65942978986e-28)
(-0.00163028991503 0.000101293144637 0)
(-0.00159664060636 0.000125207362148 0)
(-0.00155763724338 0.000152919809811 0)
(-0.00151201535569 0.000182271500884 0)
(-0.00145650730155 0.000211483893646 0)
(-0.00138704404332 0.000246484853205 0)
(-0.00130197998331 0.000296804466885 0)
(-0.00120677224204 0.000348220043628 0)
(-0.00110196539527 0.000400134337324 0)
(-0.000976123488541 0.000465598999519 0)
(-0.000821505020343 0.000539647194102 3.18180401395e-28)
(-0.000639433504003 0.000618714389376 -3.63845922257e-28)
(-0.000435514197489 0.000698475168454 0)
(-0.000219637213519 0.000766153095168 0)
(-7.91817186985e-06 0.000805687866641 0)
(0.000167427259628 0.000772475234181 0)
(0.000328560522374 0.000590621829106 0)
(0.000486419507308 0.00038588461495 0)
(0.000559448658963 0.000253168627994 0)
(0.000624917194347 0.000193501692923 0)
(0.000685980432284 0.000154287070738 0)
(0.00073193985693 0.000106527818776 0)
(0.000776361447116 4.90604611589e-05 0)
(0.000804734672639 -6.41011319241e-06 0)
(0.000820418391867 -5.53997003575e-05 0)
(0.000799632889136 -0.000120367646024 0)
(0.000705873397059 -0.000195617376879 0)
(0.000628843722314 -0.000262251519858 0)
(0.000550663346988 -0.000318134414914 0)
(0.000436630680695 -0.000351345996856 0)
(0.00026901011963 -0.000345225705737 0)
(0.000198676431187 -0.000487862317876 0)
(6.77162444703e-05 -0.000586336413886 0)
(-3.70162110376e-06 -0.000405649735874 0)
(-2.82445833972e-05 -0.000330594267542 0)
(-0.000153921403156 -0.000573838911727 0)
(-0.000266605269089 -0.000527206910648 0)
(-0.000273497750864 -0.000330032624685 0)
(-0.000211911066382 -0.000177814563961 0)
(-0.000364953957538 -0.000299045920277 0)
(-0.000579726652569 -0.000437486292363 0)
(-0.000658412882031 -0.000390333305646 0)
(-0.000755102743555 -0.000338722134034 0)
(-0.000841720463062 -0.000309708907261 0)
(-0.000912198712993 -0.000264549572562 0)
(-0.000906779975568 -0.000169495482544 0)
(-0.000813537401414 -7.69514049407e-05 0)
(-0.000828277467492 -4.18422608626e-05 0)
(-0.000879930270738 -5.21086398236e-05 0)
(-0.000976473631504 -0.000103594495008 0)
(-0.00110566524157 -0.000186640266464 0)
(-0.00119892836308 -0.000249854283815 0)
(-0.0012124793544 -0.000258001101555 0)
(-0.00125597938187 -0.000257836206417 0)
(-0.00131533698638 -0.000252004881504 0)
(-0.0013611685582 -0.000232278707499 0)
(-0.00140364315972 -0.00020851908161 0)
(-0.00144050374125 -0.000185689833896 0)
(-0.00147114755597 -0.000165596714884 0)
(-0.00150996708173 -0.000144319361383 0)
(-0.00152449472526 -0.000121798263423 0)
(-0.00156709610468 -9.9911259715e-05 0)
(-0.00155725535398 -7.69211364549e-05 0)
(-0.00160357871422 -5.62355103983e-05 -1.64945177055e-28)
(-0.00154414794739 -3.49139402828e-05 1.52621716039e-28)
(-0.00159703852947 -2.41093855872e-05 0)
(-0.00163716913439 -2.08558187018e-05 0)
(-0.0016048065127 -3.62418320611e-05 0)
(-0.0016711239024 -6.45264599885e-05 0)
(-0.0016986892945 -8.26771796387e-05 0)
(-0.00171709508277 -7.62997391328e-05 0)
(-0.00172585478145 -6.05730565835e-05 0)
(-0.00172931787693 -3.65545879259e-05 0)
(-0.00173287937669 -3.88013630631e-06 0)
(-0.00173430925215 2.49939160476e-05 0)
(-0.00173130001299 4.26263648433e-05 0)
(-0.00172301806701 5.51154338462e-05 0)
(-0.00170911021216 6.89566316044e-05 0)
(-0.00169026765585 8.62484340229e-05 0)
(-0.00166691913993 0.000107404493602 0)
(-0.00163901526988 0.000132322476934 0)
(-0.00160615305814 0.00016134040979 0)
(-0.00156748789002 0.000194840845733 0)
(-0.00152144939177 0.000232468404556 0)
(-0.00146524950969 0.000274603923914 0)
(-0.00139595685149 0.00032424526872 0)
(-0.0013123068311 0.000383462915368 0)
(-0.00121521034056 0.000448746097327 0)
(-0.00110206393431 0.000524686612993 0)
(-0.00096478806694 0.000616461362685 0)
(-0.000797939301922 0.000718671328855 0)
(-0.000603419583403 0.000821535062564 0)
(-0.000391099949389 0.000912272241572 0)
(-0.000177629029797 0.000973386277632 0)
(1.59239717268e-05 0.000985235135905 0)
(0.000154041425147 0.000907591866449 0)
(0.000322405352469 0.000767982148675 0)
(0.000503656112715 0.0005456246319 0)
(0.000586888897369 0.000347103118186 0)
(0.000647431169926 0.000253291506268 0)
(0.000694408975129 0.000198303084932 0)
(0.00073474872778 0.000143459865477 0)
(0.000784386642009 8.40806470538e-05 0)
(0.000838844004124 1.89219240305e-05 0)
(0.000842507199932 -7.19914168554e-05 0)
(0.000751203880948 -0.00017653780751 0)
(0.000683342608707 -0.000269975981514 0)
(0.000616728859085 -0.000356042666205 0)
(0.000527460714999 -0.000436455425408 0)
(0.000390897164903 -0.000454620943011 0)
(0.000264791449526 -0.00046556765814 0)
(0.000181250212615 -0.000635646465721 0)
(5.1388156039e-05 -0.000687320678549 0)
(1.73354225113e-06 -0.000376392436435 0)
(-3.68394238259e-05 -0.000404113967622 0)
(-0.000157318452974 -0.000654737841981 0)
(-0.000216348842635 -0.000530555088235 0)
(-0.000158119721682 -0.0002525814174 0)
(-0.000215060905928 -0.000258138306772 0)
(-0.000473717046983 -0.00050329235088 0)
(-0.000562388664852 -0.000531891225207 0)
(-0.00063056665095 -0.000478444595018 0)
(-0.000715138307004 -0.000430545414517 0)
(-0.000797277868957 -0.000365299933182 0)
(-0.000724265738019 -0.000232222442356 0)
(-0.00065432427637 -0.000115433527477 0)
(-0.000707797595171 -8.49219587281e-05 0)
(-0.000774706623718 -0.00010064655428 0)
(-0.00090710440048 -0.00015909296975 0)
(-0.00105349562162 -0.000233627916066 0)
(-0.00114937636411 -0.000275346484225 0)
(-0.0011439604179 -0.000272071355595 0)
(-0.00119848898254 -0.000293525974891 0)
(-0.00126796108626 -0.000313444331314 0)
(-0.00131327777782 -0.000301992559168 0)
(-0.00135542719092 -0.00027710464643 0)
(-0.00139337077395 -0.000250062109235 0)
(-0.00143899264527 -0.000224389221726 0)
(-0.00147007239482 -0.000194194990504 0)
(-0.0014704627696 -0.000169956657836 0)
(-0.00153569131732 -0.000148272305154 0)
(-0.00150706592545 -0.000115326374831 0)
(-0.00158084377656 -8.53916241152e-05 0)
(-0.0014912536954 -5.30112984513e-05 0)
(-0.00158136452812 -4.6632534948e-05 0)
(-0.00151003893813 -4.25466498696e-05 0)
(-0.00159207806089 -4.94700219263e-05 0)
(-0.00166738922152 -7.52572846811e-05 0)
(-0.00169787477558 -0.000103064490422 0)
(-0.00171346721658 -0.000102666978433 0)
(-0.00172442381986 -8.72881324698e-05 0)
(-0.00173123253968 -6.53927703053e-05 0)
(-0.00173573818361 -3.83596740136e-05 0)
(-0.00173913655734 -6.81630844236e-06 0)
(-0.00174043275257 2.30873423612e-05 0)
(-0.00173772559691 4.65685253443e-05 0)
(-0.00172980604476 6.59282106408e-05 0)
(-0.00171664030507 8.54320098052e-05 0)
(-0.00169868020067 0.000107451551868 0)
(-0.0016763432581 0.000132959006061 0)
(-0.00164946621716 0.00016247143115 0)
(-0.00161743585834 0.00019673030644 0)
(-0.00157930414111 0.000236601368449 0)
(-0.00153353756393 0.000282846246419 0)
(-0.00147776337173 0.000336635641371 0)
(-0.00140941566489 0.00039972826929 0)
(-0.00132642883715 0.00047312621056 0)
(-0.00122662578409 0.000557901278309 0)
(-0.00110534276277 0.000659288779057 0)
(-0.000956166437613 0.000779047898452 0)
(-0.000777081823819 0.000908084686608 0)
(-0.000573947703267 0.00103043213412 0)
(-0.000358229952977 0.00112360485499 0)
(-0.00015092734091 0.00116662320919 0)
(2.59721023717e-05 0.00112863477287 0)
(0.000156946714303 0.000976820435783 0)
(0.000348749832767 0.000968902282738 0)
(0.000480704648097 0.000671124702767 0)
(0.000565020043321 0.000429185492573 0)
(0.000645752705574 0.000308593785209 0)
(0.000706669766495 0.000241469621055 0)
(0.000752433314635 0.000185840928967 0)
(0.000825613616471 0.000127908996144 0)
(0.000877154144061 2.77103682163e-05 0)
(0.000810677459299 -0.000112018766736 0)
(0.000737773945321 -0.00023324880254 0)
(0.000697956514362 -0.000342169086356 0)
(0.000622917952439 -0.000450813242338 0)
(0.000534583126704 -0.000553087932013 0)
(0.000387965361872 -0.000550333111667 0)
(0.000274314600958 -0.000577188296585 0)
(0.000184754193311 -0.000755196801664 0)
(5.62702362423e-05 -0.000789103162692 0)
(-1.34573793866e-05 -0.000408884618464 0)
(-8.94589604258e-05 -0.000533621914681 0)
(-0.000209192557856 -0.000714204840569 0)
(-0.00023086469765 -0.000654303637764 0)
(-0.000149097789804 -0.000315386698828 0)
(-0.0003184948895 -0.000467487817439 0)
(-0.000499586837661 -0.000625110706282 0)
(-0.00054186985304 -0.000596926083012 0)
(-0.000608828030692 -0.000544735038233 0)
(-0.000646347854143 -0.000485683818844 0)
(-0.000757727207763 -0.000393643753554 3.74621413726e-28)
(-0.00056797316978 -0.000172832104411 -2.12054950512e-28)
(-0.000655484996757 -0.000144662034931 0)
(-0.000695525376045 -0.000151820480234 0)
(-0.000812174195926 -0.000211965368534 0)
(-0.000976298833518 -0.000306221277745 0)
(-0.00108263909793 -0.000337087685895 0)
(-0.00105466670053 -0.000295634241702 0)
(-0.00111982951475 -0.000313816999873 0)
(-0.00121301129394 -0.0003602999258 0)
(-0.00125799281278 -0.000366992908843 0)
(-0.00130628623286 -0.000348179480861 0)
(-0.00135117008109 -0.000321120812446 0)
(-0.00139215638536 -0.000289222037311 0)
(-0.00141695083314 -0.000252225733412 0)
(-0.00142564341205 -0.000214109499186 0)
(-0.00148527771984 -0.000192344040802 0)
(-0.0014393262409 -0.000165754083344 0)
(-0.00154156244561 -0.000132987853108 0)
(-0.00144106591063 -7.47918103631e-05 0)
(-0.0015434639647 -6.37738651996e-05 0)
(-0.00148340790652 -6.64598728176e-05 1.46141668865e-28)
(-0.00157127079388 -7.17305117113e-05 -1.55159780255e-28)
(-0.00159958369433 -0.000104171940048 0)
(-0.001692575379 -0.000132107628096 0)
(-0.00171193996992 -0.000130293148525 0)
(-0.00172183293068 -0.000115784114414 0)
(-0.00173046933252 -9.52620367834e-05 0)
(-0.00173821398639 -7.03433537445e-05 0)
(-0.00174386005961 -4.14465510441e-05 0)
(-0.0017472571026 -9.39275935465e-06 0)
(-0.00174838510098 2.23244409088e-05 0)
(-0.00174575865712 5.05754332013e-05 0)
(-0.00173820372211 7.59040270045e-05 0)
(-0.00172568852229 0.000100870030569 0)
(-0.00170862732177 0.000127622500584 0)
(-0.00168730483992 0.000157529050462 0)
(-0.00166143039273 0.000191669387088 0)
(-0.0016303427047 0.000231244720127 0)
(-0.00159319577868 0.000277633080221 0)
(-0.00154863771168 0.000332348986951 0)
(-0.00149450726894 0.000397119853001 0)
(-0.00142804476214 0.000473817959286 0)
(-0.00134592599757 0.000564555209659 0)
(-0.00124369529262 0.000672850777407 0)
(-0.00111544065392 0.000802952710856 0)
(-0.000956233335605 0.000952000355237 0)
(-0.000766910791667 0.00110530921165 0)
(-0.000555262540813 0.00124102619791 0)
(-0.00033430750558 0.00133417934041 0)
(-0.000125044382757 0.00135193559832 0)
(4.84072856283e-05 0.00128416993102 0)
(0.000207626045157 0.00120352795612 0)
(0.000344708108092 0.00108051408326 0)
(0.000465826670387 0.000779652636252 0)
(0.00054681355874 0.000512350443099 0)
(0.000666563773153 0.000395027155046 0)
(0.000757240979617 0.000314615779816 0)
(0.000820816205574 0.000245766913891 0)
(0.000879361383005 0.000156392669507 0)
(0.000874817158533 5.82205605471e-06 0)
(0.000800385930459 -0.000150888827042 0)
(0.000775297612921 -0.000281909047295 0)
(0.000732212336763 -0.000410099170403 0)
(0.000662317544209 -0.000548885934866 0)
(0.000552246895574 -0.00064001263035 0)
(0.000433146883633 -0.000678590703383 0)
(0.000289936261471 -0.00069632961883 0)
(0.000190853313199 -0.000863955856044 0)
(6.57754090429e-05 -0.000921933394794 0)
(-2.85122409874e-05 -0.000477729179103 0)
(-0.000131155308563 -0.000663009343643 0)
(-0.000237001460452 -0.000739297800859 0)
(-0.000142033062799 -0.000422106726112 0)
(-0.000156976989138 -0.000396108692411 0)
(-0.00038349149295 -0.000668352800751 0)
(-0.000463091389687 -0.000690738267281 0)
(-0.000527572995577 -0.000661421145477 0)
(-0.000559448276081 -0.000584189299633 0)
(-0.000626067786105 -0.000523459110161 0)
(-0.000494760089365 -0.000288149981772 0)
(-0.000568253160704 -0.000206590788127 0)
(-0.000639926599738 -0.000203381264087 0)
(-0.000695332158857 -0.000238112117634 0)
(-0.000879800332485 -0.000353399818375 0)
(-0.00100826793166 -0.000411778249971 0)
(-0.000971874106414 -0.000351459459151 0)
(-0.00102406822397 -0.000340968501576 0)
(-0.00113665696321 -0.000395532109168 0)
(-0.00120492229138 -0.000423397672584 0)
(-0.00124496959693 -0.000414424984521 0)
(-0.00128664771644 -0.000392539261736 0)
(-0.00133932075437 -0.000368124711441 0)
(-0.00137892235339 -0.000330825438008 0)
(-0.00142752532536 -0.00027721085459 0)
(-0.00140344396134 -0.000239935540273 0)
(-0.00148489680481 -0.000211019863704 0)
(-0.00146337302762 -0.000172190002269 0)
(-0.0014331102003 -0.000132276139812 0)
(-0.00146357217691 -0.000104336125318 0)
(-0.00157971775077 -9.36525052868e-05 0)
(-0.00153396296549 -8.0698064145e-05 0)
(-0.00153818190566 -0.000119833477204 0)
(-0.00167861789765 -0.000167206648317 0)
(-0.00169992846806 -0.00017401214821 0)
(-0.00171713361165 -0.000151540530901 0)
(-0.00172907169734 -0.00012737888751 0)
(-0.00173816457413 -0.000103267832116 0)
(-0.00174664986169 -7.63497256639e-05 0)
(-0.00175334667042 -4.55930127634e-05 0)
(-0.00175713975486 -1.19306250595e-05 0)
(-0.00175806155318 2.22098238469e-05 0)
(-0.00175543933268 5.46937520038e-05 0)
(-0.00174826149148 8.53153835854e-05 0)
(-0.00173634948266 0.000115451149526 1.5951149965e-28)
(-0.00172008739459 0.000146861551114 -1.59036504723e-28)
(-0.00169964692837 0.000181168670432 0)
(-0.00167469415555 0.000219884982455 0)
(-0.00164469401783 0.000264582635612 0)
(-0.00160909272916 0.000317095132533 0)
(-0.00156681419851 0.000379634397548 0)
(-0.00151580065469 0.000454823463841 0)
(-0.00145290340168 0.000545805232087 0)
(-0.00137341144672 0.000656523103589 0)
(-0.0012708448527 0.000791630797101 0)
(-0.00113824702943 0.000952919706493 0)
(-0.000971500583628 0.00113222925473 0)
(-0.000772356738588 0.0013104288268 0)
(-0.00054725016718 0.00146292611515 0)
(-0.00030762909047 0.00155668236492 0)
(-8.20572017164e-05 0.00155035463797 0)
(0.000101587823972 0.00145965477403 0)
(0.000248025894726 0.00132734453021 0)
(0.000349588829696 0.0011623523565 0)
(0.000512095269579 0.000990673545756 0)
(0.000572983046281 0.000615428212097 0)
(0.000690904025549 0.000491115772879 0)
(0.000801759729871 0.00039327334221 0)
(0.000860807447357 0.000288605386018 0)
(0.000893688946828 0.000155126445122 0)
(0.00086969047151 -1.88350345271e-05 0)
(0.000835873049989 -0.00017469041783 0)
(0.000832473511616 -0.000316353779404 0)
(0.000793906476653 -0.000473991769537 0)
(0.000725229554885 -0.000640469655148 0)
(0.000603312433809 -0.000741785008292 0)
(0.000488600145779 -0.000821581217219 0)
(0.000322183739746 -0.000855231640577 0)
(0.00018875811729 -0.00098112153006 0)
(6.54636048159e-05 -0.00107115740638 0)
(-4.11590159007e-05 -0.000567122973807 0)
(-0.000153583179809 -0.000771986660418 0)
(-0.000199595456112 -0.000756022045453 0)
(-0.000136880585436 -0.000462653217774 0)
(-0.000225989260149 -0.000533700873777 0)
(-0.00040356204001 -0.000768053431465 0)
(-0.000427272758088 -0.000751145488548 0)
(-0.00051418632481 -0.000720947495688 0)
(-0.000478105149739 -0.000573809978558 0)
(-0.000637202347879 -0.000586124942389 0)
(-0.000482194714476 -0.000313365189958 0)
(-0.000581891820741 -0.000275425520605 0)
(-0.000634428207873 -0.00027639659109 0)
(-0.000751982549635 -0.000364277722961 0)
(-0.000914918590108 -0.00048462414898 0)
(-0.000992250445204 -0.00047052837283 0)
(-0.000951267293691 -0.000386911139751 0)
(-0.00103771526874 -0.000418326206363 0)
(-0.0011303236291 -0.000471646950461 0)
(-0.00118674856901 -0.000479518924217 0)
(-0.00123706463119 -0.000461474734264 0)
(-0.00126960783417 -0.0004324454688 0)
(-0.00131614909135 -0.000405373124017 0)
(-0.00133235966317 -0.000364539302405 0)
(-0.00134017118333 -0.000293090233875 0)
(-0.00143258789943 -0.000263071318819 0)
(-0.00134420284581 -0.00022687418728 0)
(-0.00151745869664 -0.000193785304192 0)
(-0.00141499012589 -0.000154047476206 0)
(-0.00156802574308 -0.000150089472085 0)
(-0.00146402220668 -0.00011760984297 0)
(-0.00161109789766 -0.00012208978403 0)
(-0.001650276952 -0.000173259041303 1.70031052272e-28)
(-0.00168820817924 -0.000212326974424 -1.75657961252e-28)
(-0.00170693094242 -0.000198000484969 0)
(-0.00172321748863 -0.000169135709183 0)
(-0.00173740581825 -0.000140246790431 0)
(-0.00174785850572 -0.000112558352559 0)
(-0.00175671930625 -8.33257797719e-05 0)
(-0.00176390415916 -5.05816160691e-05 0)
(-0.00176832843908 -1.47016632714e-05 0)
(-0.00176948361907 2.23743548533e-05 0)
(-0.00176689566621 5.88853269539e-05 0)
(-0.00175999699185 9.43245291218e-05 0)
(-0.00174866774741 0.000129379694636 0)
(-0.00173304059527 0.00016540008937 0)
(-0.00171318496892 0.000204052126264 0)
(-0.00168895188647 0.000247111419639 0)
(-0.00166016438582 0.000296405442306 0)
(-0.0016266817439 0.000354125370839 0)
(-0.00158786984061 0.000423273488486 0)
(-0.0015419834737 0.000507905508901 0)
(-0.0014855200685 0.000613271761537 0)
(-0.0014123452488 0.000745653157935 0)
(-0.00131374466819 0.000910218010705 0)
(-0.00118068772989 0.00110568996793 0)
(-0.00100760505695 0.00131907812013 0)
(-0.000793441520876 0.00152879098269 0)
(-0.000541579770412 0.00170818701748 0)
(-0.000269369558143 0.00180830043096 0)
(-3.19441615685e-05 0.00176297577025 0)
(0.00013776773278 0.00161594776605 0)
(0.00027414608079 0.00145194441268 0)
(0.000402482601571 0.00127948942486 0)
(0.000531373226193 0.00107242103217 0)
(0.000680491911847 0.000794309532351 0)
(0.000730003777272 0.000548945864914 0)