/*--------------------------------*- C++ -*----------------------------------*\
| =========                 |                                                 |
| \\      /  F ield         | OpenFOAM: The Open Source CFD Toolbox           |
|  \\    /   O peration     | Version:  v1806                                 |
|   \\  /    A nd           | Web:      www.OpenFOAM.com                      |
|    \\/     M anipulation  |                                                 |
\*---------------------------------------------------------------------------*/
FoamFile
{
    version     2.0;
    format      ascii;
    class       surfaceScalarField;
    location    "66";
    object      phi;
}
// * * * * * * * * * * * * * * * * * * * * * * * * * * * * * * * * * * * * * //

dimensions      [0 3 -1 0 0 0 0];
oriented        oriented;


internalField   nonuniform List<scalar> 
12640
(
-2.13573610738e-07
2.16441729341e-07
-4.25056147389e-07
2.13669299012e-07
-6.27309976016e-07
2.03892518659e-07
-8.06382066062e-07
1.80303142739e-07
-9.26137038856e-07
1.21013414906e-07
-9.69782523807e-07
4.54562152383e-08
-9.74826239121e-07
6.84492461873e-09
-1.03961653296e-06
6.63904574954e-08
-1.17356339292e-06
1.35357397886e-07
-1.29497603978e-06
1.22568555084e-07
-1.40956917198e-06
1.15178068396e-07
-1.56394208604e-06
1.54722530725e-07
-1.70521939273e-06
1.4136019759e-07
-1.80440130901e-06
9.91869107296e-08
-1.87980402954e-06
7.55368914283e-08
-1.98608946819e-06
1.06906688376e-07
-2.10372322848e-06
1.18290132153e-07
-2.18525581631e-06
8.23609397007e-08
-2.212312914e-06
2.73486917055e-08
-2.19600859484e-06
-1.65926461109e-08
-2.2089197738e-06
1.22092815382e-08
-2.28148719051e-06
7.17840817282e-08
-2.38793626372e-06
1.05361273557e-07
-2.52109600179e-06
1.32011445345e-07
-2.6481608267e-06
1.25970304655e-07
-2.75493061924e-06
1.05761918778e-07
-2.87172077811e-06
1.15768066778e-07
-2.98078291033e-06
1.08169221956e-07
-3.05959486067e-06
7.77801998175e-08
-3.10821870162e-06
4.77764998916e-08
-3.17020362063e-06
6.08324860125e-08
-3.22954615287e-06
5.82595932329e-08
-3.23352314977e-06
3.58256491318e-09
-3.22362597195e-06
-1.01920336843e-08
-3.1740573132e-06
-5.03542411031e-08
-3.07922770913e-06
-9.44923464161e-08
-2.96779116584e-06
-1.11217151053e-07
-2.83458311028e-06
-1.34441360855e-07
-2.67888884139e-06
-1.58312278929e-07
-2.56373628078e-06
-1.19292277469e-07
-2.71748376285e-06
1.48454135802e-07
-2.97936141449e-06
2.574439384e-07
-3.03845795743e-06
5.54418363686e-08
-2.99231728809e-06
-4.93467328416e-08
-2.87684964738e-06
-1.18014685914e-07
-2.69129959988e-06
-1.87672020343e-07
-2.44313505501e-06
-2.50004081008e-07
-2.16935135842e-06
-2.761998913e-07
-1.93218939579e-06
-2.39546031354e-07
-1.81494161054e-06
-1.20316357907e-07
-1.92007004073e-06
1.01229592869e-07
-2.09898347822e-06
1.75504883305e-07
-2.07000679812e-06
-3.06413708396e-08
-1.90083059633e-06
-1.72833684151e-07
-1.56880929352e-06
-3.34460655236e-07
-1.02095685415e-06
-5.51330328785e-07
-6.0063727512e-07
-4.27447145779e-07
-5.5118955892e-07
-5.74952383711e-08
-5.64536157474e-07
5.82989506427e-09
-5.79235450844e-07
7.15920927301e-09
-7.09404795636e-07
1.22632293507e-07
-8.02051572225e-07
8.79561212633e-08
-6.38688555572e-07
-1.68215153245e-07
-4.99909391009e-07
-1.41636991502e-07
-3.67695526734e-07
-1.33903911324e-07
-2.4937920827e-07
-1.19454326554e-07
-1.29561866188e-07
-1.2078182469e-07
9.79899490939e-10
-1.31503387769e-07
1.41159284576e-07
-1.41208223234e-07
2.83752662242e-07
-1.43677030497e-07
4.12222435001e-07
-1.29584228476e-07
5.08238809569e-07
-9.70876165753e-08
5.60715357087e-07
-5.34729637591e-08
5.6249293173e-07
-2.72567283212e-09
5.29277429497e-07
3.23530647191e-08
4.69672922829e-07
5.8739526305e-08
4.10817633632e-07
5.79737146683e-08
3.09845404612e-07
1.00162166426e-07
1.94253617489e-07
1.14230581268e-07
1.93362542078e-07
-9.91921415497e-08
3.16616346731e-07
-2.30849766166e-07
3.46641516643e-07
-3.62374304921e-07
3.36304227678e-07
-5.11104957351e-07
3.2978758818e-07
-7.43119428162e-07
3.54299554442e-07
-9.56643252758e-07
2.60351014705e-07
-1.08681916449e-06
1.38768586828e-07
-1.18918239928e-06
1.70355290545e-07
-1.29151681866e-06
2.39120491382e-07
-1.41764404477e-06
2.4954008872e-07
-1.54480154932e-06
2.43031051908e-07
-1.63545612397e-06
2.45609647857e-07
-1.71872264247e-06
2.25023124965e-07
-1.8126553373e-06
1.93605900732e-07
-1.90950887021e-06
1.73357734772e-07
-2.02048560045e-06
2.18678168293e-07
-2.08535099718e-06
1.84239466803e-07
-2.02725007895e-06
2.44640416994e-08
-1.9625556902e-06
-3.74575784148e-08
-1.96770439984e-06
-1.20535774384e-08
-2.03379189602e-06
7.74477042081e-08
-2.21233990039e-06
2.48949359421e-07
-2.41296964565e-06
3.04928598634e-07
-2.51968722796e-06
2.37397008749e-07
-2.62477715246e-06
2.300476177e-07
-2.79319397156e-06
2.72931085766e-07
-2.91932654336e-06
2.41111599789e-07
-2.99513076675e-06
1.82874552211e-07
-3.05072241534e-06
1.32708335411e-07
-3.0879392914e-06
8.39326488547e-08
-3.08166611596e-06
5.38295794194e-08
-3.05192222997e-06
2.83308641514e-08
-2.97800572435e-06
-7.06633652514e-08
-2.89370768802e-06
-9.48082595009e-08
-2.89428386078e-06
-4.91138903793e-08
-2.77935097188e-06
-2.09976880215e-07
-2.62320815784e-06
-2.68533467041e-07
-2.60564284605e-06
-1.53908547601e-07
-2.63523923849e-06
-1.31905801313e-07
-2.55746874873e-06
-2.01421037666e-07
-1.97367225359e-06
-4.39622674826e-07
-1.31990043868e-06
-3.98821752846e-07
-1.13698428787e-06
-1.2987969659e-07
-1.09360049202e-06
-9.5162701901e-08
-1.08963916156e-06
-1.24638181396e-07
-1.11481677565e-06
-1.65273419424e-07
-1.15201464809e-06
-2.15955119358e-07
-1.19939409916e-06
-2.32195773427e-07
-1.22985495576e-06
-2.13042744593e-07
-1.15608003138e-06
-1.97852063153e-07
-9.3591669644e-07
-1.21932274867e-07
-8.10815633352e-07
4.72671292257e-08
-1.3175984389e-06
4.72224109101e-07
-1.82061529662e-06
3.26220073049e-07
-1.97858950505e-06
-1.80840332971e-07
-2.62206249875e-06
8.29713110594e-08
-3.40806773477e-06
3.39760903722e-07
-3.67224250227e-06
1.87824983579e-07
-3.6091858781e-06
-7.51653250834e-08
-3.17762064645e-06
-4.41155498187e-07
-2.07632177728e-06
-9.90759822439e-07
-1.15431248486e-06
-8.39744332816e-07
-7.68786652613e-07
-5.59008082289e-07
-5.75871938762e-07
-3.37222639555e-07
-4.06665754564e-07
-3.04660695035e-07
-2.58769812514e-07
-2.68442708619e-07
-1.2681166623e-07
-2.53660827621e-07
8.67599666041e-09
-2.67957900492e-07
1.53945534352e-07
-2.87497795814e-07
3.01088243477e-07
-2.91936178597e-07
4.28647122269e-07
-2.5826822359e-07
5.18517806998e-07
-1.8801827503e-07
5.77465065745e-07
-1.13427614191e-07
6.14183356691e-07
-4.04785197241e-08
6.12255023279e-07
3.32600395102e-08
5.79148250747e-07
9.08719592547e-08
5.02777885397e-07
1.33343430238e-07
3.96484969775e-07
2.05288370471e-07
2.18714571998e-07
2.90791531702e-07
4.11028139326e-07
-1.40716562572e-07
4.59047922622e-07
-1.89231463834e-07
3.96186514311e-07
-3.89653725744e-07
5.37761914073e-07
-6.57369667899e-07
5.98886030454e-07
-8.87500241896e-07
5.85897124246e-07
-9.74835128251e-07
3.48805545034e-07
-1.01115668721e-06
1.7603644412e-07
-1.12084734956e-06
2.81000037792e-07
-1.25923470703e-06
3.78301670884e-07
-1.39927755789e-06
3.90178548946e-07
-1.52835538091e-06
3.72528155047e-07
-1.62808049932e-06
3.46111404344e-07
-1.71125109519e-06
3.09294546386e-07
-1.79636234104e-06
2.79953277327e-07
-1.8180509097e-06
1.96255053981e-07
-1.62472977177e-06
2.62711115156e-08
-1.36626295542e-06
-7.41851350467e-08
-1.29627750034e-06
-4.57086424188e-08
-1.36605087184e-06
3.18331436223e-08
-1.63287702869e-06
2.53885759419e-07
-2.00467221131e-06
4.48096531142e-07
-2.21379654365e-06
4.57026993579e-07
-2.32505433768e-06
4.15031484638e-07
-2.52591363411e-06
4.37210540868e-07
-2.71888935289e-06
4.21902456498e-07
-2.8223246175e-06
3.75522182325e-07
-2.88734166343e-06
3.05190532316e-07
-2.94336256556e-06
2.38231039312e-07
-2.96774264241e-06
1.5627547326e-07
-2.98772573426e-06
1.03325183704e-07
-2.94963451292e-06
1.56683394431e-08
-2.87337820578e-06
-4.84595773197e-08
-2.8572085224e-06
-8.62887860466e-08
-2.6533643236e-06
-2.98243555981e-07
-2.43918183723e-06
-2.64349710447e-07
-2.49830281275e-06
-1.52257540241e-07
-2.37666693706e-06
-3.92625093702e-07
-2.21980715747e-06
-3.14178019184e-07
-2.50921589253e-06
1.5312366598e-07
-3.18574540732e-06
4.70289177992e-07
-3.94123981663e-06
3.10872004934e-07
-4.36071484003e-06
1.54086203392e-08
-4.45604945709e-06
-4.01862516577e-08
-4.49465273027e-06
-6.2546927481e-08
-4.52738072913e-06
-9.83635140138e-08
-4.55495860865e-06
-1.44644275134e-07
-4.58753910266e-06
-1.90892002894e-07
-4.61344880265e-06
-2.14402130437e-07
-4.62294434648e-06
-2.11816548316e-07
-4.63081320913e-06
-1.97904564313e-07
-4.56107350552e-06
-2.00209772983e-07
-4.18259410639e-06
-3.40180212872e-07
-3.04690651313e-06
-6.7089645303e-07
-2.07161851762e-06
-6.54741981537e-07
-2.23977641181e-06
-1.95725818113e-08
-2.88262792279e-06
7.15046380218e-07
-3.35199850725e-06
7.95059909306e-07
-3.5347433349e-06
3.56419232958e-07
-3.48294157422e-06
-1.40189300998e-07
-3.19757999069e-06
-7.38168555722e-07
-2.90850757398e-06
-1.28962440449e-06
-2.19981571191e-06
-1.55665202554e-06
-1.23496068008e-06
-1.52957875385e-06
-6.89520007675e-07
-8.85067505454e-07
-4.40192870599e-07
-5.55398280038e-07
-2.85742054732e-07
-4.23947559387e-07
-1.35048171591e-07
-4.05293663608e-07
1.68522647121e-08
-4.2077093738e-07
1.68369249764e-07
-4.40003584396e-07
3.17727981334e-07
-4.42368359947e-07
4.57548323278e-07
-3.99169646923e-07
5.8331916835e-07
-3.14847584476e-07
6.77302950482e-07
-2.08478820354e-07
7.10393858269e-07
-7.45973723418e-08
6.86328082416e-07
5.63403779006e-08
6.25438127098e-07
1.50780477621e-07
5.40174613213e-07
2.17659068909e-07
4.33691291049e-07
3.10933346979e-07
2.01454502146e-07
5.21581605808e-07
6.1216401565e-07
-9.52101431922e-08
5.54858201702e-07
-1.01986705631e-07
4.03703260249e-07
-3.73251888278e-07
8.10340027946e-07
-5.66735385361e-07
7.94060811476e-07
-5.002181149e-07
5.20419012035e-07
-3.59276042402e-07
2.08158553015e-07
-5.16274399455e-07
3.33223432123e-07
-8.79626210722e-07
6.4459192161e-07
-1.16382389513e-06
6.62876673125e-07
-1.34769070811e-06
5.7451925743e-07
-1.50241248353e-06
5.28179024902e-07
-1.61555380972e-06
4.60572553131e-07
-1.6395968358e-06
3.34845749699e-07
-1.49045933485e-06
1.32240627393e-07
-1.26024499634e-06
-3.32128327865e-08
-1.16486612052e-06
-6.91833585052e-08
-1.21516198296e-06
-2.4265835381e-08
-1.40122777307e-06
1.39708356829e-07
-1.76358406819e-06
3.93245961073e-07
-2.05073228802e-06
5.4013940514e-07
-2.16261887516e-06
5.59082614618e-07
-2.29831852937e-06
5.91672784141e-07
-2.47996881494e-06
5.9568426849e-07
-2.60855935696e-06
5.64842627553e-07
-2.69933142849e-06
5.12009688521e-07
-2.76076001216e-06
4.36152502977e-07
-2.82703917392e-06
3.70996414609e-07
-2.86221076234e-06
2.72642762896e-07
-2.89934963088e-06
1.92950540675e-07
-2.87506942623e-06
7.89033874804e-08
-2.86141269559e-06
1.7251864131e-09
-2.78744676262e-06
-1.2169171612e-07
-2.57246669993e-06
-3.01362310142e-07
-2.60937777809e-06
-2.62232858986e-07
-2.55296452514e-06
-3.22380778903e-07
-2.45333667069e-06
-2.54924737471e-07
-2.91079204846e-06
6.01146401246e-08
-3.56000228371e-06
3.28915716867e-07
-3.9500933319e-06
5.3749367078e-07
-4.04359716342e-06
5.58699768499e-07
-4.11402359561e-06
3.76103454122e-07
-4.27531634795e-06
1.71049166315e-07
-4.38546593221e-06
6.40884603429e-08
-4.4503499696e-06
-3.92375250145e-09
-4.48928050153e-06
-6.59977431941e-08
-4.51477306706e-06
-1.26291297897e-07
-4.5393204263e-06
-1.74023462935e-07
-4.56291570921e-06
-1.99078901856e-07
-4.58135646669e-06
-2.01970843927e-07
-4.57911199168e-06
-2.08851328666e-07
-4.51782854643e-06
-2.70031811356e-07
-4.44220786641e-06
-4.24591793741e-07
-4.52809062964e-06
-5.94604731361e-07
-4.65090676832e-06
-5.42157271434e-07
-4.47633368084e-06
-2.04428630291e-07
-3.91341052194e-06
1.41915101468e-07
-3.28775345995e-06
1.58745429247e-07
-2.83488266778e-06
-1.064538602e-07
-2.56065652346e-06
-4.23014181708e-07
-2.44739760872e-06
-8.5901752352e-07
-2.34959186616e-06
-1.39402337376e-06
-2.04911389068e-06
-1.86325902424e-06
-1.51356310937e-06
-2.069653564e-06
-8.61500722886e-07
-1.53948571844e-06
-5.37955185939e-07
-8.80414054509e-07
-3.2383373604e-07
-6.39081745277e-07
-1.42647111813e-07
-5.87343936172e-07
3.22454121873e-08
-5.965598666e-07
2.05255452943e-07
-6.13989586892e-07
3.84556085288e-07
-6.22719096245e-07
5.65569503484e-07
-5.81274427855e-07
7.03146773777e-07
-4.53491521827e-07
7.4828180303e-07
-2.54564009686e-07
7.32097556663e-07
-5.92963425983e-08
6.92852480928e-07
9.47242579869e-08
6.07904320449e-07
2.34887568616e-07
4.66509031577e-07
3.5834527175e-07
3.31007333485e-07
4.45718572722e-07
1.75889694386e-07
6.76287636046e-07
7.87480808601e-07
2.13188248771e-10
5.55475440487e-07
-9.86627863082e-08
5.03151911321e-07
-3.30387841116e-07
1.04352347938e-06
-4.072302249e-07
8.72368827198e-07
-3.06091176078e-07
4.19866061773e-07
-3.78227014313e-07
2.80369362842e-07
-6.68178159704e-07
6.23193340129e-07
-9.34953438398e-07
9.11680220813e-07
-1.10791601315e-06
8.36254976586e-07
-1.27376108699e-06
7.41179380228e-07
-1.41513836745e-06
6.70979045385e-07
-1.39564167453e-06
4.42450187257e-07
-1.22179790238e-06
1.62173224187e-07
-1.11188082018e-06
2.28662759262e-08
-1.15145218943e-06
6.19866261998e-09
-1.28877970838e-06
6.76831788612e-08
-1.54597177299e-06
2.32247435877e-07
-1.86590014512e-06
4.58725448138e-07
-2.01157423844e-06
5.38161232649e-07
-2.03675270422e-06
5.64543285964e-07
-2.17293907712e-06
6.9443809865e-07
-2.34477519846e-06
7.62625845354e-07
-2.48007724268e-06
7.30236949335e-07
-2.57069782621e-06
6.54984572211e-07
-2.64198749514e-06
5.82727759961e-07
-2.72183398614e-06
5.15789968481e-07
-2.73793721541e-06
3.86397378759e-07
-2.77926860294e-06
3.13680326258e-07
-2.76521091925e-06
1.78828274267e-07
-2.7689051189e-06
8.25955649303e-08
-2.70913027985e-06
-5.7716144202e-08
-2.66838052083e-06
-1.62515942618e-07
-2.81298006735e-06
-1.57437841465e-07
-2.6884080206e-06
-3.88853901459e-07
-2.75342496664e-06
-2.60886836216e-07
-3.14355549778e-06
1.30071259554e-07
-3.56398898145e-06
4.74665350087e-07
-3.92238557779e-06
6.81621687279e-07
-4.07161007726e-06
6.81602541385e-07
-4.09477762286e-06
5.76981265732e-07
-4.1600411345e-06
4.36194397501e-07
-4.27198080395e-06
2.77390371502e-07
-4.36723909797e-06
1.53326171051e-07
-4.43142397936e-06
5.39611190692e-08
-4.4723200497e-06
-3.17744050187e-08
-4.50048588802e-06
-1.05252076874e-07
-4.51997400841e-06
-1.62268853988e-07
-4.53745483794e-06
-1.8986964955e-07
-4.54612905612e-06
-2.01895509904e-07
-4.52996015206e-06
-2.33644384579e-07
-4.49060135382e-06
-3.18226285486e-07
-4.47360666457e-06
-4.50689438237e-07
-4.51861345896e-06
-5.58922800187e-07
-4.53348464734e-06
-5.36600965596e-07
-4.37947207931e-06
-3.67761853946e-07
-4.04971270817e-06
-1.97483838475e-07
-3.63082308301e-06
-2.69887647551e-07
-3.14844676715e-06
-5.97986471394e-07
-2.73922330945e-06
-8.39883620123e-07
-2.56462753694e-06
-1.03956780222e-06
-2.43132694846e-06
-1.53271324952e-06
-2.23721402594e-06
-2.06184999402e-06
-1.9798608971e-06
-2.33024464488e-06
-1.01297969826e-06
-2.50885916984e-06
-6.78262081268e-07
-1.21658274307e-06
-4.19524147845e-07
-8.98865956707e-07
-1.73423466767e-07
-8.34383956053e-07
5.27320761996e-08
-8.23613405492e-07
2.64017243825e-07
-8.26204091206e-07
4.83812253798e-07
-8.43515739055e-07
6.86394788657e-07
-7.84874887338e-07
7.81824734344e-07
-5.49830680123e-07
7.96090857457e-07
-2.69639644848e-07
7.89208286926e-07
-5.31877499385e-08
7.39851466272e-07
1.43295161901e-07
6.24345399452e-07
3.49675693308e-07
4.93729305384e-07
4.88411390774e-07
3.46806546164e-07
5.92274691591e-07
1.63803735083e-07
8.58349458175e-07
9.51180755091e-07
3.74116848616e-09
5.51795688743e-07
-1.52165110084e-07
6.59740059944e-07
-2.52784603475e-07
1.14544355383e-06
-2.7183567461e-07
8.92279317813e-07
-2.31685588444e-07
3.79968998101e-07
-4.65511519947e-07
5.14304893979e-07
-8.03885708478e-07
9.61855566301e-07
-9.4174328797e-07
1.04985276586e-06
-1.05657819165e-06
9.51871741557e-07
-1.12811360571e-06
8.14076573219e-07
-1.0831539861e-06
6.27294487003e-07
-9.13798364992e-07
2.73995979698e-07
-8.79183199671e-07
1.27889922404e-07
-9.65175544605e-07
1.08696613812e-07
-1.12798594039e-06
1.68549724978e-07
-1.42000399652e-06
3.58973432312e-07
-1.76174978758e-06
5.7318763221e-07
-1.86520825988e-06
5.61669574298e-07
-1.85516264302e-06
5.27544627821e-07
-2.02681199664e-06
7.35522049506e-07
-2.21795945346e-06
8.84872330183e-07
-2.33498741387e-06
8.79106980162e-07
-2.43076832878e-06
8.25594845292e-07
-2.53381785997e-06
7.57633436645e-07
-2.61567453918e-06
6.64532604858e-07
-2.57449917749e-06
4.7423665589e-07
-2.61564801234e-06
4.27457004968e-07
-2.60282393229e-06
3.00789818301e-07
-2.60401954994e-06
1.79866091929e-07
-2.52533417894e-06
3.99220461944e-09
-2.45651654218e-06
-1.26406927192e-07
-2.46927073284e-06
-1.50517776486e-07
-2.42253908006e-06
-2.0584206008e-07
-2.71063419313e-06
-1.03967539995e-07
-3.14115955137e-06
1.6445238593e-07
-3.58004138908e-06
5.63198591117e-07
-3.8957290905e-06
7.84929400078e-07
-4.02933597832e-06
8.10372428457e-07
-4.07152250543e-06
7.19303998598e-07
-4.12114582869e-06
6.2196189286e-07
-4.19328166655e-06
5.03200533952e-07
-4.28496818231e-06
3.63396595757e-07
-4.36789965054e-06
2.30209722029e-07
-4.43066396246e-06
1.10375819753e-07
-4.47444816342e-06
5.34446928946e-09
-4.5042735709e-06
-8.25560201503e-08
-4.52868759156e-06
-1.45566183031e-07
-4.54464959134e-06
-1.82141054618e-07
-4.53998020027e-06
-2.15082777483e-07
-4.50416409545e-06
-2.77920678735e-07
-4.44815086277e-06
-3.82660277718e-07
-4.40068241853e-06
-5.06716574496e-07
-4.37511594891e-06
-5.93250429166e-07
-4.34127601723e-06
-5.79394132534e-07
-4.25300116582e-06
-4.65091563002e-07
-4.10415505693e-06
-3.55436887256e-07
-3.97716423197e-06
-4.06144388698e-07
-3.91912208647e-06
-6.64935760042e-07
-3.69565725077e-06
-1.07126081501e-06
-3.3608202339e-06
-1.38080177918e-06
-3.05831549259e-06
-1.84018343411e-06
-2.57999222704e-06
-2.5437881386e-06
-2.13138994266e-06
-2.78173331444e-06
-1.32275543806e-06
-3.32044708782e-06
-7.96355935756e-07
-1.74429595462e-06
-5.17716224588e-07
-1.17844330234e-06
-2.12957800113e-07
-1.13998800738e-06
8.40412293779e-08
-1.12150770439e-06
3.62150633544e-07
-1.10518984731e-06
6.2537938004e-07
-1.10763699767e-06
7.95906136738e-07
-9.56264103345e-07
8.53992674375e-07
-6.0867463892e-07
8.91245838945e-07
-3.07604697243e-07
8.94801600802e-07
-5.74813780198e-08
8.31234709362e-07
2.06156622885e-07
7.05846140427e-07
4.74446800485e-07
5.52336292576e-07
6.4141157345e-07
3.85848241673e-07
7.58119373831e-07
1.97346212647e-07
1.04666347887e-06
1.14797203206e-06
-5.08494854042e-08
6.03107124433e-07
-2.7069658357e-07
8.80229638808e-07
-3.46607766388e-07
1.22259461966e-06
-2.43978814116e-07
7.90412500764e-07
-2.97364200132e-07
4.3349136196e-07
-6.33648993089e-07
8.50785188011e-07
-8.35374322515e-07
1.16390147893e-06
-9.19702180364e-07
1.13497246736e-06
-9.40439481965e-07
9.73561651312e-07
-9.97072324673e-07
8.72006502337e-07
-8.89975994955e-07
5.2129167786e-07
-8.10431078231e-07
1.94815783619e-07
-8.78439414295e-07
1.95856214452e-07
-9.93384143308e-07
2.23151352742e-07
-1.24114628066e-06
4.15576961891e-07
-1.58965982895e-06
7.06953634711e-07
-1.68175289013e-06
6.64998441627e-07
-1.64429335127e-06
5.23808435916e-07
-1.82995571763e-06
7.12629530442e-07
-2.06262560008e-06
9.67619667925e-07
-2.20855590846e-06
1.03040409792e-06
-2.31092248355e-06
9.81118326928e-07
-2.39895993276e-06
9.1328094152e-07
-2.42562583572e-06
7.84350479166e-07
-2.39735790506e-06
6.36225443171e-07
-2.40663620373e-06
4.83416116685e-07
-2.37487088304e-06
3.95550293561e-07
-2.3974059932e-06
3.23037244752e-07
-2.3645628811e-06
1.47067958808e-07
-2.28381498424e-06
-7.68521506658e-08
-2.30994988619e-06
-1.00916057463e-07
-2.39503724663e-06
-6.6640170364e-08
-2.5186141747e-06
-8.49259864472e-08
-2.89785037677e-06
2.70944787298e-07
-3.49283382509e-06
7.54073539794e-07
-3.83780587584e-06
9.03072929775e-07
-3.97119761265e-06
9.13841117995e-07
-4.0206839848e-06
8.55687862102e-07
-4.0799998519e-06
7.74326507448e-07
-4.15049267198e-06
6.87770375069e-07
-4.23088656645e-06
5.78414059206e-07
-4.31903089763e-06
4.45916443597e-07
-4.39538743404e-06
3.00589688162e-07
-4.45418310366e-06
1.62906559009e-07
-4.4980434883e-06
4.25976175211e-08
-4.53363091457e-06
-5.41219569426e-08
-4.56199066034e-06
-1.24905445523e-07
-4.57117773444e-06
-1.81089859986e-07
-4.54500890805e-06
-2.49371885709e-07
-4.47947306603e-06
-3.51449474855e-07
-4.38998556916e-06
-4.79813661913e-07
-4.30176935411e-06
-6.0262632649e-07
-4.22808645374e-06
-6.74969904836e-07
-4.1657324727e-06
-6.50383248398e-07
-4.11473242476e-06
-5.25174543173e-07
-4.10411336723e-06
-3.75593452782e-07
-4.22577873954e-06
-2.9403348705e-07
-4.53941352429e-06
-3.60871838238e-07
-4.9760803024e-06
-6.43630701833e-07
-5.23981466466e-06
-1.12448924518e-06
-5.22068801445e-06
-1.86493423343e-06
-4.96429607504e-06
-2.8045263354e-06
-3.9572175302e-06
-3.79265509799e-06
-2.51483989711e-06
-4.7654041475e-06
-9.90679925108e-07
-3.26961903854e-06
-6.23141106756e-07
-1.54672471749e-06
-2.42078687361e-07
-1.52189578035e-06
1.46907728731e-07
-1.51127183162e-06
4.98312761577e-07
-1.4573725508e-06
7.61046793117e-07
-1.37110317339e-06
8.91691461036e-07
-1.08758511818e-06
9.79382586291e-07
-6.97014480458e-07
1.05093039055e-06
-3.79854609487e-07
1.05389094454e-06
-6.11362273464e-08
9.70698591489e-07
2.88668414735e-07
8.42419916507e-07
6.02117794403e-07
6.56042510883e-07
8.27258615242e-07
4.45071486897e-07
9.68748104034e-07
2.44607917432e-07
1.24607153885e-06
1.39250625869e-06
-1.04723157322e-07
7.08006689834e-07
-3.3402683757e-07
1.11033488811e-06
-3.28350685851e-07
1.21751739124e-06
-1.60412172512e-07
6.22711834947e-07
-3.64004075541e-07
6.37269912349e-07
-6.87820964228e-07
1.1749774269e-06
-7.88084818859e-07
1.26487637947e-06
-8.77766450507e-07
1.22547317888e-06
-7.91571000956e-07
8.88613221862e-07
-7.78080977279e-07
8.59449606548e-07
-6.71516700719e-07
4.15174222068e-07
-7.81208078055e-07
3.04539877237e-07
-8.76552045057e-07
2.90825861133e-07
-1.05669811092e-06
4.02825152937e-07
-1.36450343122e-06
7.22921754662e-07
-1.50649419264e-06
8.48630240689e-07
-1.46558879013e-06
6.23929836247e-07
-1.62425321242e-06
6.82131328781e-07
-1.87445374361e-06
9.62345026717e-07
-2.03681127986e-06
1.12962034464e-06
-2.14451774511e-06
1.13784771892e-06
-2.23878918497e-06
1.07509801944e-06
-2.34902355288e-06
1.02364719777e-06
-2.42913766021e-06
8.64584723149e-07
-2.36713564635e-06
5.74184150503e-07
-2.39195785842e-06
5.08346995271e-07
-2.36413646121e-06
3.67553448678e-07
-2.24784513526e-06
2.06651349332e-07
-2.22159028887e-06
1.20396872075e-07
-2.43294454472e-06
1.34117090517e-07
-2.53671096976e-06
1.82038351991e-09
-2.45152607395e-06
-1.54025762124e-07
-2.81610757682e-06
2.76258972997e-07
-3.39010488984e-06
8.40072794256e-07
-3.70971064008e-06
1.0690018347e-06
-3.86868146868e-06
1.05793218079e-06
-3.94311990695e-06
9.84441316406e-07
-4.01165844732e-06
9.2038193389e-07
-4.10260657882e-06
8.6110486803e-07
-4.19777027002e-06
7.7823304478e-07
-4.28542688205e-06
6.60861847116e-07
-4.3668067305e-06
5.21710847618e-07
-4.43978004406e-06
3.67674387749e-07
-4.49681817605e-06
2.13788170639e-07
-4.54046069094e-06
7.96609178309e-08
-4.57824114487e-06
-2.34168071709e-08
-4.60525977616e-06
-1.05472158718e-07
-4.60031398858e-06
-1.93971834742e-07
-4.54640671663e-06
-3.11102247496e-07
-4.44810082413e-06
-4.57085816984e-07
-4.32273928247e-06
-6.1228571245e-07
-4.1948973166e-06
-7.37471251492e-07
-4.08739857499e-06
-7.89781211868e-07
-4.01917982092e-06
-7.2667005053e-07
-4.01850672512e-06
-5.35004530096e-07
-4.14890078705e-06
-2.5538485807e-07
-4.51642714842e-06
6.2761464953e-08
-5.19954643253e-06
3.11922207894e-07
-6.04217713961e-06
1.89545017923e-07
-6.65106015852e-06
-5.23953411006e-07
-7.07860600457e-06
-1.44328953681e-06
-7.22753962923e-06
-2.65999324695e-06
-6.58150819634e-06
-4.44196471372e-06
-5.12728768864e-06
-6.22195267999e-06
-2.21179263611e-06
-6.18687732584e-06
-8.89130656959e-07
-2.87014435335e-06
-2.63018574296e-07
-2.14856820969e-06
2.32096669741e-07
-2.00705268756e-06
6.23159319369e-07
-1.84902959604e-06
8.75532024285e-07
-1.62405431603e-06
1.031348724e-06
-1.2439846186e-06
1.17894300584e-06
-8.45265475384e-07
1.27330940715e-06
-4.74883502009e-07
1.2713733256e-06
-5.99167493704e-08
1.17798265401e-06
3.81399621041e-07
1.02853671747e-06
7.50955166304e-07
8.11761339029e-07
1.04343505349e-06
5.30737037941e-07
1.24898281799e-06
2.80087414736e-07
1.49658397199e-06
1.67192872141e-06
-1.5147348337e-07
8.60006106257e-07
-3.44745690247e-07
1.3043314158e-06
-2.47799694972e-07
1.12128391871e-06
-2.31060404393e-07
6.06208576835e-07
-5.15914465103e-07
9.2246768446e-07
-6.42946999758e-07
1.30259684515e-06
-7.28581160762e-07
1.35144795303e-06
-7.90216854988e-07
1.28814744483e-06
-7.53034485845e-07
8.52135472095e-07
-7.38806108963e-07
8.46074620483e-07
-7.18781428545e-07
3.95244249659e-07
-8.03679801159e-07
3.89304652735e-07
-9.18607736632e-07
4.05363436088e-07
-1.16021365628e-06
6.43856856719e-07
-1.45948984053e-06
1.02208393402e-06
-1.46260426001e-06
8.51869529486e-07
-1.47832747997e-06
6.39493473446e-07
-1.66105990669e-06
8.64441479149e-07
-1.86558965975e-06
1.16651559819e-06
-1.98817175081e-06
1.25195954384e-06
-2.06764901352e-06
1.21700381024e-06
-2.10207237738e-06
1.10971227293e-06
-2.12078879577e-06
1.04272494761e-06
-2.13052524546e-06
8.74610088637e-07
-2.1436134805e-06
5.87641587142e-07
-2.17444613467e-06
5.39160846481e-07
-2.27156009439e-06
4.64537557466e-07
-2.38873174176e-06
3.23499918608e-07
-2.48347741241e-06
2.1499177686e-07
-2.51195919819e-06
1.61979020206e-07
-2.63257268389e-06
1.20726519471e-07
-2.96623563816e-06
1.76437705753e-07
-3.30453741239e-06
6.10154358345e-07
-3.61761102179e-06
1.14857343037e-06
-3.76175603849e-06
1.20938584773e-06
-3.84568162782e-06
1.13843153602e-06
-3.93137583041e-06
1.0667209833e-06
-4.0228420663e-06
1.00812516787e-06
-4.12723683187e-06
9.61249280227e-07
-4.23768407642e-06
8.8389916461e-07
-4.34078579991e-06
7.58802395075e-07
-4.42800131275e-06
6.03474939274e-07
-4.50102610224e-06
4.35057643044e-07
-4.56045557464e-06
2.67273070364e-07
-4.60212239101e-06
1.14850396065e-07
-4.6254912517e-06
-7.08426716696e-09
-4.63207146111e-06
-1.06634240883e-07
-4.60589548443e-06
-2.27854539739e-07
-4.52779514174e-06
-3.96568740212e-07
-4.40113223028e-06
-5.90658436308e-07
-4.24359477547e-06
-7.75917159268e-07
-4.07239299106e-06
-9.14238729237e-07
-3.91682453864e-06
-9.51604817042e-07
-3.82393686595e-06
-8.27364667722e-07
-3.86139742051e-06
-5.07177490415e-07
-4.09545529062e-06
-3.22191829437e-08
-4.63188335939e-06
5.87982362497e-07
-5.66141980254e-06
1.33041362208e-06
-7.11894306478e-06
1.6364767115e-06
-8.37463917473e-06
7.2355883044e-07
-8.7497955206e-06
-1.07399869837e-06
-8.60391608903e-06
-2.8096287819e-06
-8.55359286813e-06
-4.49491441316e-06
-8.2619704678e-06
-6.51599220473e-06
-5.83115550101e-06
-8.61934254491e-06
-1.89038758315e-06
-6.81170135366e-06
-2.30952968956e-07
-3.80862487693e-06
3.65496804946e-07
-2.60393025087e-06
7.58172732235e-07
-2.24215156728e-06
1.02800618121e-06
-1.89434491729e-06
1.25211392311e-06
-1.46864480183e-06
1.45491170167e-06
-1.04865034684e-06
1.56134681039e-06
-5.82043849582e-07
1.54780100464e-06
-4.70372917562e-08
1.43989297196e-06
4.88626951892e-07
1.25242457937e-06
9.37757249414e-07
9.90759039741e-07
1.30449388873e-06
6.44362822701e-07
1.59499679311e-06
3.10864454667e-07
1.82886558349e-06
1.98275993102e-06
-2.00024721391e-07
1.06031053323e-06
-3.65168361797e-07
1.47001483265e-06
-2.28425667093e-07
9.84937453932e-07
-3.01574657438e-07
6.79716652718e-07
-5.6997875306e-07
1.19145281644e-06
-5.58931812246e-07
1.29246863744e-06
-6.50695273608e-07
1.44400237583e-06
-6.11802056658e-07
1.25013742447e-06
-6.6488360764e-07
9.05778827027e-07
-6.01527785524e-07
7.82957209216e-07
-6.93502327282e-07
4.87249696733e-07
-8.06885324467e-07
5.02341871183e-07
-9.41950047738e-07
5.40101716758e-07
-1.18593116687e-06
8.87767090403e-07
-1.31975252428e-06
1.15589360939e-06
-1.25875808938e-06
7.90903059782e-07
-1.40968333896e-06
7.90239648611e-07
-1.62714692148e-06
1.08162309816e-06
-1.80566676685e-06
1.34479552291e-06
-1.94044759362e-06
1.38648079358e-06
-2.02115935456e-06
1.29807273072e-06
-2.10087685194e-06
1.18974302431e-06
-2.09379476024e-06
1.03610386933e-06
-2.06766978915e-06
8.48988897903e-07
-2.18137223042e-06
7.01459211001e-07
-2.16077498448e-06
5.1854757179e-07
-2.05410069282e-06
3.57986858582e-07
-2.04145141178e-06
3.10777414723e-07
-2.17153203587e-06
3.44688899496e-07
-2.42197416129e-06
4.11270645287e-07
-2.6125490101e-06
3.09222392021e-07
-2.87306701235e-06
4.33599308961e-07
-3.41184634335e-06
1.14403719556e-06
-3.63982657029e-06
1.37286538686e-06
-3.73951493237e-06
1.30600284394e-06
-3.84651056373e-06
1.24241090252e-06
-3.95803118774e-06
1.17491105924e-06
-4.06423772014e-06
1.11061530385e-06
-4.16901538638e-06
1.06182564528e-06
-4.28283501928e-06
9.93087755551e-07
-4.39823386829e-06
8.69208016018e-07
-4.50127195134e-06
7.01297531894e-07
-4.58519109228e-06
5.13560479183e-07
-4.64775247481e-06
3.23939459187e-07
-4.68765953659e-06
1.4828366667e-07
-4.69972909633e-06
-2.33952306752e-09
-4.67228881527e-06
-1.41797171845e-07
-4.59776042025e-06
-3.1002988997e-07
-4.47951765471e-06
-5.22021036515e-07
-4.3241091467e-06
-7.5227046302e-07
-4.13754636579e-06
-9.67850459302e-07
-3.93087359952e-06
-1.12665936121e-06
-3.72527671928e-06
-1.16276429668e-06
-3.58614747791e-06
-9.73194121013e-07
-3.62595621046e-06
-4.76590954974e-07
-3.97544102725e-06
3.05946498901e-07
-4.78016323704e-06
1.3810604479e-06
-6.09460585196e-06
2.63350586234e-06
-7.72701481932e-06
3.25950730248e-06
-9.23988533558e-06
2.22897779144e-06
-1.02378991708e-05
-8.07394994463e-08
-1.02784649077e-05
-2.77214108701e-06
-9.85396128505e-06
-4.92164912921e-06
-9.42006000137e-06
-6.95168407484e-06
-9.25661652428e-06
-8.78433942407e-06
-5.98533450486e-06
-1.00845551291e-05
-1.4375383818e-06
-8.35718061341e-06
4.72019049863e-07
-4.51393701042e-06
8.89101341742e-07
-2.65957561971e-06
1.23403747923e-06