/*--------------------------------*- C++ -*----------------------------------*\
| =========                 |                                                 |
| \\      /  F ield         | OpenFOAM: The Open Source CFD Toolbox           |
|  \\    /   O peration     | Version:  v1806                                 |
|   \\  /    A nd           | Web:      www.OpenFOAM.com                      |
|    \\/     M anipulation  |                                                 |
\*---------------------------------------------------------------------------*/
FoamFile
{
    version     2.0;
    format      ascii;
    class       volScalarField;
    location    "54";
    object      p;
}
// * * * * * * * * * * * * * * * * * * * * * * * * * * * * * * * * * * * * * //

dimensions      [0 2 -2 0 0 0 0];


internalField   nonuniform List<scalar> 
6400
(
0.149468280182
0.149470081418
0.149475103596
0.149484223015
0.149496288451
0.149510833028
0.149528228888
0.149549949126
0.149574991569
0.149601499754
0.149635326885
0.149679430951
0.149727859303
0.149780973825
0.149841443406
0.149911942964
0.149990806088
0.150076117152
0.150168613073
0.150265507987
0.1503585889
0.150444640929
0.150526112643
0.150607866007
0.150694759998
0.150786460432
0.150878473465
0.150968347682
0.151057098605
0.151146967526
0.151240112399
0.151335680947
0.151427224976
0.151510400338
0.151586333065
0.151651829666
0.151702428565
0.151746743798
0.151786600546
0.151813835656
0.151830441996
0.151840582873
0.151848022696
0.151853736299
0.151858711448
0.151863345434
0.151867820194
0.151872315835
0.15187695554
0.15188176033
0.151887185176
0.151892070369
0.151897026484
0.151902162366
0.15190769642
0.15191465179
0.151921597439
0.151923820299
0.15192309409
0.151919517242
0.151911548286
0.151890596535
0.151865510551
0.151825416196
0.151737651346
0.151574639827
0.151337649287
0.151073206601
0.150825382339
0.150604771016
0.150405147436
0.15021541858
0.150027893877
0.149851941108
0.149685585501
0.149534328989
0.149402433781
0.14931331447
0.149254624049
0.149229189591
0.149465391933
0.149467192631
0.149471376376
0.149480274473
0.149494092844
0.149510691869
0.149528994199
0.14954903591
0.149572007159
0.149598941073
0.149632385886
0.149674238056
0.149722965635
0.149777999688
0.149839738084
0.149908566328
0.14998632409
0.150072460273
0.150168299875
0.150269413871
0.150361722817
0.150445422596
0.15052555389
0.150604913879
0.150691501242
0.150785163166
0.150876282009
0.15096622053
0.151056638977
0.151148499219
0.151240949549
0.151336546852
0.151431819531
0.151517098118
0.151595215039
0.151661313268
0.151712906996
0.151757923057
0.151796269687
0.151820813515
0.151834740077
0.151844300629
0.151850892796
0.151855492344
0.151859761615
0.151863986718
0.151868366349
0.151872840689
0.15187720868
0.151881368972
0.151885426868
0.151889692418
0.151895662063
0.151902107457
0.151908804161
0.151917283377
0.151921176988
0.151922480848
0.151921985917
0.151919766237
0.15191630822
0.151904988699
0.151875372125
0.1518356741
0.151747253272
0.151585103821
0.151344398399
0.151077087474
0.150827439903
0.150604317948
0.15040204566
0.150208600766
0.150014977858
0.149830297804
0.149660800605
0.149509442369
0.149383714577
0.149294092916
0.14923493477
0.149215051198
0.149457707553
0.149460868069
0.149464132554
0.1494722672
0.149485948299
0.149505217762
0.149526505553
0.149546340573
0.149567627412
0.149593754909
0.149626593397
0.149667481887
0.149716280921
0.149772197907
0.149834594809
0.149900080599
0.149977114797
0.150076769395
0.150179396663
0.150279239452
0.150366519814
0.150440453194
0.150516447946
0.15060093903
0.150687440484
0.150777433741
0.150870537634
0.150964163208
0.151057468833
0.151152711364
0.151247557806
0.151345470714
0.151447373933
0.151534174808
0.151612459071
0.151684420325
0.151736688908
0.151780759922
0.151815386048
0.151833914899
0.151842825463
0.151847422044
0.151851349668
0.151855520661
0.151859878675
0.151864290725
0.151868874456
0.151873482721
0.151877971485
0.151882359418
0.151886789581
0.151891167643
0.151895146186
0.151899835234
0.151909377405
0.151918265865
0.151922163439
0.151923705782
0.151923284662
0.151920945329
0.151916163743
0.151906434803
0.151888798767
0.151855709481
0.151762351469
0.151593963222
0.151358610175
0.151094088073
0.150837155626
0.150604767486
0.150392532391
0.150188430181
0.14998919011
0.149801112101
0.149626376691
0.14947205011
0.149347701436
0.14925713361
0.149199066026
0.149177524712
0.149448061144
0.149451015839
0.149452752194
0.149460332555
0.149472491043
0.149491887165
0.149521558161
0.149541042159
0.149560785028
0.149585474112
0.149617743519
0.149658205649
0.149707181744
0.149762573083
0.149827426553
0.149905502655
0.149994996302
0.150093733676
0.150190467894
0.15027490055
0.150352343702
0.15042912179
0.15050675599
0.150588482295
0.150675418111
0.150768027967
0.150865477753
0.150963284326
0.151062072305
0.151160531895
0.151261833434
0.151364384314
0.151469100579
0.151570408092
0.151647948377
0.15171661103
0.151772741832
0.1518091038
0.151828434868
0.151836967238
0.151842361943
0.151847127902
0.151851379938
0.151855642902
0.151860105498
0.151864660511
0.151869326595
0.151873986075
0.151878475669
0.151882852101
0.151887286443
0.15189197284
0.151897824469
0.151905319019
0.151912654254
0.151918857133
0.151924380924
0.151928200678
0.151929021618
0.15192677935
0.151921539448
0.15191174929
0.151895444691
0.151863858664
0.151780190122
0.151621988007
0.151386673493
0.151116022606
0.150847715057
0.150602096444
0.150379813814
0.150170459909
0.149966242919
0.149762788914
0.149570244479
0.149410359566
0.149287827293
0.149187200332
0.149115620396
0.149086156373
0.1494334602
0.149433093201
0.149435327162
0.149443336123
0.149456751349
0.149474915508
0.149501034479
0.149523677095
0.149545976196
0.149572176573
0.149604482364
0.149645026431
0.149695923491
0.149761215988
0.149839304369
0.149922658919
0.150009650305
0.150096461533
0.15017789506
0.150257882293
0.150337977784
0.150414267297
0.150491130391
0.150573725813
0.150662586545
0.150759257085
0.150860261319
0.150964875513
0.151068780536
0.151175620963
0.151282067336
0.151393851472
0.151513491432
0.15160863133
0.151691115435
0.151757656255
0.151798315401
0.151823077898
0.151830918925
0.151836801299
0.15184181255
0.151846326258
0.151850625001
0.151855090034
0.151859829626
0.151864690138
0.151869588662
0.151874457523
0.151879161367
0.15188376164
0.151888575848
0.151893871653
0.151899907701
0.151906598267
0.15191438973
0.151923879701
0.15193179651
0.151936916294
0.151940884624
0.151940226143
0.151934745142
0.151924095576
0.151906539091
0.151877315384
0.151803928684
0.15165418851
0.151425144497
0.151151003608
0.150868745511
0.150606621914
0.150373050644
0.150153650583
0.149926641468
0.149692559659
0.149482220427
0.149312583441
0.149172243166
0.14903962623
0.148953554426
0.148921898303
0.149404727956
0.149403832096
0.149409689311
0.149417328023
0.149432107265
0.149453058576
0.149475417969
0.149499894255
0.149525110543
0.149553685601
0.149585540034
0.149628913346
0.149692952873
0.149769543566
0.149850160025
0.149929922071
0.150006931651
0.150082268792
0.150161783575
0.150244120091
0.150319958077
0.1503938917
0.150471685633
0.150557220685
0.150649707165
0.150748140484
0.150858319116
0.150968271234
0.151081854281
0.151195781634
0.151313467805
0.151436583284
0.15155476592
0.151662466508
0.151740030462
0.1517856293
0.151814266043
0.151824595502
0.151831224366
0.151835890976
0.151840512747
0.151845302176
0.151850081231
0.151854905792
0.151859839813
0.151864802453
0.151869684293
0.151874466014
0.151879144442
0.151883816687
0.151888797709
0.151894412174
0.151900815282
0.151908134788
0.151917007383
0.151927228376
0.151937387785
0.151946133781
0.151953399882
0.151956896311
0.151954188942
0.151945195442
0.151926030163
0.151897500391
0.151841930489
0.151694086977
0.151467882312
0.151194119164
0.15090122456
0.150623514001
0.150373989142
0.15012614849
0.149856634699
0.14959017907
0.149357183909
0.149162168682
0.148980865751
0.148814494672
0.14871266061
0.148668187773
0.149360045245
0.149363126334
0.149375769707
0.149387538389
0.149399637343
0.149420560242
0.14944539607
0.149470397878
0.149498461797
0.149529769863
0.149566800304
0.149615028389
0.149690940306
0.149770736648
0.149849413394
0.149920129472
0.149988349093
0.150064556353
0.1501491386
0.150224383235
0.150296038543
0.150370889217
0.150450213764
0.150536975828
0.150633214379
0.150743758821
0.150857517938
0.150977445969
0.15110121314
0.151228773492
0.151365383518
0.151489157199
0.151614351274
0.151716713234
0.151771849792
0.151802511356
0.15181588268
0.151824033004
0.151829753954
0.151834526215
0.151839580566
0.151844802495
0.151849937331
0.151854945537
0.151859874939
0.151864683308
0.15186920505
0.151873487226
0.15187768907
0.151882020178
0.151886750952
0.151892298693
0.151899023083
0.151907180502
0.15191682228
0.151927473794
0.151939259551
0.151954494337
0.151967270029
0.151973307177
0.15197235968
0.151964811866
0.151949951922
0.151928474728
0.151888731073
0.151752274103
0.151525685197
0.151252736868
0.150953813842
0.150658557337
0.150375221363
0.150076741981
0.149758385648
0.149456158116
0.149186458397
0.148942390153
0.148704188415
0.148504982001
0.148386104339
0.148326181873
0.1493078657
0.149314025788
0.149330977849
0.149350861993
0.149365368118
0.14938437593
0.14940965821
0.149435670096
0.149467680452
0.149497721314
0.149542658013
0.149607224598
0.149683273843
0.149763480299
0.149834770039
0.149895842332
0.149965537009
0.150050075547
0.150128862709
0.150198290424
0.150267313909
0.150344392821
0.150427120929
0.150518938698
0.150621697733
0.150739366537
0.150863648289
0.150988690861
0.151129119625
0.151286101451
0.151416362418
0.151546059768
0.151675659534
0.151751386718
0.151788905985
0.151804358234
0.151814673452
0.151822223901
0.151828198551
0.151833851463
0.151839509084
0.151845168423
0.151850667796
0.151855891152
0.151860821315
0.151865386231
0.151869264016
0.151872633544
0.151875873747
0.151879267393
0.151883178445
0.151888118512
0.151894643136
0.151903183287
0.151913935534
0.151926836383
0.151941618529
0.15195915786
0.151976994797
0.151989718869
0.151989331953
0.151980264859
0.151966656458
0.151949507469
0.151925712599
0.151841092074
0.151619459011
0.15134355802
0.15103196476
0.150705026946
0.150369158528
0.150008719627
0.149639320818
0.149288082559
0.148960326813
0.148644092819
0.148348796119
0.148112640935
0.147974206653
0.147907812085
0.149251327059
0.149259611538
0.149278113322
0.149294293107
0.149315558309
0.149342655836
0.149366331003
0.149393748678
0.149431660128
0.149467575958
0.149510517182
0.149586815301
0.149667771605
0.149744886831
0.149808334446
0.14987013786
0.149942086529
0.150027307819
0.150100812441
0.150168135798
0.150236095406
0.150312764168
0.15039801361
0.150494411593
0.150615797224
0.150739681635
0.150875573945
0.15101665326
0.15116738076
0.151320777644
0.151467302576
0.151609710552
0.151715697624
0.151770991735
0.151789528596
0.151802183796
0.151812371141
0.151820429026
0.151827495499
0.151834211987
0.151840764455
0.151847124762
0.15185320856
0.151858815099
0.151863821539
0.151868075124
0.151871061549
0.151873181235
0.151875135958
0.151877152385
0.151879661014
0.151883315834
0.151888749262
0.151896673454
0.151907639674
0.151921870432
0.151938903386
0.151958341076
0.151981408767
0.152000234352
0.152008238508
0.151998634891
0.151979747888
0.151958168704
0.151941896744
0.151911907092
0.151751219588
0.151474217297
0.151142001577
0.150767957737
0.150363559096
0.149934916223
0.149504831003
0.149084527446
0.148672793024
0.148270483143
0.147913562748
0.147635982009
0.147469482062
0.147394730193
0.149190054021
0.149200854564
0.149222246391
0.149240210028
0.149261137234
0.14929152017
0.149315163762
0.149343575407
0.14937892294
0.149431096943
0.149481884135
0.14955924755
0.149642865837
0.149714970294
0.149771887596
0.149838224785
0.149920461837
0.149999360434
0.150067478089
0.150133832555
0.150204271302
0.150281831994
0.150369708607
0.15046862503
0.150605174918
0.150742216228
0.150876517112
0.151038542086
0.151204654798
0.151365464245
0.151518250432
0.151658835086
0.151746870445
0.151770674945
0.151785545732
0.151799606346
0.151810850202
0.151820130517
0.151828743144
0.151837214011
0.151845217342
0.151852554688
0.151859406354
0.151865430358
0.151870349844
0.151873934768
0.151875815349
0.151876229762
0.151876431571
0.151876734761
0.151877571977
0.151879585524
0.151883244865
0.151889318192
0.151898890051
0.151912752451
0.151930940514
0.151952670181
0.151978692555
0.152004692597
0.152023626591
0.152016502922
0.151996328213
0.151971604806
0.151944711227
0.151918527605
0.151867677248
0.151673210832
0.151297941677
0.150853153156
0.150371116026
0.149868467697
0.149360136216
0.148844132685
0.148320632873
0.147816439004
0.147379208261
0.147041045348
0.146820481993
0.146718569872
0.14912145608
0.149133234827
0.149155307106
0.14918076857
0.149208597932
0.149231768327
0.149255315489
0.149286186595
0.149315535202
0.149374499869
0.149440943291
0.149520600558
0.149606565254
0.149676130815
0.149733299796
0.149800781169
0.149888808573
0.149963968832
0.150028987975
0.150093387187
0.150167897899
0.150249501682
0.1503441779
0.150448661267
0.150580265792
0.150748230667
0.150903601729
0.151071955396
0.151236469753
0.151393444724
0.151565038892
0.15171291415
0.151748280198
0.151764338317
0.151782979609
0.151798701831
0.151811767738
0.151823422877
0.151834815431
0.151846584659
0.151857168116
0.151866358602
0.151874772644
0.151881563985
0.151886051016
0.151887863412
0.151887447582
0.151884720719
0.15188142745
0.151878745678
0.151877014487
0.151877098627
0.151878958117
0.151882743848
0.151889610925
0.151901291384
0.151918868879
0.151941952837
0.151969965385
0.152004678196
0.152033758217
0.152031240651
0.152010728653
0.151986575547
0.151958095769
0.151923478626
0.151883932825
0.151810846019
0.151522809785
0.150984224354
0.150412255073
0.149823075772
0.149214254331
0.148569859171
0.1478993823
0.147258837578
0.146700415721
0.146258528591
0.145952777591
0.14579914072
0.149044262389
0.149054368749
0.149069850188
0.149101826742
0.149142850774
0.149163091925
0.14918666176
0.149221617283
0.149251080811
0.149307137844
0.149386287259
0.149470514562
0.149557579653
0.14962597576
0.149690763777
0.149763798647
0.149851193395
0.149922561224
0.149986212115
0.150049766121
0.150124149581
0.150205588173
0.150313609851
0.150440283849
0.150572433986
0.150750406086
0.150915748876
0.151081878976
0.15127598912
0.151451643055
0.151621139435
0.151719258609
0.151742237387
0.151761891322
0.151782738783
0.151800757539
0.151817379457
0.151833965322
0.151850636273
0.151868782024
0.151884899191
0.151898535316
0.151910294496
0.151919478671
0.151924594218
0.151923959164
0.15191789354
0.15190858865
0.151897744634
0.151888054414
0.151880335925
0.151875928992
0.15187499962
0.151876583952
0.151880343528
0.151888524195
0.151903635428
0.151926523967
0.1519560204
0.151996177482
0.152027029574
0.152033460152
0.15202021397
0.152001637176
0.151978102452
0.151943734994
0.151894587097
0.151839000267
0.151724829202
0.151155772705
0.150513114242
0.149822387327
0.149088651932
0.148274014424
0.147394504437
0.146557180278
0.145815899619
0.145221888623
0.144812756475
0.144606121845
0.148957935628
0.148965494837
0.148971204806
0.149007869601
0.149048439973
0.149076029685
0.149104254503
0.149144474013
0.149181182876
0.149236046811
0.149322390349
0.149409851431
0.149496479783
0.149561184418
0.149635076387
0.149723312686
0.149806680715
0.149874966171
0.149938321938
0.150003590096
0.15007770461
0.150156652351
0.150262272702
0.150426687285
0.150573775785
0.150735324613
0.150931131302
0.151120498828
0.151306759506
0.151493199229
0.151667687158
0.151711924322
0.1517338208
0.151759031034
0.151782866055
0.1518047192
0.15182776169
0.151854761774
0.151883302954
0.151911464153
0.151938431373
0.151959994603
0.151976393168
0.151987437687
0.151992832791
0.151989388084
0.151977691652
0.15196181265
0.151942611197
0.151920212702
0.151897927358
0.151880532419
0.151871714001
0.151869417703
0.151869716615
0.151873647705
0.151884985423
0.151905850345
0.151934574902
0.151972941723
0.151999355866
0.152020117062
0.152021541177
0.152017543257
0.152006618253
0.15197961528
0.151925633016
0.151860393175
0.151717943257
0.151267455597
0.150663267423
0.149900178565
0.149028381251
0.147992991839
0.146789709353
0.145668664482
0.144658424033
0.143863321738
0.143342841754
0.143081324158
0.148863619833
0.148872483178
0.148885510811
0.148908623557
0.148944326302
0.148976253664
0.149010064401
0.14905374735
0.14910235003
0.149158209516
0.149249685405
0.149339723071
0.149426740989
0.149490712174
0.149564704154
0.149666329148
0.149751222771
0.149820048432
0.149884366789
0.149952460101
0.150028810644
0.150107903598
0.150214017667
0.15039848141
0.150564381002
0.150733112249
0.150951056923
0.151151542256
0.15134691714
0.151550513168
0.151665270004
0.151696808452
0.151726415701
0.151755901834
0.151783496814
0.151815092629
0.151854714841
0.151894740718
0.151938114655
0.151978804243
0.152016608964
0.152048089018
0.152070362454
0.152081921327
0.1520851047
0.152079521439
0.152068441242
0.152054927301
0.152036595683
0.152006784027
0.151962262227
0.151909823201
0.151874342159
0.151860458885
0.151855189646
0.151854195042
0.151861167243
0.151879636851
0.151908579444
0.151945629753
0.15197902178
0.152001846809
0.152019675446
0.152035668269
0.152042607051
0.152030961878
0.151975304995
0.151860395757
0.151662397034
0.151359532413
0.150870601114
0.150096842305
0.149161648674
0.147828694635
0.146060501824
0.144544825202
0.143146734056
0.142088612926
0.141426261629
0.141094104917
0.148758141093
0.148767608152
0.148792277702
0.148804777627
0.148832939106
0.148866205296
0.148904583902
0.148953776874
0.149018010663
0.149074312488
0.149168130985
0.14926052964
0.149348707651
0.14941584152
0.149492601552
0.14960024507
0.149687328394
0.149758616647
0.149825294915
0.149895845051
0.149974709269
0.150057869962
0.150163416322
0.150342653173
0.150549843701
0.150740491777
0.150945310816
0.151185891905
0.151399758323
0.151570745659
0.151640102025
0.151675562837
0.151712376975
0.151749440158
0.151793194759
0.151843006874
0.151896179702
0.15195558929
0.15201665938
0.152070487111
0.152115232512
0.152149052802
0.152172676546
0.152187543577
0.152198535863
0.152201859197
0.152207672708
0.152215321854
0.152218233476
0.152195716612
0.15213039888
0.15202892147
0.151912071988
0.151855125482
0.151834135077
0.15182623568
0.151828645674
0.151846079465
0.151881067013
0.15192826504
0.151977499226
0.152004612597
0.152039943301
0.152078734311
0.152111265791
0.152123362797
0.152070495163
0.151911499928
0.151629362782
0.151281223854
0.150931388543
0.150373726113
0.149553353332
0.147975274083
0.145128324148
0.14314493772
0.141148146904
0.139707235898
0.138888938944
0.138470629106
0.148639607927
0.148647452528
0.148667854208
0.148683849626
0.148708524433
0.148744401985
0.148784683749
0.148832613416
0.148914035856
0.148982703876
0.149076054396
0.149171250611
0.149261335895
0.149335083649
0.149416959613
0.149527375237
0.149616445219
0.149691640007
0.149761742271
0.149835204186
0.149916125334
0.150004175979
0.15011230883
0.150286819393
0.150525332526
0.150733194774
0.15093578118
0.151174133381
0.151397511412
0.151548184969
0.151608413152
0.151651118644
0.15169728933
0.151752857735
0.151813409501
0.151879818703
0.151955943081
0.152036683608
0.152111286375
0.152175328331
0.152218377854
0.152249267437
0.152284495434
0.15232715101
0.152373699504
0.152412255279
0.152459028384
0.152510433591
0.15255126091
0.152542725694
0.152471684092
0.152334389687
0.152124204655
0.151897015244
0.151813096847
0.151786205895
0.15178043998
0.151798825296
0.151848628526
0.151919863527
0.152008575348
0.152040942626
0.152022191404
0.152034630008
0.152080514984
0.152109650041
0.152060397593
0.151892629575
0.151590100373
0.151190306287
0.150819169268
0.150920235271
0.151407481984
0.150026348777
0.142890847222
0.141070082189
0.138433606054
0.136362578346
0.135502391053
0.135008649389
0.148511300468
0.148517545016
0.148537319734
0.148552745905
0.148575893317
0.148613020133
0.148654319509
0.148697925417
0.148780083202
0.148868824046
0.148969081401
0.149069043568
0.149161884853
0.149247354411
0.149335395794
0.14944713972
0.149538365443
0.149619056084
0.149693746571
0.149770848173
0.149854706765
0.149945721484
0.15005509097
0.150223929738
0.150466519799
0.150720942316
0.150949272162
0.151182738426
0.151432268782
0.151522945288
0.15156253273
0.151618708633
0.151686674625
0.151761895706
0.151837754568
0.151928873008
0.152032248213
0.15213698655
0.152219731494
0.152280725876
0.15232244735
0.152382899711
0.152476487623
0.152593245723
0.152692575499
0.15278063404
0.152878338914
0.152993727636
0.153087400334
0.153113699474
0.153078098388
0.152948519372
0.152703375821
0.152279063674
0.151843338838
0.151743900811
0.151703548635
0.151725803318
0.151804154312
0.151896743017
0.151968729606
0.152061158653
0.152128578982
0.15215697036
0.152146951703
0.152073399802
0.151901436126
0.151617752297
0.151227432758
0.150744048535
0.15023633574
0.14975454209
0.148756753995
0.146210416368
0.145043334269
0.143164210383
0.134584151767
0.130617448336
0.131140344592
0.130625563431
0.148375424561
0.148379829481
0.148394343782
0.148409394522
0.148436684761
0.148473739041
0.148517797106
0.148559339724
0.148639661389
0.148741355493
0.148847772672
0.148951489871
0.149044127629
0.14914475152
0.149245347066
0.149356444495
0.149450527613
0.149539561246
0.149620108092
0.149701668249
0.149789531795
0.149883033424
0.149993328887
0.1501597864
0.150408433702
0.15070062436
0.150945548144
0.151180758192
0.151394378412
0.151475892
0.15151755489
0.151584454573
0.151678860764
0.151769006853
0.151869014904
0.151995994829
0.152136471243
0.15224179989
0.152322462769
0.152391747747
0.15248855488
0.152655335836
0.152824926246
0.152994631864
0.153176920773
0.153387570344
0.153647924487
0.153917761409
0.154097625873
0.154185355967
0.154200454811
0.154128325792
0.153899713536
0.153384271336
0.152368220279
0.151729494532
0.151572975412
0.151610010269
0.151713252459
0.151822721379
0.152002831738
0.152085846542
0.152058002487
0.151951973846
0.151777073366
0.151518858235
0.151157696568
0.150684821739
0.150107620868
0.149422113653
0.148589183969
0.147548195339
0.146071989237
0.14386745462
0.141412400795
0.13710514049
0.134132339474
0.132526571994
0.128112628833
0.125938574106
0.148233752322
0.148236823789
0.148245721762
0.148260038152
0.148292078992
0.148327460342
0.148373102156
0.14841862961
0.14849332538
0.148602546654
0.148713168932
0.148819390727
0.148910499563
0.149016927361
0.149136933071
0.149250943715
0.149348342941
0.149447164012
0.14953785825
0.149625485748
0.14971943834
0.149814713515
0.149925703319
0.150090321473
0.150334539026
0.150619798783
0.150894604134
0.15113423054
0.151324254405
0.151412790938
0.151472312286
0.151556527096
0.151666318953
0.151776654355
0.151911055772
0.152094749036
0.152233028906
0.152334240495
0.152439119765
0.152582742783
0.152794007732
0.15301896659
0.15327567847
0.153599484772
0.154073828128
0.154719183493
0.155331963213
0.155790165332
0.156010592701
0.156202067752
0.156369351919
0.15656128978
0.156574856933
0.156103765473
0.154701987312
0.151882306138
0.151329839844
0.151368134959
0.151679765446
0.152015510743
0.152099638444
0.151970912991
0.151724053187
0.151404928452
0.151012986952
0.150529585804
0.149937008627
0.149225505569
0.148391186744
0.147431287726
0.14626091789
0.144776060028
0.142863406693
0.140322529841
0.137167285324
0.133356083143
0.129818095026
0.126639231075
0.124379990926
0.118469082293
0.148085718252
0.14808811331
0.14809516591
0.148111660761
0.14814410959
0.14817553814
0.148217058963
0.148270647684
0.148339437042
0.148451831473
0.148565557523
0.148674352569
0.148766543013
0.148873336292
0.149008419161
0.149130076747
0.149233451479
0.149339327413
0.149441140104
0.149538368173
0.149642699857
0.149740729267
0.149851828404
0.150017613996
0.150258247047
0.150542888185
0.150837058097
0.151098177875
0.151242036127
0.151332912351
0.151417916442
0.151528220357
0.151642860184
0.151793327062
0.151991207216
0.152175380896
0.152308155678
0.152448243268
0.152636000072
0.152864316023
0.153143895232
0.153476587202
0.153910044579
0.154595504688
0.1555011168
0.156408751838
0.157194976739
0.157828714353
0.158446083169
0.159128696271
0.159934358555
0.161071082556
0.161859046541
0.162008927629
0.160693206062
0.15584818452
0.150726110068
0.150535516861
0.151523068169
0.152085311252
0.15199190073
0.151583399986
0.151056295606
0.150466329482
0.149807617237
0.14905685019
0.148192148188
0.14719674875
0.146054286556
0.144743121913
0.143206267066
0.141293615298
0.138872460511
0.135830679284
0.132121417317
0.12770303436
0.122676562442
0.117572322622
0.11197263146
0.109879936097
0.147927813317
0.147929585956
0.147937507687
0.147960148572
0.147991055047
0.148018270873
0.148052174829
0.148112427968
0.148174777668
0.148287181385
0.148403982828
0.148515617813
0.148610659602
0.148720226336
0.148863710428
0.148993716539
0.149105618098
0.149219876374
0.14932974338
0.149436946588
0.149555192756
0.149659747833
0.149770860056
0.149939233643
0.150177663717
0.150463573478
0.150773570792
0.151066495865
0.15116866703
0.151249146148
0.151358099776
0.151493132888
0.151639793773
0.15181008122
0.152028724813
0.15221858272
0.152396135929
0.152611834137
0.15285856424
0.153175629648
0.153556190333
0.154018375347
0.154746200547
0.155888887677
0.157100248872
0.158158129404
0.159134599928
0.160187795564
0.161591015081
0.163081415715
0.164722817818
0.167161645763
0.168138278232
0.16823380212
0.167097097785
0.161098915005
0.152683349534
0.15029547465
0.151259446225
0.151803012723
0.151526539569
0.15085961855
0.150052414826
0.14917878786
0.148237267
0.147203198105
0.146048886193
0.144747690464
0.143270386118
0.14157824361
0.139620393792
0.137250187896
0.134266738432
0.130545182505
0.125929249493
0.120131612621
0.112677918418
0.102589562024
0.0860399605465
0.050040479123
0.147753683064
0.147754314751
0.147765190104
0.147797693092
0.147826383674
0.147850626305
0.147879927103
0.147940841375
0.147997590841
0.148106720083
0.148226846414
0.148341600013
0.148440177049
0.148552360225
0.148700831507
0.148838552923
0.14896248527
0.149086450862
0.149202631133
0.149318720815
0.149452255646
0.149568853897
0.149680460683
0.149849600178
0.150087510573
0.150370902517
0.150683162809
0.15096166134
0.151081686143
0.15117384149
0.151288005446
0.151423090289
0.151612891948
0.151818929645
0.152021771083
0.152252680255
0.152500873816
0.152761747501
0.153102942318
0.153503768681
0.153970096543
0.154664561952
0.155911737512
0.157456684928
0.158887825945
0.160203634138
0.161664216687
0.1636041746
0.166232932357
0.168176054376
0.168772377457
0.168275333562
0.167889889264
0.167405135948
0.166277247428
0.162974975177
0.157646824236
0.153746298974
0.15255292524
0.151923726456
0.151078416915
0.150036630081
0.148904330431
0.147720209852
0.146474654098
0.145137895104
0.143674308241
0.142046120946
0.140210793738
0.138115002416
0.135686650254
0.132828515047
0.129303692903
0.124836387122
0.11920880478
0.111980020729
0.102304501434
0.0885444754349
0.067153631072
0.0338227312332
0.147554377634
0.14755408479
0.147566911356
0.147609574069
0.147635511202
0.147661990002
0.147689188387
0.147745542082
0.14779955102
0.147908241383
0.148032548889
0.148150500173
0.148253005775
0.148367207831
0.14851754375
0.148659655925
0.148798904023
0.148935123355
0.149057331832
0.14918148821
0.149328693476
0.149463393335
0.149577790876
0.149744777851
0.149984233852
0.150266196856
0.150578995699
0.150854381503
0.150972176056
0.151082656337
0.151220203226
0.151367287889
0.15155256151
0.151781139693
0.152023526871
0.152281192467
0.152570100171
0.152913034477
0.153331107418
0.153811496187
0.154464561659
0.155660461117
0.157418836589
0.159275303357
0.161051396389
0.162977621592
0.165448590222
0.168359689218
0.171702063648
0.170587596812
0.1694915339
0.168716050972
0.167827819795
0.1665281613
0.164687713319
0.161738552075
0.157956242034
0.154773350895
0.152871583903
0.151564583215
0.150317785823
0.148991283576
0.147589961178
0.14612517803
0.144586063167
0.142944189802
0.141161177904
0.139192145166
0.136984518033
0.134473303479
0.131573653153
0.128171760575
0.124111177065
0.119053220926
0.112589368653
0.104295760276
0.0933969568602
0.0786100707342
0.0576319128578
0.0300241875994
0.147321400385
0.147324199702
0.147336363723
0.147377828789
0.147408020346
0.147444918434
0.147475556776
0.147530106351
0.147589776485
0.147690871995
0.147819341712
0.1479405154
0.148047233292
0.14816316762
0.148313221777
0.148454864809
0.148603473177
0.148757953877
0.148889869834
0.149024054621
0.149181958664
0.149338102891
0.149466761622
0.149622462574
0.149865732304
0.150148981251
0.150463513165
0.150742962346
0.150860114701
0.150974444752
0.151123714965
0.151289140249
0.151517886688
0.151728736083
0.151958095398
0.152270274427
0.152630101908
0.153047340522
0.153538588336
0.15415394232
0.155224392521
0.157007319119
0.159178647647
0.16144621248
0.16385940934
0.166834735814
0.170271492347
0.171073694037
0.171337025113
0.171310686592
0.16984740081
0.168457429326
0.167050654088
0.165458837027
0.163515390312
0.161010853329
0.158077758173
0.155290994117
0.153053849313
0.15123339245
0.149566334683
0.147908185582
0.146209835664
0.144451738536
0.14261182781
0.140657660592
0.13854709044
0.136229484462
0.133644579602
0.13071852061
0.127357332854
0.12343786978
0.118797084491
0.113213923346
0.106249030883
0.0973418676565
0.0858401714554
0.0708722679927
0.0508505870575
0.0264158741373
0.147061058283
0.147070578758
0.147081326445
0.147111059182
0.147151694756
0.147198672961
0.147237220524
0.14729560452
0.147367552278
0.147459850587
0.147587164684
0.147710227182
0.147821276499
0.147939330512
0.14808915602
0.148232288792
0.148381284748
0.148550779735
0.148697759352
0.148845231953
0.149013546353
0.149186123302
0.149345230493
0.149508095378
0.149731514194
0.150019854594
0.150336949347
0.150625603653
0.150738625973
0.150849521143
0.150999370427
0.151205915284
0.151468207344
0.15165530144
0.151873938588
0.152229569272