/*--------------------------------*- C++ -*----------------------------------*\
| =========                 |                                                 |
| \\      /  F ield         | OpenFOAM: The Open Source CFD Toolbox           |
|  \\    /   O peration     | Version:  v1806                                 |
|   \\  /    A nd           | Web:      www.OpenFOAM.com                      |
|    \\/     M anipulation  |                                                 |
\*---------------------------------------------------------------------------*/
FoamFile
{
    version     2.0;
    format      ascii;
    class       surfaceScalarField;
    location    "636";
    object      phia;
}
// * * * * * * * * * * * * * * * * * * * * * * * * * * * * * * * * * * * * * //

dimensions      [0 3 -1 0 0 0 0];
oriented        oriented;


internalField   nonuniform List<scalar> 
12640
(
8.13518818012e-08
-8.08611310028e-08
1.54307114364e-07
-7.26082563495e-08
2.17740902158e-07
-6.31824879642e-08
2.71461066706e-07
-5.35238372349e-08
3.12505943104e-07
-4.08552232651e-08
3.40462097862e-07
-2.7779195329e-08
3.62831306867e-07
-2.22124773047e-08
3.95551359096e-07
-3.25777214441e-08
4.39349865545e-07
-4.36704880549e-08
4.82402870033e-07
-4.29401236734e-08
5.23623611504e-07
-4.11222454731e-08
5.67282976684e-07
-4.35684365184e-08
6.09418684817e-07
-4.20495089153e-08
6.48340519755e-07
-3.88400775476e-08
6.87081312325e-07
-3.86636843924e-08
7.30965248201e-07
-4.38090800108e-08
7.77301305761e-07
-4.62640967598e-08
8.20905002006e-07
-4.35335652389e-08
8.61110189149e-07
-4.01380244052e-08
9.02151001997e-07
-4.09739592166e-08
9.51659415378e-07
-4.94407685843e-08
1.00950562303e-06
-5.77770574153e-08
1.06949817583e-06
-5.99237312865e-08
1.12857033766e-06
-5.90034520678e-08
1.18576551619e-06
-5.7127503036e-08
1.24146197504e-06
-5.56279544501e-08
1.2970225223e-06
-5.54915418982e-08
1.35188993246e-06
-5.47967781001e-08
1.405327949e-06
-5.33668656724e-08
1.45784905456e-06
-5.24484586303e-08
1.51103745229e-06
-5.31151547154e-08
1.56424488719e-06
-5.31316180802e-08
1.61659280519e-06
-5.22698837827e-08
1.6708142562e-06
-5.41401348857e-08
1.72673051086e-06
-5.58327196985e-08
1.78348084236e-06
-5.66626547547e-08
1.84165437889e-06
-5.80837687491e-08
1.89909324596e-06
-5.73462608708e-08
1.95425346711e-06
-5.50642070962e-08
2.00800283305e-06
-5.36477083315e-08
2.06307853439e-06
-5.49707240549e-08
2.11540081709e-06
-5.22147897859e-08
2.15884011645e-06
-4.33296764055e-08
2.19618191565e-06
-3.72272811961e-08
2.23043684232e-06
-3.41354131872e-08
2.26111303817e-06
-3.0549575812e-08
2.28772651649e-06
-2.6480349037e-08
2.30910207851e-06
-2.12342661245e-08
2.32528625502e-06
-1.60352535783e-08
2.3402343756e-06
-1.47896873384e-08
2.35875896851e-06
-1.83572594239e-08
2.37483989054e-06
-1.5901860059e-08
2.3742307131e-06
8.02217052846e-10
2.36213948023e-06
1.23037677789e-08
2.33799292396e-06
2.43744769116e-08
2.29588551094e-06
4.23551297832e-08
2.25664406866e-06
3.95182024571e-08
2.22975514912e-06
2.72104770864e-08
2.19530797383e-06
3.48247414222e-08
2.15381193074e-06
4.19396174904e-08
2.1299370797e-06
2.44049953508e-08
2.09267791624e-06
3.7947434426e-08
1.96304670302e-06
1.30522998541e-07
1.74952783467e-06
2.14313341731e-07
1.5640825165e-06
1.85933096894e-07
1.43862328923e-06
1.25785472029e-07
1.32639491869e-06
1.12495537656e-07
1.21520886934e-06
1.1145522193e-07
1.09939472524e-06
1.16107799133e-07
9.73912284745e-07
1.25801415498e-07
8.45954609658e-07
1.28278542583e-07
7.2388334892e-07
1.22366041465e-07
6.09667228738e-07
1.14488755609e-07
4.90545568317e-07
1.19379967298e-07
3.88383070927e-07
1.02397766374e-07
2.99388456694e-07
8.92094315618e-08
2.35832085919e-07
6.37652358394e-08
1.64536136837e-07
7.15047582939e-08
9.98899128348e-08
6.50135492667e-08
1.00116965617e-07
4.31859052846e-08
-1.23874529281e-07
9.94948875783e-08
-1.28676586761e-07
1.54183908779e-07
-1.17690297608e-07
2.10388040511e-07
-1.09567313936e-07
2.79799386663e-07
-1.10103403902e-07
3.33415356802e-07
-8.12237291848e-08
3.67942905991e-07
-5.65718529827e-08
4.03565155605e-07
-6.80536750081e-08
4.43149069472e-07
-8.31243533563e-08
4.86196910129e-07
-8.58756859729e-08
5.28972207744e-07
-8.37973032793e-08
5.67771161808e-07
-8.22762726172e-08
6.05494527253e-07
-7.96850309165e-08
6.44019656856e-07
-7.72822316672e-08
6.84104420265e-07
-7.86667767049e-08
7.2934659358e-07
-8.8975784137e-08
7.73667010607e-07
-9.05131069906e-08
8.08215442911e-07
-7.80174362802e-08
8.42693352273e-07
-7.45517266118e-08
8.87124499546e-07
-8.53412011906e-08
9.42516637353e-07
-1.04764003629e-07
1.0061889473e-06
-1.2138073265e-07
1.06919587728e-06
-1.22859870461e-07
1.12613536796e-06
-1.15874870777e-07
1.18171541517e-06
-1.12637796247e-07
1.2392262188e-06
-1.13070538348e-07
1.29517302742e-06
-1.11367082555e-07
1.34913056145e-06
-1.08684010882e-07
1.40246363245e-06
-1.06626518259e-07
1.45546022589e-06
-1.05372446565e-07
1.50769981364e-06
-1.05278753357e-07
1.55933558284e-06
-1.04691454066e-07
1.61013830866e-06
-1.02992357806e-07
1.66364430393e-06
-1.07564811449e-07
1.72187412478e-06
-1.13976359403e-07
1.77934897165e-06
-1.14050293424e-07
1.83677653752e-06
-1.15419343702e-07
1.89702966344e-06
-1.17506679908e-07
1.95840690949e-06
-1.16342271129e-07
2.01469736376e-06
-1.09835504766e-07
2.05294480804e-06
-9.31099843759e-08
2.07937189193e-06
-7.85345601992e-08
2.11293915792e-06
-7.67851819938e-08
2.15265963692e-06
-7.68334689074e-08
2.19210045072e-06
-7.34541396233e-08
2.22995140901e-06
-6.82737987083e-08
2.26417994491e-06
-6.0572561435e-08
2.29469962097e-06
-5.16117169264e-08
2.32043987854e-06
-4.16221230305e-08
2.33491523017e-06
-2.91045656733e-08
2.33256455725e-06
-1.58348139542e-08
2.32641121221e-06
-9.56929713547e-09
2.34207435507e-06
-1.46644436841e-08
2.35380024871e-06
7.90631964995e-10
2.34105643184e-06
3.73493707827e-08
2.33037577577e-06
5.32867268214e-08
2.31920347172e-06
5.09799926425e-08
2.29581818386e-06
5.09289206665e-08
2.27219596556e-06
5.88375987442e-08
2.24223075341e-06
7.23661258137e-08
2.16102558505e-06
1.06167854784e-07
2.06764443612e-06
1.32014882231e-07
1.9334645181e-06
2.65537102321e-07
1.73407690682e-06
4.14409461531e-07
1.52482142858e-06
3.95654212339e-07
1.34230964216e-06
3.08600348209e-07
1.23407629272e-06
2.20988000032e-07
1.15664413495e-06
1.89150428535e-07
1.06276732432e-06
2.10271724131e-07
9.44461996175e-07
2.44411513801e-07
8.11285883953e-07
2.61756273537e-07
6.80559486427e-07
2.53368162089e-07
5.73160025306e-07
2.22148454328e-07
4.92887808271e-07
1.99913304699e-07
4.14764209022e-07
1.80774431471e-07
3.42029399397e-07
1.62188024261e-07
2.64969302029e-07
1.41081780254e-07
1.95231295913e-07
1.41529971802e-07
1.02442714506e-07
1.58109698285e-07
2.02869680172e-07
5.42278625544e-08
-1.77819271577e-07
8.20886378398e-08
-1.56343515135e-07
1.46864974508e-07
-1.82278475675e-07
2.21425766962e-07
-1.83947035349e-07
2.90158393915e-07
-1.78661939548e-07
3.26596469721e-07
-1.17525935956e-07
3.48456593264e-07
-7.83019372535e-08
3.87335651952e-07
-1.06789040069e-07
4.32248931686e-07
-1.27907789841e-07
4.77096614691e-07
-1.30611461687e-07
5.20519489027e-07
-1.27118832352e-07
5.60175128646e-07
-1.21837145183e-07
5.97679062115e-07
-1.17097916496e-07
6.36689535099e-07
-1.16205048811e-07
6.72679524595e-07
-1.14575498329e-07
6.8689423866e-07
-1.03117665646e-07
6.87661334192e-07
-9.12186841298e-08
7.10281258046e-07
-1.00579453704e-07
7.65676296197e-07
-1.29887317812e-07
8.50381758944e-07
-1.69981261485e-07
9.37832924988e-07
-1.92145102068e-07
1.00370096795e-06
-1.87176830492e-07
1.05986729776e-06
-1.7895591643e-07
1.11914850017e-06
-1.75085606572e-07
1.17805828075e-06
-1.71477922616e-07
1.23334283793e-06
-1.68284622481e-07
1.28737926439e-06
-1.65332936474e-07
1.34137921814e-06
-1.6261157201e-07
1.39475982662e-06
-1.59934146779e-07
1.44803308616e-06
-1.58570711839e-07
1.4993855096e-06
-1.56555413649e-07
1.55047753348e-06
-1.5570569166e-07
1.60340099458e-06
-1.55835898414e-07
1.65251767914e-06
-1.56598255298e-07
1.70675488824e-06
-1.68128791484e-07
1.77162669157e-06
-1.78833368521e-07
1.8314602001e-06
-1.75161392656e-07
1.88892372736e-06
-1.74875344525e-07
1.95253605319e-06
-1.79855964645e-07
2.01337653655e-06
-1.70571513371e-07
2.06802763899e-06
-1.47653433817e-07
2.1172052607e-06
-1.27601268269e-07
2.15943248285e-06
-1.18899162427e-07
2.19702296674e-06
-1.14305632207e-07
2.23154095581e-06
-1.07849044052e-07
2.26242305859e-06
-9.90258374749e-08
2.28993257981e-06
-8.79458307652e-08
2.31372893097e-06
-7.52634766174e-08
2.3332902255e-06
-6.10310474893e-08
2.34938199725e-06
-4.50338761097e-08
2.36314969808e-06
-2.94305101675e-08
2.37147196341e-06
-1.77082327542e-08
2.36313864171e-06
-6.13559349337e-09
2.34629059552e-06
1.78474454092e-08
2.34016136823e-06
4.3701750682e-08
2.33583272845e-06
5.78643049212e-08
2.31969597424e-06
6.7398862426e-08
2.29320651626e-06
7.77397255878e-08
2.26024705959e-06
9.21767934762e-08
2.2163872376e-06
1.16670358782e-07
2.16185307472e-06
1.612320839e-07
2.03936902646e-06
2.55139198082e-07
1.80984712572e-06
4.95748081251e-07
1.53927324794e-06
6.8553732482e-07
1.35077009811e-06
5.84526244445e-07
1.27121589118e-06
3.88435783487e-07
1.18162740813e-06
3.10820970164e-07
1.07358559472e-06
2.97430449715e-07
9.6019661795e-07
3.23910929387e-07
8.3884565082e-07
3.66024914147e-07
7.25389957799e-07
3.75472814337e-07
6.3884503397e-07
3.40171627508e-07
5.65403399944e-07
2.9585115771e-07
4.90985008287e-07
2.74588307906e-07
4.04081862791e-07
2.67927415097e-07
3.1613907737e-07
2.50381067265e-07
2.40541087754e-07
2.16908864833e-07
1.82407417568e-07
1.99888558699e-07
7.90887367882e-08
2.61855473359e-07
2.82035633292e-07
3.7457207685e-08
-2.15159360159e-07
5.07180293087e-08
-1.69469097018e-07
1.22743130067e-07
-2.54122353696e-07
1.82887249836e-07
-2.43916244012e-07
1.89453063889e-07
-1.85102550098e-07
1.69673816323e-07
-9.76836449488e-08
2.35287196014e-07
-1.43825292519e-07
3.37794942237e-07
-2.09167295583e-07
4.08144517723e-07
-1.98131387561e-07
4.60067829114e-07
-1.82422068034e-07
5.07266240866e-07
-1.74214145864e-07
5.49728580938e-07
-1.64199406808e-07
5.8439788209e-07
-1.51672536847e-07
5.978626024e-07
-1.29584924341e-07
5.94719931991e-07
-1.11359929351e-07
6.04729748579e-07
-1.13064946766e-07
6.4806182754e-07
-1.34491761766e-07
7.23562050305e-07
-1.76018629606e-07
8.13218176674e-07
-2.19476426684e-07
8.84806658826e-07
-2.41498944987e-07
9.38139566543e-07
-2.45405691166e-07
9.94684951201e-07
-2.43649982174e-07
1.05401093134e-06
-2.38209831462e-07
1.11098900383e-06
-2.31992582355e-07
1.16639741201e-06
-2.26815215616e-07
1.22082729018e-06
-2.22643667976e-07
1.275520605e-06
-2.1995422634e-07
1.32969335015e-06
-2.16711765296e-07
1.38374831615e-06
-2.13914702756e-07
1.43590463873e-06
-2.10651499217e-07
1.48894807292e-06
-2.09521648281e-07
1.53817376318e-06
-2.04853197841e-07
1.58527852136e-06
-2.02860477598e-07
1.64583002038e-06
-2.17066500777e-07
1.7065475908e-06
-2.28759780495e-07
1.76646752069e-06
-2.38664436915e-07
1.83852657013e-06
-2.47127578835e-07
1.9076517485e-06
-2.43904040478e-07
1.96356420441e-06
-2.35667738666e-07
2.01420612846e-06
-2.21109291619e-07
2.06554994269e-06
-1.98889375079e-07
2.11544267746e-06
-1.77383397722e-07
2.15974182424e-06
-1.63083842668e-07
2.19850004402e-06
-1.52945334632e-07
2.23311253894e-06
-1.42337415887e-07
2.26396754042e-06
-1.29751138374e-07
2.29124272941e-06
-1.15084455812e-07
2.31475863058e-06
-9.86360189392e-08
2.33434844601e-06
-8.04691980355e-08
2.35024606511e-06
-6.07711347513e-08
2.36185063309e-06
-4.08654545151e-08
2.36608948166e-06
-2.17664361561e-08
2.36072752921e-06
-5.83764867766e-10
2.35262196826e-06
2.61544026069e-08
2.34466127184e-06
5.18793564952e-08
2.33133882158e-06
7.14241524454e-08
2.30966549772e-06
8.93372053821e-08
2.27750516539e-06
1.10211030315e-07
2.23069284684e-06
1.39333557153e-07
2.16010449477e-06
1.87670879201e-07
2.04694397463e-06
2.74859702591e-07
1.86802367282e-06
4.34570631095e-07
1.68845776677e-06
6.75798155826e-07
1.52460090609e-06
8.4981382694e-07
1.33742136721e-06
7.72055616573e-07
1.18092309011e-06
5.45189212434e-07
1.06723311484e-06
4.24725805893e-07
9.71709282484e-07
3.93161050996e-07
8.82741339585e-07
4.13089657304e-07
7.90824191612e-07
4.58168527265e-07
6.93758482433e-07
4.7278185835e-07
5.99661469611e-07
4.34516116485e-07
5.06139251222e-07
3.89603398686e-07
4.1415937096e-07
3.66780827319e-07
3.28560811071e-07
3.53736439982e-07
2.39543153302e-07
3.39608098109e-07
1.60385752469e-07
2.96262302928e-07
1.08218631886e-07
2.52249077162e-07
5.56463632638e-08
3.14517606638e-07
3.37847932649e-07
6.44421512685e-09
-2.2144723246e-07
4.35156488113e-08
-2.06426667682e-07
1.00109109074e-07
-3.10549681196e-07
1.42738959878e-07
-2.86386209255e-07
1.35215736777e-07
-1.7749214025e-07
1.72479488123e-07
-1.34883848823e-07
2.56378300975e-07
-2.27627726096e-07
3.20341278013e-07
-2.73008478987e-07
3.77192918304e-07
-2.54865511373e-07
4.32249009432e-07
-2.37362622634e-07
4.85162283564e-07
-2.27016470323e-07
5.17870900087e-07
-1.96809856734e-07
5.20184472335e-07
-1.53902953184e-07
5.22341958674e-07
-1.31672526747e-07
5.54466562233e-07
-1.43420597099e-07
6.15797159318e-07
-1.74331234987e-07
6.95781234531e-07
-2.14409369762e-07
7.71096813525e-07
-2.51264928453e-07
8.24539838473e-07
-2.72848714236e-07
8.70381828004e-07
-2.87268761499e-07
9.24568799736e-07
-2.99519227424e-07
9.82589219248e-07
-3.01596741183e-07
1.04002889592e-06
-2.95576409113e-07
1.09578771609e-06
-2.87678695328e-07
1.15050447059e-06
-2.81459944702e-07
1.20554345445e-06
-2.77610237676e-07
1.25928642563e-06
-2.73625047323e-07
1.31417284138e-06
-2.71524209482e-07
1.36668697158e-06
-2.66353555331e-07
1.41938539432e-06
-2.63272931043e-07
1.46700720386e-06
-2.57066198324e-07
1.52062573822e-06
-2.58393549816e-07
1.58425161824e-06
-2.6640593627e-07
1.6422421441e-06
-2.74972986798e-07
1.70771860202e-06
-2.94148829653e-07
1.78099829677e-06
-3.11852839409e-07
1.8468111413e-06
-3.128459883e-07
1.90682109644e-06
-3.03816220262e-07
1.96173773555e-06
-2.90483435671e-07
2.01354362048e-06
-2.72810643873e-07
2.06502774638e-06
-2.50265653015e-07
2.11502490521e-06
-2.27269225626e-07
2.1603975857e-06
-2.08341646184e-07
2.2002785885e-06
-1.92707033044e-07
2.23544250719e-06
-1.77377213928e-07
2.26649004952e-06
-1.60669016593e-07
2.29365551915e-06
-1.42114574403e-07
2.316861685e-06
-1.21700239413e-07
2.33594077669e-06
-9.93989945895e-08
2.3506781989e-06
-7.53514637275e-08
2.36013126627e-06
-5.01512220586e-08
2.36249930883e-06
-2.39616542779e-08
2.35768419605e-06
4.41492609795e-09
2.34907299573e-06
3.49563605613e-08
2.33721605023e-06
6.3938023824e-08
2.31833967277e-06
9.05200789428e-08
2.28821969999e-06
1.19709428045e-07
2.24085959423e-06
1.57830982527e-07
2.16722907333e-06
2.13285440504e-07
2.0561617175e-06
2.99071523496e-07
1.90122233475e-06
4.30166107994e-07
1.725280574e-06
6.10868479539e-07
1.59307099298e-06
8.08347632638e-07
1.46774008461e-06
9.75485980618e-07
1.33297211688e-06
9.07104539606e-07
1.17307888219e-06
7.0530480061e-07
1.01465229063e-06
5.83339872576e-07
8.8619743636e-07
5.21784213041e-07
7.87267387907e-07
5.12194921475e-07
6.98775969161e-07
5.4685154321e-07
6.04637719462e-07
5.67129589764e-07
5.13509765108e-07
5.25841528766e-07
4.28442312704e-07
4.74844361197e-07
3.43354112651e-07
4.52037365148e-07
2.57345186736e-07
4.39922828011e-07
1.77373623899e-07
4.19754469274e-07
1.28204556374e-07
3.45550595042e-07
8.03366190165e-08
3.00195856368e-07
3.23539767048e-08
3.62761851578e-07
3.70207029722e-07
2.23189876857e-09
-2.23646349168e-07
5.17361672635e-08
-2.55831220853e-07
8.14657336956e-08
-3.40132882364e-07
1.01072933741e-07
-3.05877014816e-07
9.91478301343e-08
-1.75502868521e-07
1.82612126081e-07
-2.18272918009e-07
2.62329179038e-07
-3.07237488366e-07
3.01971177584e-07
-3.1254055261e-07
3.48654315817e-07
-3.01426383864e-07
3.95781156516e-07
-2.84376577131e-07
4.25979517624e-07
-2.57106980032e-07
4.16957612467e-07
-1.87707393143e-07
4.23884828455e-07
-1.60764436378e-07
4.66117023404e-07
-1.73843144676e-07
5.34224864301e-07
-2.11465299203e-07
6.21920785136e-07
-2.61958966829e-07
7.01836648126e-07
-2.94252752829e-07
7.53767376323e-07
-3.03123082843e-07
7.97449122823e-07
-3.16457945151e-07
8.52882180135e-07
-3.42627567226e-07
9.1022123592e-07
-3.5678320352e-07
9.65229599289e-07
-3.56529969709e-07
1.02066489039e-06
-3.50937263394e-07
1.0769891916e-06
-3.43929523663e-07
1.13211614141e-06
-3.36513279829e-07
1.18248874837e-06
-3.27909933633e-07
1.23765599726e-06
-3.28718330625e-07
1.29066503397e-06
-3.24458728864e-07
1.34429793628e-06
-3.19910433842e-07
1.3890564127e-06
-3.07954734677e-07
1.4396571583e-06
-3.07589355982e-07
1.49652215554e-06
-3.15180333163e-07
1.55610854198e-06
-3.25912147343e-07
1.6359471995e-06
-3.5472655973e-07
1.7164910908e-06
-3.74602723969e-07
1.78492638835e-06
-3.80194877515e-07
1.84622520727e-06
-3.74048931202e-07
1.90414620669e-06
-3.61638634956e-07
1.95942069707e-06
-3.4565628316e-07
2.01268175711e-06
-3.25966828676e-07
2.06487565647e-06
-3.02351371707e-07
2.11515205623e-06
-2.77433984014e-07
2.16131655707e-06
-2.54390729639e-07
2.20226081932e-06
-2.33531622047e-07
2.23820911091e-06
-2.13201220807e-07
2.2696312151e-06
-1.91961954697e-07
2.29675426946e-06
-1.69103206117e-07
2.31948779203e-06
-1.44293758534e-07
2.3375572557e-06
-1.17322445767e-07
2.35052751387e-06
-8.8168001077e-08
2.35757902033e-06
-5.70455543523e-08
2.35783754487e-06
-2.40512488218e-08
2.35161436765e-06
1.08062352768e-08
2.34015215711e-06
4.65964989943e-08
2.32223840173e-06
8.20396598573e-08
2.29349026175e-06
1.19475755242e-07
2.24782876103e-06
1.65576895154e-07
2.17742963222e-06
2.28493521596e-07
2.07385951037e-06
3.17087070225e-07
1.93414944214e-06
4.39066498008e-07
1.76786817057e-06
5.9671626808e-07
1.60205586099e-06
7.76946390495e-07
1.4850739028e-06
9.25587365902e-07
1.36072648114e-06
1.10007737083e-06
1.20451623481e-06
1.06354868604e-06
1.07301304353e-06
8.36998640009e-07
9.27915875678e-07
7.28601693745e-07
7.93142857198e-07
6.56719106747e-07
6.8756160209e-07
6.17925577192e-07
5.9521220559e-07
6.39365730555e-07
5.07236610751e-07
6.55263626774e-07
4.35782199088e-07
5.97435656311e-07
3.57724874631e-07
5.53031865024e-07
2.75237540107e-07
5.34657868721e-07
1.96805370182e-07
5.18489135583e-07
1.42859917719e-07
4.73811105008e-07
9.74433675085e-08
3.91073727954e-07
5.48551060134e-08
3.42928083515e-07
2.44524078506e-08
3.931562054e-07
3.94780744768e-07
1.85970080054e-08
-2.42142258761e-07
7.35090915289e-08
-3.10637901374e-07
9.69310388636e-08
-3.63408826072e-07
8.1450694727e-08
-2.90290947437e-07
1.14164359951e-07
-2.08151520472e-07
2.03172025659e-07
-3.07191356906e-07
2.46223752826e-07
-3.50189636673e-07
2.7980936061e-07
-3.46008749246e-07
3.1317182308e-07
-3.34683429165e-07
3.59718994013e-07
-3.30802710409e-07
3.59271258066e-07
-2.5656741792e-07
3.59720722233e-07
-1.88087453882e-07
3.99454275754e-07
-2.00437007418e-07
4.55329011847e-07
-2.29659038365e-07
5.38262223549e-07
-2.94329833794e-07
6.20573633714e-07
-3.44193525826e-07
6.71433070968e-07
-3.45036994201e-07
7.13158840105e-07
-3.44775962574e-07
7.72461325672e-07
-3.75685576711e-07
8.33276578315e-07
-4.03366160611e-07
8.88521247766e-07
-4.11950851136e-07
9.43299746641e-07
-4.11232099527e-07
9.99172407834e-07
-4.06734608419e-07
1.05234704991e-06
-3.97028649983e-07
1.10278798793e-06
-3.86879744828e-07
1.15456595016e-06
-3.79613656213e-07
1.20509066239e-06
-3.79168265895e-07
1.25941462569e-06
-3.78707646609e-07
1.30760470628e-06
-3.68024710645e-07
1.35371054239e-06
-3.53983917949e-07
1.4141464006e-06
-3.67946625985e-07
1.47895179648e-06
-3.79906647758e-07
1.55623738539e-06
-4.03115622335e-07
1.63622717051e-06
-4.34628855163e-07
1.71469546682e-06
-4.52978717903e-07
1.78155445235e-06
-4.4695886089e-07
1.84204152307e-06
-4.34438926476e-07
1.90027900037e-06
-4.19776712388e-07
1.95690981564e-06
-4.02184890853e-07
2.0117919529e-06
-3.80743654178e-07
2.06502962187e-06
-3.55480331422e-07
2.1159143503e-06
-3.28206496658e-07
2.16287608671e-06
-3.01236369313e-07
2.20483606537e-06
-2.75371511314e-07
2.24165119751e-06
-2.49892075271e-07
2.27353770525e-06
-2.2372005019e-07
2.30057489861e-06
-1.96007969923e-07
2.32256878769e-06
-1.66150713405e-07
2.33914441845e-06
-1.33756263518e-07
2.34980796217e-06
-9.86871763517e-08
2.3539480149e-06
-6.1028411372e-08
2.35107532389e-06
-2.1029319695e-08
2.34118682311e-06
2.0860461044e-08
2.32384439857e-06
6.41063875662e-08
2.29625790622e-06
1.09805155426e-07
2.252986532e-06
1.62928398575e-07
2.18743292804e-06
2.31364037503e-07
2.0944637693e-06
3.21627487924e-07
1.97459580564e-06
4.37208104079e-07
1.83588356203e-06
5.77978185313e-07
1.69598715088e-06
7.36850068487e-07
1.57760940951e-06
8.95548916656e-07
1.45140980097e-06
1.05200547527e-06
1.32394504332e-06
1.22778010727e-06
1.11434371289e-06
1.27336948806e-06
9.61288181094e-07
9.9023570958e-07
8.40852494153e-07
8.49214008372e-07
7.12225184197e-07
7.85500802962e-07
5.9220834399e-07
7.38094683319e-07
4.93569326518e-07
7.38127644947e-07
4.29782288799e-07
7.19162967824e-07
3.69283222249e-07
6.58028572611e-07
2.91584760809e-07
6.30822028136e-07
2.14008779246e-07
6.12327439477e-07
1.49319468582e-07
5.83266232296e-07
1.13509551729e-07
5.09710408136e-07
6.58661585358e-08
4.38781882067e-07
2.56690154722e-08
3.8314393709e-07
1.37575739777e-08
4.05285282957e-07
4.08510895323e-07
3.35322346195e-08
-2.75648586541e-07
7.83088909277e-08
-3.55313141821e-07
8.84014060717e-08
-3.73412247076e-07
5.85935680387e-08
-2.60415326897e-07
1.22859705246e-07
-2.72346672047e-07
1.90856003209e-07
-3.75096337009e-07
2.23254545026e-07
-3.82482349189e-07
2.57385985426e-07
-3.8003926141e-07
2.693506809e-07
-3.46526060631e-07
2.92368123086e-07
-3.5372323643e-07
2.84998012318e-07
-2.49122904828e-07
3.29995639473e-07
-2.33023422629e-07
3.77676255167e-07
-2.48058011392e-07
4.50034558752e-07
-3.01951910514e-07
5.32148282252e-07
-3.76367778837e-07
5.85457764469e-07
-3.97423118273e-07
6.23232656793e-07
-3.8273607675e-07
6.82559261965e-07
-4.04026875683e-07
7.48325039416e-07
-4.4137346503e-07
8.05604916311e-07
-4.60566963486e-07
8.59511802659e-07
-4.65779524525e-07
9.13651288638e-07
-4.65294668607e-07
9.71135718522e-07
-4.64141357442e-07
1.02748296313e-06
-4.5329971908e-07
1.07426863859e-06
-4.33589870656e-07
1.12995310384e-06
-4.35222108105e-07
1.17880195741e-06
-4.27941097753e-07
1.22328113615e-06
-4.2311063063e-07
1.27032762543e-06
-4.14995766267e-07
1.34513007332e-06
-4.28707922757e-07
1.40896119134e-06
-4.31697394831e-07
1.47002719164e-06
-4.40891264496e-07
1.55152461243e-06
-4.8452784118e-07
1.63803876985e-06
-5.21052259e-07
1.70835452002e-06
-5.23200322961e-07
1.77312665164e-06
-5.11634618968e-07
1.83531538043e-06
-4.96529465874e-07
1.89554937033e-06
-4.79910344155e-07
1.95410079931e-06
-4.60633401262e-07
2.01082303542e-06
-4.37359914406e-07
2.06545098232e-06
-4.09999095872e-07
2.11731837089e-06
-3.79961087859e-07
2.16527206554e-06
-3.49073640113e-07
2.20832503748e-06
-3.18304129249e-07
2.24607700751e-06
-2.87520050276e-07
2.27845080523e-06
-2.55966116615e-07
2.30529125583e-06
-2.2271737698e-07
2.32624167354e-06
-1.8696713103e-07
2.340834351e-06
-1.48213691731e-07
2.34856868568e-06
-1.06276208198e-07
2.34890208184e-06
-6.12284296113e-08
2.34134357903e-06
-1.33126459652e-08
2.32518773384e-06
3.71630863577e-08
2.29863776209e-06
9.08128947374e-08
2.25776475659e-06
1.508501047e-07
2.19719224407e-06
2.23707081229e-07
2.1128975761e-06
3.15797651332e-07
2.0075575818e-06
4.27226789672e-07
1.88982135567e-06
5.55086687163e-07
1.76905825937e-06
6.98976347175e-07
1.65322869274e-06
8.5288913938e-07
1.54535896747e-06
1.00363766146e-06
1.44425525602e-06
1.15332057404e-06
1.37054918573e-06
1.30168764576e-06
1.1886253806e-06
1.45549622674e-06
8.96044913992e-07
1.28299331812e-06
7.2240663239e-07
1.0230135935e-06
5.866562981e-07
9.21415370796e-07
4.70639692476e-07
8.54237090633e-07
3.99119295852e-07
8.09748701291e-07
3.61683355362e-07
7.56662767941e-07
3.0334255061e-07
7.1643002201e-07
2.29892030475e-07
7.04337561059e-07
1.59858721972e-07
6.82426135808e-07
1.0977445726e-07
6.334117658e-07
6.9343863989e-08
5.50200634202e-07
2.61866364754e-08
4.82011729807e-07
-1.10147599002e-08
4.20474451974e-07
-1.01177144297e-08
4.04325067524e-07
3.98496993148e-07
4.13771561824e-08
-3.16911607825e-07
7.12715233313e-08
-3.85102581708e-07
6.50296390333e-08
-3.67063393887e-07
7.04451255578e-08
-2.65767783831e-07
1.3952021745e-07
-3.41343859965e-07
1.67839533106e-07
-4.03319463349e-07
1.96833109337e-07
-4.11374026734e-07
2.29034398393e-07
-4.12134807124e-07
2.39021266047e-07
-3.56420343133e-07
2.54249717207e-07
-3.688495097e-07
2.70273496662e-07
-2.65082463483e-07
3.11199658758e-07
-2.73888209095e-07
3.63418224738e-07
-3.00219292118e-07
4.42144569939e-07
-3.80608251869e-07
5.10802592819e-07
-4.4494064306e-07
5.47379466021e-07
-4.33918008369e-07
5.91126926929e-07
-4.26405975271e-07
6.53406111178e-07
-4.66227557403e-07
7.15569996392e-07
-5.03456874858e-07
7.72714732255e-07
-5.17631643898e-07
8.27353038442e-07
-5.20338792921e-07
8.78913136824e-07
-5.1677442373e-07
9.30265639045e-07
-5.1541457661e-07
9.83183403928e-07
-5.06140169779e-07
1.03068868277e-06
-4.81018752214e-07
1.08206117298e-06
-4.86517377428e-07
1.13830985658e-06
-4.84113481077e-07
1.19844910578e-06
-4.83172620778e-07
1.26087326773e-06
-4.77342060788e-07
1.32037953904e-06
-4.88134699515e-07
1.38734355499e-06
-4.98580671915e-07
1.47701837181e-06
-5.30481289223e-07
1.55900128653e-06
-5.66421362403e-07
1.62937297954e-06
-5.91330892565e-07
1.69678372712e-06
-5.90515254491e-07
1.76273917085e-06
-5.77492395405e-07
1.82724428846e-06
-5.60935203599e-07
1.88994170562e-06
-5.42506504884e-07
1.95077775441e-06
-5.21365731122e-07
2.00963205647e-06
-4.9610764346e-07
2.06608825158e-06
-4.66345342117e-07
2.11941895875e-06
-4.33178410763e-07
2.16868509057e-06
-3.98222510009e-07
2.21302031978e-06
-3.62518546667e-07
2.25183404109e-06
-3.26209136259e-07
2.28471909944e-06
-2.88723949385e-07
2.3112415324e-06
-2.49110669989e-07
2.33085857353e-06
-2.06454482853e-07
2.3429922883e-06
-1.60212294665e-07
2.34706198386e-06
-1.10223051968e-07
2.34246864042e-06
-5.6481866617e-08
2.32835576023e-06
9.28991872518e-10
2.30327815553e-06
6.23882982634e-08
2.2644849257e-06
1.29775683038e-07
2.20794703448e-06
2.0756586474e-07
2.13026379158e-06
3.01552496786e-07
2.03231924329e-06
4.14011659374e-07
1.92542069721e-06
5.34252146754e-07
1.82147191412e-06
6.59300422413e-07
1.71922542045e-06
8.01431926996e-07
1.61057557325e-06
9.61783417253e-07
1.50295975524e-06
1.1114703598e-06
1.4172867107e-06
1.2391741798e-06
1.354374382e-06
1.36476037091e-06
1.29319911546e-06
1.51682093844e-06
9.90532277363e-07
1.58582721199e-06
6.15243836566e-07
1.39847348453e-06
4.58251917236e-07
1.07855376699e-06
3.6083696238e-07
9.51772936772e-07
3.12938051067e-07
8.57719174615e-07
2.91973506932e-07
7.77684088338e-07
2.42666809374e-07
7.65790092339e-07
1.76497214571e-07
7.70564704376e-07
1.11238283586e-07
7.47736416859e-07
5.94474092384e-08
6.85272957838e-07
6.49706749061e-09
6.0322837444e-07
-3.35781244365e-08
5.22150016605e-07
-5.62363332158e-08
4.43130224568e-07
-3.97092994647e-08
3.87994637083e-07
3.58751617859e-07
4.47598897058e-08
-3.61651507184e-07
7.02294095427e-08
-4.10494758893e-07
5.24636068873e-08
-3.49226859039e-07
7.88981483815e-08
-2.92128019775e-07
1.34280043854e-07
-3.96629996921e-07
1.44639082375e-07
-4.13577399786e-07
1.67167919617e-07
-4.33808785941e-07
1.83080163478e-07
-4.27946319744e-07
2.0950668512e-07
-3.82767145145e-07
2.04947849288e-07
-3.64214956024e-07
2.41711117911e-07
-3.01782781628e-07
2.89230437752e-07
-3.21353888141e-07
3.43870787412e-07
-3.54794870942e-07
4.13641085001e-07
-4.50299504073e-07
4.62438749066e-07
-4.93655411756e-07
4.91186647268e-07
-4.62585015574e-07
5.48395025878e-07
-4.83534536947e-07
6.1422446923e-07
-5.3197531184e-07
6.74945993174e-07
-5.64096254757e-07
7.33864037678e-07
-5.76468051487e-07
7.91705202693e-07
-5.78096928919e-07
8.46596759396e-07
-5.71584699942e-07
8.92829683482e-07
-5.6156564901e-07
9.40610120484e-07
-5.53841012864e-07
9.97773074861e-07
-5.38105393582e-07
1.04512990715e-06
-5.33795302623e-07
1.09319568227e-06
-5.32101083696e-07
1.14061859522e-06
-5.30517658799e-07
1.21389475165e-06
-5.50539082625e-07
1.29136952246e-06
-5.65529490389e-07
1.37365200271e-06
-5.80780358842e-07
1.45503612695e-06
-6.11778629096e-07
1.54303107141e-06
-6.54323760248e-07
1.61620750508e-06
-6.64411440558e-07
1.68369356923e-06
-6.57903660758e-07
1.75107773478e-06
-6.44777401115e-07
1.81804341401e-06
-6.27800293526e-07
1.88348431327e-06
-6.07844950388e-07
1.94694003827e-06
-5.84716767159e-07
2.00823917918e-06
-5.57299247358e-07
2.06693279776e-06
-5.24928377755e-07
2.12223817939e-06
-4.88369664119e-07
2.17326350877e-06
-4.49130202262e-07
2.21918758464e-06
-4.08321133715e-07
2.25928071611e-06
-3.66177719917e-07
2.29281045299e-06
-3.22126410953e-07
2.31899005249e-06
-2.75162205719e-07
2.33705550561e-06
-2.24389578986e-07
2.3463016333e-06
-1.69337844996e-07
2.34603450029e-06
-1.09809558399e-07
2.33533533998e-06
-4.56672893623e-08
2.31289545976e-06
2.35186907034e-08
2.27652135577e-06
9.89132357305e-08
2.22318173054e-06
1.83271415223e-07
2.1502952586e-06
2.80644463699e-07
2.05842597118e-06
3.93643418671e-07
1.95101261787e-06
5.21560914864e-07
1.84728732711e-06
6.3827681897e-07
1.76005259338e-06
7.46739780393e-07
1.67358341456e-06
8.8813575112e-07
1.55994404638e-06
1.07565434275e-06
1.43558534553e-06
1.23596923765e-06
1.34610790651e-06
1.32871741479e-06
1.29440446443e-06
1.41648016249e-06
1.28128618782e-06
1.52996512564e-06
1.17934569508e-06
1.68782885556e-06
7.5946558116e-07
1.8184506078e-06
3.33100829531e-07
1.50502655492e-06
2.33878874152e-07
1.05108298569e-06
2.07513191173e-07
8.84129428882e-07
2.22482378359e-07
7.62743246715e-07
1.96444578411e-07
7.9187461301e-07
1.38019178749e-07
8.29053573854e-07
6.77390244826e-08
8.18099684055e-07
-4.94183499189e-09
7.58036756959e-07
-7.23696831525e-08
6.70735770078e-07
-1.10356129148e-07
5.60259184614e-07
-1.06463246447e-07
4.39369343559e-07
-6.59524584734e-08
3.47397110305e-07
2.92869617044e-07
3.84832259162e-08
-4.00004363565e-07
5.88434116312e-08
-4.30750723384e-07
4.96425338352e-08
-3.39949646525e-07
8.94423338752e-08