/*--------------------------------*- C++ -*----------------------------------*\
| =========                 |                                                 |
| \\      /  F ield         | OpenFOAM: The Open Source CFD Toolbox           |
|  \\    /   O peration     | Version:  v1806                                 |
|   \\  /    A nd           | Web:      www.OpenFOAM.com                      |
|    \\/     M anipulation  |                                                 |
\*---------------------------------------------------------------------------*/
FoamFile
{
    version     2.0;
    format      ascii;
    class       volVectorField;
    location    "865";
    object      U;
}
// * * * * * * * * * * * * * * * * * * * * * * * * * * * * * * * * * * * * * //

dimensions      [0 1 -1 0 0 0 0];


internalField   nonuniform List<vector> 
6400
(
(-0.000121109358945 -0.000156979722427 0)
(-0.000318049997018 -0.000112658246653 0)
(-0.000459439390547 -8.65972342696e-05 0)
(-0.000606563240814 -7.37859732142e-05 0)
(-0.000715325076282 -4.75482634505e-05 0)
(-0.000795177645928 -2.81404744614e-05 0)
(-0.000843017703245 -2.05313825271e-05 0)
(-0.00088378165554 -2.94228867928e-05 0)
(-0.000971018400384 -3.93681343884e-05 0)
(-0.00105530691022 -3.68230854809e-05 0)
(-0.00110002843975 -3.28591416774e-05 0)
(-0.00117465832593 -3.33006063578e-05 0)
(-0.0012420258093 -2.94384739621e-05 0)
(-0.00129631109474 -2.38688146429e-05 0)
(-0.00133797922851 -2.13795462716e-05 0)
(-0.00138034829162 -2.34719142299e-05 0)
(-0.00143001783468 -2.38644336006e-05 0)
(-0.00147343936694 -2.07322191163e-05 0)
(-0.00150738371567 -1.67977181686e-05 0)
(-0.00154049232599 -1.53645438487e-05 0)
(-0.0015808641127 -1.92640972553e-05 0)
(-0.00162665334627 -2.29698582304e-05 0)
(-0.00167235757194 -2.28980691413e-05 0)
(-0.0017128629939 -2.12428172426e-05 0)
(-0.00174989603013 -1.89966540855e-05 0)
(-0.0017848913393 -1.67072133761e-05 0)
(-0.00181869723417 -1.5317528209e-05 0)
(-0.00184898838615 -1.36841326253e-05 0)
(-0.00187437707401 -1.16980536739e-05 0)
(-0.00189542186009 -1.01242920192e-05 0)
(-0.00191264294427 -9.43632479754e-06 0)
(-0.00192965888039 -8.4421951886e-06 0)
(-0.00194643215338 -6.97183679583e-06 0)
(-0.00196031369696 -6.59857757842e-06 0)
(-0.00197315236714 -6.30752661893e-06 0)
(-0.0019884527298 -5.78322956356e-06 0)
(-0.00200013243195 -5.53116577788e-06 0)
(-0.00200421166468 -4.59495931773e-06 0)
(-0.00201308254951 -2.92460017173e-06 0)
(-0.00202407408911 -1.44671683111e-06 0)
(-0.00202744174754 -1.25921969256e-06 0)
(-0.00202209582239 -5.43180719627e-08 0)
(-0.00201434234666 3.3693185126e-06 0)
(-0.00200564028041 5.94430964176e-06 0)
(-0.00199359441234 7.44347371934e-06 0)
(-0.00197810352215 9.12825185495e-06 0)
(-0.00195882645227 1.10096336236e-05 0)
(-0.00193510612754 1.32853556449e-05 0)
(-0.00190688568039 1.5590789221e-05 0)
(-0.00187387612368 1.67774479088e-05 0)
(-0.00183763346636 1.68002489185e-05 0)
(-0.00180121635699 1.88100804495e-05 0)
(-0.00175852418398 2.46318411791e-05 0)
(-0.00171035266075 2.89523965568e-05 0)
(-0.00164941085678 3.30580604407e-05 0)
(-0.00157130807687 3.8477640634e-05 0)
(-0.00148951495539 3.9831009183e-05 0)
(-0.00141429220376 4.03528486984e-05 0)
(-0.00133445180331 4.51084869955e-05 0)
(-0.00123293128507 4.94849753393e-05 0)
(-0.00112726307162 5.12780567772e-05 0)
(-0.00101845150679 5.9918478976e-05 0)
(-0.000919127590656 7.88306096802e-05 0)
(-0.000759739039778 9.07441440544e-05 0)
(-0.000544029784817 7.27082624499e-05 0)
(-0.000404169088874 5.17551851453e-05 0)
(-0.000320552078195 4.30231588815e-05 0)
(-0.000252680658991 3.81879159584e-05 0)
(-0.000186687893735 3.55953276541e-05 0)
(-0.000118322462933 3.29578176092e-05 0)
(-5.5333976639e-05 2.87214627233e-05 0)
(-3.09814313629e-06 2.22382091073e-05 0)
(3.22145074656e-05 1.51982584095e-05 0)
(5.75591033944e-05 8.20347264165e-06 0)
(6.25759095691e-05 2.33885856711e-06 0)
(7.00936481027e-05 -1.24633614007e-06 0)
(5.44746048386e-05 -2.06629934941e-06 0)
(6.37864875699e-05 -6.53264464842e-06 0)
(2.93976206153e-05 -6.32302747171e-06 0)
(2.25709340333e-05 -1.3239653862e-05 0)
(-4.68494738501e-05 -0.000225509110289 0)
(-0.00019713764655 -0.000246759452205 0)
(-0.000340672446046 -0.000216379307547 0)
(-0.000435647240498 -0.000173167204965 0)
(-0.000614091132279 -0.000165788237081 0)
(-0.00076484959446 -0.000116775941142 0)
(-0.000853169516436 -7.73561246187e-05 0)
(-0.000915936358072 -9.35307022054e-05 0)
(-0.000982230116542 -0.000114477229029 0)
(-0.00105456082623 -0.000110693809665 0)
(-0.00112225278611 -0.000101691859386 0)
(-0.0011840306973 -9.58452701455e-05 0)
(-0.0012410691168 -8.42968842277e-05 0)
(-0.0012916108606 -7.12033952686e-05 0)
(-0.00133963070641 -6.5150100136e-05 0)
(-0.0013847744776 -7.32317279786e-05 0)
(-0.00143027772843 -7.57275396898e-05 0)
(-0.0014693328456 -5.84606233413e-05 0)
(-0.00148288426056 -4.55755353486e-05 0)
(-0.00152284312198 -4.70664592924e-05 0)
(-0.00157254700283 -5.96579487382e-05 0)
(-0.00162279572383 -7.22798014948e-05 0)
(-0.00167390660631 -7.13733830827e-05 0)
(-0.00171683945013 -6.24803872156e-05 0)
(-0.00174690298059 -5.55902616949e-05 0)
(-0.00178524647323 -5.12979331242e-05 0)
(-0.00182066196111 -4.63851370392e-05 0)
(-0.00184945288398 -4.0597067987e-05 0)
(-0.00187415601461 -3.506437231e-05 0)
(-0.00189600797106 -3.06152894519e-05 0)
(-0.00191440462865 -2.78417417691e-05 0)
(-0.0019276874254 -2.46034035497e-05 0)
(-0.00194446299562 -2.01224128679e-05 0)
(-0.00195782751861 -1.95426024011e-05 0)
(-0.00196924975997 -2.01094093711e-05 0)
(-0.00198860057504 -1.74490832808e-05 0)
(-0.00199840112832 -1.60775413783e-05 0)
(-0.00200240373853 -1.4904218793e-05 0)
(-0.00201387719124 -1.10727073476e-05 0)
(-0.00202987797828 -5.25052058294e-06 0)
(-0.00203420495375 2.16803319464e-06 0)
(-0.00200884811562 8.72061343398e-06 0)
(-0.00199061708807 1.29994856764e-05 0)
(-0.00198482549029 1.63345175511e-05 0)
(-0.00197477377988 2.00393925707e-05 0)
(-0.00196271294191 2.46841943499e-05 0)
(-0.00194767197958 3.03809019705e-05 0)
(-0.00192685581608 3.68566780482e-05 0)
(-0.00190392922947 4.38038652035e-05 0)
(-0.00187547266448 5.0482085532e-05 0)
(-0.00183685337636 5.61018649624e-05 0)
(-0.00178429157821 6.14038779357e-05 0)
(-0.00173474561983 6.84500608953e-05 0)
(-0.00170963410561 8.10847974506e-05 0)
(-0.00164423038153 9.71602228328e-05 0)
(-0.00157207457887 0.00010993085636 0)
(-0.00150804851657 0.000116692404863 0)
(-0.00143074849391 0.000123520139064 0)
(-0.00134214876085 0.000136311154458 0)
(-0.00124704821869 0.000151191559725 0)
(-0.00114006401616 0.000166014419245 0)
(-0.00100084496661 0.000185440284698 0)
(-0.000898704683812 0.000235247403654 0)
(-0.000735568563464 0.000272243206201 0)
(-0.000540132851151 0.000236329047047 0)
(-0.000379737655993 0.000163198265179 0)
(-0.000286060541086 0.00012016996055 0)
(-0.000229429510756 0.000108558603326 0)
(-0.00016550505845 0.00010448672352 0)
(-0.000102670799378 0.000100840087661 0)
(-4.11369468394e-05 8.77351430391e-05 0)
(8.54526677167e-06 6.56916973158e-05 0)
(4.13181425202e-05 4.18873311767e-05 0)
(6.64930463922e-05 2.47547806835e-05 0)
(7.9282386384e-05 9.7835202065e-06 0)
(8.39072268638e-05 -1.78010006878e-06 0)
(8.02709929796e-05 -9.20081260761e-06 0)
(7.09808305495e-05 -2.03982632405e-05 0)
(4.66039927665e-05 -2.94728953095e-05 0)
(2.26030605631e-05 -5.48247865768e-05 0)
(-6.7053081274e-05 -0.000388326119277 0)
(-0.000187293540451 -0.000411776030056 0)
(-0.000291551921752 -0.000373929613582 -8.30470868516e-29)
(-0.000475589146748 -0.000364020495049 7.54177099659e-29)
(-0.000641013973979 -0.000347684485698 6.51029372209e-29)
(-0.000752028063449 -0.000276860786887 -5.88624003191e-29)
(-0.000834220138569 -0.000154527639477 5.84418045273e-29)
(-0.000899962746282 -0.000157844323766 -5.58178461005e-29)
(-0.000968151745401 -0.000187310107126 0)
(-0.00104450145359 -0.000186704927524 0)
(-0.0011180646509 -0.000172284389176 0)
(-0.0011828760958 -0.000154921050834 0)
(-0.001240126645 -0.000135576449012 0)
(-0.00128965575078 -0.00012077885287 0)
(-0.00133958277639 -0.000112675030952 0)
(-0.00138595172391 -0.000102738938156 0)
(-0.00133245256019 -8.37390069656e-05 0)
(-0.00132065466028 -7.16780392948e-05 0)
(-0.00136680122368 -8.11878101455e-05 0)
(-0.00144601840824 -0.000108386313774 0)
(-0.00157013467495 -0.000130023637632 0)
(-0.00163580907189 -0.000129209506368 0)
(-0.00166823806392 -0.00011687329511 0)
(-0.00171099078311 -0.000103598714574 0)
(-0.00175341028834 -9.36350495588e-05 0)
(-0.00178791859866 -8.58237143461e-05 0)
(-0.0018193971839 -7.66389344503e-05 0)
(-0.00184859548295 -6.70903269779e-05 0)
(-0.00187393279024 -5.84594896292e-05 0)
(-0.00189527564057 -5.14010011397e-05 -9.69565919824e-29)
(-0.00191521176138 -4.52957627656e-05 9.34832958299e-29)
(-0.00192509595394 -3.97603688502e-05 0)
(-0.00194095901316 -3.39086240396e-05 0)
(-0.00196249008087 -2.99689652724e-05 0)
(-0.00196057905963 -3.24937376916e-05 0)
(-0.00198058258197 -3.24785610043e-05 0)
(-0.00200329809175 -2.69271144699e-05 0)
(-0.00199973757894 -2.43243490981e-05 0)
(-0.00201201544036 -2.18647548527e-05 0)
(-0.00202881650016 -1.16881209266e-05 0)
(-0.00203379580919 5.3676712489e-06 0)
(-0.0020275470596 1.86322874204e-05 0)
(-0.0020184667228 2.35550475167e-05 0)
(-0.00200902552221 2.71578775989e-05 0)
(-0.00199668971034 3.30588846413e-05 0)
(-0.00198071972223 4.06819210251e-05 0)
(-0.00196116068137 4.99425943322e-05 0)
(-0.00193787996735 6.0182148417e-05 0)
(-0.00191088684307 7.13509290916e-05 0)
(-0.0018796926989 8.38852596641e-05 0)
(-0.00184358154856 9.66897144588e-05 0)
(-0.00180262232679 0.00010714483159 0)
(-0.00175745704021 0.000116362620028 0)
(-0.00170221318487 0.000134277248527 0)
(-0.00163664089978 0.000157529154626 0)
(-0.00157565679458 0.000175732036409 0)
(-0.00150673469382 0.000191103364948 0)
(-0.00142507198093 0.000208965342036 0)
(-0.00133297842108 0.000230519352522 0)
(-0.00123081914596 0.00025583178641 0)
(-0.00111397484057 0.00028730467079 0)
(-0.000990093200342 0.000333330915831 0)
(-0.000854130366567 0.000410197704144 0)
(-0.000668433864546 0.00044375309689 0)
(-0.000464921974222 0.000357185102897 0)
(-0.000345079226097 0.000267019537185 0)
(-0.00026607067473 0.000211659484766 0)
(-0.000192665399171 0.000180658864069 0)
(-0.000128540746322 0.000168131690821 0)
(-6.84588740971e-05 0.000156655453419 0)
(-1.29043834463e-05 0.000133535188386 0)
(3.25509026024e-05 0.000101947282766 0)
(6.88698680128e-05 7.37026415337e-05 0)
(9.30682031058e-05 4.53817352975e-05 0)
(0.000100819760213 1.72439149958e-05 0)
(9.97625405673e-05 -3.04715923232e-06 0)
(9.23373334658e-05 -1.82142604354e-05 0)
(7.88506096849e-05 -4.07367493792e-05 0)
(5.78608524662e-05 -7.37844623881e-05 0)
(1.58069560471e-05 -8.13792855777e-05 0)
(-6.61040467391e-05 -0.000565441355933 0)
(-9.72209875551e-05 -0.000400567596552 0)
(-0.000238092386776 -0.000555541946931 0)
(-0.000407430433437 -0.000537965667068 0)
(-0.000565664481563 -0.000455928352047 0)
(-0.000364421938251 -0.000196472786484 0)
(-0.000464352661098 -0.000195387670053 0)
(-0.00079543462962 -0.000310713114041 0)
(-0.000925326358572 -0.00030656288508 0)
(-0.00102181203178 -0.000275498287425 0)
(-0.00110733184165 -0.000249176243916 0)
(-0.0011796340382 -0.00022009433363 0)
(-0.00124121600626 -0.000190667033102 0)
(-0.00128639103515 -0.000155602774587 0)
(-0.0012650180215 -0.000115250147812 0)
(-0.00123738469011 -8.92282731981e-05 0)
(-0.00124985545721 -8.85579053679e-05 0)
(-0.00131637783529 -0.000120754737139 0)
(-0.00143905227226 -0.000168037739108 0)
(-0.00153974728182 -0.000202041516238 0)
(-0.00158400212526 -0.000200343383599 0)
(-0.00162906094271 -0.000179785949907 0)
(-0.0016751265895 -0.000160867838102 0)
(-0.00171584006173 -0.000145702659536 0)
(-0.00175274549837 -0.000131590733303 0)
(-0.00178635157624 -0.000118479034327 0)
(-0.0018172689691 -0.000106227713543 0)
(-0.00184820244382 -9.39532844714e-05 0)
(-0.00187225310403 -8.21241874811e-05 0)
(-0.0018969570234 -7.18158244696e-05 0)
(-0.00191033613341 -6.29145931009e-05 0)
(-0.00192992355082 -5.40528413519e-05 0)
(-0.00193334831876 -4.52357498376e-05 0)
(-0.00195212744335 -4.28624500367e-05 0)
(-0.00197813721425 -4.54989368007e-05 0)
(-0.00197897353639 -4.72756720163e-05 0)
(-0.00200051499045 -4.28948019328e-05 0)
(-0.00201999796222 -3.6492841499e-05 0)
(-0.0020271409974 -2.9976315963e-05 0)
(-0.00203163151512 -1.5897111293e-05 0)
(-0.00203325806667 4.02355605493e-06 0)
(-0.00202966173796 2.08520915531e-05 0)
(-0.00202251841 3.10626905725e-05 0)
(-0.00201296633005 3.89011856585e-05 0)
(-0.0020001896791 4.80244683116e-05 0)
(-0.0019838477032 5.90300357861e-05 8.00909211324e-29)
(-0.00196392568558 7.16779071264e-05 -8.03787249477e-29)
(-0.00194031360771 8.55994009736e-05 0)
(-0.00191289640739 0.000100743465514 0)
(-0.00188132900608 0.000117036905813 0)
(-0.00184504496796 0.00013361887025 0)
(-0.00180342976779 0.000149966068969 0)
(-0.00175581387276 0.000168700893961 0)
(-0.00170079084035 0.000192990582212 0)
(-0.0016395842448 0.000218804035439 0)
(-0.00157389628125 0.000243378328235 0)
(-0.00150010583554 0.000269568072434 0)
(-0.00141446861765 0.00029896198924 1.45583566331e-28)
(-0.00131614148069 0.000332619699343 -1.66710432229e-28)
(-0.00120371787708 0.000372477883878 0)
(-0.00107478822257 0.000422585888529 0)
(-0.000930962174145 0.000492046788116 0)
(-0.000771142822691 0.000570893121415 0)
(-0.000613552769602 0.000599605932294 0)
(-0.000465171449068 0.000526001180746 0)
(-0.000308534768933 0.000369987299384 0)
(-0.000213546090523 0.000283693439129 0)
(-0.000143186650715 0.00024786353201 0)
(-8.18190637575e-05 0.000228775474571 0)
(-2.68535041056e-05 0.000215567703 0)
(2.75331663185e-05 0.000189650154563 0)
(7.56467047067e-05 0.000149962408666 0)
(0.000105337966293 0.000101848158298 0)
(0.000110083359621 5.24948850648e-05 0)
(0.000111694914537 1.73486888309e-05 0)
(0.00011038105194 -1.0340770234e-05 0)
(9.61495338314e-05 -3.6163479913e-05 0)
(6.15468968248e-05 -5.38774827131e-05 0)
(4.65168554113e-05 -9.03234570684e-05 0)
(1.61318401801e-05 -0.000114962956057 0)
(-1.25807867148e-05 -0.000582726830083 0)
(-5.59685583732e-05 -0.000486281948367 0)
(-0.000211264134504 -0.000715305211777 0)
(-0.000351054491338 -0.000659905136386 0)
(-0.000409115787464 -0.000460444064589 0)
(-0.000341907243028 -0.000266481396879 0)
(-0.000559231988869 -0.000404654232414 0)
(-0.000776236562273 -0.000503233953243 0)
(-0.000876717429494 -0.000437922348851 0)
(-0.000988824860232 -0.000377961288506 0)
(-0.0010841527026 -0.000340261640307 0)
(-0.00116580075908 -0.000295574656776 0)
(-0.00119803763622 -0.000220317788776 0)
(-0.00115087848947 -0.000142773110872 0)
(-0.00117820330177 -0.000114520839791 0)
(-0.0012401276614 -0.000125704111168 0)
(-0.00133190168908 -0.000166819908414 0)
(-0.001431421021 -0.000219891161966 0)
(-0.00150009864467 -0.000251679602292 0)
(-0.00153410433842 -0.000251831247883 0)
(-0.00158051524512 -0.000242620299259 0)
(-0.0016313956976 -0.000227325655653 0)
(-0.00167503375302 -0.000206508069962 0)
(-0.00171536959378 -0.000185656193905 0)
(-0.00175171224661 -0.000167135064657 0)
(-0.00178423223444 -0.000151354170199 0)
(-0.00181794081673 -0.000136207726584 0)
(-0.00184340662151 -0.000120984675201 0)
(-0.00187456420679 -0.000105888002368 0)
(-0.00188927232012 -9.14304563581e-05 0)
(-0.00191543869374 -7.91780725199e-05 -9.32487574533e-29)
(-0.00190972844693 -6.80902694876e-05 8.9196918167e-29)
(-0.00194022158745 -6.17998942327e-05 0)
(-0.00196780746131 -5.87283422576e-05 0)
(-0.00197387210125 -6.09427939247e-05 0)
(-0.00199948845369 -6.39677439081e-05 0)
(-0.00201474177962 -6.04873370036e-05 0)
(-0.00202499285343 -4.90120412402e-05 0)
(-0.00203134667113 -3.44469131179e-05 0)
(-0.00203492279567 -1.66348734351e-05 0)
(-0.00203602909211 4.21544901336e-06 0)
(-0.00203349598263 2.33612750894e-05 0)
(-0.0020273204873 3.79691769477e-05 0)
(-0.00201783705286 5.0244231745e-05 0)
(-0.00200482774316 6.30918639795e-05 0)
(-0.00198820319282 7.7572166111e-05 0)
(-0.00196794539474 9.37154586287e-05 0)
(-0.00194394000155 0.000111324642812 0)
(-0.00191600033548 0.000130354782353 0)
(-0.00188379454808 0.000150739982004 0)
(-0.0018467869841 0.00017217306644 0)
(-0.00180424134722 0.00019489894909 0)
(-0.0017553580086 0.000220564809773 0)
(-0.00169956336007 0.000250163730736 0)
(-0.00163746154117 0.000281947981874 0)
(-0.00156879126231 0.000315616198605 0)
(-0.00149005638773 0.000353285808107 0)
(-0.00139740010987 0.00039651748059 0)
(-0.00128830958037 0.00044678344073 0)
(-0.00116046142696 0.000506575127542 0)
(-0.00101308575487 0.000578324444576 0)
(-0.000852121132039 0.00065730932245 0)
(-0.000689395972675 0.000716559126547 0)
(-0.000555066834771 0.000738336355704 0)
(-0.000424977625318 0.000674356577723 0)
(-0.000282632769633 0.000507709561888 0)
(-0.000175346544897 0.000387526591441 0)
(-9.21028687011e-05 0.000322520367734 0)
(-2.65834210713e-05 0.00028677734112 0)
(2.93765585206e-05 0.000266475926385 0)
(8.44314644855e-05 0.000240844505562 0)
(0.000122795470372 0.000182998979696 0)
(0.000127385289426 0.000107110253648 0)
(0.000130994239844 5.51059914624e-05 0)
(0.000134330372293 1.51417018821e-05 0)
(0.000128283328164 -2.5047578737e-05 0)
(0.000100398879178 -5.82032130902e-05 0)
(6.9605903011e-05 -8.03608831503e-05 0)
(4.97025527754e-05 -0.000125049371321 0)
(1.45615386302e-05 -0.000141574702389 0)
(-2.92012190011e-06 -0.000554120800852 0)
(-6.33973410891e-05 -0.000587774278194 0)
(-0.000209360889168 -0.000820689966265 0)
(-0.000303553588707 -0.00070786054727 0)
(-0.000251288213598 -0.000380245636512 0)
(-0.000345544770822 -0.000383432260676 0)
(-0.000649093939741 -0.000622890424735 0)
(-0.000741300747682 -0.000616983324235 0)
(-0.000839905191675 -0.000549787076284 0)
(-0.00094940311477 -0.000488291066603 0)
(-0.00105175597452 -0.000419508030465 0)
(-0.00103488776771 -0.000307326453584 0)
(-0.000981187711596 -0.000195284910784 0)
(-0.00104940410982 -0.000166243463021 0)
(-0.00113267696548 -0.00018230425882 0)
(-0.00126240490012 -0.000228586117397 0)
(-0.0013765724057 -0.000271868560802 0)
(-0.00145045336856 -0.000290229782412 0)
(-0.00147775456305 -0.000288615384507 0)
(-0.00152992369566 -0.000293744104439 0)
(-0.00158582143144 -0.000292121287368 0)
(-0.00163102401288 -0.000274152874123 0)
(-0.00167320968443 -0.000249881742797 0)
(-0.00171238073672 -0.000225829560919 0)
(-0.00175238525686 -0.000203707261068 0)
(-0.0017851117987 -0.000182488932244 0)
(-0.00180684503396 -0.000165403042612 0)
(-0.00184760603186 -0.000148903003266 0)
(-0.00185914852644 -0.000128514009938 0)
(-0.00189720752015 -0.000109110702996 0)
(-0.00188453261127 -9.17281893048e-05 0)
(-0.00192370042072 -8.59681167629e-05 0)
(-0.00191727435698 -8.13394076571e-05 0)
(-0.00196070826216 -8.11937184089e-05 0)
(-0.00199599900079 -8.34539735219e-05 0)
(-0.00201190084431 -8.28201116246e-05 0)
(-0.00202221702488 -7.26025068199e-05 0)
(-0.00203036366895 -5.68762456164e-05 0)
(-0.00203613984644 -3.86556960049e-05 0)
(-0.0020396189761 -1.80875954157e-05 0)
(-0.00204064156347 4.37146917894e-06 0)
(-0.00203853285862 2.59357213935e-05 0)
(-0.00203287120824 4.4577910396e-05 0)
(-0.00202353053629 6.13080527323e-05 0)
(-0.00201044568075 7.81855357305e-05 0)
(-0.00199361666474 9.63706899505e-05 0)
(-0.00197303967929 0.000116163496362 0)
(-0.00194856729788 0.000137562691278 0)
(-0.00191994794611 0.000160604484537 0)
(-0.00188684222329 0.000185352562086 0)
(-0.0018487489596 0.000211901210884 0)
(-0.00180497826653 0.000240765564997 0)
(-0.00175482843996 0.000272952822625 0)
(-0.00169784268645 0.000308915039895 0)
(-0.00163369968413 0.000348484111888 0)
(-0.00156065259619 0.00039296043644 0)
(-0.00147468599452 0.000444812735105 0)
(-0.00137148085499 0.000505893919607 0)
(-0.001247955328 0.000577402535491 0)
(-0.00110275236818 0.000658911340169 0)
(-0.000940238534843 0.000744651809285 0)
(-0.000772384678723 0.000814345158176 0)
(-0.000604552703039 0.000840386263015 0)
(-0.000490359008837 0.000883810510615 0)
(-0.000344993452108 0.000789557353549 0)
(-0.000218422598829 0.000609395352258 0)
(-0.000121119902197 0.000481629772012 0)
(-3.28943236979e-05 0.000398909195575 0)
(3.91616388858e-05 0.000345636506614 0)
(0.000100883143485 0.000323883385962 0)
(0.000149231887209 0.000282997412015 0)
(0.000155438519409 0.000188207852806 0)
(0.000153729709387 0.000110937159688 0)
(0.000163895997671 5.98272238583e-05 0)
(0.000164849826117 8.96499420529e-06 0)
(0.000153235148749 -4.72570634101e-05 0)
(0.000113902443098 -8.32944409248e-05 0)
(8.26900987292e-05 -0.000109050365923 0)
(5.76919560514e-05 -0.00015882642508 0)
(1.76466062106e-05 -0.000172193389772 0)
(-2.23986170866e-05 -0.000604491575281 0)
(-0.000124736201505 -0.00074987907482 0)
(-0.000259732325222 -0.000899728846736 0)
(-0.000312123646887 -0.000847879218533 0)
(-0.000243312837779 -0.000483019758642 0)
(-0.00046773031173 -0.00064594628642 0)
(-0.000647592547879 -0.000752204462946 0)
(-0.000715641091673 -0.000706195148554 0)
(-0.000810256333795 -0.000643583646634 0)
(-0.000885281660081 -0.000579699209051 0)
(-0.00102106078454 -0.000481495377604 2.65982837929e-28)
(-0.000873335111354 -0.000273169713168 -1.79330507229e-28)
(-0.000971687413753 -0.000239346854014 0)
(-0.001034125375 -0.000247610224946 0)
(-0.00116575213206 -0.000297429719255 0)
(-0.00130124766211 -0.000352843003407 0)
(-0.00138438031577 -0.000358032650897 0)
(-0.00140337623149 -0.00033194064025 0)
(-0.00146694605858 -0.000335783565791 0)
(-0.00153639791027 -0.000348977553683 0)
(-0.0015819883035 -0.000341111754105 0)
(-0.00162840445515 -0.000319341176943 0)
(-0.00167268315407 -0.000293213452593 0)
(-0.00171361756352 -0.000265420619161 0)
(-0.00174582247724 -0.000237264716663 0)
(-0.00177288492776 -0.000211422581851 0)
(-0.00181380086668 -0.00019290802644 0)
(-0.00181799990341 -0.000174861788266 0)
(-0.00186967791028 -0.000152040842666 0)
(-0.00185448997195 -0.000120916251494 0)
(-0.00190378540939 -0.000109766451605 0)
(-0.00189738657881 -0.000106622286644 8.87093462536e-29)
(-0.00194112678848 -0.000106415745872 -8.85618608707e-29)
(-0.00196975566139 -0.000111431689413 0)
(-0.00200624968759 -0.000110232827005 0)
(-0.00202058682177 -9.85129689031e-05 0)
(-0.00202899711367 -8.2269980032e-05 0)
(-0.00203627455549 -6.35708846512e-05 0)
(-0.00204211494798 -4.27896220582e-05 0)
(-0.00204575320599 -1.99084626249e-05 0)
(-0.0020467857468 4.51344191702e-06 0)
(-0.00204485251967 2.86702953825e-05 0)
(-0.00203945055103 5.11072673429e-05 0)
(-0.00203024141499 7.21809133779e-05 0)
(-0.00201713558715 9.32493052971e-05 0)
(-0.00200014635991 0.000115375508975 0)
(-0.00197922578904 0.000139045731819 0)
(-0.00195416225855 0.000164451481744 0)
(-0.00192465870952 0.000191747723 0)
(-0.00189039049419 0.00022114270469 0)
(-0.00185092250373 0.000252975643471 0)
(-0.00180565621588 0.000287865061267 0)
(-0.00175392821273 0.00032663654744 0)
(-0.00169499912581 0.000370075244773 0)
(-0.00162753491863 0.000419469944043 0)
(-0.00154854659001 0.00047745678178 0)
(-0.00145333219084 0.000546990474837 0)
(-0.00133741807568 0.000629379009861 0)
(-0.00119913286503 0.000722854915268 0)
(-0.00104189546858 0.000821177382044 0)
(-0.000873927144564 0.000910201766548 0)
(-0.000707379700095 0.000970195730641 0)
(-0.000555431153726 0.00100506616478 0)
(-0.000424664011954 0.00100742923845 0)
(-0.000288430294734 0.000910427207099 0)
(-0.000144312310941 0.000700210540167 0)
(-4.59396939602e-05 0.000581382045302 0)
(4.5065014792e-05 0.000494147833132 0)
(0.000122157828622 0.000426027388466 0)
(0.00017963455957 0.000374120267945 0)
(0.000198487594688 0.000289690764246 0)
(0.000186258702872 0.000186224222406 0)
(0.000193707701258 0.000120201823381 0)
(0.000204438463864 6.45909744992e-05 0)
(0.000206150717237 -1.58495265192e-06 0)
(0.000180893921429 -7.19420799309e-05 0)
(0.000144148482723 -0.000119116982816 0)
(9.92824692565e-05 -0.000144504173909 0)
(6.67523456995e-05 -0.000195102490615 0)
(2.24307958517e-05 -0.00021450903257 0)
(-4.26061394459e-05 -0.000703735100592 0)
(-0.000167078908409 -0.000895937732021 0)
(-0.000284534936292 -0.000949289640293 0)
(-0.000216759600357 -0.000632584047099 0)
(-0.000257426935082 -0.000598905737477 0)
(-0.000515488681604 -0.000852193181003 0)
(-0.0006054034083 -0.000841589246477 0)
(-0.000693513667371 -0.000794946657253 0)
(-0.000764995751038 -0.000720085715157 0)
(-0.000861948469913 -0.000648939831766 0)
(-0.000766366646275 -0.000418707182735 0)
(-0.00086246725664 -0.000327627802557 0)
(-0.000953300357197 -0.000317677145413 0)
(-0.00103482226515 -0.000348360074868 0)
(-0.00121228684303 -0.000428424083078 0)
(-0.00131032671802 -0.000445670068203 0)
(-0.00132180538482 -0.00040148621846 0)
(-0.00138412937129 -0.00038647960072 0)
(-0.00147282960825 -0.000403218631728 0)
(-0.00153225893873 -0.000404734662996 0)
(-0.00157680408665 -0.000387920700619 0)
(-0.00162085225456 -0.00036387626309 0)
(-0.00166766993563 -0.000337979760973 0)
(-0.00170878808107 -0.000306734660981 0)
(-0.00175181977655 -0.000269601271336 0)
(-0.00176535584311 -0.0002425764057 0)
(-0.00181775257442 -0.000220070596745 0)
(-0.00182901708446 -0.000194575569055 0)
(-0.00183008610835 -0.000169261366582 0)
(-0.00186213209281 -0.000148596799133 0)
(-0.00192131991922 -0.000136367730896 0)
(-0.00192089492715 -0.00012642709385 0)
(-0.00193776368869 -0.00013623951273 0)
(-0.00199389516006 -0.000142859304063 0)
(-0.00201331122842 -0.000132876345852 0)
(-0.00202621858311 -0.00011273537182 0)
(-0.00203589665267 -9.1562565491e-05 0)
(-0.0020433853191 -7.01410488975e-05 0)
(-0.0020493076714 -4.7150221828e-05 0)
(-0.00205314886696 -2.20579039671e-05 0)
(-0.00205430259294 4.60760865015e-06 0)
(-0.00205244873023 3.15321745967e-05 0)
(-0.00204718705434 5.76370401341e-05 0)
(-0.00203810393161 8.29454221134e-05 0)
(-0.00202501498675 0.000108301701591 7.80170911069e-29)
(-0.00200787504759 0.000134602568965 -7.76771028662e-29)
(-0.0019865486989 0.000162444185782 0)
(-0.0019607430028 0.000192172274575 0)
(-0.00193013005878 0.000224041167157 0)
(-0.00189442018238 0.00025836338392 0)
(-0.0018532534224 0.000295638834026 0)
(-0.00180611013359 0.000336646597674 0)
(-0.00175227586847 0.00038248231889 0)
(-0.00169056602193 0.000434762236433 0)
(-0.00161868940941 0.000496175655921 0)
(-0.00153268230198 0.000570437612647 0)
(-0.00142751690398 0.000660407297213 0)
(-0.0012997562482 0.000765103091665 0)
(-0.00115117289338 0.000877746821634 0)
(-0.000988429905041 0.000987479787323 0)
(-0.000818149388294 0.0010789243538 0)
(-0.000649847383188 0.00113380346929 0)
(-0.000495713489957 0.00114858592275 0)
(-0.000362482388138 0.00112287138312 0)
(-0.000254413804517 0.0010803487126 0)
(-8.7150901944e-05 0.000833176296374 0)
(4.40926804136e-05 0.00067649883166 0)
(0.000140457888719 0.000577097235514 0)
(0.00020960159353 0.000481248530449 0)
(0.000246649097994 0.000389846542557 0)
(0.000240816772135 0.000279571431509 0)
(0.000228222091362 0.000187782696192 0)
(0.000238721338873 0.000130980557145 0)
(0.000252083355859 7.1846968234e-05 0)
(0.000257092769555 -1.28560868118e-05 0)
(0.000225447237084 -0.00010298078405 0)
(0.00018468776657 -0.000166372770134 0)
(0.000123446971223 -0.000197059350702 0)
(7.35168839827e-05 -0.000239380068446 0)
(2.48256137285e-05 -0.000266482489047 0)
(-5.69728383084e-05 -0.000824003194309 0)
(-0.00018383945649 -0.00101210764098 0)
(-0.000249661951364 -0.00099485234042 0)
(-0.000211182330371 -0.000694802347427 0)
(-0.000333346635333 -0.000772741651342 0)
(-0.000518843344316 -0.000960215397644 0)
(-0.00057003034116 -0.000926247579718 0)
(-0.000673843042343 -0.00087995273941 0)
(-0.000687151388748 -0.000752784674712 0)
(-0.000865749091249 -0.000732815885487 0)
(-0.000746094387397 -0.000467960209821 0)
(-0.00086340489483 -0.000416269598159 0)
(-0.000944038341736 -0.000411837114808 0)
(-0.00108355424312 -0.000480153232677 0)
(-0.00121891157678 -0.000543555998697 0)
(-0.00129620682778 -0.0005141667557 0)
(-0.00130888363954 -0.000454113479081 0)
(-0.00138752071397 -0.000457377744398 0)
(-0.001465050643 -0.000470367850182 0)
(-0.00152262611368 -0.000460014289552 0)
(-0.00157419520846 -0.000436145587639 0)
(-0.00161662535574 -0.000406839637747 0)
(-0.00166146997305 -0.000378706818815 0)
(-0.00168885107286 -0.000346485953585 0)
(-0.00172055527128 -0.000300782539551 0)
(-0.00177899655648 -0.000271286376176 0)
(-0.00176208971048 -0.000246328661964 0)
(-0.00184844454883 -0.000220786715118 0)
(-0.00182876539561 -0.000194653011296 0)
(-0.00189854305084 -0.00018279624866 0)
(-0.00188299539419 -0.000161408494706 0)
(-0.00195100549944 -0.000156409955066 0)
(-0.00197988231269 -0.000165983546735 9.1426674392e-29)
(-0.00200178916903 -0.000168430638628 -9.0282695027e-29)
(-0.00201915969013 -0.000150616005527 0)
(-0.00203277463747 -0.00012611973313 0)
(-0.00204359267436 -0.000101476533982 0)
(-0.00205167540271 -7.71748926537e-05 0)
(-0.00205772183947 -5.18192731942e-05 0)
(-0.0020616797476 -2.44888245856e-05 0)
(-0.00206302203659 4.5950130326e-06 0)
(-0.0020613209123 3.44418326552e-05 0)
(-0.00205618117579 6.4170619652e-05 0)
(-0.0020472198538 9.36388016396e-05 0)
(-0.0020341926434 0.000123368263349 0)
(-0.00201690989005 0.000154097958156 0)
(-0.00199509906439 0.000186466217429 0)
(-0.00196839169252 0.000220915064788 0)
(-0.0019364401733 0.000257750357198 0)
(-0.00189897797652 0.000297332908642 0)
(-0.00185571701724 0.000340300639899 0)
(-0.00180621176272 0.000387733065794 0)
(-0.00174967238406 0.000441343658092 0)
(-0.00168449037716 0.000503831240959 0)
(-0.00160767470114 0.000579124019616 0)
(-0.00151477951203 0.000671472193035 0)
(-0.00140109718363 0.000782727015075 0)
(-0.00126492475882 0.000908833468622 0)
(-0.00111090315378 0.00103845114207 0)
(-0.00094554055016 0.00115897133607 0)
(-0.000770029330312 0.00125668724333 0)
(-0.000591359694648 0.00130275061132 0)
(-0.000426133313964 0.00129695737112 0)
(-0.000282248998031 0.00125212875549 0)
(-0.000171529129476 0.00117822647821 0)
(-4.16735840943e-05 0.00103746751292 0)
(0.000124373568067 0.000767320679503 0)
(0.000246170110296 0.000659149674315 0)
(0.00030533958339 0.000532354541288 0)
(0.000316269072195 0.000389786589605 0)