/*--------------------------------*- C++ -*----------------------------------*\
| =========                 |                                                 |
| \\      /  F ield         | OpenFOAM: The Open Source CFD Toolbox           |
|  \\    /   O peration     | Version:  v1806                                 |
|   \\  /    A nd           | Web:      www.OpenFOAM.com                      |
|    \\/     M anipulation  |                                                 |
\*---------------------------------------------------------------------------*/
FoamFile
{
    version     2.0;
    format      ascii;
    class       volScalarField;
    location    "601";
    object      alpha;
}
// * * * * * * * * * * * * * * * * * * * * * * * * * * * * * * * * * * * * * //

dimensions      [0 0 -1 0 0 0 0];


internalField   nonuniform List<scalar> 
6400
(
0.885047683804
1.40904869258
2.22798180054
2.76036525405
3.26985036906
3.78357429032
4.44725619643
5.19271729026
5.60597912702
6.25311723913
7.49026739486
8.33516951256
9.03842528904
9.83427809703
10.8255792049
11.8641866614
12.7835786963
13.647485431
14.3745851351
14.7912200101
14.9796918978
15.2912089452
15.9357861167
16.9003402225
17.9607247997
18.9109235401
19.6868133062
20.4030669567
21.1641732938
21.9851036691
22.8107534022
23.4423878813
23.8032310874
24.0186838255
24.1275153359
24.1181144944
24.2820091424
24.6874493548
24.7638960372
24.6097493128
24.8408621757
25.5912531393
26.3494023519
26.7556344995
26.8626468261
26.7632795507
26.5253945889
26.1959968976
25.7881759361
25.322281738
24.706901918
23.7080553796
22.3901841095
20.8172788786
19.4579253749
18.3790963078
16.8477667835
14.5424797026
12.1118299551
10.2244619848
8.2866306219
6.26605541467
4.24417671737
4.78462321654
8.55509876278
13.4164264124
16.3748118352
16.0682126742
14.084423023
12.5063613706
11.6919319677
11.9589637562
12.5623348469
12.485022394
14.5871003358
14.0474198373
15.9486862304
9.84999852879
12.8651676607
4.8082917777
3.14835432812
2.51670469572
3.1319696855
4.38791741786
4.30598750685
4.21384811997
4.44105166467
4.89490314515
5.5402377436
6.36178201179
7.35343102357
8.34254830961
9.2154945478
10.0509740443
10.9020373401
11.8752549271
12.8977438499
13.8757427181
14.9049774948
15.1475010004
15.140105921
15.4190684717
16.0299287268
16.9778504482
18.1745296632
19.0622218074
19.8054603837
20.5628655439
21.3409587907
22.1306229015
22.9243024456
23.6540329799
24.0101215967
24.221508447
24.3670936364
24.2592526971
24.476683454
24.905995789
24.9263503858
24.6196898492
24.8177965671
26.1852045476
27.2840972986
27.5881807288
27.6300195233
27.4380666321
27.0816417911
26.6695622141
26.0762430227
25.4253314624
24.8889093423
24.4823967307
23.4005165111
21.0417247787
19.817472653
18.4857791236
16.3018810464
14.0602753087
11.9007635394
9.77123094413
7.82909719449
6.62639338536
4.65543177043
5.23741208407
8.71382807922
14.4750381079
18.195663566
16.8972178173
14.7337214478
12.8360634386
12.1915798601
12.6751866943
13.8407055443
13.2982292027
13.1862235511
12.6921897364
11.5195485158
9.69701603636
8.16096787303
4.24503748703
3.23977509785
2.84913320923
3.36586598797
3.65523841178
4.19796328393
4.64276805389
4.63803108471
4.79902605796
5.44409502118
6.33867291421
7.33785301861
8.34673417436
9.26624067425
10.1059573873
10.8119813462
11.6927842612
14.3173501535
16.3226059166
16.7547635586
16.1910321198
14.9472827211
15.0787890898
16.157691366
17.1585361745
18.0934522022
19.0531633018
19.9088246764
20.6688699265
21.4261606395
22.213775125
22.9707228674
23.7975441429
24.1537107935
24.1167609425
24.6091241009
24.5167843733
24.3843468646
25.0250543778
25.0873158281
24.8388583624
25.0507101622
25.7888210883
26.5302857644
26.9404526582
27.0724518313
27.0157127715
26.8116979411
26.4810199376
26.0265572158
25.471245353
24.8167108972
23.9505169351
22.7451234859
21.475457482
20.217722466
18.3515181732
16.2087883014
14.0530750696
11.9300190716
9.90015456938
8.10031258165
6.4027856129
5.27024981078
6.62718847083
11.1233825606
15.4913413458
17.6299602177
17.7292526378
16.1568618515
14.5211136502
13.8859687067
13.8459364089
13.2260612808
12.6704144405
12.6834145903
12.373320815
11.4161730342
9.80553549846
7.37344420211
7.56176314478
3.2552172396
5.51251544882
3.69012229326
3.81606062707
4.51549607265
11.8829449057
10.2759493467
5.36156980545
5.41637938097
6.33743887272
7.36176237919
8.39006058306
9.28507033383
10.1445182737
11.8467085143
13.9440335066
15.6228144592
16.0695389934
15.0806802675
14.3551254332
14.7156196599
15.3273489269
16.1319835316
17.1337012221
18.1806969988
19.1757318221
20.0608220394
20.7981635031
21.5783888276
22.2897908363
23.1869044648
23.7892045368
24.4520727502
24.4177295979
24.1443082278
24.6078474116
24.5707430919
24.5553703533
24.8007445581
25.0277876734
25.3728992099
25.9589142519
26.5692321474
26.9746904108
27.1459767828
27.1259070531
26.9501125922
26.6404446434
26.2064056474
25.6557693863
24.9734973959
24.1012443562
23.0007161269
21.7331106862
20.2442629137
18.3931821078
16.2871577051
14.1386985488
12.0636728371
10.1560392976
8.52962772312
7.31651376678
6.99526394973
7.99166597783
10.6298157059
15.9169436054
19.3514770686
19.5024568527
17.8391786423
15.4953550692
13.9243427081
13.1833552118
13.4002161066
14.8468807866
14.8088803034
13.5064501335
13.3812719561
16.6797268902
13.0793766283
11.0949061832
5.68540250032
7.58178262858
4.46161721182
4.7799976615
6.60678022414
11.7761709399
8.25868221967
5.82745750959
5.94022976805
6.55955988213
7.50644067374
8.54894832607
9.97065196254
12.2502090467
13.2894525792
13.7097085799
13.7828726559
13.6587038246
13.8120863974
14.405449577
14.8481469381
15.375719894
16.2255882348
17.2384131447
18.3026206033
19.3299308751
20.1831041213
21.0514172076
21.6942394887
22.6056785156
23.2289432218
24.4353546792
24.3827416222
24.0495346981
24.267619832
24.1168666809
24.2878196459
24.6039102512
24.938056348
25.2580378831
25.6403560146
26.1471730692
26.6710621176
27.0600192743
27.2564251648
27.268492304
27.1209036664
26.8352591512
26.4237159268
25.887520724
25.2084733563
24.3508618298
23.2905776412
22.016767824
20.457513065
18.5653389325
16.4724688496
14.3799524986
12.4341893319
10.7615339775
9.50027956462
8.81717941137
8.94433173319
9.27261478848
10.9276058292
15.4708466982
19.4469977629
20.8187792378
19.6500263032
16.8896340236
14.4256646003
14.1351055234
16.4314135989
17.3239116704
16.3028746491
15.4007749377
18.0694131424
21.0890076445
16.3973449266
15.5125888328
9.97834701166
9.14653822384
5.55830339275
6.1089832029
12.0599685647
11.5371242522
6.67352352736
6.42689528688
6.56896233477
6.91181586145
7.75398735743
10.3659745567
13.561830638
14.0231781117
13.7110919477
12.8672119539
12.5883752774
12.9998381689
13.9584275643
14.3795997698
14.7415093972
15.4476534226
16.3722086816
17.4182680087
18.4127944866
19.4511767019
20.5626244499
21.1578653045
22.2289611867
22.6567893858
24.1063031032
24.2173853146
25.0342755365
24.2866035189
23.6878424397
23.8424746907
24.2785705249
24.7258744574
25.1258464068
25.4964170111
25.8989669767
26.3656395749
26.8346963236
27.2049538196
27.4149205641
27.4529604426
27.3325273039
27.0738893888
26.690699825
26.1816453009
25.5278084337
24.6984781666
23.659870755
22.3680311957
20.767999549
18.8798172809
16.860260545
14.9077181054
13.1795049
11.8139270678
10.9232821876
10.6668959515
11.2052089347
10.384187103
12.7880944674
17.4202674478
20.78230969
22.1051616533
21.1753064263
17.7999193989
15.6068883436
17.4317959846
19.6600957651
19.1519917069
18.1715992136
18.2615233014
22.8436859963
24.4331980314
19.4248651406
19.2269190239
12.0998921159
9.01214856566
6.75785745313
6.335491219
12.0077295018
8.44733219935
6.90498827075
7.02291143318
7.1539340489
7.84961927967
8.35319124716
13.2845103274
13.9906185337
14.0516061473
12.7654652698
11.8535373382
12.1907801628
13.5214469491
13.9273861494
14.0888503335
14.7570529617
15.5626986436
16.4898348631
17.533604638
18.7163266617
19.8498589147
20.5901099855
21.9823952553
22.3096758999
23.8786816505
23.8449870965
24.9072932339
24.4885593992
24.0521680726
23.5120545401
23.7899854689
24.3590090266
24.8896292268
25.3337294725
25.7397631287
26.1612556226
26.6114189637
27.0493461377
27.4050953144
27.6231242864
27.682197068
27.5888565397
27.3623793468
27.0167803829
26.5486352618
25.9360887127
25.1437318362
24.1257273334
22.8315727123
21.2390289956
19.4201455311
17.5498979428
15.8148914803
14.340311214
13.2014251802
12.507351761
12.2935066443
12.0823392951
12.0887437098
14.3807435983
20.0874765159
22.2316639643
22.4780620464
21.3803940571
19.0904552015
18.8111506753
21.3733085617
21.8178239258
20.9991533354
20.4310038428
22.4253428411
25.1857846934
26.6541147088
22.0666614611
20.9288324965
11.8211370037
8.67768532927
7.90328766395
12.1781245735
12.1168090448
7.49500976313
7.55961687471
7.70772864497
7.80858701158
8.38069547007
13.0359784122
13.9819564018
14.0867087524
13.631611031
11.6196059174
11.4473229944
13.0121317472
13.6611642304
13.5665808724
13.9663465535
14.7999687346
15.7408616161
16.6973741366
17.7966856604
18.8177602673
20.2065983289
20.6871248907
22.0011899865
23.5514693512
24.0181174901
23.5460961251
24.3877560113
24.5657358604
23.5098251629
23.5000312543
23.9362222026
24.5092504573
25.0673166813
25.5524252754
25.9934626954
26.435565421
26.8853615226
27.3096469596
27.6569130535
27.8809926661
27.9589415752
27.8948194512
27.707530089
27.4103685913
26.9970284244
26.4408678068
25.6989729088
24.7187481432
23.4602547886
21.9407021219
20.2707634621
18.6196448976
17.1122013113
15.7812808478
14.680284352
13.977077382
13.6946560734
13.6698634438
14.0083705948
14.0614436067
20.3013623926
24.0909299187
23.9786646815
23.3166589428
22.3107507009
23.0856120768
24.4213782287
23.737519963
23.0770543016
23.3195243979
25.6824530216
26.3715837388
26.9619208568
24.0832348845
21.945373154
11.105888575
8.61168309255
8.57179333986
13.1586769904
11.106446644
8.12102994001
8.26955064231
8.54816845353
9.73024776133
8.49406820853
13.8091290961
14.5057903877
14.1288595277
12.4160875913
11.2610490377
11.5870200556
13.0920531701
13.3814589034
13.4565873285
13.9916941015
14.8043858511
15.8239564945
16.8827455386
18.3846104659
19.6527132982
20.173582565
22.0912995469
21.9029790565
23.7488878973
23.4628765703
24.6880719488
23.7374767522
23.4474126256
23.4263906206
23.6733128521
24.1374922841
24.6941368456
25.2606574827
25.7824105527
26.2626137563
26.7298136625
27.188541293
27.6117958947
27.9578570752
28.1886643611
28.2859898093
28.2556976284
28.1162445814
27.8790912989
27.5351500517
27.053059687
26.3838506064
25.4757895826
24.3104792295
22.9429653405
21.4988601528
20.0915557687
18.7149301535
17.3193760246
16.1108161546
15.4725876881
15.4890976651
15.7894837838
15.9849776604
15.8181300134
17.2609065585
24.3300838451
25.8847133002
25.7418984016
26.2535181409
27.2071890724
26.7922975729
25.766285492
25.5975254497
26.6425115377
27.8797173605
27.7496747865
27.1471316656
26.1334693445
24.7647118766
10.5824343324
9.05787028827
9.725894228
13.2313611372
9.17248202145
9.1394823788
8.98584590161
9.25291222225
12.3184222104
11.0593564416
14.6441005035
14.7787573986
14.2041438917
11.7425544073
11.29939663
12.8833029623
13.3246153908
13.1407474317
13.4252271274
14.1455355241
14.9363437983
15.9011026621
16.8206143579
18.5425628276
20.6772790572
20.1228164166
22.0430277562
23.3327765943
23.9912353465
24.6164485126
23.9567029318
23.9909091181
23.1626898124
23.3438090086
23.8420208898
24.3602357671
24.9061255125
25.4723852887
26.0233829452
26.5463238707
27.0475871369
27.5242176909
27.9547320881
28.3061138534
28.5475721443
28.6670890036
28.6761174932
28.5942090248
28.4298173807
28.1712276704
27.784931713
27.220459051
26.4346669811
25.4361713811
24.3064088556
23.1420011211
21.9171425447
20.4495807555
18.8332173092
17.6811095262
17.4617180768
17.9755043425
18.4879541359
18.6077024869
18.2797510679
16.9174606369
16.6888553614
27.6530728169
30.3243867771
31.1007441419
30.7609064533
29.1989096318
28.2404762317
28.5705668816
29.8077249921
30.2059940569
29.9956012784
29.7181286905
30.0673102699
30.2565428481
10.5724531057
9.90359978898
13.1261604658
13.4053376856
9.29322402767
9.90108001003
9.6985043428
10.1770052686
11.8395001051
14.5374608455
15.476896145
15.0524359208
14.4496369524
11.7656992429
11.4595160819
13.3976656161
13.430337712
13.1204279589
13.4528229347
14.2809690257
15.2967684792
16.2606693829
17.0039205608
18.1772868035
20.8486515321
22.0573985597
21.67880242
23.457050229
22.8870694963
24.6441561917
24.9921571574
23.9460441751
23.136814081
23.4571016489
24.0411311987
24.5938997665
25.1424191538
25.7089767011
26.2784891432
26.842682398
27.388200912
27.8934921414
28.3390370745
28.7015443023
28.9586422565
29.1062256401
29.161922213
29.1466345175
29.0670407066
28.9108291268
28.646081248
28.2273714625
27.6283288537
26.8844335744
26.0732595507
25.1765542627
23.9298301011
22.1835829334
20.6085808953
19.9635762616
20.4798457531
21.5210471503
22.1953213758
22.2510258078
21.6119453963
19.9844370242
17.4465903374
17.9139007157
31.701388721
36.6892305589
35.0585302497
32.3603267574
31.4446914097
32.007540115
32.9273159146
33.3785865698
33.7563579362
34.2948304119
34.9110037963
35.585173382
10.9361058614
10.7789912683
14.7711519677
14.1242334491
12.2391835375
11.1270451717
10.6372385786
11.6337008147
11.3259718058
15.5029452669
16.1333753482
15.4014072045
14.5461317273
12.392706907
12.2218091601
13.8603370915
13.4586830563
13.2079416489
13.5715133393
14.3252636757
15.4425919525
16.7186862129
18.4248922066
18.312462881
20.3537604282
22.4325273002
21.5771796034
23.7169450664
24.5648394659
23.8481046427
24.1005764619
23.3239617078
23.4285156878
23.7845573229
24.2974498729
24.8515431296
25.408240923
25.979507115
26.5557589179
27.1476428757
27.7450712537
28.2976981961
28.7676161433
29.1449313166
29.4234669391
29.6073597484
29.7182747413
29.7777444683
29.7927345449
29.7542239197
29.637254648
29.4124398184
29.0802243865
28.6862619238
28.2300451594
27.4350299993
25.933945492
24.2431629485
23.2976468971
23.5432244696
24.9515001995
26.4105303115
27.3496851627
27.5676723546
26.9608287005
25.1416613411
21.9389979995
17.2280349013
26.5784591683
37.1989698906
39.8464340294
36.6336561366
35.7613390297
36.2838574515
37.0837272236
37.64940656
38.7291536176
39.5439729645
39.5187765056
39.7411598206
11.5452922217
11.4342515198
14.5241762018
14.6209567926
14.6362829713
12.2707407612
11.7077115232
14.4819985002
11.7079888769
16.3640721421
16.6346636168
15.7604351873
14.6424584159
13.0112366267
14.8071150913
14.9145552957
13.6544730515
13.4318701824
13.8237867707
14.4686052678
15.4036440741
16.7101456552
19.6977417441
20.6483333998
19.8505805067
22.4987610739
23.454265474
23.2947800719
24.532280397
24.9295889444
24.4449356702
23.3610491778
23.6346607093
24.1169307823
24.6092783292
25.1423943284
25.6923793857
26.2816511172
26.8823411021
27.4840342626
28.1129060771
28.7221810621
29.2381509158
29.6402567825
29.9451163701
30.1739678005
30.3496336079
30.4901945032
30.6042656903
30.6915452754
30.7445212603
30.7672856472
30.7927405089
30.8272573868
30.6472991688
29.6287285748
28.1634636466
27.9250422363
28.2031363583
29.5434377462
31.5944252325
32.8312990547
32.6608596521
32.1564301825
30.3570464291
27.6134303481
24.309135308
17.9857081245
17.7175327172
31.6109694468
38.4860454779
38.7179103908
37.2569750167
38.967226226
40.6489794636
42.6321330806
44.3949116888
45.0510265391
45.0416921255
45.2383573512
12.2131301607
12.1401642902
11.7927264076
14.952665349
15.1763391084
13.048898682
12.6714527774
15.47367273
12.3727746984
17.2537087866
17.0872632358
16.1337819729
14.8480518627
13.3306753163
15.9646642019
15.4925391379
14.0958512152
13.8317499089
14.1765370671
14.7815609968
15.4894354614
16.6029657826
20.2074433421
21.7203451996
20.1980353382
22.5347924553
23.9746731911
22.8011400359
24.1633329649
24.4939627777
23.485859308
23.7115195585
24.0820965233
24.5006989341
24.9536902956
25.4860728953
26.0316727625
26.59568255
27.2239738823
27.870690102
28.5227146647
29.1691509391
29.7373255005
30.1824483524
30.5265268963
30.8107859763
31.0594713658
31.2816918133
31.4909976537
31.7016414832
31.9329628455
32.2569619772
32.7328109629
33.2311397116
33.0295022781
31.5388174102
31.3304601141
28.6221741629
25.8548197906
24.659917082
21.7126578633
13.2522437498
0.120685224091
0.0123132464532
0.00097712901834
0.000275237530163
0.00323975282396
0.0331022738725
0.373925138672
0.976657942835
40.1575600861
48.370790234
49.3806079031
44.6943496405
40.9981243926
43.4351336071
48.4581266928
50.447407358
51.8606465964
52.3283850167
13.060909661
13.1523680004
15.5943521406
15.6011879167
15.6320737169
13.7126175769
13.7164954971
16.3274101302
13.3923563298
18.0259658349
17.5204375528
16.5310201267
15.1355768312
13.7280335209
16.251733691
15.6979587322
14.5351543035
14.2904463991
14.5658270435
15.1018139958
15.7452682449
16.6253774135
19.623365314
22.5343052093
22.6914086707
21.9200397701
24.1888386595
24.9939772819
23.046399064
23.0098550562
23.4281979474
23.9503378022
24.4393779914
24.8891446888
25.3563630315
25.8564072502
26.4025245353
26.9828070036
27.5921658196
28.2733502969
28.9775149719
29.6604004532
30.2686752029
30.7617949188
31.1636878856
31.5185375828
31.8478478391
32.1540759761
32.4414044607
32.7388023242
33.1408519985
33.8099290731
34.8019719658
35.6709656372
35.0950981894
31.3481290058
21.6825975845
4.09257854865e-05
4.50141200258e-08
8.43853831486e-10
1.43039007248e-11
4.13847337705e-14
1.176063796e-16
2.03574417107e-21
1.59236513052e-21
3.86589636609e-21
2.60591980065e-20
1.22059828559e-19
4.50889615981e-19
2.86533304669e-18
2.24349181264e-18
1.94635112385e-16
1.1077990047e-13
1.11357438431e-11
8.45014846465e-10
1.94586500173e-07
0.00327550311635
52.8642758038
57.8772358324
59.2998895288
13.8587475092
14.0498248252
17.2137004679
16.2780109393
15.7557442558
14.3824636873
14.7296087799
17.0502284529
17.0232457167
18.9856353241
18.01597505
17.0214838854
15.5081605999
14.270313582
16.5569174558
15.8423549543
14.957716538
14.7577448977
14.9613092124
15.4158548704
16.0268587504
16.8694332909
19.1134483946
22.796336832
24.0603880496
21.6569149929
23.7174760984
25.0634365252
24.8300032113
23.4539171339
23.5208545272
24.1765137973
24.8022045099
25.3256606094
25.7498382313
26.2566412472
26.7952260259
27.3932031539
28.0208779515
28.7109723078
29.4625424202
30.2001711741
30.8415371533
31.3661320276
31.8355084267
32.3110797647
32.7607993976
33.1256799692
33.39782318
33.7315508565
34.3146304435
35.3072441974
36.7857953755
37.9974912762
29.8756926084
6.05697315355e-05
2.26315776252e-11
9.16469677311e-14
2.65028195036e-15
3.85832470171e-17
3.13480728598e-20
5.2307263701e-23
3.6871630238e-24
0
0
0
0
0
0
0
0
5.12821497541e-28
1.72964074496e-25
2.58717388396e-23
1.50099543552e-20
2.09652225381e-17
1.13532038348e-12
1.72412105785e-08
0.134419081654
61.9538008079
14.5119293023
14.7249601484
19.3624205987
16.8036014189
15.6319494261
14.9772611648
15.4586858551
17.1139423643
18.6142877761
20.090062791
18.6688241478
17.6467344122
16.1310502178
15.10528562
17.0686149136
16.1399500482
15.4589802174
15.2746259646
15.3967614048
15.7670439279
16.3076620713
17.0883497092
18.907984068
22.6733446454
25.0531272405
24.2879187381
23.2078856957
24.4346204701
24.5828867721
23.4513601411
23.9721429574
24.6562458955
25.3292498568
25.8155874984
26.2574056888
26.693954238
27.2445536673
27.833460011
28.4875263726
29.1998142953
29.9747031718
30.7691810117
31.4883559663
32.0456637766
32.5720485426
33.1778298493
33.7619565506
34.1495834549
34.3622614715
34.7012165595
35.4105147114
36.5384830047
38.1775752185
30.4039948273
1.49868816606e-07
3.27653364356e-14
1.07456037207e-17
4.34507834646e-19
5.92438352414e-21
1.62462696997e-23
0
0
0
0
0
0
0
0
0
0
0
0
0
6.60770441006e-27
6.5661913518e-26
1.43945141322e-24
6.97970085492e-23
3.8759880431e-19
3.22623138964e-10
6.21908175973e-15
15.0224261612
15.2249743797
21.4195373615
17.2081243577
15.762554342
15.5307380474
16.2663563448
16.4875382079
19.566061555
20.882051286
19.3031005901
18.2876658459
16.9533897385
16.9903302977
17.7835072597
16.6793476805
16.1559422723
15.9878143377
15.9407958214
16.2055581475
16.6417839493
17.3450459444
18.8926999631
22.5358415804
25.4682662239
25.9343544081
23.0017221475
23.3658345463
23.341128661
23.573046491
24.2817197708
25.154269449
25.8301531154
26.3482888954
26.8080086607
27.3177053462
27.7597319166
28.3408974205
28.9968462022
29.7134542186
30.555455789
31.419386582
32.189482554
32.722198496
33.2546038108
34.4636704899
36.0737429456
36.6198459905
35.8411870298
35.9431152273
36.6452199562
37.7712288625
28.9137392671
1.73388300224e-08
2.61318881412e-13
1.17231758873e-24
1.18464144634e-21
1.93300837376e-23
0
0
0
0
0
0
0
0
0
0
0
0
0
0
0
0
0
0
1.02086961522e-25
6.9131604176e-25
1.27484409736e-22
94.8740818368
15.4696858111
15.6381663175
21.2590525447
16.6541351973
15.9765453833
16.0108047611
17.183743264
16.4973966715
20.3720339316
21.6207493998
19.9081094
18.8841183019
17.5930698678
19.2113293846
18.7792056477
17.4227675056
16.9587733961
17.0613802131
16.7074433341
16.8134661898
17.0756594645
17.6437013501
19.01953969
22.3859971775
25.3417739199
27.0381099413
25.704078687
24.7257738548
24.3176981008
23.8362274142
24.5875079209
25.7954811436
26.2843292741
26.8849020542
27.6039843741
27.9288180563
28.3702182986
28.9538402638
29.6243270354
30.3440711902
31.1390677594
32.056645716
32.9634267185
33.8877035328
34.9825538803
36.543738148
37.8028925717
37.7796006474
37.6960955379
38.2894057666
39.388382965
32.8482893663
7.88502334744e-08
7.19745173103e-13
9.45977253993e-17
1.28481842817e-18
0
0
0
0
0
0
0
0
0
0
0
0
0
0
0
0
0
0
0
0
0
0
3.14119934879e-25
2.28633332347e-14
15.9858321117
16.1313616439
20.9020187874
16.3386314135
16.2818283105
16.4036636388
17.9734854363
16.9724540436
21.0741359943
22.3468200208
20.5115090799
19.4848852207
18.1323517781
19.9699946488
19.7032281601
18.2384103892
17.7502591053
17.9604515139
17.6251222436
17.6428108261
17.7107329644
17.9921309399
19.3071873964
22.3677160356
25.0689896113
27.3694881517
26.9099433631
25.2571313865
23.75566622
24.3495443023
25.1153828525
26.284669232
27.1535355605
27.8750777886
28.4493684868
28.6468870403
29.064680245
29.6611833975
30.3444174585
31.0950555804
31.8969636618
32.8926856273
34.1287634074
35.6730910648
36.7286184167
37.1489958404
37.8343253744
38.2937561876
39.8581697816
41.9975963965
39.0885242588
7.1847896405e-07
9.54002900173e-13
1.64512908981e-16
3.37424448306e-19
8.1696949654e-21
2.74228928848e-23
0
0
0
0
0
0
0
0
0
0
0
0
0
0
0
0
0
0
0
0
0
5.27889115322e-26
6.98445515865e-26
16.7469480621
16.8926507473
20.5838348166
16.6373152241
16.8532451472
16.8967200214
17.99178093
17.7089548068
21.5829920987
23.0388447096
21.1508978801
20.1370634797
18.7926613057
20.6631525647
20.5385298243
19.1458819115
18.602894753
18.8383440209
18.5211436769
18.6187159321
18.6210002167
18.5014457381
19.7890485823
22.5413431761
24.9445991987
27.4652141996
27.4640416887
25.9907450992
24.2564090913
24.5875450336
25.7500162773
26.4505127039
27.189678943
28.1216933646
29.3886213325
29.6930524066
30.0231526328
30.4759110792
31.1186600252
31.9450557473
32.8581583339
33.987308925
35.9312092156
37.6843533727
37.9515656734
38.197518036
39.3385667997
42.1583906087
45.8792495186
43.4447865724
2.05271677647e-07
3.40992297416e-14
1.41110586652e-18
4.62655302922e-22
2.90291391034e-24
5.88397124334e-24
9.03558421522e-25
0
0
0
0
0
0
0
0
0
0
0
0
0
0
0
0
0
0
0
0
0
3.9017833771e-27
1.77168518211e-26
17.8918051583
17.9974096783
20.8861265368
17.5928351647
18.02779124
17.7640473483
18.3142698268
19.0395818309
21.6404979149
23.561765277
21.85544041
20.862307377
19.5616657411
21.4511798949
21.40229268
20.2168382449
19.6417290566
19.8640557265
19.4257673886
19.6934493605
19.8461886797
19.2401347772
20.3424519626
22.9081235429
25.0132543864
27.3328863139
27.7184414088
26.6452073444
26.281647266
25.467258685
26.174529931
27.2893989821
28.6161618548
28.7281614226
29.6428206449
30.7444291897
31.0926854352
31.6182736627
32.1533690599
32.8831659444
33.9371644389
35.8885406566
38.5492796302
39.4754643603
39.3375066946
40.5398639129
44.9524595992
51.2790015277
49.2151918898
7.38365728584e-09
5.16621737299e-16
4.82336834416e-21
3.30030762429e-23
0
0
0
0
0
0
0
0
0
0
0
0
0
0
0
0
0
0
0
0
0
0
0
0
0
0
0
19.488384414
19.3623129775
21.7164750267
19.498792994
19.9994214095
19.0440909059
19.2701584822
20.9620213275
21.8728117409
24.1929311564
22.6784080652
21.6709907877
20.4151571215
22.277313529
22.2620002512
21.3970692043
21.1600698279
21.2033328527
20.4237416878
20.8656799332
21.3735919437
20.2964145611
20.7817027301
23.3631465361
25.2821531971
27.2182115343
27.90581513
26.8167658237
27.480831859
27.0719945196
27.2626200908
27.0286069243
28.3502512586
29.9880246986
30.6199510938
31.4843483355
32.1640156982
32.7158948778
33.4004757591
34.1500097146
35.6837144716
38.8390616382
41.1019283731
41.4992900581
42.2426414878
46.1389034841
54.5883800515
52.1759161913
9.51877363056
4.61042188649e-18
8.05999056264e-21
3.69056691111e-23
0
0
0
0
0
0
0
0
0
0
0
0
0
0
0
0
0
0
0
0
0
0
0
0
0
0
0
0
21.1795256286
20.6492492492
22.617895394
22.0200871636
21.7320257641
20.5294931098
20.3277927386
22.1178791403
21.1428041731
24.6897867638
23.6020723003
22.5554688325
21.3439524028
23.1171587332
23.0626622071
22.3866917277
23.2576686067
22.8174031174
21.5471882526
22.1613649628
22.7368686667
21.6534090373
20.9666352392
23.3797924888
25.4814948207
27.1437309105
27.9891720124
26.9219517827
27.8888234006
28.3779843996
28.6394004873
27.8293783622
28.626064857
29.9364394238
31.5695452439
32.7283934031
33.4690457311
33.9861079029
34.6461190223
35.8467662884
38.7649747388
42.1567904978
43.8585444376
44.7459067371
47.2642364452
52.9896543084
50.0487120104
26.0220378146
1.2413960304e-17
1.79718266488e-20
6.29408039917e-23
0
0
0
0
0
0
0
0
0
0
0
0
0
0
0
0
0
0
0
0
0
0
0
0
0
0
0
0
0
22.0350141037
21.5615133062
23.2052060505
23.0971315268
22.8268220721
21.9389961704
21.5469383317
23.5189145713
22.2115842397
25.3214664978
24.537274483
23.4854530359
22.3432880405
23.9883699916
23.875998583
23.2206240116
24.2508978884
23.9501644497
22.645622051
23.4415320005
23.5069698712
22.4995440858
22.0177632355
22.2471673435
25.0103409389
26.6785080983
27.8042057758
26.9209483969
27.987650395
28.9511752365
29.7751082397
29.6750868913
29.0055135667
30.0299204271
31.841341991
33.6337426803
34.8915194744
35.6726707979
36.3383398801
38.7604021363
42.5887851405
45.555493015
46.996731722
48.7152606497
52.5600429437
47.1005338756
21.777939072
6.55811469667e-17
5.9075516405e-20
1.68250129117e-22
0
0
0
0
0
0
0
0
0
0
0
0
0
0
0
0
0
0
0
0
0
0
0
0
0
0
0
0
0
0
22.1663200222
22.1470031987
23.5778974521
23.353391095
23.5364146426
23.0417048018
22.6158313409
24.8983621823
23.9200099501
26.1332235412
25.5325640398
24.4478727029
23.4085153641
24.9061995682
24.7600994687
24.1855548302
25.0843863931
24.9437066043
23.7974914074
24.4954550111
23.371518565
23.2879337476
23.0877757067
23.3582064911
24.1940485204
25.2146331528
27.0041962151
26.7501719869
27.5951841708
29.019851416
30.2700646543
31.0631513986
30.5695704003
30.8585844338
32.0794762181
33.8450713784
35.8204850721
37.4363608
38.9178883771
42.5244810962
46.3596415859
48.7578539577
49.8028571477
51.372434776
46.130971068
26.973913876
16.9293673292
2.05202097508e-19
4.59671894204e-22
0
0
0
0
0
0
0
0
0
0
0
0
0
0
0
0
0
0
0
0
0
0
0
0
0
0
0
0
0
0
0
22.4578668171
22.5740602133
23.9081035269
22.5405229389
23.863794266
23.6696262437
23.3491019536
25.551400446
24.8116682806
26.9652160712
26.5663813104
25.4136661771
24.5461803192
25.8579290641
25.6882243615
25.2847422674
26.0095921611
26.0471692044
25.0724116137
25.927200829
24.7452532616
24.9389919608
24.3711045534
24.6761666952
26.0081597141
26.6399577524
26.6790023565
26.5143100993
27.1725601764
28.9956301688
30.308905263
31.3574001681
31.9424966977
31.995218261
33.4528582077
34.6270142072
36.5950109245
39.0935867895
42.1424708083
46.4598512432
49.8449599239
51.3463705718
50.3515025878
45.8950593974
38.2955288667
26.7186879867
1.7219045887e-18
3.92000005376e-21
0
0
0
0
0
0
0
0
0
0
0
0
0
0
0
0
0
0
0
0
0
0
0
0
0
0
0
0
0
0
0
0
23.1988102829
23.2790243245
24.2633589103
22.9907027731
24.1574053177
24.0379741478
23.8779270128
25.8041280417
25.4454954319
27.5944907022
27.5777770791
26.3237330055
25.7421843226
26.7983618973
26.5798895217
26.3513699964
26.904252629
27.2347485987
26.3932069548
27.3728944684
26.5369232971
27.0094656735
26.7949122702
25.7022820922
26.7978636767
27.7658290728
27.9131129274
26.3916161167
26.6890424285
28.9305503071
30.4868886368
31.073125484
31.812765922
32.38305132
33.8605661375
35.3185096331
37.4956202067
40.794155084
45.5579733459
50.4475891881
53.0859563325
52.9733703563
49.5972042635
43.1558033848
26.744473859
11.7236793881
2.73161014358e-20
1.10767398633e-22
0
0
0
0
0
0
0
0
0
0
0
0
0
0
0
0
0
0
0
0
0
0
0
0
0
0
0
0
0
0
0
0
24.1274761056
25.1232630723
24.7719493849
23.9859149836
24.7288728585
24.4644181674
24.3873901062
26.0262029093
26.0227656575
27.8845055531
28.5543649564
27.1387818119
26.8052543844
27.5784088845
27.4221445472
27.1703290158
27.264735359
28.3168235283
27.773641285
28.6405803239
28.4887793561
28.3755697519
28.2422331664
27.8752854233
27.2089437758
27.9681847971
28.8912563661
25.9901840731
26.2465032615
28.3082215478
30.567944445
31.6535438836
32.5546175029
32.4645889281
33.7890685998
35.6227735634
38.0668229255
42.3829405091
48.9407290585
54.2305421399
55.7065024952
51.1663370609
48.1176588702
43.4643704086
31.2107653097
1.85151013424e-19
4.72549919999e-22
0
0
0
0
0
0
0
0
0
0
0
0
0
0
0
0
0
0
0
0
0
0
0
0
0
0
0
0
0
0
0
0
0
24.8390149663
25.8710989746
25.5075638726
24.8876250641
25.4530895395
25.0604460926
24.9611819095
26.3246818939
26.5799475018
27.9157596036
29.4230748973
27.9156092809
27.4667595078
28.2263853302
28.3225331734
27.9132574954
27.5614597133
29.0981200556
29.1784601749
29.7499397504
29.8475516854
30.0160612863
28.8976571151
28.8982181817
28.4601795797
29.5953413393
30.2538727817
27.7483363721
25.8898919262
27.3823628602
29.9342682774
31.8620231678
32.8576603753
33.0762312049
33.5285156738
35.4775179615
38.0863733642
43.6201190767
52.1443804975
58.0283472254
56.6829133049
50.6765574454
44.2083491432