/*--------------------------------*- C++ -*----------------------------------*\
| =========                 |                                                 |
| \\      /  F ield         | OpenFOAM: The Open Source CFD Toolbox           |
|  \\    /   O peration     | Version:  v1806                                 |
|   \\  /    A nd           | Web:      www.OpenFOAM.com                      |
|    \\/     M anipulation  |                                                 |
\*---------------------------------------------------------------------------*/
FoamFile
{
    version     2.0;
    format      ascii;
    class       volVectorField;
    location    "746";
    object      Ua;
}
// * * * * * * * * * * * * * * * * * * * * * * * * * * * * * * * * * * * * * //

dimensions      [0 1 -1 0 0 0 0];


internalField   nonuniform List<vector> 
6400
(
(2.85554135985e-05 3.71178806361e-05 0)
(7.66836452349e-05 2.76858770523e-05 0)
(0.000111579624179 2.23441338997e-05 0)
(0.000149025592319 2.02200147257e-05 0)
(0.000177946851813 1.45443521714e-05 0)
(0.000200521490239 1.02795641337e-05 0)
(0.000216070292511 9.01788636538e-06 0)
(0.000231073416397 1.21907166404e-05 0)
(0.000260879448341 1.61395174099e-05 0)
(0.000292009956679 1.64101698016e-05 0)
(0.000312092319937 1.56979844576e-05 0)
(0.000342824709471 1.68880111443e-05 0)
(0.000373425551207 1.69161805607e-05 0)
(0.000402040823159 1.62754213418e-05 0)
(0.000428471555677 1.64311114799e-05 0)
(0.000457023566955 1.81348398568e-05 0)
(0.000489976806976 1.91536404414e-05 0)
(0.000522215457215 1.89175865122e-05 0)
(0.000552366282322 1.83749362599e-05 0)
(0.000583939074152 1.88848109763e-05 0)
(0.000620848504267 2.18059933846e-05 0)
(0.000662436989145 2.45939084736e-05 0)
(0.000705727054355 2.54580277455e-05 0)
(0.000747814309894 2.54504283477e-05 0)
(0.00078933309365 2.50829424905e-05 0)
(0.000831072231281 2.47232047478e-05 0)
(0.000873835486035 2.49304286688e-05 0)
(0.00091650768693 2.50244797873e-05 0)
(0.000958154745915 2.48034158447e-05 0)
(0.000998881862926 2.46996864062e-05 0)
(0.00103870749187 2.50608290702e-05 0)
(0.00107977961067 2.5282685927e-05 0)
(0.00112226619844 2.52915057496e-05 0)
(0.00116461716447 2.60826053513e-05 0)
(0.00120782409931 2.67692321194e-05 0)
(0.00125447228954 2.7317906383e-05 0)
(0.00130012060576 2.789089229e-05 0)
(0.00134035305445 2.75620439327e-05 0)
(0.00138494636281 2.68235704163e-05 0)
(0.00143273068635 2.64658448718e-05 0)
(0.00147580339868 2.70494941631e-05 0)
(0.00151190380572 2.62528986002e-05 0)
(0.00154551045443 2.30961347416e-05 0)
(0.00157811009389 2.08234135936e-05 0)
(0.00160798143041 1.96927605664e-05 0)
(0.00163529338921 1.84643318709e-05 0)
(0.00165978069806 1.70890794942e-05 0)
(0.00168075852407 1.53274032455e-05 0)
(0.00169823386929 1.35509904564e-05 0)
(0.00171204414848 1.31258690965e-05 0)
(0.00172405092264 1.43039651023e-05 0)
(0.00173834252039 1.34577801701e-05 0)
(0.00174675668403 7.7595776797e-06 0)
(0.00175199769622 4.32447676499e-06 0)
(0.00174575304193 9.97576394901e-07 0)
(0.0017194518107 -4.71151644905e-06 0)
(0.0016913624874 -3.84388297511e-06 0)
(0.00168026372398 2.98299888098e-07 0)
(0.00167445648868 -1.27668223683e-06 0)
(0.00164251625326 -2.60841603048e-06 0)
(0.00161783237389 3.76402448057e-06 0)
(0.00159695476104 4.41004247516e-07 0)
(0.00165794980815 -2.28371914905e-05 0)
(0.00159671418222 -5.81867621384e-05 0)
(0.00132857125137 -6.06835661888e-05 0)
(0.00117614236817 -4.54650427839e-05 0)
(0.00109688361461 -4.56198629126e-05 0)
(0.00103600945517 -4.61732654677e-05 0)
(0.000971288039055 -4.85472586483e-05 0)
(0.000876296205473 -5.2577065316e-05 0)
(0.000774255487678 -5.44722764824e-05 0)
(0.000656806800926 -5.28661576706e-05 0)
(0.00054584186724 -5.17053756953e-05 0)
(0.000470729969939 -5.41478599148e-05 0)
(0.000342805650358 -4.20556878302e-05 0)
(0.00029301633763 -3.60812547993e-05 0)
(0.000189272485864 -2.18596519267e-05 0)
(0.000192795698724 -2.91532075555e-05 0)
(8.17810770981e-05 -1.99873410643e-05 0)
(6.08198312635e-05 -3.67120650139e-05 0)
(1.10905981607e-05 5.23890612596e-05 0)
(4.72790392509e-05 5.81409730159e-05 0)
(8.19127161683e-05 5.21784793684e-05 0)
(0.000105240582043 4.27184980398e-05 0)
(0.000150259470431 4.257044828e-05 0)
(0.000190391127001 3.2336544948e-05 0)
(0.000216467379593 2.47525041612e-05 0)
(0.000238230523254 3.19369449533e-05 0)
(0.00026259178619 3.99835899998e-05 0)
(0.000289723203692 4.09541314882e-05 0)
(0.000316784884701 4.04736308003e-05 0)
(0.000343475018463 4.12225844797e-05 0)
(0.000370422851951 4.06093753127e-05 0)
(0.000397404897386 3.95886366439e-05 0)
(0.00042592194357 4.06815940471e-05 0)
(0.00045591762372 4.65076113584e-05 0)
(0.000487583577923 5.02859007526e-05 0)
(0.000518016548699 4.65945100204e-05 0)
(0.00053952695195 4.39366379098e-05 0)
(0.000573602968375 4.71669408275e-05 0)
(0.000614583617354 5.51737051986e-05 0)
(0.000658377085005 6.33169585119e-05 0)
(0.000704195214738 6.53099684125e-05 0)
(0.000747414199693 6.31032128512e-05 0)
(0.000785155765127 6.15051269684e-05 0)
(0.000828715109129 6.16268163042e-05 0)
(0.000872433725296 6.15756339329e-05 0)
(0.00091424448662 6.09294543858e-05 0)
(0.000955475631742 6.02210604441e-05 0)
(0.000996719602851 5.99156779216e-05 0)
(0.00103749448654 6.04192596127e-05 0)
(0.00107616993018 6.05432735902e-05 0)
(0.00111864038171 6.00404176946e-05 0)
(0.00116078988327 6.22745782538e-05 0)
(0.0012031242478 6.50145503315e-05 0)
(0.00125306525457 6.51516444718e-05 0)
(0.00129730605845 6.56985568999e-05 0)
(0.00133772220139 6.5887501387e-05 0)
(0.00138468250603 6.42256076941e-05 0)
(0.00143687657526 6.1281015673e-05 0)
(0.00148092275083 5.61200616654e-05 0)
(0.0014973935052 4.99312423525e-05 0)
(0.00152022636794 4.58943573909e-05 0)
(0.00155521685403 4.35300539418e-05 0)
(0.00158669349736 4.10492789243e-05 0)
(0.00161734204059 3.78576769747e-05 0)
(0.00164630443316 3.37282637438e-05 0)
(0.0016703998837 2.87977825254e-05 0)
(0.0016938476805 2.35559178898e-05 0)
(0.00171288366779 1.87190250546e-05 0)
(0.00172212691745 1.50088800354e-05 0)
(0.00171611256808 1.14985754084e-05 0)
(0.00171458751095 7.21109625621e-06 0)
(0.00175182450819 -1.58469935278e-06 0)
(0.00173951217583 -1.70708921893e-05 0)
(0.00172233544188 -2.79633089627e-05 0)
(0.00172445359228 -2.71531668716e-05 0)
(0.00171528772561 -2.40587458505e-05 0)
(0.00169863468412 -2.88343001795e-05 0)
(0.00168393726529 -3.45550693279e-05 0)
(0.00166742691215 -3.75686905208e-05 0)
(0.00158260150262 -4.61712151655e-05 0)
(0.00163865821395 -0.000107807683774 0)
(0.001553309648 -0.000203160556991 0)
(0.00133015625431 -0.00022175938492 0)
(0.00111154779567 -0.000168905770254 0)
(0.0010009878366 -0.000126471089041 0)
(0.000987241884407 -0.000118697980299 0)
(0.000928835985387 -0.000133952932606 0)
(0.000856792989454 -0.000158088560358 0)
(0.000746826645092 -0.000170516084691 0)
(0.000626390276093 -0.000164519801547 0)
(0.000503412166257 -0.000140696298956 0)
(0.000444410867273 -0.000133237481347 0)
(0.000370751616203 -0.000120126542495 0)
(0.00030716111947 -0.000105987402662 0)
(0.000244902613134 -8.7794934005e-05 0)
(0.000189856131715 -8.6930824217e-05 0)
(0.000116027146155 -8.97133930171e-05 0)
(5.31823874514e-05 -0.000143891306675 0)
(1.50750039832e-05 9.04373883666e-05 0)
(4.38472207828e-05 9.66315192826e-05 0)
(6.84699160676e-05 9.0188386655e-05 7.12636487321e-29)
(0.000113516299734 9.06173027252e-05 -6.51193262133e-29)
(0.000155577678038 8.97037374892e-05 -5.65276532298e-29)
(0.000184014913227 7.54704098492e-05 5.12417372689e-29)
(0.0002065965805 5.04680209477e-05 -5.10281696337e-29)
(0.000228816000528 5.61624995768e-05 4.89660742163e-29)
(0.000253965790832 6.70454515669e-05 0)
(0.000281973811322 7.00797414763e-05 0)
(0.000310325025513 6.94282017007e-05 0)
(0.000337431925938 6.83364865307e-05 0)
(0.000363965845934 6.72963151416e-05 0)
(0.000390342702435 6.80969865943e-05 0)
(0.000419120381241 7.16781078046e-05 0)
(0.000449455296881 7.41009047823e-05 0)
(0.000444069466456 6.85911998512e-05 0)
(0.000453852327564 6.59105828274e-05 0)
(0.000487113328812 7.34449626917e-05 0)
(0.000536305265778 9.00440507902e-05 0)
(0.000609038595185 0.000107325790837 0)
(0.000659801821024 0.000112402843821 0)
(0.000696164437913 0.000109821571 0)
(0.000738809192349 0.000106909889396 0)
(0.000783000489259 0.000105766807234 0)
(0.000824622360933 0.000105603491678 0)
(0.000866120791119 0.000104856459345 0)
(0.000908142832832 0.000103911375196 0)
(0.000949815185375 0.000103227605183 0)
(0.000990844953206 0.000103025599017 8.62244350963e-29)
(0.00103283126659 0.000103087684071 -8.32625689922e-29)
(0.00106956959557 0.000102965130929 0)
(0.00111139240888 0.000103498615529 0)
(0.00115971315888 0.00010570499143 0)
(0.00119271139275 0.000110629315212 0)
(0.00124336343654 0.000114449445223 0)
(0.00129822416272 0.000113563515571 0)
(0.00133258388703 0.000112850528981 0)
(0.00138091225143 0.000113526137505 0)
(0.00143425632828 0.000108310187071 0)
(0.00147855773614 9.53711472163e-05 0)
(0.00151367532032 8.39259512481e-05 0)
(0.00154651954149 7.98450479783e-05 0)
(0.00157906732014 7.75673483194e-05 0)
(0.00160919401958 7.36384492592e-05 0)
(0.0016364603891 6.83501016205e-05 0)
(0.00166100795062 6.15893064685e-05 0)
(0.00168279411859 5.3962693301e-05 0)
(0.00170191598495 4.55115252423e-05 0)
(0.00171798972614 3.56315005126e-05 0)
(0.00173046876147 2.55475932756e-05 0)
(0.00173962169241 1.89913948873e-05 0)
(0.00174643308244 1.59957893574e-05 0)
(0.00174360536748 2.66666820178e-06 0)
(0.00173094846947 -1.75494454096e-05 0)
(0.00173145259495 -2.80186258697e-05 0)
(0.00172843921727 -3.13879088758e-05 0)
(0.00171579357982 -3.54113532579e-05 0)
(0.00169818729831 -4.19350030003e-05 0)
(0.00167789787007 -5.16802926613e-05 0)
(0.00164557809455 -7.03869479762e-05 0)
(0.00161502309904 -0.000104072526979 0)
(0.00158047948404 -0.000221715452606 0)
(0.00140006073169 -0.000354887303151 0)
(0.00113905928769 -0.000332985814838 0)
(0.00104125473272 -0.000263260201874 0)
(0.000997658994801 -0.000211690884922 0)
(0.000925001101332 -0.000194547107076 0)
(0.000851126247551 -0.000218456937285 0)
(0.000764120986289 -0.000252481467396 0)
(0.000658645587861 -0.000263636032705 0)
(0.00056214944998 -0.000246184358745 0)
(0.000500517228669 -0.000223512552143 0)
(0.000441165528587 -0.000211140707634 0)
(0.000365980478848 -0.000198154909544 0)
(0.000290935732958 -0.000176642035004 0)
(0.0002228440176 -0.000153626960356 0)
(0.000168246116336 -0.000158514716279 0)
(0.00011541304763 -0.000200105864852 0)
(2.91097994079e-05 -0.00019582599373 0)
(1.3863583304e-05 0.000130799911938 0)
(2.1590284139e-05 9.22821371094e-05 0)
(5.37849291203e-05 0.000133043836174 0)
(9.43851833296e-05 0.000132823865413 0)
(0.000133208479437 0.000117032499393 0)
(8.46390355544e-05 5.29205007744e-05 0)
(0.000108674596131 5.76407751378e-05 0)
(0.000194669779315 9.99497172881e-05 0)
(0.000235843000059 0.000105568285144 0)
(0.00026824808192 0.000101491859529 0)
(0.000299374343901 9.88111461013e-05 0)
(0.000327998886692 9.56764126513e-05 0)
(0.000354998762685 9.3963467098e-05 0)
(0.000378973467122 9.16288234107e-05 0)
(0.000382938921332 8.46166612232e-05 0)
(0.000386155214461 7.93224549896e-05 0)
(0.000404853745081 8.22010192364e-05 0)
(0.000444992433047 9.93006978768e-05 0)
(0.000509813994235 0.000127006605194 0)
(0.000570620314868 0.000151212225998 0)
(0.00060903567058 0.000157789937278 0)
(0.000648847903303 0.000155099919221 0)
(0.000691287577871 0.000152084181311 0)
(0.000732964919735 0.000149927620736 0)
(0.00077419340295 0.000148033043041 0)
(0.000815236236541 0.000146693732342 0)
(0.00085645766689 0.000145958602317 0)
(0.000899559755114 0.000145424572002 0)
(0.000940494937926 0.000144566127027 0)
(0.000983903623156 0.000144434543194 0)
(0.00102184029891 0.000143900964208 0)
(0.00106551277608 0.000143875634672 0)
(0.00109916476282 0.0001429442 0)
(0.00114542047526 0.00014812192849 0)
(0.00120041285035 0.000156807585549 0)
(0.00123754029383 0.000161641502393 0)
(0.00129181501537 0.00016266740186 0)
(0.0013461326508 0.000161715946978 0)
(0.00139108097695 0.000159703078126 0)
(0.00143403199117 0.000151121265917 0)
(0.00147521597202 0.000136294457894 0)
(0.00151269723526 0.000122388618699 0)
(0.00154754018915 0.000113839024605 0)
(0.00158042386555 0.000107921432157 0)
(0.00161059144405 0.000101385646039 0)
(0.0016378770465 9.34885465545e-05 -7.19730578584e-29)
(0.0016623947223 8.42633990442e-05 7.23144316427e-29)
(0.00168413801435 7.39769756371e-05 0)
(0.00170309201229 6.26627217419e-05 0)
(0.0017190411633 5.03645761381e-05 0)
(0.00173159741254 3.81390528012e-05 0)
(0.00174027591235 2.71401528246e-05 0)
(0.00174446141079 1.50174553388e-05 0)
(0.00174285620388 -2.2976166203e-06 0)
(0.00173808268403 -1.9699384542e-05 0)
(0.00173377267831 -3.19271875156e-05 0)
(0.00172643824713 -4.19178391629e-05 0)
(0.00171219639992 -5.22360595254e-05 -1.36102068599e-28)
(0.00169081863978 -6.49263163446e-05 1.57135522951e-28)
(0.0016603910163 -8.42187512861e-05 0)
(0.00161432696836 -0.000119523105975 0)
(0.00154782727929 -0.000198715793376 0)
(0.00143452685624 -0.000356942989459 0)
(0.00130251752006 -0.000500551428209 0)
(0.00118907426175 -0.000488620523317 0)
(0.000997007144452 -0.000344971693167 0)
(0.000902743204625 -0.000276972903102 0)
(0.000840639562314 -0.000272045773789 0)
(0.000773680507083 -0.000301358315135 0)
(0.000711741812089 -0.00034741238434 0)
(0.000631027308924 -0.00036320087248 0)
(0.000547726244694 -0.000339331209972 0)
(0.000466093034621 -0.000306787773043 0)
(0.000368841365426 -0.000275176150853 0)
(0.000298166395051 -0.000261147826366 0)
(0.000233404052433 -0.000251103855823 0)
(0.000164607019843 -0.000222540172491 0)
(9.45384380552e-05 -0.000176367051108 0)
(6.88998521977e-05 -0.000220710357239 0)
(2.29452064457e-05 -0.000253351053016 0)
(1.23821500261e-06 0.000131974545131 0)
(1.11455778996e-05 0.0001109952388 0)
(4.51949378199e-05 0.000169465121787 0)
(7.73045062257e-05 0.000160447977411 0)
(8.85504627396e-05 0.000116146781922 0)
(7.44897214722e-05 7.21277850672e-05 0)
(0.000127808080175 0.000114373281497 0)
(0.000186059778046 0.000152126427329 0)
(0.000215010183858 0.000144105948871 0)
(0.000249546827308 0.000135300888485 0)
(0.000282610275254 0.000131558148804 0)
(0.000312621700653 0.000126107902616 0)
(0.000328599818448 0.000112887554747 0)
(0.000322196016524 9.5363627988e-05 0)
(0.000341282392619 9.50675648937e-05 0)
(0.00037576545309 0.000107182777119 0)
(0.000424659360567 0.000129220871707 0)
(0.000480061163447 0.000157790108397 0)
(0.000525727113246 0.000179990037089 0)
(0.000557761810302 0.000188955694116 0)
(0.000596347913416 0.000194693502017 0)
(0.00063901789982 0.000196959582628 0)
(0.000680136042583 0.00019478889089 0)
(0.000721264827974 0.000191590637643 0)
(0.000762088843548 0.000189127611018 0)
(0.000802619150456 0.000188068141226 0)
(0.000845535626051 0.000187878750551 0)
(0.000885567051652 0.000186950169941 0)
(0.000930905891182 0.000186761200426 0)
(0.00096811776331 0.000185142863714 0)
(0.00101489371299 0.000185644919254 8.27330959938e-29)
(0.00104224203087 0.000183213716257 -7.90265988389e-29)
(0.00109499235852 0.000188278050836 0)
(0.00114872947494 0.000195918250015 0)
(0.00118958080923 0.000203765541865 0)
(0.00124751497474 0.000212976664816 0)
(0.00129830757351 0.000215478205237 0)
(0.0013453655729 0.000210459216446 0)
(0.00138977217176 0.000202491430414 0)
(0.00143243769324 0.000191366820146 0)
(0.0014736453636 0.000176411662079 0)
(0.00151241787418 0.000161287592596 0)
(0.00154853507558 0.000149369396105 0)
(0.00158199701868 0.000139726835769 0)
(0.00161248729209 0.00013008118801 0)
(0.00163998871157 0.00011939197955 0)
(0.00166459705234 0.000107482649629 0)
(0.00168631054862 9.44403970218e-05 0)
(0.00170504892868 8.02850351815e-05 0)
(0.00172061143771 6.51242525293e-05 0)
(0.00173264187199 4.95130270119e-05 0)
(0.00174058059093 3.36880142139e-05 0)
(0.00174381641072 1.63155802124e-05 0)
(0.00174225369938 -3.52269914418e-06 0)
(0.00173780111501 -2.27745960209e-05 0)
(0.00173170167269 -3.93739497364e-05 0)
(0.00172086908999 -5.5629370758e-05 0)
(0.00170114839337 -7.44766796353e-05 0)
(0.00166922186842 -9.95891280895e-05 0)
(0.00161994664601 -0.000138467545523 0)
(0.00154608928722 -0.000204927819788 0)
(0.00144500092259 -0.000317303538111 0)
(0.00131322596631 -0.000469679806113 0)
(0.00123621991441 -0.000595326593389 0)
(0.00117316596198 -0.000604451179786 0)
(0.0010115159013 -0.000483850559892 0)
(0.000885200916468 -0.000395006196528 0)
(0.000782844314827 -0.000363098306216 0)
(0.000698020615305 -0.000376845322026 0)
(0.000632041511411 -0.000417810347549 0)
(0.000566836523826 -0.00044736414136 0)
(0.000482793899078 -0.000428393110414 0)
(0.000379392971086 -0.000373450941377 0)
(0.000308720867667 -0.000348607113717 0)
(0.000242585290706 -0.000339287928976 0)
(0.000177212068586 -0.000323562909842 0)
(0.000116467460022 -0.000264656112085 0)
(7.3834621702e-05 -0.000223214360935 0)
(4.60292187001e-05 -0.000273496811784 0)
(1.11637054615e-05 -0.000280452918046 0)
(-6.09929409139e-07 0.000123409348799 0)
(1.19271679788e-05 0.000132420760482 0)
(4.23035603243e-05 0.000191333553812 0)
(6.15018517768e-05 0.000169477782055 0)
(4.94444224416e-05 9.41198758223e-05 0)
(7.09273386073e-05 0.00010021093418 0)
(0.000144211602317 0.000171652436589 0)
(0.000169849425724 0.000181312432402 0)
(0.000195864039424 0.000175166894394 0)
(0.000227394440362 0.000169927699354 0)
(0.000260362920895 0.000159984815339 0)
(0.000260260529986 0.000133378061353 0)
(0.000250624160862 0.000106744362248 0)
(0.00027790469509 0.000110458473148 0)
(0.000315138550542 0.000128831330561 0)
(0.000372645415748 0.000157931751755 0)
(0.000429975169859 0.000184682245445 0)
(0.000474431028787 0.000202120123398 0)
(0.000501971476192 0.000210839871905 0)
(0.000541484162309 0.000224849143066 0)
(0.000584899028261 0.000236072340907 0)
(0.000624925537587 0.000238227493207 0)
(0.000665058019497 0.000236050983256 0)
(0.000705407574391 0.000232953126931 0)
(0.000747844235829 0.000231006757514 0)
(0.000788446161812 0.000229049703922 0)
(0.000825064458696 0.000228667643095 0)
(0.000874068178006 0.000230360270551 0)
(0.000907700541893 0.000226907458844 0)
(0.000959318503473 0.00022692026626 0)
(0.000981382488204 0.000222436880023 0)
(0.0010395149373 0.000229614786672 0)
(0.00106853157185 0.000233199531367 0)
(0.00113374228955 0.000246665046356 0)
(0.00119764811585 0.000260166326704 0)
(0.00124949260196 0.000266554297652 0)
(0.00129696267106 0.00026379395581 0)
(0.0013429112997 0.000256071609893 0)
(0.00138750485301 0.000245804997339 0)
(0.00143081734072 0.000232899437146 0)
(0.00147264291887 0.000217118240744 0)
(0.00151237512354 0.000200557094794 0)
(0.00154951335042 0.000185613684464 0)
(0.0015837059018 0.000172300765041 0)
(0.00161473960449 0.000159257493508 0)
(0.00164261033794 0.00014551023436 0)
(0.00166739569421 0.000130698320302 0)
(0.00168905066375 0.000114732068106 0)
(0.0017074249907 9.75527059654e-05 0)
(0.00172230992877 7.91969349929e-05 0)
(0.00173339515137 5.98583185267e-05 0)
(0.00174022991073 3.94976919672e-05 0)
(0.00174246887127 1.76365251281e-05 0)
(0.00174036937275 -5.43566122916e-06 0)
(0.00173482589811 -2.81577999914e-05 0)
(0.00172519850525 -5.07123614847e-05 0)
(0.00170762420737 -7.62260175987e-05 0)
(0.00167695657308 -0.000108886970768 0)
(0.00162811436563 -0.000154187055767 0)
(0.00155541479694 -0.000219657858807 0)
(0.00145771612117 -0.000313420383531 0)
(0.00134293106181 -0.000434140814477 0)
(0.00119868732356 -0.000548461064395 0)
(0.00118368260308 -0.000688029686962 0)
(0.00106051704756 -0.000684782927968 0)
(0.000921248778545 -0.000579366930028 0)
(0.000824712003866 -0.000507834999445 0)
(0.000720492651631 -0.000463849862971 0)
(0.000621799311297 -0.000455078439211 0)
(0.000559061193504 -0.000500743288383 0)
(0.000492818536455 -0.000540925399666 0)
(0.000393748919073 -0.000491380434212 0)
(0.000316467158393 -0.000440806086421 0)
(0.00025466869704 -0.000425026879202 0)
(0.000185833126942 -0.000409658256297 0)
(0.00013314400438 -0.00037989964511 0)
(8.52086156891e-05 -0.000295589697157 0)
(5.22082648032e-05 -0.000258381385103 0)
(2.94169447555e-05 -0.000302555584795 0)
(7.82417549351e-06 -0.000298604673181 0)
(3.45779081576e-06 0.000132427968019 0)
(2.39887576983e-05 0.00016659673448 0)
(5.06596504846e-05 0.000205287592416 0)
(5.64808167688e-05 0.00019987370005 0)
(4.29416841385e-05 0.000118108855961 0)
(9.20381253403e-05 0.000165019058013 0)
(0.000136570131814 0.000202517966779 0)
(0.000153322571011 0.000203290118848 0)
(0.000176881699219 0.000200350398407 0)
(0.000198868226685 0.000195579227047 0)
(0.000234281067576 0.000182925146711 -2.32311867292e-28)
(0.000200485179063 0.000125647872978 1.53701882542e-28)
(0.000232294643963 0.000129538301168 0)
(0.000260249326398 0.000145972888521 0)
(0.000312553466954 0.000180492872418 0)
(0.000373135568366 0.000216960881035 0)
(0.000417544987368 0.000231951145488 0)
(0.000439118702654 0.000231400978874 0)
(0.000479922274192 0.000247230865519 0)
(0.000527312072544 0.000267738460919 0)
(0.000566463002686 0.000276552630333 0)
(0.000606602300754 0.000278511640236 0)
(0.000647445514107 0.000277426185969 0)
(0.000688413122607 0.000274291755831 0)
(0.000726814970784 0.000270180018465 0)
(0.000763906227113 0.00026788746143 0)
(0.000811271576611 0.000270344356103 0)
(0.000840516200161 0.000269503720955 0)
(0.000897463767232 0.00027083209869 0)
(0.000916058097597 0.000259966862729 0)
(0.000977882032079 0.000267782680336 0)
(0.00100811178098 0.000273590292231 -7.81351655361e-29)
(0.00107222124395 0.000288548993354 7.85329638862e-29)
(0.00112967591752 0.000306035764121 0)
(0.00119568858485 0.000318822556326 0)
(0.00124626485508 0.000318109086558 0)
(0.0012928744806 0.000311144016801 0)
(0.00133909555502 0.000301584066172 0)
(0.00138475324528 0.000289897528724 0)
(0.00142918666485 0.000275612018036 0)
(0.00147194312436 0.000258651682468 0)
(0.00151264863679 0.000240397974078 0)
(0.00155076055303 0.000222602380254 0)
(0.0015857904292 0.000205726408769 0)
(0.00161749862582 0.000189116258447 0)
(0.00164584793263 0.00017202215846 0)
(0.00167083033107 0.000153992111662 0)
(0.00169230842 0.000134775660859 0)
(0.00171007179469 0.000114220395113 0)
(0.00172392894412 9.22754841283e-05 0)
(0.00173365701122 6.89665950795e-05 0)
(0.00173897253754 4.42504039981e-05 0)
(0.00173971236648 1.81021314322e-05 0)
(0.00173594824639 -9.15789367492e-06 0)
(0.00172736047888 -3.75132076639e-05 0)
(0.00171161165678 -6.90916516155e-05 0)
(0.00168374897195 -0.000108237964828 0)
(0.00163822035977 -0.000159801815259 0)
(0.0015715149415 -0.000228125263596 0)
(0.00148487694325 -0.000315923215992 0)
(0.00138407361765 -0.000421341795862 0)
(0.00127893376401 -0.000536021296074 0)
(0.00119215627226 -0.000653308920848 0)
(0.00112426834706 -0.00077452852816 0)
(0.00101252413148 -0.000791030416579 0)
(0.000825261281046 -0.000657720343906 0)
(0.00075832968676 -0.000606297483466 0)
(0.0006705726397 -0.000576980428582 0)
(0.000570095716282 -0.00056595463733 0)
(0.000488843172186 -0.000598777205194 0)
(0.00041014305956 -0.000607463436569 0)
(0.000326991076705 -0.000548137376102 0)
(0.000265761840135 -0.000517494604821 0)
(0.000196921203834 -0.000496921689319 0)
(0.000136008215974 -0.000471808551083 0)
(9.25894439885e-05 -0.000405375513409 0)
(5.99506246192e-05 -0.000336482038687 0)
(2.56205247508e-05 -0.000287711362666 0)
(9.44632311041e-06 -0.000315898963811 0)
(3.22013482918e-06 -0.00031598765403 0)
(7.28628058123e-06 0.000151039761326 0)
(3.14223613378e-05 0.000195655562986 0)
(5.27585517032e-05 0.000211974201935 0)
(3.48974778776e-05 0.000143852120252 0)
(4.14598288287e-05 0.000142460081949 0)
(9.57002296145e-05 0.000213545075734 0)
(0.000117541748558 0.000222112915563 0)
(0.000137102013907 0.000223702146934 0)
(0.000151990329903 0.000220061372678 0)
(0.000177296511065 0.000217389934647 0)
(0.000157345646912 0.000155579913444 0)
(0.000181188306345 0.000146953094079 0)
(0.00021224907858 0.000159501802308 0)
(0.000245753432067 0.000186193497941 0)
(0.000311233715917 0.000237950221998 0)
(0.000358270656522 0.000262348630881 0)
(0.000375791096535 0.000256325650022 0)
(0.000411631656137 0.000267066943488 0)
(0.000462477090835 0.000293228413402 0)
(0.000505606111003 0.000309830951752 0)
(0.000543825835601 0.000315933545077 0)
(0.000582939547201 0.000318031482088 0)
(0.000625042490445 0.000319030903396 0)
(0.000665796648493 0.000315996440495 0)
(0.0007082195718 0.000310480439438 0)
(0.000739573537561 0.000308485899238 0)
(0.000791877878669 0.000312995013741 0)
(0.000825967134855 0.000309940476033 0)
(0.000855361373307 0.000304224640266 0)
(0.000903033855984 0.000307217298148 0)
(0.000970897479147 0.000319968308361 0)
(0.00100606255622 0.000324134436286 0)
(0.00105589052718 0.000343520521561 0)
(0.00113467188159 0.000369153343641 0)
(0.00118879392141 0.000374985562247 0)
(0.00123846390504 0.000368646060627 0)
(0.00128684490326 0.000359122171332 0)
(0.0013344787952 0.000348232107386 0)
(0.00138152363066 0.000335351419592 0)
(0.00142738214036 0.000319713450279 0)
(0.00147141222625 0.000301270711527 0)
(0.00151324434014 0.000281054563791 0)
(0.0015524289632 0.000260426106102 0)
(0.00158844237279 0.000240037963582 0)
(0.00162096202681 0.000219715381946 -6.9792433139e-29)
(0.00164986153676 0.000198958987179 6.95341621688e-29)
(0.00167499707132 0.000177289123712 0)
(0.00169610784893 0.000154350276162 0)
(0.00171293511073 0.000129936362342 0)
(0.00172532890843 0.000103971983015 0)
(0.0017331742261 7.64254747521e-05 0)
(0.00173633009472 4.72587396995e-05 0)
(0.00173466390557 1.64049754461e-05 0)
(0.00172775397533 -1.65153906318e-05 0)
(0.00171396508886 -5.31671162566e-05 0)
(0.00168945453956 -9.73924578502e-05 0)
(0.00164888632523 -0.000153831441185 0)
(0.00158915329264 -0.000225198332341 0)
(0.00151288384548 -0.000311919220737 0)
(0.00142548312196 -0.000412422147278 0)
(0.00133163607033 -0.00051863398757 0)
(0.00124212192085 -0.000623737264659 0)
(0.0011673774266 -0.000732303463839 0)
(0.00109111570297 -0.000845813310013 0)
(0.00107490444682 -0.000957821624885 0)
(0.000827333820097 -0.000795461890711 0)
(0.000677206730463 -0.000698814539522 0)
(0.000589802114363 -0.000672996639292 0)
(0.000487573893282 -0.000658661204398 0)
(0.000406991393643 -0.000673510574716 0)
(0.000338525581584 -0.000660202200367 0)
(0.000271802877371 -0.000616065160343 0)
(0.000207102991919 -0.000591152425752 0)
(0.00014014168166 -0.000563444307766 0)
(8.88368209225e-05 -0.000517876420435 0)
(5.1467677203e-05 -0.000435050720608 0)
(2.13605406505e-05 -0.000374502806659 0)
(-8.31643742741e-06 -0.000319758371457 0)
(-1.8967299475e-05 -0.000317683946668 0)
(-7.87961881763e-06 -0.000319569999357 0)
(9.33668748305e-06 0.000172717037837 0)
(3.22233786554e-05 0.000216188631397 0)
(3.94250680184e-05 0.000217168001044 0)
(2.96198256819e-05 0.000155268043686 0)
(5.2283882425e-05 0.000179080697783 0)
(8.93305126152e-05 0.000234339030969 0)
(9.92065353263e-05 0.000239463517369 0)
(0.000121040769956 0.000241661593869 0)
(0.000122741023734 0.000222537835713 0)
(0.000155592157293 0.000243928751971 0)
(0.000136278394824 0.000173515017753 0)
(0.000166383902513 0.000174618754553 0)
(0.000193632974515 0.000192340742233 0)
(0.000241197266076 0.00023935952964 0)
(0.000295277316839 0.000285983840126 0)
(0.000330058385823 0.000296683976971 0)
(0.000346634176861 0.000289453405149 0)
(0.000389664428455 0.0003110009392 0)
(0.000437022532875 0.000337217665166 0)
(0.000478382818002 0.000350757480415 0)
(0.000518624731619 0.000356112209567 0)
(0.000556758720775 0.000357367118854 0)
(0.00059805407195 0.000358851297558 0)
(0.000633875566752 0.000354873383504 0)
(0.000669055595627 0.000345866008472 0)
(0.000721498525148 0.000350594382774 0)
(0.000740999410991 0.000346911063081 0)
(0.000812609949594 0.000356352222737 0)
(0.000832536661004 0.000350445451175 0)
(0.000904434237181 0.000364540504489 0)
(0.000928391477955 0.000361614582325 0)
(0.00100621153746 0.000383767207613 0)
(0.00106702455416 0.000409496975959 -8.1221931814e-29)
(0.00112493303091 0.000426841686521 8.0607105517e-29)
(0.00117797194842 0.00042740634981 0)
(0.00122903276035 0.000419520475872 0)
(0.00127948367042 0.000408847038464 0)
(0.00132904350312 0.000396689985971 0)
(0.00137776390625 0.00038250385098 0)
(0.0014252630241 0.000365422520534 0)
(0.00147090050387 0.00034526792839 0)
(0.00151418545011 0.000322840691581 0)
(0.001554662888 0.000299290899798 0)
(0.00159184543146 0.000275351269104 0)
(0.00162535066894 0.000251129898805 0)
(0.00165487526776 0.000226318151025 0)
(0.00168007964955 0.000200460802027 0)
(0.00170057821562 0.000173173445261 0)
(0.00171607488133 0.000144278189162 0)
(0.00172646049236 0.000113745021493 0)
(0.00173172166387 8.15427963878e-05 0)
(0.00173183944389 4.74928515957e-05 0)
(0.00172661087706 1.10456209842e-05 0)
(0.00171496038566 -2.93701912233e-05 0)
(0.00169403727642 -7.71408508294e-05 0)
(0.00165897422015 -0.000137024107806 0)
(0.00160559607185 -0.000211355650287 0)
(0.00153717614067 -0.000297582733395 0)
(0.00146296121808 -0.00039522330796 0)
(0.00138089393696 -0.000506395814438 0)
(0.00128621263808 -0.00061318462778 0)
(0.00119449947677 -0.000703575849392 0)
(0.00112433192669 -0.000795925407982 0)
(0.00107296221894 -0.000898409793449 0)
(0.00105424203974 -0.0010183392481 0)
(0.000971509964293 -0.00104336791474 0)
(0.000655589054181 -0.000820720279929 0)
(0.0005058222877 -0.000779992975613 0)
(0.000416420465656 -0.000762823216145 0)
(0.000340100461346 -0.000744268073742 0)
(0.000275099772622 -0.000715993860402 0)
(0.000210095284373 -0.000691121806327 0)
(0.000143253941263 -0.000659449238498 0)
(8.51639141446e-05 -0.000620753016751 0)
(3.78342663246e-05 -0.000554569811773 0)
(-1.79158538948e-06 -0.000474715014467 0)
(-3.58845538655e-05 -0.000405939040938 0)
(-5.63372866118e-05 -0.000345697723236 0)
(-5.220972179e-05 -0.000308722020895 0)
(-2.1355107879e-05 -0.00029163665705 0)
(1.01929631658e-05 0.000196891588462 0)
(3.25639807592e-05 0.000228853035785 0)
(3.16020569749e-05 0.000214372183163 0)
(2.60120049424e-05 0.000165171161879 0)
(5.76448084134e-05 0.00022638727417 0)