/*--------------------------------*- C++ -*----------------------------------*\
| =========                 |                                                 |
| \\      /  F ield         | OpenFOAM: The Open Source CFD Toolbox           |
|  \\    /   O peration     | Version:  v1806                                 |
|   \\  /    A nd           | Web:      www.OpenFOAM.com                      |
|    \\/     M anipulation  |                                                 |
\*---------------------------------------------------------------------------*/
FoamFile
{
    version     2.0;
    format      ascii;
    class       volScalarField;
    location    "125";
    object      alphak;
}
// * * * * * * * * * * * * * * * * * * * * * * * * * * * * * * * * * * * * * //

dimensions      [0 0 -1 0 0 0 0];


internalField   nonuniform List<scalar> 
6400
(
0.824147420638
1.22357831429
1.86385311047
2.10148165135
2.34737915312
2.64370974781
3.20249974736
3.86746951245
3.93021302434
4.16730213766
5.26739500105
5.67534096996
5.95816534315
6.38828860693
7.1115042449
7.84680336635
8.34265803844
8.83449577058
9.30133528636
9.4907436117
9.35740492234
9.21321742495
9.31737201188
9.75969967537
10.2957033649
10.7279376504
10.9583141882
11.1445243916
11.4408574041
11.856054589
12.3401963855
12.5868074793
12.5469316316
12.4229056848
12.2136206178
11.7626782418
11.4946516313
11.7696065603
11.4638735984
10.7617084621
10.493063851
10.8615259382
11.2980972109
11.4987738136
11.5511778879
11.4833914236
11.3802190481
11.3160607089
11.2870894891
11.283982428
11.1095320678
10.2106308189
9.47472063804
8.69441203168
8.48120816822
9.16101875535
9.25113078419
8.08429802026
6.61741752776
6.22614230586
5.48889365399
4.63937072684
3.78185866234
5.5550990413
9.64061138554
14.585126894
17.5748655501
17.2740048157
15.2474784248
13.5274782145
12.5300198078
12.5756425269
12.9819284539
12.7779619333
14.7279095647
14.1337265748
15.9774584984
9.87220888801
12.8682258724
4.81019226996
3.07039967383
2.36601421734
2.8832939843
4.06485189763
3.67103181416
3.18770683358
3.12903496084
3.35065818618
3.72407371664
4.22982972493
4.89564879943
5.56004691899
6.11544667733
6.645272718
7.16351452768
7.78173928701
8.4283051969
9.11588102318
10.2297597093
10.1828983555
9.74001719721
9.46204115222
9.3832413583
9.72803159986
10.5991074316
10.8621995107
11.0127175244
11.2919839132
11.6363354903
12.0138623027
12.4206914963
12.9256251903
12.8993877544
12.8146484105
12.7308667111
11.9744396539
11.9123012651
12.1786020566
11.6680850519
10.5439281282
10.1765023726
12.8647141872
14.3309855063
14.3574035313
14.2692676122
13.8547433707
13.2596418703
12.8196806594
12.1363380362
11.606493763
11.6700764293
12.4881186192
12.4887964396
8.91781262925
9.05026854788
8.90228859476
7.21711457124
6.19159019525
5.41574815023
4.64743313597
4.08897977919
4.94622416026
3.93006237976
5.70336866732
9.67636425158
15.4894383925
19.2080206087
18.0134607092
15.8222356029
13.8324388261
12.9968107061
13.2619938576
14.217541073
13.5732329764
13.357543598
12.7903544282
11.5664611664
9.71734251387
8.16820346933
4.25179385058
3.00862144085
2.52799143099
3.00499287205
3.03230366858
3.21236586771
3.47769012911
3.38401997083
3.31034205995
3.65991728437
4.21714355867
4.86741827966
5.55099156824
6.16296452309
6.71052266951
7.10097319202
7.65738888321
11.0629440826
13.2567234233
13.4396829522
12.3045206962
9.63792300956
8.84483531424
9.63679796624
10.047167733
10.3308414703
10.7791878797
11.1632234035
11.4515118961
11.774643436
12.1964296696
12.5174490699
13.2414589149
13.3111206551
12.6398432188
13.5324110571
12.8273787864
11.7322957062
12.7239380092
12.0879969062
10.8170176818
10.3837155665
10.8599102553
11.4012147497
11.6500746752
11.7227173846
11.6943671887
11.5954666929
11.444243985
11.2392486606
11.002593029
10.7324143289
10.351944869
9.82230189063
9.63620723506
9.64514920047
8.32354190085
7.09771846489
6.22705745597
5.50371394235
4.87829071143
4.44904273294
3.99859960227
3.77131388443
6.36575409647
11.6005340585
16.3128271709
18.6241549091
18.7300866393
17.1037955741
15.3597933789
14.561266617
14.3561246091
13.6161212642
12.9543612271
12.8641749078
12.469654654
11.4564183515
9.8229387602
7.38316914369
7.56517856721
2.7413400997
5.27704144348
3.05523153904
2.96030808299
3.57141045751
11.6579921134
9.95534667543
4.2087614514
3.69237892704
4.25537172
4.89048216126
5.57404151131
6.16638638221
6.84009328266
8.97696263594
11.3882659874
13.0389972182
13.0718810279
11.0457832912
9.04406990485
8.95744130655
9.12914757519
9.37717119081
9.85735170937
10.4220275032
10.9588306346
11.4117668596
11.6345541205
12.0698104701
12.2761040026
13.0494525596
13.134041871
14.0091483533
13.6235670834
12.4278935624
13.152684179
12.2156846176
11.1296841187
10.8834365479
10.7652872876
10.7697231032
11.0573357324
11.4254328798
11.6631839882
11.7654607709
11.7631906187
11.6808901014
11.5376986253
11.3423587714
11.1055623374
10.8256783593
10.4879381823
10.0988909623
9.70190876086
9.13793407487
8.23613732253
7.21220855445
6.34480381537
5.67366595193
5.16809230221
4.81329474192
4.56059280612
4.74386688148
6.80133829828
10.7387296387
16.5577276796
20.1486224582
20.3400427207
18.6485096945
16.2606188948
14.5819808797
13.6940133154
13.7689596496
15.0842055443
14.9639562023
13.5978830548
13.4188429427
16.6881418539
13.0779108454
11.0844954104
5.18836151335
7.2450432799
3.42609133717
3.75130866899
6.04552986775
11.5346165369
7.56486505893
4.23417213447
4.15873471661
4.4725991236
5.04617776177
5.77460386181
7.30959973965
10.1040296187
11.0541398021
11.1472446641
10.5679580664
9.44768355226
8.74305587479
9.11452945484
9.11285342172
9.04978602005
9.4189270557
9.96348145216
10.5844084332
11.2023215002
11.5420982122
12.1277792233
12.1669201413
13.0294368841
12.9571583644
14.6546730209
13.7938880387
12.7277270945
13.0678489983
11.7677879488
11.2449895709
11.0180044615
10.9509823849
10.9495533332
11.0087804046
11.2094891137
11.4815803422
11.6982594015
11.8151231787
11.8311379435
11.7629788839
11.6305952378
11.4488761236
11.2265320056
10.9615607923
10.6490996265
10.2869573559
9.84585904606
9.20658597844
8.31374516816
7.35144060071
6.54221960251
5.96074010706
5.58031472875
5.36620996543
5.35889062748
5.91782194273
7.18490424032
10.4616931613
15.9100025816
20.1366809308
21.5269551714
20.3160547913
17.5144362728
14.9863592257
14.5878755088
16.7530001931
17.5595762165
16.4666157859
15.4998511688
18.1012568831
21.087100786
16.3717057085
15.4700788616
9.54833595122
8.64664968069
4.23369450303
5.12709749965
11.7836144925
11.1835999144
5.23943391528
4.63113829688
4.67454667463
4.79431803757
5.40158191615
8.54429424873
12.1469736017
12.3873822796
11.7185145304
10.0795874503
8.75679386324
8.36691277491
9.27229763676
9.15473102687
8.8233519297
9.06785298355
9.56714160246
10.2058785062
10.6933178282
11.3429526043
12.3396879786
12.1404624833
13.3860174426
12.8799164542
15.1396568241
14.0703631236
15.4627755056
13.5351955351
11.6910488178
11.098779176
11.0282369506
11.0536503826
11.0917645706
11.1297858484
11.2104242606
11.3736241411
11.587254139
11.7787917738
11.895419073
11.9215746146
11.8639993368
11.7441620285
11.5825444029
11.386722512
11.1510657395
10.8641128896
10.5030261877
10.0146125018
9.32794377
8.46362969079
7.58791621619
6.86179562782
6.33295793629
6.03834141888
5.96688036289
6.37529656401
7.90775365739
7.18348451883
11.6102493383
17.4505250044
21.2381192818
22.6462134479
21.6757078564
18.2721693092
16.0691454532
17.8387128616
19.9907010523
19.4069479675
18.3504406996
18.3592538799
22.853444433
24.4011015513
19.3439724536
19.1235588287
11.5933193314
8.13820788242
5.15223245957
4.92109195304
11.6267451227
7.47566471236
5.01559403052
5.08441131268
5.14759085166
5.85640728015
6.13517750231
12.1674195839
12.5739266387
12.4256543057
10.4773236393
8.45452916984
7.99525551328
9.51191274501
9.35896376845
8.6305795704
8.81892952865
9.17151762568
9.66851960802
10.3020395418
11.208426967
12.2000833929
12.2498462953
13.975923713
13.1582544717
15.6604131039
14.3901725174
15.8719626106
14.257601999
13.1675820242
11.1218849887
10.8450143828
11.015949672
11.1677631851
11.2401524843
11.2975133587
11.3956283547
11.5441902509
11.7253927022
11.8950635347
12.0061522731
12.0354725975
11.9867973861
11.88439471
11.7511053366
11.5907788464
11.3899473473
11.1246633822
10.7561929499
10.2336232229
9.53125222996
8.7116859196
7.91618484647
7.25199508699
6.74721835195
6.43091808624
6.49566977241
7.04545367802
7.40627813278
8.04477342617
12.4511244962
19.6627631166
22.3603147677
22.7916395302
21.6979156417
19.4136057974
19.2227109668
21.79706295
22.1886244296
21.2804391878
20.6183608168
22.4834865736
25.139895662
26.5620619269
21.8923568462
20.7085944275
11.1327775364
7.33931376677
6.16097946377
11.574050202
11.5549913526
5.74516912461
5.52494459586
5.58595214126
5.84073280956
6.35463113182
12.005695487
12.8458967527
12.6757406398
11.9011098634
8.73976920781
7.63623071857
9.4959747365
9.78384409734
8.7146113912
8.42908219121
8.87348765043
9.4377708888
9.90851459703
10.6440978597
11.2340777112
12.7821396443
12.4028546252
13.8307017148
15.5873216032
15.6213114553
13.7387737167
14.8651545695
14.6825164388
11.5739931897
10.9600310821
10.936462476
11.1073396567
11.2846594851
11.3872299342
11.463456737
11.5744890176
11.724152225
11.8899351706
12.0417729453
12.1438623766
12.1730995311
12.1349045069
12.0563196294
11.9593504408
11.8412011911
11.678487947
11.434058823
11.059694571
10.5183396034
9.82326720919
9.05491929626
8.31213523378
7.63021934404
7.00199705501
6.59817629538
6.79669206645
7.46115138454
8.2771857017
9.36077121854
10.568621425
19.3355040819
23.7460697515
23.9146354465
23.3670043343
22.5174820312
23.5046225925
24.8968145126
24.1551693693
23.389791412
23.4834497233
25.6675551331
26.2162747216
26.7455138668
23.7579602573
21.5174003455
10.1452804135
6.8251599895
6.8037742035
12.4516246758
10.0949202316
5.9355101075
6.07695071784
6.23795105652
8.03929577121
6.24953134634
12.7787148559
13.2359480616
12.6365541752
10.2072307715
7.86811766802
7.74382283809
9.64733280804
9.25939835782
8.4572182434
8.45448987735
8.84395570025
9.59292271982
10.2418227671
11.6071800968
12.887488635
12.5183518666
15.1578275322
13.2651191846
16.0009496084
13.9967953747
16.142651885
13.3862639369
12.2180284146
11.3057736453
11.0560246452
11.0924263312
11.2275567061
11.3984786988
11.5316672864
11.6381125678
11.7625531562
11.9148188451
12.075232708
12.2154125007
12.3061768758
12.3344583772
12.3117747804
12.2646707874
12.2104793222
12.1397380708
12.0186421271
11.7970648365
11.4221539221
10.8750703757
10.1988856323
9.47039487765
8.72056136173
7.88119647776
6.92871162996
6.35065074388
6.89813051652
8.25468510919
9.61954119837
10.7316372177
11.7067031863
15.266082783
23.610355463
25.269814
25.5011468363
26.4095671053
27.6598427889
27.3403617147
26.2596392925
25.9430071678
26.7545216497
27.7492752218
27.4279870186
26.6963674875
25.5436239742
24.0332435388
9.21514749952
6.89150168977
8.03129729455
12.4226843665
7.31063145992
6.96084674665
6.62366791362
6.87736529343
10.8543645014
9.28408845096
13.6035510214
13.4055772527
12.5777878543
9.05617910607
7.66285822358
9.77020030676
9.93459103074
8.8435182806
8.37198489219
8.64831969371
8.95769698348
9.64820468314
10.1408793177
11.7969829142
14.4396463843
12.2701836183
15.0093815936
16.1055361992
16.2264837888
16.4589136644
14.3408688283
14.2371696209
11.5402405854
11.1281931177
11.1896594146
11.2546114789
11.3594269037
11.5115719444
11.6673287177
11.8139877893
11.9644473291
12.1235395414
12.2805758272
12.4128164687
12.4951718048
12.5223165933
12.517981362
12.5104575914
12.5069220206
12.4883531368
12.4123656025
12.2171380909
11.8470446141
11.3026766528
10.6470428605
9.92664411113
9.05190485291
7.79407985047
6.23306059508
5.7044459069
7.30005975953
9.50202404486
11.2074990699
12.4867347817
13.5199318603
13.6960063179
15.0297531757
26.9443742438
29.821268312
31.2026971598
31.2757614445
29.8773421141
28.8698082066
28.9696533681
29.8626480578
29.9198450985
29.4268220318
28.9179782966
29.0862432751
29.1594321311
8.72796982294
7.44695051711
11.8425719641
12.2846446345
6.86107174146
7.6286616841
7.12572272235
7.97751000066
9.93180158772
13.1422464854
14.254432094
13.5105524419
12.6191665509
8.65076596736
7.70578569762
10.4090192623
9.88568328354
8.67469200432
8.36696199314
8.79991984679
9.47232488427
9.95018377949
10.3301199707
11.3082638111
14.5392203049
15.7226233147
14.0395342324
16.2907487697
13.8570840131
16.5175404885
16.4339902735
14.0126343949
11.3356991324
11.2247780207
11.360351401
11.4295234757
11.513649629
11.6439775166
11.7997339843
11.9846626153
12.1770729748
12.3513534997
12.5074786355
12.633977135
12.7101178018
12.7400893686
12.7585933809
12.7947824883
12.8466783592
12.8851779834
12.8586138631
12.693534614
12.334155029
11.799735575
11.1555508026
10.3687154853
9.08428929385
6.88055301111
4.93461680965
5.53125173726
8.61556589383
11.4524513592
13.3008209302
14.5601073894
15.3287270089
15.4438392504
15.0916574743
17.0679166048
31.3863390916
36.8215466028
35.6709845149
33.3047656963
32.3480422991
32.5499281939
32.9549722111
32.8833402378
32.8167904841
33.0127271688
33.3742528773
33.9399538093
8.64855147864
8.1223467155
13.3705510974
12.6343807039
10.2724795733
8.72598966411
7.80081807701
9.55701977099
8.93912605888
14.0600786978
14.7041572229
13.6610008238
12.3992297446
8.90208563759
8.48975012904
10.9475676103
9.74275620003
8.62793911937
8.46416072368
8.8296831206
9.69237186046
10.3641572306
12.4829145823
11.444550281
13.8665627163
16.0956262937
13.5527753024
16.6181605643
17.0375942965
14.8244142807
14.7603704602
12.0903546289
11.7015909862
11.5463432018
11.5736489528
11.638252884
11.706909564
11.8150100959
11.9387483821
12.1296467552
12.3818952462
12.6064422457
12.7655418939
12.8805310092
12.9527057061
12.991558455
13.0374208866
13.1187921486
13.2269085647
13.3242865255
13.3474493992
13.2166775927
12.8840501349
12.3670344729
11.6910484253
10.5866381131
8.18442135561
5.09098271199
4.04441024688
6.53045850009
10.9747333263
14.1069497266
15.940616848
17.1889061174
17.8712716859
17.8174242993
17.3833533827
16.4930831446
27.3461080188
37.7744310571
40.6768437585
37.9221522785
36.9754490588
37.0319339432
37.1220730815
36.857004538
37.242863747
37.6058294262
37.1944997312
37.2360687151
8.96205145706
8.63763151
12.9220042222
12.8671029302
12.7788001522
9.55264202781
8.61426481029
12.7501576421
8.91072090577
14.8965117468
15.0433638746
13.830493294
12.2079335761
9.23548923932
11.9567441641
12.0674431443
9.72196612807
8.72317989126
8.69320102115
8.99298133979
9.65890722997
10.2881712804
14.1237765321
15.1990687265
12.987579545
16.2052878387
16.95744671
15.969074535
17.0184387803
16.9204756818
15.4386016565
11.9918993381
11.9030049036
11.8701274543
11.8323073747
11.8555834519
11.8895261032
12.0187375067
12.1603681392
12.3023138244
12.5568103912
12.8480688919
13.0529692749
13.1649410127
13.2288017252
13.2801415749
13.3583037664
13.4843635128
13.6435063852
13.7914054193
13.8578604171
13.7711950963
13.4952187784
12.985871376
12.1370594622
10.182928312
6.24845634016
3.15046382479
3.92132090496
8.76982676339
14.2019125029
17.4844706142
19.2254534237
20.5789025295
20.9790354977
20.1175287932
19.1508545516
18.4005487691
23.5190457357
34.9110787289
42.023846033
43.2353200817
41.3792018247
41.5588777338
41.4597644743
41.534566728
42.0714653638
42.1899889251
41.7551733754
41.7090356092
9.32857785327
9.14575959757
8.9065937702
13.0496241015
13.1049852969
9.98806464908
9.37880482845
13.5242132055
9.23683281858
15.7169922757
15.3238786146
14.0058758249
12.1496652361
9.34410083961
13.1784249043
12.3207901888
9.86011839736
8.97116572074
8.98355574035
9.34107250546
9.74848525617
10.2175436638
14.7858655338
16.1378295222
13.1585605763
16.3484479035
17.4664251826
14.7355796036
16.6350088986
16.1024054826
12.6613551031
12.3603964229
12.3155371718
12.2106415378
12.0986968314
12.1425926203
12.1575228875
12.1784300396
12.3552259372
12.5526002699
12.7789829043
13.0798505272
13.3372453404
13.479467814
13.5480686651
13.6137967655
13.7235625424
13.8852265713
14.0878318889
14.2767792757
14.3561609346
14.3332425704
14.1643357275
13.6621286981
12.3659847716
8.58223072478
3.24233091294
0.452806950804
5.47528882447
12.6020775977
18.5188952475
21.7947617857
21.9619031031
20.7408160258
17.6739226396
15.1547419788
13.6288368339
12.5492967999
10.4020673539
13.71387835
41.6712216546
45.3661245995
46.5798587087
45.5929540003
44.8498593694
46.3348172064
46.8224642775
46.7997110713
47.5388212488
47.8739111831
9.8562151718
9.89510005901
13.6122697917
13.4924506205
13.3076420463
10.3159996833
10.2871331619
14.080876117
10.0207880794
16.3840347657
15.561086813
14.179707036
12.1377990441
9.57496547411
13.3213604804
12.1728727833
10.0120385321
9.25969625218
9.26794354718
9.58295390772
9.97452385405
10.3521238369
13.8360772756
16.8829424539
17.010680557
15.2819553325
17.611639559
18.2008253294
14.1862968953
13.0367764436
12.4639281228
12.5156080752
12.5289369384
12.4787254771
12.4519811174
12.4111199682
12.4182800178
12.4753618739
12.5415031552
12.7719267609
13.0509901146
13.352139635
13.6275136912
13.8063279903
13.9098554498
13.9941509416
14.1248665842
14.3427011015
14.5938075001
14.7546160479
14.7982734359
14.8691782563
14.8580424842
14.2492531046
11.8381017933
6.07945217025
0
1.55802146503
9.25775433991
17.8376754926
22.7541318389
20.3273627074
14.0013341526
4.39936334895
4.68787882747
6.21290318484
7.6536605664
8.50603859254
8.86348319243
8.25445840058
5.30457467072
30.8422014863
49.7985735556
51.3891250153
48.3589603138
49.7868326792
52.0643150772
53.3230798725
55.2613115825
55.458647353
10.3094383138
10.4813633371
15.1027695161
13.8563653998
12.9824603544
10.6829026999
11.2146736879
14.4426653945
14.4551615692
17.1504238425
15.8116580701
14.4068315409
12.1425712323
9.96186551798
13.4602844885
11.9868161634
10.1978554517
9.56815079658
9.52583371403
9.77597633607
10.1614691128
10.6916418593
12.9746245802
17.1032170412
18.4024644321
14.3206452921
17.1993622109
17.9931838247
17.1666049962
13.8824056418
12.6569059225
12.7164661552
12.8312619941
12.889049147
12.6913978793
12.6944415398
12.6542931079
12.7320268438
12.8118164985
13.0021027867
13.3245014698
13.6651127752
13.9303206205
14.1137411008
14.2793474402
14.4927466745
14.7222512536
14.9772453799
15.1225957621
15.2022125235
15.3013709595
15.4125429656
15.6707195256
15.0784539749
10.063275863
0.142545108026
0.0144090638921
6.19003268752
14.8197039796
19.4098957121
13.5181395728
0.315593106741
0.0222463029302
0
0
0
0
0
0
0
0
3.09408136005e-06
0.0010435695879
0.156095766811
39.4370872495
56.6530256159
57.116934436
60.3711449682
64.6800818584
63.978413513
10.6559555607
10.8574338327
17.4140532042
14.0603931524
12.2785321274
11.0274775297
11.8422993067
14.1171243067
16.0020294475
18.0313101229
16.1865580691
14.729847548
12.3454546815
10.6902575297
13.8126217205
11.9756059068
10.4926668378
9.9466622297
9.82505645944
10.0027533746
10.3266467735
10.8338176166
12.5752666346
16.9530168754
19.3337636409
18.3100604703
16.4264188614
17.2955500227
16.4584530644
12.9544716697
13.1229814666
13.2579524176
13.5150065993
13.3464667564
13.1711888081
12.9594126844
12.9965371368
12.9796654799
13.092499969
13.2780649389
13.571628725
13.9605737137
14.368468469
14.5825698387
14.7970427719
15.1267588106
15.5035194818
15.8067451052
15.9465035483
16.0892896836
16.2703574068
16.4743868771
16.483825538
15.8277889688
10.4751683744
0
0.171434517324
9.54586788701
10.1133966945
0.0980210082636
0
0
0
0
0
0
0
0
0
0
0
0
0
3.98672347901e-05
0.000396167679505
0.00868485390664
0.421116556492
59.1884703813
68.8014624186
64.4989398309
10.9045670986
11.0921342588
19.5978770397
14.1561895637
11.924050674
11.3692725986
12.6378275951
12.8338837114
16.9603673394
18.6436928554
16.5598378453
15.0670030361
12.7741423449
12.9281951215
14.2919566351
12.2265159398
11.0074401577
10.5601395668
10.23427688
10.3237805791
10.552196787
10.9924636206
12.4355186943
16.8181962017
19.6759071295
19.9638017312
15.0873719382
15.3328840308
13.8069551504
13.0508773762
13.2765365042
13.8175944176
14.0089644372
13.7795206252
13.5870519041
13.6742190454
13.346700776
13.3054389886
13.3661804319
13.5069969394
13.9380420102
14.3811468135
14.7893504043
14.9621426652
15.3648826674
17.5669761995
20.5371620854
21.4676830016
19.5258121345
19.3718277561
19.7156559378
20.352843702
20.8289194834
20.8160050728
19.8032848398
0.00707311611688
0.311150968706
0.116627037025
0
0
0
0
0
0
0
0
0
0
0
0
0
0
0
0
0
0
0.000615936278535
0.00417101874428
0.769170437966
62.2155220307
11.1609335142
11.3220226332
19.2411909937
12.9771168621
11.7709614601
11.6444890571
13.5285116089
12.3725766688
17.7362025989
19.241979044
16.9359315633
15.3954828504
13.075112733
15.5178492168
15.0060767114
12.6899215063
11.6229345756
11.7112292991
10.8734328193
10.821985211
10.8892600946
11.1589750313
12.4759704038
16.6684756916
19.5047304059
21.0781295134
19.0235459703
17.5179396865
15.9307192842
13.4363110039
13.6261999042
14.7433008527
14.2158441283
14.1458850538
14.661447293
14.1199487088
13.8253532483
13.7574458626
13.8101649611
13.9318700914
14.1377978617
14.6713730436
15.3548193074
16.7211470358
18.7932932947
21.5934096461
23.6126452948
23.5523144112
23.900625474
25.6063371482
28.0712993541
31.8785648153
33.8572708499
34.7685562103
32.0649683389
29.7911756443
0
0
0
0
0
0
0
0
0
0
0
0
0
0
0
0
0
0
0
0
0
0
0.00189522599967
99.9905209866
11.5306673265
11.6837873316
18.6407839073
12.1072606302
11.8557058554
11.8440484147
14.2450934313
12.5700302073
18.3343299427
19.8246459357
17.3212342468
15.7521071407
13.344102533
16.0694807535
15.645234919
13.22572431
12.2173484317
12.4892492997
11.6662602426
11.5558432198
11.4721133772
11.3106943739
12.7054297317
16.6340320706
19.1857497887
21.4445457176
20.2900225059
17.623387399
13.9264144197
13.9882883747
14.3691927497
15.4347395981
15.6441967714
15.6161453898
15.4648275635
14.6010998882
14.3388656862
14.3296249981
14.3586697623
14.4988492954
14.6825150716
15.308459729
16.6772672145
19.4340520737
21.1878536503
21.4039348447
22.5166710513
23.6051014303
27.743745529
32.5559254899
39.5417109472
44.4645174613
45.0839918442
45.5111055385
43.0084126134
32.0546101591
0.165454572634
0
0
0
0
0
0
0
0
0
0
0
0
0
0
0
0
0
0
0
0
0
0.000318499103435
0.000421403404891
12.1729009192
12.3315103779
17.9353511321
12.0265819795
12.2994195319
12.158389633
13.8013991987
13.2166063529
18.6617889596
20.3563440677
17.7459098957
16.1692874657
13.7717889635
16.5989253759
16.2506024129
13.9166222242
12.9132647224
13.2721906056
12.4142786334
12.4470088224
12.4112933737
11.6613350459
13.1701381629
16.7528068524
19.0277948261
21.5384048886
20.7014219508
17.7953093932
14.0316518161
14.0984378999
15.2760646716
14.9933231965
14.9449404867
15.3289203758
16.4471949113
15.5728510421
15.2502669623
14.9066290356
14.8859877545
15.1686114578
15.5090553016
16.1746495219
19.3586604793
22.2817257243
22.2336493221
22.3556412411
24.0869358251
29.5497093981
36.5128633932
42.6653777903
47.4668370802
43.8497107124
34.3991360868
2.79140628028
0.017514577417
0.0355006290383
0.00545157190787
0
0
0
0
0
0
0
0
0
0
0
0
0
0
0
0
0
0
0
0
0
2.35412034712e-05
0.00010689368765
13.216497059
13.2955234532
17.8075482121
12.7641231487
13.4557119388
12.8578914471
13.6484616964
14.6985304683
18.3138101322
20.659203469
18.2459093698
16.6729335723
14.3326846013
17.2027969224
16.8904351951
14.8110444823
13.8552769994
14.2593862389
13.1582155548
13.4631936245
13.7539934165
12.3367593679
13.631140611
17.0097741668
19.0424517029
21.2862794629
20.8566901765
18.0373544326
16.9899036735
15.0670568118
15.8111292957
16.4751852868
17.4295405849
15.7513687366
16.0065447877
16.7847205162
16.1032276202
16.0817439958
15.809874427
15.8407025026
16.2843859329
19.0997753098
23.554467847
24.4502658693
23.7600886435
25.4233996104
32.0436604351
40.8822847198
46.8719866567
45.5954856774
36.5535561398
12.6349931827
0.199122313548
0
0
0
0
0
0
0
0
0
0
0
0
0
0
0
0
0
0
0
0
0
0
0
0
0
0
0
14.7697134593
14.482192005
18.1878786977
14.7544963781
15.5703755478
13.988823507
14.3232092853
16.9352243209
18.1609555851
21.0787801168
18.8929116981
17.2806412725
15.0125805215
17.8386507837
17.5244320441
15.8256887212
15.4378738878
15.6180774923
13.9811406934
14.6306283905
15.468933363
13.4489458165
13.8693799125
17.3119190825
19.2229147783
20.998142604
21.0090910197
17.9020659798
18.1764860115
16.8323606501
17.1248385304
15.355305745
16.0317687843
17.4856784259
16.8861377831
17.0516839133
17.0156899132
16.8902373623
17.0064384081
16.9608530573
18.7355016676
24.1234819117
27.0602430739
26.9885314054
27.6499905039
32.7969730021
42.1839427365
47.9108331887
36.9423597598
19.4377576185
16.6510243454
0.222668401041
0
0
0
0
0
0
0
0
0
0
0
0
0
0
0
0
0
0
0
0
0
0
0
0
0
0
0
0
16.4688327192
15.5735429032
18.6717369517
17.6002061978
17.229737271
15.3816159114
15.0938617594
17.9797277671
16.5444283135
21.3431646006
19.6764115965
17.9861221734
15.8055882275
18.4915522999
18.1103154938
16.6481693373
17.9310685424
17.2815738846
14.9399245969
16.0168807417
16.8475824852
14.9369552751
13.5846523575
17.1665960278
19.3002734339
20.7303379364
20.9917453761
17.8472274737
18.3523028826
18.1645743696
18.216596286
15.9758178677
16.5880942313
16.7142185712
17.8293243442
18.3102178499
18.2227818401
17.9757512727
17.9230244061
18.9871681668
24.0772420626
28.9977981329
30.7016731976
31.2974705786
34.1023484862
40.6844941609
43.3792602702
26.4454982012
22.0141995691
19.8653848325
0.379750009216
0
0
0
0
0
0
0
0
0
0
0
0
0
0
0
0
0
0
0
0
0
0
0
0
0
0
0
0
0
17.1563540145
16.3302933229
18.9142593221
18.4795819196
18.1288755274
16.7485620816
16.1497271801
19.3033623817
17.4120903957
21.7387761328
20.4631052929
18.7456622222
16.7020153727
19.1815545012
18.7293225389
17.3493642577
18.7801097049
18.2260091044
15.9052918898
17.4437145243
17.4025848938
15.4490895271
14.7621820057
14.938851548
18.7569596279
20.1301886429
20.6837905535
17.7545964071
18.2940726587
18.5366596635
19.0156694393
18.3138219399
16.1204647676
16.4886670202
17.9212621029
19.1284164548
19.5459548562
19.6997219011
19.6633303586
23.8461977404
29.8018025328
33.411024077
34.5687506446
35.8422704412
39.346701298
37.6140700866
21.5879056192
24.1208844847
22.6278955812
1.01512824798
0
0
0
0
0
0
0
0
0
0
0
0
0
0
0
0
0
0
0
0
0
0
0
0
0
0
0
0
0
0
17.0102683379
16.8502397678
19.07251842
18.5176425541
18.7104634351
17.8299205205
17.0884231891
20.5929699812
19.1267689401
22.2763098345
21.3026510735
19.5403862619
17.6913285051
19.9215462862
19.4270901007
18.2214940896
19.4470078531
19.0548234032
16.9842654724
18.3549037851
16.2982616649
16.0155653636
15.6953581412
16.1553924396
17.1385754944
17.9001701297
19.7356322636
17.6383070171
17.4459916185
18.3957297207
19.3309818212
19.6283236569
17.8160311291
17.1606777632
17.6463327622
18.7713171855
20.1758804541
21.4728473306
23.2623005899
29.3818186319
34.5467968695
37.0785299666
37.3782898268
37.4786294239
32.0686472399
23.4392551285
24.2261590638
23.3354352908
2.7734060417
0
0
0
0
0
0
0
0
0
0
0
0
0
0
0
0
0
0
0
0
0
0
0
0
0
0
0
0
0
0
0
17.1389856416
17.2311122232
19.2611144825
16.9965386753
18.8988079902
18.3793429476
17.7136582168
21.0325797922
19.8167029163
22.8714592628
22.2104695187
20.3521768977
18.7892595178
20.6991961502
20.1754522758
19.2406816077
20.1403629976
19.9975823799
18.1791100346
19.6472447574
17.5771367014
17.8508117905
16.8959329719
17.3535859949
19.2584996294
19.8481399666
19.3108300258
17.4940221035
16.650830143
18.3020279713
19.30092408
19.7462013546
19.626259813
18.194616891
19.6542253515
19.5557999925
20.7490752565
23.2831411659
27.7620038104
34.2898513958
38.385458885
39.5584395645
37.0273072162
28.8224513597
26.0006440239
26.2050573749
27.0531645267
18.6659985652
0
0
0
0
0
0
0
0
0
0
0
0
0
0
0
0
0
0
0
0
0
0
0
0
0
0
0
0
0
0
0
0
17.7958707956
17.8728479037
19.402378799
17.3267208846
19.0332192171
18.6143783163
18.1537231833
21.0389200225
20.3232600381
23.2856507667
23.1414873737
21.1352609712
19.9975180517
21.4771418939
20.9064469735
20.2438342496
20.7879491841
21.0431159687
19.432521874
20.9162370265
19.3587087168
20.1127823776
19.7382762874
17.9806321453
19.6779528744
20.8109792695
20.9288598338
17.3827706163
15.707324079
18.1906173221
19.4067135966
18.8555505528
18.8456739712
18.4156169154
19.4890308272
19.8906042206
21.499382493
25.2441920324
32.1482507263
38.808251839
41.6390998726
40.1943281597
29.918523836
26.7993587493
27.6631856822
27.4009500928
25.6586456185
0.66830923636
0
0
0
0
0
0
0
0
0
0
0
0
0
0
0
0
0
0
0
0
0
0
0
0
0
0
0
0
0
0
0
0
18.6413186776
20.1139341562
19.6535716941
18.3301542887
19.4803576974
18.9043961053
18.5814034487
21.0289179949
20.8121441421
23.3076757073
24.0872987276
21.8654452389
21.0726782181
22.0547557137
21.6277089543
20.9554093486
20.7197037991
22.0161852172
20.8240192789
22.0098324837
21.504917262
21.2871629333
20.989584805
20.5250637321
19.4399551115
20.3974618274
21.8457990351
16.2762952575
15.1632700707
17.2097671995
19.369695517
19.6553855111
20.1753340991
18.3699489569
19.1662573464
20.1391720558
21.869336582
27.0473424452
36.2200834834
42.9106451208
44.3425779525
35.8588213353
28.7572579322
30.0988142574
29.7757063795
26.7393746501
2.85110492866
0
0
0
0
0
0
0
0
0
0
0
0
0
0
0
0
0
0
0
0
0
0
0
0
0
0
0
0
0
0
0
0
0
19.2552712504
20.7577742324
20.2722210004
19.2206785
20.1303588336
19.4190379516
19.085908361
21.1196289302
21.312417864
23.0302211739
24.9503560789
22.6282203424
21.6596994665
22.5231285211
22.4863850718
21.6012875972
20.6559039965
22.6896830586
22.3622506383
22.9507099461
22.7622227639
22.8167052899
20.9092931647
20.9095230271
20.3337929068
22.2416512791
23.1491055994
19.1704178645
14.6997490269
15.993595718
18.7298618972
20.0009507356
19.9935253708
18.9987903716
18.6303622296
20.2671630793
21.8168849269
28.4683310632
39.8926792982
46.9771310427
43.7190053417
29.7074855826
30.6390556341
32.6450049195
31.6401132357
21.2358479635
0.11069078648
0
0
0
0
0
0
0
0
0
0
0
0
0
0
0
0
0
0
0
0
0
0
0
0
0
0
0
0
0
0
0
0
0
19.7247642872
21.0749374906
20.8368806965
19.814954948
20.7930943792
20.1215064056
19.6835693566
21.4032666351
21.8915633899
22.33147808
25.522070782
23.5057106775
22.0747931367
22.2649957688
23.4126096812
22.4396875908