/*--------------------------------*- C++ -*----------------------------------*\
| =========                 |                                                 |
| \\      /  F ield         | OpenFOAM: The Open Source CFD Toolbox           |
|  \\    /   O peration     | Version:  v1806                                 |
|   \\  /    A nd           | Web:      www.OpenFOAM.com                      |
|    \\/     M anipulation  |                                                 |
\*---------------------------------------------------------------------------*/
FoamFile
{
    version     2.0;
    format      ascii;
    class       surfaceScalarField;
    location    "878";
    object      phia;
}
// * * * * * * * * * * * * * * * * * * * * * * * * * * * * * * * * * * * * * //

dimensions      [0 3 -1 0 0 0 0];
oriented        oriented;


internalField   nonuniform List<scalar> 
12640
(
5.21592432375e-08
-5.11916312398e-08
9.82840292867e-08
-4.52296184956e-08
1.37987507271e-07
-3.90076865007e-08
1.71893132349e-07
-3.32858668278e-08
1.98638735463e-07
-2.62144892227e-08
2.18266807327e-07
-1.92233168657e-08
2.35467042375e-07
-1.68547744073e-08
2.59310503776e-07
-2.35310989792e-08
2.90040862326e-07
-3.04239725508e-08
3.20948142998e-07
-3.06217666666e-08
3.51265616769e-07
-3.00445515445e-08
3.83370842738e-07
-3.18564578637e-08
4.15344653359e-07
-3.17386043485e-08
4.46414815263e-07
-3.08605310736e-08
4.78406997132e-07
-3.18022398501e-08
5.14231815911e-07
-3.56736214132e-08
5.52276567157e-07
-3.79003460246e-08
5.89619606806e-07
-3.72100953691e-08
6.26067195624e-07
-3.62908108952e-08
6.64327353229e-07
-3.80945136055e-08
7.08538331096e-07
-4.40329542586e-08
7.5806988937e-07
-4.93657107616e-08
8.09047012643e-07
-5.08132602629e-08
8.59632131633e-07
-5.04415183272e-08
9.09449582533e-07
-4.9676614021e-08
9.58887771264e-07
-4.93143424036e-08
1.0087274297e-06
-4.9714368175e-08
1.05865842538e-06
-4.98212614939e-08
1.10825752102e-06
-4.94859855247e-08
1.15776977014e-06
-4.94134017995e-08
1.20797788158e-06
-5.01036394934e-08
1.25848391991e-06
-5.04146660944e-08
1.3089128725e-06
-5.03334651701e-08
1.36073250258e-06
-5.17310893776e-08
1.41380161575e-06
-5.29673715776e-08
1.4673810839e-06
-5.34866977773e-08
1.52137630994e-06
-5.38911417616e-08
1.57444998541e-06
-5.29744661419e-08
1.62560717488e-06
-5.10479006065e-08
1.67491411975e-06
-4.92086810563e-08
1.72324758977e-06
-4.82300696855e-08
1.76864945939e-06
-4.53119641664e-08
1.80853937069e-06
-3.97941652401e-08
1.84440322554e-06
-3.57761229705e-08
1.87774520543e-06
-3.32447498559e-08
1.90824182673e-06
-3.04065718634e-08
1.93550403522e-06
-2.71616560183e-08
1.95882989971e-06
-2.3230697472e-08
1.97814484476e-06
-1.9207811743e-08
1.99529276642e-06
-1.70436714925e-08
2.01257961548e-06
-1.716547807e-08
2.02726053375e-06
-1.45582235046e-08
2.03307546311e-06
-5.67425859139e-09
2.03193563918e-06
1.28943764073e-09
2.02327482396e-06
8.83441384416e-09
2.00511459317e-06
1.83505049577e-08
1.98747960777e-06
1.78696767367e-08
1.97464630856e-06
1.31145221768e-08
1.95825112956e-06
1.67446701193e-08
1.93877405499e-06
1.99074046219e-08
1.92566099803e-06
1.36547226819e-08
1.90733543851e-06
1.89948798511e-08
1.85316328465e-06
5.4962273344e-08
1.73938516285e-06
1.14516810077e-07
1.61013460634e-06
1.29802999774e-07
1.50767176422e-06
1.02845017788e-07
1.41055439288e-06
9.74550400767e-08
1.31050538506e-06
1.00404461708e-07
1.20142153101e-06
1.0948326853e-07
1.0769524717e-06
1.24906963416e-07
9.4371093523e-07
1.33696094588e-07
8.11631030278e-07
1.32517292655e-07
6.84839450101e-07
1.27196807207e-07
5.50170543305e-07
1.35051180125e-07
4.34323006531e-07
1.16188774449e-07
3.336931164e-07
1.00959288823e-07
2.62227956174e-07
7.18163618758e-08
1.82539452838e-07
8.00587042153e-08
1.1065290651e-07
7.22451361263e-08
1.11052494649e-07
2.79354256906e-08
-7.83514251582e-08
6.45129070785e-08
-8.10726553994e-08
9.99170627018e-08
-7.37670423092e-08
1.35891939308e-07
-6.87251051536e-08
1.79316527449e-07
-6.91893156348e-08
2.13064472769e-07
-5.25332854426e-08
2.36499777063e-07
-3.99207797046e-08
2.61864598582e-07
-4.85219433874e-08
2.90310063743e-07
-5.85410202704e-08
3.21174529248e-07
-6.11580676335e-08
3.52313747876e-07
-6.09084343094e-08
3.81823662309e-07
-6.1090777693e-08
4.11381237096e-07
-6.10768282984e-08
4.42204800929e-07
-6.1477493997e-08
4.74901731577e-07
-6.43496226253e-08
5.1158504605e-07
-7.21928757675e-08
5.4861352943e-07
-7.4801068656e-08
5.81175909119e-07
-6.9604162629e-08
6.14740469644e-07
-6.97008942395e-08
6.55137107444e-07
-7.82973381643e-08
7.02658115714e-07
-9.13810597266e-08
7.55103333399e-07
-1.01617966506e-07
8.07361791175e-07
-1.02923217874e-07
8.56721111359e-07
-9.96354604095e-08
9.05682050171e-07
-9.85128389075e-08
9.5610208794e-07
-9.95891889273e-08
1.00619813901e-06
-9.97023510402e-08
1.05574959006e-06
-9.92415850635e-08
1.10540389834e-06
-9.90443991346e-08
1.15531696391e-06
-9.92069674504e-08
1.20519757995e-06
-9.989933494e-08
1.25507058056e-06
-1.00180594324e-07
1.30488645677e-06
-1.0006885952e-07
1.3566016692e-06
-1.03338087172e-07
1.41101855346e-06
-1.07303726577e-07
1.4651832661e-06
-1.07535972111e-07
1.51891834277e-06
-1.07535795534e-07
1.57341851728e-06
-1.07357384218e-07
1.62775033616e-06
-1.05289383625e-07
1.67855249436e-06
-9.98948512415e-08
1.71937864019e-06
-8.89722437123e-08
1.75303313708e-06
-7.8861884021e-08
1.78858287522e-06
-7.52665750861e-08
1.82593757864e-06
-7.30287205686e-08
1.86186750528e-06
-6.90954538767e-08
1.89562527512e-06
-6.40609589908e-08
1.92623817867e-06
-5.76920040931e-08
1.95370530259e-06
-5.05913539989e-08
1.97751351733e-06
-4.29260944898e-08
1.99459578448e-06
-3.40111392582e-08
2.00233383289e-06
-2.48012053775e-08
2.00703019251e-06
-1.9126354832e-08
2.01975653359e-06
-1.82748161382e-08
2.02863647582e-06
-7.43336543441e-09
2.02430266148e-06
1.33320471608e-08
2.01873824082e-06
2.41200104293e-08
2.01168256639e-06
2.51587469499e-08
1.99846982136e-06
2.66232584289e-08
1.98427375426e-06
3.12967082803e-08
1.9673093817e-06
3.73224396037e-08
1.93394061552e-06
4.75547967599e-08
1.89489941896e-06
5.86897802841e-08
1.83225600479e-06
1.18356014341e-07
1.71759756639e-06
2.29888183505e-07
1.56395141976e-06
2.83941331889e-07
1.41222220844e-06
2.54937610891e-07
1.31981191531e-06
1.90177986834e-07
1.25363260272e-06
1.66928361184e-07
1.16659596314e-06
1.96904830484e-07
1.04837170617e-06
2.43560503952e-07
9.07712528159e-07
2.74793019674e-07
7.64394068007e-07
2.76248857126e-07
6.44484334345e-07
2.47500643135e-07
5.54043841827e-07
2.25890307689e-07
4.65144000811e-07
2.0547399088e-07
3.82211819566e-07
1.84281719772e-07
2.94958060856e-07
1.59458542587e-07
2.16750613364e-07
1.58678699234e-07
1.13649621963e-07
1.75943219261e-07
2.24945741388e-07
3.39789124756e-08
-1.11947380184e-07
5.27056460191e-08
-9.91870902205e-08
9.3188218707e-08
-1.13640176758e-07
1.39230762538e-07
-1.14249310606e-07
1.82471899027e-07
-1.1199039248e-07
2.06646501838e-07
-7.63378260225e-08
2.22804044023e-07
-5.5674331796e-08
2.50190834936e-07
-7.5475117256e-08
2.81615182416e-07
-8.95630967182e-08
3.13337302269e-07
-9.25322681273e-08
3.44712578075e-07
-9.19737028917e-08
3.74497087515e-07
-9.06308789441e-08
4.03764692713e-07
-9.01482792382e-08
4.3486695432e-07
-9.24192932679e-08
4.6556691093e-07
-9.48974533545e-08
4.85332241809e-07
-9.18160883314e-08
4.97932498807e-07
-8.72422490274e-08
5.23549860166e-07
-9.50606753017e-08
5.69650926818e-07
-1.15617272109e-07
6.33000998061e-07
-1.41461394593e-07
6.97814351706e-07
-1.56004655961e-07
7.50977606413e-07
-1.54613284639e-07
7.99288111556e-07
-1.51068044523e-07
8.49695510929e-07
-1.49899449459e-07
9.00462730371e-07
-1.49136707717e-07
9.49834282693e-07
-1.4883621069e-07
9.99074708291e-07
-1.4881504897e-07
1.04882675726e-06
-1.4888293164e-07
1.09875548097e-06
-1.48858801683e-07
1.14904517049e-06
-1.49399404886e-07
1.19872956272e-06
-1.49482810536e-07
1.24867877536e-06
-1.50039026892e-07
1.29993869944e-06
-1.51234282804e-07
1.34991713581e-06
-1.53227569722e-07
1.40287531724e-06
-1.60155748759e-07
1.46102682279e-06
-1.65589647376e-07
1.51632872757e-06
-1.62729415838e-07
1.56960318151e-06
-1.60531465045e-07
1.62478821485e-06
-1.60366149876e-07
1.67749772945e-06
-1.52509628909e-07
1.72578796514e-06
-1.37162845167e-07
1.77003530402e-06
-1.23021389138e-07
1.80975267003e-06
-1.14889126464e-07
1.84604410654e-06
-1.09235209273e-07
1.87965459236e-06
-1.02613311197e-07
1.91025634528e-06
-9.45779295158e-08
1.93790420117e-06
-8.52462068112e-08
1.96239160875e-06
-7.49901703276e-08
1.98341508219e-06
-6.38505230302e-08
2.00125871718e-06
-5.17584176222e-08
2.01648238943e-06
-3.99156989238e-08
2.0275955555e-06
-3.01265840748e-08
2.02952928296e-06
-2.00781844267e-08
2.02572242816e-06
-3.48450915255e-09
2.02476940003e-06
1.445577588e-08
2.02305275243e-06
2.60350063253e-08
2.01453406894e-06
3.39226268503e-08
2.00015813351e-06
4.12944301393e-08
1.98231979886e-06
4.94988517466e-08
1.96021453744e-06
5.98626654829e-08
1.93240012311e-06
7.58954789182e-08
1.87270752331e-06
1.19004805709e-07
1.74286923918e-06
2.48862320326e-07
1.55999094244e-06
4.13345680269e-07
1.41672612664e-06
4.27665466441e-07
1.35088787817e-06
3.21114215307e-07
1.2739589674e-06
2.67426609288e-07
1.17347080911e-06
2.67736801712e-07
1.06210580684e-06
3.08626243683e-07
9.37459206369e-07
3.68602363202e-07
8.17199493827e-07
3.95463744081e-07
7.23474869219e-07
3.70389295473e-07
6.41301243331e-07
3.30093455954e-07
5.55711067252e-07
3.11879586451e-07
4.54770280439e-07
3.06794369518e-07
3.53081201306e-07
2.86347268348e-07
2.66996881692e-07
2.45946207583e-07
2.02360994513e-07
2.23725755853e-07
8.728230876e-08
2.91350680126e-07
3.12471504745e-07
2.34885052796e-08
-1.34753535799e-07
3.26184391414e-08
-1.0788970395e-07
7.61361057299e-08
-1.56633644035e-07
1.13472531616e-07
-1.51124224037e-07
1.20516848268e-07
-1.18672218706e-07
1.11288299488e-07
-6.68852348511e-08
1.53993151173e-07
-9.80296575018e-08
2.18734545394e-07
-1.39726977179e-07
2.64239420232e-07
-1.346342766e-07
2.99688092516e-07
-1.27611305587e-07
3.3293403798e-07
-1.24935817265e-07
3.64065022061e-07
-1.21549370498e-07
3.91775285949e-07
-1.17689865126e-07
4.08714533672e-07
-1.09216603671e-07
4.17276156826e-07
-1.03313521852e-07
4.33803714264e-07
-1.08171065306e-07
4.70834462627e-07
-1.24090036183e-07
5.27623046375e-07
-1.5165273488e-07
5.92438963832e-07
-1.80239374041e-07
6.47273670643e-07
-1.96107908124e-07
6.92735911228e-07
-2.01292379956e-07
7.40750827791e-07
-2.02456829012e-07
7.90887610541e-07
-2.01049755407e-07
8.40304538844e-07
-1.99167531059e-07
8.89387132415e-07
-1.98086788346e-07
9.38507751512e-07
-1.97826990671e-07
9.88332915714e-07
-1.98523910776e-07
1.03845770655e-06
-1.9889056156e-07
1.08900083088e-06
-1.99297712497e-07
1.13905197927e-06
-1.99348922224e-07
1.1900094022e-06
-2.00348490289e-07
1.23939234676e-06
-1.99331357757e-07
1.2883883864e-06
-2.00137879709e-07
1.34473160679e-06
-2.09468757623e-07
1.4014900196e-06
-2.16815301145e-07
1.45755845286e-06
-2.215512034e-07
1.51884459518e-06
-2.23912498405e-07
1.57785845618e-06
-2.19440125874e-07
1.62943448091e-06
-2.11845533611e-07
1.67741518671e-06
-2.00390714573e-07
1.72462561031e-06
-1.84280255939e-07
1.76988281346e-06
-1.68184094968e-07
1.81107136356e-06
-1.55991592413e-07
1.84817758834e-06
-1.46253810632e-07
1.88193113959e-06
-1.36285291549e-07
1.91255178161e-06
-1.25113397515e-07
1.94009422928e-06
-1.12706712461e-07
1.96445429885e-06
-9.92624062565e-08
1.98553373972e-06
-8.4842935152e-08
2.00345060244e-06
-6.95809093091e-08
2.01787538766e-06
-5.424435518e-08
2.02718314874e-06
-3.93281081346e-08
2.03025506178e-06
-2.30335995405e-08
2.03035207422e-06
-3.44245559417e-09
2.02914350782e-06
1.5827844791e-08
2.0240870362e-06
3.12938266801e-08
2.01362907357e-06
4.46233853315e-08
1.99724075333e-06
5.79813639254e-08
1.97385764662e-06
7.32390168902e-08
1.93944291819e-06
9.47006985741e-08
1.88140015499e-06
1.34427325822e-07
1.77851087535e-06
2.22443164442e-07
1.64731090365e-06
3.80634982801e-07
1.52660726984e-06
5.34594022004e-07
1.39284657007e-06
5.6185287954e-07
1.26414145374e-06
4.5016755398e-07
1.16333423211e-06
3.68517563427e-07
1.07581072298e-06
3.55577493784e-07
9.90743420216e-07
3.94052496406e-07
8.98558982721e-07
4.61200520146e-07
7.95808190441e-07
4.98663159542e-07
6.89699916871e-07
4.76946191589e-07
5.79429640254e-07
4.40757018407e-07
4.70001438587e-07
4.21654847553e-07
3.68840973163e-07
4.08294009015e-07
2.6514793941e-07
3.9039127461e-07
1.75310452863e-07
3.36060935991e-07
1.17710922199e-07
2.81537662336e-07
6.06147462489e-08
3.48801163547e-07
3.73164930561e-07
4.34996584823e-09
-1.38955584501e-07
2.69864781208e-08
-1.30201639095e-07
6.04265378573e-08
-1.8968093005e-07
8.76361909558e-08
-1.78017931478e-07
8.53712055887e-08
-1.16128599851e-07
1.105796158e-07
-9.17968693685e-08
1.63176696845e-07
-1.50195204134e-07
2.03136241994e-07
-1.79241397896e-07
2.40782171312e-07
-1.71856354353e-07
2.78130175164e-07
-1.6462432612e-07
3.14787869355e-07
-1.61352974961e-07
3.40621408497e-07
-1.4719575984e-07
3.49710279267e-07
-1.26634541649e-07
3.59319088144e-07
-1.18664591605e-07
3.87582978397e-07
-1.31380306724e-07
4.34587594593e-07
-1.54962824115e-07
4.92865921374e-07
-1.8215028572e-07
5.48390049542e-07
-2.06968683707e-07
5.92159300644e-07
-2.23816762467e-07
6.32794865578e-07
-2.36565774428e-07
6.78741635406e-07
-2.47067434418e-07
7.27519134934e-07
-2.5107250964e-07
7.76698537297e-07
-2.50075509351e-07
8.25564250946e-07
-2.47893672001e-07
8.74442663982e-07
-2.46832553756e-07
9.24091275524e-07
-2.47355212868e-07
9.73762172704e-07
-2.4807424919e-07
1.02462275762e-06
-2.49642140728e-07
1.07474700804e-06
-2.49320594233e-07
1.12540741497e-06
-2.49916572781e-07
1.17394171958e-06
-2.48791774376e-07
1.22634297392e-06
-2.51639529505e-07
1.28448171414e-06
-2.58178245395e-07
1.34053002505e-06
-2.65414280577e-07
1.40017562225e-06
-2.76352918781e-07
1.46313164828e-06
-2.84402806145e-07
1.52169262773e-06
-2.82370627535e-07
1.57656025965e-06
-2.74210385793e-07
1.62801881207e-06
-2.63206381371e-07
1.67695803267e-06
-2.49236066867e-07
1.72471206753e-06
-2.31940690301e-07
1.77056783962e-06
-2.13951846501e-07
1.81277242058e-06
-1.98110111382e-07
1.85078221929e-06
-1.84183565506e-07
1.88501779166e-06
-1.70442003231e-07
1.91583386076e-06
-1.55854106171e-07
1.94337187058e-06
-1.40167631148e-07
1.96760886248e-06
-1.23423014627e-07
1.98849383088e-06
-1.05648086893e-07
2.00595002942e-06
-8.69565297149e-08
2.01947589716e-06
-6.76847275697e-08
2.02806288838e-06
-4.78230149123e-08
2.03163032254e-06
-2.64938019929e-08
2.03193584745e-06
-3.61997890095e-09
2.02940222047e-06
1.85218777596e-08
2.02212534744e-06
3.87653104185e-08
2.00799285995e-06
5.89987310383e-08
1.98438413484e-06
8.18806486655e-08
1.94681539979e-06
1.11153623831e-07
1.8872636227e-06
1.54649454155e-07
1.79516297229e-06
2.26974640401e-07
1.67437046122e-06
3.43723878356e-07
1.56304229318e-06
4.92451700671e-07
1.4709415623e-06
6.27157910621e-07
1.37756653044e-06
6.55680327393e-07
1.25279174044e-06
5.7526155166e-07
1.11528212548e-06
5.06374223906e-07
9.97592289433e-07
4.7361423414e-07
9.03443199592e-07
4.88599106926e-07
8.14795937085e-07
5.50300094834e-07
7.11280978536e-07
6.0266966698e-07
6.01551160251e-07
5.87108623015e-07
4.96025389336e-07
5.46639050897e-07
3.91041061468e-07
5.26963616902e-07
2.86834676437e-07
5.12821742507e-07
1.92635427073e-07
4.84876562244e-07
1.37104440894e-07
3.91832990224e-07
8.45935720709e-08
3.34275215135e-07
3.30697591706e-08
4.00448525578e-07
4.06391549218e-07
1.30855554231e-09
-1.39864831574e-07
3.04636404566e-08
-1.59063368069e-07
4.78051083239e-08
-2.06711544028e-07
6.06475122618e-08
-1.90541090579e-07
6.06372455761e-08
-1.15885561953e-07
1.12796737887e-07
-1.43608948646e-07
1.6114208162e-07
-1.98110505872e-07
1.86818257255e-07
-2.04488425871e-07
2.17997660769e-07
-2.02685531859e-07
2.5065878107e-07
-1.96999070787e-07
2.74909588104e-07
-1.85377311023e-07
2.7571588498e-07
-1.47856051182e-07
2.86117994099e-07
-1.36869923827e-07
3.18965962078e-07
-1.51307608411e-07
3.69123147653e-07
-1.81302185903e-07
4.31062338518e-07
-2.16654555683e-07
4.88319873865e-07
-2.39179975981e-07
5.30627959378e-07
-2.49079822854e-07
5.69406304769e-07
-2.62414356266e-07
6.15218135833e-07
-2.82203834958e-07
6.62729378868e-07
-2.94413047614e-07
7.09817873976e-07
-2.98003940519e-07
7.57944469632e-07
-2.98055947468e-07
8.07204728877e-07
-2.97015224851e-07
8.56429396352e-07
-2.95930665847e-07
9.03966777294e-07
-2.94771838973e-07
9.54809673803e-07
-2.98806801775e-07
1.00516802408e-06
-2.99896699845e-07
1.05633025017e-06
-3.00384112281e-07
1.10329071672e-06
-2.96784186062e-07
1.15423162035e-06
-2.99641511309e-07
1.20916270357e-06
-3.06474955109e-07
1.26636780664e-06
-3.15280942497e-07
1.33427344823e-06
-3.33211885197e-07
1.40220877765e-06
-3.44180472418e-07
1.46316670699e-06
-3.45257613706e-07
1.51980601231e-06
-3.38912322177e-07
1.57410709684e-06
-3.28416495721e-07
1.62629150118e-06
-3.15298444488e-07
1.67653374099e-06
-2.99386472495e-07
1.72522473441e-06
-2.8054240509e-07
1.77178893273e-06
-2.60429801019e-07
1.81490362781e-06
-2.41144473373e-07
1.85386463438e-06
-2.23068882811e-07
1.88877890832e-06
-2.05285323414e-07
1.91994226894e-06
-1.86948446742e-07
1.9475263241e-06
-1.67684714353e-07
1.97154831909e-06
-1.47378170141e-07
1.99194872079e-06
-1.25982110074e-07
2.00858270794e-06
-1.03523376169e-07
2.02105458983e-06
-8.00876167795e-08
2.02888180202e-06
-5.55730127081e-08
2.03221894188e-06
-2.97383814727e-08
2.03171471076e-06
-2.99618605898e-09
2.02668536894e-06
2.37039927219e-08
2.01465028017e-06
5.09927216659e-08
1.99218224675e-06
8.16967509548e-08
1.95459024996e-06
1.19752662125e-07
1.89541600845e-06
1.70650696315e-07
1.80833064118e-06
2.42103773054e-07
1.69343884079e-06
3.42273336397e-07
1.56807881914e-06
4.69506638084e-07
1.46918824223e-06
5.91776050719e-07
1.37133725331e-06
7.25494201606e-07
1.25823651181e-06
7.69125098661e-07
1.1546077247e-06
6.79297658196e-07
1.03420718006e-06
6.27113828726e-07
9.15984901296e-07
5.92214896135e-07
8.18893343372e-07
5.8610398244e-07
7.24883437335e-07
6.44775463537e-07
6.19259764153e-07
7.08748200722e-07
5.23816234005e-07
6.82916430881e-07
4.19999331057e-07
6.50765124908e-07
3.12893382551e-07
6.34366244287e-07
2.14539665906e-07
6.11458587308e-07
1.500268217e-07
5.49647823908e-07
9.87552651575e-08
4.43287039802e-07
5.27132966391e-08
3.80457896159e-07
2.25742106933e-08
4.3087635976e-07
4.29007518264e-07
1.04996900033e-08
-1.50266797304e-07
4.13591876671e-08
-1.89672635996e-07
5.41514705643e-08
-2.19261427613e-07
4.5563056645e-08
-1.81691294975e-07
6.66561824377e-08
-1.36686620623e-07
1.20094691961e-07
-1.9664882679e-07
1.45984255412e-07
-2.23583908995e-07
1.67662915507e-07
-2.25825813829e-07
1.90832948847e-07
-2.25530587094e-07
2.22794068323e-07
-2.28727955779e-07
2.2682754724e-07
-1.89232063097e-07
2.32725975651e-07
-1.53584133639e-07
2.63198198741e-07
-1.67131939741e-07
3.04666429843e-07
-1.92525445868e-07
3.63091509615e-07
-2.39459176759e-07
4.20694219395e-07
-2.74012960595e-07
4.61373270556e-07
-2.79648755427e-07
4.98326395955e-07
-2.85841952207e-07
5.45731578708e-07
-3.09636262895e-07
5.94522301025e-07
-3.30822141868e-07
6.4090399366e-07
-3.40634010572e-07
6.87848958055e-07
-3.44799330059e-07
7.36300267102e-07
-3.46362219993e-07
7.84001668508e-07
-3.44585058363e-07
8.31055945662e-07
-3.42864376766e-07
8.79558744427e-07
-3.43159320951e-07
9.285317662e-07
-3.47671054408e-07
9.80045384087e-07
-3.51307869916e-07
1.02880021311e-06
-3.49044338377e-07
1.07710100767e-06
-3.44993068445e-07
1.13426104006e-06
-3.5670413635e-07
1.19433133247e-06
-3.66446033299e-07
1.26180415126e-06
-3.82647708159e-07
1.33055706231e-06
-4.01856592206e-07
1.39785715015e-06
-4.11376372142e-07
1.45870802584e-06
-4.06009792123e-07
1.51564655008e-06
-3.95756057773e-07
1.57081090728e-06
-3.83489145327e-07
1.62440984e-06
-3.68807179815e-07
1.67620826691e-06
-3.51096773047e-07
1.72612724822e-06
-3.30375889638e-07
1.77363898978e-06
-3.07860950248e-07
1.81772852561e-06
-2.85158853749e-07
1.85767953439e-06
-2.62950897579e-07
1.89337298842e-06
-2.40914469188e-07
1.92495744318e-06
-2.18473094589e-07
1.95254918479e-06
-1.95220081704e-07
1.97615628254e-06
-1.70932010125e-07
1.9957308442e-06
-1.45506261881e-07
2.01117780268e-06
-1.18922013531e-07
2.0223044077e-06
-9.11630613266e-08
2.02892377788e-06
-6.21320305264e-08
2.03101664201e-06
-3.17496645283e-08
2.0281790612e-06
-4.58335820661e-11
2.01845954115e-06
3.35698181462e-08
1.99815166992e-06
7.14736071672e-08
1.96257726476e-06
1.17487144617e-07
1.90691933508e-06
1.75664927789e-07
1.82792569183e-06
2.49950441472e-07
1.72697322526e-06
3.43400359223e-07
1.61616791918e-06
4.53454366377e-07
1.51535617395e-06
5.70716035604e-07
1.41341899002e-06
6.94152127901e-07
1.30674058923e-06
8.32508251327e-07
1.16387091638e-06
9.12491697956e-07
1.05047667516e-06
7.92995547841e-07
9.60683580646e-07
7.17289176563e-07
8.57069891931e-07
6.96199680571e-07
7.48531687137e-07
6.95036557198e-07
6.42115402353e-07
7.51589997706e-07
5.52474402016e-07
7.98723626593e-07
4.59694841751e-07
7.75975672622e-07
3.46624099554e-07
7.64090812103e-07
2.38439925796e-07
7.42800169108e-07
1.53768841141e-07
6.96373172215e-07
1.10259793248e-07
5.93356492927e-07
5.69017703603e-08
4.96840015367e-07
1.51650199728e-08
4.22407660335e-07
7.71019672452e-09
4.3841017932e-07
4.36869450391e-07
1.86934110168e-08
-1.68541742937e-07
4.23573759207e-08
-2.13066365312e-07
4.79838588164e-08
-2.24590072912e-07
3.09696049231e-08
-1.64450679763e-07
6.85778149206e-08
-1.73990987734e-07
1.07337481975e-07
-2.35011980472e-07
1.27085378759e-07
-2.42997117129e-07
1.48190583998e-07
-2.46615117718e-07
1.57894810564e-07
-2.3501100598e-07
1.76527925272e-07
-2.47120665284e-07
1.75126053975e-07
-1.87659893629e-07
2.06421500149e-07
-1.84665895515e-07
2.41244888134e-07
-2.01708228342e-07
2.92343186136e-07
-2.43356785449e-07
3.48773718884e-07
-2.95617906032e-07
3.89530042518e-07
-3.14530879054e-07
4.22861065479e-07
-3.12779606398e-07
4.69431639306e-07
-3.3222241249e-07
5.20421037684e-07
-3.60442806743e-07
5.67392548291e-07
-3.77624851182e-07
6.13165260532e-07
-3.86250118422e-07
6.5980184611e-07
-3.91283740791e-07
7.092577504e-07
-3.956821309e-07
7.58646851984e-07
-3.93852356442e-07
8.03783046142e-07
-3.87879402152e-07
8.55174604056e-07
-3.94441448571e-07
9.03223838943e-07
-3.95615913843e-07
9.50330603652e-07
-3.98315587093e-07
9.98893896026e-07
-3.97512494994e-07
1.06379934378e-06
-4.098001955e-07
1.12338374852e-06
-4.16189321906e-07
1.18303682665e-06
-4.25992721667e-07
1.25343868089e-06
-4.52942960309e-07
1.32624493109e-06
-4.74557598677e-07
1.3902719358e-06
-4.75302557581e-07
1.45086787199e-06
-4.66509971862e-07
1.50964823085e-06
-4.54444529309e-07
1.56680006647e-06
-4.40552161809e-07
1.62230629595e-06
-4.24226839291e-07
1.67593781231e-06
-4.0464417295e-07
1.72740162911e-06
-3.81759012809e-07
1.77616603582e-06
-3.56549805402e-07
1.82141764447e-06
-3.30341348405e-07
1.86246516345e-06
-3.03935798832e-07
1.89901409114e-06
-2.77407284975e-07
1.93102800478e-06
-2.50437072395e-07
1.95850268896e-06
-2.22650473754e-07
1.98140386102e-06
-1.93795245071e-07
1.99972198482e-06
-1.63791164514e-07
2.01348427883e-06
-1.32655363468e-07
2.02270034485e-06
-1.00347490031e-07
2.02728981855e-06
-6.66762695848e-08
2.0268239423e-06
-3.12158466476e-08
2.01978393845e-06
7.10711187298e-09
2.00276131374e-06
5.07196667948e-08
1.97088781019e-06
1.03515313462e-07
1.92001395805e-06
1.68558902165e-07
1.84918530611e-06
2.46720661002e-07
1.76068519829e-06
3.38719855417e-07
1.65928975845e-06
4.45111274503e-07
1.55722285592e-06
5.55874891926e-07
1.46350568867e-06
6.64823329552e-07
1.37604238366e-06
7.81965563853e-07
1.30420180929e-06
9.04862836763e-07
1.18075854071e-06
1.03624597421e-06
9.8504705413e-07
9.89181814529e-07
8.57811860023e-07
8.44825813968e-07
7.55633254234e-07
7.98662308047e-07
6.54576805455e-07
7.96277534038e-07
5.73751936481e-07
8.32654064006e-07
5.01678665507e-07
8.71036930398e-07
3.9533240631e-07
8.82535452755e-07
2.72567081765e-07
8.87066910028e-07
1.64823834329e-07
8.50758843626e-07
9.71058200641e-08
7.64300346881e-07
4.88823123192e-08
6.41783852759e-07
2.25064936701e-09
5.43647204479e-07
-3.33439087026e-08
4.58133281752e-07
-2.2839117909e-08
4.28195834333e-07
4.14079235127e-07
2.19361144889e-08
-1.90382745218e-07
3.62845020315e-08
-2.27162660296e-07
3.22575325507e-08
-2.203610353e-07
3.51634813999e-08
-1.67116003098e-07
7.38919239727e-08
-2.124076018e-07
8.91866388289e-08
-2.49986404698e-07
1.06224615117e-07
-2.5975969897e-07
1.25955534738e-07
-2.66105663935e-07
1.32241465181e-07
-2.41059229676e-07
1.4357932508e-07
-2.58250173907e-07
1.57123981994e-07
-2.00991321177e-07
1.85779450032e-07
-2.13084988377e-07
2.22358965077e-07
-2.38013368542e-07
2.7641923422e-07
-2.97125992876e-07
3.23716389184e-07
-3.42660776429e-07
3.54004608423e-07
-3.44603664656e-07
3.90819077216e-07
-3.49393788042e-07
4.39295595989e-07
-3.80504609119e-07
4.8837006194e-07
-4.09335928328e-07
5.35371656502e-07
-4.24455594188e-07
5.81719542617e-07
-4.32432900878e-07
6.27048995233e-07
-4.36469518553e-07
6.73445735513e-07
-4.41955240718e-07
7.21605568284e-07
-4.41891961943e-07
7.66644520908e-07
-4.3281116985e-07
8.16203216164e-07
-4.43893542785e-07
8.68751732451e-07
-4.48060669934e-07
9.24408814244e-07
-4.53876615444e-07
9.82646309125e-07
-4.55656060799e-07
1.04012583714e-06
-4.67179522085e-07
1.10253360923e-06
-4.78489018279e-07
1.17821852689e-06
-5.01567373615e-07
1.25035895729e-06
-5.2497408877e-07
1.31561064415e-06
-5.39705715927e-07
1.37895517223e-06
-5.38550489913e-07
1.44127205761e-06
-5.28734493179e-07
1.50242025457e-06
-5.15503591113e-07
1.56201413296e-06
-5.00059432604e-07
1.6198311534e-06
-4.819602356e-07
1.67563584951e-06
-4.60368491724e-07
1.72903466161e-06
-4.35082168122e-07
1.77944260755e-06
-4.06888005489e-07
1.82613880157e-06
-3.7697451339e-07
1.86846212207e-06
-3.46203797162e-07
1.90596590602e-06
-3.14863916362e-07
1.93838792935e-06
-2.8282031109e-07
1.96555311213e-06
-2.4978665766e-07
1.9873641898e-06
-2.15584977988e-07
2.00385777883e-06
-1.80274180773e-07
2.01521740567e-06
-1.44008478149e-07
2.02164582882e-06
-1.06761211203e-07
2.0230716094e-06
-6.80762459568e-08
2.01859424184e-06
-2.66526203403e-08
2.00553981877e-06
2.02603923688e-08
1.97914519617e-06
7.72562503462e-08
1.93394973381e-06
1.48860880158e-07
1.86914267923e-06
2.33509224861e-07
1.79067269402e-06
3.25390878759e-07
1.70217534142e-06
4.27460516102e-07
1.59910852764e-06
5.48476597091e-07
1.49314939051e-06
6.62177470636e-07
1.40344265037e-06
7.54882390274e-07
1.33416307968e-06
8.51668877564e-07
1.27951341831e-06
9.59794424044e-07
1.22774671986e-06
1.08854154346e-06
1.03207949236e-06
1.18509507645e-06
7.7408575485e-07
1.10295989123e-06
6.61576610242e-07
9.11029698073e-07
5.86282995764e-07
8.71520119214e-07
5.33387554505e-07
8.85512422038e-07
4.5774686271e-07
9.46736864149e-07
3.32988876846e-07
1.00740812869e-06
1.96758451878e-07
1.02344386825e-06
8.51691329345e-08
9.62524166638e-07
2.03979774635e-08
8.29250885631e-07
-3.90156149284e-08
7.01369358998e-07
-7.8995146629e-08
5.83818716862e-07
-9.34802929784e-08
4.72846316341e-07
-6.058289954e-08
3.95380760153e-07
3.53636620848e-07
2.24907554296e-08
-2.12388583907e-07
3.3673212878e-08
-2.38020606131e-07
2.24328904074e-08
-2.0885472247e-07
3.62328806088e-08
-1.8068940557e-07
6.56844135156e-08
-2.4157606586e-07
7.10164320326e-08
-2.55077091277e-07
8.32932726932e-08
-2.7176569001e-07
9.39697112101e-08
-2.76578690892e-07
1.10144386035e-07
-2.57029462686e-07
1.06717700616e-07
-2.54595822418e-07
1.31168668188e-07
-2.25220635221e-07
1.63150265267e-07
-2.44803126345e-07
1.99895595419e-07
-2.7449428831e-07
2.46757749354e-07
-3.43711948687e-07
2.82786719971e-07
-3.78439484236e-07
3.07992161103e-07
-3.6960102259e-07
3.51513181056e-07
-3.92712904926e-07
4.01675418216e-07
-4.30470760137e-07
4.50009029818e-07
-4.57485054068e-07
4.98132545267e-07
-4.72407175411e-07
5.46365514432e-07
-4.80516975938e-07
5.93294761179e-07
-4.83263038643e-07
6.36480991235e-07
-4.85007475007e-07
6.82662226414e-07
-4.87960523521e-07
7.33590573503e-07
-4.83634980821e-07
7.8022511557e-07
-4.90419871879e-07
8.30349015871e-07
-4.98091130009e-07
8.79288601809e-07
-5.02724564319e-07
9.45023173367e-07
-5.21290893559e-07
1.01299719019e-06
-5.35050962703e-07
1.08517210107e-06
-5.50552535253e-07
1.15768463762e-06
-5.73965245918e-07
1.23373420235e-06
-6.00913300911e-07
1.30161836104e-06
-6.07489922243e-07
1.36604448946e-06
-6.02882562561e-07
1.43028117639e-06
-5.92880827e-07
1.4940325889e-06
-5.79167454152e-07
1.55641916558e-06
-5.62362199383e-07
1.61694069832e-06
-5.424015102e-07
1.675292683e-06
-5.18644920901e-07
1.73103520585e-06
-4.90754256508e-07
1.78353024079e-06
-4.59318958222e-07
1.83205491793e-06
-4.25443018858e-07
1.87592433172e-06
-3.90026429235e-07
1.91454189651e-06
-3.53445067771e-07
1.94738437218e-06
-3.15637943058e-07
1.97402933787e-06
-2.76417400279e-07
1.99426559153e-06
-2.35819088845e-07
2.00818733792e-06
-1.94204028608e-07
2.01616140746e-06
-1.51984920671e-07
2.01859910271e-06
-1.09212559579e-07
2.0155339241e-06
-6.49553949078e-08
2.00568692518e-06
-1.67257363135e-08
1.98556571032e-06
4.04869636119e-08
1.94928526441e-06
1.13625675099e-07
1.89089134203e-06
2.07340820317e-07
1.81531845469e-06
3.09257528887e-07
1.73698586012e-06
4.03799892096e-07
1.65316392662e-06
5.11462578058e-07
1.53295582673e-06
6.68965740016e-07
1.40467294856e-06
7.90870043921e-07
1.31701915573e-06
8.43009743067e-07
1.26285711027e-06
9.06229130772e-07
1.23128636741e-06
9.9190728558e-07
1.21683456874e-06
1.10329862356e-06
1.15620586829e-06
1.24597675485e-06
8.76072309331e-07
1.38295160519e-06
5.77261561099e-07
1.20952124545e-06
5.12812136766e-07
9.35546852316e-07
5.0724259551e-07
8.90912990293e-07
4.2452581202e-07
1.02948425019e-06
2.75179033154e-07
1.15689254678e-06
1.16537606519e-07
1.1822857291e-06
-1.18756144508e-08
1.09115859959e-06
-8.09696428539e-08
8.98549348205e-07
-1.48342951342e-07
7.68944342361e-07
-1.8123852132e-07
6.16866949525e-07
-1.59922886893e-07
4.51657350113e-07
-9.44258429483e-08
3.3015127349e-07
2.59256897689e-07
1.78540629472e-08
-2.30201919777e-07
2.62148478538e-08
-2.46226279545e-07
1.89639693852e-08