/*--------------------------------*- C++ -*----------------------------------*\
| =========                 |                                                 |
| \\      /  F ield         | OpenFOAM: The Open Source CFD Toolbox           |
|  \\    /   O peration     | Version:  v1806                                 |
|   \\  /    A nd           | Web:      www.OpenFOAM.com                      |
|    \\/     M anipulation  |                                                 |
\*---------------------------------------------------------------------------*/
FoamFile
{
    version     2.0;
    format      ascii;
    class       surfaceScalarField;
    location    "365";
    object      phi;
}
// * * * * * * * * * * * * * * * * * * * * * * * * * * * * * * * * * * * * * //

dimensions      [0 3 -1 0 0 0 0];
oriented        oriented;


internalField   nonuniform List<scalar> 
12640
(
-1.89284906263e-07
1.8933205697e-07
-3.63912609622e-07
1.74646797535e-07
-5.18536041286e-07
1.54631597191e-07
-6.48323496736e-07
1.29782230374e-07
-7.40225502452e-07
9.18991710462e-08
-7.91778197762e-07
5.15707988338e-08
-8.23255631567e-07
3.14980988931e-08
-8.8146809321e-07
5.82294922397e-08
-9.68524077406e-07
8.70652356526e-08
-1.04876381466e-06
8.02428847771e-08
-1.1218728093e-06
7.31018514013e-08
-1.2011865634e-06
7.93035662805e-08
-1.2710428898e-06
6.98418617738e-08
-1.32486846663e-06
5.38113011301e-08
-1.37121427966e-06
4.63333326718e-08
-1.42655934395e-06
5.53427398763e-08
-1.48380357593e-06
5.72411477183e-08
-1.52760872293e-06
4.38035539019e-08
-1.55512890698e-06
2.75053163966e-08
-1.57537567624e-06
2.02225402887e-08
-1.61066036337e-06
3.52524805305e-08
-1.66498897172e-06
5.42963129879e-08
-1.72473372814e-06
5.97098805088e-08
-1.78256028242e-06
5.7795273543e-08
-1.83439464963e-06
5.18027102609e-08
-1.87934059634e-06
4.49180164481e-08
-1.92092839126e-06
4.15583156924e-08
-1.95716097737e-06
3.62073555815e-08
-1.9859411481e-06
2.87528664026e-08
-2.00873746895e-06
2.27735189188e-08
-2.0303795822e-06
2.16166773539e-08
-2.04902133238e-06
1.86202907921e-08
-2.06068016844e-06
1.16392462059e-08
-2.07186799082e-06
1.11697329745e-08
-2.0821389569e-06
1.02480980994e-08
-2.09001779389e-06
7.86064797972e-09
-2.10002593331e-06
9.98662015023e-09
-2.10882121881e-06
8.77261071081e-09
-2.1127175051e-06
3.87063616487e-09
-2.11591261038e-06
3.17224468792e-09
-2.13029708289e-06
1.4361048111e-08
-2.14514786618e-06
1.48319257986e-08
-2.14013572636e-06
-5.03121833404e-09
-2.12176002107e-06
-1.83943709387e-08
-2.09714443044e-06
-2.4636876713e-08
-2.06523007695e-06
-3.19349180357e-08
-2.02569859244e-06
-3.9554047495e-08
-1.97665019997e-06
-4.90697985401e-08
-1.91851691852e-06
-5.81559221218e-08
-1.85957012688e-06
-5.89688634666e-08
-1.80835381756e-06
-5.12417813804e-08
-1.75028422382e-06
-5.80984610559e-08
-1.65427025005e-06
-9.60505803903e-08
-1.52975616622e-06
-1.24563919245e-07
-1.38582053404e-06
-1.43999782491e-07
-1.21279038957e-06
-1.73111500861e-07
-1.03528024284e-06
-1.77617586045e-07
-8.60544989706e-07
-1.74883581197e-07
-6.62622641085e-07
-1.98119903433e-07
-4.42372322041e-07
-2.20510557076e-07
-2.0428130365e-07
-2.3842014372e-07
4.86162656439e-08
-2.53326385064e-07
3.59126283234e-07
-3.11023146718e-07
5.69152896338e-07
-2.10397813942e-07
6.85196179845e-07
-1.16295981786e-07
7.57327153057e-07
-7.23236028336e-08
8.03140319554e-07
-4.60003670714e-08
8.35362289676e-07
-3.24314256494e-08
8.54613800539e-07
-1.94974342349e-08
8.56429401036e-07
-2.09124324789e-09
8.38997385846e-07
1.71380008268e-08
8.01687993059e-07
3.70189496144e-08
7.43455076243e-07
5.79556220654e-08
6.54351396312e-07
8.88341384107e-08
5.59428553678e-07
9.46745320718e-08
4.61082875278e-07
9.8101637155e-08
3.82564773423e-07
7.82609374561e-08
2.77787429007e-07
1.04550189489e-07
1.71639730549e-07
1.05759109483e-07
1.71397167815e-07
-9.56805082932e-08
2.84998410947e-07
-2.22007721651e-07
3.00975538081e-07
-3.44483818015e-07
2.7709921112e-07
-4.74285927103e-07
2.59575695095e-07
-6.4522678402e-07
2.62848354775e-07
-7.79663371298e-07
1.86013462503e-07
-8.55155269048e-07
1.07007196366e-07
-9.22243776179e-07
1.25326109102e-07
-9.94562265941e-07
1.59390182236e-07
-1.07549345382e-06
1.61166803445e-07
-1.15305144762e-06
1.50653800577e-07
-1.2150308459e-06
1.41266513848e-07
-1.27029612812e-06
1.2509828583e-07
-1.3234498703e-06
1.0695672973e-07
-1.37439123611e-06
9.72796139618e-08
-1.43255601139e-06
1.13505615973e-07
-1.48211450449e-06
1.06804419273e-07
-1.49596719198e-06
5.76415708413e-08
-1.50375373064e-06
3.527439449e-08
-1.53218966076e-06
4.86262109331e-08
-1.58368633568e-06
8.67167049461e-08
-1.65813387235e-06
1.28702717526e-07
-1.73093440015e-06
1.32479890477e-07
-1.78356495282e-06
1.10389027239e-07
-1.83083247476e-06
9.90431629778e-08
-1.88201425329e-06
9.60660145951e-08
-1.92475001429e-06
8.42698654624e-08
-1.95796828792e-06
6.93942568828e-08
-1.98590044281e-06
5.66630497903e-08
-2.0093289409e-06
4.61731913328e-08
-2.02694279183e-06
3.92112419655e-08
-2.04008713409e-06
3.17428787723e-08
-2.04648228618e-06
1.80173657768e-08
-2.05373824184e-06
1.84037751918e-08
-2.06969161592e-06
2.61876814619e-08
-2.0784036864e-06
1.65477163269e-08
-2.08541687735e-06
1.69791904758e-08
-2.10245587508e-06
2.5786431288e-08
-2.12281142241e-06
2.42049562572e-08
-2.13101604135e-06
1.13509755815e-08
-2.09332522502e-06
-2.33473746288e-08
-2.03361272378e-06
-4.48995016419e-08
-2.00273730155e-06
-3.59220715404e-08
-1.99081634359e-06
-3.03356969783e-08
-1.98139481382e-06
-3.40773692783e-08
-1.97157421696e-06
-4.17782180465e-08
-1.95553085585e-06
-5.56186129453e-08
-1.9324093322e-06
-7.22146585718e-08
-1.89874985997e-06
-9.18377763088e-08
-1.84014956348e-06
-1.17593241385e-07
-1.74676384261e-06
-1.44652087457e-07
-1.64597982884e-06
-1.58911529695e-07
-1.58803077432e-06
-1.54037414483e-07
-1.51661655257e-06
-1.96030201604e-07
-1.39789858305e-06
-2.62784244748e-07
-1.27178633396e-06
-2.99314346532e-07
-1.12368384324e-06
-3.25843916703e-07
-9.38112641146e-07
-3.60624568368e-07
-7.30523613162e-07
-4.05932137184e-07
-4.92084719971e-07
-4.59249447713e-07
-2.12515872085e-07
-5.18341939882e-07
7.06575104409e-08
-5.36915894575e-07
3.61272921753e-07
-6.02122816896e-07
5.63994915591e-07
-4.1350542572e-07
6.69282962284e-07
-2.21829832919e-07
7.19956460825e-07
-1.23190430024e-07
7.71210164327e-07
-9.74358490228e-08
8.22350828157e-07
-8.37830886625e-08
8.52494916813e-07
-4.98830712723e-08
8.55448726551e-07
-5.32336941285e-09
8.28920884421e-07
4.33752792167e-08
7.78640248825e-07
8.70203005316e-08
7.26238368635e-07
1.10085503103e-07
6.81157939538e-07
1.33632586232e-07
6.18706869853e-07
1.5684533028e-07
5.45435730014e-07
1.71105830828e-07
4.4799437946e-07
1.75430719515e-07
3.42355130765e-07
2.09868520336e-07
1.84736943678e-07
2.63062138139e-07
3.55854839475e-07
-1.28152759982e-07
4.13190149009e-07
-1.86915975647e-07
3.59736179447e-07
-3.44404922239e-07
4.34582601975e-07
-5.32138483186e-07
4.47314885328e-07
-6.99954802648e-07
4.30674298801e-07
-7.80300222067e-07
2.66363804615e-07
-8.16923860888e-07
1.43625849487e-07
-8.911504846e-07
1.99543609605e-07
-9.79462360751e-07
2.47689020467e-07
-1.06664910913e-06
2.48339518644e-07
-1.14709024227e-06
2.31078421215e-07
-1.21327345754e-06
2.07443761806e-07
-1.26910000376e-06
1.80928223814e-07
-1.3232495079e-06
1.61115221611e-07
-1.35843209951e-06
1.32470357584e-07
-1.31933082916e-06
7.44079889172e-08
-1.24341337851e-06
3.08753545305e-08
-1.23036385466e-06
4.45744442422e-08
-1.29299825356e-06
9.78809427461e-08
-1.43123460082e-06
1.86828940509e-07
-1.57958916605e-06
2.35034112042e-07
-1.66471277922e-06
2.1379301027e-07
-1.71954356406e-06
1.87275482706e-07
-1.78266063306e-06
1.73475196466e-07
-1.84088244004e-06
1.57232281881e-07
-1.88459150369e-06
1.39746772552e-07
-1.92120803986e-06
1.20855647516e-07
-1.95385416328e-06
1.02014040056e-07
-1.98078056562e-06
8.35611388166e-08
-2.00384198638e-06
6.92118195467e-08
-2.01799695663e-06
5.33439227245e-08
-2.02737879352e-06
4.11033140034e-08
-2.03871529642e-06
2.93367222671e-08
-2.03038423132e-06
1.00555934996e-08
-2.02971431569e-06
2.54924657706e-08
-2.05855156884e-06
4.53620021383e-08
-2.07045128066e-06
2.88532454098e-08
-2.0781534436e-06
3.34632691779e-08
-2.10887203353e-06
5.48974772113e-08
-2.13630217481e-06
3.87598142241e-08
-2.15270719935e-06
-6.96342419848e-09
-2.15749410043e-06
-4.01318977375e-08
-2.14620469798e-06
-4.7232936431e-08
-2.1267183681e-06
-4.98433345158e-08
-2.10250660289e-06
-5.83130001173e-08
-2.07220857128e-06
-7.21003410951e-08
-2.03669405475e-06
-9.11590370063e-08
-1.99483616147e-06
-1.14098364084e-07
-1.94562079774e-06
-1.4107991218e-07
-1.89059451369e-06
-1.72646662955e-07
-1.83005602185e-06
-2.05220565923e-07
-1.75465508639e-06
-2.34347270813e-07
-1.64155152818e-06
-2.67184995999e-07
-1.51526122064e-06
-3.2237655727e-07
-1.40103666022e-06
-3.77083554134e-07
-1.27168384845e-06
-4.28768613416e-07
-1.10718167554e-06
-4.90482276928e-07
-9.09643092177e-07
-5.58339211484e-07
-6.84280961848e-07
-6.31522762842e-07
-4.34964337388e-07
-7.08851252223e-07
-1.77247151571e-07
-7.76404589937e-07
1.1030058442e-07
-8.24884131254e-07
3.2749367006e-07
-8.19764039664e-07
4.88394538182e-07
-5.74731194963e-07
6.09788730044e-07
-3.43451973947e-07
7.13125094777e-07
-2.26712908882e-07
7.78759805183e-07
-1.63252980669e-07
8.09739362463e-07
-1.14957074899e-07
8.19831600117e-07
-6.01994623602e-08
8.10927598145e-07
3.32662327135e-09
7.94698342457e-07
5.93432940034e-08
7.86691080207e-07
9.47633435198e-08
7.71314783275e-07
1.25189920801e-07
7.25946595361e-07
1.78734764239e-07
6.44925568269e-07
2.37616851048e-07
5.46274662765e-07
2.69505355865e-07
4.45617636961e-07
2.75854694018e-07
3.48450484368e-07
3.06841732144e-07
1.57078577189e-07
4.5406648577e-07
5.12888467452e-07
-9.04468995958e-08
5.0360979427e-07
-1.14135504122e-07
3.83422982454e-07
-3.02269442862e-07
6.22718537576e-07
-4.49690695747e-07
5.94749529443e-07
-4.41928727549e-07
4.22918350744e-07
-3.70041324646e-07
1.94472960782e-07
-5.17464453631e-07
2.91032691599e-07
-7.66634926604e-07
4.48684498059e-07
-9.33255726319e-07
4.14285454248e-07
-1.04315684121e-06
3.58220282411e-07
-1.13654887829e-06
3.24463767243e-07
-1.2127749684e-06
2.83676138812e-07
-1.25821702345e-06
2.26383411489e-07
-1.2324425499e-06
1.3535610821e-07
-1.15500263831e-06
5.50348283591e-08
-1.11847047306e-06
3.78626341981e-08
-1.16267073331e-06
7.5053319907e-08
-1.2828331682e-06
1.64706592712e-07
-1.44466367605e-06
2.59677775118e-07
-1.55614350159e-06
2.98275565826e-07
-1.61100029928e-06
2.89858701689e-07
-1.67101554324e-06
2.7377358401e-07
-1.7355310086e-06
2.51758340563e-07
-1.78961302346e-06
2.27524254266e-07
-1.83629460434e-06
2.03884359958e-07
-1.87689202703e-06
1.80313268028e-07
-1.91467582159e-06
1.5861191295e-07
-1.94693605336e-06
1.34244182685e-07
-1.97500929837e-06
1.11608482831e-07
-1.99366624825e-06
8.7844481998e-08
-2.01079887611e-06
7.04544783222e-08
-2.0144984173e-06
4.478541081e-08
-2.00443264937e-06
1.92491853921e-08
-2.0257930834e-06
3.13901196244e-08
-2.04012733463e-06
3.98012389389e-08
-2.05079617028e-06
5.60014705485e-08
-2.10096628624e-06
7.89938370409e-08
-2.14346542376e-06
7.59343598818e-08
-2.15176604117e-06
6.31740581947e-08
-2.14993722331e-06
3.69069005937e-08
-2.15380953169e-06
-3.11413754208e-09
-2.15693091161e-06
-3.70339795276e-08
-2.14922138246e-06
-5.49652215055e-08
-2.13209834538e-06
-6.69906620564e-08
-2.10861776997e-06
-8.18187359248e-08
-2.0793174602e-06
-1.01427977408e-07
-2.0445196317e-06
-1.25985314751e-07
-2.00358153328e-06
-1.55066714006e-07
-1.95578589173e-06
-1.88907092522e-07
-1.90078785105e-06
-2.27678710784e-07
-1.83601018277e-06
-2.70035293014e-07
-1.75482593653e-06
-3.15575026056e-07
-1.65299092392e-06
-3.69071690463e-07
-1.54071341134e-06
-4.3472078606e-07
-1.41364266567e-06
-5.04240224662e-07
-1.26173441071e-06
-5.80790522259e-07
-1.08081976122e-06
-6.71544767726e-07
-8.67813766043e-07
-7.71534611759e-07
-6.25185097632e-07
-8.74384206172e-07
-3.63989317043e-07
-9.70321001102e-07
-1.00788016636e-07
-1.03991938939e-06
1.3400387012e-07
-1.06002997637e-06
2.87524330717e-07
-9.73628762918e-07
4.76969561952e-07
-7.64485187993e-07
6.30330944627e-07
-4.97055593527e-07
7.08748893501e-07
-3.05312560976e-07
7.61119427069e-07
-2.15788235057e-07
7.99273166711e-07
-1.53290889494e-07
8.23417755931e-07
-8.45511736078e-08
8.36664237229e-07
-1.01499461192e-08
8.40776149903e-07
5.49824437605e-08
8.23620865772e-07
1.11673266208e-07
7.63403225214e-07
1.85183898258e-07
6.78139900769e-07
2.63796624363e-07
5.89268915701e-07
3.26291698452e-07
4.77772984186e-07
3.80834835462e-07
3.47893278449e-07
4.05589541395e-07
2.42137581925e-07
4.12455267713e-07
1.26850007104e-07
5.69327467007e-07
6.39618014519e-07
-1.27530086167e-08
5.16386013937e-07
-1.03454262794e-07
4.74121515184e-07
-2.57482839917e-07
7.76759002923e-07
-3.5267268028e-07
6.89960171317e-07
-3.15019821197e-07
3.85266209307e-07
-3.90486741213e-07
2.69924162967e-07
-5.94463664362e-07
4.94980370981e-07
-7.55901788966e-07
6.10096803112e-07
-8.82665464666e-07
5.41023395343e-07
-9.99756225605e-07
4.7529961483e-07
-1.1066305932e-06
4.31345659144e-07
-1.1493248922e-06
3.26382256054e-07
-1.10182005292e-06
1.78892996166e-07
-1.05670943081e-06
9.02456943011e-08
-1.08726578955e-06
8.55738670954e-08
-1.18064687247e-06
1.31216963372e-07
-1.32039573765e-06
2.1476968775e-07
-1.45062189304e-06
2.94898305897e-07
-1.51605015938e-06
3.25074751153e-07
-1.5521653515e-06
3.34360422343e-07
-1.60994973495e-06
3.47611292079e-07
-1.67495600228e-06
3.38747567503e-07
-1.73381385291e-06
3.10583770237e-07
-1.78439496264e-06
2.78075206208e-07
-1.82877139529e-06
2.48230293238e-07
-1.87100048146e-06
2.22514840828e-07
-1.90469773957e-06
1.92277744911e-07
-1.93757131515e-06
1.67090066039e-07
-1.96033612021e-06
1.34348875431e-07
-1.97961704581e-06
1.07102886081e-07
-1.98198452701e-06
7.28010055852e-08
-1.99318565747e-06
5.59623705339e-08
-2.02834125189e-06
5.43785414315e-08
-2.03408863443e-06
3.71063644906e-08
-2.05873625415e-06
6.44140709041e-08
-2.10633887367e-06
1.0357044075e-07
-2.13599208433e-06
1.0861633489e-07
-2.15297403368e-06
9.28892212006e-08
-2.15852655627e-06
6.87007651225e-08
-2.15887270152e-06
3.72282541291e-08
-2.16117243013e-06
-8.39511930836e-10
-2.16222136784e-06
-3.60101121496e-08
-2.15542064688e-06
-6.17919096625e-08
-2.13998004709e-06
-8.24581759473e-08
-2.11770373701e-06
-1.04124007972e-07
-2.089571234e-06
-1.29591464666e-07
-2.05583351428e-06
-1.59756664006e-07
-2.01600785193e-06
-1.94928418523e-07
-1.96922754492e-06
-2.3572650407e-07
-1.91414451389e-06
-2.82804219908e-07
-1.84780015133e-06
-3.36426745732e-07
-1.76586389115e-06
-3.97562720969e-07
-1.66641250699e-06
-4.68586844898e-07
-1.55101812281e-06
-5.50192193191e-07
-1.41434979873e-06
-6.41009517606e-07
-1.24897890671e-06
-7.46293801499e-07
-1.05120417365e-06
-8.69487621142e-07
-8.20042904821e-07
-1.00289747215e-06
-5.62120410533e-07
-1.13253666397e-06
-2.94864517847e-07
-1.23783840738e-06
-4.2420473168e-08
-1.29264930969e-06
1.61496877996e-07
-1.26423579144e-06
2.97166608893e-07
-1.10959540624e-06
5.07854933857e-07
-9.75463606344e-07
6.69087791438e-07
-6.58517729019e-07
7.51097532313e-07
-3.8750427301e-07
7.89999207797e-07
-2.5485802719e-07
8.13668368112e-07
-1.77128344954e-07
8.33122533388e-07
-1.04185201652e-07
8.5185341857e-07
-2.90831500211e-08
8.51095264381e-07
5.55396914638e-08
8.02328635236e-07
1.60253897852e-07
7.26712532404e-07
2.60642544244e-07
6.47956888562e-07
3.42407570461e-07
5.53411338772e-07
4.20716606183e-07
4.3511987427e-07
4.99002090395e-07
3.34646372319e-07
5.06018285999e-07
2.27367309419e-07
5.19723225212e-07
1.03224654645e-07
6.93296198182e-07
7.42878380121e-07
-4.83383167252e-09
5.21193348622e-07
-1.34175659817e-07
6.03464141376e-07
-2.14439973324e-07
8.57035807094e-07
-2.56001720328e-07
7.31524207611e-07
-2.41770544365e-07
3.71029086493e-07
-4.41041507384e-07
4.69174998468e-07
-6.49639181465e-07
7.03552695598e-07
-7.42248294266e-07
7.02677903553e-07
-8.43358095988e-07
6.42121597992e-07
-9.34282636868e-07
5.66227642723e-07
-9.66782701908e-07
4.63854077166e-07
-9.02368049083e-07
2.61980137296e-07
-8.8583288901e-07
1.62354438147e-07
-9.5150223177e-07
1.55896750522e-07
-1.06828641671e-06
2.02328622241e-07
-1.23430728595e-06
2.97201055027e-07
-1.38405798007e-06
3.64484662824e-07
-1.4488182118e-06
3.59630166589e-07
-1.48136951346e-06
3.57598396967e-07
-1.5471082845e-06
4.00069703517e-07
-1.61563562227e-06
4.16108115075e-07
-1.67218210074e-06
3.9526300161e-07
-1.72545062747e-06
3.63821855704e-07
-1.77826525516e-06
3.30858713401e-07
-1.82461068164e-06
2.94547155678e-07
-1.85128820348e-06
2.49162338741e-07
-1.88702827288e-06
2.27990518907e-07
-1.91369556918e-06
1.9373152895e-07
-1.93765011139e-06
1.58277137197e-07
-1.93636960121e-06
1.05798644406e-07
-1.94073830843e-06
7.71453493426e-08
-1.95811234606e-06
7.33086128619e-08
-1.97248568308e-06
6.87184031956e-08
-2.03788203089e-06
1.02464062661e-07
-2.09975062621e-06
1.26242504398e-07
-2.13344525621e-06
1.3722914763e-07
-2.15119940058e-06
1.26339192926e-07
-2.16141476879e-06
1.03076432313e-07
-2.16640757136e-06
7.36671341115e-08
-2.1685922106e-06
3.93863460929e-08
-2.17048356767e-06
1.02476143258e-09
-2.17021546145e-06
-3.63058752592e-08
-2.16369551037e-06
-6.8340148046e-08
-2.14958344862e-06
-9.6599951031e-08
-2.12871794723e-06
-1.2502148971e-07
-2.10196134998e-06
-1.56383252201e-07
-2.06957586521e-06
-1.92180713952e-07
-2.03108290789e-06
-2.3346439014e-07
-1.98541959447e-06
-2.81437277582e-07
-1.93084922104e-06
-3.37427941153e-07
-1.86458640943e-06
-4.02746595233e-07
-1.78328504345e-06
-4.78932824012e-07
-1.68435139642e-06
-5.6759391105e-07
-1.56484428511e-06
-6.69792920493e-07
-1.41819287042e-06
-7.87778564567e-07
-1.23815063515e-06
-9.26478561807e-07
-1.02295879101e-06
-1.08485428954e-06
-7.76328058203e-07
-1.24972689001e-06
-5.09184415799e-07
-1.39991411438e-06
-2.40834652582e-07
-1.5064272605e-06
8.69156109289e-11
-1.533815994e-06
1.86487253224e-07
-1.45088336941e-06
3.55481441325e-07
-1.27883065655e-06
5.34320693365e-07
-1.15454388819e-06
6.68290598591e-07
-7.92695142664e-07
7.52447064595e-07
-4.71823899561e-07
8.06209323165e-07
-3.08772717006e-07
8.39262164554e-07
-2.10341470274e-07
8.6628022857e-07
-1.31366911927e-07
8.79197449501e-07
-4.21607166625e-08
8.43777647511e-07
9.07974732768e-08
7.77830222061e-07
2.26072328226e-07
7.11210012904e-07
3.27146474414e-07
6.37389984774e-07
4.16131615055e-07
5.43803984025e-07
5.14218183267e-07
4.43799287217e-07
5.99015481576e-07
3.37517936843e-07
6.12259686438e-07
2.25882213182e-07
6.31326230103e-07
1.12920064159e-07
8.06348810605e-07
8.55695356805e-07
-4.93869720294e-08
5.70592415235e-07
-2.06864098368e-07
7.60942821951e-07
-2.75871726169e-07
9.26060113192e-07
-2.28625569894e-07
6.84281229432e-07
-2.97510899729e-07
4.3989933799e-07
-5.29279057534e-07
7.0091872086e-07
-6.45341417496e-07
8.19588393023e-07
-7.21544926827e-07
7.78871019412e-07
-7.84310915494e-07
7.04880384082e-07
-8.74332143181e-07
6.56258975745e-07
-8.45684083198e-07
4.35217677407e-07
-8.10490980663e-07
2.26784740402e-07
-8.72302439387e-07
2.24149250295e-07
-9.66273960663e-07
2.49836687521e-07
-1.12283559903e-06
3.58851090094e-07
-1.28532291771e-06
4.5965377994e-07
-1.35433518551e-06
4.33469524236e-07
-1.38616181001e-06
3.91429873487e-07
-1.46595498875e-06
4.37362246341e-07
-1.54749738469e-06
4.81582561044e-07
-1.60971400148e-06
4.78295234087e-07
-1.66654072984e-06
4.5206060547e-07
-1.72111416065e-06
4.18363409762e-07
-1.76409555549e-06
3.73810906178e-07
-1.79491191471e-06
3.25335888432e-07
-1.82706699877e-06
2.81288155117e-07
-1.84611597384e-06
2.47010842186e-07
-1.87555115556e-06
2.23137889094e-07
-1.88679752562e-06
1.69498097308e-07
-1.88776169885e-06
1.06735712553e-07
-1.91194968936e-06
1.01300799789e-07
-1.9464618993e-06
1.07786968099e-07
-2.00158690831e-06
1.23803293372e-07
-2.06004333555e-06
1.60876293744e-07
-2.11975425006e-06
1.85911631792e-07
-2.14834086093e-06
1.65778652011e-07
-2.16176439683e-06
1.39729799686e-07
-2.17046247969e-06
1.11744707947e-07
-2.17641164997e-06
7.95879263265e-08
-2.17992920834e-06
4.28758492273e-08
-2.18175681563e-06
2.8240458325e-09
-2.18074341099e-06
-3.73482545607e-08
-2.17430370289e-06
-7.48100072073e-08
-2.16116918704e-06
-1.09766881372e-07
-2.14164593161e-06
-1.4458067957e-07
-2.11636225019e-06
-1.81706795938e-07
-2.08550651096e-06
-2.23082294933e-07
-2.04859820266e-06
-2.70423652054e-07
-2.00454549987e-06
-3.25548607977e-07
-1.9515695985e-06
-3.90466681317e-07
-1.88702462638e-06
-4.67365520692e-07
-1.80748246404e-06
-5.58544840091e-07
-1.70880700955e-06
-6.66356740569e-07
-1.58520512849e-06
-7.93494687571e-07
-1.42922742787e-06
-9.43867850069e-07
-1.23578542373e-06
-1.12006628838e-06
-1.00575789831e-06
-1.31504140292e-06
-7.46235774624e-07
-1.50945012172e-06
-4.69063803064e-07
-1.67727605679e-06
-1.91885831557e-07
-1.78381591621e-06
5.43635272878e-08
-1.78027421697e-06
2.58168237173e-07
-1.65488630863e-06
4.52095760691e-07
-1.47294878525e-06
5.46634567141e-07
-1.24927637906e-06
6.84844758193e-07
-9.31062583821e-07
7.80389032849e-07
-5.67510292633e-07
8.61135437722e-07
-3.89681385598e-07
9.1248027663e-07
-2.61846691679e-07
9.28895898629e-07
-1.47932707259e-07
8.99254608868e-07
-1.26677093966e-08
8.36280015739e-07
1.53658504241e-07
7.76208057944e-07
2.86031548508e-07
7.17671524479e-07
3.85591774836e-07
6.49010732578e-07
4.84736111122e-07
5.63697105825e-07
5.99565537169e-07
4.8174936635e-07
6.80910296588e-07
3.61478737686e-07
7.32635920067e-07
2.32121223099e-07
7.60731228751e-07
1.27506876049e-07
9.10794714817e-07
9.83232342711e-07
-9.29592710459e-08
6.63523038165e-07
-2.34761624958e-07
9.0274744657e-07
-2.5998922989e-07
9.51280509375e-07
-1.7049566941e-07
5.94780689873e-07
-3.40490890815e-07
6.09878534509e-07
-5.36868332417e-07
8.97272476158e-07
-6.17402318315e-07
9.0011054304e-07
-7.00654183943e-07
8.62114322e-07
-7.07331760339e-07
7.11569124282e-07
-7.29567602822e-07
6.7849609507e-07
-6.92093638414e-07
3.97743573113e-07
-7.82505745337e-07
3.17181331033e-07
-8.66205642533e-07
3.07820772111e-07
-1.00166933232e-06
3.85265846999e-07
-1.16735573726e-06
5.24499892166e-07
-1.25032075993e-06
5.42586807241e-07
-1.28163247298e-06
4.64756366911e-07
-1.36744250053e-06
4.77212625439e-07
-1.46582517168e-06
5.35715132739e-07
-1.53587027673e-06
5.51598388119e-07
-1.59287333902e-06
5.35269714393e-07
-1.6479767273e-06
5.07132028082e-07
-1.70757898181e-06
4.77936809106e-07
-1.76294310252e-06
4.29149122331e-07
-1.78589357044e-06
3.48255065427e-07
-1.82195765344e-06
3.17324601524e-07
-1.84414612733e-06
2.6916955441e-07
-1.83680195928e-06
2.15764562279e-07
-1.8478587882e-06
1.80524287139e-07
-1.91557331215e-06
1.74415033366e-07
-1.95535127188e-06
1.41041894393e-07
-1.96231321755e-06
1.14705017849e-07
-2.02496973742e-06
1.86413582912e-07
-2.10045589387e-06
2.36314687124e-07
-2.13512713104e-06
2.20538546683e-07
-2.15682559853e-06
1.87437440034e-07
-2.17122510395e-06
1.54093850081e-07
-2.18119588619e-06
1.21683057398e-07
-2.18837092317e-06
8.67322219227e-08
-2.19297908749e-06
4.74538620453e-08
-2.19496067672e-06
4.77530540541e-09
-2.19353279254e-06
-3.88068895905e-08
-2.18715643086e-06
-8.12185099366e-08
-2.17479330248e-06
-1.22164709394e-07
-2.1564576108e-06
-1.62954694814e-07
-2.13259202275e-06
-2.05617178817e-07
-2.10335191871e-06
-2.52372264932e-07
-2.06834861921e-06
-3.05485659073e-07
-2.02664177147e-06
-3.67319249668e-07
-1.97660634066e-06
-4.40577948462e-07
-1.91558757134e-06
-5.28456153637e-07
-1.83957851316e-06
-6.34645957505e-07
-1.74270516933e-06
-7.63322259809e-07
-1.61703405344e-06
-9.19260560762e-07
-1.45437448703e-06
-1.10666312344e-06
-1.25055110298e-06
-1.32401515565e-06
-1.00811958695e-06
-1.55765770563e-06
-7.33502800609e-07
-1.7842140838e-06
-4.34091777305e-07
-1.97688934122e-06
-1.30069707509e-07
-2.08801774755e-06
1.41416436719e-07
-2.0519286395e-06
3.65062299893e-07
-1.87868640774e-06
5.3452887362e-07
-1.64255682476e-06
6.46983000229e-07
-1.36186093278e-06
7.64615868419e-07
-1.04885313243e-06
8.57120762114e-07
-6.60166488275e-07
9.24897455237e-07
-4.5760352764e-07
9.66612425525e-07
-3.03713319622e-07
9.58623772181e-07
-1.40085406908e-07
9.05865076738e-07
3.99899175041e-08
8.43530602423e-07
2.15871835865e-07
7.88455089909e-07
3.41033680916e-07
7.36530533334e-07
4.37459324684e-07
6.81493982967e-07
5.39777359773e-07
6.1794634163e-07
6.63057846207e-07
5.32111955128e-07
7.66918079031e-07
4.05208966807e-07
8.59477373665e-07
2.47196840689e-07
9.18701882218e-07
1.28122355089e-07
1.02993253415e-06
1.11121406356e-06
-1.23803690086e-07
7.87339319308e-07
-2.31701343507e-07
1.01064487134e-06
-2.0941101342e-07
9.2899660977e-07
-2.19283762002e-07
6.0464372258e-07
-4.1759260449e-07
8.08171968787e-07
-5.04104510933e-07
9.83771363395e-07
-5.79089758794e-07
9.7509438552e-07
-6.56231560946e-07
9.39259330859e-07
-6.75954340795e-07
7.31289965542e-07
-6.99257977791e-07
7.01802896856e-07
-7.10598243677e-07
4.09069906424e-07
-7.88360314927e-07
3.94920692004e-07
-8.88243610873e-07
4.0767009704e-07
-1.04454904124e-06
5.41530426797e-07
-1.18606092671e-06
6.65980059297e-07
-1.23076960349e-06
5.87271834667e-07
-1.27532897901e-06
5.09289653479e-07
-1.36487552535e-06
5.66729150354e-07
-1.45178765998e-06
6.22597142422e-07
-1.52100130401e-06
6.20781507933e-07
-1.57864099537e-06
5.92875348438e-07
-1.62420100407e-06
5.52662757318e-07
-1.66314613221e-06
5.16858054002e-07
-1.70411560771e-06
4.70090328465e-07
-1.73920521618e-06
3.8332009781e-07
-1.76098968953e-06
3.3907890282e-07
-1.80352418893e-06
3.11671535322e-07
-1.85056986509e-06
2.62779051897e-07
-1.88869093243e-06
2.18612491356e-07
-1.914273058e-06
1.99957495228e-07
-1.95423487208e-06
1.80955759244e-07
-2.04105629663e-06
2.01474380875e-07
-2.0895416919e-06
2.34844252727e-07
-2.11981886318e-06
2.66539860936e-07
-2.14549781505e-06
2.46170695193e-07
-2.16642506639e-06
2.08322305049e-07
-2.18243087147e-06
1.70060816045e-07
-2.19389844858e-06
1.33114890736e-07
-2.20206441325e-06
9.48647058331e-08
-2.2075217306e-06
5.28790544429e-08
-2.2099467734e-06
7.16913987441e-09
-2.20849103433e-06
-4.02940531164e-08
-2.20218641377e-06
-8.75558285508e-08
-2.19039519379e-06
-1.33991668345e-07
-2.17303454342e-06
-1.80357348909e-07
-2.15038779531e-06
-2.2831016392e-07
-2.12272025156e-06
-2.80096706213e-07
-2.08994053944e-06
-3.38326756831e-07
-2.05146320472e-06
-4.05871991251e-07
-2.00595794724e-06
-4.86157828848e-07
-1.95082846486e-06
-5.83684161547e-07
-1.881362254e-06
-7.04200860718e-07
-1.7900623441e-06
-8.54708450467e-07
-1.6669932841e-06
-1.04246371214e-06
-1.50246382753e-06
-1.27128446735e-06
-1.2913762358e-06
-1.5352887449e-06
-1.03395049577e-06
-1.81518265186e-06
-7.31473715837e-07
-2.08690116522e-06
-3.91304202252e-07
-2.31719263032e-06
-5.463647684e-08
-2.42483956841e-06
2.26996593105e-07
-2.333696451e-06
4.5067974663e-07
-2.10247635359e-06
6.38587687274e-07
-1.83055697655e-06
7.95779116178e-07
-1.51916020662e-06
9.01911781192e-07
-1.1551074421e-06
9.91662528874e-07
-7.50066182041e-07
1.0303984047e-06
-4.964949211e-07
1.04645515395e-06
-3.19901693636e-07
1.01005649951e-06
-1.03794667445e-07
9.33764789904e-07
1.16149448413e-07
8.62287485975e-07
2.87297751394e-07
8.02270760838e-07
4.00965947894e-07
7.58985107296e-07
4.80703079047e-07
7.29444421472e-07
5.69266914555e-07
6.89580145257e-07
7.03093363349e-07
5.90813799762e-07
8.65519224468e-07
4.48844244624e-07
1.00153536667e-06
2.72416624921e-07
1.09510259199e-06
1.24847061597e-07
1.17722052592e-06
1.23601749303e-06
-1.46284519502e-07
9.33586702305e-07
-2.44056937786e-07
1.10840283017e-06
-1.92156684242e-07
8.77086480602e-07
-2.68546629781e-07
6.8102782553e-07
-4.41369047505e-07
9.80986054878e-07
-4.67457183568e-07
1.00986223006e-06
-5.32794519782e-07
1.04042522658e-06
-5.5803173994e-07
9.64501965913e-07
-6.17844636747e-07
7.91100961717e-07
-6.10020933129e-07
6.93966780983e-07
-6.87499207626e-07
4.86530631627e-07
-7.85163980918e-07
4.92554305458e-07
-8.97930502689e-07
5.20404382768e-07
-1.04282670316e-06
6.86392881246e-07
-1.12442302956e-06
7.4754560084e-07
-1.1503696662e-06
6.1319424777e-07
-1.24124286364e-06
6.00135201648e-07
-1.34289557139e-06
6.6835089299e-07
-1.42489912278e-06
7.04568781412e-07
-1.49889003782e-06
6.94739249643e-07
-1.56637253495e-06
6.60330062485e-07
-1.62425957603e-06
6.10523707758e-07
-1.65325978657e-06
5.45827154051e-07
-1.67261799633e-06
4.89423448341e-07
-1.73109427122e-06
4.41769079167e-07
-1.75776231371e-06
3.65711988615e-07
-1.75195357894e-06
3.058351594e-07
-1.76889413876e-06
2.79687793529e-07
-1.82252128346e-06
2.72199347058e-07
-1.90183010175e-06
2.7922143218e-07
-1.97221930805e-06
2.51291207134e-07
-2.03037042511e-06
2.5956558944e-07
-2.10062724748e-06
3.05039113735e-07
-2.13484246643e-06
3.00699626199e-07
-2.15781168355e-06
2.69089239636e-07
-2.1786741041e-06
2.29137595163e-07
-2.19613245207e-06
1.87475753624e-07
-2.20903050128e-06
1.45972977171e-07
-2.21795376693e-06
1.03750866251e-07
-2.22387894431e-06
5.87694252199e-08
-2.22670177557e-06
9.95849437671e-09
-2.22545872881e-06
-4.15699935779e-08
-2.21928125434e-06
-9.37671284822e-08
-2.20780278256e-06
-1.45507763936e-07
-2.19107642097e-06
-1.97123727384e-07
-2.16939054353e-06
-2.50047349713e-07
-2.14313967206e-06
-3.06399292549e-07
-2.11273996753e-06
-3.68793320749e-07
-2.07830970939e-06
-4.40369109199e-07
-2.03918404566e-06
-5.25374939714e-07
-1.99305973953e-06
-6.29892071328e-07
-1.93487640389e-06
-7.62477291107e-07
-1.85570062173e-06
-9.34019141526e-07
-1.74297670943e-06
-1.15525962366e-06
-1.58354905162e-06
-1.43090231896e-06
-1.36638740929e-06
-1.75253724993e-06
-1.0823502006e-06
-2.09946500567e-06
-7.25887591108e-07
-2.44345516256e-06
-3.33654370966e-07
-2.70960160046e-06
3.67312194271e-09
-2.7622885528e-06
2.61909381285e-07
-2.59205531206e-06
5.00084419951e-07
-2.3407510904e-06
7.45934019735e-07
-2.07649088812e-06
9.72569360732e-07
-1.74587186346e-06
1.16692281214e-06
-1.34956455232e-06
1.32725447614e-06
-9.10536152217e-07
1.28647418887e-06
-4.55848408271e-07
1.13293342703e-06
-1.66496660999e-07
1.05652876495e-06
-2.74946649313e-08
9.64711514634e-07
2.0793487439e-07
8.72240733058e-07
3.79673215839e-07
7.955506644e-07
4.7763327488e-07
7.69498898193e-07
5.06735702223e-07