/*--------------------------------*- C++ -*----------------------------------*\
| =========                 |                                                 |
| \\      /  F ield         | OpenFOAM: The Open Source CFD Toolbox           |
|  \\    /   O peration     | Version:  v1806                                 |
|   \\  /    A nd           | Web:      www.OpenFOAM.com                      |
|    \\/     M anipulation  |                                                 |
\*---------------------------------------------------------------------------*/
FoamFile
{
    version     2.0;
    format      ascii;
    class       volScalarField;
    location    "715";
    object      p;
}
// * * * * * * * * * * * * * * * * * * * * * * * * * * * * * * * * * * * * * //

dimensions      [0 2 -2 0 0 0 0];


internalField   nonuniform List<scalar> 
6400
(
0.14571341504
0.145716613575
0.145725767715
0.14574372323
0.145770520587
0.145806142593
0.145850559296
0.145904868098
0.145970133541
0.146048095869
0.146145020454
0.146264247319
0.146403142494
0.146561613189
0.146741591798
0.146945686178
0.14717565732
0.147431522872
0.147711122004
0.1480089851
0.148319533065
0.14864437147
0.148991160277
0.149367880726
0.149779456097
0.150225761476
0.15070330153
0.151209377241
0.151743476622
0.152306137895
0.152897691512
0.153516095801
0.154155262115
0.15480898007
0.155474340649
0.156148598407
0.156832101816
0.15753061746
0.158242684461
0.158959338523
0.159681329006
0.160420666918
0.161183362867
0.161961263074
0.162743093299
0.163520857557
0.164288452226
0.16504110324
0.165774438554
0.166484605994
0.167168355276
0.167820119975
0.168430786668
0.168989373327
0.169493526734
0.169947351932
0.170346618215
0.170681922369
0.170951080166
0.171161614451
0.171320519403
0.171432504032
0.171502421537
0.171546178546
0.171580226048
0.171612193867
0.171635673096
0.171643192658
0.171635324462
0.171616764086
0.171590710712
0.171558370033
0.17152047683
0.171480978481
0.171441003173
0.17140313188
0.171369465605
0.171346408612
0.17133110973
0.171324568
0.145708776353
0.145712185106
0.145720529331
0.145738064569
0.145766358247
0.145803429834
0.145848319023
0.145900888646
0.145964127079
0.146041860019
0.146138428799
0.146256624511
0.146395805408
0.146555215175
0.146735354845
0.146938078872
0.147167266438
0.147423792305
0.147704698954
0.148003095605
0.148311707727
0.148634435364
0.148980621877
0.149357364881
0.149769412301
0.150216473266
0.150694360179
0.151201050468
0.151736106161
0.152299523844
0.152891207634
0.153510065245
0.15415021378
0.154804055781
0.15546952714
0.156144060785
0.15682750788
0.157526554439
0.158239822972
0.158957416844
0.159678956086
0.160418932655
0.161184872759
0.161965251156
0.162748394901
0.163527609254
0.164296756755
0.165051286991
0.165786428457
0.16649713283
0.167180119284
0.167833010133
0.168448281816
0.169009121035
0.169514979481
0.169971535004
0.170369443967
0.170701911392
0.17097055375
0.171180132449
0.171336301287
0.171447434126
0.171517806784
0.171562756857
0.17159852776
0.171631357313
0.171654422127
0.171659101023
0.171647874921
0.17162631314
0.171597533061
0.171562470584
0.171521419945
0.171478210605
0.171436224915
0.171397521105
0.171364920859
0.171341505232
0.171326096686
0.171320834815
0.145695680377
0.145701290259
0.145708912411
0.145725069526
0.145752430657
0.145793555091
0.145841941202
0.145893006138
0.145953282154
0.146029348217
0.146125075441
0.14624271456
0.146382180653
0.146542404256
0.146722598594
0.146921947893
0.147148735268
0.147409872401
0.147693793571
0.147990775881
0.148295228798
0.14861282534
0.14895803517
0.149337068577
0.149750076347
0.150197081207
0.150676193416
0.15118470487
0.151721360403
0.152286098736
0.152878642157
0.153498595339
0.15414081568
0.154794430565
0.15545877385
0.156134937614
0.15681875804
0.157517254927
0.158231884451
0.158952771471
0.159680388139
0.160425037474
0.161191337715
0.161971927735
0.162756736942
0.163538282207
0.16431056229
0.165068512414
0.165807277649
0.166522276399
0.167209662314
0.167864711201
0.16847891804
0.169043290023
0.169556464785
0.170015028298
0.170411105712
0.170741860505
0.17100898015
0.171216701279
0.171371399298
0.171479972576
0.171550190142
0.171599394045
0.171641124655
0.171675122492
0.171693785346
0.17169244174
0.171674811262
0.171646846842
0.171611713414
0.171569937477
0.171523244345
0.171475575817
0.171429813467
0.171388886279
0.171355873725
0.17133191659
0.171316729356
0.171311101753
0.145676826257
0.145682610343
0.14568921507
0.145704149997
0.145728324341
0.145769380547
0.145830014558
0.145881296624
0.145937192689
0.146010353724
0.146104674829
0.146222002607
0.146362127479
0.146522398404
0.146702493305
0.14690598226
0.147136808116
0.1473951568
0.147670755044
0.147956689157
0.148257140351
0.148578309121
0.148926029397
0.149305797464
0.149719967365
0.15016846468
0.150649474042
0.151160212385
0.151699171768
0.152265766242
0.152860358723
0.153481910976
0.15412575363
0.154782329953
0.155444453384
0.156118017758
0.156805259611
0.157504664303
0.158218237629
0.158943416714
0.159679207448
0.160430486548
0.161199939146
0.161982648478
0.162770373894
0.16355571125
0.164332470182
0.165095310037
0.165839290356
0.166559750013
0.16725216581
0.167911045708
0.168529047318
0.169099233282
0.169617262553
0.170077412604
0.170473381498
0.170803037937
0.17106830826
0.171273733145
0.171426001265
0.171533454683
0.171607986102
0.171665704353
0.171712453776
0.171743632647
0.171756206237
0.171746206189
0.171717960287
0.171679206684
0.171634174635
0.171583531063
0.171528770563
0.171472086153
0.171418099684
0.171373667764
0.171340218367
0.171313579538
0.171295183058
0.171287626836
0.145647194525
0.145648611378
0.145656723032
0.145672134611
0.145699016587
0.145737946636
0.145793848244
0.145849747017
0.14590908786
0.145982830116
0.146076065495
0.146193315496
0.146334693377
0.146500445348
0.146688009499
0.146892207006
0.147116072675
0.147361325242
0.147626070531
0.147909146452
0.1482109173
0.148533614699
0.148882999546
0.149264476777
0.149680282251
0.150130675246
0.150613768557
0.151127308105
0.151669234736
0.152238879336
0.152835610181
0.153460662151
0.154108475862
0.154763096641
0.155424263076
0.15609676878
0.156782470241
0.157484363994
0.158202079938
0.158933277107
0.159677112076
0.160435788014
0.161210362186
0.161997130968
0.162789317314
0.163579893543
0.164362563587
0.165131782875
0.165882495251
0.166609879697
0.167308975523
0.167974010686
0.168598233526
0.169175028021
0.169698278807
0.170161143614
0.170557977298
0.17088725976
0.171151345204
0.171355470638
0.171507490677
0.171617770489
0.171699559252
0.171764149648
0.171809891464
0.171838374946
0.171845312798
0.17182465601
0.171781421428
0.171726426956
0.17166658835
0.171602493981
0.171533000317
0.1714610473
0.171397326449
0.171347771013
0.171308983621
0.171274534841
0.171253154427
0.17124561611
0.145593538074
0.14559388142
0.145606994585
0.145623194301
0.145653109759
0.145694533508
0.145747121016
0.145803926117
0.145868264368
0.14594444552
0.146036380255
0.146154312792
0.146304720469
0.146479363351
0.146666311457
0.146864320929
0.147078211199
0.14731428354
0.147574076913
0.147854972024
0.148154992575
0.148477980947
0.148829252789
0.149213041883
0.149631098405
0.150083246257
0.150569168738
0.151085726149
0.151631727248
0.152205177191
0.152806351592
0.153433568461
0.154081331997
0.154739548586
0.15539781341
0.156066519608
0.156753616226
0.157459898736
0.158183385633
0.158921759558
0.15967404825
0.160440965078
0.16122242675
0.162015235843
0.162813617519
0.163610998427
0.164401095831
0.165178239344
0.165937269808
0.166673223514
0.167380888909
0.168054361806
0.168686982692
0.169271719477
0.169801237178
0.170268226065
0.170667628001
0.170998548096
0.171263970748
0.171470096575
0.171625929371
0.171742844992
0.171833275367
0.17189932145
0.171943176073
0.171966797545
0.171965967935
0.171932147983
0.171869415464
0.171792075267
0.171711061465
0.171625178964
0.17153165232
0.171440222463
0.171363749915
0.171304639173
0.17125503734
0.171213778728
0.171190685314
0.171181218202
0.145511925965
0.145518371002
0.14553954815
0.145563274559
0.145589682032
0.145631906806
0.145686585695
0.145745951224
0.145814138371
0.145893401058
0.145989713275
0.146111781419
0.146270246058
0.146444320007
0.146626717232
0.146816681178
0.147024187853
0.147257735188
0.147515420695
0.147791326802
0.148088610955
0.148412296552
0.148765256572
0.149150892959
0.149571545889
0.15002773263
0.15051510817
0.151035293925
0.15158616671
0.152166773986
0.152772167608
0.153399779155
0.154048363092
0.154702496056
0.155360204405
0.156029693713
0.156720145275
0.157431901909
0.1581622227
0.158908639562
0.159670000942
0.160446117487
0.161236096941
0.16203687551
0.162843291886
0.16364917493
0.164448336998
0.165235071084
0.166004164704
0.166750564145
0.167468904898
0.168153123062
0.168796307692
0.169390793198
0.169928493531
0.170402099499
0.170807243988
0.171143737248
0.171415118167
0.171627993304
0.171791693169
0.171917196905
0.172012761172
0.172078680869
0.172126758217
0.172145166058
0.172128063635
0.172073038948
0.17198505749
0.171879339867
0.171767920945
0.171648925163
0.171522618955
0.171406062964
0.171310771497
0.171235790994
0.171173190927
0.17112875293
0.171106341798
0.171096041246
0.145415187649
0.145427489837
0.14545166295
0.145485303645
0.145514577532
0.145558874021
0.145612321126
0.145674922744
0.1457480187
0.14582565934
0.145930822355
0.146066071302
0.146223109483
0.146393889706
0.146569568653
0.146752445293
0.146959060528
0.147193128632
0.147446006848
0.147716975464
0.148012146274
0.14833604707
0.148690510496
0.149079080633
0.149503283637
0.149962708127
0.150454351118
0.150974904202
0.151533259162
0.152123519664
0.152730942322
0.153356049345
0.154002866262
0.154655050645
0.155312076827
0.155986337937
0.156682471766
0.157400567706
0.158138433811
0.158893689231
0.159664920497
0.160451314275
0.161251394194
0.162062031465
0.162878388561
0.163694601439
0.164504626778
0.165302803044
0.166083922153
0.166842886412
0.167574218755
0.168271647965
0.168927875506
0.169534684451
0.170083698859
0.170568036723
0.170984129227
0.171332143687
0.171615045645
0.171838526078
0.172011367244
0.172143232742
0.17224113577
0.172310610938
0.172358561995
0.172379335919
0.172342046356
0.172256299839
0.172134796877
0.171991643677
0.171838406937
0.171673627154
0.171504229945
0.171351356567
0.171227804261
0.17113186155
0.171061814016
0.171019173446
0.171001801892
0.170995092082
0.145308257674
0.145324015695
0.145348698503
0.145378199691
0.145415010237
0.145468142549
0.145522397485
0.145587130786
0.145668690353
0.145752272794
0.14585584344
0.146000313242
0.146160467156
0.146325850886
0.146495723737
0.146678432055
0.146884615527
0.147115805576
0.147364202025
0.147632405762
0.147926100653
0.14824936504
0.148603800282
0.148994340464
0.149426236098
0.149887758963
0.150384134906
0.150912740295
0.151473074288
0.152064992321
0.152678368616
0.153309179738
0.153946081374
0.154594149585
0.155256090468
0.155937137092
0.156640230539
0.157365617758
0.158111793017
0.158876695764
0.159658729067
0.160456591971
0.161268351565
0.162090724839
0.162918997641
0.163747513884
0.164570403244
0.165382115706
0.166177491433
0.166951419954
0.167698342728
0.168411796278
0.169084163472
0.16970697158
0.170272053531
0.170773276085
0.171207597885
0.171574221101
0.171873297264
0.172109058761
0.172291474377
0.172430268169
0.172532109602
0.172600491226
0.172637904432
0.1726547917
0.172618287354
0.172494364652
0.17232877717
0.172137222888
0.171928161323
0.171702917471
0.1714729839
0.171263752365
0.171098835361
0.170983003413
0.170916135227
0.170885154528
0.170877932473
0.17087869371
0.145189356311
0.145207285295
0.145236018625
0.145264696287
0.145304527988
0.145358348244
0.145415257128
0.145480563863
0.145562882017
0.145663796603
0.145773011621
0.145918133984
0.146079514593
0.146241475906
0.146405909843
0.146591600491
0.146801172277
0.147027475967
0.147270488843
0.147536358371
0.147829785227
0.14815359271
0.148508448274
0.14889792648
0.149336419983
0.149806781042
0.150300572803
0.150836364222
0.151402271969
0.15199886602
0.152615654285
0.153244730805
0.153880900834
0.154526749825
0.15519312567
0.155881809593
0.156592992897
0.157326708222
0.158082053565
0.158857444658
0.159651289406
0.160461920037
0.161286988414
0.162122998155
0.162965248223
0.163808220671
0.164646224226
0.165473863816
0.166286056979
0.167077701886
0.167843212595
0.168576057948
0.169268569908
0.16991249219
0.170500356085
0.171026791906
0.171488206883
0.171880306749
0.172198101091
0.172447710176
0.172645309303
0.172797588107
0.172905015375
0.172964454534
0.17297931267
0.172961929148
0.172915230855
0.172801225001
0.172580520738
0.172324248481
0.172047011292
0.171745654652
0.171423661957
0.171120105228
0.170896539154
0.170769972332
0.170724319272
0.170720412482
0.170730411313
0.170741717689
0.145053289153
0.145070376823
0.145101728979
0.145135732367
0.145184314049
0.145233172346
0.145291186204
0.145359382267
0.14543458066
0.145545122459
0.145669128445
0.145815411944
0.145977459323
0.146140391497
0.146304378124
0.146491114339
0.146702393924
0.146925791167
0.147164865956
0.147427563361
0.147720117216
0.148046005345
0.14840615095
0.148795845077
0.149229974913
0.149713432661
0.150216057148
0.150751982528
0.151319958883
0.151912119419
0.152536113258
0.153168472855
0.153803199289
0.154451482373
0.155123750203
0.15582038799
0.156540402926
0.157283467184
0.158048957269
0.158835736913
0.159642437373
0.160467199968
0.161307278394
0.162158895757
0.163017298044
0.163877086459
0.164732763257
0.165579095408
0.166411073621
0.167223629428
0.16801125513
0.168767604791
0.169485434992
0.17015733463
0.17077688686
0.171338729147
0.171836410211
0.172260208229
0.172599476019
0.172868833934
0.173099227238
0.173279486496
0.173395840207
0.173436240182
0.173408060404
0.173328901317
0.173223315979
0.173109245109
0.172896050002
0.172573508044
0.172219399597
0.171824979379
0.171353687902
0.170877248292
0.170570759215
0.170454952927
0.170467460271
0.170517853604
0.170557449957
0.170587120494
0.144896017692
0.144909648115
0.144934942515
0.144978122141
0.145037710795
0.145087544198
0.145147299019
0.145222402465
0.145296588118
0.14540424507
0.145539764759
0.145690127698
0.145852297316
0.146017926667
0.14618939363
0.146379227075
0.146589511821
0.146810193588
0.147047045977
0.147306827695
0.147595781806
0.147919839671
0.148289663158
0.148691442008
0.149120784838
0.149604593274
0.150116304125
0.150650763521
0.151228542971
0.151826552925
0.152443436197
0.153072534256
0.153710126508
0.15436698011
0.155047336199
0.155752499758
0.156482030041
0.157235443786
0.158012184004
0.158811373663
0.159631990812
0.160472273388
0.161329144232
0.162198438877
0.163075308421
0.163954514667
0.164830788653
0.165699034908
0.166554270394
0.167391476537
0.168205384639
0.168990242254
0.169739954762
0.170448715311
0.171110970279
0.171718800482
0.172260982266
0.172728092662
0.173095933183
0.173392022785
0.173694748951
0.173934829587
0.174071995798
0.174081728414
0.173985234723
0.173814473328
0.17360658652
0.173422074561
0.173215728309
0.172881937722
0.172494520007
0.172011244828
0.171278306549
0.170428297587
0.170008400496
0.169968818545
0.170129210245
0.170289297024
0.170371957463
0.170439003729
0.144717099946
0.144727796853
0.144744083601
0.144792337852
0.144853383196
0.144911669331
0.144976044718
0.145058937644
0.14514136733
0.145248570273
0.145389386881
0.145542804335
0.145704853816
0.145869451006
0.146050899333
0.1462512538
0.146461326598
0.14667994513
0.146915924254
0.147174473875
0.147459767371
0.147777510059
0.148148355665
0.148571482638
0.149008139419
0.149481270989
0.150004788178
0.150546111649
0.151116444876
0.151718881133
0.152338366371
0.152966480651
0.153607350714
0.154272505986
0.154962426921
0.155677350749
0.156417283684
0.157181975
0.157971162631
0.158784083485
0.159619843932
0.160476993789
0.161352426298
0.162241578115
0.163139406498
0.164040900703
0.164941111563
0.165835039309
0.166717606639
0.167583823651
0.168428884465
0.169248234484
0.17003793281
0.170794499792
0.171511667157
0.172173380434
0.172770149323
0.173325339528
0.173737501108
0.174055966207
0.174597884683
0.174961075425
0.175116536072
0.175042853902
0.174803803839
0.174468340217
0.174085897405
0.173741155332
0.173466262012
0.173164227848
0.172908204005
0.172474762414
0.171270367562
0.169657337292
0.169069658628
0.16923644307
0.169735381615
0.170097334469
0.170189265463
0.170337575676
0.144517618107
0.144529947195
0.144551537015
0.144588892867
0.144644527213
0.144708546855
0.14477885816
0.144866238932
0.144961857387
0.14507247989
0.145217672933
0.145374000981
0.145537489801
0.145701979228
0.145886763951
0.146097083768
0.146311751417
0.146532414314
0.146769446193
0.147028459605
0.147312416668
0.147624795235
0.147991078512
0.14842662356
0.148880016127
0.149351428443
0.149878688087
0.150429352153
0.150996377116
0.151596263422
0.152211759803
0.152841103697
0.153492450758
0.154167927042
0.154868212329
0.155593940806
0.156345509498
0.157122604313
0.1579252107
0.158753170966
0.159605671533
0.160481273915
0.161377020751
0.162288196825
0.163209606703
0.164136541884
0.165064498233
0.165988495865
0.166903134227
0.167803372199
0.168685144
0.169545937908
0.17038520489
0.171202321674
0.171985963432
0.172703843349
0.173397534882
0.174187151922
0.174541364554
0.174490060621
0.174522845526
0.174713903813
0.17485867782
0.174808513243
0.174602746345
0.174313361665
0.173990894468
0.17368334262
0.173427280189
0.173285927038
0.173519752867
0.17367899144
0.172035115422
0.167196090661
0.166830701768
0.167889370256
0.169348153267
0.170073330227
0.170002215843
0.170364161284
0.144292772103
0.144306798527
0.144338894128
0.144366416003
0.14441559326
0.144481494585
0.144556724598
0.144650130363
0.14476150728
0.144875226997
0.145023755716
0.145183464594
0.145350097847
0.145518001303
0.145705595979
0.145921032298
0.146140782519
0.146366082894
0.146606173428
0.146866827346
0.147151483566
0.14746246456
0.147820348127
0.148254291485
0.148733159625
0.149213944081
0.149730306825
0.150296520707
0.15087369996
0.151459352245
0.152069352823
0.15270413965
0.15336498817
0.154051568758
0.154763555738
0.155501361464
0.156265564711
0.157056425969
0.157873893247
0.158718072063
0.159588811721
0.160484741624
0.161402801011
0.162338195176
0.163285806197
0.164241507899
0.165201464229
0.16616063476
0.167112828817
0.168052602321
0.168977162207
0.169887198758
0.170786555949
0.171676917049
0.172538204056
0.173302722688
0.173862832079
0.174071635834
0.174295610913
0.174457984748
0.174532478447
0.174627193155
0.174708217145
0.174648361259
0.17444602341
0.174152417706
0.173810814682
0.173457439466
0.173122659793
0.172796145764
0.172426346052
0.171480485731
0.169332510041
0.167677031408
0.167824712177
0.168937231245
0.170395395479
0.17127906567
0.169233800446
0.170620816205
0.144038013267
0.144051654745
0.144083115674
0.144113156057
0.14416030734
0.14422830021
0.144306560756
0.144401327623
0.144527884978
0.144653691972
0.144805476876
0.144969578241
0.145141287237
0.14531562696
0.145507955977
0.145726464484
0.145950382603
0.146181181724
0.146425589105
0.146688908208
0.146974991986
0.147286933486
0.147639414002
0.148066298775
0.148562043031
0.149062373116
0.149572404561
0.150132617204
0.150720691005
0.151312449957
0.151919019949
0.152556328446
0.153225410403
0.153923283097
0.154647769853
0.155398584894
0.156176614836
0.156982372548
0.157816183225
0.158678193708
0.159568678929
0.160486801899
0.161429441862
0.162391426272
0.163367714919
0.16435542872
0.165352175884
0.166352538253
0.167348167538
0.168333011504
0.169306990791
0.170274805498
0.171244626407
0.172230080191
0.173172142714
0.173419052587
0.173666994498
0.173925205821
0.174140464223
0.174290585945
0.174351437441
0.174379053687
0.17436777352
0.174251287755
0.174014058865
0.173684884067
0.173296767714
0.172874897454
0.172434933097
0.171934751959
0.171282653889
0.170325103564
0.169034412968
0.168065466999
0.16794356534
0.168590619276
0.169537298546
0.16991532899
0.170950168151
0.172486033133
0.143755172993
0.143768166072
0.143801294784
0.143832533169
0.143880892648
0.143950130633
0.144031074643
0.14412403996
0.144254602815
0.144398017483
0.144558312483
0.144728706489
0.144907584877
0.145092631137
0.145290869757
0.145512659297
0.145740798251
0.145977792964
0.14622737746
0.146494357165
0.146782586336
0.147095740355
0.147445246891
0.147863275065
0.148361110051
0.148890543516
0.149411927774
0.149960032263
0.150543732889
0.15113874215
0.151749689141
0.152394440397
0.153072791982
0.153782014394
0.154519681677
0.155284788762
0.156077719091
0.15689961597
0.157751096814
0.1586326157
0.159544581849
0.160486674771
0.16145624287
0.16244762541
0.163455273193
0.164477970815
0.165516026824
0.166563664758
0.167608934743
0.168644770173
0.169675178717
0.170707964486
0.171758027369
0.172757007093
0.172996222376
0.173236711145
0.173487253847
0.173717919809
0.17389368427
0.174000813741
0.174029247107
0.173993836006
0.173892514989
0.173697150677
0.173394799553
0.172998876218
0.172530506501
0.172005334666
0.171427299713
0.170781772511
0.169989950939
0.168998381655
0.167880209385
0.166963954979
0.16665150861
0.167011113528
0.167867029057
0.169085692357
0.171138082939
0.173391540134
0.143446952642
0.14345837699
0.14348731287
0.143523098422
0.143577576725
0.143648508857
0.143733959129
0.143827227163
0.143958308384
0.144113098239
0.144281500991
0.144457998882
0.144642870416
0.144842276027
0.14505045626
0.145276097736
0.145509400116
0.145754296991
0.146010448278
0.146282252889
0.146573583038
0.146888272533
0.147236299165
0.147647069484
0.148140459006
0.148689325371
0.149233903614
0.149779872897
0.150353599949
0.150946174533
0.151563235211
0.152216213221
0.152904582681
0.153625400301
0.154377087983
0.155158078281
0.155967669193
0.15680694166
0.157677650004
0.158580231454
0.159515445012
0.160483739863
0.161482898153
0.162506635949
0.163547543449
0.164606866801
0.165692270182
0.166796848476
0.167897028558
0.168987645526
0.170080500031
0.171192602335
0.172245115238
0.172527187598
0.172784389766
0.173019672773
0.173240593767
0.17342187398
0.173540184211
0.173582531847
0.1735411606
0.173417563232
0.173210493028
0.172908532767
0.172504027251
0.172002553819
0.171416087364
0.170753842469
0.170017140286
0.169200444799
0.168241213177
0.167106164985
0.165898039998
0.164847131522
0.164217670303
0.164124546301
0.164593005724
0.16570704841
0.168017445362
0.170021210239
0.143117015472
0.143127146851
0.143150375729
0.143191303241
0.143251152973
0.143323665635
0.143412999544
0.143511149927
0.143640401906
0.143801974478
0.143976426388
0.144157951918
0.144346146982
0.144555263411
0.144779483478
0.145012220074
0.145251913577
0.145506018873
0.145771705116
0.14605056223
0.14634680191
0.146663610017
0.147011528056
0.147416944827
0.147900777173
0.148450660655
0.149019819199
0.149580798227
0.150153296168
0.150744328879
0.151362286449
0.152021677261
0.152720012644
0.153451545447
0.15421843646
0.155016855951
0.15584392681
0.156702357893
0.157594144702
0.158520088685
0.159480666325
0.160476780917
0.161507345257
0.162567252586
0.163649930867
0.16475626675
0.165891386576
0.167044396102
0.168199392243
0.169356504052
0.170524758478
0.171671352126
0.171987024619
0.172263865593
0.172516414844
0.172730657622
0.172900842487
0.173012509666
0.173049319003
0.173000355451
0.172859419613
0.172624613695
0.172294183077
0.171862872136
0.171326398827
0.17068635813
0.169947925118
0.169114404551
0.168183295585
0.167144391015
0.165981246141
0.164635961972
0.163150728334
0.161694991021
0.160413031528
0.159355422755
0.158481855609
0.157607818189
0.156269014183
0.153439215404
0.142766900617
0.142776919624
0.142798750256
0.1428444746
0.142905070342
0.142976873168
0.143065413061
0.143170243804
0.143297636234
0.143463656307
0.143643419556
0.143830001711
0.144022636981
0.144236023778
0.144474396305
0.14471834879
0.144966850205
0.145230024659
0.145506483517
0.145795538582
0.146100010744
0.146420456594
0.146769468936
0.147172219137
0.147647359898
0.148191731934
0.14877332457
0.149352456765
0.149927322656
0.150519003702
0.15114434734
0.151808661802
0.15251483188
0.153258898092
0.154041795974
0.154858328991
0.155704605234
0.156583886804
0.157498452895
0.158449651507
0.159438162842
0.160465189655
0.161532136798
0.162637571583
0.163771924141
0.164924198072
0.166097934783
0.167295741797
0.168518662838
0.16976510074
0.171013386085
0.171371697639
0.17166856622
0.17194357737
0.172171447614
0.172338222254
0.172437181555
0.172458802659
0.172392056417
0.172228821194
0.171964194673
0.171595562693
0.171120809302
0.17053667497
0.169839948376
0.169029387347
0.168104790261
0.167063968986
0.165900183963
0.164600960255
0.163154462649
0.16148171691
0.15954305158
0.157418274989
0.155127911116
0.15256162016
0.149463281742
0.14547693542
0.140475273749
0.139318186757
0.142393268737
0.142403843971
0.142426899996
0.142477723628
0.142538494432
0.142608839314
0.142694047922
0.142803473009
0.142927355591
0.143096186588
0.143281449137
0.143473415701
0.143671801809
0.143890878501
0.144138723024
0.144394339626
0.144653756982
0.144926835777
0.145213275368
0.145513688102
0.145829837621
0.146156635325
0.146507734204
0.146910030435
0.147378768652
0.147915500756
0.148500133654
0.149092275651
0.149681057866
0.150277462358
0.150909052031
0.151580750756
0.152292555989
0.153043778003
0.153840016247
0.154677796814
0.155546994595
0.156449679166
0.15738863636
0.158366708976
0.159386058918
0.160448797918
0.161560998093
0.16272080379
0.163903824281
0.1650943867
0.166305301192
0.167561010104
0.16889031558
0.170256836549
0.170687903778
0.171000427223
0.171301938894
0.171550959505
0.171726577779
0.171820842656
0.171827254584
0.171738674589
0.171548051864
0.171249961473
0.170840775824
0.170317973408
0.169679141617
0.168921075598
0.168039830643
0.167031128469
0.165889591517
0.164606702211
0.163168516924
0.161553636921
0.159732210827
0.157648340847
0.15515252298
0.152158140939
0.148558930437
0.143976644233
0.137574848633
0.127531650669
0.108669583259
0.0628005569955
0.14198826985
0.141999361863
0.142025845119
0.142082465504
0.142144381519
0.142214043618
0.142298278469
0.142409423981
0.142529255376
0.142698410064
0.142888930622
0.143086383568
0.143290748551
0.143515824831
0.143771258171
0.144038056108
0.144310886595
0.14459521979
0.144891191817
0.145202596183
0.145532750203
0.145869638948
0.1462235429
0.146626697173
0.147092201393
0.147620922486
0.148201777089
0.148796557056
0.14940269869
0.15001772585
0.15065496423
0.151329317136
0.152050034306
0.15281420305
0.153618471953
0.154471891629
0.155365822749
0.156294931742
0.157262222547
0.158269836967
0.159322147496
0.160428286847
0.161598513584
0.162815870954
0.16404300336
0.165274117861
0.166540815035
0.167892684992
0.169330609472
0.170095684477
0.170352593763
0.170625720371
0.170884636787
0.171071528356
0.1711665563
0.171162970836
0.171054698212
0.17083637237
0.170503639318
0.170053142454
0.169482268189
0.168788567611
0.167969032443
0.167019411571
0.165933810628
0.164704341249
0.16332015586
0.161765626243
0.160017939739
0.158044246814
0.155797500848
0.1532164862
0.150102677815
0.146177796969
0.141193916955
0.134579649937
0.125108994454
0.110360760742
0.085440701686
0.0439041482911
0.14154088598
0.141552449304
0.141582344252
0.141645198397
0.141708272395
0.14178103012
0.141866475155
0.141977792135
0.142097264552
0.142267956306
0.14246393314
0.142666897965
0.142877186214
0.143107881376
0.143369264774
0.143644991065
0.143933592935
0.144231546327
0.144537849894
0.144859935975
0.145204440653
0.145556493523
0.145915249072
0.146318545448
0.146783749477
0.14730678117
0.147882278941
0.148474876725
0.149087229563
0.149724693035
0.150382361067
0.151063590456
0.151780771688
0.152552960666
0.153374902909
0.154243848188
0.155159587468
0.156116066221
0.157113614871
0.158154900866
0.159247226218
0.160409417769
0.161644794159
0.162917953902
0.164200488096
0.165508051748
0.166891349223
0.168269817646
0.169405445728
0.169776386409
0.169986828024
0.170202338912
0.170386886015
0.170483682977
0.170473494892
0.170349603797
0.170107020157
0.169742080481
0.169252279533
0.168635649942
0.167890174669
0.167013171204
0.166000632348
0.164846564119
0.163542347031
0.162075966368
0.160430764666
0.158583452576
0.156501257222
0.154137884623
0.151427339509
0.148273096744
0.144536201506
0.139837263888
0.133678281462
0.125501727861
0.114205963079
0.0979028738384
0.0732696922579
0.0392596234882
0.141042285662
0.141056300319
0.141087978456
0.141151355288
0.141219431207
0.141301352279
0.141392767693
0.141508022424
0.141634858913
0.141803169474
0.142004114809
0.142212806279
0.142429233792
0.142665481997
0.142931814475
0.143212727186
0.143513592671
0.143829113504
0.144149074285
0.144483756009
0.144841431567
0.145212610554
0.145584834818
0.145985894103
0.146450658872
0.146970883541
0.147541813575
0.148132510556
0.148744483788
0.149394971363
0.150075539482
0.150776483306
0.151499305554
0.152270179313
0.15309958103
0.153986973539
0.154926458012
0.155911750171
0.156940641734
0.158018996407
0.15916428116
0.16039447094
0.161694787534
0.16303120041
0.16440338061
0.165859078031
0.167353321307
0.16842407345
0.168947320594
0.169263115888
0.169501654658
0.169677472563
0.169773443525
0.169762389381
0.169629245528
0.169368152601
0.168976268206
0.168451977976
0.167794305494
0.167002201839
0.166073836326
0.165005932532
0.163793107366
0.162427175436
0.160896360293
0.159184273331
0.157268423014
0.155117997086
0.152690646484
0.149927813504
0.146747706103
0.143034210829
0.138620838695
0.13323821749
0.126313043463
0.117115833305
0.104804193801
0.0880305157311
0.0643634178477
0.0344072146029
0.140497886346
0.140515929062
0.140548280445
0.140605771132
0.140682113687
0.140773980362
0.140874670157
0.140998641494
0.14113959301
0.14130522934
0.141508310595
0.141722186236
0.141945117879
0.142187450163
0.142459367427
0.142746187968
0.143053770339
0.143385131614
0.143722224623
0.144073179422
0.144444412815
0.144834400196
0.145230934107
0.145641168314
0.146098848139
0.146615118818
0.147181597778
0.147771157869
0.148381015376
0.149035404145
0.14973000128
0.150456514249
0.151197880183
0.15197115347
0.152801860349
0.153698628792