/*--------------------------------*- C++ -*----------------------------------*\
| =========                 |                                                 |
| \\      /  F ield         | OpenFOAM: The Open Source CFD Toolbox           |
|  \\    /   O peration     | Version:  v1806                                 |
|   \\  /    A nd           | Web:      www.OpenFOAM.com                      |
|    \\/     M anipulation  |                                                 |
\*---------------------------------------------------------------------------*/
FoamFile
{
    version     2.0;
    format      ascii;
    class       volScalarField;
    location    "914";
    object      pa;
}
// * * * * * * * * * * * * * * * * * * * * * * * * * * * * * * * * * * * * * //

dimensions      [0 2 -2 0 0 0 0];


internalField   nonuniform List<scalar> 
6400
(
-0.120187316183
-0.120188070981
-0.12019020692
-0.120194424395
-0.120200815466
-0.120209454977
-0.120220427107
-0.120234148269
-0.12025114408
-0.12027213624
-0.120298943648
-0.120332785273
-0.120373473909
-0.120421453131
-0.120477827208
-0.120544049176
-0.120621463309
-0.120710867859
-0.120812359297
-0.120924968838
-0.121047732524
-0.12118211252
-0.12133174867
-0.121500580067
-0.121691573646
-0.121905844859
-0.122143187205
-0.12240365013
-0.122688185824
-0.12299825225
-0.123335235707
-0.123699352353
-0.124088725319
-0.124501217105
-0.124936163577
-0.125392976
-0.125872668955
-0.126378850441
-0.126911049309
-0.127464516783
-0.128039855995
-0.128644391262
-0.129281935636
-0.129947354008
-0.130632807061
-0.131332120481
-0.132040243294
-0.13275281817
-0.13346559633
-0.134174581363
-0.134876039917
-0.135564277371
-0.13623014173
-0.136862709936
-0.137457735442
-0.138015647539
-0.13852999333
-0.138989489349
-0.139388537982
-0.139730144333
-0.140017384685
-0.14025040033
-0.14043029172
-0.14057656965
-0.140726301394
-0.140917895931
-0.141155797263
-0.141393974106
-0.141594311082
-0.141753565179
-0.141882079586
-0.141991814681
-0.142090484564
-0.142175640411
-0.142249549961
-0.142312224
-0.142362890492
-0.142395423853
-0.142415884022
-0.142424491359
-0.120186300859
-0.120187105414
-0.120189047077
-0.120193134795
-0.120199804759
-0.120208703084
-0.120219668039
-0.120232845841
-0.120249220056
-0.120269977531
-0.120296480872
-0.120329811001
-0.120370244692
-0.120418073619
-0.120474027694
-0.120539368044
-0.120616080522
-0.120705159442
-0.120806451204
-0.120918626777
-0.121040216805
-0.121173409985
-0.121322357624
-0.1214906337
-0.121681134932
-0.121894975897
-0.122131734239
-0.122391694926
-0.12267585641
-0.122985467544
-0.123321757773
-0.123685365803
-0.124074500078
-0.124486404646
-0.124920881551
-0.125377438414
-0.125856816134
-0.126363090167
-0.12689587958
-0.12744996085
-0.128025243593
-0.128630194446
-0.129269531346
-0.129936459815
-0.130622877666
-0.131323331846
-0.132032760697
-0.132746909063
-0.133461270574
-0.134171021192
-0.134872320676
-0.135561583555
-0.136230871762
-0.136865604595
-0.137462417892
-0.13802267621
-0.138536345434
-0.138994088675
-0.139393350665
-0.139734850837
-0.140020383895
-0.140253481029
-0.14043573401
-0.140585942648
-0.140739121323
-0.140932223668
-0.141173107251
-0.141411174407
-0.141610220089
-0.141769016966
-0.141897318878
-0.142007378016
-0.142107023348
-0.142193409473
-0.14226598153
-0.142325945317
-0.14237231279
-0.142403325073
-0.142422952386
-0.14242943505
-0.120183396229
-0.120184657839
-0.120186393041
-0.120190086406
-0.120196417227
-0.120206070911
-0.120217568572
-0.120230051128
-0.120245377552
-0.120265334922
-0.120291154299
-0.120323759677
-0.120363546384
-0.120410739484
-0.120465759353
-0.120529103645
-0.120603827612
-0.120692818934
-0.120793731586
-0.120904430197
-0.121023837412
-0.121154376266
-0.121301812242
-0.121469551689
-0.121658961888
-0.121871261154
-0.12210688359
-0.122365925365
-0.122649086825
-0.122957590089
-0.123292625804
-0.123655145231
-0.124043748031
-0.12445417916
-0.124886878748
-0.125343329821
-0.125822287999
-0.126327798854
-0.126861055833
-0.127416967846
-0.127995689533
-0.128603340838
-0.129243080214
-0.129910392793
-0.130598184637
-0.131300591754
-0.132012582682
-0.132729580433
-0.133447010259
-0.134160316237
-0.134865256377
-0.13555663757
-0.136226042193
-0.136864274865
-0.13746734264
-0.138030103556
-0.13854329739
-0.139000666532
-0.139399939402
-0.139741409413
-0.140027281897
-0.140260018572
-0.140445417242
-0.140604409831
-0.140770521023
-0.140972909762
-0.141207512227
-0.14143905269
-0.141639471216
-0.141801154721
-0.141932259931
-0.142043771541
-0.142140301347
-0.142221931329
-0.14229164464
-0.14234840728
-0.142390248486
-0.142418374486
-0.142435747066
-0.142441875256
-0.120179180288
-0.120180446598
-0.120181900009
-0.120185207517
-0.12019061634
-0.12019989228
-0.120213598636
-0.120225826704
-0.120239709494
-0.120258392908
-0.120283145714
-0.120314798278
-0.120353683471
-0.120399620014
-0.120452972596
-0.120515484956
-0.120589287917
-0.120675709646
-0.120772720628
-0.120878723827
-0.120995423387
-0.121125432554
-0.121271822782
-0.121437776633
-0.121625395941
-0.121835890514
-0.122069793185
-0.122327253164
-0.122608853801
-0.122915653155
-0.123249074325
-0.123609965811
-0.123997023215
-0.124406701406
-0.124836674043
-0.125290539435
-0.125770269145
-0.126275694714
-0.126808149177
-0.127366284841
-0.127949598092
-0.128561194707
-0.129203006788
-0.129871910606
-0.130562001106
-0.131267482499
-0.131983168405
-0.13270427903
-0.133426156044
-0.134144169895
-0.134853588223
-0.13554866373
-0.136221834503
-0.136865404563
-0.137473411249
-0.13803875535
-0.138553121773
-0.139011025656
-0.139410482392
-0.139751960714
-0.140037939379
-0.14027319882
-0.14046916058
-0.140645528896
-0.14082343401
-0.141024364344
-0.141256834939
-0.14148870953
-0.141691409429
-0.141855736512
-0.141986237438
-0.142092206854
-0.142182078475
-0.142262934015
-0.142332769588
-0.142384798813
-0.142419850138
-0.142445728662
-0.14246339304
-0.142470573684
-0.120172590393
-0.120172859423
-0.120174535342
-0.120177751973
-0.120183415197
-0.120191465698
-0.120203575812
-0.12021652926
-0.120230656146
-0.12024867574
-0.120272187335
-0.120302677463
-0.120340366411
-0.120385605652
-0.120438517716
-0.120498919898
-0.120568823639
-0.120649704893
-0.120741642985
-0.120844573413
-0.120959249815
-0.121087335679
-0.121231741345
-0.121395496369
-0.121580667529
-0.121788658992
-0.122020072337
-0.12227527262
-0.122554758706
-0.12285940267
-0.123190429216
-0.123549497932
-0.123935412394
-0.124341640545
-0.124768886564
-0.125220529194
-0.125698429216
-0.126204349742
-0.126738372841
-0.127299433682
-0.127887213524
-0.128503247519
-0.129148395767
-0.129820220143
-0.130513762192
-0.131223479559
-0.131944078324
-0.132670600585
-0.133398269667
-0.134122311717
-0.134837653064
-0.135538336113
-0.13621728175
-0.136867125181
-0.137480604092
-0.138049558397
-0.138566134936
-0.13902541745
-0.13942577757
-0.139768298431
-0.140056973544
-0.140300016766
-0.140511969198
-0.140706734695
-0.140894816632
-0.141098440389
-0.141328502324
-0.141559427681
-0.141763925114
-0.141928891746
-0.142054869996
-0.142154556239
-0.142245146772
-0.142329501153
-0.142395474323
-0.142440442529
-0.142471674274
-0.142498977631
-0.14251482316
-0.14251967283
-0.120160893541
-0.120160845478
-0.120163390889
-0.120166499321
-0.120172254847
-0.120180011016
-0.120191065989
-0.120203568337
-0.120218005845
-0.120235607635
-0.120257580435
-0.120286563713
-0.120323884072
-0.120368598098
-0.120418925372
-0.120475694049
-0.120540989579
-0.12061698684
-0.120704485183
-0.120803608088
-0.12091477274
-0.12103988079
-0.121181596986
-0.121342576537
-0.121524729793
-0.121729292353
-0.121957470958
-0.122209684536
-0.122486471878
-0.122788497131
-0.123116842187
-0.123472789668
-0.123854969396
-0.124259747686
-0.124683182567
-0.125131139878
-0.125608107052
-0.126114997697
-0.126651167624
-0.12721563273
-0.127808052951
-0.128429056986
-0.12907872489
-0.129754874772
-0.130453188876
-0.131168413893
-0.131895218939
-0.132628499003
-0.133363345626
-0.134094833749
-0.134817676169
-0.135525820253
-0.1362123123
-0.136869555968
-0.137489362168
-0.138063081151
-0.138583250636
-0.13904547178
-0.139448704862
-0.139795186208
-0.140090957967
-0.140346790034
-0.140577583568
-0.140787408812
-0.140986004751
-0.141198452825
-0.141432289725
-0.141661122613
-0.141862718215
-0.142022575328
-0.142142469859
-0.142243585255
-0.142341621478
-0.142424283705
-0.14248275964
-0.142521070845
-0.142551399811
-0.142575256268
-0.142586408256
-0.142590547873
-0.120143453679
-0.12014456371
-0.120148474196
-0.120152738925
-0.120156978913
-0.120164410198
-0.120175317549
-0.120187447324
-0.12020165639
-0.120218667145
-0.120240201472
-0.120267416898
-0.120303398695
-0.12034530001
-0.120392111533
-0.120444780231
-0.120505962981
-0.120577886305
-0.120661032719
-0.12075516555
-0.120861876874
-0.120983346668
-0.121121515923
-0.12127876064
-0.121457096403
-0.121658050044
-0.12188151134
-0.122129815339
-0.122403454682
-0.122702931674
-0.123027589828
-0.123378938109
-0.123757090207
-0.124156566189
-0.124577145666
-0.125023054947
-0.125499485823
-0.126007439127
-0.126546002358
-0.127114163895
-0.127711501062
-0.128338074077
-0.128993389894
-0.12967528729
-0.130379818678
-0.13110196522
-0.131836395261
-0.132577890765
-0.133321415593
-0.134061907891
-0.13479392973
-0.135511320435
-0.136207002307
-0.13687297249
-0.137500457517
-0.138080700101
-0.138606696875
-0.139074675051
-0.139484424867
-0.139839391391
-0.140147283879
-0.140419835544
-0.140667281259
-0.140893255521
-0.141109604619
-0.14133411004
-0.141571298311
-0.141794148768
-0.141986045722
-0.142138675985
-0.142260496791
-0.142372508023
-0.142474430448
-0.142549903968
-0.142599499885
-0.142631738615
-0.142658443756
-0.142673073266
-0.142675882842
-0.142677534867
-0.120123152101
-0.120125345529
-0.120129530996
-0.120135139336
-0.120139052598
-0.12014656519
-0.120156335807
-0.120168008128
-0.120181953522
-0.120196915248
-0.12021822893
-0.120244939001
-0.120277862307
-0.1203160419
-0.120358938742
-0.120407227125
-0.120464605178
-0.120532465341
-0.120610355254
-0.120699012446
-0.120800656092
-0.120917510482
-0.121051233043
-0.121204302671
-0.121378255191
-0.121574113356
-0.121793214383
-0.122034895334
-0.122305096956
-0.122601906594
-0.122922287208
-0.123266379776
-0.123638722926
-0.124033518018
-0.124450525557
-0.12489559687
-0.125372102776
-0.125881097063
-0.126422087052
-0.126994172176
-0.127596794452
-0.128229610703
-0.128891699261
-0.129580789678
-0.130293093737
-0.131023735627
-0.131767385517
-0.132518730103
-0.133272605211
-0.134023812113
-0.134766775417
-0.1354951928
-0.136201769086
-0.136878166468
-0.137515398335
-0.138104951492
-0.138640361991
-0.139118366487
-0.139539208824
-0.139906877014
-0.140229566383
-0.140518713755
-0.140784315324
-0.141033872934
-0.141270368495
-0.141507694583
-0.141742883296
-0.141957695852
-0.142140244748
-0.142291014819
-0.142423316101
-0.142546552443
-0.142645559909
-0.142711542892
-0.142750447561
-0.142774191188
-0.142786925831
-0.142786950543
-0.142777051354
-0.142771508122
-0.120101210564
-0.120103880765
-0.120107705402
-0.120111662597
-0.120116391389
-0.120124948513
-0.120133760825
-0.120144551247
-0.120158575426
-0.12017277788
-0.120190656569
-0.120216292281
-0.12024682943
-0.120280834379
-0.120319734748
-0.120364650714
-0.120417306719
-0.120479847086
-0.120552105095
-0.120635223046
-0.120731290678
-0.120842429904
-0.120970209416
-0.121117684206
-0.121287759159
-0.121477014954
-0.121690460247
-0.121928028748
-0.122191081964
-0.122482003406
-0.122797888215
-0.123138248299
-0.123500591212
-0.123888838688
-0.124303779142
-0.124748283645
-0.125224941468
-0.125734993718
-0.12627844317
-0.126854655891
-0.12746299721
-0.128102807788
-0.128772822063
-0.129470599022
-0.130192356892
-0.130933261765
-0.131687959996
-0.132451034357
-0.133217165032
-0.133980986293
-0.134736774946
-0.135478090911
-0.136197497387
-0.136886606111
-0.137536683198
-0.138139770397
-0.138689621625
-0.139182578414
-0.139618470264
-0.140001543139
-0.140340167864
-0.140646900669
-0.1409338456
-0.141207535888
-0.141468184258
-0.141720380895
-0.141959288391
-0.142161760008
-0.142335704767
-0.142488707647
-0.14263656106
-0.142767601691
-0.142861402107
-0.14291628595
-0.142940489744
-0.142945861249
-0.142933859301
-0.142910757362
-0.142884087502
-0.142867819417
-0.120077438827
-0.120080273424
-0.120084294226
-0.120087174843
-0.12009187083
-0.120099495214
-0.120107399068
-0.120116729695
-0.120128780241
-0.120144293295
-0.120159825161
-0.120182348955
-0.120209921398
-0.120240227272
-0.120274484815
-0.120315792092
-0.120364178505
-0.12042058948
-0.120486293484
-0.120563284903
-0.12065351571
-0.120758617063
-0.120879687417
-0.121019038655
-0.121183478907
-0.12136829924
-0.121571399835
-0.121803283716
-0.122059483391
-0.122344691394
-0.122654455693
-0.122987570769
-0.123343522367
-0.123724867784
-0.124136509242
-0.124580070006
-0.12505682308
-0.125567953719
-0.126113909413
-0.126694436638
-0.127308959467
-0.127956588378
-0.1286357474
-0.129343785122
-0.130076834121
-0.130830016421
-0.131597899989
-0.132374917385
-0.133155526981
-0.133934128569
-0.134704825516
-0.135461111532
-0.13619565941
-0.136900536706
-0.137567879628
-0.138190453245
-0.138760819808
-0.139272782331
-0.139726129986
-0.140128068756
-0.140485775113
-0.140811585035
-0.141120220985
-0.141416597168
-0.141701131614
-0.141969935525
-0.14221057374
-0.142417011908
-0.14258151315
-0.14273387665
-0.14290183962
-0.143042318878
-0.143133079832
-0.143174913106
-0.143175933999
-0.143148698023
-0.143101448529
-0.143044377562
-0.142994365274
-0.142964425515
-0.120051071603
-0.120053498572
-0.120057317555
-0.120060234133
-0.120065737199
-0.120071073077
-0.120077546154
-0.120085407244
-0.120093579135
-0.120108138175
-0.120122915338
-0.120142413679
-0.120166632343
-0.120193927602
-0.120224106512
-0.120260292906
-0.120303633456
-0.12035400444
-0.120412864745
-0.120482672286
-0.120566058701
-0.120665001974
-0.120780549584
-0.120910948533
-0.121064121431
-0.121244359076
-0.121440659697
-0.121662630008
-0.12191083002
-0.122184075998
-0.122488212432
-0.122815040779
-0.123164250012
-0.123540109659
-0.123948137485
-0.124389981836
-0.124866457652
-0.125378608854
-0.125927131892
-0.12651215038
-0.12713331041
-0.127789625677
-0.128479231361
-0.129199225616
-0.129945600366
-0.130713381829
-0.131496996951
-0.132290629654
-0.133088389306
-0.133884323767
-0.134672321964
-0.135445944199
-0.1361983868
-0.136922936385
-0.137613430712
-0.138263485717
-0.138860719802
-0.139393015278
-0.139866245552
-0.140298188909
-0.140682835475
-0.141024850069
-0.141350939273
-0.141665773768
-0.141969035975
-0.142252267491
-0.142503353927
-0.142717432959
-0.142873208222
-0.143014364145
-0.143225437894
-0.143388966654
-0.14348136234
-0.143504994389
-0.143465655992
-0.143389363195
-0.143295314944
-0.143187551928
-0.14310096157
-0.143049904998
-0.120021546327
-0.120023075706
-0.120025147592
-0.120028893536
-0.120035009768
-0.120038858368
-0.120043934327
-0.120050703462
-0.120056023293
-0.120066622649
-0.120079784336
-0.120096315091
-0.120116692029
-0.120140803634
-0.120168340884
-0.120199106876
-0.120236148533
-0.120279911425
-0.120331690458
-0.120393555725
-0.12046826361
-0.12055892979
-0.120669559406
-0.120794660947
-0.120934573968
-0.121103705427
-0.121293721871
-0.121503163294
-0.12174436672
-0.122009352059
-0.122300629407
-0.122617930387
-0.12296067202
-0.123332636404
-0.123737166145
-0.124176633861
-0.124652329416
-0.125165344832
-0.125716517107
-0.126306227105
-0.126934444419
-0.127600310694
-0.128301747539
-0.129035544572
-0.129797521746
-0.130582606884
-0.131385031266
-0.132198581351
-0.133016805595
-0.133833203333
-0.134641360657
-0.135435054928
-0.136208507687
-0.136957202638
-0.137677829962
-0.138366296253
-0.138997291177
-0.139546903197
-0.140043969367
-0.140537656074
-0.140965006416
-0.141303798802
-0.141635951587
-0.141963134902
-0.142286028875
-0.142589962586
-0.142855949919
-0.143081010477
-0.143255947143
-0.143281699568
-0.143611496493
-0.14382839644
-0.143932698938
-0.143929196455
-0.143820870038
-0.143673931054
-0.143524383348
-0.143330394204
-0.143184437156
-0.143095593312
-0.119989162254
-0.119989832859
-0.119989747067
-0.119993416664
-0.119998097963
-0.120001602498
-0.12000563565
-0.120010900839
-0.120014855075
-0.120021847409
-0.120031615114
-0.120044438075
-0.120060426069
-0.12007982049
-0.120104000124
-0.120130287623
-0.120161247345
-0.120198071662
-0.120242404995
-0.120296015188
-0.120361055304
-0.120440809179
-0.120542243806
-0.120663788708
-0.120794509021
-0.120947712643
-0.121129504742
-0.121328019604
-0.12155374236
-0.121809563544
-0.122091313747
-0.122399352261
-0.122734102392
-0.123100786203
-0.123501471877
-0.1239381916
-0.124412643581
-0.12492620978
-0.125480064762
-0.126074792482
-0.126710548234
-0.127386770798
-0.128101421645
-0.128851018225
-0.129631164343
-0.130436722232
-0.131261714928
-0.132099342387
-0.132942269604
-0.133783128851
-0.134615007059
-0.135431998472
-0.136229638162
-0.137006311003
-0.137762680407
-0.138507917183
-0.139188334937
-0.139741457286
-0.140260306919
-0.140932384301
-0.141482932023
-0.141716599941
-0.142046032486
-0.142390607898
-0.142744197644
-0.1430640435
-0.14337606286
-0.143228491098
-0.143187540728
-0.14336352012
-0.144276418665
-0.144610387885
-0.144696887558
-0.144628513307
-0.144323862827
-0.143984074153
-0.143793702103
-0.143445381671
-0.143216161781
-0.143056557183
-0.119954496753
-0.11995498796
-0.119955106731
-0.119955982271
-0.119957938153
-0.119960467924
-0.119963244305
-0.119966131004
-0.119969365567
-0.119972914314
-0.119978700568
-0.119987278358
-0.119998531746
-0.120012503342
-0.120030487205
-0.120052069052
-0.120077661084
-0.120107787095
-0.120144371044
-0.120189350364
-0.120244561247
-0.120312521685
-0.120400917512
-0.120514719407
-0.12064012172
-0.120777506091
-0.12094614509
-0.121136216714
-0.121345274724
-0.121585978678
-0.121855772815
-0.122153940454
-0.122482227097
-0.122843161194
-0.123239140785
-0.12367248395
-0.1241452974
-0.124659135158
-0.125215462198
-0.125815414938
-0.126459353456
-0.12714684926
-0.127876070108
-0.128643505488
-0.129444648837
-0.13027438717
-0.131126570688
-0.131993587979
-0.132866755804
-0.133737365266
-0.134597655984
-0.1354420383
-0.136266612236
-0.137070975822
-0.137856954668
-0.138705897268
-0.139495530839
-0.139982816929
-0.140407395602
-0.141319724011
-0.141311034514
-0.141245681641
-0.141300353921
-0.141368193444
-0.141462945154
-0.141584100383
-0.141837699255
-0.142357042447
-0.142629000319
-0.142484005106
-0.142738571618
-0.143106296961
-0.143403303804
-0.143535753703
-0.14368243493
-0.144182269423
-0.14438447998
-0.143497074869
-0.143154173057
-0.142843953314
-0.119917383693
-0.119917796468
-0.119918534645
-0.119916397061
-0.119915756654
-0.119916578651
-0.119917662395
-0.11991838263
-0.119920738327
-0.119920015657
-0.119921349963
-0.119925350589
-0.119931668117
-0.119940308196
-0.119951480089
-0.119966634579
-0.119985872746
-0.120008898308
-0.120037279402
-0.120072992008
-0.120118015025
-0.120174345735
-0.120247699438
-0.120348404012
-0.120467916163
-0.120592421987
-0.120741989716
-0.120922734755
-0.121121659982
-0.121343073848
-0.121597258011
-0.121883710749
-0.122203303085
-0.122557388644
-0.122947863354
-0.123377153316
-0.123847680667
-0.124361509332
-0.124920256751
-0.125525430366
-0.126178017325
-0.126877814332
-0.127623079132
-0.128410411768
-0.129235516014
-0.130093659477
-0.130978685777
-0.131881920818
-0.132792682624
-0.133700202508
-0.134595420099
-0.135473650354
-0.136328374092
-0.137151355363
-0.137916012976
-0.13899096877
-0.140103340334
-0.140026485053
-0.140025380534
-0.140314077365
-0.14062882433
-0.14062362215
-0.140486575534
-0.140264228121
-0.14000349308
-0.139728914212
-0.139552769269
-0.139607110144
-0.139685703436
-0.139663177862
-0.139880654219
-0.140291231687
-0.140794851707
-0.141311644932
-0.141844280015
-0.142228996323
-0.142487596367
-0.14297781533
-0.143130923847
-0.142393764669
-0.11987751796
-0.119877450087
-0.119876932904
-0.119873681737
-0.119871103672
-0.119870120609
-0.119868914701
-0.119866820269
-0.119867066314
-0.119862640555
-0.11985963054
-0.119858946541
-0.119860285322
-0.119863595028
-0.119867835097
-0.119875381523
-0.119886984164
-0.119901954838
-0.119921331484
-0.11994696556
-0.119980865307
-0.120025151043
-0.120083785433
-0.120167586708
-0.120275806505
-0.120392361734
-0.120520466903
-0.120680734016
-0.12086921329
-0.12107812382
-0.121315726867
-0.121587862605
-0.121896262092
-0.122241668345
-0.122625411173
-0.123049624224
-0.123517113822
-0.124030322029
-0.124591325559
-0.125201829107
-0.125863356762
-0.126576329541
-0.127339209353
-0.128148570997
-0.129000546814
-0.129891586908
-0.130816275864
-0.131764598942
-0.132722631347
-0.133676669428
-0.134615836246
-0.135539713651
-0.136432212597
-0.137241548218
-0.137639503398
-0.139267895817
-0.139445981167
-0.139565802116
-0.139639046632
-0.13972300946
-0.139885987603
-0.139780378364
-0.139457130718
-0.138959964231
-0.138359190492
-0.137706271362
-0.137088684164
-0.136567850094
-0.136123105973
-0.13580231378
-0.135735074206
-0.135910226811
-0.136298012313
-0.136852668302
-0.137605390868
-0.138593497915
-0.139733829759
-0.1406142888
-0.140852343014
-0.140762099033
-0.119835816235
-0.119835209584
-0.119833640686
-0.119828932903
-0.1198248791
-0.119821757484
-0.119817798085
-0.119812012399
-0.119808075941
-0.119800772635
-0.119793593774
-0.119788110921
-0.119784407199
-0.119782515083
-0.119779103008
-0.11977845646
-0.119781525479
-0.11978750481
-0.119796875561
-0.119811462942
-0.119833127318
-0.119864147702
-0.119907790052
-0.119972902305
-0.120064118077
-0.120172249903
-0.120283675827
-0.120419928842
-0.120587316272
-0.120782129992
-0.121005008903
-0.121262982494
-0.121558503534
-0.121893341482
-0.122268970766
-0.122687131909
-0.123150565147
-0.123662430809
-0.124225210269
-0.124841002789
-0.125511743198
-0.126238505109
-0.127020366527
-0.127853928486
-0.128735643568
-0.129664201418
-0.130636345117
-0.13164058881
-0.132658517749
-0.133672596709
-0.134666605529
-0.135665660919
-0.13667042394
-0.137636310945
-0.137810811592
-0.138063954361
-0.138563135114
-0.138976446329
-0.139139228476
-0.139069001773
-0.138848005707
-0.138359402376
-0.137669373499
-0.136803887498
-0.135828132588
-0.134803039323
-0.133798455335
-0.132849769891
-0.131983655447
-0.131293959378
-0.130891452575
-0.130779745059
-0.130930820145
-0.131336334956
-0.132098329132
-0.133386919831
-0.135061067546
-0.13651540273
-0.137997172607
-0.140805280861
-0.119793230413
-0.11979195123
-0.119788524152
-0.119782784726
-0.119777782848
-0.119772372086
-0.119765557201
-0.119756291814
-0.119747781929
-0.119735992658
-0.119723914256
-0.119713035392
-0.119703609139
-0.119695946167
-0.119684487799
-0.119675320394
-0.119669208942
-0.119665546274
-0.119663989391
-0.119666542374
-0.119674819752
-0.119691200339
-0.119718744861
-0.119764094536
-0.11983398521
-0.119927103954
-0.120028693487
-0.120143720107
-0.120286557723
-0.12045964905
-0.120664233231
-0.120905884199
-0.121186460181
-0.12150882033
-0.121874863611
-0.122285734282
-0.122744343275
-0.123254075811
-0.123818136067
-0.124438920477
-0.125118827908
-0.125859897011
-0.126661995699
-0.127521917767
-0.128435447319
-0.129403948072
-0.130430917893
-0.131506047079
-0.132601828645
-0.133693499508
-0.134736465156
-0.135826480074
-0.13698372751
-0.137230948882
-0.137426939393
-0.137607768812
-0.138085684742
-0.138365091483
-0.138279261528
-0.137873371952
-0.137192539585
-0.136227698311
-0.135067465331
-0.133750187682
-0.132336356461
-0.130885185264
-0.129458587396
-0.128095808017
-0.126837442548
-0.125764440724
-0.1249770007
-0.124521214504
-0.12435854681
-0.124517489993
-0.12518179214
-0.126594286201
-0.128539784862
-0.130204291569
-0.133181145099
-0.144440717318
-0.119750927159
-0.119748928651
-0.119743530656
-0.119736966488
-0.119730680713
-0.119722737971
-0.119712773642
-0.119700383343
-0.119686722455
-0.119669403558
-0.11965148242
-0.119634339055
-0.11961809245
-0.119602432633
-0.119583319838
-0.119565459515
-0.119549532551
-0.119535242905
-0.119522168353
-0.119511934046
-0.119505793744
-0.119506065445
-0.119516206702
-0.119540613522
-0.119586118181
-0.119656888665
-0.119744861095
-0.119841986695
-0.119961248307
-0.120110986287
-0.120293040234
-0.120514217444
-0.120777521345
-0.121084664202
-0.121439008044
-0.121841169174
-0.122293670652
-0.122800493281
-0.123365323756
-0.123991068271
-0.1246801847
-0.125435437238
-0.126257896714
-0.127145345137
-0.128094288158
-0.129108397449
-0.130195814796
-0.131349348139
-0.132545818711
-0.133760299982
-0.134792484042
-0.135925564649
-0.136283945203
-0.136656965157
-0.137116566182
-0.137425222513
-0.13764111636
-0.137476438429
-0.136907375935
-0.135998050727
-0.134787986911
-0.133306760928
-0.131635045546
-0.129819616615
-0.127916329566
-0.125975975733
-0.124047917923
-0.122167283717
-0.120367212927
-0.118699828543
-0.11724625976
-0.116080608781
-0.115165660958
-0.114529773947
-0.114360447747
-0.114996399265
-0.116347297907
-0.117073370856
-0.11694412413
-0.122025743411
-0.119709751824
-0.119707158378
-0.119700464682
-0.119692916257
-0.119684522733
-0.119673572665
-0.119659794403
-0.119644081975
-0.119624933124
-0.119601557634
-0.119577164212
-0.119553076622
-0.11952924756
-0.119504255987
-0.119476771653
-0.11944953468
-0.119422970603
-0.119396720044
-0.119371100264
-0.11934723079
-0.119325757452
-0.119308531048
-0.11929976335
-0.119302042979
-0.119321464513
-0.119364495738
-0.119428867458
-0.119507641685
-0.119604687581
-0.119729975669
-0.119888343878
-0.120084510839
-0.120325992543
-0.120615150891
-0.120956043365
-0.121348404246
-0.121793620621
-0.122296381317
-0.122861090749
-0.123491371057
-0.12418992822
-0.124959601022
-0.125803066334
-0.126719753958
-0.127706879498
-0.12876694726
-0.129912959833
-0.131154652819
-0.132486062435
-0.133941567125
-0.134763431654
-0.135185233765
-0.135622164777
-0.136376403037
-0.136849319208
-0.136952903198
-0.136735642592
-0.136018991452
-0.134867848246
-0.133360341597
-0.13155206339
-0.129490263863
-0.127237728984
-0.124833711048
-0.122318730275
-0.119726206844
-0.117087161007
-0.114426052355
-0.111766996493
-0.109144575866
-0.106620426061
-0.104263729085
-0.102008994111
-0.0997197989044
-0.0974751368787
-0.0956972958679
-0.0943396982313
-0.0897109890372
-0.0739339595445
-0.0553924691245
-0.119670127232
-0.119666978998
-0.119659325632
-0.119650605509
-0.119639732989
-0.119625424054
-0.119607655206
-0.119588032369
-0.119562789395
-0.119533111114
-0.119501843285
-0.119470314856
-0.119438488815
-0.11940417288
-0.11936663355
-0.119328919267
-0.119290764297
-0.119251329011
-0.119211395099
-0.119172472499
-0.119134385537
-0.119098185105
-0.119068538274
-0.119047366597
-0.119039533103
-0.119052009831
-0.119087771999
-0.11914392976
-0.119221134007
-0.119317953121
-0.119447739892
-0.119616683641
-0.119832262794
-0.120096793386
-0.12041855604
-0.120799894795
-0.121237527787
-0.121735865047
-0.122299582169
-0.122933417049
-0.123641300102
-0.124426291633
-0.125291857107
-0.126237473919
-0.127258174068
-0.128358246853
-0.129559872266
-0.130903590964
-0.132457095074
-0.134979785089
-0.134328525679
-0.134600023985
-0.135356986453
-0.136182361315
-0.136312188596
-0.135977687312
-0.135175959026
-0.133829235893
-0.13203154277
-0.129864681363
-0.127393625325
-0.124669699177
-0.121740095345
-0.118633992422
-0.115379245676
-0.111999417959
-0.108517904954
-0.104955397397
-0.101328849713
-0.0976482041748
-0.0939156308992
-0.0901099121305
-0.086115355642
-0.0815587949265
-0.0762867970916
-0.0706501760229
-0.0640852151118
-0.0498046282235
-0.0118959132895
0.0435871333676
-0.119631980822
-0.119628286294
-0.119619902142
-0.119609814529
-0.119596263357
-0.119578462376
-0.119556982874
-0.119532511111
-0.119500915136
-0.119464985115
-0.119426382343
-0.119386844359
-0.119346424944
-0.119302300539
-0.119253768877
-0.119204510181
-0.119153901332
-0.119099840089
-0.11904389273
-0.118988124542
-0.118931456938
-0.118874536535
-0.118821542827
-0.118775297318
-0.118738911709
-0.11871865056
-0.118721525803
-0.118747436518
-0.118800302654
-0.118871353861
-0.118969086266
-0.119103672685
-0.119289169111
-0.119529277836
-0.119825737084
-0.120188575777
-0.120616543211
-0.121109963515
-0.121673362536
-0.122310824181
-0.123027396789
-0.123828453334
-0.124716872631
-0.125688758022
-0.126735606634
-0.12786415133
-0.129097003681
-0.130445265721
-0.131572116105
-0.132667635405
-0.133368806794
-0.133668820813
-0.135174208536
-0.135631657382
-0.135299284505
-0.134378577163
-0.132886674881
-0.130837727031
-0.12833680543
-0.125466417779
-0.122293926373
-0.11887203071
-0.115244603507
-0.111443768614
-0.10749979257
-0.103437940231
-0.099276813456
-0.0950213485976
-0.090655444781
-0.0861291265877
-0.0813404605627
-0.0761218207783
-0.0702357169135
-0.0632476700287
-0.0548449392075
-0.0451403631549
-0.0324069955302
-0.00711548111343
0.0478052866239
0.117936494923
-0.119595280061
-0.119591016925
-0.119581871742
-0.119570166476
-0.119553583159
-0.119532451311
-0.119507284335
-0.119477220211
-0.119439684463
-0.119397814709
-0.119351499268
-0.119303390816
-0.119253738133
-0.119199099945
-0.119138750813
-0.11907683879
-0.119012713046
-0.118942305356
-0.118869022685
-0.118794690957
-0.118716724366
-0.118637440007
-0.118558916239
-0.118484979111
-0.118418524674
-0.118363932147
-0.118330126978
-0.118319402298
-0.118337600778
-0.118381230006
-0.11844874577
-0.1185465736
-0.118691559714
-0.118898841407
-0.119170689748
-0.119510801575
-0.119923963041
-0.120409866939
-0.12097202436
-0.121614466095
-0.122341488398
-0.123158907716
-0.124068318886
-0.125061676461
-0.126132939238
-0.127302463283
-0.128622232745
-0.130117950793
-0.130507891464
-0.130185558674
-0.130743910253
-0.132845006849
-0.134547779433
-0.134525402571
-0.133665476348
-0.132058417555
-0.129822518447
-0.12703197039
-0.123805644562
-0.120231702512
-0.116383563799
-0.11232057351
-0.108092290761
-0.103737092308
-0.0992840681151
-0.0947462489014
-0.090114046492
-0.0853478502014
-0.0803742535653
-0.0750768992619
-0.0692663459588
-0.0626379254222