/*--------------------------------*- C++ -*----------------------------------*\
| =========                 |                                                 |
| \\      /  F ield         | OpenFOAM: The Open Source CFD Toolbox           |
|  \\    /   O peration     | Version:  v1806                                 |
|   \\  /    A nd           | Web:      www.OpenFOAM.com                      |
|    \\/     M anipulation  |                                                 |
\*---------------------------------------------------------------------------*/
FoamFile
{
    version     2.0;
    format      ascii;
    class       surfaceScalarField;
    location    "549";
    object      phi;
}
// * * * * * * * * * * * * * * * * * * * * * * * * * * * * * * * * * * * * * //

dimensions      [0 3 -1 0 0 0 0];
oriented        oriented;


internalField   nonuniform List<scalar> 
12640
(
-2.18682092913e-07
2.19494680516e-07
-4.15198748513e-07
1.97129997158e-07
-5.84678270446e-07
1.69926882905e-07
-7.25353539955e-07
1.41018811202e-07
-8.27518913839e-07
1.02480822083e-07
-8.90199285081e-07
6.30146546081e-08
-9.33328670432e-07
4.34406841121e-08
-1.00041385125e-06
6.73651292771e-08
-1.09286437144e-06
9.26984954127e-08
-1.17892104264e-06
8.62689157845e-08
-1.25730536938e-06
7.85528172722e-08
-1.3383280638e-06
8.11730548477e-08
-1.40990757586e-06
7.1713633283e-08
-1.46738652205e-06
5.7605057495e-08
-1.51873457739e-06
5.14664963346e-08
-1.57752750372e-06
5.89190598433e-08
-1.63796332095e-06
6.05540150662e-08
-1.68733974358e-06
4.94911257839e-08
-1.72399288582e-06
3.67426217238e-08
-1.75667957371e-06
3.27623466133e-08
-1.80258033051e-06
4.59643795662e-08
-1.86300040441e-06
6.04837733521e-08
-1.9258650606e-06
6.29211428443e-08
-1.98507678987e-06
5.92698423138e-08
-2.03842497747e-06
5.33996188707e-08
-2.08592597071e-06
4.75553175552e-08
-2.13001576019e-06
4.41383878879e-08
-2.16947350519e-06
3.95107320766e-08
-2.20305357165e-06
3.36263526541e-08
-2.23200552711e-06
2.9002206854e-08
-2.2595695972e-06
2.76064431149e-08
-2.28452983551e-06
2.50071210854e-08
-2.30465063478e-06
2.01650542461e-08
-2.32451699298e-06
1.99116219927e-08
-2.34427442489e-06
1.97911880262e-08
-2.36264126234e-06
1.84048579726e-08
-2.38178998504e-06
1.91760701166e-08
-2.39938823747e-06
1.76215712708e-08
-2.4125778241e-06
1.32029839646e-08
-2.42273650823e-06
1.01757581224e-08
-2.43551492091e-06
1.27889007316e-08
-2.44563911419e-06
1.01373794927e-08
-2.44288731571e-06
-2.74694686784e-09
-2.43085442995e-06
-1.20302043479e-08
-2.41378692596e-06
-1.70762128294e-08
-2.39081578511e-06
-2.29817037035e-08
-2.36127539438e-06
-2.95633135823e-08
-2.32360282158e-06
-3.76982643364e-08
-2.27773387955e-06
-4.59069870483e-08
-2.22861807905e-06
-4.91546734346e-08
-2.18181393637e-06
-4.68581151444e-08
-2.12883961972e-06
-5.30252470844e-08
-2.0510965461e-06
-7.77980560498e-08
-1.95368534373e-06
-9.74624301634e-08
-1.83920335427e-06
-1.14532603865e-07
-1.7011876711e-06
-1.38059241977e-07
-1.55848631019e-06
-1.42755444172e-07
-1.41703141043e-06
-1.41517441417e-07
-1.25557137685e-06
-1.6153151388e-07
-1.07393774796e-06
-1.81732171291e-07
-8.84931067479e-07
-1.89149045513e-07
-6.68145175629e-07
-2.16987313132e-07
-3.53572311592e-07
-3.14856297256e-07
-8.33986219776e-08
-2.70427188918e-07
7.8402907332e-08
-1.61977353859e-07
1.78655101729e-07
-1.00379800293e-07
2.49531667237e-07
-7.09953355145e-08
3.04850278727e-07
-5.54270602889e-08
3.45101178964e-07
-4.0353540244e-08
3.67220061577e-07
-2.22131838806e-08
3.6949180778e-07
-2.36019261797e-09
3.53298532877e-07
1.61102750861e-08
3.21962103928e-07
3.12621388865e-08
2.7446616937e-07
4.74177149143e-08
2.25690103861e-07
4.86990445898e-08
1.78279134365e-07
4.73128522384e-08
1.42423389123e-07
3.57767169435e-08
1.00157090017e-07
4.21408150553e-08
6.08995493649e-08
3.90541965041e-08
6.08015788812e-08
-1.13662724988e-07
3.33482742872e-07
-2.63511066941e-07
3.47389796541e-07
-4.07248183066e-07
3.13979013255e-07
-5.55138350315e-07
2.89172194812e-07
-7.38979452909e-07
2.86623824717e-07
-8.77911037135e-07
2.02247181282e-07
-9.56785202158e-07
1.22630784031e-07
-1.03011666641e-06
1.409749575e-07
-1.11025835295e-06
1.73090467793e-07
-1.19711917729e-06
1.73327093723e-07
-1.27947430386e-06
1.61086489739e-07
-1.347436741e-06
1.49277076464e-07
-1.4080243091e-06
1.3244616579e-07
-1.46514799779e-06
1.14863041725e-07
-1.51980075081e-06
1.06270395523e-07
-1.58073060389e-06
1.19978368474e-07
-1.63604417726e-06
1.15997516372e-07
-1.66386255206e-06
7.73981245734e-08
-1.68678182981e-06
5.9745656703e-08
-1.7269615666e-06
7.30009295893e-08
-1.78559717129e-06
1.04667958933e-07
-1.85957407284e-06
1.34512131452e-07
-1.93026698286e-06
1.33681635796e-07
-1.9855011694e-06
1.14552447056e-07
-2.03555246246e-06
1.03513651485e-07
-2.08692725508e-06
9.89746344048e-08
-2.13179236163e-06
8.90643175662e-08
-2.16940316295e-06
7.71638031274e-08
-2.20264691311e-06
6.69285371034e-08
-2.23224433875e-06
5.86392877153e-08
-2.25757081929e-06
5.29893422716e-08
-2.2793866679e-06
4.68644411079e-08
-2.29651661852e-06
3.73485068549e-08
-2.31437995122e-06
3.78101258401e-08
-2.33780555422e-06
4.32671772691e-08
-2.35717268909e-06
3.77954754964e-08
-2.37467732307e-06
3.67150655413e-08
-2.39691122176e-06
3.98690218135e-08
-2.42004030908e-06
3.63588938984e-08
-2.433979796e-06
2.4123014416e-08
-2.41954735737e-06
-1.61841936219e-09
-2.38922472185e-06
-2.0179587727e-08
-2.37209427386e-06
-1.98610444423e-08
-2.36442844483e-06
-1.97028540097e-08
-2.35602446893e-06
-2.54783834751e-08
-2.3447717626e-06
-3.42551273166e-08
-2.32736303993e-06
-4.6984644437e-08
-2.30342251225e-06
-6.16733860295e-08
-2.27106890714e-06
-7.82887981416e-08
-2.22163420092e-06
-9.86378527409e-08
-2.14857895199e-06
-1.1995433649e-07
-2.06869463676e-06
-1.32965857442e-07
-2.01187007199e-06
-1.34673239269e-07
-1.94434163534e-06
-1.65050683507e-07
-1.84381285935e-06
-2.15113415731e-07
-1.73759615043e-06
-2.4433479575e-07
-1.61843030601e-06
-2.61979519492e-07
-1.47401852969e-06
-2.85995803058e-07
-1.31515673481e-06
-3.20473534922e-07
-1.13250384897e-06
-3.64481946134e-07
-8.93747472923e-07
-4.28028608761e-07
-6.32526176463e-07
-4.78396380149e-07
-3.41405789761e-07
-6.06236730492e-07
-8.98782159969e-08
-5.22179700521e-07
7.3676217352e-08
-3.25683160387e-07
1.74955630418e-07
-2.0178570957e-07
2.51103123228e-07
-1.47246342979e-07
3.13885305038e-07
-1.18318839102e-07
3.57672248799e-07
-8.42382861895e-08
3.7835496081e-07
-4.29866040792e-08
3.73535152685e-07
2.37649396316e-09
3.48185980201e-07
4.13818277619e-08
3.16339879422e-07
6.30315973578e-08
2.85517468427e-07
7.81554288194e-08
2.47397496281e-07
8.67275732277e-08
2.07386311229e-07
8.72339371591e-08
1.62200161122e-07
8.08201600242e-08
1.19928129723e-07
8.42999073408e-08
6.31189253506e-08
9.57272162307e-08
1.23747478606e-07
-1.47951219116e-07
4.81876895798e-07
-2.22204523338e-07
4.21975551368e-07
-3.97535096957e-07
4.89627218167e-07
-5.99094317407e-07
4.91053462008e-07
-7.81164932316e-07
4.689997867e-07
-8.73994094152e-07
2.95320071246e-07
-9.19476027861e-07
1.6834119246e-07
-1.00066524736e-06
2.22406121213e-07
-1.09555546288e-06
2.68196812635e-07
-1.18815841745e-06
2.66117304795e-07
-1.27356377797e-06
2.46650337821e-07
-1.34523588269e-06
2.21108173967e-07
-1.40633769879e-06
1.93711054726e-07
-1.46483001584e-06
1.73520866252e-07
-1.50864240692e-06
1.50236253484e-07
-1.49311218862e-06
1.04580537225e-07
-1.44515356434e-06
6.81284515058e-08
-1.44843221374e-06
8.07496779775e-08
-1.51985589539e-06
1.31228129326e-07
-1.65130079525e-06
2.04507184356e-07
-1.78440658822e-06
2.37835978229e-07
-1.86540075557e-06
2.15574069868e-07
-1.92250505405e-06
1.90843973345e-07
-1.98382968781e-06
1.75938269595e-07
-2.04096334257e-06
1.60700321594e-07
-2.08753462238e-06
1.45602809254e-07
-2.12852181087e-06
1.30100542208e-07
-2.16602895406e-06
1.14725263645e-07
-2.19903698875e-06
9.99839001051e-08
-2.2286488839e-06
8.83050199794e-08
-2.25195241589e-06
7.63414692566e-08
-2.27192346965e-06
6.688511955e-08
-2.29249185574e-06
5.79650826417e-08
-2.30149742573e-06
4.68638650316e-08
-2.31593884188e-06
5.77399576249e-08
-2.34787356174e-06
6.97639879967e-08
-2.36913838924e-06
5.80039299137e-08
-2.38582885732e-06
5.65833745428e-08
-2.41308381974e-06
6.36303272017e-08
-2.43589889603e-06
4.6961872873e-08
-2.4493071181e-06
1.18066978065e-08
-2.45400364077e-06
-1.54649577809e-08
-2.44812850432e-06
-2.57297871534e-08
-2.43572584694e-06
-3.20992009215e-08
-2.41875321765e-06
-4.24562665722e-08
-2.39618270778e-06
-5.68320821041e-08
-2.36824814402e-06
-7.49380078109e-08
-2.3341449714e-06
-9.57979133997e-08
-2.29304564661e-06
-1.19421539934e-07
-2.24568719966e-06
-1.4603155767e-07
-2.19265923458e-06
-1.73028477172e-07
-2.12856672668e-06
-1.97107200145e-07
-2.0393726109e-06
-2.23922767343e-07
-1.93776930772e-06
-2.66707879597e-07
-1.84171649803e-06
-3.11225310559e-07
-1.73622332062e-06
-3.49887796911e-07
-1.60628393208e-06
-3.91981886455e-07
-1.4524555467e-06
-4.39890163824e-07
-1.27696079487e-06
-4.96032098094e-07
-1.07660058568e-06
-5.64921508097e-07
-8.57544019555e-07
-6.4718860443e-07
-5.87337196806e-07
-7.48766268672e-07
-3.29696107986e-07
-8.64061271668e-07
-9.99501653682e-08
-7.52103993588e-07
7.5031240977e-08
-5.00813115599e-07
1.94313282209e-07
-3.21178901182e-07
2.79689250467e-07
-2.32741879102e-07
3.35298468268e-07
-1.74021784143e-07
3.67939364729e-07
-1.16963084668e-07
3.78840539992e-07
-5.39661643189e-08
3.73936938926e-07
7.20096558048e-09
3.62869582495e-07
5.23714537912e-08
3.41390282554e-07
8.44286005265e-08
3.04283428413e-07
1.15182232259e-07
2.53097658839e-07
1.3782776279e-07
1.98813477751e-07
1.41409320704e-07
1.51240948991e-07
1.28335790024e-07
1.14029985787e-07
1.21391006424e-07
4.91982259047e-08
1.60345109374e-07
1.72942970596e-07
-1.05883188677e-07
5.87976685599e-07
-1.40557843258e-07
4.56871922338e-07
-3.41978336327e-07
6.91357340779e-07
-5.04700103055e-07
6.54094318869e-07
-5.13132133912e-07
4.77658388118e-07
-4.50968402525e-07
2.33262116797e-07
-6.20281768809e-07
3.3778388758e-07
-8.82812037138e-07
4.85121142293e-07
-1.05200536195e-06
4.37581045917e-07
-1.16574346066e-06
3.80027071302e-07
-1.26291639508e-06
3.43995241462e-07
-1.34406762296e-06
3.02438193115e-07
-1.39882253049e-06
2.48643543392e-07
-1.39320445404e-06
1.68068000937e-07
-1.34088732703e-06
9.80514706416e-08
-1.32027666126e-06
8.40612010122e-08
-1.37313487188e-06
1.21057866668e-07
-1.49404369645e-06
2.01720358458e-07
-1.64261611883e-06
2.79867784798e-07
-1.74527440549e-06
3.07236576283e-07
-1.8039592015e-06
2.96592572652e-07
-1.86623092863e-06
2.7791052459e-07
-1.93042508288e-06
2.55102318932e-07
-1.98638023966e-06
2.31951473531e-07
-2.03621004947e-06
2.10589179424e-07
-2.08102058568e-06
1.90466295564e-07
-2.12302111815e-06
1.721566473e-07
-2.16069828887e-06
1.52451602595e-07
-2.19455279039e-06
1.33891741461e-07
-2.22165131192e-06
1.15455068284e-07
-2.2470703285e-06
1.0181386732e-07
-2.26339964573e-06
8.32672198068e-08
-2.27176977821e-06
6.63812581506e-08
-2.29965195581e-06
7.4783762162e-08
-2.32377813647e-06
8.19029856224e-08
-2.34494181442e-06
9.09547947326e-08
-2.38724077893e-06
1.00329140576e-07
-2.42289635394e-06
9.22623336987e-08
-2.43670006732e-06
7.74612257632e-08
-2.44294521254e-06
5.32287704972e-08
-2.45062789757e-06
1.9510307662e-08
-2.45581938728e-06
-1.02594104727e-08
-2.45259025353e-06
-2.89451960502e-08
-2.44157532873e-06
-4.31073714426e-08
-2.42469005e-06
-5.93369062366e-08
-2.40221149117e-06
-7.93147065197e-08
-2.37414260688e-06
-1.03015269212e-07
-2.33995362536e-06
-1.30005440835e-07
-2.29911244757e-06
-1.60286572502e-07
-2.25141799722e-06
-1.93759516481e-07
-2.19529584577e-06
-2.2918824303e-07
-2.12625074805e-06
-2.66196127684e-07
-2.04142944651e-06
-3.08790335373e-07
-1.94776992867e-06
-3.60420214058e-07
-1.8444179517e-06
-4.14632134236e-07
-1.72364774459e-06
-4.70716454824e-07
-1.58107277232e-06
-5.34615916909e-07
-1.41316089422e-06
-6.0785640006e-07
-1.21714057121e-06
-6.92109098919e-07
-9.92591523168e-07
-7.89515071996e-07
-7.43583754371e-07
-8.96277028943e-07
-4.93031561891e-07
-9.9941598519e-07
-3.14623145664e-07
-1.04262757887e-06
-1.07089002727e-07
-9.59787154397e-07
9.91013111456e-08
-7.07120416979e-07
2.24914001762e-07
-4.47114723553e-07
3.09468326715e-07
-3.17371457348e-07
3.70415102639e-07
-2.35054781051e-07
4.09104239745e-07
-1.55725625962e-07
4.27482526629e-07
-7.24128582438e-08
4.25538040326e-07
9.07663692405e-09
3.98868178725e-07
7.8968038493e-08
3.45609882888e-07
1.37622982487e-07
2.82045607544e-07
1.78681205266e-07
2.21140145975e-07
1.98671305511e-07
1.58903586747e-07
2.03600263561e-07
1.04290028066e-07
1.82850462625e-07
6.88886157383e-08
1.56748603357e-07
3.49016430959e-08
1.94336460768e-07
2.07753265573e-07
-2.06103253728e-08
6.08816289151e-07
-1.25512560703e-07
5.6195388159e-07
-2.89214436157e-07
8.55338471339e-07
-4.05696361767e-07
7.70850494996e-07
-3.81820111012e-07
4.5393323338e-07
-4.73831429218e-07
3.25361555875e-07
-6.91176052613e-07
5.55256609653e-07
-8.58655538316e-07
6.5277432364e-07
-9.9677906818e-07
5.75873045276e-07
-1.12183192187e-06
5.05257595329e-07
-1.23504875549e-06
4.57405523387e-07
-1.29304025431e-06
3.6060687742e-07
-1.26763788007e-06
2.23399129409e-07
-1.23809748882e-06
1.38647192014e-07
-1.27649608698e-06
1.36537718121e-07
-1.37454508435e-06
1.82185540236e-07
-1.50948664708e-06
2.56070725548e-07
-1.62893892254e-06
3.21246113676e-07
-1.6950904277e-06
3.46095580413e-07
-1.74034255949e-06
3.52565017312e-07
-1.80094227445e-06
3.57265082784e-07
-1.86648715253e-06
3.43524923826e-07
-1.92712615282e-06
3.15805590313e-07
-1.98099309817e-06
2.85881333901e-07
-2.02936153099e-06
2.59015706302e-07
-2.07518436718e-06
2.36347930989e-07
-2.11501819472e-06
2.12041071641e-07
-2.15335549889e-06
1.90842980815e-07
-2.18431442267e-06
1.64906066082e-07
-2.21146139222e-06
1.42659106309e-07
-2.226832319e-06
1.17238688383e-07
-2.24873746929e-06
1.05219448704e-07
-2.28613212608e-06
1.03817289293e-07
-2.3062676455e-06
9.49545304185e-08
-2.33652344429e-06
1.12187696975e-07
-2.3788121824e-06
1.33272991232e-07
-2.40881730289e-06
1.30363376592e-07
-2.42952267439e-06
1.12998634962e-07
-2.4417634837e-06
8.97298717327e-08
-2.4493338161e-06
6.08256455885e-08
-2.45655554803e-06
2.67539660205e-08
-2.46127116314e-06
-5.52358326177e-09
-2.45909695279e-06
-3.11035593835e-08
-2.44928751708e-06
-5.29026448826e-08
-2.43299448684e-06
-7.56208444769e-08
-2.41082824732e-06
-1.01475731396e-07
-2.38283398794e-06
-1.31011807573e-07
-2.34859305112e-06
-1.64255061308e-07
-2.30750389882e-06
-2.01393090909e-07
-2.25871057849e-06
-2.42576338215e-07
-2.20024654014e-06
-2.8768251138e-07
-2.12911606694e-06
-3.37361361281e-07
-2.04424262139e-06
-3.93704919734e-07
-1.94738999663e-06
-4.57318189178e-07
-1.83575337162e-06
-5.26320701365e-07
-1.70319294886e-06
-6.03330623152e-07
-1.54467249146e-06
-6.93187295655e-07
-1.35562946182e-06
-7.96941216435e-07
-1.13467336301e-06
-9.1307597461e-07
-8.8895597206e-07
-1.03526349664e-06
-6.3864165539e-07
-1.1466050679e-06
-4.22644161618e-07
-1.21548831184e-06
-2.71615135858e-07
-1.19371527929e-06
-5.90870695673e-08
-1.17239581757e-06
1.36895171125e-07
-9.0322348908e-07
2.74148030455e-07
-5.84409267306e-07
3.67282961155e-07
-4.10600154105e-07
4.29684103444e-07
-2.97506106598e-07
4.67984173633e-07
-1.9407015651e-07
4.85658359719e-07
-9.01310840246e-08
4.69862366382e-07
2.48223050654e-08
4.1203421673e-07
1.3675234296e-07
3.37394216696e-07
2.12221420786e-07
2.62818425896e-07
2.53230974329e-07
1.89534310371e-07
2.71925358972e-07
1.23886399886e-07
2.69205783787e-07
8.43148677444e-08
2.22455739817e-07
5.08274610746e-08
1.90218969248e-07
1.98006331441e-08
2.25246074613e-07
2.27595489218e-07
-1.00292354013e-08
6.18906252351e-07
-1.54835953837e-07
7.06918883883e-07
-2.45529470035e-07
9.46270361578e-07
-3.01274456e-07
8.2678130485e-07
-2.95159488232e-07
4.47913371602e-07
-5.19109020269e-07
5.49415115875e-07
-7.3504124544e-07
7.71339269809e-07
-8.37764308989e-07
7.55647402624e-07
-9.52568548682e-07
6.90852617956e-07
-1.05939859407e-06
6.12278894686e-07
-1.11204242531e-06
5.10231031725e-07
-1.06678597599e-06
3.15497133264e-07
-1.0592216016e-06
2.15937687231e-07
-1.13272610995e-06
2.12230067027e-07
-1.25612471482e-06
2.60005073046e-07
-1.41783038592e-06
3.43960745624e-07
-1.55672165402e-06
3.95039725155e-07
-1.62559964569e-06
3.90208106522e-07
-1.66900162001e-06
3.89579656524e-07
-1.73500998529e-06
4.18653131075e-07
-1.80283636967e-06
4.2516787659e-07
-1.86231288311e-06
4.03072912864e-07
-1.91906723636e-06
3.72627499936e-07
-1.97455894173e-06
3.4143492691e-07
-2.0243238904e-06
3.08842083011e-07
-2.06033168686e-06
2.72411569494e-07
-2.10146993303e-06
2.53236739533e-07
-2.13663420411e-06
2.26063614808e-07
-2.16849270104e-06
1.96819728373e-07
-2.18213330996e-06
1.56354390442e-07
-2.19961440974e-06
1.34771277485e-07
-2.22600336526e-06
1.31651974693e-07
-2.25190497305e-06
1.2975357784e-07
-2.31014273241e-06
1.53222628173e-07
-2.36383757223e-06
1.65912678835e-07
-2.39722533469e-06
1.66693332711e-07
-2.4193944056e-06
1.52567150058e-07
-2.43594517567e-06
1.2958367286e-07
-2.44801377122e-06
1.01831709184e-07
-2.45699012734e-06
6.98315325533e-08
-2.46441555495e-06
3.42058295742e-08
-2.46885092851e-06
-1.06500267611e-09
-2.46728933335e-06
-3.26431530511e-08
-2.45856849819e-06
-6.16037270595e-08
-2.4431445859e-06
-9.10274530315e-08
-2.42152895147e-06
-1.23078619031e-07
-2.39378118545e-06
-1.58752065e-07
-2.35947556408e-06
-1.98559890515e-07
-2.31785201339e-06
-2.43022834321e-07
-2.26774898214e-06
-2.92692419503e-07
-2.20729736662e-06
-3.48152979031e-07
-2.13430640191e-06
-4.10377127741e-07
-2.04742738223e-06
-4.80614312833e-07
-1.94527807131e-06
-5.59504483214e-07
-1.82335527528e-06
-6.48283448291e-07
-1.67547892396e-06
-7.51249947644e-07
-1.49667051045e-06
-8.72030763078e-07
-1.28481873126e-06
-1.00880316412e-06
-1.04482271615e-06
-1.15309258657e-06
-7.92988505168e-07
-1.28705972504e-06
-5.56737225177e-07
-1.38288609966e-06
-3.6148665713e-07
-1.41073943133e-06
-1.92596382437e-07
-1.36266134793e-06
-5.68942988875e-09
-1.35939933571e-06
1.79373370154e-07
-1.0883010534e-06
3.16892915712e-07
-7.22060065735e-07
4.30091679124e-07
-5.23811103007e-07
5.11076870103e-07
-3.78548497478e-07
5.604144023e-07
-2.43443827902e-07
5.69478575117e-07
-9.92258484333e-08
5.15481407255e-07
7.87923924495e-08
4.27937165715e-07
2.24269120781e-07
3.34813491869e-07
3.05334029957e-07
2.42065966087e-07
3.45956477288e-07
1.57923374224e-07
3.56074603144e-07
1.00919521604e-07
3.2623433777e-07
6.15490812526e-08
2.61795165809e-07
3.14217771158e-08
2.20345380005e-07
1.29499601512e-08
2.43798879551e-07
2.40460612762e-07
-5.92507606612e-08
6.78304421509e-07
-2.2753219124e-07
8.75362727865e-07
-3.06709525996e-07
1.02567066306e-06
-2.69194779585e-07
7.89428292492e-07
-3.56639487612e-07
5.35445856455e-07
-6.02127196069e-07
7.95025710443e-07
-7.22969715265e-07
8.92320048846e-07
-8.11507715004e-07
8.44350740508e-07
-8.92046315838e-07
7.71556609283e-07
-1.00006489669e-06
7.20484977511e-07
-9.89498628841e-07
4.99823691069e-07
-9.66926602884e-07
2.93027873617e-07
-1.03930801797e-06
2.88396034012e-07
-1.14368512324e-06
3.16665213632e-07
-1.30127362509e-06
4.17658243389e-07
-1.45405449488e-06
4.96825421053e-07
-1.52958258124e-06
4.7065635414e-07
-1.57548035055e-06
4.36189380901e-07
-1.65418350785e-06
4.68365089426e-07
-1.73228819916e-06
4.96840128597e-07
-1.79588758886e-06
4.88845899355e-07
-1.85563834347e-06
4.6289821691e-07
-1.91361812047e-06
4.30673346945e-07
-1.96280624689e-06
3.90688397386e-07
-2.00274730393e-06
3.48846203548e-07
-2.0423468874e-06
3.12069126045e-07
-2.07245319278e-06
2.83399658556e-07
-2.10891992236e-06
2.62584426163e-07
-2.13242968826e-06
2.20384903882e-07
-2.14821133334e-06
1.72188154676e-07
-2.1798532681e-06
1.66458409481e-07
-2.21846176013e-06
1.70300068234e-07
-2.27239761814e-06
1.83721727171e-07
-2.3257674754e-06
2.06623593676e-07
-2.37704051754e-06
2.17220783981e-07
-2.40765318372e-06
1.97343931113e-07
-2.42731569432e-06
1.72268106214e-07
-2.44303247267e-06
1.45338659205e-07
-2.45597532583e-06
1.14810643049e-07
-2.46622388581e-06
8.01139806764e-08
-2.47410996887e-06
4.21231274021e-08
-2.47858043707e-06
3.4354434786e-09
-2.47753457344e-06
-3.36603703673e-08
-2.46978297927e-06
-6.93275343951e-08
-2.45532068204e-06
-1.05464120975e-07
-2.43441087819e-06
-1.43965687999e-07
-2.40700117906e-06
-1.86143291611e-07
-2.37259750761e-06
-2.32950513703e-07
-2.33034803486e-06
-2.85265144112e-07
-2.27901793665e-06
-3.44022087339e-07
-2.2168695574e-06
-4.10307203363e-07
-2.14180660121e-06
-4.85452705934e-07
-2.05146088698e-06
-5.70979721989e-07
-1.9421890328e-06
-6.68802041781e-07
-1.80814887962e-06
-7.82360224039e-07
-1.64321254552e-06
-9.16222646267e-07
-1.44412908027e-06
-1.07114075279e-06
-1.2134576785e-06
-1.23950528282e-06
-9.63012827707e-07
-1.40348576467e-06
-7.13001708609e-07
-1.53709623467e-06
-4.90269191109e-07
-1.60557856692e-06
-3.07001723092e-07
-1.59406091018e-06
-1.23818597353e-07
-1.54589792406e-06
1.87878544554e-09
-1.48511214553e-06
2.17902072919e-07
-1.30452843515e-06
3.88091532915e-07
-8.92206240952e-07
5.36496796317e-07
-6.72320804505e-07
6.48915839122e-07
-4.90977868859e-07
6.99147161515e-07
-2.93690713999e-07
6.67409029887e-07
-6.74945802589e-08
5.71654503545e-07
1.74537837233e-07
4.57399303547e-07
3.38522376637e-07
3.33971550163e-07
4.28739638113e-07
2.1656978774e-07
4.63383802121e-07
1.23805002717e-07
4.48829859563e-07
7.29935548629e-08
3.77051691134e-07
3.19281207364e-08
3.02928422317e-07
5.91988242559e-09
2.46387463978e-07
2.4616140295e-09
2.47117529753e-07
2.4295898525e-07
-1.06671650957e-07
7.85029172153e-07
-2.52145085638e-07
1.02099564057e-06
-2.8975516525e-07
1.06341482357e-06
-2.09478124741e-07
7.09241799865e-07
-3.98632802153e-07
7.2469652939e-07
-5.99451061974e-07
9.95972540982e-07
-6.91759635353e-07
9.84779699033e-07
-7.87230386753e-07
9.39975292446e-07
-8.15324481104e-07
7.99832014875e-07
-8.53672755982e-07
7.58984575814e-07
-8.32650053591e-07
4.78905454242e-07
-9.33668680263e-07
3.94121386921e-07
-1.02936352197e-06
3.8414813885e-07
-1.17280647789e-06
4.60169809015e-07
-1.33409738063e-06
5.79026991104e-07
-1.42108807568e-06
5.83904229887e-07
-1.46805112278e-06
5.17706904798e-07
-1.55513176595e-06
5.23354931141e-07
-1.64911607426e-06
5.62434677656e-07
-1.72024708229e-06
5.68055679127e-07
-1.78054750195e-06
5.49226629085e-07
-1.83885008127e-06
5.21271218029e-07
-1.90033133826e-06
4.92225341393e-07
-1.95844674511e-06
4.48873314021e-07
-1.99310922618e-06
3.83567818504e-07
-2.03590160266e-06
3.54922686096e-07
-2.06824548264e-06
3.15800606348e-07
-2.07870712242e-06
2.73101253091e-07
-2.10152126529e-06
2.43249294656e-07
-2.16466251832e-06
2.35376081555e-07
-2.20800711621e-06
2.09847110952e-07
-2.22994939159e-06
1.92276556249e-07
-2.28633324137e-06
2.40139184894e-07
-2.35026328866e-06
2.70589668577e-07
-2.38696418327e-06
2.53960972207e-07
-2.41351479777e-06
2.23935927504e-07
-2.43431901255e-06
1.93114459149e-07
-2.45129335355e-06
1.62354610197e-07
-2.46547508839e-06
1.29032864215e-07
-2.47696184168e-06
9.16392713686e-08
-2.48554535555e-06
5.07437287431e-08
-2.49035969098e-06
8.2858763692e-09
-2.48993596538e-06
-3.4047976786e-08
-2.48317016295e-06
-7.60575324958e-08
-2.46973691471e-06
-1.18862229741e-07
-2.44962324236e-06
-1.64045885028e-07
-2.42261187963e-06
-2.13124141335e-07
-2.38813083325e-06
-2.67404683339e-07
-2.34531345297e-06
-3.28061259431e-07
-2.29295993079e-06
-3.96360221592e-07
-2.22936477448e-06
-4.73895119688e-07
-2.15210833119e-06
-5.62708934749e-07
-2.05762998449e-06
-6.65467625463e-07
-1.94058814946e-06
-7.85861349455e-07
-1.79433851752e-06
-9.2863648495e-07
-1.61365824437e-06
-1.09692201333e-06
-1.39811958593e-06
-1.28671820877e-06
-1.15277913191e-06
-1.48482040436e-06
-8.90379741432e-07
-1.66593580898e-06
-6.31332706009e-07
-1.7960840452e-06
-4.03262182043e-07
-1.83370853392e-06
-2.17502871356e-07
-1.77982664561e-06
-7.28388879348e-08
-1.69059512209e-06
3.39319074374e-08
-1.59205442088e-06
2.24835415259e-07
-1.49533921159e-06
4.8049108763e-07
-1.14805266953e-06
6.68185499487e-07
-8.59974917341e-07
8.02748082333e-07
-6.25569900662e-07
8.41843927974e-07
-3.32797582267e-07
7.76255308656e-07
-1.91163684147e-09
6.50785065027e-07
3.00005499992e-07
4.94419825633e-07
4.9486614638e-07
3.26664339106e-07
5.96521805695e-07
1.78694299825e-07
6.11314024392e-07
7.85086302045e-08
5.4906995438e-07
2.06421150393e-08
4.3495925776e-07
-1.31551718446e-08
3.36733877972e-07
-2.93955132581e-08
2.62606472096e-07
-1.76209188369e-08
2.35438776207e-07
2.2527117127e-07
-1.37015422806e-07
9.22210995985e-07
-2.46184191974e-07
1.13032066329e-06
-2.39118095631e-07
1.05650055654e-06
-2.60579533115e-07
7.30787515938e-07
-4.6988605462e-07
9.34110144087e-07
-5.63725856443e-07
1.08995085455e-06
-6.50323690767e-07
1.07153348232e-06
-7.42068362713e-07
1.03187616195e-06
-7.78935592451e-07
8.36833619557e-07
-8.18137236053e-07
7.98330371465e-07
-8.4328272859e-07
5.04125404256e-07
-9.33300806735e-07
4.84198840328e-07
-1.04589062741e-06
4.96787661396e-07
-1.20520990945e-06
6.19551113674e-07
-1.34112028268e-06
7.150281916e-07
-1.39979964779e-06
6.42679995956e-07
-1.45658726595e-06
5.74580995439e-07
-1.54621846816e-06
6.13070862314e-07
-1.63251210672e-06
6.48814945956e-07
-1.70492704047e-06
6.40553241711e-07
-1.76738347062e-06
6.11756375434e-07
-1.8194862945e-06
5.73449334256e-07
-1.86581705086e-06
5.38633541013e-07
-1.91457957626e-06
4.97701521402e-07
-1.95759708821e-06
4.26651327346e-07
-1.98868792619e-06
3.86073821789e-07
-2.03426247539e-06
3.61428427283e-07
-2.08333836275e-06
3.22232171746e-07
-2.12548336574e-06
2.85445775925e-07
-2.15969548462e-06
2.69632628347e-07
-2.20356661964e-06
2.53752940494e-07
-2.27939387034e-06
2.68137321651e-07
-2.32797522712e-06
2.88755090505e-07
-2.36222474019e-06
3.04878311262e-07
-2.39299618476e-06
2.84776127734e-07
-2.41971331143e-06
2.50698540281e-07
-2.44218646451e-06
2.15633073773e-07
-2.46075862742e-06
1.80971808894e-07
-2.47624145813e-06
1.44559812828e-07
-2.48897287204e-06
1.04414232836e-07
-2.49857796576e-06
6.03919547862e-08
-2.50415037543e-06
1.39019734598e-08
-2.50456340805e-06
-3.35907278153e-08
-2.49888984987e-06
-8.16857582095e-08
-2.48659585917e-06
-1.31110303961e-07
-2.46736696707e-06
-1.83228884121e-07
-2.4408222994e-06
-2.39623619539e-07
-2.40636056494e-06
-3.01824136623e-07
-2.36315929032e-06
-3.71224298572e-07
-2.31010908857e-06
-4.49381005437e-07
-2.24550194647e-06
-5.38478728808e-07
-2.16651029432e-06
-6.41692184208e-07
-2.06852960456e-06
-7.63442488603e-07
-1.94506352073e-06
-9.09344736867e-07
-1.78920432767e-06
-1.08450174902e-06
-1.59681992809e-06
-1.28935877482e-06
-1.36841499153e-06
-1.51514785338e-06
-1.10429712065e-06
-1.74902044474e-06
-8.16759873583e-07
-1.9534349761e-06
-5.34369621167e-07
-2.07853612492e-06
-2.97744822655e-07
-2.07030427993e-06
-1.24864543071e-07
-1.95276248542e-06
7.23133364672e-10
-1.81625725524e-06
1.16933467904e-07
-1.70823709444e-06
2.47757723122e-07
-1.6264573264e-06
5.41233808784e-07
-1.44146460401e-06
8.51075231298e-07
-1.16995301015e-06
1.01599232154e-06
-7.90531065629e-07
1.04336451958e-06
-3.60201372572e-07
9.36350464457e-07
1.05075771416e-07
7.59102979995e-07
4.77226742546e-07
5.34610640947e-07
7.19371766303e-07
3.0441630811e-07
8.26647367914e-07
1.16413531568e-07
7.99399498966e-07
-2.66333085208e-09
6.68114472931e-07
-6.83074411589e-08
5.00654167398e-07
-8.48050898564e-08
3.53287165014e-07
-7.38190214141e-08
2.51698329478e-07
-4.09348754282e-08
2.02428251005e-07
1.84354662422e-07
-1.56122847018e-07
1.07837664082e-06
-2.57734203543e-07
1.23204698483e-06
-2.19927676689e-07
1.01879215334e-06
-3.10631354438e-07
8.21591836152e-07
-4.88889230634e-07
1.11250205112e-06
-5.28400697069e-07
1.12961260535e-06
-6.02184266725e-07
1.14545487767e-06
-6.45495542816e-07
1.07533213854e-06
-7.1863802167e-07
9.10088816441e-07
-7.26501547693e-07
8.06281730153e-07
-8.15103924308e-07
5.92790622324e-07
-9.25487257093e-07
5.94626955519e-07
-1.04985645754e-06
6.21212745171e-07
-1.19601584136e-06
7.65788609374e-07
-1.28372063907e-06
8.02821496037e-07
-1.32814481313e-06
6.87190777549e-07
-1.4223578104e-06
6.68878423912e-07
-1.52241337382e-06
7.13212256099e-07
-1.60542266706e-06
7.31908652351e-07
-1.68197822308e-06
7.17188055261e-07
-1.75385821446e-06
6.83718676593e-07
-1.81636843394e-06
6.36039603957e-07
-1.85476075186e-06
5.7709549951e-07
-1.8854193741e-06
5.28430680914e-07
-1.94548867016e-06
4.86783571991e-07
-1.98286835183e-06
4.23509095235e-07
-1.9949301261e-06
3.73551118555e-07
-2.0219103502e-06
3.49266956218e-07
-2.07657720537e-06
3.40158719165e-07
-2.14859695517e-06
3.41692810023e-07
-2.21622510041e-06
3.21414066053e-07
-2.27302486091e-06
3.24967527877e-07
-2.33505394021e-06
3.50820003128e-07
-2.37215561456e-06
3.42023877114e-07
-2.40066945185e-06
3.13337173009e-07
-2.42738825678e-06
2.77465260973e-07
-2.45134414068e-06
2.39637140638e-07
-2.47158004505e-06
2.01256018773e-07
-2.48838941174e-06
1.61417812928e-07
-2.50231247912e-06
1.18386198315e-07
-2.51311286422e-06
7.12420596791e-08
-2.51983620539e-06
2.06759118533e-08
-2.5214164232e-06
-3.1957772279e-08
-2.51702236504e-06
-8.60249349991e-08
-2.50603634189e-06
-1.42039053667e-07
-2.48789032035e-06
-2.013157532e-07
-2.46198245181e-06
-2.65472170271e-07
-2.42770020069e-06
-3.36048420752e-07
-2.38439025582e-06
-4.1448265693e-07
-2.33115218538e-06
-5.02573764861e-07
-2.26640435695e-06
-6.03197465932e-07
-2.18711712973e-06
-7.20957691328e-07
-2.08807354875e-06
-8.62492364595e-07
-1.96201785467e-06
-1.03539689705e-06
-1.80181866496e-06
-1.24472376701e-06
-1.60277731252e-06
-1.48842363601e-06
-1.36254806029e-06
-1.75541650352e-06
-1.06540176046e-06
-2.04618625471e-06
-7.36916217981e-07
-2.2820059435e-06
-4.25802180478e-07
-2.38965554682e-06
-1.86934010789e-07
-2.30925781202e-06
-2.71678011037e-08
-2.1125733935e-06
8.53094451462e-08
-1.92877706682e-06
2.05318724058e-07
-1.82848189291e-06
3.9354097521e-07
-1.81464968768e-06
7.33344578397e-07
-1.78158346171e-06
1.1045406895e-06
-1.54123157726e-06
1.28456864007e-06
-9.70655758858e-07
1.29664518935e-06
-3.72342719084e-07
1.14943008516e-06
2.52252387388e-07
8.928568789e-07
7.33788143833e-07
5.68063994769e-07