/*--------------------------------*- C++ -*----------------------------------*\
| =========                 |                                                 |
| \\      /  F ield         | OpenFOAM: The Open Source CFD Toolbox           |
|  \\    /   O peration     | Version:  v1806                                 |
|   \\  /    A nd           | Web:      www.OpenFOAM.com                      |
|    \\/     M anipulation  |                                                 |
\*---------------------------------------------------------------------------*/
FoamFile
{
    version     2.0;
    format      ascii;
    class       surfaceScalarField;
    location    "940";
    object      phi;
}
// * * * * * * * * * * * * * * * * * * * * * * * * * * * * * * * * * * * * * //

dimensions      [0 3 -1 0 0 0 0];
oriented        oriented;


internalField   nonuniform List<scalar> 
12640
(
-2.5570347119e-07
2.55983730706e-07
-4.78383977317e-07
2.22919765079e-07
-6.64912861553e-07
1.86707728615e-07
-8.18214507605e-07
1.53449177251e-07
-9.32190712074e-07
1.14101829905e-07
-1.00692170089e-06
7.48455789834e-08
-1.06179353715e-06
5.49758415971e-08
-1.1368086432e-06
7.51081955026e-08
-1.23286407322e-06
9.61410792934e-08
-1.32244746495e-06
8.96591128422e-08
-1.40350203227e-06
8.11199377879e-08
-1.48353655163e-06
8.00932843467e-08
-1.5538201539e-06
7.0337329834e-08
-1.61150403285e-06
5.77331955827e-08
-1.6637383608e-06
5.22799301733e-08
-1.72109898424e-06
5.74023921484e-08
-1.77933874567e-06
5.82791113652e-08
-1.82881497689e-06
4.95133445881e-08
-1.86892687705e-06
4.01479919457e-08
-1.90701061331e-06
3.81190265397e-08
-1.95419302323e-06
4.72172914103e-08
-2.00972695531e-06
5.55671015612e-08
-2.06452752536e-06
5.48322352615e-08
-2.11448801088e-06
4.99895327367e-08
-2.15898047339e-06
4.45198239167e-08
-2.19855456136e-06
3.95991334574e-08
-2.23464282032e-06
3.61120749545e-08
-2.26667164216e-06
3.20504703878e-08
-2.29411893302e-06
2.74676850906e-08
-2.31791916659e-06
2.38184048539e-08
-2.33986868212e-06
2.19664106105e-08
-2.35936107702e-06
1.95070677508e-08
-2.3754344336e-06
1.60868525383e-08
-2.39060002674e-06
1.51770793464e-08
-2.40521568663e-06
1.4626089574e-08
-2.41831911201e-06
1.31117121689e-08
-2.43046614842e-06
1.21539594119e-08
-2.44055362873e-06
1.00921373024e-08
-2.44688387256e-06
6.33329395537e-09
-2.44930689731e-06
2.42360793416e-09
-2.44959018672e-06
2.81974416505e-10
-2.44634153492e-06
-3.25247027223e-09
-2.43650770568e-06
-9.83959778045e-09
-2.42160793622e-06
-1.49079288051e-08
-2.40329307345e-06
-1.83250608565e-08
-2.38106143379e-06
-2.22440568001e-08
-2.35435795942e-06
-2.67178240776e-08
-2.32237265225e-06
-3.20013370418e-08
-2.28490693948e-06
-3.7483141292e-08
-2.24376307084e-06
-4.11618921961e-08
-2.20104726769e-06
-4.27341939686e-08
-2.15378132648e-06
-4.72836034208e-08
-2.09556341233e-06
-5.82345430787e-08
-2.02733359178e-06
-6.82446060677e-08
-1.94913807335e-06
-7.82080993868e-08
-1.85929201246e-06
-8.98566351748e-08
-1.7648587437e-06
-9.44428889614e-08
-1.66759189195e-06
-9.72768667446e-08
-1.56012528885e-06
-1.07478650607e-07
-1.44224140332e-06
-1.17898331029e-07
-1.31830007575e-06
-1.23959091384e-07
-1.17875675774e-06
-1.39565830738e-07
-1.00387686288e-06
-1.74910236984e-07
-8.03900642329e-07
-2.00013080157e-07
-6.33220630008e-07
-1.70713730269e-07
-5.11650032442e-07
-1.21600879753e-07
-4.13912217385e-07
-9.77687115476e-08
-3.25448902999e-07
-8.8499101588e-08
-2.42435489805e-07
-8.30561728742e-08
-1.64345555815e-07
-7.81386935251e-08
-9.64859508558e-08
-6.79099295097e-08
-4.38829350778e-08
-5.26495967767e-08
-7.17151372595e-09
-3.675384641e-08
1.72183205349e-08
-2.44306645925e-08
2.99589937016e-08
-1.27768969862e-08
3.47231635345e-08
-4.79632771341e-09
3.50068430226e-08
-3.1726468628e-10
2.86732940945e-08
6.3092403937e-09
1.86734208583e-08
9.9331718993e-09
1.86421424858e-08
-1.37016838466e-07
3.93178519457e-07
-3.1679186935e-07
4.02873819223e-07
-4.86524869105e-07
3.56591031215e-07
-6.54973199945e-07
3.22018945869e-07
-8.52078353217e-07
3.11324764223e-07
-9.95885816304e-07
2.1876449472e-07
-1.0788127058e-06
1.38007749104e-07
-1.15769279816e-06
1.54087878883e-07
-1.24402872577e-06
1.82565500826e-07
-1.33453483258e-06
1.80243133026e-07
-1.4190613219e-06
1.65714492753e-07
-1.4900012172e-06
1.51093615509e-07
-1.55265437521e-06
1.33044510162e-07
-1.61027575447e-06
1.15404902774e-07
-1.66465309138e-06
1.06703539155e-07
-1.72313348067e-06
1.15927140029e-07
-1.77824706472e-06
1.13432692598e-07
-1.81422604098e-06
8.55306429193e-08
-1.84642088502e-06
7.23789355434e-08
-1.89078348264e-06
8.25184159807e-08
-1.94654925019e-06
1.03018706688e-07
-2.00952890443e-06
1.18582069789e-07
-2.06802407481e-06
1.13359353863e-07
-2.11545506105e-06
9.74513196696e-08
-2.15799557275e-06
8.70878266318e-08
-2.19955915158e-06
8.11894194205e-08
-2.2361298498e-06
7.2706614408e-08
-2.2672745308e-06
6.32182945007e-08
-2.29468175825e-06
5.48952836252e-08
-2.31892719089e-06
4.80833238713e-08
-2.33993001389e-06
4.29859875662e-08
-2.35807076427e-06
3.76635486746e-08
-2.37292630842e-06
3.09557969813e-08
-2.38732104319e-06
2.95843039567e-08
-2.40366260934e-06
3.09778457429e-08
-2.41742713063e-06
2.68853600109e-08
-2.42880100769e-06
2.35346575213e-08
-2.44055213655e-06
2.18483885475e-08
-2.45101858677e-06
1.68025321649e-08
-2.45538937509e-06
6.79514122504e-09
-2.44629933885e-06
-8.80970071385e-09
-2.42865850446e-06
-2.08972992891e-08
-2.41385660382e-06
-2.46476106919e-08
-2.40107540023e-06
-2.76977876844e-08
-2.38607174675e-06
-3.33393226816e-08
-2.3677294894e-06
-4.0599603485e-08
-2.34487718124e-06
-4.95849879428e-08
-2.31741255706e-06
-5.94832185055e-08
-2.28470489862e-06
-7.02087983706e-08
-2.2435456054e-06
-8.2340651314e-08
-2.19154882954e-06
-9.47498918489e-08
-2.13490296042e-06
-1.03948428552e-07
-2.08293617056e-06
-1.10218659437e-07
-2.02368849963e-06
-1.27508372206e-07
-1.94901859686e-06
-1.52891832853e-07
-1.86826296933e-06
-1.70623817717e-07
-1.77992110851e-06
-1.8279552332e-07
-1.67974559077e-06
-1.97463266874e-07
-1.57088822241e-06
-2.16348057621e-07
-1.45088165602e-06
-2.37920033629e-07
-1.3112169485e-06
-2.6364210202e-07
-1.15686245822e-06
-2.93942992481e-07
-9.80496013496e-07
-3.51306517794e-07
-7.88275612866e-07
-3.92267359277e-07
-6.12236619142e-07
-3.46787195826e-07
-4.72884838643e-07
-2.60983498255e-07
-3.74677569473e-07
-1.96007993223e-07
-2.95611098079e-07
-1.67603182738e-07
-2.19421454948e-07
-1.59290050725e-07
-1.45021709118e-07
-1.52587688232e-07
-7.94850175486e-08
-1.33495919694e-07
-2.91821953406e-08
-1.02996876573e-07
5.75655770188e-09
-7.17348707912e-08
2.86464816466e-08
-4.73616735772e-08
4.22700143379e-08
-2.64417115565e-08
4.85106658083e-08
-1.10747795565e-08
4.73657016821e-08
7.91704764938e-10
3.96265635734e-08
1.39979184724e-08
2.27934299624e-08
2.67285880502e-08
4.13769232473e-08
-1.72170101684e-07
5.65471235958e-07
-2.67398053029e-07
4.98248062668e-07
-4.64665792048e-07
5.5400004995e-07
-6.82727475333e-07
5.40209444064e-07
-8.81054360146e-07
5.09763786632e-07
-9.88618109999e-07
3.26421451444e-07
-1.04502662797e-06
1.94511073425e-07
-1.1322362672e-06
2.41395749818e-07
-1.23184563014e-06
2.82264117025e-07
-1.32763073037e-06
2.76106297005e-07
-1.41541321826e-06
2.53564147446e-07
-1.48977575733e-06
2.25515138332e-07
-1.55308055237e-06
1.96402710462e-07
-1.61228481728e-06
1.74658742623e-07
-1.660495882e-06
1.5496136499e-07
-1.66582743423e-06
1.2130115455e-07
-1.64614143378e-06
9.37846333499e-08
-1.66415969295e-06
1.03584339928e-07
-1.73481197773e-06
1.43067052778e-07
-1.84448293443e-06
1.92225596512e-07
-1.94898699814e-06
2.07559130512e-07
-2.01569692849e-06
1.85326196735e-07
-2.06535308486e-06
1.63047772061e-07
-2.11562738113e-06
1.47755288327e-07
-2.16205065742e-06
1.33539155376e-07
-2.20116706095e-06
1.20331597561e-07
-2.23579507263e-06
1.07358997328e-07
-2.26710708761e-06
9.45525809277e-08
-2.29466165082e-06
8.24706825501e-08
-2.31903774941e-06
7.24781123819e-08
-2.33913877036e-06
6.31041536406e-08
-2.35665853649e-06
5.51985168279e-08
-2.37341292667e-06
4.77239808523e-08
-2.38425275943e-06
4.04362214065e-08
-2.39688606784e-06
4.36219846655e-08
-2.416205293e-06
4.62134374451e-08
-2.42952797897e-06
3.68644933178e-08
-2.43862132682e-06
3.09467344111e-08
-2.44957150262e-06
2.77557006057e-08
-2.45645042916e-06
1.36746999894e-08
-2.45689547752e-06
-8.36628742706e-09
-2.451607884e-06
-2.61888711809e-08
-2.44058047778e-06
-3.56813420185e-08
-2.42544303955e-06
-4.28438711822e-08
-2.4068694585e-06
-5.19240140073e-08
-2.38432226461e-06
-6.3160119375e-08
-2.35771898234e-06
-7.62039378882e-08
-2.32667838702e-06
-9.0541195045e-08
-2.29078127677e-06
-1.06124955071e-07
-2.25016730387e-06
-1.22974460198e-07
-2.20505733669e-06
-1.39880310381e-07
-2.15343826297e-06
-1.55587553535e-07
-2.09043335123e-06
-1.7324267146e-07
-2.01958916715e-06
-1.98370069225e-07
-1.94690556113e-06
-2.25589383956e-07
-1.86759374954e-06
-2.49948252212e-07
-1.77587420934e-06
-2.74524924189e-07
-1.67174328408e-06
-3.01603806073e-07
-1.55614436855e-06
-3.3195925068e-07
-1.42793864373e-06
-3.66139329554e-07
-1.28576145671e-06
-4.05835083756e-07
-1.11684022341e-06
-4.62883362049e-07
-9.19266926094e-07
-5.48904365203e-07
-7.14469734987e-07
-5.97094756686e-07
-5.44837002282e-07
-5.16449561627e-07
-4.3141493545e-07
-3.74436207531e-07
-3.34890901698e-07
-2.92565717356e-07
-2.4814135821e-07
-2.54390008754e-07
-1.71325175022e-07
-2.36148457106e-07
-1.02161162755e-07
-2.21797025833e-07
-4.37658698221e-08
-1.91935475527e-07
1.26690122122e-09
-1.48072948886e-07
3.36212402471e-08
-1.04130455879e-07
5.13884412937e-08
-6.51727659823e-08
5.98627278713e-08
-3.49554088862e-08
6.21345134648e-08
-1.3384671118e-08
5.86375160515e-08
4.2513013217e-09
4.89016815627e-08
2.37083743121e-08
2.35257531878e-08
5.20198735557e-08
6.48965301209e-08
-1.2528562771e-07
6.90894918652e-07
-1.75976828969e-07
5.49037385158e-07
-3.94464222444e-07
7.72612246952e-07
-5.76353336434e-07
7.22217245381e-07
-6.05521066461e-07
5.39021946878e-07
-5.58534049255e-07
2.79485329237e-07
-7.51247048442e-07
3.87292362965e-07
-1.02437673518e-06
5.146187498e-07
-1.19405620053e-06
4.52031047204e-07
-1.30950263458e-06
3.91628757859e-07
-1.40799828731e-06
3.52125350461e-07
-1.49131622289e-06
3.08890148016e-07
-1.55207720559e-06
2.57215095704e-07
-1.56502495482e-06
1.87653226682e-07
-1.53965353763e-06
1.29632765549e-07
-1.53663972299e-06
1.18327322041e-07
-1.59243015967e-06
1.49612946332e-07
-1.70034457181e-06
2.11536333406e-07
-1.82176556942e-06
2.64525698e-07
-1.90624938083e-06
2.76746406101e-07
-1.96069602944e-06
2.62040964448e-07
-2.01612154396e-06
2.40785279574e-07
-2.07065650264e-06
2.17614089385e-07
-2.11857783588e-06
1.95706034121e-07
-2.16131100237e-06
1.76299467125e-07
-2.19973347446e-06
1.58779582344e-07
-2.23513374962e-06
1.4278281553e-07
-2.2668835152e-06
1.26324474862e-07
-2.29495948068e-06
1.1056682088e-07
-2.31826596253e-06
9.58031168758e-08
-2.33944189156e-06
8.42967068959e-08
-2.35540558926e-06
7.11772611428e-08
-2.36712063309e-06
5.94526345045e-08
-2.38667124911e-06
5.99992375925e-08
-2.40369647989e-06
6.06579131907e-08
-2.41794509598e-06
6.04711227504e-08
-2.43903396053e-06
5.79604535544e-08
-2.455086665e-06
4.70045345085e-08
-2.46007556998e-06
3.27474681675e-08
-2.46014998307e-06
1.37498122589e-08
-2.45887197325e-06
-9.645909987e-09
-2.45450930601e-06
-3.0555490814e-08
-2.4447688545e-06
-4.54281354769e-08
-2.42999200481e-06
-5.76295003635e-08
-2.41107157396e-06
-7.08556287381e-08
-2.38812092901e-06
-8.61243938003e-08
-2.36104819857e-06
-1.0329248286e-07
-2.32957648867e-06
-1.22030723842e-07
-2.29346050746e-06
-1.42260320298e-07
-2.25260045247e-06
-1.63855258506e-07
-2.20630499304e-06
-1.86197124254e-07
-2.15259667433e-06
-2.09317536582e-07
-2.09026707199e-06
-2.3559337024e-07
-2.02177549493e-06
-2.66880357364e-07
-1.94712363305e-06
-3.00258536038e-07
-1.86287209845e-06
-3.34211193237e-07
-1.76650678718e-06
-3.70899618141e-07
-1.65646570518e-06
-4.116526291e-07
-1.53123591797e-06
-4.57192735167e-07
-1.38824225837e-06
-5.09137383449e-07
-1.22238847699e-06
-5.71695216315e-07
-1.03382054942e-06
-6.51460680204e-07
-8.51293183456e-07
-7.31447763319e-07
-6.8316659887e-07
-7.65243171246e-07
-5.10333122832e-07
-6.89313681081e-07
-3.71244961933e-07
-5.13557760034e-07
-2.6821706764e-07
-3.95627311582e-07
-1.84899560978e-07
-3.37744825834e-07
-1.14851205446e-07
-3.06236913012e-07
-5.16943410533e-08
-2.84995652571e-07
5.93745315275e-09
-2.49610053808e-07
4.7390250126e-08
-1.89565494184e-07
6.54007061896e-08
-1.22181966039e-07
7.13968139497e-08
-7.12012271513e-08
7.44267534335e-08
-3.80219667182e-08
7.14844847921e-08
-1.04779477224e-08
5.79682503061e-08
1.77387707503e-08
4.18950716511e-08
3.97401128629e-08
2.26352796015e-08
7.12755833455e-08
8.74924921984e-08
-3.28245181052e-08
7.23772854566e-07
-1.55572046151e-07
6.71859416232e-07
-3.33368055543e-07
9.50506541496e-07
-4.75841787114e-07
8.64778516902e-07
-4.72312601556e-07
5.35558097342e-07
-5.84293605319e-07
3.91521112418e-07
-8.14393944307e-07
6.17469451249e-07
-9.89332812818e-07
6.89641695968e-07
-1.13867036391e-06
6.01449436088e-07
-1.26977209881e-06
5.22801073252e-07
-1.38599807483e-06
4.68412967277e-07
-1.45657725244e-06
3.79522168142e-07
-1.45477004252e-06
2.55453443913e-07
-1.44404649143e-06
1.76971903482e-07
-1.48845365198e-06
1.74081628379e-07
-1.58193243713e-06
2.11847516048e-07
-1.69916871818e-06
2.66890354193e-07
-1.7981285672e-06
3.10536181826e-07
-1.85827121614e-06
3.2470637922e-07
-1.90515853407e-06
3.2366969993e-07
-1.96068710169e-06
3.17603924449e-07
-2.01811135446e-06
2.98242134397e-07
-2.07108328922e-06
2.70616578427e-07
-2.1182579474e-06
2.42909026592e-07
-2.16035470717e-06
2.18422813974e-07
-2.19936192299e-06
1.97811434007e-07
-2.23404285718e-06
1.77487002581e-07
-2.2663812029e-06
1.58684182751e-07
-2.29347947662e-06
1.37684762953e-07
-2.31652179687e-06
1.18863332679e-07
-2.33264845947e-06
1.00439653924e-07
-2.35146493662e-06
9.00086445642e-08
-2.37724091661e-06
8.52423474701e-08
-2.39416851348e-06
7.69392937457e-08
-2.41332963323e-06
7.98299405733e-08
-2.43560718642e-06
8.27577170666e-08
-2.45100661221e-06
7.33669350343e-08
-2.46057956867e-06
5.6582443772e-08
-2.46468001393e-06
3.68507681099e-08
-2.46507140582e-06
1.41418492279e-08
-2.46363968531e-06
-1.10792578718e-08
-2.45931882515e-06
-3.48803472035e-08
-2.45010532831e-06
-5.46480402547e-08
-2.43568347194e-06
-7.20602514267e-08
-2.4166710572e-06
-8.98794194091e-08
-2.39340252659e-06
-1.09406769611e-07
-2.36588093726e-06
-1.30830157642e-07
-2.33391181665e-06
-1.5401808562e-07
-2.29725856541e-06
-1.7893385908e-07
-2.25558715217e-06
-2.05548612928e-07
-2.20802335364e-06
-2.33784704504e-07
-2.15319109969e-06
-2.64174261658e-07
-2.09063095217e-06
-2.98177530239e-07
-2.02112885319e-06
-3.36405036741e-07
-1.94357744902e-06
-3.77824252998e-07
-1.85484091296e-06
-4.22958071593e-07
-1.75176398032e-06
-4.73978545546e-07
-1.63115630876e-06
-5.32251406957e-07
-1.48962864573e-06
-5.9870968869e-07
-1.32410684423e-06
-6.74646127904e-07
-1.13582873826e-06
-7.5996101357e-07
-9.43253058227e-07
-8.44031769206e-07
-7.76864609184e-07
-8.97840823634e-07
-6.16466431394e-07
-9.25661774875e-07
-4.6639310769e-07
-8.39417477222e-07
-3.28871213602e-07
-6.5111326052e-07
-2.09959646229e-07
-5.14575917399e-07
-1.15473599539e-07
-4.3226715808e-07
-4.16555439696e-08
-3.80091958873e-07
2.22613645174e-08
-3.48950380532e-07
7.31417152423e-08
-3.00526971164e-07
9.21955936676e-08
-2.08657539519e-07
9.35403297474e-08
-1.23551690301e-07
9.54655738206e-08
-7.31630306965e-08
9.43221502017e-08
-3.69112588156e-08
8.38135911221e-08
-2.84681657535e-12
6.7737609785e-08
3.37859239987e-08
4.90440989705e-08
5.84241506966e-08
2.39836945067e-08
9.62675277349e-08
1.11476303158e-07
-1.91239192019e-08
7.42965534016e-07
-1.82901707487e-07
8.35702434739e-07
-2.8888267369e-07
1.05656548203e-06
-3.63256578338e-07
9.39224388829e-07
-3.70961127067e-07
5.43309549692e-07
-6.21840201784e-07
6.42462612396e-07
-8.46533084003e-07
8.42240219116e-07
-9.63255073187e-07
8.06440844579e-07
-1.09316183841e-06
7.31425122994e-07
-1.21512760412e-06
6.44833330128e-07
-1.28713137874e-06
5.4047324911e-07
-1.26635270435e-06
3.58787034507e-07
-1.27176076563e-06
2.60900698067e-07
-1.35045050545e-06
2.55701519207e-07
-1.47125716998e-06
2.94930375481e-07
-1.61546119098e-06
3.56095040154e-07
-1.73370927461e-06
3.85180477746e-07
-1.79955662013e-06
3.7642268706e-07
-1.84626454217e-06
3.71451128497e-07
-1.90544247237e-06
3.82882892558e-07
-1.96503528999e-06
3.77230284028e-07
-2.01881400561e-06
3.52052295156e-07
-2.06967883265e-06
3.21510865736e-07
-2.1180912805e-06
2.91349120765e-07
-2.16127091971e-06
2.61628050423e-07
-2.19537665916e-06
2.31941189867e-07
-2.23065815509e-06
2.12790759431e-07
-2.26225010338e-06
1.90296856627e-07
-2.2899507266e-06
1.65404544633e-07
-2.30682583148e-06
1.3575586947e-07
-2.32408349135e-06
1.17713307583e-07
-2.34547656604e-06
1.1141660388e-07
-2.36634025538e-06
1.06119794871e-07
-2.40093349619e-06
1.11545066063e-07
-2.43049671529e-06
1.09404117596e-07
-2.44831959001e-06
1.00589566489e-07
-2.4595163262e-06
8.45706037974e-08
-2.46683701684e-06
6.39080167736e-08
-2.47061376417e-06
4.06303187531e-08
-2.47144587494e-06
1.49746111971e-08
-2.4700363488e-06
-1.24904000629e-08
-2.46559272358e-06
-3.93279538873e-08
-2.45658884606e-06
-6.36583890682e-08
-2.44245366781e-06
-8.62043813037e-08
-2.42347719492e-06
-1.08867408941e-07
-2.3999752943e-06
-1.3292253434e-07
-2.37200737196e-06
-1.58814402818e-07
-2.33941418998e-06
-1.86629930293e-07
-2.30192206636e-06
-2.16447076413e-07
-2.25909359995e-06
-2.48400718012e-07
-2.2101466624e-06
-2.82757339165e-07
-2.15415669921e-06
-3.20191307677e-07
-2.09066915803e-06
-3.61692123692e-07
-2.01922619373e-06
-4.07868772348e-07
-1.93771480731e-06
-4.5935287424e-07
-1.84242603162e-06
-5.18251636793e-07
-1.72905617301e-06
-5.8733784265e-07
-1.59307327875e-06
-6.68220487917e-07
-1.4309381782e-06
-7.60816337761e-07
-1.24355410975e-06
-8.62003698353e-07
-1.04232769932e-06
-9.61169285446e-07
-8.50447590182e-07
-1.03590386942e-06
-6.82912586794e-07
-1.06538194652e-06
-5.24676596706e-07
-1.08391416245e-06
-3.75740466909e-07
-9.88382171559e-07
-2.54372288068e-07
-7.7251616339e-07
-1.38043048655e-07
-6.30937676454e-07
-3.45417407849e-08
-5.35804828385e-07
5.00226573696e-08
-4.64689951252e-07
1.14481224939e-07
-4.13440933526e-07
1.3975680616e-07
-3.25834810154e-07
1.32344779724e-07
-2.01265380559e-07
1.26867470625e-07
-1.18112114385e-07
1.23967192367e-07
-7.0285291848e-08
1.17376927901e-07
-3.03554132623e-08
1.02259123402e-07
1.50850803602e-08
8.2374707201e-08
5.36458373415e-08
5.9766221628e-08
8.09857945634e-08
3.11099583842e-08
1.24927570738e-07
1.42548504416e-07
-7.33814347828e-08
8.16381606377e-07
-2.55958240094e-07
1.01833771644e-06
-3.50318078552e-07
1.15098815384e-06
-3.28791325671e-07
9.17755803027e-07
-4.39334475175e-07
6.53904722937e-07
-6.9973472167e-07
9.02932825144e-07
-8.29563046448e-07
9.7214208666e-07
-9.34122397605e-07
9.11064992903e-07
-1.03434887654e-06
8.31718177887e-07
-1.16026405531e-06
7.70802612616e-07
-1.17422160295e-06
5.5447799095e-07
-1.16920610892e-06
3.53808924585e-07
-1.25040556392e-06
3.42139127897e-07
-1.35970761382e-06
3.65044803931e-07
-1.50690295222e-06
4.42169304146e-07
-1.6409073513e-06
4.90142429449e-07
-1.71674458585e-06
4.6105776253e-07
-1.7695660675e-06
4.29281593171e-07
-1.83992208676e-06
4.41843316373e-07
-1.90744626534e-06
4.50441630003e-07
-1.9647288085e-06
4.34545101848e-07
-2.01886076026e-06
4.06214641801e-07
-2.0708760298e-06
3.73554742731e-07
-2.11621088448e-06
3.3671030746e-07
-2.154535945e-06
2.99977879104e-07
-2.19088638104e-06
2.68314706861e-07
-2.22039839247e-06
2.42324515943e-07
-2.2522735438e-06
2.22192102276e-07
-2.2767164853e-06
1.89865919949e-07
-2.29522923922e-06
1.5428554061e-07
-2.31990442799e-06
1.4240455725e-07
-2.34741669901e-06
1.38943721988e-07
-2.38194547116e-06
1.40662430689e-07
-2.41348451384e-06
1.43096659647e-07
-2.44142628511e-06
1.37356632497e-07
-2.45800456907e-06
1.17176669552e-07
-2.46773583222e-06
9.43086961729e-08
-2.47426571212e-06
7.04427666705e-08
-2.47813848218e-06
4.4505901294e-08
-2.47933917147e-06
1.61759836368e-08
-2.47797067413e-06
-1.3860486836e-08
-2.47339239541e-06
-4.39102101641e-08
-2.46444717197e-06
-7.26100345053e-08
-2.45049757887e-06
-1.00162932996e-07
-2.43157436712e-06
-1.27801959853e-07
-2.40786599496e-06
-1.5664481262e-07
-2.37939777251e-06
-1.87298972709e-07
-2.34600192962e-06
-2.20045059742e-07
-2.30738818092e-06
-2.55083099059e-07
-2.2631326683e-06
-2.92681885277e-07
-2.21261301327e-06
-3.33306171135e-07
-2.15510267193e-06
-3.77732683617e-07
-2.08982536661e-06
-4.2699860314e-07
-2.01530508243e-06
-4.82416850365e-07
-1.92842307685e-06
-5.46248207486e-07
-1.82452142291e-06
-6.2215055741e-07
-1.69819675436e-06
-7.13656472455e-07
-1.54485181473e-06
-8.21528978491e-07
-1.36416323738e-06
-9.41476669301e-07
-1.16358753558e-06
-1.0625514529e-06
-9.61345887989e-07
-1.16339415771e-06
-7.75152395682e-07
-1.22209268806e-06
-5.98541340822e-07
-1.24199787832e-06
-4.53149647181e-07
-1.22932356828e-06
-2.92547803625e-07
-1.14901109445e-06
-1.59590355283e-07
-9.05498217806e-07
-4.66872257675e-08
-7.43876491396e-07
6.49975188086e-08
-6.47521799962e-07
1.59416614325e-07
-5.59138283924e-07
2.08375089997e-07
-4.62424888056e-07
2.0077522846e-07
-3.18252151004e-07
1.79537573002e-07
-1.80064736426e-07
1.6466253232e-07
-1.03248548548e-07
1.5302669109e-07
-5.86874428423e-08
1.42124729955e-07
-1.94791750773e-08
1.28178327465e-07
2.90004250861e-08
1.05076220614e-07
7.67161883513e-08
7.48555300558e-08
1.11198415872e-07
4.12037884765e-08
1.58505068008e-07
1.83756045023e-07
-1.24822114663e-07
9.412722527e-07
-2.78516923757e-07
1.1720918104e-06
-3.33075904645e-07
1.20560607833e-06
-2.6839947456e-07
8.531218485e-07
-4.79931998983e-07
8.65490749005e-07
-6.88532701825e-07
1.11160300892e-06
-7.97229985596e-07
1.08090188836e-06
-9.08888254843e-07
1.0227857186e-06
-9.62535079786e-07
8.85414905577e-07
-1.0201307296e-06
8.28449814609e-07
-1.02354352671e-06
5.57925859025e-07
-1.13503922075e-06
4.65341978437e-07
-1.2406603017e-06
4.47798556994e-07
-1.38370000427e-06
5.08125791491e-07
-1.53190076909e-06
5.90413869028e-07
-1.61830194235e-06
5.765844735e-07
-1.67559410956e-06
5.18387033904e-07
-1.75698940143e-06
5.10712930139e-07
-1.83933516278e-06
5.2422436307e-07
-1.90418955481e-06
5.15329328573e-07
-1.95998843503e-06
4.90375323534e-07
-2.01312417881e-06
4.59379776525e-07
-2.06734844383e-06
4.2780590154e-07
-2.11869641981e-06
3.88083716873e-07
-2.15463964505e-06
3.3594472459e-07
-2.19278060687e-06
3.06477834151e-07
-2.22451283472e-06
2.74077594657e-07
-2.24110373184e-06
2.38802451666e-07
-2.26466354927e-06
2.13443632656e-07
-2.30878294963e-06
1.98421823373e-07
-2.34147140786e-06
1.75108881333e-07
-2.36036983885e-06
1.57857247135e-07
-2.39393673184e-06
1.74243254363e-07
-2.42994689131e-06
1.79119213143e-07
-2.4515611038e-06
1.58981466557e-07
-2.46612309248e-06
1.31747355257e-07
-2.47623144127e-06
1.04423891765e-07
-2.48305366807e-06
7.72698742744e-08
-2.48718192394e-06
4.86370630935e-08
-2.48867550849e-06
1.76703277222e-08
-2.48737259271e-06
-1.51648828194e-08
-2.48270065031e-06
-4.85860172112e-08
-2.47377359105e-06
-8.15434285931e-08
-2.45995443741e-06
-1.13990826328e-07
-2.44106917331e-06
-1.46698512745e-07
-2.41713248149e-06
-1.80595292318e-07
-2.38807230391e-06
-2.16375978046e-07
-2.35367724745e-06
-2.54460149569e-07
-2.31365915993e-06
-2.95125172419e-07
-2.26765942381e-06
-3.38709686169e-07
-2.21518403783e-06
-3.85813043268e-07
-2.1555220771e-06
-4.37426942694e-07
-2.08748280749e-06
-4.95072281426e-07
-2.00875743925e-06
-5.61161807432e-07
-1.9154121501e-06
-6.39610981715e-07
-1.80211350048e-06
-7.35456835118e-07
-1.66322063684e-06
-8.52521339817e-07
-1.49548599409e-06
-9.89257629336e-07
-1.30202795713e-06
-1.13491781017e-06
-1.09299159842e-06
-1.27158150341e-06
-8.85373562939e-07
-1.37101093306e-06
-6.90319530663e-07
-1.41715349754e-06
-5.19116689716e-07
-1.41321082005e-06
-3.84480970098e-07
-1.36397911751e-06
-2.43348413728e-07
-1.29016132095e-06
-6.44788074746e-08
-1.08439902203e-06
6.0949058458e-08
-8.69327483104e-07
1.74493749096e-07
-7.61097513986e-07
2.69691335717e-07
-6.54370341522e-07
3.02082655973e-07
-4.94833052121e-07
2.74774874354e-07
-2.9097267517e-07
2.35286791749e-07
-1.40580185644e-07
1.98842557869e-07
-6.68467421285e-08
1.76909236115e-07
-3.67709794515e-08
1.70469002446e-07
-1.30703906986e-08
1.64708571788e-07
3.47321571821e-08
1.39515124901e-07
1.01880248858e-07
9.70190318331e-08
1.53639201527e-07
5.13511677703e-08
2.0418465694e-07
2.35069636269e-07
-1.54727077194e-07
1.09603524103e-06
-2.71515179979e-07
1.28893489525e-06
-2.84643237549e-07
1.21877982932e-06
-3.22719229115e-07
8.91241001969e-07
-5.45933730315e-07
1.08876042532e-06
-6.523938737e-07
1.21812281393e-06
-7.5525725465e-07
1.18382153108e-06
-8.65215439027e-07
1.13279349739e-06
-9.25459846195e-07
9.45706531906e-07
-9.86096218311e-07
8.89128114744e-07
-1.02856545633e-06
6.00430106466e-07
-1.13122480308e-06
5.68035821388e-07
-1.25428078727e-06
5.70894083078e-07
-1.40873222461e-06
6.62619335075e-07
-1.53531180625e-06
7.17033138057e-07
-1.60530865177e-06
6.46618693279e-07
-1.66918333632e-06
5.82297072657e-07
-1.75208597068e-06
5.93650581259e-07
-1.83091656969e-06
6.03088920251e-07
-1.8990093431e-06
5.83454472185e-07
-1.95818769445e-06
5.49584052383e-07
-2.00814954249e-06
5.09368952018e-07
-2.05254930109e-06
4.72231418574e-07
-2.09899896184e-06
4.3455692476e-07
-2.14115244331e-06
3.78120301324e-07
-2.17161069767e-06
3.36957654633e-07
-2.20999294128e-06
3.12479634571e-07
-2.24987041036e-06
2.78698929145e-07
-2.28319266346e-06
2.46783275154e-07
-2.31211559052e-06
2.27361402113e-07
-2.34483616426e-06
2.0784552525e-07
-2.39179110364e-06
2.04827577022e-07
-2.42138535214e-06
2.03851561294e-07
-2.44226630394e-06
2.00012526572e-07
-2.46049279629e-06
1.77218400546e-07
-2.47509182718e-06
1.46355093856e-07
-2.48586172792e-06
1.15200664033e-07
-2.49317792999e-06
8.45911426883e-08
-2.49759315852e-06
5.30553251488e-08
-2.49933092944e-06
1.94090518253e-08
-2.49816439995e-06
-1.63327604437e-08
-2.49350628876e-06
-5.32478103574e-08
-2.48462118202e-06
-9.04346007134e-08
-2.47091770761e-06
-1.27702784777e-07
-2.45206458269e-06
-1.65562591517e-07
-2.42786830287e-06
-2.04805433806e-07
-2.39811405581e-06
-2.46147180351e-07
-2.36252193696e-06
-2.9007341598e-07
-2.32079567139e-06
-3.36876268884e-07
-2.27263637098e-06
-3.86899139412e-07
-2.21762845243e-06
-4.40853311929e-07
-2.15500342965e-06
-5.00090717869e-07
-2.08321858969e-06
-5.66885081781e-07
-1.99952359786e-06
-6.44899400159e-07
-1.89976037633e-06
-7.39398695004e-07
-1.77885506114e-06
-8.56369181008e-07
-1.63147647739e-06
-9.9993959379e-07
-1.45401664187e-06
-1.16673343529e-06
-1.25063160668e-06
-1.3383344568e-06
-1.02920626475e-06
-1.49303984701e-06
-8.08399094605e-07
-1.59185221915e-06
-6.00811403157e-07
-1.62476507212e-06
-4.19941582311e-07
-1.59410610395e-06
-2.71078998498e-07
-1.51285597827e-06
-1.65725891325e-07
-1.39553909621e-06
-1.00906941681e-08
-1.24004307776e-06
1.62948573925e-07
-1.04240561468e-06
2.83383718408e-07
-8.81589631046e-07
3.9302024245e-07
-7.64045261125e-07
4.27683034298e-07
-5.29533970553e-07
3.76473138938e-07
-2.39770616616e-07
2.92531889043e-07
-5.66789360943e-08
2.16616192102e-07
9.06080093659e-09
1.84235622203e-07
-4.42144401798e-09
1.99369676966e-07
-2.82281853781e-08
2.1595635273e-07
1.81107895122e-08
1.85932564416e-07
1.31870227634e-07
1.28166887379e-07
2.11401881461e-07
6.16659960488e-08
2.70615282421e-07
2.96749376277e-07
-1.71002267926e-07
1.26711136779e-06
-2.83582172456e-07
1.40157343681e-06
-2.6526819822e-07
1.20051395131e-06
-3.74813603169e-07
1.00082898664e-06
-5.6249905252e-07
1.27649928027e-06
-6.20271704432e-07
1.27594536809e-06
-7.08289393734e-07
1.27189138939e-06
-7.73377295456e-07
1.1979234932e-06
-8.6424483119e-07
1.03661317856e-06
-8.96633154957e-07
9.21552580905e-07
-9.98736263692e-07
7.02564798004e-07
-1.12202642512e-06
6.91362210626e-07
-1.25589589138e-06
7.04799254477e-07
-1.39904896205e-06
8.05811317263e-07
-1.49137444317e-06
8.0939614155e-07
-1.55271042444e-06
7.07987247907e-07
-1.64555722824e-06
6.75176896018e-07
-1.73771836378e-06
6.85845145394e-07
-1.81529991944e-06
6.80702877617e-07
-1.88738117218e-06
6.55566249458e-07
-1.95560251554e-06
6.17833131519e-07
-2.01466828261e-06
5.68461487294e-07
-2.0540499023e-06
5.11637217747e-07
-2.08647502401e-06
4.67004197172e-07
-2.13906724281e-06
4.30733924434e-07
-2.17746285152e-06
3.75373351507e-07
-2.19528950411e-06
3.30325659138e-07
-2.22203952247e-06
3.05466776489e-07
-2.26248629323e-06
2.87247623371e-07
-2.31277714071e-06
2.77668970776e-07
-2.35968804619e-06
2.54772681587e-07
-2.39724928776e-06
2.42404360642e-07
-2.43354377151e-06
2.40160305117e-07
-2.45548511566e-06
2.21966122197e-07
-2.47164861543e-06
1.93392427754e-07
-2.48568003709e-06
1.60395314335e-07
-2.49688123941e-06
1.26409035246e-07
-2.50471100568e-06
9.2426174735e-08
-2.50940640622e-06
5.77540729356e-08
-2.51130999911e-06
2.13137956088e-08
-2.51029025556e-06
-1.73535547842e-08
-2.50575415466e-06
-5.77873197569e-08
-2.49699466309e-06
-9.91998431552e-08
-2.48343497982e-06
-1.41270708173e-07
-2.46463878029e-06
-1.84369804754e-07
-2.44020227544e-06
-2.29255993074e-07
-2.40969996642e-06
-2.76667607404e-07
-2.37272910301e-06
-3.2706613715e-07
-2.32896913159e-06
-3.80663621908e-07
-2.27815378852e-06
-4.37744899285e-07
-2.21991379163e-06
-4.99130925003e-07
-2.15343104663e-06
-5.66606843707e-07
-2.0770682695e-06
-6.43290389127e-07
-1.988210464e-06
-7.33791973647e-07
-1.88369026272e-06
-8.43963287104e-07
-1.76011404001e-06
-9.80010790631e-07
-1.61104252422e-06
-1.14902599263e-06
-1.42678492335e-06
-1.35109260727e-06
-1.2142929322e-06
-1.5509097701e-06
-9.73957825491e-07
-1.73340571632e-06
-7.34374226813e-07
-1.831433198e-06
-5.00736290605e-07
-1.85839634935e-06
-2.87226974154e-07
-1.80760304396e-06
-1.08843182057e-07
-1.69123589517e-06
1.28264576731e-08
-1.51719625027e-06
9.33578577647e-08
-1.32060882433e-06
1.62831741961e-07
-1.11194939774e-06
3.54829431214e-07
-1.07366532412e-06
5.38234761325e-07
-9.47523038639e-07