/*--------------------------------*- C++ -*----------------------------------*\
| =========                 |                                                 |
| \\      /  F ield         | OpenFOAM: The Open Source CFD Toolbox           |
|  \\    /   O peration     | Version:  v1806                                 |
|   \\  /    A nd           | Web:      www.OpenFOAM.com                      |
|    \\/     M anipulation  |                                                 |
\*---------------------------------------------------------------------------*/
FoamFile
{
    version     2.0;
    format      ascii;
    class       volVectorField;
    location    "235";
    object      Ua;
}
// * * * * * * * * * * * * * * * * * * * * * * * * * * * * * * * * * * * * * //

dimensions      [0 1 -1 0 0 0 0];


internalField   nonuniform List<vector> 
6400
(
(4.8581581491e-05 6.73187478576e-05 0)
(0.000136207332342 5.41456602182e-05 0)
(0.00020102174117 4.63853157494e-05 0)
(0.000277728854459 4.3555367964e-05 0)
(0.000332949045156 2.80547231907e-05 0)
(0.000371499339866 1.43723773994e-05 0)
(0.000385460135918 8.98508595088e-06 0)
(0.000393419391584 1.64739272697e-05 0)
(0.000445872513096 2.68675421519e-05 0)
(0.000503891773053 2.6493649457e-05 0)
(0.000516642634972 2.34322465928e-05 0)
(0.000571068453251 2.76053499884e-05 0)
(0.000619232347368 2.64601975558e-05 0)
(0.00065871462665 2.20658703432e-05 0)
(0.000684796540496 1.95614240365e-05 0)
(0.000713671162474 2.24975511068e-05 0)
(0.000754646878012 2.38741395392e-05 0)
(0.000788622504281 2.1387056616e-05 0)
(0.000810122256386 1.64399163064e-05 0)
(0.000826755217134 1.30427914958e-05 0)
(0.000850912792001 1.81336294604e-05 0)
(0.000887081468973 2.51999947122e-05 0)
(0.000930801894092 2.82539599541e-05 0)
(0.000972082744144 2.95048944626e-05 0)
(0.00101302192873 2.84272641124e-05 0)
(0.00105217877833 2.61327426646e-05 0)
(0.00109291346356 2.62095439641e-05 0)
(0.00113209606801 2.55776329237e-05 0)
(0.00116574566561 2.35318816586e-05 0)
(0.00119473906534 2.17799307733e-05 0)
(0.001218677867 2.22706047421e-05 0)
(0.00124651001984 2.21192464248e-05 0)
(0.00127549831322 2.02227750599e-05 0)
(0.00129991591844 2.10897741179e-05 0)
(0.00132248485608 2.09695272534e-05 0)
(0.00135450918838 2.14889352399e-05 0)
(0.0013877044971 2.39971686021e-05 0)
(0.00139696373193 2.28917245592e-05 0)
(0.00142600722965 2.14127035272e-05 0)
(0.0014683382283 2.47394750496e-05 0)
(0.00151160384716 3.82265273923e-05 0)
(0.00155035393529 4.23351748542e-05 0)
(0.00158487039066 2.75735771612e-05 0)
(0.00160903947584 1.80878744804e-05 0)
(0.00162205210595 1.42821161515e-05 0)
(0.00162977654666 1.02264073447e-05 0)
(0.00163086868354 6.733296443e-06 0)
(0.0016231846106 2.19813714104e-06 0)
(0.0016080958965 -1.03555583527e-06 0)
(0.00158866908604 3.2627700602e-06 0)
(0.00157339109408 1.50109712884e-05 0)
(0.00159409324295 1.48331698874e-05 0)
(0.0015709329076 -1.6750560414e-05 0)
(0.00153007470422 -2.87871814361e-05 0)
(0.00146028048236 -3.68997997888e-05 0)
(0.00132292740184 -5.67925218886e-05 0)
(0.00119113502382 -4.83555608564e-05 0)
(0.00110925669808 -3.27485536754e-05 0)
(0.00105612887888 -3.90295793412e-05 0)
(0.000918699504256 -4.3572188127e-05 0)
(0.000825519149532 -3.38662862252e-05 0)
(0.000725734482475 -5.02305989249e-05 0)
(0.000657680217251 -8.79231662186e-05 0)
(0.000431975201694 -7.09606594839e-05 0)
(0.00030084310752 -4.57655979059e-05 0)
(0.00022675514267 -3.25870176281e-05 0)
(0.000174183623458 -2.86607641344e-05 0)
(0.000126862732275 -2.70838698903e-05 0)
(7.74305563677e-05 -2.66212272061e-05 0)
(2.5260957322e-05 -2.56132833443e-05 0)
(-2.46409196649e-05 -2.28862061146e-05 0)
(-6.58686438338e-05 -1.79019785162e-05 0)
(-9.32472905881e-05 -1.16361066815e-05 0)
(-0.000114557446055 -4.34746115485e-06 0)
(-0.000109677811664 9.07970783783e-07 0)
(-0.000114279837537 4.66191383065e-06 0)
(-8.65080168607e-05 4.42986152548e-06 0)
(-9.83823115838e-05 1.08447053215e-05 0)
(-4.52863486942e-05 9.77540701645e-06 0)
(-3.43895035594e-05 2.04491900509e-05 0)
(1.79076982629e-05 9.12490413823e-05 0)
(7.75288135856e-05 0.000104461333095 0)
(0.000136059193813 9.7880901912e-05 0)
(0.000172522423027 7.81145712699e-05 0)
(0.000257025625683 7.80162123023e-05 0)
(0.000343798419147 5.55197379635e-05 0)
(0.000396622538388 3.21059424667e-05 0)
(0.000430922979787 4.56625033264e-05 0)
(0.000466982509822 6.43869886934e-05 0)
(0.000508429767964 6.3386085339e-05 0)
(0.000548663590092 6.04027234405e-05 0)
(0.000585756316722 6.20642844633e-05 0)
(0.000620479371865 5.63870295959e-05 0)
(0.000652678700224 4.73671226541e-05 0)
(0.000686628607322 4.33609926617e-05 0)
(0.000720888171037 5.52081689562e-05 0)
(0.000756040309125 5.93963219242e-05 0)
(0.000782491271462 3.7166079834e-05 0)
(0.000767225782265 2.15068975822e-05 0)
(0.000790269607669 2.12259083117e-05 0)
(0.000825472263983 3.77101374765e-05 0)
(0.000871645654064 6.18959621463e-05 0)
(0.000930709487965 7.04477146212e-05 0)
(0.000980921604155 6.3880325436e-05 0)
(0.00100313737822 5.86485078798e-05 0)
(0.00105255278013 5.8014090429e-05 0)
(0.00109771072576 5.51720622259e-05 0)
(0.0011324891714 4.9667981078e-05 0)
(0.00116354117558 4.39570738341e-05 0)
(0.00119280595421 3.94677320659e-05 0)
(0.00122066051661 3.88343078443e-05 0)
(0.0012349353059 3.70399827846e-05 0)
(0.00126236895029 3.00480015675e-05 0)
(0.00128300755856 3.36658396989e-05 0)
(0.00129773055983 3.87626458567e-05 0)
(0.00134745927643 3.34531714779e-05 0)
(0.00136729979707 3.7834374659e-05 0)
(0.00137957143721 4.37542652153e-05 0)
(0.00142093913895 4.21170446943e-05 0)
(0.00148449204211 4.10367617947e-05 0)
(0.00153385791969 3.54740075695e-05 0)
(0.00142575023892 2.55001310131e-05 0)
(0.00140182967827 2.10558955146e-05 0)
(0.00143060408838 1.93311914363e-05 0)
(0.00144865625347 1.69065843505e-05 0)
(0.00147753648693 1.25306242971e-05 0)
(0.00151067385339 5.00501748617e-06 0)
(0.00152788424103 -4.87361174601e-06 0)
(0.0015532563848 -1.53104408763e-05 0)
(0.00156288393675 -2.31792591158e-05 0)
(0.00153309046607 -2.44931017653e-05 0)
(0.0014484981114 -2.70769587958e-05 0)
(0.00136782958418 -3.53049245754e-05 0)
(0.00152727307033 -6.78209040121e-05 0)
(0.0014330128071 -0.00011710821759 0)
(0.00135886515 -0.000145679933896 0)
(0.00136978632859 -0.000142684017327 0)
(0.00130265549625 -0.000129441003776 0)
(0.00121199974938 -0.000145558443557 0)
(0.00111966230713 -0.00017112808154 0)
(0.00102541856023 -0.000193365991997 0)
(0.000721427101003 -0.00018482944559 0)
(0.000673712456208 -0.000253649559989 0)
(0.000442262769377 -0.000215445273783 0)
(0.000310685770843 -0.00015061279907 0)
(0.00021943537668 -0.000102425581187 0)
(0.000160345311887 -8.04411527468e-05 0)
(0.000117331268283 -7.78327455428e-05 0)
(6.79842486551e-05 -7.8953912409e-05 0)
(1.68622744921e-05 -7.87040752261e-05 0)
(-3.28398397585e-05 -7.03017729308e-05 0)
(-7.30920926008e-05 -5.34462571035e-05 0)
(-9.8095701038e-05 -3.38255749285e-05 0)
(-0.000121478330346 -1.72234389193e-05 0)
(-0.000130873776784 -2.13195247582e-06 0)
(-0.00013187474712 1.0179894347e-05 0)
(-0.000123100645036 1.80036000436e-05 0)
(-0.000107254408864 3.26141654271e-05 0)
(-7.04199562055e-05 4.53364006894e-05 0)
(-3.34615791745e-05 8.28440794826e-05 0)
(2.72040825963e-05 0.000158257532741 0)
(7.58669640836e-05 0.000175334512059 0)
(0.000116117499821 0.000167846074925 8.43463557145e-29)
(0.000207416254767 0.000177117717461 -8.20932589065e-29)
(0.000297142507292 0.000181330801034 -7.6181147837e-29)
(0.000346742654374 0.000146615144132 7.05402777021e-29)
(0.000379471540251 7.60910156951e-05 -7.20975575053e-29)
(0.000415142411974 8.46483191441e-05 7.24752518926e-29)
(0.000454089713987 0.000105693656168 0)
(0.000498782438848 0.00010998620716 0)
(0.000543426413627 0.00010499917697 0)
(0.000582017831276 9.86139596487e-05 0)
(0.000616638396018 8.97907593152e-05 0)
(0.0006476841605 8.41943999825e-05 0)
(0.000679060147806 8.00571350318e-05 0)
(0.000711850798548 6.79364784065e-05 0)
(0.000616811723204 4.36220493176e-05 0)
(0.000592200645405 3.02504905606e-05 0)
(0.000614692907508 3.76317464667e-05 0)
(0.000667877994612 6.9104311077e-05 0)
(0.000806540246991 0.000110754696921 0)
(0.000892218215204 0.000127810465161 0)
(0.000913109900134 0.000120571620148 0)
(0.000963387097602 0.000111213451254 0)
(0.00101704973554 0.00010628549083 0)
(0.00105619458021 0.000102805071829 0)
(0.00109112657267 9.44638051097e-05 0)
(0.0011257307368 8.51829065e-05 0)
(0.00115705439812 7.68964859192e-05 0)
(0.00118226465661 7.08360906515e-05 1.60109419144e-28)
(0.0012145297398 6.52206854343e-05 -1.55751006831e-28)
(0.00121905144371 6.04613122061e-05 0)
(0.00123763880686 5.48434711883e-05 0)
(0.00128684287357 4.9855263849e-05 0)
(0.00124812551041 6.23974617423e-05 0)
(0.00129378504535 7.19631400729e-05 0)
(0.00137161832654 6.78328394754e-05 0)
(0.00133911702324 7.62226081049e-05 0)
(0.00139601975624 9.5578910483e-05 0)
(0.00147995035201 9.26026270246e-05 0)
(0.00153678326386 5.40562922606e-05 0)
(0.00156522650544 2.62870772938e-05 0)
(0.00158958852668 3.45254326896e-05 0)
(0.0016103542295 4.26174045427e-05 0)
(0.00162417220632 4.2028085996e-05 0)
(0.00163277692987 3.70872529887e-05 0)
(0.00163697719328 2.58443341942e-05 0)
(0.00163700676985 1.15968346507e-05 0)
(0.0016331054032 -5.86116091678e-06 0)
(0.0016254479785 -2.99269607319e-05 0)
(0.00161507857473 -5.52189804766e-05 0)
(0.00159978179509 -6.70716523282e-05 0)
(0.00157050110699 -5.61670310045e-05 0)
(0.00150124991879 -9.06867838626e-05 0)
(0.00141070650666 -0.000147717395275 0)
(0.00140445953938 -0.000173620895604 0)
(0.00136482164524 -0.000186428057864 0)
(0.00128566064526 -0.00020699855986 0)
(0.00118992677277 -0.000236531149922 0)
(0.00108428496429 -0.000278493808524 0)
(0.000960290639742 -0.000339531812329 0)
(0.000825188139532 -0.000396900022659 0)
(0.000696348563344 -0.000468424477436 0)
(0.000440676383099 -0.000370260845615 0)
(0.000282295603968 -0.000235580713243 0)
(0.000209429713655 -0.000171347683948 0)
(0.000155512951772 -0.000143623637847 0)
(0.000102163511159 -0.000131815914705 0)
(5.1580497862e-05 -0.000129870182205 0)
(1.04367186383e-06 -0.000125945297601 0)
(-4.72956872467e-05 -0.000110803694673 0)
(-8.86362563598e-05 -8.65685335683e-05 0)
(-0.000124594153246 -6.26906751789e-05 0)
(-0.000148712767051 -3.55024596367e-05 0)
(-0.00015410695951 -6.32471993653e-06 0)
(-0.00014920857856 1.5612927405e-05 0)
(-0.000136582591324 3.32310397305e-05 0)
(-0.000115980461238 6.35233024513e-05 0)
(-8.46009256651e-05 0.000110232373265 0)
(-2.28705052934e-05 0.000121840916062 0)
(2.67160373274e-05 0.000241011310065 0)
(3.29312385137e-05 0.000155978463605 0)
(9.5791173597e-05 0.000258369940869 0)
(0.000185625564883 0.000267530548723 0)
(0.00025237042428 0.000225042301166 0)
(0.000131930529509 7.98920371636e-05 0)
(0.000162860314683 8.13044318921e-05 0)
(0.000323051879797 0.000161950803585 0)
(0.000420576071185 0.000179807880913 0)
(0.000477185547531 0.000164699946842 0)
(0.000531709034261 0.000152904440856 0)
(0.000575886347102 0.000138839689691 0)
(0.000611469578242 0.000124036302638 0)
(0.000633039455772 9.75002315891e-05 0)
(0.000577296051444 5.77983653474e-05 0)
(0.000536195005751 3.15743021123e-05 0)
(0.000536841488325 2.83885711341e-05 0)
(0.000580127212915 5.79167771025e-05 0)
(0.000684429904919 0.000111232553521 0)
(0.000806385371871 0.000173314256001 0)
(0.000842734098843 0.000188869446086 0)
(0.000881344546237 0.00017740573397 0)
(0.000930146430314 0.000167032717616 0)
(0.000973437983744 0.000159353136953 0)
(0.00101178252967 0.000149208757615 0)
(0.00104709530451 0.000137994644221 0)
(0.0010790100842 0.000127417502857 0)
(0.00111808611023 0.000116820432716 0)
(0.00114159264725 0.000105690633452 0)
(0.00117994537052 9.68151970054e-05 0)
(0.00118492173156 8.70749203845e-05 0)
(0.00122569309129 7.74792556659e-05 0)
(0.00120312761008 6.36066997145e-05 0)
(0.00122560164431 6.71240971492e-05 0)
(0.00129907711889 8.54532040237e-05 0)
(0.00127122923563 0.000104148726053 0)
(0.00134293450397 0.000115520865657 0)
(0.00143065438565 0.000129139824578 0)
(0.00147073563652 0.00014629882835 0)
(0.00150013900959 0.00013480926402 0)
(0.00153161743657 9.80532424968e-05 0)
(0.00156173455823 6.74444721063e-05 0)
(0.00158843769505 5.83714349925e-05 0)
(0.00161001246613 5.60071419809e-05 0)
(0.00162516012193 5.03782471668e-05 0)
(0.00163510677187 4.04411905059e-05 -1.58202947349e-28)
(0.00164069675774 2.5990520392e-05 1.59308140605e-28)
(0.00164209497454 7.94766146104e-06 0)
(0.00163924717702 -1.36347507595e-05 0)
(0.00163191409621 -3.89164151547e-05 0)
(0.0016193221238 -6.473745475e-05 0)
(0.00159800584124 -8.77081913459e-05 0)
(0.00156263924788 -0.000113668288564 0)
(0.00151267399177 -0.000155862479619 0)
(0.00145994895469 -0.00019382779351 0)
(0.00140862640686 -0.00022153247432 0)
(0.00134463666358 -0.000258158975893 0)
(0.00125859080727 -0.000300687909272 -2.99422200266e-28)
(0.00115206476175 -0.000348536087266 3.38213614371e-28)
(0.001028639558 -0.000405586171614 0)
(0.00089154144379 -0.000470242895353 0)
(0.000751868043847 -0.000538122260253 0)
(0.000632722151759 -0.0006069081887 0)
(0.000464972452123 -0.000538048387822 0)
(0.000312485154891 -0.000371776959765 0)
(0.000201263006935 -0.000242922568246 0)
(0.000136517503949 -0.000196898571844 0)
(8.16892939392e-05 -0.000184721788275 0)
(2.93610772793e-05 -0.000181445667969 0)
(-2.26045997285e-05 -0.000178789124979 0)
(-7.63627162796e-05 -0.000163042128734 0)
(-0.000125579823621 -0.00013295158178 0)
(-0.000156940440253 -9.09109451169e-05 0)
(-0.000160451093366 -4.27516281702e-05 0)
(-0.000160797795424 -4.8747498155e-06 0)
(-0.000157794776599 2.72106556056e-05 0)
(-0.000137975600946 5.89714503573e-05 0)
(-8.95710516406e-05 8.17221630663e-05 0)
(-6.79869047126e-05 0.000134396802741 0)
(-2.31016337658e-05 0.000170509816909 0)
(3.18906678093e-07 0.000234428638907 0)
(1.49333508787e-05 0.000190843773175 0)
(8.90425432484e-05 0.000346459718951 0)
(0.000156973796982 0.000318719509664 0)
(0.000155021182653 0.00019577942459 0)
(0.000118602693845 0.000105928017587 0)
(0.000207556016586 0.000181969929106 0)
(0.000343533371148 0.000279385196797 0)
(0.000392899228993 0.000255188366421 0)
(0.000453553117539 0.000225421808089 0)
(0.000510321204139 0.000209959422681 0)
(0.000556294403043 0.000183115865627 0)
(0.00054931238601 0.000121795130988 0)
(0.000486432341589 6.15535773007e-05 0)
(0.000497947760893 4.09143276177e-05 0)
(0.000535372711855 5.01624416797e-05 0)
(0.000605497812217 8.73694937888e-05 0)
(0.000703906478401 0.000150920752982 0)
(0.000781604443953 0.000204499409346 0)
(0.000794859161986 0.000214703018454 0)
(0.000832154653013 0.000220921812683 0)
(0.000884391250996 0.000223829460016 0)
(0.000926200151569 0.000213688291276 0)
(0.000965938555978 0.000199225670716 0)
(0.00100200175137 0.000185035550384 0)
(0.00103351409725 0.000173083530401 0)
(0.00107399732247 0.000160916565857 0)
(0.00109251772361 0.000146600738836 0)
(0.00114025743499 0.000134769575965 0)
(0.00113837621386 0.000118993342405 0)
(0.00119512375455 0.0001081775018 1.52013058084e-28)
(0.0011497293635 8.98929417675e-05 -1.38452664894e-28)
(0.00121265106239 8.87495635483e-05 0)
(0.00126790287055 9.56029303803e-05 0)
(0.00124984691492 0.000114245552978 0)
(0.00134177706969 0.000154253259958 0)
(0.00139519772898 0.000183369915576 0)
(0.00143914498297 0.000184937762156 0)
(0.0014728961407 0.000175967074609 0)
(0.00150148335906 0.000157989338605 0)
(0.00153191339959 0.000128928092381 0)
(0.00156237240015 0.000101353332447 0)
(0.0015896306605 8.50852618249e-05 0)
(0.00161187756806 7.47490849819e-05 0)
(0.00162838299392 6.34838828064e-05 0)
(0.00163997412628 4.88890248711e-05 0)
(0.00164718131669 3.03407548466e-05 0)
(0.00164999527661 7.98230096842e-06 0)
(0.00164800039965 -1.83600615242e-05 0)
(0.0016404062515 -4.87463320033e-05 0)
(0.00162585954896 -8.19589122371e-05 0)
(0.00160167413917 -0.000117167281294 0)
(0.00156512114054 -0.000156575125037 0)
(0.00151677675697 -0.000202100740974 0)
(0.00146159243953 -0.000246182664019 0)
(0.00139986587458 -0.00029062454359 0)
(0.00132318297631 -0.000344556929112 0)
(0.00122426069022 -0.000407165065525 0)
(0.00110246785576 -0.000474243053855 0)
(0.000964090201814 -0.000543216268924 0)
(0.000820398790396 -0.000610635800053 0)
(0.000688469303164 -0.000674271848428 0)
(0.000582768632534 -0.000720101522987 0)
(0.000472446858781 -0.000681299200926 0)
(0.000323727354134 -0.00050636004688 0)
(0.000209575824537 -0.000346475578429 0)
(0.00013045551784 -0.000275930863656 0)
(6.20026520616e-05 -0.000247191487224 0)
(2.09107629972e-06 -0.000235971179443 0)
(-5.57339558959e-05 -0.000231982893984 0)
(-0.000117127432096 -0.00021816657056 0)
(-0.000162906843186 -0.000170697246963 0)
(-0.000171735682196 -0.0001000640381 0)
(-0.000177711586901 -4.59876557175e-05 0)
(-0.000182374781501 -1.34629968371e-06 0)
(-0.00017582350758 4.60829538296e-05 0)
(-0.000141263429338 8.72797119179e-05 0)
(-0.000100335169111 0.000118183946904 0)
(-7.29107513332e-05 0.000183870476984 0)
(-2.12585763271e-05 0.000209711623173 0)
(-1.97419886244e-06 0.000216499709741 0)
(2.02182416918e-05 0.00023357449326 0)
(9.14002884544e-05 0.000393648906804 0)
(0.000123752139834 0.000315671213329 0)
(8.73090064816e-05 0.000147702445992 0)
(0.000119213378086 0.000152540880783 0)
(0.000275231560196 0.00031059879838 0)
(0.000333603735006 0.000337287634475 0)
(0.000373441655603 0.000308812525049 0)
(0.000424270313813 0.000283572119619 0)
(0.000476094505733 0.000245010176068 0)
(0.000423545121116 0.000156496240095 0)
(0.000379646356964 8.32733459534e-05 0)
(0.000414125639489 6.77667086521e-05 0)
(0.000459240919007 8.21136575517e-05 0)
(0.000550318152154 0.000126547084699 0)
(0.000658902257148 0.000185511798173 0)
(0.000735811140868 0.000222866291717 0)
(0.000732424309395 0.000222485225533 0)
(0.000777361839656 0.000245685769301 0)
(0.000837404380289 0.000270282402993 0)
(0.000877737673851 0.000268254814653 0)
(0.000915862068804 0.0002543768225 0)
(0.000951041192683 0.000237947617358 0)
(0.00099414542724 0.000223487039997 0)
(0.00102603826896 0.000203964326294 0)
(0.00103041582097 0.000188404397752 0)
(0.00109643891941 0.000179178583254 0)
(0.00107514907127 0.000154784149515 0)
(0.00115381634302 0.000139981533791 0)
(0.00107913883151 0.000112361919676 0)
(0.0011777351578 0.000117512654128 0)
(0.00112255526653 0.000115917349519 0)
(0.00121296177362 0.000136517497737 0)
(0.00130882512944 0.000178662692854 0)
(0.0013659428265 0.000218358880216 0)
(0.00140594895181 0.000227450634874 0)
(0.00144085646142 0.000220462575104 0)
(0.00147214531928 0.000206153884568 0)
(0.00150241001944 0.000186131054793 0)
(0.00153317434164 0.000159898567166 0)
(0.00156361781196 0.000133189717225 0)
(0.00159141084924 0.000112003622819 0)
(0.0016145972535 9.49909048153e-05 0)
(0.00163275067095 7.80737854328e-05 0)
(0.00164617728868 5.87470985673e-05 0)
(0.00165525162356 3.58690925282e-05 0)
(0.0016596353526 8.86190806858e-06 0)
(0.00165843777407 -2.28858252468e-05 0)
(0.00165053969622 -5.97646139575e-05 0)
(0.00163449966189 -0.000101533172654 0)
(0.00160830989446 -0.000147903807142 0)
(0.00157036953405 -0.000198882782432 0)
(0.00152090299535 -0.000253325653102 0)
(0.00146108170576 -0.000309154825758 0)
(0.00138869957116 -0.000370774369665 0)
(0.00129742411068 -0.000444098987376 0)
(0.00118370385899 -0.000526767862842 0)
(0.00105151594751 -0.000611103147003 0)
(0.000907031622895 -0.00068625858964 0)
(0.000767679814045 -0.00074771964327 0)
(0.000649117420896 -0.000783086175046 0)
(0.000507875294686 -0.000745737238006 0)
(0.00048060819394 -0.000833983129901 0)
(0.000304473519337 -0.000612516202178 0)
(0.00019781210043 -0.00043213356421 0)
(0.000119244689329 -0.000356078482811 0)
(3.97507323001e-05 -0.000317003497254 0)
(-3.21050971376e-05 -0.000296732180783 0)
(-0.000101725028778 -0.000296865899748 0)
(-0.000164757548581 -0.000271924499516 0)
(-0.000186053349511 -0.000187495580414 0)
(-0.000193669773204 -0.000109953042351 0)
(-0.000210106829948 -5.35190084096e-05 0)
(-0.000213934868366 4.38792176272e-06 0)
(-0.000203826804182 7.05659967993e-05 0)
(-0.000158812513403 0.000116650011836 0)
(-0.000120092843008 0.000155791369197 0)
(-8.69229840031e-05 0.000231756295781 0)
(-2.67856028542e-05 0.000255943331707 0)
(6.86028436083e-06 0.000234649873115 0)
(5.12157616414e-05 0.000310093274263 0)
(0.000122714702682 0.000427407931938 0)
(0.000130814324709 0.00038995621691 0)
(8.04390016587e-05 0.000183319866956 0)
(0.000178547357919 0.00027849076243 0)
(0.000293160334461 0.000387601823915 0)
(0.000318172007761 0.000376156109849 0)
(0.000356753568238 0.000347824214334 0)
(0.000375950354729 0.000313782111159 0)
(0.00044228266946 0.000260617384409 -3.30008200926e-28)
(0.000321602056333 0.000117321123132 1.79466457387e-28)
(0.000376209833349 0.000104295006942 0)
(0.000402940891833 0.000112810120494 0)
(0.000479497976409 0.000159133403033 0)
(0.000596600207038 0.000234368425468 0)
(0.000679218307243 0.000265725351448 0)
(0.000657225858127 0.000236054657014 0)
(0.000706690153357 0.000257038253348 0)
(0.00078392375854 0.000303732689456 0)
(0.000823920310704 0.000316690362754 0)
(0.000865713429241 0.000309018769271 0)
(0.000905290240798 0.000294222493658 0)
(0.00094252997769 0.000274754905297 0)
(0.000967278443835 0.000250089164717 0)
(0.000976869719562 0.000224387266677 0)
(0.00103567211783 0.000215900109129 0)
(0.00100017727981 0.000196835740679 0)
(0.00109937923625 0.000182775494303 0)
(0.00101501961255 0.000133117290245 0)
(0.00111834246044 0.000137582607343 0)
(0.00107700150885 0.000142888850487 -1.30825288097e-28)
(0.00117177578847 0.000162812866566 1.41438809145e-28)
(0.00121349059772 0.000208214879195 0)
(0.00133116120978 0.000258737468938 0)
(0.00137352405336 0.000269841385686 0)
(0.00140638891096 0.000264244475504 0)
(0.00143861915529 0.000252533331959 0)
(0.00147131601282 0.000236629800287 0)
(0.00150344297879 0.000216204601443 0)
(0.00153481626058 0.000191013427865 0)
(0.00156559499332 0.00016416739311 0)
(0.00159402532399 0.000139398223393 0)
(0.00161839962241 0.000116985943814 0)
(0.00163828819999 9.48062301107e-05 0)
(0.00165382458339 7.0739994721e-05 0)
(0.00166502157759 4.3240981631e-05 0)
(0.00167111622512 1.10460458663e-05 0)
(0.00167085689518 -2.69441389391e-05 0)
(0.00166297561681 -7.14351986233e-05 0)
(0.00164606767822 -0.000122555968414 0)
(0.00161844151813 -0.000179926540786 0)
(0.00157874088833 -0.00024264214377 0)
(0.00152625079875 -0.000309584694772 0)
(0.0014598414966 -0.000381535438014 0)
(0.00137623741355 -0.000463081378994 0)
(0.00127137112834 -0.000556702470083 0)
(0.0011456906943 -0.000656331664687 0)
(0.00100644740391 -0.0007500280309 0)
(0.000866988535897 -0.000824683770378 0)
(0.000741129005088 -0.000867469773484 0)
(0.000638163989721 -0.000880733250604 0)
(0.000552929687637 -0.000906685620183 0)
(0.000490669348909 -0.000923862565676 0)
(0.000329889611941 -0.000726411494803 0)
(0.000180635294869 -0.000510597773399 0)
(9.90380583249e-05 -0.000446387712144 0)
(8.8546600269e-06 -0.000410008077516 0)
(-7.71805926165e-05 -0.000384317680987 0)
(-0.000153118748483 -0.000365384550266 0)
(-0.000198886666099 -0.000301515416827 0)
(-0.00021073949753 -0.000202179078505 0)
(-0.000234071930071 -0.000129190263903 0)
(-0.000253333933723 -6.27897275536e-05 0)
(-0.000258611484109 1.31618731561e-05 0)
(-0.000235979002047 9.31476379606e-05 0)
(-0.00020066672765 0.000155456735655 0)
(-0.000148688371972 0.000200010243942 0)
(-0.000106707858949 0.000283876345945 0)
(-3.64326215975e-05 0.000322517712254 0)
(1.51965783267e-05 0.000273589867905 0)
(7.6203523981e-05 0.000387883655882 0)
(0.000139552889541 0.000439084983541 0)
(7.70903984244e-05 0.000242660545766 0)
(8.33615733878e-05 0.000229232233998 0)
(0.000218238250872 0.000404412327755 0)
(0.000268328666487 0.00042597714243 0)
(0.00030643022019 0.000414108188863 0)
(0.000319839489249 0.000367842804431 0)
(0.00035895297131 0.000336233517757 0)
(0.000274767004316 0.000184054561573 0)
(0.000317087491828 0.000138899304814 0)
(0.000362389294779 0.000141890296156 0)
(0.000398221939249 0.000169485202763 0)
(0.000520304527988 0.000259283624171 0)
(0.000617657264597 0.000313330311571 0)
(0.000590841402488 0.000270621497868 0)
(0.000627348134992 0.00027048355958 0)
(0.000714070402963 0.000324618339781 0)
(0.000771591199758 0.000357000567661 0)
(0.000806363513979 0.000357505514777 0)
(0.0008421812599 0.000347170642321 0)
(0.000888189909784 0.000335846608611 0)
(0.000923151837532 0.000312624998533 0)
(0.000966317131424 0.000276451827981 0)
(0.000949329656312 0.000251114228166 0)
(0.00102322063265 0.000239529737031 0)
(0.0010115858498 0.000212835544782 0)
(0.000994125804818 0.000182233147805 0)
(0.00102646772137 0.000169630633132 0)
(0.00114079506817 0.000179567364316 0)
(0.00111276057083 0.000172750158154 0)
(0.00113123563161 0.000218271707625 0)
(0.00128918968662 0.000296504192742 0)
(0.00133171982834 0.000321824310523 0)
(0.00136917143618 0.000312330084868 0)
(0.00140314531482 0.0002988587175 0)
(0.00143605538177 0.000285121822045 0)
(0.00147015025447 0.000268816666541 0)
(0.00150411801616 0.000248097538461 0)
(0.0015366911922 0.000222839226743 0)
(0.00156800309609 0.000195135996065 0)
(0.00159730520059 0.000167476276598 0)
(0.00162320044438 0.000140651415651 0)
(0.00164509938749 0.000113731743104 -1.53013290721e-28)
(0.00166300995167 8.50375210658e-05 1.52511272898e-28)
(0.00167657393559 5.26628040903e-05 0)
(0.00168462903362 1.47447243488e-05 0)
(0.00168567405261 -3.02026074718e-05 0)
(0.00167839216102 -8.30901974447e-05 0)
(0.00166134582225 -0.000144215929416 0)
(0.0016328367773 -0.000213241035789 0)
(0.00159126013568 -0.000289331053607 0)
(0.00153484323695 -0.000372198198331 0)
(0.00146092105492 -0.000463574009563 0)
(0.00136631513632 -0.000566358799122 0)
(0.0012498461788 -0.000678866324052 0)
(0.00111583893029 -0.000791663768378 0)
(0.000974473011266 -0.000890391107649 0)
(0.000838200228153 -0.00095611225616 0)
(0.000719522504268 -0.000972336685525 0)
(0.000631830168376 -0.000966392217699 0)
(0.000566170765116 -0.000968504588732 0)
(0.000511125903344 -0.000980081959096 0)
(0.000448160906042 -0.000966841146721 0)
(0.000206323574876 -0.000639889147145 0)
(7.51303589072e-05 -0.000546404818603 0)
(-3.05239542116e-05 -0.000504681183874 0)
(-0.000123703253537 -0.000462602006956 0)
(-0.000193950224858 -0.000413780425238 0)
(-0.000228980255689 -0.000324672402234 0)
(-0.00025248033044 -0.000229184457225 0)
(-0.000286902200437 -0.000154234089771 0)
(-0.000307942311783 -7.31308328754e-05 0)
(-0.000312673626461 2.23874290318e-05 0)
(-0.000287266634882 0.000116046271871 0)
(-0.000259594662257 0.000199251657119 0)
(-0.000196128668695 0.000262884537419 0)
(-0.000131438677274 0.000349773387718 0)
(-4.64538803176e-05 0.000411845970558 0)
(2.20520016278e-05 0.000324575354662 0)
(9.00218190528e-05 0.000453880466912 0)
(0.000114044802283 0.000444651749171 0)
(7.29251873917e-05 0.000265609127932 0)
(0.000123382033817 0.000310089650127 0)
(0.000230828440205 0.000464973779877 0)
(0.000242686169445 0.000460952677542 0)
(0.000294646506511 0.000448004133214 0)
(0.000265517713622 0.000353768431645 0)
(0.000357339155568 0.000376187114599 0)
(0.000262743004743 0.000200006479289 0)
(0.000322173480459 0.000181552326936 0)
(0.000354617650438 0.000187950657652 0)
(0.000428567194108 0.000254924764122 0)
(0.000542799810019 0.00035355888272 0)
(0.000598522864072 0.000354937179765 0)
(0.000567046204061 0.000297170626304 0)
(0.000630496366753 0.000331286909 0)
(0.000703642560427 0.000385864398892 0)
(0.000749607508318 0.000402997561833 0)
(0.000791130968809 0.000397681044586 0)
(0.000818703131565 0.000381724849531 0)
(0.000859046902649 0.000368384301714 0)
(0.000876713556732 0.000340489460138 0)
(0.000881424478555 0.000287795448234 0)
(0.000963215293762 0.000279066939275 0)
(0.000895742113599 0.00025006079245 0)
(0.00104708922675 0.000243902134996 0)
(0.000967059101239 0.000211190873031 0)
(0.0011118171654 0.000228247595071 0)
(0.00102833367443 0.000200396193142 0)
(0.00117185459317 0.000230408571234 0)
(0.0012293270334 0.000300484722362 -1.58461751606e-28)
(0.00129087820141 0.00035929148877 1.66196531325e-28)
(0.00132759620385 0.000363805043591 0)
(0.001363024777 0.00035022639248 0)
(0.0013990046809 0.000334724222357 0)
(0.00143358802636 0.000319535182979 0)
(0.00146867093591 0.000302670210239 0)
(0.00150391039446 0.000281610902567 0)
(0.00153806747739 0.000255787588307 0)
(0.00157064694575 0.000226807124835 0)
(0.00160115986882 0.000196637685962 0)
(0.00162882163333 0.00016617886322 0)
(0.00165315916216 0.000135058610427 0)
(0.001673779956 0.000101865156057 0)
(0.00168994734069 6.44306109567e-05 0)
(0.00170033225319 2.04046912743e-05 0)
(0.00170335064699 -3.20124351616e-05 0)
(0.00169754752551 -9.38728275292e-05 0)
(0.00168135904714 -0.000165699941591 0)
(0.0016528914082 -0.000247525904623 0)
(0.00161001116249 -0.000339221810446 0)
(0.00154974143145 -0.000441197038186 0)
(0.00146833638575 -0.000554627465148 0)
(0.00136321335944 -0.000678912517184 0)
(0.00123602971435 -0.000808040359007 0)
(0.00109441957333 -0.000930133028569 0)
(0.000951381352043 -0.00103108959235 0)
(0.00081835169363 -0.0010868244228 0)
(0.000708463481275 -0.0010705384621 0)
(0.000631685301775 -0.00103030444549 0)
(0.000575602035944 -0.00102063273249 0)
(0.000523406078128 -0.00103354992633 0)
(0.000486026582321 -0.00104040724381 0)
(0.000328989820501 -0.000902043549881 0)
(7.64011560724e-05 -0.000649771875095 0)
(-7.68942148721e-05 -0.000617197800436 0)
(-0.000172156403493 -0.000552152446131 0)
(-0.00023387573848 -0.000461231152241 0)
(-0.000271121996413 -0.000357152876205 0)
(-0.000311028435844 -0.000266424861917 0)
(-0.000348969842353 -0.000182494686353 0)
(-0.000370937499321 -8.49168974576e-05 0)
(-0.000374012629502 2.70447965376e-05 0)
(-0.000359641035401 0.000138181111626 0)
(-0.000329748575984 0.000245862820598 0)
(-0.000262678102024 0.000347462342529 0)
(-0.000167355400368 0.000445239475823 0)
(-5.68734975859e-05 0.000517514228974 0)
(2.83219844023e-05 0.000391045285449 0)
(0.000103105169448 0.000502731248808 0)
(0.000103117652104 0.00043029932085 0)