/*--------------------------------*- C++ -*----------------------------------*\
| =========                 |                                                 |
| \\      /  F ield         | OpenFOAM: The Open Source CFD Toolbox           |
|  \\    /   O peration     | Version:  v1806                                 |
|   \\  /    A nd           | Web:      www.OpenFOAM.com                      |
|    \\/     M anipulation  |                                                 |
\*---------------------------------------------------------------------------*/
FoamFile
{
    version     2.0;
    format      ascii;
    class       volVectorField;
    location    "575";
    object      Ua;
}
// * * * * * * * * * * * * * * * * * * * * * * * * * * * * * * * * * * * * * //

dimensions      [0 1 -1 0 0 0 0];


internalField   nonuniform List<vector> 
6400
(
(4.653182344e-05 6.25982730983e-05 0)
(0.000126496240308 4.74432259963e-05 0)
(0.000184842571473 3.86395678823e-05 0)
(0.000248395122163 3.49196884334e-05 0)
(0.000296150433927 2.4111529397e-05 0)
(0.000332009572628 1.5668030663e-05 0)
(0.000353686832996 1.26985472485e-05 0)
(0.000372911356285 1.79297228569e-05 0)
(0.000418880327594 2.46499459746e-05 0)
(0.00046670233973 2.45867388725e-05 0)
(0.000492344400061 2.288609756e-05 0)
(0.000537983464756 2.47400498088e-05 0)
(0.000581721520343 2.41507608347e-05 0)
(0.000620602905702 2.21706253402e-05 0)
(0.000653851693286 2.15942210198e-05 0)
(0.000689632769428 2.38997770596e-05 0)
(0.000732379102574 2.51024145242e-05 0)
(0.000772507304437 2.40486331627e-05 0)
(0.000807291883013 2.22256626795e-05 0)
(0.000842409149948 2.20231393289e-05 0)
(0.000884950174857 2.6287797592e-05 0)
(0.000934938083086 3.07161076112e-05 0)
(0.000987895856262 3.20747377627e-05 0)
(0.00103860121272 3.19971432346e-05 0)
(0.00108808905504 3.11279131325e-05 0)
(0.00113719634889 3.00882990838e-05 0)
(0.00118731960591 3.00896118814e-05 0)
(0.00123657864779 2.98417227725e-05 0)
(0.0012833248079 2.9037482024e-05 0)
(0.00132786378137 2.84448897606e-05 0)
(0.00137023581087 2.87772401732e-05 0)
(0.00141432004826 2.88353148717e-05 0)
(0.00146000095978 2.8410399819e-05 0)
(0.0015045406582 2.93631510313e-05 0)
(0.0015497140001 3.01480185135e-05 0)
(0.00160048934024 3.0872394222e-05 0)
(0.00165004984548 3.19675977314e-05 0)
(0.00168995817462 3.15085256274e-05 0)
(0.00173801791011 3.04695546881e-05 0)
(0.00179210626925 3.04567610308e-05 0)
(0.00184012322563 3.28078953586e-05 0)
(0.00187873224085 3.23433020475e-05 0)
(0.00191419865489 2.67939305308e-05 0)
(0.0019476145215 2.28867677187e-05 0)
(0.00197643450223 2.11877809256e-05 0)
(0.00200169616341 1.93221480998e-05 0)
(0.00202298729201 1.73541571041e-05 0)
(0.00203914329348 1.47331012334e-05 0)
(0.00205033024377 1.22369503116e-05 0)
(0.00205665899459 1.24337372365e-05 0)
(0.00206194090096 1.57809357849e-05 0)
(0.00207491636048 1.49898084926e-05 0)
(0.00207563382798 3.94249827117e-06 0)
(0.0020708251687 -1.83024666894e-06 0)
(0.00204865183307 -7.05411896157e-06 0)
(0.00199075201964 -1.76950272367e-05 0)
(0.00192938249425 -1.54691117836e-05 0)
(0.00189944074569 -7.03527457819e-06 0)
(0.00188530845512 -1.04944877271e-05 0)
(0.00181677134213 -1.34318168714e-05 0)
(0.00177468956384 1.18033666536e-06 0)
(0.00171657596356 -7.21779528711e-06 0)
(0.0018541764181 -5.77193597107e-05 0)
(0.00161360474181 -9.46775077184e-05 0)
(0.0012846149457 -7.36645123851e-05 0)
(0.00115237167346 -4.91791896893e-05 0)
(0.00107414411581 -4.72141100718e-05 0)
(0.0010134369606 -4.64043664808e-05 0)
(0.000949996530032 -4.73493561037e-05 0)
(0.000860094813774 -4.99748486968e-05 0)
(0.000765474443792 -5.08614692038e-05 0)
(0.000657364232363 -4.91908985782e-05 0)
(0.000553890420526 -4.87213394104e-05 0)
(0.000483329355685 -5.22176435371e-05 0)
(0.000358174642782 -4.15938542025e-05 0)
(0.000309197746805 -3.64986481707e-05 0)
(0.000202298477146 -2.24847218071e-05 0)
(0.000206909270081 -3.06757147777e-05 0)
(8.85864813617e-05 -2.14989580225e-05 0)
(6.59919052514e-05 -3.96707834182e-05 0)
(1.78890882076e-05 8.77235303987e-05 0)
(7.66634427799e-05 9.77995063997e-05 0)
(0.000133398960522 8.84020314357e-05 0)
(0.000170875077854 7.15109823413e-05 0)
(0.000246205313676 7.07417264627e-05 0)
(0.000314583162567 5.18923473221e-05 0)
(0.000356837249039 3.63487366687e-05 0)
(0.000389309566586 4.7274805798e-05 0)
(0.000425116125048 6.03686384725e-05 0)
(0.0004651282884 6.06822165104e-05 0)
(0.00050436896233 5.86782431534e-05 0)
(0.000542025549 5.89278240796e-05 0)
(0.000578964779454 5.60544957447e-05 0)
(0.000614724024572 5.20385837149e-05 0)
(0.000651898676576 5.16564881353e-05 0)
(0.000690284416287 6.01428434676e-05 0)
(0.000730498394085 6.47827931742e-05 0)
(0.000767226359995 5.5519623071e-05 0)
(0.000785365763636 4.85695986554e-05 0)
(0.000824652978347 5.17068128675e-05 0)
(0.000874227258181 6.38648615335e-05 0)
(0.000928589986745 7.74780519841e-05 0)
(0.000986953984887 8.06477954552e-05 0)
(0.00104025041301 7.6216730335e-05 0)
(0.00108241207287 7.27940961844e-05 0)
(0.00113512727421 7.21237374117e-05 0)
(0.00118701043914 7.08958127929e-05 0)
(0.00123456399075 6.85820684512e-05 0)
(0.00128041222085 6.62225194131e-05 0)
(0.00132565010334 6.46210530784e-05 0)
(0.00136968201928 6.46347799886e-05 0)
(0.00140897427631 6.40224566362e-05 0)
(0.00145439731028 6.1931970545e-05 0)
(0.00149814960955 6.48188297358e-05 0)
(0.00154122696487 6.87190355369e-05 0)
(0.00159831485477 6.81729673315e-05 0)
(0.00164458185246 6.95582050648e-05 0)
(0.00168493552401 7.08164542932e-05 0)
(0.0017375659694 6.8765169925e-05 0)
(0.00179993276177 6.50405006916e-05 0)
(0.00184979111572 5.79350828273e-05 0)
(0.00184711437952 4.92021786316e-05 0)
(0.00186092495651 4.40197363109e-05 0)
(0.0018983380387 4.13393853649e-05 0)
(0.00192980399108 3.84052242859e-05 0)
(0.00196187801256 3.43213762486e-05 0)
(0.0019926206521 2.86564409565e-05 0)
(0.00201543624303 2.1681582272e-05 0)
(0.00203883584008 1.42686995516e-05 0)
(0.00205514489641 7.76299044555e-06 0)
(0.00205471985398 3.58415725552e-06 0)
(0.00202718345742 -3.46333401939e-07 0)
(0.00200627996548 -5.81783160639e-06 0)
(0.00206959389765 -1.9806772779e-05 0)
(0.00203557184425 -4.57951161478e-05 0)
(0.00199796620839 -6.32840915516e-05 0)
(0.0020007921721 -5.96289907636e-05 0)
(0.00197987647283 -5.12964820728e-05 0)
(0.00194698254635 -5.90874187707e-05 0)
(0.00191898247332 -6.94339002701e-05 0)
(0.00190436211496 -7.66987319671e-05 0)
(0.00168788385212 -8.76929787255e-05 0)
(0.00181898013916 -0.000205178635445 0)
(0.00158259172063 -0.000298431887445 0)
(0.00129897774702 -0.000259489344307 0)
(0.00108806095742 -0.000177916880689 0)
(0.000980248019787 -0.000128161316213 0)
(0.000965167590106 -0.000116481439605 0)
(0.000908618198692 -0.000127308238797 0)
(0.000840808763349 -0.000146581478082 0)
(0.000739547781472 -0.000156369991421 0)
(0.000628824855941 -0.000151625730381 0)
(0.000513913826295 -0.000131928275141 0)
(0.000459089182019 -0.000127548134977 0)
(0.000388312112206 -0.000117735632845 0)
(0.000325574814833 -0.000106379998548 0)
(0.000262476538071 -8.99516554941e-05 0)
(0.000205210609948 -9.14828467058e-05 0)
(0.000126207009356 -9.64062700327e-05 0)
(5.77452141071e-05 -0.000155576672884 0)
(2.54438856929e-05 0.000151822688177 0)
(7.26923231928e-05 0.000163247830027 0)
(0.000112440285881 0.000152666926541 7.23290708312e-29)
(0.000189477263526 0.000154171562869 -6.70272679823e-29)
(0.000261600235758 0.000152515544557 -5.89810034954e-29)
(0.000307875707743 0.00012557609537 5.37489351845e-29)
(0.000342506609337 7.643275335e-05 -5.39097366096e-29)
(0.00037586277691 8.37783946113e-05 5.22487117105e-29)
(0.000413252493236 0.000100893376095 0)
(0.000455126224705 0.00010442813682 0)
(0.000496951185674 0.000101306400188 0)
(0.000535600312374 9.71474528016e-05 0)
(0.000572143713469 9.23867589386e-05 0)
(0.000607010147544 9.04405416016e-05 0)
(0.000644209409691 9.23046886059e-05 0)
(0.000682883757071 9.15798379037e-05 0)
(0.000654118524227 7.932804829e-05 0)
(0.000655188457698 7.24776546921e-05 0)
(0.000694240017322 8.19838318195e-05 0)
(0.000758417947929 0.000106970175152 0)
(0.000866200120204 0.000134030527461 0)
(0.000935138092354 0.000141586187593 0)
(0.000976199953022 0.0001361548239 0)
(0.00102881799867 0.000129916686172 0)
(0.00108337338997 0.000126523612737 0)
(0.00113218674841 0.000124617039559 0)
(0.00117982811644 0.000121276534822 0)
(0.00122759455674 0.000117574751628 0)
(0.00127398972445 0.000114427214957 0)
(0.00131839404627 0.000112312737256 9.87822216111e-29)
(0.00136445466337 0.000110705175848 -9.56187677396e-29)
(0.00139985984083 0.000109067399259 0)
(0.00144328262542 0.00010805520703 0)
(0.00149837545546 0.000109481128621 0)
(0.00152251314549 0.000117038544678 0)
(0.00158029126873 0.000123131647209 0)
(0.00164716623994 0.000121665977008 0)
(0.00167442936034 0.000122216777543 0)
(0.00173046235859 0.000125847460228 0)
(0.00179621274789 0.000118968432482 0)
(0.0018468586585 9.81488728151e-05 0)
(0.00188284601876 8.08116049408e-05 0)
(0.00191596370102 7.73107813355e-05 0)
(0.00194872975133 7.63275210131e-05 0)
(0.00197779617997 7.20796227642e-05 0)
(0.00200290200984 6.55678700167e-05 0)
(0.00202437097902 5.64093444232e-05 0)
(0.0020421652234 4.58170621437e-05 0)
(0.0020564559769 3.38232886987e-05 0)
(0.00206679320897 1.92514173377e-05 0)
(0.00207267759682 4.28281945357e-06 0)
(0.00207420848668 -4.10911083514e-06 0)
(0.00207179334491 -4.50912029065e-06 0)
(0.00205242169355 -2.40838222378e-05 0)
(0.00201762804564 -5.61159051665e-05 0)
(0.00201330719611 -7.01304882138e-05 0)
(0.00200203009076 -7.24037143034e-05 0)
(0.00197374798233 -7.66549254898e-05 0)
(0.00193808951934 -8.61502403225e-05 0)
(0.00189983612381 -0.000103967987354 0)
(0.0018410295751 -0.000146385861804 0)
(0.00177416419949 -0.000206398727238 0)
(0.00172786832148 -0.000396572076206 0)
(0.00141307526059 -0.000502695884854 0)
(0.00110204005131 -0.000386058676715 0)
(0.00101420719222 -0.000278422573829 0)
(0.000971777723477 -0.000214819763317 0)
(0.00090131630381 -0.000190239452152 0)
(0.000832070839621 -0.000206949793912 0)
(0.000752152829512 -0.000234156352159 0)
(0.000656110668105 -0.000242278229575 0)
(0.000568699093562 -0.000226756262766 0)
(0.000513838262728 -0.000207875225608 0)
(0.00045929135258 -0.000200493158484 0)
(0.000386583686042 -0.000193421882244 0)
(0.000311994025974 -0.000176802163873 0)
(0.000242536423702 -0.000157561682116 0)
(0.00018479002046 -0.00016736635963 0)
(0.000127089773254 -0.000215514708964 0)
(3.24052210111e-05 -0.000213374682014 0)
(2.39219537226e-05 0.000222845908114 0)
(3.50114007404e-05 0.000153753991415 0)
(8.990959843e-05 0.000227751031231 0)
(0.000160821133207 0.00022758928807 0)
(0.000225175592082 0.000196828560005 0)
(0.000136722774175 8.29779154916e-05 0)
(0.000173425781949 8.74212463328e-05 0)
(0.000316556060191 0.000154766991543 0)
(0.000385759873352 0.000162748491435 0)
(0.00043609043546 0.000152808916691 0)
(0.000483523785194 0.000145211936053 0)
(0.000525401445652 0.00013641105831 0)
(0.000563041400441 0.000128960838124 0)
(0.000593578535671 0.000118303622983 0)
(0.000584315893907 9.97324053382e-05 0)
(0.000574719689615 8.63365153508e-05 0)
(0.000592136619178 8.79760127853e-05 0)
(0.000644270157855 0.000113278229651 0)
(0.000738324713281 0.000155573539154 0)
(0.000827667586088 0.000194084419508 0)
(0.000874175488715 0.000202730523326 0)
(0.000922511656123 0.000195401312101 0)
(0.000975122466281 0.000188118863434 0)
(0.00102548998134 0.000182561342735 0)
(0.00107417957421 0.000177061473397 0)
(0.00112171594056 0.000172104395011 0)
(0.00116855624524 0.00016798353852 0)
(0.00121817790392 0.00016411568066 0)
(0.00126260743397 0.000159906152184 0)
(0.00131149890976 0.000157024808101 0)
(0.00134886805616 0.000153745462457 0)
(0.00139751464446 0.000151136346161 0)
(0.00142476227432 0.000146837272752 0)
(0.00147387286408 0.000152874136216 0)
(0.00154026034125 0.000165953622976 0)
(0.00157107061665 0.000174550106571 0)
(0.00163653073303 0.000177510405201 0)
(0.00170338008752 0.000178206838886 0)
(0.00175256267199 0.000178033639788 0)
(0.0017982529864 0.000166047280081 0)
(0.00184218034455 0.00014323476453 0)
(0.00188143095349 0.000122714806765 0)
(0.00191727025442 0.000111884103155 0)
(0.0019503239199 0.000105293378387 0)
(0.00197940174297 9.74539542895e-05 0)
(0.00200448909721 8.73285079103e-05 -8.74713941779e-29)
(0.0020258555138 7.49621482188e-05 8.8062489536e-29)
(0.00204350054472 6.08242330883e-05 0)
(0.00205739926507 4.49906814583e-05 0)
(0.00206726606209 2.75328595759e-05 0)
(0.0020725437783 1.02792291902e-05 0)
(0.0020721532108 -4.69162469555e-06 0)
(0.00206464976727 -2.1120946314e-05 0)
(0.00204831468943 -4.61346044297e-05 0)
(0.0020285550435 -7.02248142696e-05 0)
(0.00201108242346 -8.53760080578e-05 0)
(0.00198915373642 -9.82232449423e-05 0)
(0.00195625117227 -0.000112596783421 -1.75832355182e-28)
(0.00191177086598 -0.000132637905282 2.05584721624e-28)
(0.0018519978704 -0.00016766525145 0)
(0.00176508235561 -0.00023220482499 0)
(0.00164645977668 -0.000353583194966 0)
(0.00149760015121 -0.000566924005768 0)
(0.00133532072783 -0.000695031527877 0)
(0.00117055159721 -0.000577886773488 0)
(0.000961629628926 -0.000363966253671 0)
(0.000873933605092 -0.000278924862256 0)
(0.000814932683122 -0.00026353273511 0)
(0.000753852971742 -0.000282863665816 0)
(0.000699635636994 -0.000319227521524 0)
(0.000629496632887 -0.000329975678368 0)
(0.000557564031974 -0.000308322379068 0)
(0.000484525677806 -0.000283570845526 0)
(0.000391286840515 -0.000262460504061 0)
(0.000321740899632 -0.000256104402259 0)
(0.000256956359545 -0.000252389248812 0)
(0.00018537126546 -0.000230326266422 0)
(0.000108087031101 -0.00018880619831 0)
(7.87394736398e-05 -0.00024050156332 0)
(2.61628340345e-05 -0.000277820035686 0)
(1.79905641669e-06 0.000223806929108 0)
(1.79835127081e-05 0.000186409724971 0)
(7.83807161261e-05 0.000293929233913 0)
(0.000134626011668 0.000275116746773 0)
(0.000149633865431 0.000190092027411 0)
(0.000122471781661 0.000112354364792 0)
(0.000209863967821 0.000180559264176 0)
(0.000311032194431 0.000244669042227 0)
(0.000356501564482 0.000225939022456 0)
(0.000410969867188 0.000205931284967 0)
(0.000461800201184 0.000195538376308 0)
(0.000506385346397 0.000180797978 0)
(0.000523382558264 0.000149231552368 0)
(0.00049906634078 0.000112350385798 0)
(0.000520274218977 0.000104701774408 0)
(0.000565151755105 0.000118952214152 0)
(0.000633855395478 0.000151584225774 0)
(0.000714650907915 0.000196776678575 0)
(0.000777786580253 0.000231062179746 0)
(0.000813363094211 0.000241462043321 0)
(0.000860390528505 0.000246849252424 0)
(0.000914231520714 0.000247371515984 0)
(0.000964179623849 0.000240738651911 0)
(0.00101339594291 0.000232394456537 0)
(0.00106120433509 0.000225093395696 0)
(0.00110749823797 0.00021987694091 0)
(0.0011574637467 0.000215668107555 0)
(0.00120046785681 0.000210376878731 0)
(0.00125339504402 0.000206336197225 0)
(0.00128918449237 0.000200226388099 0)
(0.00134405543489 0.000197503393909 9.4730537667e-29)
(0.00136018781639 0.000190421974883 -9.00217987721e-29)
(0.00142301685133 0.000195097217239 0)
(0.00148547446979 0.000204414430984 0)
(0.00152215753851 0.000216369014857 0)
(0.00159425352071 0.000233205194748 0)
(0.00165239681573 0.000240090876197 0)
(0.00170451264851 0.000234106495059 0)
(0.0017521633362 0.000223289244254 0)
(0.00179714523214 0.000207491449131 0)
(0.00184071312088 0.000185687438516 0)
(0.00188146581869 0.000164223365837 0)
(0.00191877560739 0.000148501459197 0)
(0.00195239449155 0.000136483931267 0)
(0.00198181487669 0.000124311309632 0)
(0.00200713694854 0.000110375124807 0)
(0.00202855015524 9.43855749956e-05 0)
(0.00204602413714 7.64887813084e-05 0)
(0.00205937375731 5.6711984358e-05 0)
(0.00206821950088 3.52410266136e-05 0)
(0.00207191219122 1.30252436734e-05 0)
(0.00206935556312 -9.38769516041e-06 0)
(0.00205943740385 -3.38945105921e-05 0)
(0.00204222852211 -6.18163674043e-05 0)
(0.00202111780009 -8.80167903823e-05 0)
(0.0019979482384 -0.000109965415032 0)
(0.00196746493134 -0.000132471912299 0)
(0.00192287514541 -0.000160662581342 0)
(0.00185875806688 -0.000201110175226 0)
(0.00176802347554 -0.000265215298677 0)
(0.00164428181513 -0.00036669876616 0)
(0.00149851399602 -0.000515520032957 0)
(0.00134262433599 -0.000696989960036 0)
(0.00126570860994 -0.000814034567129 0)
(0.00116146866762 -0.000727024326879 0)
(0.000972451252973 -0.000516585170187 0)
(0.000850007572027 -0.000396621223932 0)
(0.000752377004241 -0.00034865899643 0)
(0.000676087143621 -0.00034956313217 0)
(0.00062133581881 -0.000378755587986 0)
(0.000569981067368 -0.00040055381562 0)
(0.000499298838383 -0.00038612987594 0)
(0.000403176761608 -0.000346710069225 0)
(0.000335575522455 -0.000333595884675 0)
(0.00027115099102 -0.000333686382374 0)
(0.000204831420791 -0.000327562463315 0)
(0.000138373757191 -0.0002774617494 0)
(8.89554336867e-05 -0.00024135969169 0)
(5.66229985153e-05 -0.000300474071898 0)
(1.43431551634e-05 -0.000310808777252 0)
(-1.09942685835e-06 0.000209394440272 0)
(2.06699727576e-05 0.000224592439379 0)
(7.64498529108e-05 0.000333545061708 0)
(0.000109401943274 0.000287611072216 0)
(8.5351383514e-05 0.000151724347899 0)
(0.000119995428463 0.000158643753006 0)
(0.000247977801706 0.00028043838235 0)
(0.000290901523672 0.000293581983983 0)
(0.000331793629838 0.000275878281173 0)
(0.000381164134036 0.000260185942243 0)
(0.00043197776892 0.000236780080197 0)
(0.000420036002723 0.00018316901549 0)
(0.000395086421308 0.000131595522395 0)
(0.000432831325955 0.000128734852165 0)
(0.000483766853177 0.000150407566545 0)
(0.000568571813137 0.000191828963914 0)
(0.000654512649365 0.000233176025762 0)
(0.000716967640251 0.00025830250288 0)
(0.000744988819401 0.00026651037706 0)
(0.00079495564823 0.000284575414078 0)
(0.000851359559269 0.000299077525489 0)
(0.000900190049793 0.000298366024543 0)
(0.000948377983435 0.000290694380788 0)
(0.000995971330398 0.000281700506823 0)
(0.00104675566699 0.000274354556509 0)
(0.00109306206969 0.000266368176932 0)
(0.001130077387 0.000261108568513 0)
(0.00119053568184 0.000259104592486 0)
(0.0012194234915 0.00024893591682 0)
(0.00128380752335 0.000244121857199 0)
(0.0012890729774 0.000232423495105 0)
(0.00136386914095 0.000240309288611 0)
(0.00137953180864 0.00024284263399 0)
(0.00146203176954 0.000261340504659 0)
(0.00154247594123 0.000283144760451 0)
(0.00160193012087 0.000296042874998 0)
(0.00165380678086 0.000293723517769 0)
(0.00170319541759 0.000283299537346 0)
(0.00175051635451 0.000268994712282 0)
(0.0017962044709 0.000250853990995 0)
(0.0018402901038 0.000228597359442 0)
(0.00188196680553 0.000205672136227 0)
(0.00192033562594 0.000185770600637 0)
(0.00195470496984 0.000168556956197 0)
(0.00198474519161 0.000151683224575 0)
(0.0020104958711 0.000133573668252 0)
(0.00203207798897 0.000113622127746 0)
(0.00204933675765 9.16388213072e-05 0)
(0.00206188982025 6.74895482474e-05 0)
(0.00206923496895 4.12215708063e-05 0)
(0.00207069066025 1.32159737836e-05 0)
(0.00206533758004 -1.63785131512e-05 0)
(0.00205251363378 -4.79688506825e-05 0)
(0.00203267430503 -8.08034892288e-05 0)
(0.00200730704176 -0.000112429203306 0)
(0.0019754379814 -0.000143836569778 0)
(0.00193122762765 -0.000180716394575 0)
(0.00186743269114 -0.000229668554088 0)
(0.00177852173144 -0.000297988823881 0)
(0.00166056358783 -0.000392449409935 0)
(0.00152010888102 -0.000516359595982 0)
(0.00137764619625 -0.000659201707018 0)
(0.00119514469908 -0.000767196126272 0)
(0.00121023644143 -0.000933397339719 0)
(0.00103131658667 -0.000824065933254 0)
(0.000874181200283 -0.000621608185267 0)
(0.000780888448267 -0.000509711101947 0)
(0.000682131372884 -0.000441771361242 0)
(0.00059587754023 -0.000415640085445 0)
(0.000549514841334 -0.000444818733276 0)
(0.000502284524487 -0.000476337229992 0)
(0.000416958264653 -0.000441226957394 0)
(0.000346421175697 -0.000409135458846 0)
(0.00028953803814 -0.000406873871286 0)
(0.000221817050675 -0.000404749822182 0)
(0.000166331580782 -0.000388556061647 0)
(0.000109977424259 -0.000314068066919 0)
(7.01538059043e-05 -0.000282795608988 0)
(4.17633323856e-05 -0.000336707451892 0)
(1.15782175462e-05 -0.000335694219835 0)
(6.43980937117e-06 0.000226139698605 0)
(4.42335232905e-05 0.000287294816908 0)
(9.55464837221e-05 0.000360481347159 0)
(0.000106848967042 0.000343547528165 0)
(7.72704862969e-05 0.000190723087539 0)
(0.000163779184906 0.000269700218969 0)
(0.000244140449363 0.000335820205195 0)
(0.000270511331586 0.00032991101673 0)
(0.000308517371785 0.000315790606774 0)
(0.000339985587097 0.000299145060429 0)
(0.000398732619926 0.000267132884888 -2.4599552081e-28)
(0.00032763551115 0.000163203567458 1.55929673393e-28)
(0.000376796609993 0.000160689279961 0)
(0.000413271933411 0.000178359736131 0)
(0.000490132449608 0.000225540044725 0)
(0.000583142089534 0.000280794152981 0)
(0.000647414597549 0.00030089031366 0)
(0.000665529639333 0.000292083349088 0)
(0.000718912464214 0.000311463133664 0)
(0.000783679493412 0.000340500123714 0)
(0.000831725238603 0.000349898816681 0)
(0.000880992520155 0.000347605769779 0)
(0.000930365223184 0.000340623438359 0)
(0.000979055302711 0.000330592517708 0)
(0.00102208529395 0.000318637032885 0)
(0.00106085419223 0.000308703772877 0)
(0.00111868697226 0.000307140914674 0)
(0.00113972466764 0.000300568033178 0)
(0.0012145880919 0.000296783452243 0)
(0.00121372592098 0.000272949986898 0)
(0.00129464307065 0.000280710690412 0)
(0.00131348475543 0.000286693880738 -8.83900114657e-29)
(0.0013950609237 0.000306364625022 9.01181363779e-29)
(0.00146058536089 0.000333033211056 0)
(0.00154556212146 0.000354453624985 0)
(0.00160144190264 0.000354388469737 0)
(0.0016510082771 0.000344866348433 0)
(0.00170007943157 0.000331597873909 0)
(0.00174854128125 0.000315371493501 0)
(0.00179550636809 0.000295590940773 0)
(0.00184047943957 0.000272205755232 0)
(0.00188306199611 0.000247378125548 0)
(0.00192238396022 0.000223691758083 0)
(0.00195762689419 0.000201595612031 0)
(0.00198843622372 0.000179864761894 0)
(0.00201477571321 0.000157215869435 0)
(0.0020365900587 0.000132834538571 0)
(0.00205351356686 0.000106205659219 0)
(0.00206497347743 7.6977993304e-05 0)
(0.00207037036363 4.50286771744e-05 0)
(0.00206902416827 1.04858960827e-05 0)
(0.00206016212898 -2.64349497539e-05 0)
(0.00204329925076 -6.53403997564e-05 0)
(0.00201847356724 -0.000105337455666 0)
(0.00198533092041 -0.000146312939206 0)
(0.00194082144449 -0.000191779717782 0)
(0.00187862926511 -0.00024825509772 0)
(0.00179309165725 -0.000321365542477 0)
(0.00168416875939 -0.000413856745307 0)
(0.00156069688532 -0.000525333687686 0)
(0.00143398889929 -0.000650832213571 0)
(0.00131265956209 -0.000779169271456 0)
(0.00121204261294 -0.000905594939958 0)
(0.00114695191853 -0.00103135409168 0)
(0.000986152396917 -0.000953474339183 0)
(0.00076313843209 -0.000704918865414 0)
(0.000700090734046 -0.000607246318426 0)
(0.000618735411462 -0.000543670669821 0)
(0.000536184477358 -0.000505747637417 0)
(0.000480024359527 -0.000518307465075 0)
(0.000425847344243 -0.000525333545515 0)
(0.000358378462639 -0.000487735060033 0)
(0.000307539833174 -0.000478123641918 0)
(0.000243840608597 -0.000476385431693 0)
(0.000182291365434 -0.000469595547204 0)
(0.000131948835425 -0.000420532567796 0)
(9.08887801298e-05 -0.000362641379407 0)
(4.69292657929e-05 -0.000319699782193 0)
(2.37923017686e-05 -0.000357882418297 0)
(8.15916906953e-06 -0.000362050089567 0)
(1.36204368645e-05 0.000260686370418 0)
(6.01518996855e-05 0.000343701082744 0)
(0.000103225074876 0.000373785227116 0)
(6.74428630794e-05 0.000240765070623 0)
(7.81618398051e-05 0.000233619179006 0)
(0.000179818072669 0.000359434340329 0)
(0.000217831714931 0.000370015244367 0)
(0.000251467400568 0.000364670045166 0)
(0.000274480075139 0.00034559892948 0)
(0.000315055880778 0.000330480273522 0)
(0.000269498188253 0.000218351852127 0)
(0.000308304492676 0.000192074596161 0)
(0.000354331883921 0.000203160484313 0)
(0.000400004912531 0.000236788614881 0)
(0.000503137017238 0.000312400334627 0)
(0.000574221267318 0.000347091630982 0)
(0.000586627775823 0.000328402683548 0)
(0.000632658182203 0.000337066050188 0)
(0.00070481462412 0.000373603526428 0)
(0.0007610714076 0.000394895343981 0)
(0.00080731202875 0.000398514040599 0)
(0.000854416672977 0.000395584864015 0)
(0.00090621717675 0.000391156036011 0)
(0.000954360223014 0.00038015889051 0)
(0.00100521582995 0.000363883302038 0)
(0.00103255446078 0.000353956471702 0)
(0.00109890690557 0.000353528424174 0)
(0.00112920135673 0.000342321617221 0)
(0.00115142815758 0.000327506383742 0)
(0.00120443948777 0.00032585765355 0)
(0.00129420733653 0.000339665799823 0)
(0.00132101297843 0.000341335963487 0)
(0.0013731726646 0.000370399739818 0)
(0.00148031884471 0.000410897383877 0)
(0.00154041106769 0.000420006123054 0)
(0.00159413895959 0.000410039222069 0)
(0.00164578431979 0.00039616455216 0)
(0.00169630071573 0.000380956894858 0)
(0.00174624368096 0.000363247635995 0)
(0.00179479823214 0.000341878585815 0)
(0.00184109273307 0.000316839540381 0)
(0.00188473797182 0.000289689921967 0)
(0.00192511446834 0.000262355517918 0)
(0.00196141876235 0.000235596589344 0)
(0.00199318784153 0.000208922301643 -8.45213953989e-29)
(0.00202025384422 0.000181369679465 8.42987504283e-29)
(0.00204232573675 0.000151984337876 0)
(0.00205878589148 0.000119972215323 0)
(0.00206888074361 8.47953506633e-05 0)
(0.00207192143423 4.62186297693e-05 0)
(0.00206718695697 4.27321904098e-06 0)
(0.00205390836215 -4.07682770804e-05 0)
(0.0020314554853 -8.84295714057e-05 0)
(0.00199906737965 -0.000138599164999 0)
(0.00195476671842 -0.000193144189953 0)
(0.00189431056241 -0.0002569407608 0)
(0.00181248921645 -0.000335392120605 0)
(0.0017089441248 -0.000428895162825 0)
(0.00159366138923 -0.00053343794131 0)
(0.00148039479481 -0.000645963652244 0)
(0.00137382953827 -0.000762357873113 0)
(0.00127659247651 -0.000878584609094 0)
(0.00119330903196 -0.000994418881468 0)
(0.00110884401883 -0.00110783191115 0)
(0.00109568952865 -0.00120089156094 0)
(0.000755356016476 -0.000861987714229 0)
(0.000599350349868 -0.00070024438434 0)
(0.000519633292939 -0.000624883889167 0)
(0.000443171818772 -0.000571188834997 0)
(0.000398478857023 -0.000562832658184 0)
(0.000363076390029 -0.000555092978071 0)
(0.000319540849723 -0.000538819828944 0)
(0.000268697151763 -0.000544112331465 0)
(0.000203857312193 -0.000543013319652 0)
(0.000147656111338 -0.000521767192835 0)
(9.95328944418e-05 -0.000458569499343 0)
(5.99647856366e-05 -0.000410564627145 0)
(1.78486603939e-05 -0.000362495312821 0)
(-3.05393790021e-06 -0.000368958035045 0)
(-2.38676517572e-06 -0.000376705985547 0)
(1.83419446093e-05 0.000302690152467 0)
(6.51692060713e-05 0.000386461056419 0)
(8.22431732671e-05 0.00038409010294 0)
(6.12659742356e-05 0.000262037476657 0)
(0.00010408066544 0.000300803555862 0)
(0.000176732953619 0.00040030573895 0)
(0.000192818018446 0.000401079864014 0)
(0.000232840545787 0.000396146520382 0)
(0.000230169577666 0.0003481235783 0)
(0.000294566331708 0.000370668563693 0)
(0.000246220363316 0.000242590254099 0)
(0.000296663637108 0.000234553881516 0)
(0.000335526009547 0.000251708882614 0)
(0.000408212535201 0.000316757900951 0)
(0.00049372215647 0.00038657004351 0)
(0.000543254536577 0.000393454446181 0)
(0.000554057417331 0.000369393100037 0)
(0.000613529854769 0.000396520238646 0)
(0.000678641062646 0.000432500480247 0)
(0.000731205222167 0.000446920197443 0)
(0.000781203919477 0.000448020185787 0)
(0.000825986686822 0.000442686494502 0)
(0.000875948274956 0.000438040593157 0)
(0.00091480934034 0.000425023960131 0)
(0.00095103180959 0.000401241732964 0)
(0.00101949422507 0.000400496648849 0)
(0.00102243541291 0.000387821195793 0)
(0.00112442489005 0.000393438098092 0)
(0.00112528894189 0.000377641505908 0)
(0.00122486104528 0.000393768720983 0)
(0.00122947711276 0.000382624879028 0)
(0.00133513780924 0.000411149023714 0)
(0.00140593924187 0.000450525350687 -9.43977190814e-29)
(0.00147266369909 0.000478220467261 9.46597687121e-29)
(0.00153035568394 0.000477815474126 0)
(0.00158521850234 0.000465120866958 0)
(0.00163926287349 0.000449369743436 0)
(0.00169192566911 0.000432331576064 0)
(0.00174359552557 0.000412968731879 0)
(0.00179386567842 0.000389891866928 0)
(0.00184187279666 0.000362849256967 0)
(0.00188701190877 0.00033302961448 0)
(0.00192870718807 0.000302021762243 0)
(0.00196630082085 0.000270701038289 0)
(0.00199929515305 0.000238978224956 0)
(0.00202726889636 0.000206107246636 0)
(0.0020496352328 0.000171042315264 0)
(0.00206555498089 0.000132780439719 0)
(0.00207411417121 9.06504521331e-05 0)
(0.00207447976201 4.43488299413e-05 0)
(0.00206580172123 -6.17811751882e-06 0)
(0.0020471599976 -6.08145801005e-05 0)
(0.0020175355448 -0.000119548361064 0)
(0.00197523447778 -0.000183371689336 0)
(0.00191711794525 -0.000255358096249 0)
(0.00183907611776 -0.000339800759817 0)
(0.00173878264288 -0.000438375495501 0)
(0.00162365550539 -0.000543130641117 0)
(0.00151232696126 -0.000646979495099 0)
(0.00141392060096 -0.000753157451552 0)
(0.0013214998345 -0.000860394247784 0)
(0.00122957800963 -0.000965107681873 0)
(0.00114726158641 -0.00106967913459 0)
(0.00107634143886 -0.00117106826354 0)
(0.00105809859084 -0.00127502281546 0)
(0.000922537078256 -0.00118845851325 0)
(0.000545875535025 -0.000813819053621 0)
(0.000404682436829 -0.000711591827386 0)
(0.000353798517349 -0.000632710077949 0)
(0.000331860629178 -0.000587898574443 0)
(0.00031729468599 -0.000574631433447 0)
(0.000289406454597 -0.00058969544475 0)
(0.000235829247587 -0.000609355321616 0)
(0.000170348870854 -0.000606494734619 0)
(0.000110496503873 -0.000569020716727 0)
(5.71311196682e-05 -0.00050984111123 0)
(9.80831118565e-06 -0.000454726367103 0)
(-2.55529637775e-05 -0.000402933386921 0)
(-3.52331647853e-05 -0.000372181035898 0)
(-1.57342635186e-05 -0.000360140456683 0)
(2.11924392961e-05 0.000352202196337 0)
(6.93797968186e-05 0.00041603676519 0)
(7.149493017e-05 0.000380735839471 0)
(5.88093209098e-05 0.000280941601718 0)
(0.000124728590929 0.000391252982446 0)
(0.000152447827969 0.000412356687789 0)