/*--------------------------------*- C++ -*----------------------------------*\
| =========                 |                                                 |
| \\      /  F ield         | OpenFOAM: The Open Source CFD Toolbox           |
|  \\    /   O peration     | Version:  v1806                                 |
|   \\  /    A nd           | Web:      www.OpenFOAM.com                      |
|    \\/     M anipulation  |                                                 |
\*---------------------------------------------------------------------------*/
FoamFile
{
    version     2.0;
    format      ascii;
    class       volScalarField;
    location    "311";
    object      pa;
}
// * * * * * * * * * * * * * * * * * * * * * * * * * * * * * * * * * * * * * //

dimensions      [0 2 -2 0 0 0 0];


internalField   nonuniform List<scalar> 
6400
(
-0.126231878622
-0.126233358683
-0.126237481367
-0.126245360324
-0.126256676449
-0.126271280774
-0.126289246277
-0.126311352816
-0.126337781056
-0.126368720886
-0.126407769894
-0.126456883403
-0.126513976433
-0.126579232619
-0.126654125167
-0.126740352018
-0.126838665669
-0.126948831549
-0.127070036008
-0.127199200579
-0.127332072076
-0.127468796737
-0.127613655844
-0.127771724877
-0.127946741524
-0.128138907758
-0.128345854922
-0.128566024953
-0.128799713076
-0.129048043251
-0.129312088463
-0.129591114164
-0.129880671947
-0.130176298453
-0.130476740662
-0.130779052656
-0.131082658166
-0.131394910551
-0.13171526833
-0.13203368243
-0.132351612608
-0.132684432616
-0.133040847843
-0.133413473613
-0.133793657269
-0.134176332277
-0.134557596725
-0.134935304008
-0.135307670145
-0.135673436191
-0.136032390972
-0.136379989343
-0.136709072767
-0.137008347657
-0.137278486544
-0.137531179259
-0.137763152181
-0.137960362681
-0.138117528697
-0.138244721366
-0.138347949204
-0.138429447831
-0.138487953847
-0.138538128852
-0.13860513645
-0.138702987661
-0.138823925666
-0.138941788505
-0.139038028183
-0.139111712965
-0.139168060293
-0.139212655913
-0.139249187877
-0.139278021586
-0.139300779963
-0.139318387056
-0.139331416967
-0.139339225358
-0.139343826536
-0.139345706246
-0.126229731433
-0.126231292505
-0.12623494755
-0.126242659694
-0.126254943974
-0.126270515222
-0.126288796805
-0.126309860954
-0.126335089756
-0.126366028361
-0.12640483747
-0.12645307613
-0.12651026763
-0.126576131385
-0.126651153279
-0.126736350167
-0.126834108012
-0.126944675418
-0.127066922833
-0.127196870914
-0.12732834857
-0.127463292115
-0.127607411048
-0.127764985173
-0.127940038452
-0.128132727099
-0.128339631093
-0.128560007996
-0.128794298414
-0.129043064458
-0.129306733249
-0.129585737674
-0.129876068592
-0.130171443961
-0.130471978122
-0.130774388117
-0.131077314796
-0.131389770567
-0.131710937219
-0.132028978378
-0.132343166372
-0.132674352508
-0.13303531008
-0.133411157448
-0.133792573155
-0.134176642044
-0.13455911869
-0.134938367687
-0.135311841583
-0.135676025996
-0.136030748875
-0.136378498224
-0.136717033344
-0.137019363773
-0.137291042084
-0.137549023578
-0.137777697924
-0.137968776125
-0.138125815524
-0.138252646873
-0.138351762245
-0.138434135584
-0.138496163527
-0.138548600163
-0.138617146953
-0.138715656927
-0.138838203576
-0.138955448381
-0.139050164487
-0.139122704564
-0.139177999421
-0.139221727729
-0.139257564807
-0.139285678549
-0.139307114024
-0.139323173231
-0.139334490128
-0.139341401185
-0.139345513382
-0.139346824271
-0.126223757902
-0.126226355224
-0.126229502402
-0.126236531634
-0.126248407498
-0.126265950379
-0.126286034711
-0.12630638781
-0.126330074396
-0.126360094337
-0.126398308961
-0.126445927339
-0.126502967751
-0.126569014467
-0.126643861027
-0.126726352297
-0.126822144262
-0.126936723498
-0.127061287589
-0.127190321063
-0.127318663473
-0.127448808857
-0.1275911908
-0.127750322128
-0.127925473484
-0.128117176801
-0.128324562312
-0.128545973439
-0.128781004669
-0.129030297483
-0.12929400435
-0.129573114185
-0.12986511359
-0.130159248856
-0.130457503457
-0.130762023154
-0.131064074673
-0.131373857992
-0.131695337228
-0.132015527481
-0.132336074139
-0.132671185715
-0.133028642667
-0.133401827382
-0.133782948659
-0.134167493974
-0.134551857581
-0.134933432576
-0.135309663681
-0.135678123967
-0.136037548687
-0.136386124161
-0.1367176434
-0.137023654817
-0.137307687225
-0.137567435217
-0.137792281477
-0.137981654568
-0.138138348856
-0.138265575834
-0.13836786226
-0.138450448002
-0.138513244827
-0.138571562692
-0.138647136883
-0.138749789661
-0.138868166697
-0.138980950503
-0.13907447313
-0.139146162718
-0.139200358706
-0.139242233028
-0.139274611681
-0.139298980269
-0.139317695799
-0.139331360843
-0.139340249512
-0.139345484457
-0.139348538273
-0.139349522913
-0.126215618735
-0.126218185541
-0.126220576196
-0.126226991189
-0.126237339811
-0.126254589985
-0.126280670167
-0.126300907787
-0.126322659273
-0.126351105773
-0.126388399236
-0.126435508724
-0.12649245393
-0.126557821651
-0.126632227898
-0.126718221175
-0.126817321741
-0.126929785163
-0.127048774295
-0.127168908987
-0.127292927416
-0.127425075551
-0.127568609975
-0.127727192207
-0.12790242359
-0.12809457682
-0.128302787391
-0.128525231691
-0.128761341089
-0.12901118427
-0.129275909238
-0.129555460986
-0.129847543958
-0.13014501129
-0.130439485077
-0.130738766014
-0.131044524094
-0.131352776384
-0.131668289062
-0.131990236462
-0.132318196875
-0.132658740392
-0.133016801751
-0.133389439534
-0.133771043404
-0.134157057724
-0.134543812579
-0.134928379137
-0.135308117711
-0.135680594546
-0.136043663881
-0.136394443184
-0.136728170504
-0.137039958234
-0.13732817873
-0.137587891365
-0.137812651764
-0.138001942026
-0.138158785472
-0.138287124328
-0.138391594319
-0.13847669772
-0.138546979698
-0.138616913466
-0.138697291638
-0.138796582796
-0.138912969108
-0.139023862189
-0.139115324098
-0.139184655944
-0.139235056019
-0.139271196664
-0.13929764372
-0.139318409764
-0.139334151161
-0.139344169827
-0.139349512044
-0.139352587506
-0.139354538982
-0.13935530336
-0.12620300102
-0.126203219125
-0.126206179124
-0.126212651256
-0.126223998162
-0.126239840904
-0.126263067484
-0.126285809319
-0.126309081103
-0.126337817133
-0.126374356214
-0.126421062117
-0.12647808282
-0.126546673188
-0.126625968652
-0.126712414109
-0.126807313834
-0.126910772638
-0.127021165259
-0.127138316533
-0.127262541164
-0.127394651142
-0.127538218271
-0.12769694632
-0.127872308058
-0.128064964844
-0.128273759065
-0.128497436959
-0.128734776652
-0.128986090189
-0.12925136375
-0.129533238306
-0.129829060754
-0.130121842103
-0.130414312087
-0.13071041113
-0.131010253263
-0.131318096207
-0.131634865793
-0.131959880021
-0.132293374293
-0.132638759835
-0.132998951362
-0.133372575004
-0.133755641361
-0.134143972595
-0.134533870801
-0.134922223188
-0.135306300251
-0.135683553183
-0.136051359567
-0.136406465642
-0.136744731718
-0.137061935005
-0.137354071767
-0.13761538359
-0.13784115397
-0.13803155268
-0.138190001393
-0.138320983429
-0.138429393492
-0.138520365397
-0.138601136271
-0.138682159208
-0.138764624641
-0.138863128078
-0.138977350092
-0.139085420131
-0.13917344693
-0.139237821073
-0.139280945065
-0.139309348294
-0.139330869448
-0.139347826465
-0.139358207583
-0.139362863735
-0.13936426239
-0.139365024285
-0.139364870658
-0.139364469512
-0.126179371508
-0.126179013059
-0.126184411386
-0.126190860463
-0.12620306928
-0.126219918787
-0.126241165239
-0.126264276686
-0.126289629792
-0.126319337061
-0.126354651715
-0.126401351739
-0.126463527465
-0.126536791554
-0.126615303502
-0.126697769147
-0.12678593834
-0.126882659373
-0.126989191589
-0.127104228704
-0.127225947071
-0.127356816954
-0.127500388983
-0.127659520783
-0.127835293154
-0.128027749037
-0.128237635995
-0.128462358548
-0.128701600091
-0.1289543795
-0.12922223979
-0.129504873561
-0.129798251105
-0.130094744699
-0.130381154852
-0.130669132485
-0.130966711105
-0.131275407248
-0.131594469628
-0.131923066694
-0.132261440521
-0.132611521034
-0.132974967266
-0.133350973132
-0.133736597469
-0.134128142035
-0.134521996862
-0.134914982278
-0.135304327688
-0.135687405548
-0.136061360656
-0.136422755985
-0.136767463382
-0.137090817911
-0.137387521411
-0.137651854339
-0.137880419058
-0.138074084266
-0.13823645548
-0.138372225214
-0.138486539961
-0.138585649381
-0.13867973146
-0.138767312586
-0.138852602402
-0.138953881168
-0.1390684404
-0.139172292809
-0.139253231672
-0.139307878076
-0.139340736775
-0.139362069752
-0.139378651895
-0.139388071745
-0.139390315707
-0.139388141888
-0.139384856724
-0.139381102268
-0.139377789916
-0.13937619978
-0.126143235751
-0.126145758816
-0.126155228232
-0.126164928773
-0.126174713698
-0.126191410412
-0.126213876752
-0.126237450017
-0.126264259936
-0.126294999434
-0.126332416242
-0.126380094029
-0.126446211962
-0.126518779543
-0.126594033774
-0.126670864855
-0.126754140138
-0.12684863638
-0.126953405764
-0.127063865346
-0.127182351255
-0.127312428775
-0.127455666362
-0.127614372269
-0.127790263527
-0.127984756765
-0.128193542546
-0.128419834598
-0.128661178134
-0.128918476016
-0.129188052932
-0.129469122931
-0.129761740551
-0.130050607754
-0.1303336362
-0.130618260592
-0.130915203383
-0.131225351568
-0.131547092098
-0.131879344646
-0.132222299846
-0.132577116508
-0.132944651948
-0.133324228596
-0.13371351446
-0.134109238295
-0.134507960162
-0.13490655898
-0.135302309158
-0.135692570925
-0.136074353585
-0.136443982689
-0.13679694031
-0.137127846946
-0.137430743416
-0.137700356319
-0.137934342766
-0.138134041907
-0.138302936992
-0.138445374555
-0.138567146178
-0.138676464271
-0.138779794601
-0.13887336791
-0.138972579312
-0.139077870179
-0.139190825215
-0.13928642044
-0.13935525238
-0.13939711477
-0.139420190267
-0.139434927533
-0.139442070398
-0.139439564327
-0.139430958729
-0.139419768486
-0.139409253617
-0.139399096926
-0.139391494931
-0.139388196367
-0.126101038018
-0.126106256755
-0.126117310179
-0.126131774923
-0.126142297365
-0.126159297576
-0.126180797755
-0.126205171619
-0.126233931918
-0.126262755001
-0.126304046944
-0.126358132757
-0.126422399799
-0.126492416822
-0.126562678034
-0.126634048784
-0.126715856003
-0.126810132193
-0.126910540682
-0.127016455665
-0.127132060354
-0.12726089983
-0.127403653063
-0.127562892833
-0.127739607009
-0.127934096457
-0.128145175873
-0.128368028745
-0.128614548596
-0.128878388833
-0.129147251388
-0.129422000958
-0.129711161908
-0.129994440203
-0.130272223423
-0.130557922275
-0.130856157088
-0.131167945309
-0.13149232597
-0.131828252927
-0.132175731075
-0.132535457366
-0.132907786617
-0.13329196986
-0.133685985244
-0.134086900646
-0.134491511261
-0.134896869953
-0.135300383898
-0.135699456528
-0.136090983333
-0.136470975922
-0.1368343357
-0.137174976433
-0.137486672079
-0.137764712204
-0.138007476923
-0.138216162557
-0.138393212191
-0.138542262764
-0.138670307745
-0.138787027205
-0.138898787625
-0.139008562414
-0.139120913012
-0.139236822433
-0.139345861407
-0.139430522541
-0.139485294088
-0.139514094655
-0.139527153374
-0.139530688571
-0.13952169137
-0.139502841639
-0.139479516126
-0.13945581497
-0.139434044615
-0.139415972312
-0.139403341233
-0.139397615613
-0.12605517008
-0.126062108172
-0.126073265544
-0.126084716444
-0.126098741031
-0.126120399284
-0.126141184013
-0.126165790675
-0.126197946926
-0.126229070275
-0.1262673773
-0.126325751697
-0.126390700176
-0.126456525315
-0.126522405697
-0.126592674366
-0.126672512106
-0.126763698195
-0.126859921762
-0.126962699932
-0.127075704983
-0.127202141194
-0.127342853001
-0.127501282927
-0.127682863059
-0.127875765112
-0.128088670569
-0.128316912183
-0.128561401049
-0.128823438616
-0.129094818718
-0.129373820747
-0.129647340283
-0.129922624453
-0.130201151835
-0.130488915029
-0.130789050108
-0.13110271511
-0.131429704844
-0.131769315926
-0.132121413594
-0.132486326261
-0.132864069953
-0.133253780994
-0.133653559075
-0.134060721362
-0.134472357518
-0.134885800999
-0.13529866519
-0.135708435433
-0.136111922866
-0.136504782036
-0.136881298624
-0.137234784661
-0.137558894516
-0.137849353482
-0.138104556884
-0.138324365396
-0.138509071972
-0.138662202944
-0.138794463194
-0.138919573113
-0.139044820781
-0.139171093344
-0.139296712612
-0.13942877223
-0.139544730142
-0.139613821436
-0.139652824586
-0.139667925934
-0.139667092291
-0.139651137123
-0.139619115435
-0.139578013901
-0.139534430951
-0.139492658901
-0.139455923949
-0.139428201672
-0.139410258546
-0.139402015317
-0.126005088518
-0.126013300192
-0.126026146032
-0.126036938101
-0.12605179652
-0.126073490254
-0.126094471767
-0.126118548954
-0.126149035558
-0.126188651354
-0.12622848962
-0.126285650712
-0.12634999021
-0.126412207773
-0.126473471565
-0.126544102314
-0.126624692128
-0.126710913411
-0.126802089488
-0.126901892234
-0.127013236863
-0.127137818129
-0.1272765064
-0.127431164364
-0.127615415767
-0.127813527717
-0.128018658771
-0.128251914328
-0.128497280881
-0.128761669682
-0.129032251675
-0.129306001294
-0.129575306014
-0.129843087607
-0.130121155887
-0.130411038965
-0.130713378186
-0.131029172161
-0.131358786964
-0.131702046371
-0.132058884372
-0.132429335772
-0.132813098281
-0.133209171868
-0.133615712038
-0.134030233984
-0.134450149408
-0.134873165445
-0.135297179782
-0.135719817924
-0.136137837518
-0.136546609281
-0.136939853392
-0.137310347396
-0.137651605929
-0.137959184872
-0.13823018389
-0.138460951475
-0.138649097828
-0.138802849221
-0.138941207754
-0.139081058926
-0.139224638457
-0.139367687632
-0.139508395285
-0.139646243199
-0.139765809955
-0.139847004229
-0.139869594123
-0.139867143814
-0.139845054284
-0.139800420627
-0.13973647784
-0.139664383465
-0.139593252183
-0.139526755097
-0.139470908176
-0.139431757759
-0.139408439987
-0.139398188753
-0.125948775685
-0.125956690329
-0.125970226547
-0.125983603396
-0.126002760451
-0.126020431889
-0.126040804958
-0.12606529207
-0.126090236283
-0.126133043065
-0.126179284813
-0.126235640068
-0.126298892118
-0.126359834971
-0.126419171939
-0.126487892395
-0.126567698422
-0.126650151527
-0.126737032597
-0.126832993588
-0.12694225151
-0.127066153027
-0.127206462378
-0.127358072748
-0.127534193251
-0.127741334394
-0.127950056916
-0.128179242488
-0.128423415265
-0.128676975431
-0.128952387545
-0.129224434451
-0.129488664972
-0.129753975634
-0.130032390523
-0.130324068445
-0.130628642187
-0.130946807985
-0.131279153776
-0.131625992906
-0.131987619265
-0.132363949186
-0.132754325987
-0.133157554062
-0.133571820091
-0.133994851041
-0.134424421825
-0.134858660685
-0.135295822303
-0.135733742772
-0.136169291517
-0.136597661671
-0.137012207045
-0.137405226892
-0.13776964768
-0.138099583801
-0.138387873643
-0.1386242992
-0.138809547636
-0.138964941128
-0.139118746022
-0.139284240696
-0.139450619201
-0.139609852172
-0.139760117967
-0.139896293625
-0.140013212259
-0.140110107257
-0.140141424508
-0.140125244566
-0.140072022192
-0.1399873726
-0.139877046444
-0.139759748873
-0.139652363798
-0.139553233995
-0.139471312953
-0.139419370774
-0.139392078748
-0.139382029379
-0.12588477105
-0.125890874176
-0.125900528526
-0.125918065929
-0.125942713275
-0.125959233791
-0.125979255187
-0.126005759514
-0.126028766509
-0.126067911123
-0.126118615603
-0.126175273581
-0.126236714656
-0.126297149623
-0.126359020629
-0.126426588607
-0.126503086973
-0.126581524039
-0.126664825084
-0.126756765961
-0.126861508832
-0.126981646767
-0.127126593686
-0.127284810817
-0.127452393614
-0.127655656489
-0.127869180747
-0.128090528077
-0.1283416588
-0.128596689811
-0.128860120466
-0.129123365038
-0.129384809907
-0.129653646867
-0.12993387631
-0.130227308342
-0.13053415258
-0.130854952178
-0.131190316951
-0.131540744012
-0.131907057618
-0.132289488479
-0.132687067608
-0.133098213318
-0.133521125786
-0.133953832139
-0.134394525864
-0.13484177645
-0.135294213173
-0.135750071559
-0.136206472835
-0.136658868512
-0.137100582104
-0.137523439833
-0.137918708409
-0.138275468652
-0.138577197485
-0.138810533253
-0.138990592938
-0.139156251598
-0.139344550627
-0.139552288847
-0.139744156658
-0.139917003972
-0.140074087731
-0.140208089252
-0.14031618251
-0.140402673881
-0.140461332804
-0.140450864779
-0.140371781742
-0.140231128669
-0.140047381371
-0.139858463575
-0.139707603938
-0.139563788925
-0.139441626998
-0.139378514143
-0.139354534543
-0.139351979959
-0.125812998469
-0.125817320453
-0.125821506394
-0.125841243467
-0.125865216855
-0.12588509958
-0.125906500663
-0.125935090036
-0.125960941218
-0.125997749713
-0.126049116674
-0.12610509537
-0.126164089059
-0.126221421724
-0.126286306042
-0.126356869317
-0.12643015205
-0.126504764549
-0.126584932379
-0.126673615134
-0.126773352704
-0.126886506144
-0.127027762145
-0.127198985807
-0.127368071387
-0.127557375163
-0.12777736832
-0.12799887572
-0.128237581362
-0.128493633759
-0.128754187667
-0.129012693571
-0.12927087081
-0.129541538557
-0.129824230997
-0.13011988428
-0.130429105282
-0.13075257272
-0.131091332384
-0.13144581664
-0.131816855807
-0.132205318035
-0.132610445883
-0.133030234629
-0.133462698245
-0.133906230671
-0.134359558336
-0.13482166084
-0.13529158335
-0.135768014986
-0.136248862821
-0.13673038796
-0.137206868746
-0.137669436368
-0.13810472492
-0.138488690694
-0.138794515458
-0.13901912631
-0.139197962846
-0.139390640888
-0.139646904876
-0.139920051964
-0.140132987879
-0.14031597631
-0.140476232498
-0.140597257976
-0.140681664207
-0.14074443337
-0.140807001776
-0.140824323427
-0.140741762902
-0.140539854472
-0.140239226734
-0.13993700737
-0.139757988951
-0.139550428738
-0.139350834331
-0.139289751899
-0.139289361228
-0.139313007175
-0.1257341778
-0.12573907073
-0.125746120333
-0.125758880417
-0.12577878602
-0.125800536444
-0.125823723717
-0.125852541545
-0.125883903139
-0.125919810616
-0.125970853092
-0.126025711533
-0.126082646904
-0.126137207431
-0.126199735627
-0.126273109351
-0.126346023661
-0.126418734482
-0.126496393559
-0.126582297446
-0.126678179314
-0.126784959394
-0.12691869305
-0.127093923524
-0.127272173312
-0.127453902678
-0.127672258698
-0.12789744419
-0.128126118244
-0.128375593469
-0.128627270784
-0.128881231329
-0.129143587029
-0.129417179297
-0.12970246026
-0.130000605942
-0.130312750081
-0.130639198912
-0.130981151407
-0.13133997324
-0.131716326518
-0.132110994438
-0.132523721242
-0.132952551079
-0.133395341006
-0.133850817613
-0.134318275197
-0.134797056051
-0.135286405209
-0.135785837007
-0.136294426905
-0.136810816381
-0.137331894281
-0.137847740737
-0.138333472515
-0.138734370849
-0.1390331372
-0.139258787312
-0.139450321661
-0.139688435764
-0.140073309988
-0.140516018539
-0.140702846883
-0.14086149023
-0.141003156634
-0.14111066775
-0.141197163595
-0.141266452488
-0.141319730642
-0.14136928409
-0.141505678618
-0.141259638084
-0.140651617968
-0.139939042992
-0.13980253666
-0.139489086235
-0.139117701637
-0.13912078999
-0.139189803307
-0.139287569161
-0.125646402188
-0.125651838478
-0.125664039566
-0.12567032814
-0.125685747782
-0.125707480646
-0.125731838752
-0.12576189755
-0.125799930327
-0.125834078019
-0.125883798486
-0.125937493363
-0.125992955664
-0.126046550227
-0.12610688694
-0.126179615438
-0.126251783025
-0.126323361112
-0.126399014475
-0.126482094897
-0.126574696325
-0.126677356444
-0.126801371226
-0.126969933945
-0.127161783627
-0.127344178495
-0.127548595908
-0.127783193037
-0.128015430822
-0.128245758088
-0.128487670103
-0.128739329508
-0.129003244598
-0.129279370417
-0.129567511367
-0.129868572417
-0.130183602536
-0.130513623694
-0.130859374563
-0.13122237845
-0.131604260022
-0.132005652078
-0.132426204888
-0.132864168095
-0.133317664128
-0.133786008372
-0.134269022329
-0.134766076267
-0.135276397313
-0.135800044938
-0.136338647208
-0.136895571828
-0.137474097426
-0.138062438273
-0.138608321998
-0.138993958136
-0.139308148324
-0.139623381815
-0.139848974089
-0.140067215843
-0.140690459435
-0.140478497843
-0.140250716017
-0.140091070094
-0.139948121351
-0.139788552611
-0.139612589899
-0.139469930102
-0.139424611277
-0.139396410092
-0.139180990384
-0.138784867822
-0.13852379095
-0.139310697124
-0.140323091282
-0.139883765722
-0.138634199942
-0.138826458512
-0.139052750641
-0.139346006451
-0.125547915403
-0.125552700679
-0.125563097846
-0.125570008233
-0.125583276243
-0.125605150625
-0.125629475795
-0.125658136086
-0.125701807302
-0.12573885829
-0.125787161608
-0.125840086855
-0.125894901702
-0.125948953136
-0.126008021516
-0.126078432885
-0.126148894084
-0.126219328781
-0.126293082533
-0.126373321131
-0.126462284946
-0.126561486796
-0.126678261524
-0.126836556445
-0.127033047594
-0.127224376687
-0.127415734619
-0.127638756971
-0.127876014086
-0.128105616339
-0.12833899203
-0.128586416872
-0.128850188514
-0.12912822241
-0.129419042685
-0.12972279931
-0.130040994028
-0.130374527695
-0.130724623491
-0.131092372174
-0.131479806382
-0.131888210439
-0.132317072205
-0.132764229205
-0.133228105455
-0.133709570114
-0.134209611073
-0.134726793639
-0.135258104144
-0.135804462097
-0.136372541759
-0.136973807559
-0.137625747094
-0.138314816932
-0.138922829788
-0.139263600768
-0.139661346385
-0.139774099746
-0.139569451885
-0.139260293463
-0.139141030063
-0.139074469973
-0.138610351878
-0.137889210526
-0.137007804099
-0.136043418279
-0.13507892986
-0.134245407467
-0.133695680186
-0.133466864897
-0.133406551685
-0.133429549516
-0.133631969261
-0.134077700291
-0.134797241463
-0.135191731997
-0.136277047193
-0.138532212766
-0.138887989414
-0.139724441846
-0.125440293386
-0.125444362956
-0.125454443308
-0.125460713993
-0.125473419903
-0.125494611787
-0.125518392839
-0.125543728696
-0.125586111619
-0.125629671331
-0.12567921016
-0.125732171364
-0.125787222773
-0.125843807261
-0.125901467517
-0.125969251419
-0.126037647209
-0.126106969014
-0.126178744816
-0.126256117606
-0.126341231323
-0.12643609915
-0.126546650102
-0.126693601422
-0.126883828326
-0.127089236722
-0.12727931793
-0.127486406527
-0.12771258877
-0.127939473056
-0.128169798554
-0.128417568785
-0.128682009644
-0.128961712097
-0.129255423405
-0.129562537692
-0.129883858117
-0.130221235909
-0.130575787471
-0.13094885634
-0.13134226399
-0.131757597757
-0.132194976759
-0.132651750063
-0.133125681739
-0.133620107078
-0.134138359477
-0.134676359535
-0.135226263946
-0.135790186172
-0.136381448502
-0.137023427331
-0.137765514893
-0.138584129266
-0.139363167158
-0.139343888847
-0.139203690748
-0.13900500506
-0.138543059003
-0.137813953491
-0.136994256959
-0.13615471032
-0.135037484298
-0.133622795863
-0.131999654485
-0.130289729022
-0.128625075942
-0.127155634586
-0.126039113307
-0.125360737664
-0.125010145733
-0.12486144585
-0.12496636371
-0.125622839398
-0.127057317188
-0.128878563707
-0.130880848114
-0.13323964833
-0.138897469176
-0.139754746367
-0.125325050531
-0.125328051958
-0.125334987867
-0.125341948111
-0.125356719352
-0.125377022749
-0.125400928629
-0.125424176001
-0.125463915932
-0.125510053612
-0.12556017572
-0.125612674075
-0.125666926719
-0.125727133798
-0.125785062511
-0.125850218403
-0.125916661742
-0.125985538958
-0.126055487731
-0.126130043254
-0.126211225133
-0.126301124394
-0.126405385646
-0.12654171307
-0.126721962792
-0.126931936063
-0.127132210124
-0.127329782394
-0.127540874726
-0.127757923163
-0.127984669852
-0.128231535138
-0.128495904627
-0.128776932134
-0.129073766557
-0.1293849146
-0.129710666159
-0.130052259445
-0.130411986325
-0.130790719737
-0.131190390147
-0.131613436874
-0.132059968819
-0.132526775386
-0.133008164851
-0.133510035297
-0.134046118004
-0.134611150225
-0.135178238969
-0.135747162725
-0.136339944856
-0.136986212905
-0.137816719823
-0.138768610595
-0.139170313687
-0.138880719252
-0.138262071136
-0.137625192508
-0.136710386927
-0.13551567524
-0.134083874086
-0.132489772048
-0.13073016535
-0.12884161448
-0.126883518064
-0.12493495138
-0.123077571319
-0.121386103604
-0.119924045049
-0.118738777387
-0.117836625915
-0.11712055258
-0.116646778499
-0.116697021204
-0.117632687921
-0.119651289557
-0.122860748625
-0.127125069786
-0.132442346664
-0.140708203403
-0.125203985711
-0.125206059411
-0.125209379606
-0.125217461321
-0.125233794777
-0.12525285517
-0.125276319286
-0.125300028726
-0.125335540443
-0.125381518712
-0.125430859669
-0.125481952427
-0.125533710587
-0.125593442612
-0.12565509824
-0.125719074891
-0.125783694013
-0.125852084772
-0.125921502924
-0.125993923445
-0.126071564157
-0.126155851737
-0.126253643152
-0.126379591295
-0.126546108636
-0.126747203118
-0.126956671628
-0.127154400233
-0.127355905373
-0.12756489435
-0.127784255183
-0.128027622018
-0.128291905264
-0.128572019541
-0.12887203213
-0.129187813142
-0.12951786973
-0.129864934803
-0.130231048475
-0.130617299744
-0.131024344653
-0.1314547427
-0.131909677294
-0.132387473725
-0.132883735023
-0.133401421282
-0.133950528436
-0.134519846443
-0.135091959164
-0.135659739655
-0.136215652932
-0.136742923043
-0.137709741438
-0.138498098418
-0.137924372293
-0.137210453566
-0.136504888148
-0.135378865191
-0.133917208337
-0.132167782496
-0.13018430442
-0.128036062078
-0.125784905458
-0.123487096165
-0.121173986401
-0.118874894935
-0.116622966318
-0.114451527226
-0.112390839812
-0.110485635774
-0.10880807507
-0.107351306336
-0.106134432205
-0.105342959413
-0.10531714871
-0.106631661767
-0.109817006461
-0.114044690078
-0.116937397651
-0.118726277731
-0.125077799875
-0.125079442063
-0.125081318209
-0.125090952401
-0.12510628031
-0.125122876245
-0.125143338674
-0.125168489934
-0.125199517567
-0.125243811692
-0.125291694001
-0.125341055473
-0.125390611328
-0.125446756648
-0.125510892292
-0.125575203302
-0.125638615988
-0.125705395632
-0.125774330153
-0.125845720762
-0.125921027086
-0.125999670734
-0.126090524718
-0.126206574139
-0.126358954927
-0.126546467355
-0.126752214971
-0.126952370537
-0.127145379778
-0.12734678156
-0.127564081243
-0.127800374685
-0.128061760367
-0.12834302326
-0.128647017948
-0.128967985843
-0.129303188943
-0.129656528536
-0.130030057317
-0.130425109009
-0.130841965793
-0.131282144696
-0.131749874659
-0.132246898032
-0.132766536523
-0.133297717444
-0.133847707116
-0.134419188913
-0.135006211019
-0.13558175727
-0.136027136405
-0.135907224502
-0.137163380484
-0.136333010961
-0.13540022238
-0.134840700131
-0.133725439808
-0.1320956644
-0.130099642995
-0.127814873783
-0.125319340605
-0.122675646335
-0.119931022104
-0.117113528209
-0.114229958938
-0.111288762792
-0.108310833265
-0.105325411409
-0.102360311954
-0.0994496859476
-0.0966525844224
-0.0940134439049
-0.091433876587
-0.0889126327789
-0.0867186940994
-0.0856215665927
-0.0861473997904
-0.0850440872089
-0.0736847010023
-0.0565130241626
-0.124945233218
-0.124946678019
-0.124948408017
-0.124960048083
-0.124973807504
-0.124987524396
-0.125003834986
-0.125029158787
-0.125054651753
-0.125096346448
-0.125142631274
-0.125190149959
-0.1252379397
-0.125291565103
-0.12535483152
-0.125419119027
-0.125481846022
-0.125546803304
-0.125613637641
-0.125683743408
-0.125757640971
-0.125831303068
-0.125914321428
-0.126020725019
-0.126159506528
-0.12633176163
-0.126528721915
-0.126727301581
-0.126922636056
-0.127113738333
-0.12732521212
-0.127557166375
-0.127811869223
-0.128086039675
-0.12838964125
-0.128719539932
-0.129063060739
-0.129424970517
-0.129806777795
-0.13021146224
-0.130640843093
-0.131095954025
-0.131584523721
-0.132108568184
-0.132646100169
-0.133184380653
-0.133740046912
-0.134338121945
-0.135007602046
-0.135743854337
-0.136659234497
-0.135291418304
-0.133993251486
-0.133235823736
-0.132671545896
-0.131753488518
-0.130074751979
-0.127919969321
-0.125397571081
-0.122599988815
-0.11959770385
-0.116440804868
-0.113159326773
-0.109766109821
-0.106264772886
-0.102664434284
-0.0989829048489
-0.0952370266921
-0.091427711411
-0.0875390031015
-0.0835627460937
-0.0794956753646
-0.0751448607606
-0.0702519825062
-0.0648991761298
-0.0597067757959
-0.0544206293177
-0.0425839787493
-0.00925788114404
0.0391477566385
-0.124803199771
-0.124804386453
-0.124807047959
-0.124820984048
-0.124833364636
-0.1248445317
-0.12485811041
-0.124881283432
-0.124900942753
-0.124939027268
-0.12498337424
-0.125028780073
-0.125074582932
-0.125125521266
-0.125186416501
-0.125249896772
-0.125312764185
-0.125375651765
-0.125439188041
-0.125506864762
-0.125579183266
-0.12564890945
-0.125722957662
-0.125819554276
-0.125945595577
-0.126101508739
-0.126284929987
-0.126472889722
-0.126669915259
-0.126862087919
-0.1270640872
-0.12728493669
-0.127535840856
-0.127811631517
-0.12810721577
-0.12843735066
-0.128790740339
-0.129163316704
-0.129557947563
-0.129974994875
-0.130418228072
-0.130896106698
-0.131417886217
-0.131970286155
-0.13251805802
-0.133059874103
-0.133633777415
-0.134278677155
-0.135035353945
-0.13615348991
-0.134852105369
-0.133301510239
-0.131742629392
-0.130733495315
-0.129714351401
-0.12808689909
-0.125793772433
-0.123072232755
-0.120013358119
-0.116708503568
-0.113213257124
-0.109567976471
-0.10579705586
-0.101913879768
-0.0979254878008
-0.0938371165784
-0.0896488670255
-0.0853459824319
-0.0808871538198
-0.0761979879864
-0.0711750219628
-0.0656889709994
-0.0595461080202
-0.0523252991412
-0.0439030094935
-0.0345775666777
-0.0227640422641
0.000634589589795
0.0511718297857
0.114350803777
-0.124647408492
-0.124648352969
-0.124651900294
-0.124667843761
-0.124678482874
-0.124688953357
-0.124700709401
-0.124719994552
-0.124735690203
-0.124771116532
-0.124813397881
-0.124856339793
-0.124899759336
-0.124947403839
-0.125004573637
-0.125065498207
-0.125129060518
-0.125189816346
-0.125249738928
-0.12531390054
-0.125382849916
-0.125450374239
-0.125515514704
-0.125600896173
-0.125715011169
-0.125855024031
-0.12602235832
-0.126195563698
-0.126381126365
-0.126577662285
-0.126780850105
-0.12699262316
-0.127225515983
-0.127495976894
-0.127796596741
-0.12812528268
-0.128484289537
-0.128867013852
-0.129275097082
-0.129709423304
-0.13017499661
-0.130686859821
-0.131249022885
-0.131826320453
-0.132390043102
-0.132949940372
-0.133555186975
-0.134189509352
-0.135145001724
-0.133870491257
-0.132412353967
-0.131134636183
-0.12965838925
-0.128197300711
-0.126380767305
-0.123965943007
-0.121021760334
-0.117717664994
-0.114137133822
-0.110360488661
-0.106433725647
-0.102391526094
-0.0982547606591
-0.0940337470264
-0.0897271983916
-0.0853205816141
-0.080781014607
-0.0760515361575
-0.0710463907067
-0.0656431165839
-0.0596630918281